FOO
138240
    1MOL0     O    1   7.695   6.506   4.305  0.1657 -0.0508 -0.0190
    1MOL0     C    2   7.658   6.481   4.417 -0.5291 -0.0182  0.2518
    1MOL0     O    3   7.748   6.471   4.524 -0.0132  0.2448  0.3157
    1MOL0     C    4   7.881   6.500   4.496  1.4301 -0.0387 -0.4840
    1MOL0     C    5   7.925   6.629   4.511  1.2981  0.1949  0.1941
    1MOL0     C    6   8.057   6.678   4.487 -0.1728  0.1262 -0.7026
    1MOL0     C    7   8.152   6.575   4.468  0.5290  0.3187 -0.0363
    1MOL0     O    8   8.284   6.606   4.464 -0.3739  0.2078 -0.3630
    1MOL0     C    9   8.360   6.571   4.344  0.6854  0.0382 -0.3494
    1MOL0     C   10   8.450   6.678   4.290 -1.7285  0.5856  0.8242
    1MOL0     C   11   8.579   6.678   4.368 -0.1133 -0.6473  0.1977
    1MOL0     C   12   8.651   6.805   4.346  0.8715 -0.1166 -0.5973
    1MOL0     C   13   8.788   6.794   4.393 -0.6734  0.5378  0.4638
    1MOL0     C   14   8.853   6.924   4.379 -0.1247 -0.3718 -0.6247
    1MOL0     C   15   9.009   6.914   4.370 -0.6176 -0.0902  0.4966
    1MOL0     C   16   9.085   7.039   4.407  0.8335 -1.1861  1.1584
    1MOL0     N   17   9.094   7.062   4.552  0.3904 -0.0846 -0.2327
    1MOL0     C   18   9.015   7.138   4.633  0.5637  0.0841 -0.2964
    1MOL0     C   19   9.053   7.103   4.756 -0.3931  0.3672 -0.5649
    1MOL0     C   20   9.007   7.191   4.866 -0.2647  0.7563 -0.0663
    1MOL0     C   21   9.034   7.125   4.999 -0.1332 -0.0229 -0.0740
    1MOL0     C   22   9.018   7.226   5.111  0.3934 -0.3318  0.2930
    1MOL0     C   23   9.042   7.166   5.251 -0.0277  0.6430 -0.6534
    1MOL0     O   24   9.164   7.096   5.264 -0.5731  0.1408  0.3254
    1MOL0     C   25   9.264   7.149   5.344 -0.3019 -0.4970 -0.6183
    1MOL0     C   26   9.392   7.118   5.305  0.4093 -0.4881  0.1186
    1MOL0     C   27   9.495   7.145   5.394 -0.1132 -0.5743 -0.1578
    1MOL0     C   28   9.471   7.215   5.513 -0.3177 -0.8011 -0.5729
    1MOL0     C   29   9.585   7.257   5.602 -1.0250 -0.0839  0.0718
    1MOL0     O   30   9.549   7.322   5.725 -0.4400 -0.1014  0.3957
    1MOL0     C   31   9.652   7.340   5.815  0.2649  0.2426  0.1283
    1MOL0     C   32   9.757   7.438   5.802 -0.0831 -0.7880 -0.0194
    1MOL0     C   33   9.848   7.452   5.913 -0.7456  0.0068 -0.3086
    1MOL0     C   34   9.832   7.374   6.029  0.4166  0.8096 -0.6857
    1MOL0     O   35   9.935   7.367   6.116  0.1482 -0.0398  0.0184
    1MOL0     C   36   9.896   7.328   6.249  0.1155 -0.2460 -1.5249
    1MOL0     C   37   9.994   7.384   6.350 -0.3073 -0.6490  0.2803
    1MOL0     C   38   9.998   7.540   6.369 -1.1708  0.2055  0.2499
    1MOL0     C   39  10.087   7.612   6.271 -0.7222 -0.0019 -0.9175
    1MOL0     C   40  10.062   7.765   6.256  0.0656 -1.0217 -0.8666
    1MOL0     C   41  10.159   7.834   6.163 -0.0967  0.5839  0.0771
    1MOL0     C   42  10.308   7.803   6.206 -0.2393  1.4066 -0.4935
    1MOL0     C   43  10.405   7.884   6.130 -1.2086 -0.8986  0.9153
    1MOL0    Cl   44  10.566   7.836   6.186 -0.5872  0.1382  0.0073
    1MOL0     C   45   9.726   7.284   6.036 -0.3389  0.0911 -0.0401
    1MOL0     C   46   9.637   7.261   5.931 -1.3311 -0.4183  0.9304
    1MOL0     O   47   9.701   7.250   5.555  0.3054 -0.5363 -0.2497
    1MOL0     C   48   9.345   7.256   5.557  0.5955  1.4521  0.1906
    1MOL0     C   49   9.243   7.218   5.466  0.3792  0.1126 -0.2106
    1MOL0     N   50   9.168   7.026   4.753  0.6122  0.6841  0.7048
    1MOL0     N   51   9.196   7.008   4.630  0.0687  0.6949  0.0263
    1MOL0     C   52   8.108   6.439   4.452 -0.4414 -0.2224 -0.4909
    1MOL0     C   53   7.970   6.398   4.466 -0.3615 -0.4687  0.4469
    1MOL0     C   54   7.509   6.456   4.437  0.1754 -0.1036 -0.1132
    1MOL0     C   55   7.461   6.397   4.555  0.5711 -0.1826 -0.4148
    1MOL0     C   56   7.330   6.364   4.573 -0.2012  1.2466  0.0128
    1MOL0     C   57   7.238   6.400   4.474 -0.1156  0.1840 -0.9917
    1MOL0     O   58   7.107   6.367   4.481  0.0409  0.2640 -0.8282
    1MOL0     C   59   7.010   6.445   4.407  0.3132 -0.5481  0.7676
    1MOL0     C   60   6.873   6.414   4.459  0.1306  0.3168  0.2504
    1MOL0     C   61   6.771   6.488   4.365  0.0164  1.0344 -0.7667
    1MOL0     C   62   6.630   6.462   4.409 -0.4634 -0.3656 -0.4806
    1MOL0     C   63   6.609   6.505   4.555 -0.6086 -0.5547  0.4316
    1MOL0     C   64   6.595   6.532   4.670 -0.8690  0.1751 -0.6951
    1MOL0     C   65   7.277   6.448   4.355 -0.1139  0.7479 -0.3885
    1MOL0     C   66   7.415   6.471   4.335 -0.1061  0.6184 -0.4313
    1MOL0     C   67   7.446   6.501   4.195 -0.4835 -0.2223 -0.4024
    1MOL0     H   68   7.845   6.702   4.521 -0.1714 -1.4229  0.7110
    1MOL0     H   69   8.080   6.784   4.492  1.7716 -0.0097 -3.9867
    1MOL0     H   70   8.413   6.480   4.374 -1.2195 -0.4767  1.6976
    1MOL0     H   71   8.295   6.546   4.260 -2.6871 -0.6032  2.2434
    1MOL0     H   72   8.409   6.777   4.311 -0.8399  1.2322 -0.3739
    1MOL0     H   73   8.472   6.648   4.187 -0.8564 -2.7118  1.8214
    1MOL0     H   74   8.640   6.593   4.335 -0.0089 -0.9284  1.0786
    1MOL0     H   75   8.558   6.677   4.475 -0.5154 -0.3888  0.1219
    1MOL0     H   76   8.643   6.825   4.239 -0.5294 -1.5710 -0.7990
    1MOL0     H   77   8.597   6.888   4.392 -0.0210 -1.9707  1.9600
    1MOL0     H   78   8.785   6.761   4.497 -3.2260  1.5921  0.7967
    1MOL0     H   79   8.839   6.721   4.330 -0.6004  0.7527  0.2697
    1MOL0     H   80   8.811   6.984   4.298 -4.3312  0.6085  1.9395
    1MOL0     H   81   8.839   6.982   4.472  0.6937  2.0142 -1.8943
    1MOL0     H   82   9.032   6.910   4.263 -1.7867  4.0515 -0.1019
    1MOL0     H   83   9.046   6.826   4.423  0.1275 -0.9002 -1.2767
    1MOL0     H   84   9.187   7.028   4.371  0.3037 -0.2009 -0.7834
    1MOL0     H   85   9.044   7.125   4.353  0.8980 -0.6339  1.9652
    1MOL0     H   86   8.935   7.202   4.598 -0.1774  0.4239  1.8621
    1MOL0     H   87   9.059   7.287   4.860  2.9822 -0.9161 -1.8121
    1MOL0     H   88   8.898   7.196   4.863 -0.2735  0.1633 -0.9623
    1MOL0     H   89   8.967   7.041   5.020  1.7037 -1.6626 -0.4637
    1MOL0     H   90   9.136   7.086   5.002  0.5966  1.7842 -0.0505
    1MOL0     H   91   8.916   7.266   5.105  0.0862 -1.1575 -0.1315
    1MOL0     H   92   9.093   7.305   5.096 -1.0768  0.7943 -1.7966
    1MOL0     H   93   8.966   7.092   5.279  2.3984 -1.3000  1.3047
    1MOL0     H   94   9.036   7.247   5.324 -0.9799 -0.3193  0.3738
    1MOL0     H   95   9.400   7.071   5.208  2.2267  1.3079 -0.6730
    1MOL0     H   96   9.597   7.114   5.371  0.1693 -1.1855  1.7740
    1MOL0     H   97   9.784   7.491   5.712  0.2423  0.2198  0.6537
    1MOL0     H   98   9.940   7.509   5.911 -2.2289  2.5441 -0.9391
    1MOL0     H   99   9.803   7.377   6.276  2.3688  2.0561  3.1406
    1MOL0     H  100   9.887   7.220   6.236 -3.7408 -0.3833  0.9150
    1MOL0     H  101   9.968   7.345   6.449  0.1860  2.1045  1.5957
    1MOL0     H  102  10.091   7.341   6.322 -0.3533 -1.4149  1.2337
    1MOL0     H  103   9.897   7.582   6.362 -1.6909 -1.0310  0.0284
    1MOL0     H  104  10.039   7.562   6.468 -0.4478  1.5110 -0.3095
    1MOL0     H  105  10.077   7.565   6.173  0.6037 -0.8668 -0.6510
    1MOL0     H  106  10.188   7.583   6.298 -0.3667  1.6213 -0.3700
    1MOL0     H  107  10.067   7.808   6.356 -0.7577 -0.5558 -1.0150
    1MOL0     H  108   9.959   7.787   6.228  0.4314  3.1429  0.3170
    1MOL0     H  109  10.134   7.800   6.061 -1.0517  0.8499  0.2160
    1MOL0     H  110  10.124   7.937   6.176 -0.3384  0.4722  0.3287
    1MOL0     H  111  10.349   7.702   6.199 -0.5074  1.1824  0.9027
    1MOL0     H  112  10.326   7.827   6.311  1.9132 -0.1847 -0.4235
    1MOL0     H  113  10.404   7.863   6.022 -0.9910  3.2804 -0.0728
    1MOL0     H  114  10.393   7.993   6.132 -2.2440 -1.0184  2.3134
    1MOL0     H  115   9.704   7.215   6.117 -2.5744  0.9706  0.1665
    1MOL0     H  116   9.561   7.185   5.944 -0.1683 -1.6381  0.8205
    1MOL0     H  117   9.343   7.307   5.652  4.0949  0.3206  0.9982
    1MOL0     H  118   9.146   7.234   5.511  0.5689 -0.7170  0.5156
    1MOL0     H  119   8.176   6.355   4.440 -0.2109 -0.0926 -0.1147
    1MOL0     H  120   7.944   6.293   4.454 -0.2645 -0.5572  0.9792
    1MOL0     H  121   7.537   6.367   4.627  0.2057  1.3586  0.6763
    1MOL0     H  122   7.285   6.307   4.654 -2.7555 -0.7406 -2.5727
    1MOL0     H  123   7.016   6.433   4.298 -1.2913  0.7385  0.4897
    1MOL0     H  124   7.029   6.553   4.415  0.1669 -0.2130 -2.1466
    1MOL0     H  125   6.861   6.440   4.565 -1.5088 -0.7207  0.3472
    1MOL0     H  126   6.859   6.306   4.447  0.8554  0.2899 -0.4137
    1MOL0     H  127   6.786   6.442   4.267 -5.1609 -1.5015 -0.6923
    1MOL0     H  128   6.788   6.596   4.361 -1.3603  1.2218 -3.0029
    1MOL0     H  129   6.561   6.523   4.350 -0.9145 -0.3969  0.0089
    1MOL0     H  130   6.602   6.356   4.402  0.8382 -1.1400  3.3088
    1MOL0     H  131   6.584   6.551   4.775  0.8262  0.4796 -0.5393
    1MOL0     H  132   7.214   6.464   4.269  1.5756 -1.6200 -2.1946
    1MOL0     H  133   7.362   6.504   4.126 -0.4283 -2.3438 -0.6355
    1MOL0     H  134   7.497   6.596   4.178 -0.3817 -0.6435 -2.7997
    1MOL0     H  135   7.521   6.427   4.164 -1.0247 -1.4941  1.1320
    2MOL0     O  136   6.619   9.220  10.792  0.0967 -0.2869 -0.1415
    2MOL0     C  137   6.554   9.139  10.724  0.1323 -0.4664  0.3249
    2MOL0     O  138   6.590   9.012  10.702 -0.3128  0.6804  0.5859
    2MOL0     C  139   6.709   8.979  10.759  0.8284  1.4341  0.3489
    2MOL0     C  140   6.719   8.935  10.889  0.7468  0.2337  0.2763
    2MOL0     C  141   6.837   8.882  10.940 -0.6539  0.1654  0.0401
    2MOL0     C  142   6.945   8.879  10.860 -0.0844  0.5842  0.0319
    2MOL0     O  143   7.066   8.830  10.900  0.4198  0.3724  0.6290
    2MOL0     C  144   7.071   8.710  10.978 -0.1696 -0.1803 -0.2244
    2MOL0     C  145   7.200   8.636  10.947 -0.8383 -0.7956  0.4197
    2MOL0     C  146   7.202   8.580  10.802  0.2348 -0.1900  0.2874
    2MOL0     C  147   7.334   8.531  10.750  0.1342 -0.0520 -0.1459
    2MOL0     C  148   7.324   8.482  10.603  0.3992  0.8427 -0.1383
    2MOL0     C  149   7.443   8.389  10.572 -0.1425  0.7381  0.5380
    2MOL0     C  150   7.571   8.459  10.582 -0.3227 -0.3304  0.3483
    2MOL0     C  151   7.595   8.556  10.461 -0.5207 -0.5125 -0.1795
    2MOL0     N  152   7.731   8.626  10.468  0.6195  0.0884 -0.6049
    2MOL0     C  153   7.824   8.623  10.376 -0.1442 -0.6756 -1.0297
    2MOL0     C  154   7.910   8.716  10.399 -0.3572 -0.0452 -0.2475
    2MOL0     C  155   8.032   8.747  10.312 -0.4623 -0.0425 -0.2032
    2MOL0     C  156   8.144   8.640  10.331 -0.5265 -0.7797 -0.1607
    2MOL0     C  157   8.261   8.639  10.232  0.8770 -0.6133 -0.1896
    2MOL0     C  158   8.310   8.784  10.201 -0.1502 -0.4522  0.2100
    2MOL0     O  159   8.376   8.841  10.322 -0.0629  0.6160  0.3687
    2MOL0     C  160   8.499   8.797  10.363 -0.4767 -0.3509 -0.0611
    2MOL0     C  161   8.537   8.855  10.485 -0.4025  0.0224 -0.6398
    2MOL0     C  162   8.662   8.825  10.540 -1.5046  1.4627 -0.5104
    2MOL0     C  163   8.755   8.747  10.464 -0.6570  0.5237 -0.1410
    2MOL0     C  164   8.895   8.728  10.497 -0.2018 -0.4575 -0.1861
    2MOL0     O  165   8.972   8.644  10.421  0.0255  0.0348 -0.2517
    2MOL0     C  166   9.104   8.630  10.457 -0.6300 -0.1859 -0.0293
    2MOL0     C  167   9.192   8.733  10.466 -0.5010 -0.2806  0.1799
    2MOL0     C  168   9.316   8.716  10.524  0.6587  0.4376 -0.1407
    2MOL0     C  169   9.360   8.585  10.554  0.6090 -0.4607 -0.0429
    2MOL0     O  170   9.488   8.572  10.599  0.6553 -0.4125  0.0109
    2MOL0     C  171   9.512   8.447  10.668  0.1841 -1.1190 -0.0558
    2MOL0     C  172   9.637   8.457  10.742 -0.3388 -0.2102  0.2905
    2MOL0     C  173   9.675   8.315  10.799  0.3623  0.5285  0.1787
    2MOL0     C  174   9.787   8.305  10.906  0.1421  0.3802 -0.2698
    2MOL0     C  175   9.817   8.155  10.929  0.3469 -0.0034  0.0499
    2MOL0     C  176   9.903   8.135  11.055 -0.2362 -0.5346  0.1927
    2MOL0     C  177  10.062   8.141  11.043  0.4747 -0.1091  0.0533
    2MOL0     C  178  10.110   8.098  11.181 -0.6270  0.3100 -0.0990
    2MOL0    Cl  179  10.079   7.924  11.197 -0.6727 -0.1031 -0.2506
    2MOL0     C  180   9.272   8.478  10.530 -0.6173 -1.4043 -0.1874
    2MOL0     C  181   9.142   8.498  10.484 -0.5144  0.4898  0.1116
    2MOL0     O  182   8.934   8.796  10.595 -0.0572  0.0470  0.7688
    2MOL0     C  183   8.718   8.700  10.333  0.0907  0.4387 -0.1702
    2MOL0     C  184   8.587   8.728  10.286 -0.3587  0.4321 -0.3152
    2MOL0     N  185   7.876   8.781  10.520  0.1775 -0.7246  0.3220
    2MOL0     N  186   7.770   8.722  10.562 -0.8564  0.3813 -0.8257
    2MOL0     C  187   6.946   8.926  10.736  0.6281  0.6602  1.1625
    2MOL0     C  188   6.825   8.967  10.676 -0.1921 -0.3049 -0.6799
    2MOL0     C  189   6.422   9.172  10.666  0.4389 -0.8209 -0.8368
    2MOL0     C  190   6.345   9.066  10.613 -0.2079  0.0246  0.4122
    2MOL0     C  191   6.221   9.089  10.557 -1.1350 -0.4380  0.4055
    2MOL0     C  192   6.158   9.217  10.558 -0.7083  0.2819 -0.1869
    2MOL0     O  193   6.029   9.254  10.508 -0.1430 -0.3016 -0.1918
    2MOL0     C  194   5.941   9.158  10.448 -0.0376 -0.0606  0.1400
    2MOL0     C  195   5.800   9.213  10.416 -1.0108  0.0694 -0.4442
    2MOL0     C  196   5.726   9.252  10.543 -0.3773  0.1822  0.1692
    2MOL0     C  197   5.579   9.287  10.514 -0.7669  0.1953 -0.5032
    2MOL0     C  198   5.517   9.354  10.628 -0.2293  0.2490 -0.3074
    2MOL0     C  199   5.486   9.423  10.720 -0.4584  0.4830 -0.2634
    2MOL0     C  200   6.238   9.328  10.613  0.2967  0.6902 -0.0114
    2MOL0     C  201   6.373   9.308  10.656 -0.2549  0.0511 -0.6244
    2MOL0     C  202   6.452   9.426  10.709 -0.9325  0.4110  0.1492
    2MOL0     H  203   6.636   8.941  10.958 -1.0533  1.7244 -1.8651
    2MOL0     H  204   6.841   8.850  11.043  0.1708 -1.9958 -0.6075
    2MOL0     H  205   7.066   8.730  11.085 -1.1096 -2.3631  0.1987
    2MOL0     H  206   6.982   8.653  10.950 -0.3417 -0.3966  0.7447
    2MOL0     H  207   7.214   8.552  11.015  0.8301 -0.6285  0.3231
    2MOL0     H  208   7.287   8.702  10.952 -0.5909 -0.9278 -1.3437
    2MOL0     H  209   7.167   8.659  10.735 -4.0407 -3.6444 -2.1054
    2MOL0     H  210   7.125   8.504  10.791 -0.2003  0.4445 -1.2712
    2MOL0     H  211   7.418   8.597  10.775 -0.0743  2.9161 -5.7270
    2MOL0     H  212   7.358   8.443  10.811 -0.1460  0.7893  1.2201
    2MOL0     H  213   7.231   8.427  10.585  1.1223 -0.2006 -0.7317
    2MOL0     H  214   7.333   8.566  10.532  1.9720 -0.4697 -1.5789
    2MOL0     H  215   7.451   8.319  10.656  5.6494 -3.0680 -2.5066
    2MOL0     H  216   7.440   8.333  10.478  0.8835  2.9460 -0.8906
    2MOL0     H  217   7.653   8.386  10.574  1.9308  2.1978 -1.9044
    2MOL0     H  218   7.583   8.511  10.677 -2.0591  1.4545 -0.3243
    2MOL0     H  219   7.602   8.493  10.372  0.4555  1.5893 -1.6769
    2MOL0     H  220   7.525   8.636  10.441 -1.1414 -1.5144 -2.2850
    2MOL0     H  221   7.834   8.543  10.303 -2.0436  0.1579 -2.2929
    2MOL0     H  222   8.000   8.743  10.208 -0.5264 -2.6806 -0.1320
    2MOL0     H  223   8.059   8.852  10.330  1.0172 -0.3787 -0.3266
    2MOL0     H  224   8.179   8.659  10.433 -2.0174  0.4758  0.1632
    2MOL0     H  225   8.093   8.544  10.338 -2.0985  0.0366  0.2776
    2MOL0     H  226   8.230   8.600  10.134 -0.7054  4.5757 -2.0799
    2MOL0     H  227   8.343   8.575  10.266  1.0719 -0.5786 -0.5795
    2MOL0     H  228   8.228   8.847  10.165 -1.3927  0.1837  3.7376
    2MOL0     H  229   8.390   8.778  10.127  1.1327  0.0334  1.5016
    2MOL0     H  230   8.463   8.915  10.536 -0.2794  0.5540 -1.0738
    2MOL0     H  231   8.701   8.866  10.632  0.5183 -0.9955 -0.1404
    2MOL0     H  232   9.166   8.831  10.427 -0.3289 -1.2641 -2.6594
    2MOL0     H  233   9.394   8.792  10.527 -0.3206  1.4545  1.7680
    2MOL0     H  234   9.435   8.415  10.738  2.4119 -1.8013  2.2372
    2MOL0     H  235   9.519   8.372  10.588 -3.6923 -1.3025 -0.3959
    2MOL0     H  236   9.715   8.506  10.684 -1.3947 -0.6801 -1.6171
    2MOL0     H  237   9.634   8.522  10.829  1.2939 -2.6137  2.2937
    2MOL0     H  238   9.585   8.263  10.833 -0.2250  2.0408  1.0228
    2MOL0     H  239   9.712   8.261  10.711 -1.9928 -0.6648 -0.1484
    2MOL0     H  240   9.757   8.363  10.994 -1.7832 -1.0379  0.0850
    2MOL0     H  241   9.873   8.353  10.860  0.6091 -0.6614 -0.5028
    2MOL0     H  242   9.872   8.122  10.840 -2.2809  1.5544 -2.2986
    2MOL0     H  243   9.729   8.090  10.937  2.5076 -2.8687  3.0266
    2MOL0     H  244   9.858   8.199  11.132 -1.5837 -2.1122  0.7834
    2MOL0     H  245   9.886   8.033  11.093  2.9733 -0.6396  1.7028
    2MOL0     H  246  10.102   8.240  11.016  1.8950 -0.0319  2.2006
    2MOL0     H  247  10.107   8.075  10.970 -0.9097 -1.8499  0.6973
    2MOL0     H  248  10.214   8.127  11.202 -2.0234  4.6509  2.0405
    2MOL0     H  249  10.059   8.146  11.265 -0.1175  2.1834 -0.7960
    2MOL0     H  250   9.299   8.378  10.561 -0.0546 -1.4386 -0.7514
    2MOL0     H  251   9.067   8.420  10.477 -0.5091  0.4036  0.9351
    2MOL0     H  252   8.785   8.647  10.266  0.5716  1.6108 -0.6394
    2MOL0     H  253   8.565   8.698  10.184 -0.3747 -0.0280 -0.1769
    2MOL0     H  254   7.036   8.920  10.675  1.1363  2.3236  1.6905
    2MOL0     H  255   6.820   8.993  10.570  0.5210 -0.6921 -0.8180
    2MOL0     H  256   6.385   8.965  10.615 -1.0006 -0.2858  1.9070
    2MOL0     H  257   6.155   9.011  10.522 -1.6458 -0.0468  0.4803
    2MOL0     H  258   5.932   9.086  10.530  1.7785 -1.5490 -0.9011
    2MOL0     H  259   5.991   9.115  10.361  1.7766  0.0790  1.0788
    2MOL0     H  260   5.744   9.131  10.371  0.7761 -1.6894  0.4119
    2MOL0     H  261   5.794   9.297  10.346 -0.3459  1.4240  1.0592
    2MOL0     H  262   5.774   9.337  10.591 -1.5430  0.2444  1.2692
    2MOL0     H  263   5.737   9.165  10.610 -1.4928 -1.4592 -1.6743
    2MOL0     H  264   5.575   9.366  10.439  2.8868  1.7858  0.7627
    2MOL0     H  265   5.526   9.196  10.482 -0.8261  0.2677 -0.6136
    2MOL0     H  266   5.461   9.492  10.798 -2.7429 -1.7456  1.0805
    2MOL0     H  267   6.190   9.425  10.609 -0.0160  0.5059 -1.1048
    2MOL0     H  268   6.558   9.432  10.682 -0.4500  0.6637  1.9571
    2MOL0     H  269   6.412   9.524  10.680  1.2061  1.0836 -0.7415
    2MOL0     H  270   6.445   9.427  10.818 -0.0693  0.4874  0.2130
    3MOL0     O  271   9.607   5.364   0.404  0.8005  0.3042 -0.4233
    3MOL0     C  272   9.492   5.417   0.409 -0.5373  0.0962  0.1836
    3MOL0     O  273   9.428   5.454   0.530 -0.9665 -0.6309 -0.0894
    3MOL0     C  274   9.498   5.480   0.646  0.1332 -0.2065 -0.1498
    3MOL0     C  275   9.571   5.378   0.708  0.2215  0.1009 -0.2414
    3MOL0     C  276   9.619   5.392   0.843 -0.0781 -0.2537 -0.2663
    3MOL0     C  277   9.594   5.510   0.917  0.0549 -0.2929  0.5613
    3MOL0     O  278   9.644   5.512   1.038  0.4594  0.0124  0.0742
    3MOL0     C  279   9.675   5.631   1.103  0.2060  0.4674  0.1265
    3MOL0     C  280   9.781   5.597   1.206  0.5170  0.1416 -0.7803
    3MOL0     C  281   9.926   5.581   1.161 -0.2534  0.0270 -0.6586
    3MOL0     C  282   9.960   5.506   1.034 -0.1896  0.1731  0.1901
    3MOL0     C  283  10.117   5.515   1.019 -0.2313 -0.3260 -0.9770
    3MOL0     C  284  10.150   5.428   0.894 -0.2024 -0.6578  0.3289
    3MOL0     C  285  10.301   5.446   0.854 -0.3222  0.4332  0.0535
    3MOL0     C  286  10.328   5.405   0.710  0.4794 -0.0144  0.2389
    3MOL0     N  287  10.469   5.414   0.666 -1.0071 -0.0031  0.2014
    3MOL0     C  288  10.580   5.356   0.718 -0.1668 -0.4652 -0.6511
    3MOL0     C  289  10.684   5.422   0.682 -0.1733 -1.2799  0.2696
    3MOL0     C  290  10.832   5.389   0.699  0.0527  0.1395 -0.5692
    3MOL0     C  291  10.888   5.437   0.834 -0.3535 -0.6705 -0.0769
    3MOL0     C  292  10.996   5.351   0.880 -0.3923  0.2339 -0.7119
    3MOL0     C  293  11.123   5.361   0.797  0.5130  0.6693  0.3372
    3MOL0     O  294  11.191   5.248   0.847 -0.1828  0.3504  0.3791
    3MOL0     C  295  11.326   5.254   0.832  0.6833 -0.5125 -0.0726
    3MOL0     C  296  11.404   5.321   0.920 -0.1339 -0.1370  0.0784
    3MOL0     C  297  11.537   5.341   0.901 -0.1436 -0.6497 -0.1560
    3MOL0     C  298  11.599   5.296   0.781  1.7416 -0.5817 -0.4375
    3MOL0     C  299  11.733   5.338   0.748  0.4737 -0.4817 -0.3779
    3MOL0     O  300  11.786   5.436   0.828  0.1927  0.1446  0.4126
    3MOL0     C  301  11.915   5.418   0.862 -0.6344 -0.2210  0.1876
    3MOL0     C  302  11.948   5.370   0.993 -0.3051 -0.5787  0.0861
    3MOL0     C  303  12.079   5.364   1.034  0.3824 -0.8031 -0.2051
    3MOL0     C  304  12.180   5.384   0.942  0.3567  0.4692  0.2743
    3MOL0     O  305  12.309   5.358   0.973 -0.6233 -0.1435 -0.1554
    3MOL0     C  306  12.378   5.256   0.904 -0.3195  0.0476 -0.1115
    3MOL0     C  307  12.527   5.271   0.935  0.1296 -0.9474  0.2006
    3MOL0     C  308  12.589   5.382   0.844  0.0168 -0.5916  0.8247
    3MOL0     C  309  12.743   5.394   0.836  0.5402 -0.7111  0.2642
    3MOL0     C  310  12.808   5.522   0.784  0.2922  0.2122  0.0277
    3MOL0     C  311  12.957   5.507   0.762  0.7731  0.1197 -0.3610
    3MOL0     C  312  13.019   5.629   0.689 -0.0369  0.8302  0.5785
    3MOL0     C  313  13.014   5.764   0.769  0.2721  0.2712 -0.1229
    3MOL0    Cl  314  12.856   5.847   0.730  0.2550  0.1488  0.5263
    3MOL0     C  315  12.152   5.417   0.812 -0.7086 -0.1018 -0.6352
    3MOL0     C  316  12.021   5.442   0.769 -0.2769 -0.3175 -0.2855
    3MOL0     O  317  11.784   5.289   0.649 -0.0024  0.4834 -0.1326
    3MOL0     C  318  11.514   5.221   0.692  0.1840  0.2817 -0.3484
    3MOL0     C  319  11.384   5.203   0.718 -0.1912 -0.3698  0.2896
    3MOL0     N  320  10.648   5.518   0.592  0.2727  0.6013  0.9011
    3MOL0     N  321  10.517   5.517   0.587 -0.2653 -0.1521  0.4239
    3MOL0     C  322   9.523   5.617   0.859  0.3488  0.7402  0.2648
    3MOL0     C  323   9.466   5.601   0.726 -0.5351 -0.5432 -0.5746
    3MOL0     C  324   9.406   5.396   0.292  0.5956  0.2392  0.1970
    3MOL0     C  325   9.269   5.354   0.320 -0.2488 -0.2350  0.5999
    3MOL0     C  326   9.188   5.309   0.219 -0.0287  0.5490  0.8039
    3MOL0     C  327   9.231   5.307   0.083 -0.3578 -1.2079 -0.7428
    3MOL0     O  328   9.153   5.277  -0.021  0.7667  0.9118  0.1234
    3MOL0     C  329   9.014   5.310  -0.010 -0.3639 -0.6724 -0.0825
    3MOL0     C  330   9.005   5.462  -0.001  0.1846 -0.9767 -0.0046
    3MOL0     C  331   8.858   5.485  -0.019 -0.8534  0.4723 -0.1284
    3MOL0     C  332   8.841   5.632  -0.047  0.4603 -0.1796  0.0195
    3MOL0     C  333   8.702   5.656  -0.066 -0.8427 -0.1192  0.1974
    3MOL0     C  334   8.598   5.700  -0.109  0.3012  0.6235 -0.2590
    3MOL0     C  335   9.361   5.358   0.056  0.1631 -0.4789  0.4466
    3MOL0     C  336   9.446   5.408   0.162  0.0932 -0.3913 -0.4742
    3MOL0     C  337   9.593   5.446   0.134  0.8696  0.4952 -0.3641
    3MOL0     H  338   9.581   5.284   0.655  2.0305 -0.7772  1.5598
    3MOL0     H  339   9.676   5.308   0.880 -0.1934 -2.3901 -4.4083
    3MOL0     H  340   9.699   5.711   1.032 -3.0560  1.2073 -0.3016
    3MOL0     H  341   9.585   5.671   1.152  0.0761  2.2433 -1.4467
    3MOL0     H  342   9.756   5.501   1.253 -2.8202  3.1653  4.6118
    3MOL0     H  343   9.762   5.671   1.283 -1.8458 -0.7023 -0.4551
    3MOL0     H  344   9.982   5.544   1.247  0.8230  2.7931 -0.0673
    3MOL0     H  345   9.976   5.677   1.146  1.5455 -1.1387 -2.7771
    3MOL0     H  346   9.941   5.399   1.044  0.0409 -0.2568 -3.0460
    3MOL0     H  347   9.909   5.544   0.945  0.0598 -0.2089 -0.1165
    3MOL0     H  348  10.144   5.620   1.013  1.2270 -0.6854 -1.1490
    3MOL0     H  349  10.181   5.475   1.099  0.5484  0.9025 -0.9692
    3MOL0     H  350  10.116   5.326   0.908 -1.5889 -0.7798 -2.8897
    3MOL0     H  351  10.098   5.469   0.806  1.0447 -1.2727 -0.7370
    3MOL0     H  352  10.368   5.392   0.922  1.3658 -0.0722 -1.9220
    3MOL0     H  353  10.348   5.544   0.852  0.4511  0.0611 -2.0993
    3MOL0     H  354  10.295   5.302   0.698  0.0680  0.3502 -2.5044
    3MOL0     H  355  10.271   5.469   0.642  0.9971 -0.4869 -0.6600
    3MOL0     H  356  10.567   5.276   0.790 -1.3017  0.5089  0.2565
    3MOL0     H  357  10.827   5.281   0.688  1.1274  0.0366 -0.1471
    3MOL0     H  358  10.889   5.442   0.622  0.5177  2.5436  1.2993
    3MOL0     H  359  10.921   5.541   0.833 -1.3581 -0.3437 -1.0284
    3MOL0     H  360  10.811   5.421   0.911  0.5913 -1.9516  0.6598
    3MOL0     H  361  10.971   5.245   0.890 -1.3144  0.5857  1.3211
    3MOL0     H  362  11.025   5.391   0.978  1.3708  1.5602 -1.7211
    3MOL0     H  363  11.165   5.460   0.818  0.9570  0.6325 -0.3358
    3MOL0     H  364  11.104   5.361   0.689 -1.3094  0.2990  0.6238
    3MOL0     H  365  11.349   5.359   1.006  0.3193 -1.2465  0.8961
    3MOL0     H  366  11.591   5.406   0.970  1.2817 -1.4155 -0.5185
    3MOL0     H  367  11.872   5.346   1.067 -4.1887  1.6116 -2.8174
    3MOL0     H  368  12.115   5.328   1.130 -2.0229 -1.6533  0.4343
    3MOL0     H  369  12.331   5.162   0.936  2.8890 -1.4710  0.5832
    3MOL0     H  370  12.372   5.268   0.796 -0.1882  0.5397 -0.0631
    3MOL0     H  371  12.543   5.305   1.038 -0.9310 -1.7805  0.6488
    3MOL0     H  372  12.566   5.170   0.921 -0.9964 -1.0866 -2.8354
    3MOL0     H  373  12.559   5.364   0.740 -0.5698  0.8047  0.7322
    3MOL0     H  374  12.535   5.475   0.863 -1.9447 -0.4891 -3.8107
    3MOL0     H  375  12.773   5.306   0.779 -1.8259 -0.7265 -1.0664
    3MOL0     H  376  12.786   5.394   0.937  0.3787  1.6368  0.3923
    3MOL0     H  377  12.792   5.607   0.850  0.3966  1.0032 -0.9392
    3MOL0     H  378  12.764   5.542   0.686 -0.4877 -2.3083 -0.2035
    3MOL0     H  379  13.012   5.474   0.850  0.4059 -0.4338 -0.3315
    3MOL0     H  380  12.967   5.414   0.706  1.8737 -0.8210  1.3160
    3MOL0     H  381  12.975   5.639   0.589  0.9592  1.9727  0.2392
    3MOL0     H  382  13.125   5.604   0.679  0.3519  2.3535  0.7866
    3MOL0     H  383  13.014   5.749   0.877 -0.3288 -0.2454 -0.1890
    3MOL0     H  384  13.098   5.827   0.736  0.9983 -0.1521  0.8881
    3MOL0     H  385  12.241   5.420   0.750 -0.6932 -2.0722 -0.7563
    3MOL0     H  386  12.010   5.467   0.664 -2.4387 -0.1126 -0.0477
    3MOL0     H  387  11.567   5.178   0.607  0.8678  0.8995 -0.2527
    3MOL0     H  388  11.320   5.149   0.648 -0.2915 -0.3948  0.4000
    3MOL0     H  389   9.508   5.713   0.909  1.0970  0.9773  0.0416
    3MOL0     H  390   9.426   5.685   0.670  0.8011 -0.9614 -2.2563
    3MOL0     H  391   9.223   5.358   0.418  0.3680 -1.6539  0.9710
    3MOL0     H  392   9.092   5.274   0.256  0.3762 -2.1196 -0.5142
    3MOL0     H  393   8.956   5.266   0.072 -1.2130  0.0751 -0.2601
    3MOL0     H  394   8.976   5.277  -0.107  1.4648  0.9618 -1.4373
    3MOL0     H  395   9.067   5.516  -0.073 -1.2117  0.4043 -0.2271
    3MOL0     H  396   9.026   5.493   0.102  0.2783 -1.4115  0.1124
    3MOL0     H  397   8.802   5.454   0.070 -3.2980  1.8022 -1.1111
    3MOL0     H  398   8.822   5.428  -0.106  1.9652  0.8411 -1.6515
    3MOL0     H  399   8.868   5.703   0.031  1.6281 -0.7340  0.1451
    3MOL0     H  400   8.904   5.664  -0.131  1.3384 -0.6695  0.4728
    3MOL0     H  401   8.504   5.726  -0.152  0.9520 -0.5554 -2.5232
    3MOL0     H  402   9.403   5.363  -0.044  1.4500  0.1553  0.9933
    3MOL0     H  403   9.616   5.540   0.186 -1.0588  1.0064 -0.3625
    3MOL0     H  404   9.667   5.373   0.169 -0.2627  0.5919  2.5534
    3MOL0     H  405   9.602   5.455   0.026 -2.8945 -0.0214 -0.8568
    4MOL0     O  406   4.749  10.778   0.458 -0.3093  0.3331  0.1094
    4MOL0     C  407   4.748  10.696   0.366 -1.0861  0.2389 -0.7252
    4MOL0     O  408   4.833  10.587   0.367 -0.6229  0.1079  0.4646
    4MOL0     C  409   4.943  10.587   0.459 -0.0038 -0.5515 -0.8318
    4MOL0     C  410   5.061  10.656   0.429 -0.7569  0.1774 -0.2105
    4MOL0     C  411   5.173  10.646   0.513 -0.4340 -0.5875  0.2194
    4MOL0     C  412   5.163  10.569   0.631  0.0678  0.4051 -0.5741
    4MOL0     O  413   5.264  10.548   0.723  0.2499  0.0315  0.3630
    4MOL0     C  414   5.394  10.577   0.687 -0.5109 -0.3096  0.6410
    4MOL0     C  415   5.486  10.530   0.801  0.5558 -0.9902 -0.0846
    4MOL0     C  416   5.636  10.550   0.786  0.0912  0.8979  0.1183
    4MOL0     C  417   5.706  10.520   0.918 -0.0359 -0.0826  0.1694
    4MOL0     C  418   5.860  10.539   0.899  1.4559  0.4443 -0.2132
    4MOL0     C  419   5.923  10.437   0.791 -0.7575  0.3937 -0.2837
    4MOL0     C  420   6.047  10.500   0.730  0.3354  0.3498  0.5161
    4MOL0     C  421   6.137  10.405   0.655  0.2396 -0.2213  0.0800
    4MOL0     N  422   6.067  10.384   0.532 -0.1262 -0.2818 -0.5628
    4MOL0     C  423   6.086  10.449   0.417  0.1433 -0.1872 -0.0302
    4MOL0     C  424   6.039  10.363   0.329  0.0096  0.7625  0.8531
    4MOL0     C  425   6.040  10.390   0.181  0.2356  0.5239 -0.0056
    4MOL0     C  426   5.930  10.493   0.150 -0.2717  0.5851 -0.7423
    4MOL0     C  427   5.937  10.551   0.017 -0.0928  0.2374 -0.0052
    4MOL0     C  428   5.827  10.647  -0.014  0.4129 -0.5323 -0.4564
    4MOL0     O  429   5.849  10.703  -0.144  1.2410  0.1342 -0.3776
    4MOL0     C  430   5.754  10.688  -0.240  0.2504  0.2118 -1.1239
    4MOL0     C  431   5.800  10.690  -0.375  0.0134  0.7300 -0.3234
    4MOL0     C  432   5.709  10.678  -0.482  0.4553  0.6873 -0.0396
    4MOL0     C  433   5.572  10.665  -0.457  0.9949 -0.5004  0.4714
    4MOL0     C  434   5.491  10.638  -0.578  0.0581 -0.1346  0.1039
    4MOL0     O  435   5.544  10.574  -0.686  0.1163  0.4057  0.0285
    4MOL0     C  436   5.470  10.538  -0.793  0.2009  0.3832  0.2299
    4MOL0     C  437   5.424  10.636  -0.879 -0.1014 -0.8616  0.3664
    4MOL0     C  438   5.345  10.607  -0.995 -0.2925 -0.5575 -0.7686
    4MOL0     C  439   5.301  10.473  -1.013  1.0400 -0.1162  0.4393
    4MOL0     O  440   5.232  10.448  -1.128  0.6943  0.6787  0.1926
    4MOL0     C  441   5.120  10.366  -1.108  0.8202 -0.1351  0.5763
    4MOL0     C  442   5.025  10.403  -1.223 -0.1139 -0.0580 -1.3885
    4MOL0     C  443   4.895  10.334  -1.205  0.1703 -0.9093  0.2109
    4MOL0     C  444   4.809  10.357  -1.334  0.3441 -0.2424 -0.4372
    4MOL0     C  445   4.661  10.292  -1.320 -0.7613  0.5259  0.6938
    4MOL0     C  446   4.593  10.310  -1.460 -0.1936 -0.9706  0.0491
    4MOL0     C  447   4.451  10.268  -1.470 -0.6742 -0.3715 -1.1444
    4MOL0     C  448   4.405  10.243  -1.622 -0.2817  0.3222  0.4832
    4MOL0    Cl  449   4.458  10.367  -1.732  0.0177  0.4392  0.2658
    4MOL0     C  450   5.337  10.379  -0.917  0.0125  0.1968 -0.5441
    4MOL0     C  451   5.424  10.409  -0.805 -0.4128  0.3875  0.3583
    4MOL0     O  452   5.378  10.686  -0.576  0.1812  0.4285 -0.1766
    4MOL0     C  453   5.523  10.662  -0.327 -0.2343 -0.2605  0.0188
    4MOL0     C  454   5.612  10.681  -0.223 -0.5583 -0.1983 -0.2726
    4MOL0     N  455   5.970  10.264   0.390 -0.3695 -0.4624  0.1036
    4MOL0     N  456   5.982  10.277   0.515  0.1033 -0.4395  0.3411
    4MOL0     C  457   5.041  10.510   0.663 -0.0308 -0.0004 -0.3531
    4MOL0     C  458   4.929  10.519   0.578 -0.2169  0.3940  0.2779
    4MOL0     C  459   4.642  10.693   0.259 -0.2908 -0.6904 -0.7793
    4MOL0     C  460   4.586  10.572   0.213  0.1102 -0.1798  0.0192
    4MOL0     C  461   4.498  10.567   0.107 -0.2074  0.7456  0.6183
    4MOL0     C  462   4.435  10.681   0.052 -0.2028  0.1367 -1.0254
    4MOL0     O  463   4.337  10.679  -0.045  0.3748 -0.8788 -0.1055
    4MOL0     C  464   4.312  10.551  -0.110 -0.1464  0.2773  0.4777
    4MOL0     C  465   4.227  10.578  -0.238  0.0505 -0.8410 -0.4796
    4MOL0     C  466   4.075  10.597  -0.208  0.5055 -0.0097  0.8380
    4MOL0     C  467   4.009  10.666  -0.331  0.2778  0.9505  0.1420
    4MOL0     C  468   3.867  10.686  -0.313 -0.5100 -0.0685 -0.5462
    4MOL0     C  469   3.748  10.701  -0.301  0.4315 -0.4422 -0.7462
    4MOL0     C  470   4.475  10.806   0.105 -0.1598 -0.6712 -0.8485
    4MOL0     C  471   4.575  10.814   0.209 -0.6154  0.5646  0.3784
    4MOL0     C  472   4.596  10.953   0.269 -0.0083 -0.2171  0.9162
    4MOL0     H  473   5.070  10.711   0.337  0.9532 -1.9196 -1.3925
    4MOL0     H  474   5.270  10.687   0.487  0.0454 -1.7684  0.0846
    4MOL0     H  475   5.408  10.527   0.591 -1.6181 -0.6046  0.6225
    4MOL0     H  476   5.415  10.679   0.651  1.2312 -1.1336 -0.8845
    4MOL0     H  477   5.467  10.425   0.821  0.7507 -1.1038 -0.4923
    4MOL0     H  478   5.447  10.589   0.884  0.8494 -2.2853  1.0027
    4MOL0     H  479   5.665  10.650   0.754  1.7097  0.8231  1.2205
    4MOL0     H  480   5.657  10.468   0.716 -1.6457  1.4039 -1.0504
    4MOL0     H  481   5.662  10.590   0.989  2.7479 -0.7068  2.7384
    4MOL0     H  482   5.706  10.416   0.953  2.0754 -0.4615 -0.7783
    4MOL0     H  483   5.871  10.641   0.860 -2.3004  0.9611 -0.2614
    4MOL0     H  484   5.922  10.541   0.989 -0.7087 -0.1339  1.3777
    4MOL0     H  485   5.950  10.344   0.842  0.0010  2.0300  2.5387
    4MOL0     H  486   5.854  10.415   0.709 -1.0176 -0.6449  0.1986
    4MOL0     H  487   6.106  10.540   0.813 -1.9847  1.4760  1.7507
    4MOL0     H  488   6.019  10.581   0.662 -0.2416 -0.6806 -0.5040
    4MOL0     H  489   6.234  10.452   0.637  1.0128  1.2367  5.9027
    4MOL0     H  490   6.164  10.318   0.715 -0.0646  0.4165  1.1746
    4MOL0     H  491   6.153  10.533   0.403  1.2801 -1.4294 -2.7067
    4MOL0     H  492   6.138  10.429   0.154 -0.1086  0.7582 -0.9548
    4MOL0     H  493   6.021  10.298   0.124  1.4274  0.5520 -0.4752
    4MOL0     H  494   5.838  10.437   0.172  0.2337 -0.0397 -0.1498
    4MOL0     H  495   5.937  10.568   0.229 -1.8827 -1.0435  1.0770
    4MOL0     H  496   5.943  10.467  -0.052  3.4696 -0.4996  0.9621
    4MOL0     H  497   6.025  10.616   0.002 -1.4845  2.8385  2.2012
    4MOL0     H  498   5.827  10.732   0.055  4.4675 -0.1648 -0.6442
    4MOL0     H  499   5.730  10.600  -0.002 -0.1667  1.1916  2.5548
    4MOL0     H  500   5.907  10.704  -0.384  0.9984 -4.2834  0.5777
    4MOL0     H  501   5.746  10.680  -0.584  1.0727  0.6062  0.1802
    4MOL0     H  502   5.454  10.738  -0.857 -1.9947  1.2765 -5.2792
    4MOL0     H  503   5.298  10.688  -1.050 -0.4443  0.3460  0.6312
    4MOL0     H  504   5.155  10.262  -1.117 -3.3238 -1.7791  1.0387
    4MOL0     H  505   5.074  10.382  -1.010 -0.2167  2.0490 -0.1981
    4MOL0     H  506   5.014  10.511  -1.215  0.5467 -0.1102  1.8547
    4MOL0     H  507   5.078  10.370  -1.313  2.9497  1.8911 -0.4679
    4MOL0     H  508   4.907  10.228  -1.180  1.2801 -1.9878 -3.9811
    4MOL0     H  509   4.843  10.387  -1.125  1.6577  1.8666 -0.5205
    4MOL0     H  510   4.865  10.335  -1.425  0.4349  2.3622 -1.1058
    4MOL0     H  511   4.795  10.465  -1.345 -1.2680 -0.2270  1.2131
    4MOL0     H  512   4.602  10.346  -1.245  0.5197 -1.2580  3.1442
    4MOL0     H  513   4.674  10.188  -1.289  4.3008  0.1792 -1.5403
    4MOL0     H  514   4.593  10.418  -1.476  0.5548  0.0679  5.1656
    4MOL0     H  515   4.653  10.249  -1.528 -2.5908 -1.8936 -1.3648
    4MOL0     H  516   4.381  10.344  -1.435  1.7492  1.8060 -0.7726
    4MOL0     H  517   4.421  10.185  -1.405  0.9751 -1.0317 -1.1763
    4MOL0     H  518   4.440  10.145  -1.656 -0.6409  0.1706  0.5534
    4MOL0     H  519   4.297  10.231  -1.630 -0.2930  1.3895 -1.5482
    4MOL0     H  520   5.312  10.274  -0.931 -1.3614  0.1967  1.5084
    4MOL0     H  521   5.456  10.328  -0.741 -0.5317 -1.6121 -1.9643
    4MOL0     H  522   5.417  10.651  -0.306 -0.0354 -1.4038  0.4751
    4MOL0     H  523   5.581  10.685  -0.119  3.3856 -0.4816  1.1017
    4MOL0     H  524   5.034  10.444   0.749  0.5679 -1.0426 -1.0912
    4MOL0     H  525   4.837  10.464   0.599  0.7133 -1.1163  0.5070
    4MOL0     H  526   4.618  10.474   0.248 -0.2827 -1.0120 -1.8111
    4MOL0     H  527   4.469  10.467   0.077 -1.8637  1.3348  0.1525
    4MOL0     H  528   4.256  10.491  -0.038  2.0932  1.3040  3.2936
    4MOL0     H  529   4.402  10.493  -0.134  0.0474  1.4940 -2.1446
    4MOL0     H  530   4.241  10.482  -0.288  1.5085 -1.4178  0.9057
    4MOL0     H  531   4.265  10.658  -0.302  0.6959  0.0771  0.9708
    4MOL0     H  532   4.058  10.667  -0.125 -2.1913  0.5473 -0.0784
    4MOL0     H  533   4.032  10.501  -0.177  4.3148 -1.9919  0.5738
    4MOL0     H  534   4.063  10.757  -0.358 -1.9152  1.5880 -2.4589
    4MOL0     H  535   4.023  10.599  -0.416 -1.3310  0.2585  0.3821
    4MOL0     H  536   3.643  10.708  -0.285  0.2394 -1.7905 -1.3192
    4MOL0     H  537   4.420  10.892   0.070  1.8593  1.2875  0.5012
    4MOL0     H  538   4.587  10.939   0.378 -0.7118 -0.0438  0.8828
    4MOL0     H  539   4.688  10.998   0.233 -0.1818 -1.5104 -1.3419
    4MOL0     H  540   4.523  11.023   0.228 -0.7961 -2.4950 -1.8914
    5MOL0     O  541   6.001   9.812   3.285 -0.3790  0.2175 -0.7011
    5MOL0     C  542   5.987   9.872   3.181  0.1785  0.8234 -0.5027
    5MOL0     O  543   6.087   9.940   3.116 -0.0798  0.2018  0.2729
    5MOL0     C  544   6.220   9.902   3.113  0.0401 -0.4544 -1.0303
    5MOL0     C  545   6.268   9.788   3.055 -0.1095  0.4356 -0.0219
    5MOL0     C  546   6.405   9.771   3.024 -0.1807 -0.1173  0.7379
    5MOL0     C  547   6.507   9.853   3.082 -0.1469 -0.3614 -0.7448
    5MOL0     O  548   6.642   9.830   3.062 -0.0275 -0.0205 -0.4703
    5MOL0     C  549   6.673   9.690   3.013 -1.0001  0.2634  0.3931
    5MOL0     C  550   6.821   9.671   3.040  0.3341 -0.6211  0.8487
    5MOL0     C  551   6.861   9.531   3.021 -0.3753 -0.5621 -0.0199
    5MOL0     C  552   7.014   9.528   3.021  0.3408 -0.1116 -0.4765
    5MOL0     C  553   7.068   9.383   3.004 -0.3884 -0.4715 -0.1287
    5MOL0     C  554   7.214   9.369   3.065 -1.0150  0.4522 -0.0131
    5MOL0     C  555   7.229   9.387   3.216  0.5652  0.2762  0.1855
    5MOL0     C  556   7.367   9.338   3.269 -0.2871  0.0196  0.1834
    5MOL0     N  557   7.406   9.372   3.402 -0.1049 -0.8168 -0.2446
    5MOL0     C  558   7.314   9.374   3.511  0.7472 -0.5751  0.3222
    5MOL0     C  559   7.394   9.378   3.619 -0.0585  0.3515 -0.2273
    5MOL0     C  560   7.366   9.371   3.767 -0.7895 -0.0610 -0.1147
    5MOL0     C  561   7.300   9.498   3.828 -0.5719  0.2331 -0.4496
    5MOL0     C  562   7.390   9.603   3.895  0.0478 -0.2823 -0.3842
    5MOL0     C  563   7.481   9.675   3.796 -0.0936  0.0186  1.0189
    5MOL0     O  564   7.603   9.727   3.854  0.3480  1.0234  0.4433
    5MOL0     C  565   7.724   9.721   3.786  0.3394  0.0057  0.1191
    5MOL0     C  566   7.760   9.666   3.664 -0.3426 -0.2603 -0.2759
    5MOL0     C  567   7.891   9.674   3.618  0.0225  0.1215 -0.1586
    5MOL0     C  568   7.996   9.729   3.692  0.2279 -0.1480  0.7383
    5MOL0     C  569   8.137   9.716   3.652  0.1355  0.1882  0.1757
    5MOL0     O  570   8.231   9.769   3.741  0.3273  0.5636 -0.0570
    5MOL0     C  571   8.357   9.807   3.688  0.3184  0.6908  0.2323
    5MOL0     C  572   8.393   9.943   3.677 -0.4465 -0.1536  0.1611
    5MOL0     C  573   8.523   9.968   3.627 -0.0920 -0.2336  0.4339
    5MOL0     C  574   8.610   9.862   3.578 -0.5293 -0.1687 -0.9164
    5MOL0     O  575   8.745   9.883   3.551  0.0011  0.2167 -0.0345
    5MOL0     C  576   8.792  10.017   3.560  0.2959 -0.4303 -0.0841
    5MOL0     C  577   8.938  10.029   3.534 -0.0578 -0.0610  0.7630
    5MOL0     C  578   8.983   9.981   3.389  0.2662 -0.1066  0.0793
    5MOL0     C  579   9.082  10.071   3.319  0.0337  0.2827 -0.0653
    5MOL0     C  580   9.134  10.014   3.179  0.7880 -0.1509  0.1838
    5MOL0     C  581   9.237  10.098   3.111  0.0893  0.3349  0.3463
    5MOL0     C  582   9.373  10.077   3.174 -0.2124 -0.4046  0.3529
    5MOL0     C  583   9.484  10.144   3.091 -0.4467  0.1048  0.6034
    5MOL0    Cl  584   9.471  10.326   3.067 -0.2193 -0.5464 -0.3076
    5MOL0     C  585   8.563   9.731   3.587 -0.2425  0.0119  0.4092
    5MOL0     C  586   8.432   9.709   3.630 -0.2225  0.1737 -0.2223
    5MOL0     O  587   8.154   9.668   3.539  0.0738 -0.7018  0.1802
    5MOL0     C  588   7.966   9.782   3.818  0.2571 -0.0282  0.0118
    5MOL0     C  589   7.830   9.776   3.865 -0.1486  0.6058 -0.4265
    5MOL0     N  590   7.525   9.401   3.577 -0.1934  0.1087 -0.4103
    5MOL0     N  591   7.528   9.406   3.447  0.5340  0.0488  0.4111
    5MOL0     C  592   6.464   9.958   3.159 -1.3116 -0.0562  0.0738
    5MOL0     C  593   6.321   9.990   3.170 -0.8216 -0.2721 -0.3227
    5MOL0     C  594   5.852   9.908   3.147  0.0585 -0.0769 -0.6745
    5MOL0     C  595   5.830  10.043   3.134 -0.0776  0.2524 -0.7096
    5MOL0     C  596   5.707  10.086   3.095  0.3676  0.1408 -1.7219
    5MOL0     C  597   5.600  10.003   3.087  0.0275  0.2278 -0.0492
    5MOL0     O  598   5.483  10.055   3.050 -0.3627 -0.0162 -0.5616
    5MOL0     C  599   5.368   9.972   3.067 -0.1319 -0.0134  0.8109
    5MOL0     C  600   5.240  10.061   3.076 -0.1207  0.4437 -0.8431
    5MOL0     C  601   5.227  10.168   2.966  0.5855 -0.7102  0.9888
    5MOL0     C  602   5.232  10.312   3.023 -0.9584  0.0611  0.9769
    5MOL0     C  603   5.126  10.334   3.116 -0.6523 -0.0995 -0.2541
    5MOL0     C  604   5.033  10.341   3.192 -0.6848 -0.2312  0.1497
    5MOL0     C  605   5.628   9.862   3.110 -0.2170  0.0300 -0.6326
    5MOL0     C  606   5.751   9.814   3.137 -0.6098  0.3312  0.2934
    5MOL0     C  607   5.779   9.677   3.166 -0.1014  0.0421 -0.2693
    5MOL0     H  608   6.197   9.714   3.019  0.8839 -0.8564  0.6049
    5MOL0     H  609   6.427   9.687   2.959 -1.5726  1.8835 -2.6061
    5MOL0     H  610   6.617   9.613   3.067  0.7775 -0.8790  0.7170
    5MOL0     H  611   6.649   9.674   2.908 -0.5704 -0.0662  0.3388
    5MOL0     H  612   6.851   9.714   3.137  0.7766  0.8013  0.1083
    5MOL0     H  613   6.873   9.734   2.968  1.6918 -2.7535 -0.1429
    5MOL0     H  614   6.844   9.503   2.916  2.2524 -0.6719 -0.5066
    5MOL0     H  615   6.810   9.462   3.089 -1.2371 -1.1619 -1.2384
    5MOL0     H  616   7.067   9.601   2.959  1.5791 -0.3680  0.2520
    5MOL0     H  617   7.040   9.543   3.126  0.0629 -1.3437 -0.2250
    5MOL0     H  618   7.010   9.308   3.058  1.0788 -1.3378  0.2837
    5MOL0     H  619   7.066   9.349   2.900 -0.2544  1.9022 -0.9664
    5MOL0     H  620   7.249   9.270   3.034 -1.0887  0.2281  0.5922
    5MOL0     H  621   7.283   9.434   3.011  1.3091 -0.8842  1.1915
    5MOL0     H  622   7.154   9.320   3.261  0.9584  0.2431  0.8063
    5MOL0     H  623   7.208   9.489   3.249  1.6496  0.4482  0.3785
    5MOL0     H  624   7.377   9.229   3.272  1.4339  0.1606  3.2517
    5MOL0     H  625   7.436   9.380   3.196 -1.4675  1.3244 -0.2303
    5MOL0     H  626   7.207   9.358   3.505  0.2173  2.5903 -0.6748
    5MOL0     H  627   7.309   9.279   3.785  0.4927 -0.6979  0.8665
    5MOL0     H  628   7.459   9.360   3.824 -1.3421 -2.1455  0.4961
    5MOL0     H  629   7.245   9.542   3.744 -0.8017 -2.2339 -1.6835
    5MOL0     H  630   7.221   9.468   3.898 -0.7330 -0.1695 -0.7946
    5MOL0     H  631   7.443   9.567   3.984 -1.0613 -2.6785 -0.6386
    5MOL0     H  632   7.317   9.677   3.929 -0.7116 -0.7950 -0.8884
    5MOL0     H  633   7.430   9.765   3.760  0.3279 -0.3892 -0.6670
    5MOL0     H  634   7.509   9.613   3.710  2.0439  2.6379 -0.3186
    5MOL0     H  635   7.695   9.613   3.595  0.3283 -0.4334 -0.7861
    5MOL0     H  636   7.916   9.641   3.518  0.8186 -0.4007  0.2029
    5MOL0     H  637   8.339  10.015   3.738 -1.6478 -0.4952 -0.4721
    5MOL0     H  638   8.567  10.068   3.630 -2.8550  1.4331 -4.1036
    5MOL0     H  639   8.737  10.075   3.485 -0.4830  0.2811  1.0131
    5MOL0     H  640   8.768  10.052   3.661 -3.0079  1.7309 -1.4298
    5MOL0     H  641   8.953  10.137   3.541 -2.5260  0.3459  0.8784
    5MOL0     H  642   8.996   9.997   3.621  2.4165  1.6212 -0.1776
    5MOL0     H  643   9.036   9.892   3.424 -0.4944  1.1055  5.0912
    5MOL0     H  644   8.889   9.964   3.335 -1.1635  2.6245  1.4955
    5MOL0     H  645   9.174  10.080   3.376 -1.3823  2.4714  2.0778
    5MOL0     H  646   9.035  10.169   3.304 -0.5185  0.6218  3.1803
    5MOL0     H  647   9.049   9.993   3.112 -0.7509  2.2625  1.2192
    5MOL0     H  648   9.190   9.922   3.198  2.6406  0.8888 -0.1115
    5MOL0     H  649   9.253  10.063   3.009 -0.9008 -0.2378  0.3837
    5MOL0     H  650   9.211  10.204   3.117 -0.8511  0.0299  2.4572
    5MOL0     H  651   9.396   9.972   3.194 -2.4583 -0.7957  1.2129
    5MOL0     H  652   9.380  10.122   3.273 -1.4077  0.9367 -0.1258
    5MOL0     H  653   9.578  10.125   3.144 -0.3714  1.7384  1.1259
    5MOL0     H  654   9.487  10.105   2.989 -1.3102  1.6210 -0.0471
    5MOL0     H  655   8.631   9.655   3.549 -0.3930  0.5886 -1.0738
    5MOL0     H  656   8.399   9.606   3.624  1.3120 -0.2300 -3.5111
    5MOL0     H  657   8.039   9.828   3.884 -0.5914 -0.5015  1.3150
    5MOL0     H  658   7.793   9.814   3.960 -2.7258 -0.4339 -0.9358
    5MOL0     H  659   6.548  10.019   3.190 -0.7489 -0.0499 -1.3761
    5MOL0     H  660   6.294  10.079   3.225 -1.8058 -0.3154 -0.7171
    5MOL0     H  661   5.904  10.120   3.155  0.5694 -0.9395  1.6726
    5MOL0     H  662   5.696  10.194   3.084 -1.0289  0.0436 -1.3933
    5MOL0     H  663   5.377   9.913   3.158  1.6211 -0.5451  0.3289
    5MOL0     H  664   5.359   9.901   2.984 -0.8108  1.3757 -0.3605
    5MOL0     H  665   5.233  10.096   3.180  0.4083  2.6467 -1.4868
    5MOL0     H  666   5.160   9.987   3.068  0.4299 -0.1848 -0.6603
    5MOL0     H  667   5.136  10.154   2.907  1.5530  1.5238 -1.2130
    5MOL0     H  668   5.308  10.153   2.895  0.4456 -1.1704  0.9237
    5MOL0     H  669   5.329  10.319   3.073 -0.9529 -2.0731  1.3563
    5MOL0     H  670   5.220  10.386   2.943 -0.3176  0.6115  1.3765
    5MOL0     H  671   4.947  10.345   3.256  0.8893  1.2244  2.2891
    5MOL0     H  672   5.553   9.786   3.089 -1.7541  0.4140  2.7120
    5MOL0     H  673   5.795   9.664   3.273 -0.0996  2.3992  0.0611
    5MOL0     H  674   5.697   9.613   3.131  2.0243 -4.1644  1.6049
    5MOL0     H  675   5.860   9.639   3.103 -1.3488 -0.7911 -1.4457
    6MOL0     O  676   1.334   6.026   9.883 -0.1570 -0.3366  0.4131
    6MOL0     C  677   1.293   6.063   9.991  0.2695  0.0276 -0.4626
    6MOL0     O  678   1.369   6.069  10.113  0.0548 -0.1040  0.2596
    6MOL0     C  679   1.499   6.029  10.113 -0.2488  0.2157 -0.0354
    6MOL0     C  680   1.548   5.924  10.032  1.3175  0.1930 -0.9668
    6MOL0     C  681   1.687   5.897  10.018 -0.0826 -0.6280 -0.1831
    6MOL0     C  682   1.773   5.969  10.110  0.3357 -0.3384  0.0725
    6MOL0     O  683   1.908   5.951  10.110 -0.0036 -0.0817  0.0376
    6MOL0     C  684   1.969   5.848  10.033 -0.4245  0.7570 -0.2098
    6MOL0     C  685   2.120   5.844  10.059  0.1936 -0.1569  0.8296
    6MOL0     C  686   2.197   5.987  10.025  0.8477  0.2765  0.6111
    6MOL0     C  687   2.200   6.089  10.148 -0.7022 -0.1820  0.4768
    6MOL0     C  688   2.237   6.229  10.099 -0.6970  0.0096 -0.8394
    6MOL0     C  689   2.118   6.295  10.027 -0.3175  0.0109 -0.0217
    6MOL0     C  690   2.034   6.366  10.127  1.1478 -0.2768  0.4510
    6MOL0     C  691   1.892   6.396  10.071 -0.5360  0.0376  0.3710
    6MOL0     N  692   1.819   6.472  10.177  0.1908 -0.8826 -0.8309
    6MOL0     C  693   1.813   6.609  10.197 -0.5619  1.0324 -0.5754
    6MOL0     C  694   1.738   6.622  10.311 -0.0055 -0.7551 -0.7469
    6MOL0     C  695   1.738   6.740  10.411  0.6093  0.5320  0.2858
    6MOL0     C  696   1.607   6.815  10.427  0.3815  0.2090  0.6592
    6MOL0     C  697   1.569   6.915  10.312  0.6218 -0.5587  0.6430
    6MOL0     C  698   1.668   7.017  10.275  0.7231 -0.1514  0.1484
    6MOL0     O  699   1.776   6.966  10.202  0.1306 -0.2431  0.0896
    6MOL0     C  700   1.887   7.044  10.186 -0.3822 -0.2054 -0.3766
    6MOL0     C  701   1.885   7.184  10.199  0.3189  0.0257 -1.0072
    6MOL0     C  702   2.004   7.248  10.164 -0.1544  0.8061 -0.0821
    6MOL0     C  703   2.129   7.183  10.137  0.2086  0.1300  0.7400
    6MOL0     C  704   2.251   7.260  10.130 -0.1822  0.4859  0.5801
    6MOL0     O  705   2.362   7.199  10.176 -0.5847 -0.6848 -0.1395
    6MOL0     C  706   2.482   7.259  10.133  0.6397  0.2920  1.4596
    6MOL0     C  707   2.561   7.332  10.220  0.7156 -0.8172  0.0099
    6MOL0     C  708   2.686   7.371  10.182  0.5994 -0.0794  0.0058
    6MOL0     C  709   2.732   7.339  10.054 -1.1784 -0.0100  0.3863
    6MOL0     O  710   2.858   7.389  10.015  0.3239  0.1930 -0.2943
    6MOL0     C  711   2.917   7.344   9.894  0.6051  0.3085  0.4569
    6MOL0     C  712   3.049   7.412   9.870 -0.2113 -0.9380  0.4342
    6MOL0     C  713   3.156   7.349   9.956 -0.2265  0.7922  0.1139
    6MOL0     C  714   3.290   7.416   9.944  0.4445 -0.3216  0.2237
    6MOL0     C  715   3.401   7.320   9.992  0.0479  0.3559 -0.1780
    6MOL0     C  716   3.525   7.407   9.972 -0.0662 -0.2561  0.5358
    6MOL0     C  717   3.652   7.337  10.022 -0.1122 -0.0603  0.1826
    6MOL0     C  718   3.680   7.195   9.968  0.2372 -0.1983  1.0503
    6MOL0    Cl  719   3.695   7.211   9.793 -0.1955 -0.4387  0.4068
    6MOL0     C  720   2.662   7.258   9.966  0.7997 -0.3071 -0.3198
    6MOL0     C  721   2.534   7.206  10.008  0.8381 -0.3945  0.2678
    6MOL0     O  722   2.245   7.373  10.083 -0.6097 -0.1865  0.2215
    6MOL0     C  723   2.126   7.041  10.136  0.0769 -0.0321 -0.2647
    6MOL0     C  724   2.005   6.974  10.165 -0.5184 -0.3838 -0.8484
    6MOL0     N  725   1.694   6.502  10.354 -0.2552  0.5499  0.0591
    6MOL0     N  726   1.738   6.412  10.273 -0.5231  0.3802  0.3967
    6MOL0     C  727   1.726   6.056  10.202  0.1930 -0.3859  0.3490
    6MOL0     C  728   1.585   6.090  10.208 -0.3877  0.0124  0.3627
    6MOL0     C  729   1.160   6.122  10.012 -0.3061  0.0041 -0.3897
    6MOL0     C  730   1.121   6.165  10.142  0.1828 -0.0881  0.2455
    6MOL0     C  731   0.998   6.225  10.164  0.2768 -0.7600  0.4122
    6MOL0     C  732   0.903   6.246  10.059  0.0522  0.2701 -0.0672
    6MOL0     O  733   0.783   6.314  10.056 -0.4548 -0.9212 -0.2196
    6MOL0     C  734   0.697   6.274  10.168  0.5019 -0.3677 -0.0055
    6MOL0     C  735   0.554   6.304  10.116  0.1398 -0.0527  0.0792
    6MOL0     C  736   0.530   6.223   9.988  0.4745  0.5539  0.1640
    6MOL0     C  737   0.386   6.230   9.934  0.9001  0.8985 -0.4075
    6MOL0     C  738   0.396   6.162   9.804  0.2671  0.3423  0.0379
    6MOL0     C  739   0.407   6.106   9.693  0.3688  0.0034 -0.2545
    6MOL0     C  740   0.949   6.202   9.934  0.4711 -1.2219  0.8006
    6MOL0     C  741   1.072   6.143   9.908  0.1953  0.2597  0.4444
    6MOL0     C  742   1.095   6.101   9.762  0.2357  0.1370 -0.7114
    6MOL0     H  743   1.489   5.860   9.967 -2.0350  0.1712  1.7708
    6MOL0     H  744   1.715   5.834   9.934 -2.4549  0.7008 -2.0873
    6MOL0     H  745   1.931   5.747  10.053  3.5083 -0.4838  2.2562
    6MOL0     H  746   1.954   5.866   9.926 -0.7043 -1.8060 -0.6574
    6MOL0     H  747   2.166   5.763  10.002 -0.6649 -3.2228  4.1264
    6MOL0     H  748   2.134   5.826  10.166 -0.5425 -1.7001  0.6874
    6MOL0     H  749   2.145   6.026   9.937  1.4471 -0.3111 -0.0134
    6MOL0     H  750   2.298   5.961   9.991 -0.2409 -2.0958 -1.1192
    6MOL0     H  751   2.102   6.088  10.197  0.7032 -0.5102  3.5321
    6MOL0     H  752   2.265   6.044  10.223  0.9684 -0.3241 -1.0152
    6MOL0     H  753   2.257   6.295  10.184 -1.9931 -0.6484  0.0049
    6MOL0     H  754   2.316   6.233  10.023  1.4936 -0.8914  1.2675
    6MOL0     H  755   2.152   6.380   9.967  2.1258  0.3091  1.6597
    6MOL0     H  756   2.053   6.231   9.966  1.1182  0.0043 -1.6241
    6MOL0     H  757   2.066   6.469  10.145 -1.1553  0.9208 -1.7655
    6MOL0     H  758   2.025   6.305  10.218  0.2848 -0.9202 -0.0576
    6MOL0     H  759   1.887   6.454   9.979 -2.7613  0.5440  0.7621
    6MOL0     H  760   1.841   6.300  10.060 -0.5106  0.2026 -1.4952
    6MOL0     H  761   1.860   6.697  10.154 -1.6075  1.2188 -1.3779
    6MOL0     H  762   1.774   6.707  10.509 -3.7824 -3.2494  0.9900
    6MOL0     H  763   1.812   6.808  10.368 -0.2950  2.4503  1.5868
    6MOL0     H  764   1.529   6.739  10.429  0.0740  0.5290  1.1364
    6MOL0     H  765   1.605   6.872  10.521  1.1659  0.4754  0.5244
    6MOL0     H  766   1.483   6.974  10.345 -0.6950 -3.1192  2.1002
    6MOL0     H  767   1.530   6.854  10.230 -3.5002  0.0342  1.9230
    6MOL0     H  768   1.706   7.063  10.366  0.8313  2.9788 -1.3491
    6MOL0     H  769   1.626   7.101  10.219  0.4594  0.5845  1.4144
    6MOL0     H  770   1.793   7.240  10.211 -0.6259 -1.0998 -2.6520
    6MOL0     H  771   2.011   7.356  10.164 -0.9199  0.8629  0.3992
    6MOL0     H  772   2.517   7.357  10.316 -0.3905 -3.7817  0.3882
    6MOL0     H  773   2.755   7.421  10.250  0.3883 -0.2002  0.3093
    6MOL0     H  774   2.943   7.238   9.897 -0.6881 -0.0710 -0.8193
    6MOL0     H  775   2.854   7.371   9.809 -2.9240 -1.6858  2.1822
    6MOL0     H  776   3.080   7.401   9.766 -4.0478  0.9353 -1.0846
    6MOL0     H  777   3.041   7.521   9.878 -1.4158 -0.5035 -3.9541
    6MOL0     H  778   3.115   7.366  10.056 -0.3053 -0.3060  0.2837
    6MOL0     H  779   3.172   7.245   9.928  1.0293  1.3853 -1.5409
    6MOL0     H  780   3.287   7.504  10.008  0.8929  0.4091 -0.7459
    6MOL0     H  781   3.321   7.442   9.843  3.9673 -2.0290  0.6883
    6MOL0     H  782   3.408   7.227   9.935 -2.0727  1.0625 -1.7426
    6MOL0     H  783   3.386   7.307  10.099  3.1396  1.2488  0.4537
    6MOL0     H  784   3.533   7.439   9.868  1.9140  1.2542  1.0872
    6MOL0     H  785   3.514   7.495  10.037 -0.7206  1.4707 -1.7718
    6MOL0     H  786   3.633   7.319  10.129 -2.1943 -1.5101 -0.3688
    6MOL0     H  787   3.738   7.403  10.012  0.2197 -0.5137  0.0072
    6MOL0     H  788   3.775   7.150  10.000  0.3531 -1.1142 -0.4653
    6MOL0     H  789   3.603   7.123   9.995 -0.4765 -0.3435 -1.1775
    6MOL0     H  790   2.702   7.228   9.869 -1.3832 -1.8462 -0.8339
    6MOL0     H  791   2.467   7.145   9.948  0.2324  0.7553 -0.2604
    6MOL0     H  792   2.220   6.987  10.125  0.1843  0.2450 -0.7570
    6MOL0     H  793   2.001   6.865  10.166 -0.2407 -0.4132  0.7727
    6MOL0     H  794   1.792   6.098  10.278  0.2099 -0.8177  0.5787
    6MOL0     H  795   1.542   6.163  10.276  1.0865  1.0093  0.2684
    6MOL0     H  796   1.188   6.155  10.227  0.1976  1.8955  0.4964
    6MOL0     H  797   0.984   6.259  10.267  2.7031  1.9342  0.0138
    6MOL0     H  798   0.709   6.341  10.253 -2.2637 -1.2237  1.1920
    6MOL0     H  799   0.709   6.170  10.196  0.6103  0.0043  1.3650
    6MOL0     H  800   0.539   6.407  10.083  0.6557  0.0088  0.0248
    6MOL0     H  801   0.473   6.285  10.187 -0.3158 -0.0070 -0.4180
    6MOL0     H  802   0.554   6.120  10.015 -2.2359 -0.2126 -0.0582
    6MOL0     H  803   0.601   6.244   9.907 -0.2125  3.8061  0.2499
    6MOL0     H  804   0.329   6.167  10.003  1.8340 -0.7057 -1.0435
    6MOL0     H  805   0.353   6.335   9.934  0.4236  0.7497 -0.1909
    6MOL0     H  806   0.411   6.046   9.604 -1.6597  1.7892 -1.6572
    6MOL0     H  807   0.882   6.210   9.849  1.1096 -2.1067  0.1969
    6MOL0     H  808   1.020   6.135   9.690  2.1536  0.1534 -2.8238
    6MOL0     H  809   1.196   6.128   9.729  0.3243 -1.2202 -1.6215
    6MOL0     H  810   1.099   5.992   9.755  1.6340  0.1452 -0.3424
    7MOL0     O  811   7.239   3.988   4.870 -0.5332 -0.1451  0.0998
    7MOL0     C  812   7.154   3.948   4.946  0.3877 -0.0542  0.6841
    7MOL0     O  813   7.173   3.858   5.054 -0.4071 -0.4109  0.4216
    7MOL0     C  814   7.300   3.836   5.100  0.4205 -0.1904 -0.8393
    7MOL0     C  815   7.405   3.782   5.024  0.4748 -0.1026  0.2381
    7MOL0     C  816   7.535   3.752   5.071 -0.4063 -0.2048 -0.1484
    7MOL0     C  817   7.566   3.809   5.199 -0.4809 -0.2885  0.0399
    7MOL0     O  818   7.693   3.811   5.241 -0.7126 -0.7898 -0.2112
    7MOL0     C  819   7.795   3.867   5.152 -0.3171  0.4076  0.6391
    7MOL0     C  820   7.907   3.921   5.242  0.3458  0.9932  0.2927
    7MOL0     C  821   7.994   4.020   5.162  0.3735 -1.2620  1.0340
    7MOL0     C  822   8.133   4.030   5.225  0.5889 -0.2853  0.2845
    7MOL0     C  823   8.236   4.076   5.121 -0.0654  0.5448 -0.2208
    7MOL0     C  824   8.360   4.133   5.194  0.2684  1.1286 -0.8414
    7MOL0     C  825   8.327   4.256   5.281 -0.3641  0.1825  0.6648
    7MOL0     C  826   8.432   4.359   5.302 -0.5652  0.1860 -0.0188
    7MOL0     N  827   8.565   4.293   5.333  1.3518 -0.7796  0.1263
    7MOL0     C  828   8.592   4.190   5.421  0.1507 -0.1676  0.4744
    7MOL0     C  829   8.733   4.186   5.414 -0.2090 -0.0508 -0.7331
    7MOL0     C  830   8.819   4.079   5.481 -0.2087 -0.0610  0.9624
    7MOL0     C  831   8.787   3.942   5.408  0.7112 -0.0346  0.5001
    7MOL0     C  832   8.798   3.948   5.259 -0.1879  0.2681 -0.3641
    7MOL0     C  833   8.839   3.810   5.197 -0.3582 -0.3348  0.3551
    7MOL0     O  834   8.775   3.788   5.074 -0.2790  0.5101  0.0181
    7MOL0     C  835   8.645   3.764   5.058  0.4350  0.6423  0.8624
    7MOL0     C  836   8.596   3.788   4.929 -0.6085 -0.5174  0.1719
    7MOL0     C  837   8.461   3.773   4.900 -0.4242  0.0160 -0.2574
    7MOL0     C  838   8.373   3.738   5.002  0.0122 -0.2378 -0.2210
    7MOL0     C  839   8.229   3.733   4.971 -0.6486  0.1931  0.0770
    7MOL0     O  840   8.196   3.755   4.841  0.0249  0.2265  0.3131
    7MOL0     C  841   8.060   3.731   4.813 -0.7810  0.4668  0.3941
    7MOL0     C  842   8.004   3.607   4.791  0.2507 -0.2451 -1.2696
    7MOL0     C  843   7.865   3.594   4.762  0.5092  0.1023 -0.4897
    7MOL0     C  844   7.777   3.699   4.769  0.4949  0.0576  0.0352
    7MOL0     O  845   7.645   3.679   4.735 -0.9693 -0.3893 -0.1285
    7MOL0     C  846   7.576   3.784   4.665  0.6642 -0.4333 -0.8835
    7MOL0     C  847   7.505   3.709   4.554  0.9256 -0.2412  0.4520
    7MOL0     C  848   7.425   3.808   4.463  0.3220  1.4292 -0.5771
    7MOL0     C  849   7.291   3.829   4.536  0.9308  0.1608 -0.4420
    7MOL0     C  850   7.197   3.904   4.448  0.7802 -0.0477  0.0537
    7MOL0     C  851   7.057   3.922   4.518 -0.5942 -0.1714 -0.0294
    7MOL0     C  852   6.969   3.794   4.502 -0.2202 -0.1497 -0.4237
    7MOL0     C  853   6.896   3.794   4.373 -0.1899  0.2104  0.6941
    7MOL0    Cl  854   6.771   3.666   4.371 -0.1039 -0.1776  0.5069
    7MOL0     C  855   7.834   3.832   4.795 -0.5938  0.0197  0.0389
    7MOL0     C  856   7.972   3.834   4.813 -0.6764  0.3549  0.0605
    7MOL0     O  857   8.150   3.719   5.064  0.4357 -0.0162 -1.0849
    7MOL0     C  858   8.418   3.717   5.129 -0.6047  0.6018 -0.0627
    7MOL0     C  859   8.553   3.731   5.160 -0.0366 -0.7545  0.7866
    7MOL0     N  860   8.778   4.272   5.318  0.6119 -0.3059 -0.1344
    7MOL0     N  861   8.676   4.341   5.268  0.1793 -0.4499  0.5521
    7MOL0     C  862   7.465   3.869   5.278  0.8014  0.8241  0.5058
    7MOL0     C  863   7.332   3.879   5.228 -0.1217 -0.3033  0.9396
    7MOL0     C  864   7.012   3.991   4.917 -0.8808 -0.6156 -0.1218
    7MOL0     C  865   6.903   3.924   4.976  0.1773  0.2544 -0.3516
    7MOL0     C  866   6.777   3.942   4.934 -0.4567  0.1635 -1.0511
    7MOL0     C  867   6.754   4.027   4.826  0.3126  0.6643  1.2044
    7MOL0     O  868   6.618   4.052   4.787 -0.0759  0.2253  0.1644
    7MOL0     C  869   6.576   4.119   4.665 -0.6172 -0.0950 -0.2293
    7MOL0     C  870   6.451   4.047   4.605 -0.2320 -0.4742 -0.5959
    7MOL0     C  871   6.466   3.894   4.621 -0.1804  0.4058 -0.1902
    7MOL0     C  872   6.386   3.825   4.734  0.0487 -0.6612 -0.7815
    7MOL0     C  873   6.239   3.843   4.723 -0.1508  0.5004 -0.2608
    7MOL0     C  874   6.123   3.863   4.717 -0.3916 -0.0138 -0.1056
    7MOL0     C  875   6.857   4.111   4.784 -0.4559  0.6328 -0.1631
    7MOL0     C  876   6.986   4.101   4.829  0.6556  0.7234  0.4675
    7MOL0     C  877   7.088   4.204   4.782  0.1468  0.3340  0.9416
    7MOL0     H  878   7.388   3.753   4.921  1.2657  2.9029 -0.8407
    7MOL0     H  879   7.614   3.706   5.012 -1.1519 -1.1915 -0.3971
    7MOL0     H  880   7.834   3.787   5.088  1.7212  2.0254 -0.2684
    7MOL0     H  881   7.758   3.946   5.087  1.9249 -0.4161 -1.8323
    7MOL0     H  882   7.976   3.843   5.275  0.9462  0.9300 -1.0577
    7MOL0     H  883   7.874   3.974   5.332  2.8172  1.6224  0.8846
    7MOL0     H  884   7.948   4.119   5.170  3.5536  0.3140  1.1024
    7MOL0     H  885   8.005   3.992   5.057  1.0190 -0.4926  0.8973
    7MOL0     H  886   8.119   4.117   5.291  0.9849 -1.0133  1.3420
    7MOL0     H  887   8.165   3.937   5.272  0.4166 -0.9517 -0.8855
    7MOL0     H  888   8.253   3.991   5.054  3.8278 -0.6431  1.9758
    7MOL0     H  889   8.201   4.162   5.062 -0.7280 -0.8949 -2.0107
    7MOL0     H  890   8.389   4.051   5.260 -2.8677 -0.4952 -1.3084
    7MOL0     H  891   8.438   4.151   5.119  1.3486 -0.0060 -0.0245
    7MOL0     H  892   8.287   4.224   5.378  2.1316 -0.4014  1.5712
    7MOL0     H  893   8.247   4.304   5.224  0.2088  0.6820  0.2762
    7MOL0     H  894   8.437   4.416   5.208 -1.7121 -0.9313 -0.7955
    7MOL0     H  895   8.389   4.407   5.390  0.2037 -1.5343  1.3401
    7MOL0     H  896   8.523   4.133   5.483 -0.3635  0.3600  0.3892
    7MOL0     H  897   8.922   4.107   5.460 -0.4196 -0.0397 -0.0807
    7MOL0     H  898   8.805   4.063   5.589 -1.1066 -1.5246  0.6569
    7MOL0     H  899   8.862   3.874   5.449  2.2349  2.6766  2.5961
    7MOL0     H  900   8.687   3.901   5.428 -0.7067  2.8888  0.0951
    7MOL0     H  901   8.868   4.029   5.236 -1.7286  1.4639 -1.0755
    7MOL0     H  902   8.711   3.981   5.201 -0.9700 -0.2665  0.4752
    7MOL0     H  903   8.813   3.728   5.264  2.7039  2.0694  5.0019
    7MOL0     H  904   8.946   3.809   5.178 -0.5137 -0.9693 -0.5533
    7MOL0     H  905   8.666   3.813   4.849  0.3098 -5.0658 -0.7126
    7MOL0     H  906   8.429   3.796   4.799 -1.0953  1.8177  0.3247
    7MOL0     H  907   8.073   3.524   4.779 -1.1148 -1.3374 -1.8247
    7MOL0     H  908   7.831   3.498   4.725  0.2976  0.1813 -0.5006
    7MOL0     H  909   7.503   3.833   4.730  0.8482 -1.1938 -0.0853
    7MOL0     H  910   7.639   3.863   4.623 -1.5581  1.2282 -1.2031
    7MOL0     H  911   7.578   3.662   4.488  0.5861 -2.4571  1.5420
    7MOL0     H  912   7.432   3.638   4.596 -0.3753  0.6302 -0.2514
    7MOL0     H  913   7.482   3.900   4.445 -1.9071  2.6830 -1.6467
    7MOL0     H  914   7.416   3.758   4.366  3.8671 -1.7917  0.4988
    7MOL0     H  915   7.318   3.882   4.628 -1.1037 -3.4434  2.4932
    7MOL0     H  916   7.247   3.733   4.565 -0.1200  0.6868 -0.2575
    7MOL0     H  917   7.183   3.838   4.362  2.9650 -0.9250  0.3049
    7MOL0     H  918   7.216   4.005   4.413 -2.1738  0.5852  0.0743
    7MOL0     H  919   7.080   3.952   4.620  0.1253  0.6689 -0.4194
    7MOL0     H  920   7.008   4.013   4.479  0.1875  0.9273  1.4832
    7MOL0     H  921   6.900   3.784   4.586  0.8638 -1.5431  0.3358
    7MOL0     H  922   7.029   3.703   4.513  0.4896  0.6093  4.6468
    7MOL0     H  923   6.853   3.895   4.364 -0.1176  0.5552  3.2975
    7MOL0     H  924   6.960   3.773   4.287 -1.4788 -0.0706 -0.2319
    7MOL0     H  925   7.772   3.920   4.791 -0.8939 -0.1010  1.4450
    7MOL0     H  926   8.014   3.929   4.845 -0.8783  1.8415 -3.6766
    7MOL0     H  927   8.346   3.696   5.206 -2.3574  1.3054 -1.4372
    7MOL0     H  928   8.579   3.713   5.264  2.0802 -2.5890  0.0056
    7MOL0     H  929   7.504   3.899   5.375  2.2204 -0.4649  0.3595
    7MOL0     H  930   7.252   3.928   5.282  1.1107  1.6018  1.1399
    7MOL0     H  931   6.908   3.848   5.053 -3.3108  1.6560  1.4543
    7MOL0     H  932   6.695   3.884   4.975 -0.5337  1.0202  0.0535
    7MOL0     H  933   6.653   4.110   4.589 -0.0210 -0.6245  0.4229
    7MOL0     H  934   6.554   4.224   4.682 -2.8167 -0.1900 -1.9326
    7MOL0     H  935   6.446   4.095   4.507 -0.9124 -0.4533 -0.5585
    7MOL0     H  936   6.357   4.071   4.656  0.7603  0.1650  1.0342
    7MOL0     H  937   6.571   3.864   4.623 -0.6075 -1.1653  1.8094
    7MOL0     H  938   6.426   3.864   4.524  2.1716  2.0504 -1.7932
    7MOL0     H  939   6.410   3.719   4.732 -1.5096 -1.1094  1.2629
    7MOL0     H  940   6.412   3.857   4.835 -2.0577  0.6761 -0.5912
    7MOL0     H  941   6.017   3.880   4.710 -0.2854  0.2848 -1.1576
    7MOL0     H  942   6.815   4.187   4.720 -1.4726 -1.3727 -2.0069
    7MOL0     H  943   7.146   4.234   4.870  0.5823  2.1353  0.0805
    7MOL0     H  944   7.154   4.160   4.707 -2.7320 -4.9812  1.0261
    7MOL0     H  945   7.034   4.288   4.736 -0.5213 -0.5709  0.0192
    8MOL0     O  946   8.335   6.472   2.452 -0.2314  0.5549 -0.4671
    8MOL0     C  947   8.291   6.406   2.360  0.1463  0.2180  0.4790
    8MOL0     O  948   8.361   6.309   2.301 -0.4233  0.0028 -0.4476
    8MOL0     C  949   8.485   6.278   2.333 -0.1384 -0.4556 -0.4760
    8MOL0     C  950   8.525   6.251   2.466 -0.0122  0.1081 -0.3007
    8MOL0     C  951   8.660   6.217   2.495 -0.5400 -1.0349 -0.6290
    8MOL0     C  952   8.755   6.200   2.399  0.3514 -0.6481 -0.6005
    8MOL0     O  953   8.881   6.160   2.438  0.6036  0.8788  0.1335
    8MOL0     C  954   8.988   6.157   2.351  0.2899 -0.3627  0.3474
    8MOL0     C  955   8.999   6.020   2.285 -0.2516  0.4984 -0.1374
    8MOL0     C  956   9.127   6.018   2.201 -0.5572  0.2179  0.7804
    8MOL0     C  957   9.117   5.947   2.066 -0.7588 -0.6607 -0.3552
    8MOL0     C  958   9.258   5.969   1.992  0.1624 -0.4015  0.9100
    8MOL0     C  959   9.345   5.848   1.980 -0.9939  0.5012  0.0630
    8MOL0     C  960   9.372   5.777   2.114 -0.2976 -0.7395 -0.5672
    8MOL0     C  961   9.491   5.693   2.101  0.1335  0.2403 -0.1069
    8MOL0     N  962   9.512   5.619   2.222 -0.6182 -0.2562  0.4229
    8MOL0     C  963   9.497   5.491   2.229  0.6558  0.5703  0.8385
    8MOL0     C  964   9.539   5.450   2.345  0.3711  0.0278  0.0457
    8MOL0     C  965   9.533   5.319   2.395 -0.1678 -0.0400  0.4087
    8MOL0     C  966   9.670   5.257   2.433  0.0311 -0.3694 -0.2003
    8MOL0     C  967   9.723   5.310   2.571  0.3389 -0.7468  0.9507
    8MOL0     C  968   9.875   5.279   2.579  0.4498  0.4750 -0.4543
    8MOL0     O  969   9.909   5.139   2.569 -0.5991 -1.1065  0.0844
    8MOL0     C  970  10.034   5.105   2.627 -0.1831 -0.6887 -0.2124
    8MOL0     C  971  10.037   4.987   2.702  0.2090 -0.7231  0.3507
    8MOL0     C  972  10.142   4.944   2.771 -0.5644  0.1787 -0.3066
    8MOL0     C  973  10.261   5.015   2.767 -0.8244 -0.1231 -1.2078
    8MOL0     C  974  10.380   4.971   2.848  0.0143 -0.2701  0.1506
    8MOL0     O  975  10.498   5.052   2.844  0.0540 -0.6044 -0.2427
    8MOL0     C  976  10.613   5.038   2.917  0.1261  0.5171  0.0536
    8MOL0     C  977  10.616   4.996   3.055 -0.1410  0.7764 -0.9035
    8MOL0     C  978  10.734   4.993   3.132  1.2210 -0.1826 -0.2020
    8MOL0     C  979  10.851   5.044   3.077 -0.1170 -0.5250  1.1106
    8MOL0     O  980  10.966   5.067   3.148  0.2903  0.3680 -0.5760
    8MOL0     C  981  10.954   5.072   3.295  0.0261  0.2167  0.1901
    8MOL0     C  982  11.089   5.061   3.357 -0.3344  0.9902 -0.4504
    8MOL0     C  983  11.188   5.170   3.344  0.7108  0.7911 -0.5422
    8MOL0     C  984  11.311   5.172   3.436  0.1753  0.0485 -0.0868
    8MOL0     C  985  11.390   5.303   3.416 -0.7483 -0.2448 -0.0472
    8MOL0     C  986  11.507   5.302   3.519 -0.4031 -0.0957 -0.3831
    8MOL0     C  987  11.624   5.401   3.499  0.3636  0.4624 -0.1782
    8MOL0     C  988  11.600   5.541   3.547  0.5722  0.0980  0.1641
    8MOL0    Cl  989  11.744   5.640   3.511 -0.0264  0.3675  0.2091
    8MOL0     C  990  10.854   5.075   2.941  0.0429 -0.1199  0.0271
    8MOL0     C  991  10.734   5.067   2.866  0.5038  0.6119 -0.2344
    8MOL0     O  992  10.359   4.867   2.906  0.3459 -0.1730 -0.5631
    8MOL0     C  993  10.275   5.125   2.682  0.0147 -0.0574  0.3503
    8MOL0     C  994  10.154   5.172   2.619 -0.4048 -0.0688 -0.1721
    8MOL0     N  995   9.592   5.563   2.412 -0.6190  0.2639  0.4082
    8MOL0     N  996   9.576   5.667   2.329  0.0602 -0.9066 -0.2838
    8MOL0     C  997   8.716   6.210   2.264 -0.0797  0.1042  0.1103
    8MOL0     C  998   8.587   6.248   2.230  0.4557 -0.5304  0.7287
    8MOL0     C  999   8.157   6.418   2.302 -0.8709  0.5853 -0.0537
    8MOL0     C 1000   8.138   6.360   2.176 -0.7784 -0.0969 -0.0187
    8MOL0     C 1001   8.015   6.380   2.119  0.0255  0.3881  0.3111
    8MOL0     C 1002   7.904   6.433   2.187  0.0289  0.2187  0.9545
    8MOL0     O 1003   7.776   6.436   2.132 -0.1457 -0.2749  0.5222
    8MOL0     C 1004   7.735   6.353   2.021 -0.2972  0.1551  0.1855
    8MOL0     C 1005   7.580   6.369   2.010 -0.5298  0.1288  0.5445
    8MOL0     C 1006   7.528   6.300   1.888  1.0047  0.0556 -0.0840
    8MOL0     C 1007   7.377   6.301   1.886  0.8525  0.0259 -0.1120
    8MOL0     C 1008   7.321   6.190   1.964  0.3442 -0.6868  0.4980
    8MOL0     C 1009   7.248   6.103   2.008 -0.6572 -0.8327 -0.3517
    8MOL0     C 1010   7.930   6.498   2.312  0.0065  0.4619 -0.5305
    8MOL0     C 1011   8.058   6.491   2.374  0.8695  0.5377 -0.1627
    8MOL0     C 1012   8.064   6.554   2.511 -0.4930 -0.4365  0.1510
    8MOL0     H 1013   8.459   6.259   2.552  1.0998  0.3996  0.5467
    8MOL0     H 1014   8.683   6.193   2.599 -1.0048 -1.8137 -0.7040
    8MOL0     H 1015   8.981   6.236   2.276  1.7629 -1.4145 -0.9839
    8MOL0     H 1016   9.077   6.179   2.411 -0.7714 -0.8981  2.2152
    8MOL0     H 1017   8.916   6.000   2.217 -0.9094 -0.1820  0.8467
    8MOL0     H 1018   8.986   5.960   2.376 -0.8622  3.4657  1.8801
    8MOL0     H 1019   9.208   5.974   2.260 -0.1632  0.1178  0.1732
    8MOL0     H 1020   9.157   6.119   2.171  2.3137 -0.7633  0.0213
    8MOL0     H 1021   9.089   5.842   2.079 -5.3187  0.3667 -0.2024
    8MOL0     H 1022   9.039   5.984   1.997 -0.2334 -0.3340 -0.7857
    8MOL0     H 1023   9.249   5.998   1.887  1.9119 -1.7723  0.3307
    8MOL0     H 1024   9.320   6.046   2.038  1.4265 -1.1550  0.5254
    8MOL0     H 1025   9.292   5.780   1.912  0.1631  0.6438 -1.0303
    8MOL0     H 1026   9.438   5.879   1.931  0.1656 -4.1021 -1.1980
    8MOL0     H 1027   9.287   5.713   2.140  1.9492 -2.9143  1.9540
    8MOL0     H 1028   9.388   5.851   2.192  1.1694  0.0649 -1.5840
    8MOL0     H 1029   9.491   5.621   2.018  1.0138  1.5070 -1.2538
    8MOL0     H 1030   9.580   5.754   2.084  1.2074 -1.6329 -1.7277
    8MOL0     H 1031   9.438   5.439   2.155 -0.9093  3.6929 -0.2711
    8MOL0     H 1032   9.476   5.331   2.487  0.0308  1.5980  0.3407
    8MOL0     H 1033   9.472   5.259   2.326 -1.1115  0.8992  0.4073
    8MOL0     H 1034   9.654   5.149   2.433  0.1402 -0.3919 -1.2933
    8MOL0     H 1035   9.744   5.281   2.356  2.5061  0.6067  2.2636
    8MOL0     H 1036   9.673   5.271   2.660 -0.3415  1.5148  1.6124
    8MOL0     H 1037   9.721   5.419   2.564  0.9079 -0.8297 -1.2549
    8MOL0     H 1038   9.903   5.326   2.674 -1.5941 -0.8973  0.9368
    8MOL0     H 1039   9.925   5.333   2.499  0.0711  1.4610 -0.0368
    8MOL0     H 1040   9.942   4.937   2.711 -0.9769  0.5469 -3.2370
    8MOL0     H 1041  10.129   4.858   2.835 -2.4952  1.8306  1.6910
    8MOL0     H 1042  10.528   4.963   3.110  0.1602  2.7832  0.8957
    8MOL0     H 1043  10.730   4.956   3.234 -3.9890  2.0516  0.7058
    8MOL0     H 1044  10.914   5.167   3.333  1.0683  0.7799 -0.0984
    8MOL0     H 1045  10.891   4.990   3.332  0.6344 -0.3491 -0.0158
    8MOL0     H 1046  11.082   5.030   3.462  0.5817 -1.8888 -1.1347
    8MOL0     H 1047  11.138   4.972   3.315  1.5990  1.2086  1.1672
    8MOL0     H 1048  11.226   5.166   3.241  0.2229 -3.1068 -0.7290
    8MOL0     H 1049  11.132   5.262   3.362  0.9124  2.3341 -6.0500
    8MOL0     H 1050  11.368   5.079   3.428  0.2231 -0.1032  1.5432
    8MOL0     H 1051  11.261   5.165   3.533 -3.7196  0.4293 -1.8501
    8MOL0     H 1052  11.321   5.387   3.429  0.8330  1.1456 -0.4092
    8MOL0     H 1053  11.430   5.303   3.314  0.3530 -0.8289  0.3671
    8MOL0     H 1054  11.482   5.326   3.622 -0.3131  0.7562 -0.5507
    8MOL0     H 1055  11.537   5.197   3.517  0.6346  0.1275  1.5180
    8MOL0     H 1056  11.641   5.407   3.391 -1.3210 -1.1741 -0.5992
    8MOL0     H 1057  11.720   5.371   3.542 -0.9246 -0.2985  2.3424
    8MOL0     H 1058  11.515   5.583   3.493  0.1325 -1.1300 -0.1354
    8MOL0     H 1059  11.564   5.543   3.651  3.6366 -0.2200  1.3399
    8MOL0     H 1060  10.932   5.137   2.900 -0.9190 -0.8336 -3.1184
    8MOL0     H 1061  10.736   5.096   2.761 -0.6185  0.8698 -0.1958
    8MOL0     H 1062  10.371   5.168   2.658 -0.1348 -0.6328 -1.4360
    8MOL0     H 1063  10.152   5.263   2.560 -1.9760  0.0105 -0.0355
    8MOL0     H 1064   8.786   6.187   2.184 -0.1216 -1.0067  0.3831
    8MOL0     H 1065   8.559   6.249   2.126 -1.2407 -1.3892  1.1395
    8MOL0     H 1066   8.207   6.288   2.133  0.8221 -0.1728  2.4269
    8MOL0     H 1067   7.999   6.352   2.016  2.8588  1.3811 -0.4941
    8MOL0     H 1068   7.766   6.251   2.045 -2.0458 -0.2090  1.0355
    8MOL0     H 1069   7.787   6.376   1.927 -0.4860  0.2266  0.0980
    8MOL0     H 1070   7.557   6.474   1.990  2.3268  0.1272 -4.2744
    8MOL0     H 1071   7.530   6.337   2.101 -3.0226 -1.0555 -1.1200
    8MOL0     H 1072   7.558   6.195   1.891 -3.2696 -1.4944 -2.2839
    8MOL0     H 1073   7.566   6.355   1.801  1.7001  2.3152  1.5622
    8MOL0     H 1074   7.353   6.404   1.914  1.2906  1.0120 -3.0142
    8MOL0     H 1075   7.334   6.286   1.786 -1.3631  2.3574  0.3983
    8MOL0     H 1076   7.177   6.038   2.056  0.7236 -2.4294 -0.4115
    8MOL0     H 1077   7.851   6.539   2.374  1.1116  1.5851  0.1954
    8MOL0     H 1078   8.080   6.481   2.591 -0.0780 -0.1597  0.3227
    8MOL0     H 1079   8.142   6.630   2.521  0.0240 -1.0238  0.6690
    8MOL0     H 1080   7.969   6.605   2.528 -0.9851 -1.7701  1.6950
    9MOL0     O 1081   7.672   6.084   9.084  0.5718  0.1808 -0.8433
    9MOL0     C 1082   7.654   6.056   9.203 -0.5335  0.0778 -0.3739
    9MOL0     O 1083   7.740   5.962   9.269  0.4754  0.0459  0.9743
    9MOL0     C 1084   7.798   5.862   9.199 -0.4748 -0.4237 -0.4313
    9MOL0     C 1085   7.910   5.887   9.113  0.0807 -0.0857  0.2858
    9MOL0     C 1086   7.991   5.780   9.062  0.1064 -0.2837 -0.1957
    9MOL0     C 1087   7.965   5.650   9.105  0.6016 -1.0079  0.0136
    9MOL0     O 1088   8.047   5.559   9.050 -0.3499  0.1920 -0.4085
    9MOL0     C 1089   8.053   5.425   9.097  0.0368  0.0298 -0.6314
    9MOL0     C 1090   8.082   5.411   9.248 -0.5930  0.0413  0.4051
    9MOL0     C 1091   8.226   5.483   9.280  0.3008 -0.1286 -0.3865
    9MOL0     C 1092   8.334   5.380   9.245 -0.6056 -0.2037  0.4881
    9MOL0     C 1093   8.466   5.443   9.285  0.2034  0.3485 -0.3814
    9MOL0     C 1094   8.498   5.477   9.433 -0.1932  0.7160 -0.9612
    9MOL0     C 1095   8.642   5.534   9.432  0.1594 -0.0428  0.2318
    9MOL0     C 1096   8.689   5.586   9.577  0.7294  0.5345  0.5610
    9MOL0     N 1097   8.832   5.632   9.589 -0.0749  0.1106 -0.4780
    9MOL0     C 1098   8.870   5.765   9.575 -0.2527  0.3742 -0.5242
    9MOL0     C 1099   8.991   5.772   9.645  0.3313  0.0357 -0.8631
    9MOL0     C 1100   9.079   5.893   9.687 -0.5712  0.4840 -0.2223
    9MOL0     C 1101   9.196   5.920   9.590  1.0030 -0.0647 -0.3947
    9MOL0     C 1102   9.295   6.016   9.647  0.0506  0.3902  0.1098
    9MOL0     C 1103   9.432   6.008   9.587 -0.3697 -0.2607 -0.2254
    9MOL0     O 1104   9.504   6.089   9.676  0.0055 -0.0942 -0.0403
    9MOL0     C 1105   9.640   6.107   9.654  0.7215  0.7236  0.6414
    9MOL0     C 1106   9.710   6.170   9.753 -0.4646 -0.0930 -0.2559
    9MOL0     C 1107   9.851   6.187   9.746  0.5630 -0.2511  0.6556
    9MOL0     C 1108   9.914   6.125   9.641 -0.7651 -0.7293  0.4271
    9MOL0     C 1109  10.065   6.124   9.647  0.7350  0.8804 -0.4139
    9MOL0     O 1110  10.128   6.205   9.735  0.1648  0.1662  0.1460
    9MOL0     C 1111  10.264   6.207   9.733  0.8991  0.2524 -0.1909
    9MOL0     C 1112  10.341   6.090   9.751 -0.0640  0.5207  0.2020
    9MOL0     C 1113  10.477   6.096   9.748  0.9220  0.5603 -1.3001
    9MOL0     C 1114  10.543   6.218   9.747  0.1014  1.0148  0.7562
    9MOL0     O 1115  10.682   6.218   9.732 -0.2205  0.3324 -0.4315
    9MOL0     C 1116  10.747   6.324   9.657  0.0190 -0.4329  0.0111
    9MOL0     C 1117  10.711   6.338   9.507  0.5116  0.6593 -0.3214
    9MOL0     C 1118  10.794   6.448   9.445  1.2551  0.2218  0.5149
    9MOL0     C 1119  10.941   6.394   9.433  0.5885  0.0762 -0.5208
    9MOL0     C 1120  11.012   6.461   9.321  0.1265 -0.1237  0.2749
    9MOL0     C 1121  11.159   6.419   9.314  1.2035  0.3450  0.4740
    9MOL0     C 1122  11.222   6.484   9.190  0.5688  1.2021  0.0583
    9MOL0     C 1123  11.376   6.472   9.170  0.0580 -0.1324 -0.6393
    9MOL0    Cl 1124  11.443   6.312   9.182  0.2410  0.0002  0.3579
    9MOL0     C 1125  10.463   6.334   9.747 -1.1566  0.5918  0.8551
    9MOL0     C 1126  10.328   6.330   9.740 -0.8994 -0.0122 -0.1345
    9MOL0     O 1127  10.128   6.056   9.562  0.4065 -0.1289 -0.2555
    9MOL0     C 1128   9.845   6.066   9.536  0.3767  0.4435  0.0706
    9MOL0     C 1129   9.708   6.070   9.537  1.2116  0.3149  0.3202
    9MOL0     N 1130   9.022   5.645   9.681  0.1685  0.6187 -0.1255
    9MOL0     N 1131   8.927   5.557   9.647  0.0820  0.7347  0.8299
    9MOL0     C 1132   7.845   5.630   9.176 -0.9530 -0.2360 -0.0638
    9MOL0     C 1133   7.769   5.735   9.238 -0.2106 -0.4674  0.7279
    9MOL0     C 1134   7.542   6.145   9.257  0.7912 -0.6535 -0.4521
    9MOL0     C 1135   7.510   6.270   9.201  0.1917  0.3159  0.2951
    9MOL0     C 1136   7.402   6.344   9.242  0.5353 -0.3420  0.8244
    9MOL0     C 1137   7.319   6.298   9.350  0.2784  0.3598  0.1122
    9MOL0     O 1138   7.199   6.357   9.385 -0.5184 -0.1545  0.1236
    9MOL0     C 1139   7.153   6.471   9.308  0.4060 -0.1064 -0.3508
    9MOL0     C 1140   7.007   6.506   9.321 -1.1690  0.0050 -0.2119
    9MOL0     C 1141   6.973   6.542   9.463  0.6930  0.0067 -0.0550
    9MOL0     C 1142   6.823   6.549   9.466 -0.3508  0.3441 -0.7390
    9MOL0     C 1143   6.774   6.592   9.600  0.1864 -0.3520  1.5510
    9MOL0     C 1144   6.714   6.622   9.702  0.3423 -0.0723  0.3305
    9MOL0     C 1145   7.364   6.192   9.413 -0.3775  0.3947 -0.1603
    9MOL0     C 1146   7.463   6.106   9.369 -0.3293  0.4111 -0.2700
    9MOL0     C 1147   7.505   5.990   9.462  0.0970  0.5621  0.4696
    9MOL0     H 1148   7.926   5.994   9.098 -2.9048  0.6557  1.5064
    9MOL0     H 1149   8.080   5.798   9.004  0.4134 -3.7521 -1.0387
    9MOL0     H 1150   7.961   5.367   9.085  0.3083 -0.8968  1.4391
    9MOL0     H 1151   8.134   5.380   9.040  1.1756  3.2342 -1.7496
    9MOL0     H 1152   8.086   5.303   9.262 -0.6629 -0.5316 -3.0268
    9MOL0     H 1153   8.007   5.440   9.322  2.0648  1.0516  2.9088
    9MOL0     H 1154   8.233   5.503   9.387  2.3280  1.7429 -0.7924
    9MOL0     H 1155   8.242   5.571   9.216  1.8756  0.0066  0.1750
    9MOL0     H 1156   8.328   5.283   9.294 -2.0220 -0.1982  0.3500
    9MOL0     H 1157   8.329   5.360   9.137 -0.4069  2.2924 -0.0357
    9MOL0     H 1158   8.542   5.367   9.262 -0.1765  0.0189 -0.5567
    9MOL0     H 1159   8.485   5.533   9.226  2.3187 -0.6949 -1.4234
    9MOL0     H 1160   8.424   5.544   9.478 -1.4449 -1.7338  0.8359
    9MOL0     H 1161   8.490   5.383   9.487  1.1908  1.9131  1.4736
    9MOL0     H 1162   8.654   5.613   9.357  1.1009 -0.6922 -0.3135
    9MOL0     H 1163   8.714   5.458   9.401  0.3870  0.0049  0.6331
    9MOL0     H 1164   8.631   5.678   9.592 -0.3224 -0.1584  0.8867
    9MOL0     H 1165   8.666   5.513   9.655  1.9945 -0.3809  0.1054
    9MOL0     H 1166   8.824   5.849   9.524  2.1429  0.7511 -2.2239
    9MOL0     H 1167   9.018   5.982   9.701 -2.2345  0.0464 -3.7408
    9MOL0     H 1168   9.124   5.867   9.783  0.5714  3.2235  0.0670
    9MOL0     H 1169   9.235   5.827   9.548  1.7623  0.4668 -0.8913
    9MOL0     H 1170   9.155   5.979   9.508  1.4377 -0.6947 -1.0813
    9MOL0     H 1171   9.313   5.988   9.751  1.9286  1.7222  0.2039
    9MOL0     H 1172   9.253   6.116   9.636  0.8037  0.4227 -3.9436
    9MOL0     H 1173   9.429   6.056   9.488  1.9290  1.8250  0.5950
    9MOL0     H 1174   9.472   5.909   9.568 -1.9739 -0.6414 -2.0353
    9MOL0     H 1175   9.656   6.210   9.839  0.4184  1.3450 -0.3348
    9MOL0     H 1176   9.904   6.243   9.823 -1.8861  1.9706  0.8702
    9MOL0     H 1177  10.299   5.990   9.747 -0.9725  0.6967  3.0473
    9MOL0     H 1178  10.526   5.999   9.746  0.1000  0.0468  0.5963
    9MOL0     H 1179  10.733   6.419   9.709 -4.5710 -0.4612 -0.7721
    9MOL0     H 1180  10.855   6.305   9.660  0.1183  0.1386  0.2101
    9MOL0     H 1181  10.728   6.244   9.454 -1.3009  0.7553 -1.1348
    9MOL0     H 1182  10.602   6.340   9.503  0.3057 -2.3338  1.2172
    9MOL0     H 1183  10.759   6.465   9.343 -0.5331  2.6646  1.4336
    9MOL0     H 1184  10.784   6.547   9.491  2.0983  0.3013  0.5474
    9MOL0     H 1185  10.953   6.286   9.422  0.8757 -0.2903  2.3952
    9MOL0     H 1186  10.995   6.423   9.524 -1.3639 -0.2973  0.8529
    9MOL0     H 1187  11.006   6.570   9.325  1.5449  0.1139 -2.0206
    9MOL0     H 1188  10.963   6.432   9.227  0.5642 -1.3210  0.3998
    9MOL0     H 1189  11.215   6.442   9.405  0.1224  1.5191  0.8669
    9MOL0     H 1190  11.158   6.310   9.309 -2.1131  0.1968  1.8191
    9MOL0     H 1191  11.200   6.591   9.200 -1.3377  1.4094 -4.0625
    9MOL0     H 1192  11.165   6.459   9.100  0.2144 -0.8881  0.8090
    9MOL0     H 1193  11.405   6.516   9.075  1.3571 -0.6408 -0.5073
    9MOL0     H 1194  11.423   6.531   9.249  0.9614 -0.6769 -0.7531
    9MOL0     H 1195  10.517   6.428   9.737  2.0048 -1.3626 -3.4106
    9MOL0     H 1196  10.266   6.420   9.737 -0.3463  0.3605 -0.5719
    9MOL0     H 1197   9.892   6.015   9.452 -2.8875  1.2733 -2.4757
    9MOL0     H 1198   9.652   6.025   9.455 -2.2746  0.1888  2.5775
    9MOL0     H 1199   7.813   5.526   9.187 -0.7409 -0.0988  2.3793
    9MOL0     H 1200   7.689   5.711   9.307 -0.7078 -1.8123 -0.2595
    9MOL0     H 1201   7.569   6.303   9.117 -1.3307 -0.2705 -1.0579
    9MOL0     H 1202   7.372   6.425   9.175  1.3278  0.9468  1.9749
    9MOL0     H 1203   7.166   6.453   9.200 -0.9996 -2.1026 -0.2334
    9MOL0     H 1204   7.214   6.558   9.335  0.9191 -1.4110  3.2012
    9MOL0     H 1205   6.952   6.418   9.285 -2.0256 -0.5216  2.1726
    9MOL0     H 1206   6.980   6.589   9.255 -0.4225 -0.4098 -1.0605
    9MOL0     H 1207   7.022   6.637   9.487 -0.0658  0.0497  1.4309
    9MOL0     H 1208   7.001   6.464   9.534 -3.9680  0.7886  3.1055
    9MOL0     H 1209   6.777   6.616   9.394 -0.3116  1.9744  0.6819
    9MOL0     H 1210   6.768   6.457   9.446 -0.7563 -0.1198  2.1045
    9MOL0     H 1211   6.647   6.641   9.783 -0.5680 -1.5373 -0.0258
    9MOL0     H 1212   7.306   6.152   9.496 -0.7989 -0.5387 -0.8747
    9MOL0     H 1213   7.514   5.899   9.401 -0.2345  1.4712 -0.9909
    9MOL0     H 1214   7.606   6.001   9.503 -0.1795  0.9211  1.0455
    9MOL0     H 1215   7.435   5.980   9.545 -3.7202 -1.1403 -2.5974
   10MOL0     O 1216   8.530   9.438   5.712  0.1506 -0.2208  0.0026
   10MOL0     C 1217   8.630   9.386   5.764  0.7382 -0.5755  0.2957
   10MOL0     O 1218   8.719   9.310   5.698 -0.0929  0.1712  0.2622
   10MOL0     C 1219   8.728   9.319   5.562  0.4328 -0.1663  0.4364
   10MOL0     C 1220   8.771   9.200   5.495 -0.2971  0.5622 -0.3222
   10MOL0     C 1221   8.808   9.202   5.365  0.7183 -0.1196  0.8227
   10MOL0     C 1222   8.802   9.319   5.287  0.2489  0.5257 -0.3433
   10MOL0     O 1223   8.846   9.316   5.155 -0.4721 -0.0184 -0.1612
   10MOL0     C 1224   8.747   9.383   5.065 -0.3668 -0.1564  0.5151
   10MOL0     C 1225   8.798   9.378   4.921  0.0496  0.4491  0.4875
   10MOL0     C 1226   8.921   9.472   4.914  0.8785  0.6157 -0.0147
   10MOL0     C 1227   8.945   9.535   4.782 -0.1974 -0.2038 -0.1502
   10MOL0     C 1228   9.020   9.446   4.694 -0.6130  0.5727 -0.5312
   10MOL0     C 1229   9.165   9.490   4.683 -0.4675  0.1368 -0.4927
   10MOL0     C 1230   9.244   9.407   4.581  0.5339  0.2316 -0.1558
   10MOL0     C 1231   9.278   9.278   4.647  1.1878 -0.1317 -0.6601
   10MOL0     N 1232   9.337   9.189   4.545 -0.6468 -0.2294  0.4998
   10MOL0     C 1233   9.468   9.195   4.504  0.9884  0.0834  0.5749
   10MOL0     C 1234   9.470   9.094   4.413  0.0110 -0.5743  0.0413
   10MOL0     C 1235   9.584   9.075   4.307 -0.0749  0.0934  0.8184
   10MOL0     C 1236   9.717   9.035   4.360 -0.6945  0.6449 -0.6927
   10MOL0     C 1237   9.795   9.132   4.447  0.5601 -0.4333 -0.6756
   10MOL0     C 1238   9.828   9.257   4.372  0.6269  0.2012 -0.5686
   10MOL0     O 1239   9.924   9.229   4.270 -1.2161 -0.4091  0.0486
   10MOL0     C 1240  10.063   9.241   4.289 -0.5505  0.3787 -0.0700
   10MOL0     C 1241  10.131   9.228   4.408  0.3536  0.8433  0.8797
   10MOL0     C 1242  10.268   9.246   4.404 -0.7848 -0.4726  0.3469
   10MOL0     C 1243  10.347   9.260   4.281  0.1862  0.0029 -0.7027
   10MOL0     C 1244  10.495   9.271   4.288 -0.2751  1.0338  0.0182
   10MOL0     O 1245  10.559   9.260   4.172 -0.1648  0.5966 -0.1372
   10MOL0     C 1246  10.688   9.299   4.152 -0.6972 -0.2251  0.0057
   10MOL0     C 1247  10.797   9.300   4.246  0.4335 -0.3522 -0.2805
   10MOL0     C 1248  10.920   9.346   4.209 -0.4763  1.2164 -0.7037
   10MOL0     C 1249  10.949   9.386   4.076  0.5681 -0.5682 -0.3588
   10MOL0     O 1250  11.072   9.422   4.038  0.2159  0.8078 -0.1100
   10MOL0     C 1251  11.180   9.430   4.138 -0.6112 -0.2022  0.2318
   10MOL0     C 1252  11.305   9.456   4.064 -0.6665 -0.7177  0.2931
   10MOL0     C 1253  11.405   9.551   4.130 -1.0682 -0.4815  0.8146
   10MOL0     C 1254  11.480   9.464   4.228 -0.1198 -0.1616 -0.0633
   10MOL0     C 1255  11.587   9.543   4.307 -0.6699  0.0434  0.0287
   10MOL0     C 1256  11.687   9.462   4.394  0.0892  0.5196 -0.0480
   10MOL0     C 1257  11.801   9.548   4.443 -0.3825 -0.6571  0.1592
   10MOL0     C 1258  11.891   9.483   4.544  0.4681  0.3022  0.6003
   10MOL0    Cl 1259  11.939   9.310   4.502 -0.0767 -0.3997  0.3161
   10MOL0     C 1260  10.836   9.397   3.989  0.1320  0.0818  0.4888
   10MOL0     C 1261  10.710   9.351   4.026 -0.1504 -0.0035 -0.0071
   10MOL0     O 1262  10.543   9.291   4.400 -0.1922  0.5206 -0.2600
   10MOL0     C 1263  10.273   9.249   4.168 -0.5982 -0.2934  1.1748
   10MOL0     C 1264  10.136   9.248   4.172 -0.2732  0.0195 -0.7687
   10MOL0     N 1265   9.352   9.030   4.404  0.3595  0.5872 -0.3683
   10MOL0     N 1266   9.270   9.089   4.493 -0.3283  1.1581 -0.1805
   10MOL0     C 1267   8.751   9.439   5.350  0.4308 -0.1720  0.1516
   10MOL0     C 1268   8.707   9.432   5.482 -0.1229 -0.1073 -1.2254
   10MOL0     C 1269   8.669   9.408   5.914 -0.3798  0.0607  0.9035
   10MOL0     C 1270   8.801   9.378   5.954  0.3746  0.6806 -0.3208
   10MOL0     C 1271   8.834   9.400   6.092 -0.2194  0.1746  1.4133
   10MOL0     C 1272   8.739   9.450   6.182 -0.3237  0.3199  0.4544
   10MOL0     O 1273   8.761   9.489   6.314  0.4296  0.3597 -0.0325
   10MOL0     C 1274   8.898   9.457   6.366 -0.0551 -0.7928  0.0851
   10MOL0     C 1275   8.907   9.462   6.515  1.6414  1.3428  0.0421
   10MOL0     C 1276   8.844   9.337   6.577  0.0729  0.3698  0.3745
   10MOL0     C 1277   8.793   9.354   6.724 -0.7757  0.8029  0.0496
   10MOL0     C 1278   8.914   9.386   6.801 -0.2697  0.9237  0.1312
   10MOL0     C 1279   9.012   9.427   6.863 -0.0080  0.4335  0.0561
   10MOL0     C 1280   8.615   9.493   6.132  0.6548  0.0192 -0.4851
   10MOL0     C 1281   8.579   9.471   6.001 -0.3981 -0.0733 -0.0056
   10MOL0     C 1282   8.439   9.515   5.971 -0.4994  0.2261 -0.1423
   10MOL0     H 1283   8.783   9.108   5.550  1.9523  0.8699 -0.2300
   10MOL0     H 1284   8.834   9.115   5.306 -0.4112  0.8648 -1.2225
   10MOL0     H 1285   8.651   9.330   5.075 -0.3128 -0.0134  1.9181
   10MOL0     H 1286   8.722   9.485   5.095 -0.6776  0.3267 -1.2893
   10MOL0     H 1287   8.720   9.410   4.852 -0.3685 -1.6621 -0.0899
   10MOL0     H 1288   8.833   9.281   4.884  0.3143  0.6378  0.2397
   10MOL0     H 1289   9.011   9.419   4.949  0.2578  0.6606  1.7680
   10MOL0     H 1290   8.898   9.555   4.981 -3.5399  0.4359 -1.0562
   10MOL0     H 1291   8.854   9.556   4.724  0.0749  0.4466 -0.3584
   10MOL0     H 1292   8.996   9.631   4.797 -0.0735 -0.1557 -0.8154
   10MOL0     H 1293   9.011   9.343   4.729 -0.5766  0.2085 -1.5454
   10MOL0     H 1294   8.979   9.439   4.593  0.6858 -1.8246 -0.9781
   10MOL0     H 1295   9.160   9.584   4.628 -2.2907 -0.2336 -1.0257
   10MOL0     H 1296   9.215   9.483   4.780  0.8454 -1.6332 -1.2421
   10MOL0     H 1297   9.334   9.463   4.555 -0.7689  1.7789 -1.6304
   10MOL0     H 1298   9.184   9.396   4.490 -2.6906 -2.9146  2.0712
   10MOL0     H 1299   9.346   9.289   4.732 -1.1706 -0.4844  1.4122
   10MOL0     H 1300   9.187   9.233   4.689  0.5755  1.7760  0.1686
   10MOL0     H 1301   9.547   9.266   4.526  3.0343 -1.5605 -0.9784
   10MOL0     H 1302   9.546   8.997   4.240  1.1499  1.0329 -1.0755
   10MOL0     H 1303   9.587   9.160   4.238 -1.4107 -1.5126 -1.3857
   10MOL0     H 1304   9.707   8.938   4.410  1.8695 -0.5458 -2.2295
   10MOL0     H 1305   9.782   9.020   4.273  2.3024 -0.9373  1.6217
   10MOL0     H 1306   9.890   9.085   4.474 -1.2776 -3.4800  1.1018
   10MOL0     H 1307   9.739   9.150   4.539  0.0915  3.3466 -1.5415
   10MOL0     H 1308   9.880   9.328   4.437  0.7662  0.5984 -1.1089
   10MOL0     H 1309   9.734   9.303   4.341  0.1644  0.7921  1.5458
   10MOL0     H 1310  10.089   9.211   4.506  1.1645  3.3397  1.7260
   10MOL0     H 1311  10.323   9.246   4.498  2.4126 -2.3935 -1.3194
   10MOL0     H 1312  10.769   9.270   4.346 -0.7009 -1.8038 -0.9931
   10MOL0     H 1313  10.996   9.345   4.287 -1.7568  2.8577  0.6336
   10MOL0     H 1314  11.158   9.512   4.207 -0.5787 -1.1325  1.3657
   10MOL0     H 1315  11.190   9.332   4.186 -1.3206  1.0180  3.0536
   10MOL0     H 1316  11.354   9.363   4.035  0.8666  0.8742 -2.6546
   10MOL0     H 1317  11.274   9.498   3.968 -1.6192 -0.4509  0.6978
   10MOL0     H 1318  11.477   9.582   4.054 -0.5973  2.6707  2.3476
   10MOL0     H 1319  11.349   9.632   4.178 -0.1575  1.2961 -0.9553
   10MOL0     H 1320  11.530   9.391   4.164 -0.0793  0.2246 -0.4808
   10MOL0     H 1321  11.412   9.428   4.306  0.6146  2.8552  2.1468
   10MOL0     H 1322  11.527   9.611   4.367 -1.4668 -0.1146 -0.5690
   10MOL0     H 1323  11.653   9.598   4.239 -0.9566 -0.2379 -0.4868
   10MOL0     H 1324  11.633   9.409   4.473 -0.9359 -0.5470 -1.4216
   10MOL0     H 1325  11.731   9.390   4.325 -4.1697 -3.4359  0.8782
   10MOL0     H 1326  11.762   9.639   4.488 -1.2470 -1.3160  0.7690
   10MOL0     H 1327  11.865   9.574   4.358  0.8892 -1.0534  0.9548
   10MOL0     H 1328  11.973   9.549   4.571 -0.3861  0.8266  2.0248
   10MOL0     H 1329  11.832   9.476   4.636 -0.7624 -1.0620 -0.2323
   10MOL0     H 1330  10.842   9.450   3.894  1.5560  0.0756  0.5674
   10MOL0     H 1331  10.624   9.372   3.963 -0.3544  3.8633  1.3306
   10MOL0     H 1332  10.330   9.260   4.076 -1.8244  0.6730  0.4999
   10MOL0     H 1333  10.085   9.240   4.077 -0.5001  1.4371 -0.7996
   10MOL0     H 1334   8.732   9.529   5.292 -0.3328 -1.0722 -1.0498
   10MOL0     H 1335   8.690   9.513   5.551 -0.1661 -0.9780 -0.1767
   10MOL0     H 1336   8.881   9.338   5.892  1.9843 -1.2776  2.7676
   10MOL0     H 1337   8.942   9.395   6.108  0.2548  0.0054 -1.3284
   10MOL0     H 1338   8.968   9.536   6.334 -0.2610 -1.1627 -1.3289
   10MOL0     H 1339   8.942   9.363   6.331  0.8619 -0.1799 -0.4832
   10MOL0     H 1340   8.845   9.544   6.553 -0.3176 -1.4209  3.4360
   10MOL0     H 1341   9.011   9.476   6.548  1.6562 -2.1114  1.9084
   10MOL0     H 1342   8.910   9.251   6.568 -2.0380 -1.2405 -0.5900
   10MOL0     H 1343   8.759   9.319   6.510  0.7022  2.5293 -1.1298
   10MOL0     H 1344   8.715   9.430   6.737 -2.2443 -0.2682 -2.0657
   10MOL0     H 1345   8.747   9.263   6.764  0.9821  1.2319  3.4384
   10MOL0     H 1346   9.085   9.487   6.914 -1.2756  0.1106  2.4328
   10MOL0     H 1347   8.547   9.548   6.197  2.7014  0.2102  1.6185
   10MOL0     H 1348   8.445   9.605   5.909 -1.4741  0.5297  0.1812
   10MOL0     H 1349   8.382   9.443   5.912  1.5517 -0.4858 -1.3575
   10MOL0     H 1350   8.386   9.529   6.066  0.3785  1.5355  0.1790
   11MOL0     O 1351   9.950   8.647   2.306  0.4671 -0.4635 -0.3322
   11MOL0     C 1352   9.952   8.733   2.398 -0.2688 -0.1454  0.1270
   11MOL0     O 1353  10.059   8.771   2.473 -0.0846  0.8173  0.1889
   11MOL0     C 1354  10.179   8.707   2.453 -0.1967 -0.5397 -0.2025
   11MOL0     C 1355  10.194   8.567   2.459  0.2846 -0.8886 -0.5268
   11MOL0     C 1356  10.319   8.507   2.456  0.3352 -0.0301  0.0620
   11MOL0     C 1357  10.431   8.588   2.453 -0.3858  0.4706 -0.3217
   11MOL0     O 1358  10.567   8.552   2.463  0.4705  0.2409 -0.2748
   11MOL0     C 1359  10.591   8.413   2.477 -0.2306 -0.8845 -0.1583
   11MOL0     C 1360  10.730   8.379   2.519  0.4090 -0.2827  0.1594
   11MOL0     C 1361  10.793   8.469   2.612  0.3246  0.8154 -0.1414
   11MOL0     C 1362  10.909   8.402   2.685  0.1704 -0.2524  0.0383
   11MOL0     C 1363  10.957   8.497   2.802 -0.7272 -1.0073 -0.8991
   11MOL0     C 1364  11.022   8.629   2.765  0.6176  0.7605  0.0999
   11MOL0     C 1365  11.081   8.708   2.885 -0.1062  0.2121  0.7361
   11MOL0     C 1366  11.114   8.861   2.849 -0.7304  0.1302 -0.3898
   11MOL0     N 1367  11.173   8.934   2.964  0.0191  0.1596 -0.1046
   11MOL0     C 1368  11.278   9.027   2.960 -0.6616  0.2432 -0.2451
   11MOL0     C 1369  11.273   9.081   3.085 -0.1050  0.6886  0.1917
   11MOL0     C 1370  11.356   9.202   3.125  0.3224  0.3877 -0.0568
   11MOL0     C 1371  11.492   9.225   3.060 -0.5611 -0.3989  0.2625
   11MOL0     C 1372  11.545   9.363   3.098  0.4332 -0.0775  0.2320
   11MOL0     C 1373  11.692   9.380   3.065 -0.0826 -0.8431 -0.5091
   11MOL0     O 1374  11.716   9.518   3.074 -0.1035 -0.1724  0.1647
   11MOL0     C 1375  11.844   9.559   3.058 -0.0462 -0.1404  0.9206
   11MOL0     C 1376  11.948   9.487   2.990 -0.0239  0.5788  0.2205
   11MOL0     C 1377  12.080   9.538   2.987  0.0326  0.2539 -0.2061
   11MOL0     C 1378  12.108   9.658   3.044 -1.0244  0.1386 -0.1529
   11MOL0     C 1379  12.243   9.714   3.047 -0.0734  1.0482  0.0998
   11MOL0     O 1380  12.270   9.823   3.119  0.2893  0.2563 -0.3484
   11MOL0     C 1381  12.397   9.855   3.141 -0.3532  0.4759 -0.2260
   11MOL0     C 1382  12.481   9.910   3.049  0.4730  0.2710  0.2868
   11MOL0     C 1383  12.617   9.945   3.073  0.7384 -0.6727  0.8176
   11MOL0     C 1384  12.676   9.922   3.197 -0.9769 -0.1608  0.5353
   11MOL0     O 1385  12.802   9.959   3.234  0.4793  0.4749  0.1394
   11MOL0     C 1386  12.896   9.973   3.120  0.3242  0.8636  0.2247
   11MOL0     C 1387  13.030  10.023   3.167  0.0985 -0.5500  0.6319
   11MOL0     C 1388  13.121  10.086   3.057  0.2074 -0.4653  0.4680
   11MOL0     C 1389  13.245  10.130   3.128 -0.6597 -0.2410  0.3723
   11MOL0     C 1390  13.326  10.237   3.046 -0.6994 -0.1788  0.1395
   11MOL0     C 1391  13.479  10.208   3.065  0.4382 -0.7289  0.3168
   11MOL0     C 1392  13.546  10.317   2.973 -0.3644  0.7817  0.2027
   11MOL0     C 1393  13.667  10.370   3.043 -0.3409  0.0370  0.1307
   11MOL0    Cl 1394  13.634  10.496   3.165 -0.1960  0.2007 -0.0292
   11MOL0     C 1395  12.595   9.864   3.294  0.1038  0.0094 -1.3597
   11MOL0     C 1396  12.465   9.826   3.262  0.4062  0.3699 -0.2978
   11MOL0     O 1397  12.332   9.645   2.992 -0.1320  0.6110  0.2006
   11MOL0     C 1398  12.004   9.735   3.095 -0.1749 -0.0283  0.1149
   11MOL0     C 1399  11.874   9.687   3.101  0.4860  0.0391  1.3098
   11MOL0     N 1400  11.182   9.015   3.160 -0.3597 -0.2911 -0.4224
   11MOL0     N 1401  11.123   8.931   3.089  0.0902 -0.1965 -0.6658
   11MOL0     C 1402  10.416   8.730   2.458  0.8339 -0.0678  0.0154
   11MOL0     C 1403  10.293   8.789   2.462  0.9662 -0.2835 -0.4119
   11MOL0     C 1404   9.830   8.809   2.436  0.2974 -0.3689 -0.1800
   11MOL0     C 1405   9.854   8.929   2.500  0.8236 -0.8654  0.4109
   11MOL0     C 1406   9.750   9.025   2.512 -0.5453  0.1297 -0.1399
   11MOL0     C 1407   9.621   8.984   2.488  0.7775  0.0366  0.3705
   11MOL0     O 1408   9.508   9.059   2.515 -0.5576  0.2795  0.4038
   11MOL0     C 1409   9.526   9.192   2.563 -0.1287 -0.1231 -0.1132
   11MOL0     C 1410   9.387   9.249   2.597 -0.3985 -0.0704 -0.0053
   11MOL0     C 1411   9.389   9.401   2.634 -0.4611 -0.1451 -0.0982
   11MOL0     C 1412   9.409   9.484   2.507 -0.0870  0.2488  0.0498
   11MOL0     C 1413   9.356   9.616   2.524 -0.6023 -0.0399  0.2809
   11MOL0     C 1414   9.300   9.715   2.566  0.4106  1.4382 -0.1521
   11MOL0     C 1415   9.603   8.862   2.429  0.8120  0.0205 -0.9613
   11MOL0     C 1416   9.700   8.770   2.407  0.8676 -0.0625 -0.2921
   11MOL0     C 1417   9.661   8.627   2.368  0.1600 -0.6064 -0.2094
   11MOL0     H 1418  10.111   8.499   2.472 -0.5431  0.5449  2.5115
   11MOL0     H 1419  10.330   8.400   2.447 -2.5840 -0.5681  1.7612
   11MOL0     H 1420  10.525   8.381   2.559  0.4747 -0.3551  0.6375
   11MOL0     H 1421  10.557   8.365   2.385  0.7813  1.4465 -1.8316
   11MOL0     H 1422  10.784   8.380   2.424 -1.5525 -2.8862 -1.1199
   11MOL0     H 1423  10.718   8.274   2.545 -0.6759 -0.3944 -0.7328
   11MOL0     H 1424  10.718   8.486   2.690  0.6300 -2.0661  0.8803
   11MOL0     H 1425  10.819   8.568   2.572 -3.4398  0.9818 -2.7065
   11MOL0     H 1426  10.864   8.318   2.737  0.7983  1.2486  3.2354
   11MOL0     H 1427  10.989   8.370   2.618  2.1006 -0.4322  2.2933
   11MOL0     H 1428  10.881   8.512   2.879  0.3097 -2.5052  0.4810
   11MOL0     H 1429  11.042   8.445   2.847 -0.9344 -0.3121  0.3328
   11MOL0     H 1430  11.107   8.608   2.699  0.9160  0.1403  0.6628
   11MOL0     H 1431  10.950   8.692   2.714  1.0686  0.1940 -1.2825
   11MOL0     H 1432  11.171   8.651   2.910 -0.4539 -0.9455 -0.5887
   11MOL0     H 1433  11.017   8.708   2.974  0.8108  0.2759  1.4116
   11MOL0     H 1434  11.161   8.863   2.750 -1.4570  1.0908 -0.7279
   11MOL0     H 1435  11.016   8.910   2.846 -0.2674  1.4435  2.5518
   11MOL0     H 1436  11.342   9.051   2.876 -0.8020 -0.3847 -0.5434
   11MOL0     H 1437  11.298   9.287   3.088 -0.9808 -0.4716 -0.0538
   11MOL0     H 1438  11.362   9.203   3.234 -2.4280 -1.9554  0.2254
   11MOL0     H 1439  11.563   9.144   3.079 -0.8323 -1.2040 -1.8419
   11MOL0     H 1440  11.480   9.229   2.951  0.1048  1.3456  0.2113
   11MOL0     H 1441  11.530   9.388   3.203  1.8771 -2.2280  1.0101
   11MOL0     H 1442  11.493   9.433   3.032 -1.0919 -1.5892 -0.2507
   11MOL0     H 1443  11.717   9.338   2.967  0.2735 -1.9640  0.0421
   11MOL0     H 1444  11.748   9.332   3.146 -1.7223 -3.0800 -0.5773
   11MOL0     H 1445  11.937   9.386   2.954  0.9514  0.8046 -0.7302
   11MOL0     H 1446  12.162   9.479   2.946  1.9460  0.0789  3.4951
   11MOL0     H 1447  12.447   9.936   2.950  3.4537  0.5048 -0.7650
   11MOL0     H 1448  12.665   9.996   2.989  0.9017 -0.7497  0.8648
   11MOL0     H 1449  12.902   9.886   3.054  2.8011  1.8721 -1.0111
   11MOL0     H 1450  12.856  10.053   3.057  0.1603  0.8338  0.2894
   11MOL0     H 1451  13.020  10.089   3.254  1.0935  0.2920  0.1325
   11MOL0     H 1452  13.086   9.933   3.194  2.1783 -1.3311 -4.9340
   11MOL0     H 1453  13.141  10.000   2.991  0.4308 -1.3351  1.6278
   11MOL0     H 1454  13.079  10.179   3.019  3.8345  1.2660  0.2653
   11MOL0     H 1455  13.314  10.048   3.149  1.8806  2.0839  1.7279
   11MOL0     H 1456  13.205  10.177   3.218  0.2794 -0.1828  0.7705
   11MOL0     H 1457  13.295  10.338   3.076 -1.5036  0.3241 -2.2168
   11MOL0     H 1458  13.306  10.234   2.939  0.8475 -0.2000 -0.1619
   11MOL0     H 1459  13.510  10.210   3.170  4.1463  1.0406 -0.6616
   11MOL0     H 1460  13.515  10.113   3.024 -1.6818 -2.5700  2.4293
   11MOL0     H 1461  13.480  10.403   2.959  0.7063  1.6650  0.4401
   11MOL0     H 1462  13.564  10.263   2.879 -1.7551 -2.4622  1.6301
   11MOL0     H 1463  13.710  10.282   3.090 -1.1622 -1.2364 -1.4132
   11MOL0     H 1464  13.729  10.421   2.968 -2.7992  1.2002 -1.2455
   11MOL0     H 1465  12.640   9.845   3.390  0.2521 -0.4223 -1.5091
   11MOL0     H 1466  12.408   9.781   3.343 -0.2538  2.4050  0.4288
   11MOL0     H 1467  12.007   9.839   3.126 -2.1127  0.3156 -0.7320
   11MOL0     H 1468  11.795   9.744   3.150 -1.0510 -0.6914 -0.1821
   11MOL0     H 1469  10.504   8.793   2.465  1.1828 -0.7153  1.9438
   11MOL0     H 1470  10.275   8.896   2.462  1.8213  0.0713  4.2802
   11MOL0     H 1471   9.949   8.981   2.512  0.1067  0.8174 -0.7965
   11MOL0     H 1472   9.769   9.122   2.558 -2.5360  0.2081  0.6237
   11MOL0     H 1473   9.585   9.242   2.486 -0.9019 -0.5034 -0.9763
   11MOL0     H 1474   9.578   9.183   2.658 -1.7540 -1.1059  0.7266
   11MOL0     H 1475   9.332   9.192   2.673  1.4194  0.4867  1.8298
   11MOL0     H 1476   9.319   9.234   2.512 -0.6551 -0.2711  0.2329
   11MOL0     H 1477   9.483   9.423   2.686 -1.0814  0.6603  0.7154
   11MOL0     H 1478   9.295   9.426   2.684 -1.2877 -0.2072 -1.5810
   11MOL0     H 1479   9.511   9.483   2.468 -0.4372  0.3697 -0.8849
   11MOL0     H 1480   9.354   9.435   2.426  0.3036  2.3315 -1.5666
   11MOL0     H 1481   9.237   9.789   2.612 -0.4084  0.7290 -0.0928
   11MOL0     H 1482   9.500   8.841   2.404 -0.1600  1.3339  1.4904
   11MOL0     H 1483   9.560   8.613   2.405  0.4246 -0.0823  0.7483
   11MOL0     H 1484   9.681   8.612   2.261  1.6832 -2.7657  0.3101
   11MOL0     H 1485   9.730   8.561   2.422  2.1664  0.6762 -1.0711
   12MOL0     O 1486   1.332  11.187   2.897 -0.8451 -0.2313 -0.2848
   12MOL0     C 1487   1.259  11.284   2.900  0.2006  0.3283 -0.2744
   12MOL0     O 1488   1.302  11.412   2.936  0.0940 -0.2724  0.7347
   12MOL0     C 1489   1.432  11.434   2.984 -0.0896  0.1232 -0.7049
   12MOL0     C 1490   1.549  11.376   2.924  0.2784 -0.1960  0.7687
   12MOL0     C 1491   1.667  11.387   2.991  0.0564  0.3068 -0.0411
   12MOL0     C 1492   1.681  11.478   3.096  0.3498 -0.1938  0.4332
   12MOL0     O 1493   1.792  11.519   3.160 -0.5957  0.0668 -0.2678
   12MOL0     C 1494   1.920  11.519   3.088  0.6665  0.1850  0.2253
   12MOL0     C 1495   2.028  11.615   3.149  0.0149  0.4291 -0.3279
   12MOL0     C 1496   2.139  11.638   3.048  0.4816 -0.4635  0.1908
   12MOL0     C 1497   2.216  11.512   2.997 -0.7229  0.3141  0.3125
   12MOL0     C 1498   2.322  11.559   2.895 -0.5224 -0.1864  0.1588
   12MOL0     C 1499   2.414  11.444   2.853  0.6335  0.5780  0.0793
   12MOL0     C 1500   2.505  11.491   2.740  0.2378 -0.1180 -0.8245
   12MOL0     C 1501   2.609  11.382   2.725 -0.1301  0.4807  0.5063
   12MOL0     N 1502   2.717  11.425   2.629  0.2631 -0.0457  0.0481
   12MOL0     C 1503   2.702  11.513   2.523 -0.1539  0.0658  0.3241
   12MOL0     C 1504   2.809  11.470   2.437  0.1927  0.0210 -0.9399
   12MOL0     C 1505   2.845  11.528   2.312 -1.0255 -0.5248 -0.0685
   12MOL0     C 1506   2.784  11.464   2.182  0.8147  0.8055  0.2282
   12MOL0     C 1507   2.855  11.326   2.145  1.1638 -0.4195 -0.1901
   12MOL0     C 1508   2.999  11.343   2.100  0.5845  0.0996 -0.1851
   12MOL0     O 1509   3.095  11.323   2.204  0.5414 -0.6213 -0.1313
   12MOL0     C 1510   3.229  11.302   2.186 -0.1370 -0.3876 -0.2819
   12MOL0     C 1511   3.305  11.263   2.297 -0.0468 -0.9848 -0.1828
   12MOL0     C 1512   3.445  11.239   2.279 -0.1342 -1.2570 -0.6878
   12MOL0     C 1513   3.503  11.272   2.159 -0.9930 -0.8581  0.2521
   12MOL0     C 1514   3.653  11.266   2.137 -0.1434 -0.3771  0.2164
   12MOL0     O 1515   3.697  11.305   2.007 -0.2175 -0.4767 -0.3159
   12MOL0     C 1516   3.836  11.298   1.996  0.3045 -0.3088 -0.8034
   12MOL0     C 1517   3.913  11.421   1.997  0.1230  0.1792  0.2850
   12MOL0     C 1518   4.043  11.429   1.962  0.2660  0.0343  0.1480
   12MOL0     C 1519   4.103  11.307   1.922 -0.9215  0.8239 -0.3528
   12MOL0     O 1520   4.237  11.297   1.869  0.2408 -0.2372  0.6663
   12MOL0     C 1521   4.290  11.416   1.805 -0.4697  0.1663 -0.5342
   12MOL0     C 1522   4.436  11.395   1.772  0.0141 -0.9388  0.3999
   12MOL0     C 1523   4.459  11.265   1.682  0.0145  0.4254  0.0483
   12MOL0     C 1524   4.611  11.253   1.673 -0.1040  0.4082  0.7356
   12MOL0     C 1525   4.672  11.132   1.604 -1.1571  0.4013 -0.4560
   12MOL0     C 1526   4.657  10.995   1.693 -0.3981 -0.3377 -0.3549
   12MOL0     C 1527   4.755  10.877   1.649  0.3281  0.0642 -0.0570
   12MOL0     C 1528   4.910  10.904   1.681 -0.4800  0.5636  0.3833
   12MOL0    Cl 1529   4.933  10.994   1.831 -0.7362 -0.2698  0.0043
   12MOL0     C 1530   4.026  11.192   1.907 -0.2202 -0.2721  0.0609
   12MOL0     C 1531   3.901  11.179   1.955  0.6153  0.4249  0.0540
   12MOL0     O 1532   3.731  11.242   2.230  0.7207 -0.0258 -0.3486
   12MOL0     C 1533   3.423  11.324   2.053 -0.7006  0.2586 -0.4378
   12MOL0     C 1534   3.286  11.335   2.066  0.5396  0.2889  0.5919
   12MOL0     N 1535   2.880  11.361   2.497  0.3200 -0.4861  0.5531
   12MOL0     N 1536   2.810  11.336   2.602 -0.7115 -0.2295 -0.5918
   12MOL0     C 1537   1.569  11.549   3.145  0.2077 -0.4536  0.3816
   12MOL0     C 1538   1.444  11.519   3.094  0.9023  1.0327 -0.6889
   12MOL0     C 1539   1.110  11.270   2.872  0.0888  0.0972 -0.3716
   12MOL0     C 1540   1.025  11.375   2.900 -0.9758  0.4000  0.4697
   12MOL0     C 1541   0.886  11.355   2.897 -0.3606 -1.0153 -0.1461
   12MOL0     C 1542   0.823  11.236   2.864 -0.1206 -0.0941  0.3021
   12MOL0     O 1543   0.688  11.215   2.867  0.1622  0.3662  0.8458
   12MOL0     C 1544   0.603  11.293   2.954 -0.1167  1.5955  0.3317
   12MOL0     C 1545   0.462  11.229   2.953  0.7738  0.3521  0.8242
   12MOL0     C 1546   0.366  11.333   3.015  0.7838  0.0213 -0.4172
   12MOL0     C 1547   0.331  11.451   2.923  0.3414 -0.5095  0.3830
   12MOL0     C 1548   0.254  11.556   2.986  0.2802  0.5470  0.6399
   12MOL0     C 1549   0.182  11.644   3.034  0.4455 -0.4828  0.6304
   12MOL0     C 1550   0.912  11.142   2.805  0.2298 -0.4134 -0.0806
   12MOL0     C 1551   1.057  11.149   2.817  0.7101  0.4767  0.1469
   12MOL0     C 1552   1.129  11.020   2.766 -0.2176 -0.1794  0.2025
   12MOL0     H 1553   1.533  11.308   2.841  1.3180 -0.4180  0.7444
   12MOL0     H 1554   1.752  11.330   2.954 -2.3575 -2.7118 -1.4512
   12MOL0     H 1555   1.968  11.420   3.080  1.2991  0.4570  0.5616
   12MOL0     H 1556   1.896  11.554   2.987 -0.4572  1.5507  0.9411
   12MOL0     H 1557   2.074  11.571   3.238  0.6238 -1.7231 -1.6524
   12MOL0     H 1558   1.972  11.706   3.173 -0.2956  1.7741 -5.0901
   12MOL0     H 1559   2.216  11.701   3.094 -0.8844  1.3042  0.1722
   12MOL0     H 1560   2.101  11.700   2.967  1.2890 -1.0734 -0.6603
   12MOL0     H 1561   2.274  11.474   3.081  1.1520  2.3444  0.0450
   12MOL0     H 1562   2.140  11.447   2.953 -2.7458  2.8498 -0.2612
   12MOL0     H 1563   2.272  11.607   2.811 -1.1121  0.2588  0.7484
   12MOL0     H 1564   2.394  11.634   2.928  1.1461 -1.1152 -1.1993
   12MOL0     H 1565   2.472  11.409   2.939  2.5114  0.2376 -1.2666
   12MOL0     H 1566   2.353  11.358   2.826  0.4749  0.0466  2.0011
   12MOL0     H 1567   2.563  11.582   2.761 -0.3105 -0.0236  0.3217
   12MOL0     H 1568   2.446  11.504   2.649  0.0133  0.4982 -0.5975
   12MOL0     H 1569   2.663  11.374   2.820 -0.6218 -1.9314  0.6465
   12MOL0     H 1570   2.572  11.281   2.703  1.3854 -0.4531  1.9438
   12MOL0     H 1571   2.634  11.597   2.513  1.0756  1.0666  0.1753
   12MOL0     H 1572   2.805  11.630   2.316 -0.6389 -0.4165  1.3193
   12MOL0     H 1573   2.954  11.536   2.307 -0.7680 -2.4783  1.1749
   12MOL0     H 1574   2.678  11.443   2.197  1.2884 -2.4073 -0.3111
   12MOL0     H 1575   2.801  11.539   2.104 -0.0670  1.9511  1.0902
   12MOL0     H 1576   2.789  11.282   2.070 -0.5570  1.8968 -0.1374
   12MOL0     H 1577   2.858  11.265   2.236  2.4094 -1.3417 -0.8255
   12MOL0     H 1578   3.010  11.444   2.062  1.7633  0.3600  0.7639
   12MOL0     H 1579   3.032  11.277   2.019  2.3110  0.7222 -0.0383
   12MOL0     H 1580   3.262  11.217   2.385  1.1636  1.4247  1.7838
   12MOL0     H 1581   3.513  11.191   2.349 -0.9874 -1.2693  0.1569
   12MOL0     H 1582   3.867  11.517   2.014  2.2723  1.7219 -1.9632
   12MOL0     H 1583   4.091  11.526   1.952  0.8267  0.0037  2.0708
   12MOL0     H 1584   4.235  11.435   1.712 -0.3239 -0.1414 -0.6860
   12MOL0     H 1585   4.284  11.500   1.874  0.7831  1.5572 -2.0642
   12MOL0     H 1586   4.488  11.486   1.740 -3.2826  2.1147  2.9741
   12MOL0     H 1587   4.478  11.371   1.870 -1.9698  1.2837  1.8985
   12MOL0     H 1588   4.424  11.174   1.731 -0.5684  0.7508  0.2481
   12MOL0     H 1589   4.408  11.268   1.585 -0.5743  0.8555  0.3626
   12MOL0     H 1590   4.658  11.254   1.772  1.4811  0.8622  0.0184
   12MOL0     H 1591   4.640  11.348   1.627 -0.8529  0.4436  0.3249
   12MOL0     H 1592   4.778  11.139   1.578 -0.8942 -1.4541 -0.0583
   12MOL0     H 1593   4.636  11.114   1.502  1.0489 -0.2897 -1.1802
   12MOL0     H 1594   4.680  11.022   1.796  0.2752 -0.0493 -0.5716
   12MOL0     H 1595   4.554  10.962   1.674  0.0847 -0.2573 -3.8462
   12MOL0     H 1596   4.755  10.857   1.542 -1.5856  0.8071 -0.2308
   12MOL0     H 1597   4.722  10.793   1.712  0.6753  0.5132  0.7464
   12MOL0     H 1598   4.966  10.811   1.685 -2.8067 -0.8770  1.7862
   12MOL0     H 1599   4.945  10.966   1.598  0.0298  0.8517  0.8120
   12MOL0     H 1600   4.081  11.112   1.858  2.4323  1.5566 -0.1135
   12MOL0     H 1601   3.843  11.090   1.934  1.5001 -0.5640  1.6128
   12MOL0     H 1602   3.471  11.354   1.960  0.4114  0.4033  0.1691
   12MOL0     H 1603   3.236  11.373   1.978  0.2843 -0.2185  0.5162
   12MOL0     H 1604   1.586  11.622   3.223  1.2010  0.6615 -0.8425
   12MOL0     H 1605   1.355  11.572   3.127  1.3017  2.1926 -1.4123
   12MOL0     H 1606   1.062  11.471   2.936 -0.9383  0.9778 -1.0374
   12MOL0     H 1607   0.825  11.443   2.917  2.3589  0.7264  1.1843
   12MOL0     H 1608   0.600  11.389   2.901  0.5988  1.9250  0.8733
   12MOL0     H 1609   0.639  11.296   3.057 -0.4443  0.4263  0.4882
   12MOL0     H 1610   0.463  11.132   3.003 -0.6976 -0.9093 -1.4421
   12MOL0     H 1611   0.435  11.220   2.847  1.2891 -0.8630  0.7829
   12MOL0     H 1612   0.415  11.368   3.106  0.4792  1.1542 -0.6748
   12MOL0     H 1613   0.272  11.282   3.038  0.6863  1.2595  2.3951
   12MOL0     H 1614   0.430  11.486   2.892 -0.5689 -0.2313 -2.5025
   12MOL0     H 1615   0.286  11.422   2.827  2.8744  0.1682 -1.1109
   12MOL0     H 1616   0.125  11.725   3.074  2.8942  1.0620  1.2371
   12MOL0     H 1617   0.860  11.066   2.749  1.5960  0.1403 -2.2087
   12MOL0     H 1618   1.064  10.954   2.709 -1.8559  2.3466 -1.0356
   12MOL0     H 1619   1.206  11.060   2.698  1.4793  1.1166  2.7290
   12MOL0     H 1620   1.173  10.979   2.857  1.5784 -1.0447 -0.9954
   13MOL0     O 1621   9.927   0.837   4.670 -0.4091  0.7420  0.7010
   13MOL0     C 1622   9.871   0.919   4.740 -0.3746 -0.2590  0.2970
   13MOL0     O 1623   9.918   1.046   4.768 -0.1619 -0.1734  0.0831
   13MOL0     C 1624  10.055   1.074   4.780  0.7169  0.3255 -0.0279
   13MOL0     C 1625  10.093   1.196   4.741 -0.9006 -0.3751 -0.3521
   13MOL0     C 1626  10.224   1.241   4.760 -0.1002  0.2389 -0.0964
   13MOL0     C 1627  10.325   1.153   4.818 -0.6176  0.3368  1.2438
   13MOL0     O 1628  10.456   1.174   4.837 -0.1837 -0.2084  0.1223
   13MOL0     C 1629  10.519   1.277   4.751 -0.9376 -0.9962 -0.7897
   13MOL0     C 1630  10.679   1.270   4.742  0.1614  0.2033 -0.0249
   13MOL0     C 1631  10.740   1.232   4.873 -0.0282  0.2334  0.4893
   13MOL0     C 1632  10.895   1.244   4.872 -0.1852 -0.4072 -0.3112
   13MOL0     C 1633  10.964   1.197   5.004 -0.2196  0.0316  0.0501
   13MOL0     C 1634  11.109   1.163   4.976  0.8102  0.2345 -0.0568
   13MOL0     C 1635  11.197   1.267   4.908  0.2797 -0.7949 -0.2209
   13MOL0     C 1636  11.207   1.414   4.978  0.0822  0.7056  0.2493
   13MOL0     N 1637  11.282   1.399   5.107  0.5033  0.1332  0.2047
   13MOL0     C 1638  11.411   1.419   5.128  0.5453 -0.1390 -0.5808
   13MOL0     C 1639  11.423   1.419   5.265 -0.0161 -0.1230  0.0323
   13MOL0     C 1640  11.548   1.475   5.342 -0.2646  0.1584  0.8487
   13MOL0     C 1641  11.653   1.368   5.356 -0.7890 -0.8445  0.5226
   13MOL0     C 1642  11.783   1.421   5.431 -0.7831  0.2489 -0.2766
   13MOL0     C 1643  11.908   1.344   5.381  0.1951 -0.0033 -0.8135
   13MOL0     O 1644  12.029   1.423   5.369 -1.0685 -0.9724  0.3263
   13MOL0     C 1645  12.129   1.435   5.467  0.5808  1.1486  0.5047
   13MOL0     C 1646  12.160   1.553   5.528  0.1047  0.4386  0.0438
   13MOL0     C 1647  12.261   1.565   5.625  0.3644 -0.1766  0.7248
   13MOL0     C 1648  12.333   1.452   5.658 -0.3152  0.5273  0.6551
   13MOL0     C 1649  12.443   1.460   5.754 -0.5414  0.0893  0.0382
   13MOL0     O 1650  12.522   1.348   5.758  0.1958 -0.8286  0.0317
   13MOL0     C 1651  12.626   1.351   5.852 -0.4018  1.0950 -0.0707
   13MOL0     C 1652  12.761   1.359   5.810  0.6054  0.5381  0.0737
   13MOL0     C 1653  12.865   1.366   5.902  0.6086  0.9931  0.3100
   13MOL0     C 1654  12.838   1.359   6.038  0.0398 -0.8178 -0.3969
   13MOL0     O 1655  12.941   1.374   6.128  0.1725  0.3672 -0.6109
   13MOL0     C 1656  13.077   1.404   6.080  0.3841  1.1651 -0.1980
   13MOL0     C 1657  13.181   1.423   6.199 -1.0293  0.6084 -0.1609
   13MOL0     C 1658  13.314   1.487   6.144  0.2474 -0.1889  0.4710
   13MOL0     C 1659  13.407   1.521   6.258 -0.1697 -0.0380 -0.0807
   13MOL0     C 1660  13.544   1.559   6.217 -0.3522 -0.3661 -0.2593
   13MOL0     C 1661  13.626   1.624   6.314 -0.0044 -0.0053 -0.3307
   13MOL0     C 1662  13.753   1.666   6.259 -0.3205 -0.5072 -0.3009
   13MOL0     C 1663  13.875   1.610   6.334 -0.6060 -0.6088 -0.2979
   13MOL0    Cl 1664  14.034   1.667   6.277 -0.0638 -0.0402 -0.0093
   13MOL0     C 1665  12.706   1.343   6.080 -0.2841 -0.6278 -0.0906
   13MOL0     C 1666  12.602   1.324   5.986  0.5212 -0.3911 -1.3656
   13MOL0     O 1667  12.466   1.565   5.820 -0.2529  0.8332  0.0688
   13MOL0     C 1668  12.295   1.331   5.607 -0.5435 -0.0386 -0.1588
   13MOL0     C 1669  12.198   1.319   5.511  0.2468 -1.7664  0.7533
   13MOL0     N 1670  11.295   1.394   5.320  0.6183 -0.2712 -0.0029
   13MOL0     N 1671  11.217   1.367   5.219 -0.2589 -0.4157 -0.2052
   13MOL0     C 1672  10.282   1.029   4.871 -0.3754  0.8356 -0.8721
   13MOL0     C 1673  10.146   0.989   4.842  0.1738 -0.1627 -0.3402
   13MOL0     C 1674   9.729   0.894   4.771  0.0931 -0.0168  0.4931
   13MOL0     C 1675   9.669   0.974   4.864  0.2530 -0.0237  0.6759
   13MOL0     C 1676   9.537   0.956   4.908  0.1919 -0.2540  0.9801
   13MOL0     C 1677   9.456   0.860   4.856  0.3409  0.6891 -0.3156
   13MOL0     O 1678   9.334   0.848   4.901  0.0690 -0.1208 -0.6261
   13MOL0     C 1679   9.242   0.751   4.850 -0.8172 -0.5574  0.6443
   13MOL0     C 1680   9.121   0.756   4.942 -0.0167 -0.4960  0.4838
   13MOL0     C 1681   9.029   0.639   4.903  0.0946 -0.0569  0.2922
   13MOL0     C 1682   8.891   0.645   4.978 -0.0118  0.1204  0.6550
   13MOL0     C 1683   8.809   0.525   4.948 -0.6130 -0.4468  0.0185
   13MOL0     C 1684   8.760   0.421   4.922 -0.6205  0.1574  0.1206
   13MOL0     C 1685   9.511   0.786   4.751  0.3455 -0.9863  0.2167
   13MOL0     C 1686   9.642   0.803   4.701 -0.1600  0.3654  0.8584
   13MOL0     C 1687   9.688   0.716   4.581  0.9311 -0.1834 -0.0144
   13MOL0     H 1688  10.016   1.253   4.690 -1.0677  1.0941  1.4592
   13MOL0     H 1689  10.252   1.344   4.740  0.6934  0.3507  1.4544
   13MOL0     H 1690  10.478   1.285   4.650  1.0405  3.1957 -1.4684
   13MOL0     H 1691  10.496   1.367   4.808  0.2738 -0.8045 -0.5748
   13MOL0     H 1692  10.714   1.368   4.709  0.0614 -0.9986 -4.2437
   13MOL0     H 1693  10.708   1.190   4.673 -0.6868 -0.6116  0.5315
   13MOL0     H 1694  10.728   1.128   4.903 -1.6689  1.2642  3.9519
   13MOL0     H 1695  10.697   1.289   4.957 -2.0006 -2.6826  1.6272
   13MOL0     H 1696  10.930   1.185   4.787  1.5497  0.7910 -0.4872
   13MOL0     H 1697  10.916   1.350   4.861 -0.4704 -0.0141  2.3310
   13MOL0     H 1698  10.951   1.271   5.083 -0.3760  2.0058 -1.7253
   13MOL0     H 1699  10.909   1.108   5.036 -1.7265  1.3919  1.4231
   13MOL0     H 1700  11.151   1.118   5.066 -3.8358 -1.5458  1.4965
   13MOL0     H 1701  11.079   1.078   4.914 -3.3666 -0.8139  3.0090
   13MOL0     H 1702  11.153   1.280   4.809 -3.4957 -0.2092  1.3747
   13MOL0     H 1703  11.302   1.238   4.915  0.9920  0.9090 -2.5498
   13MOL0     H 1704  11.258   1.484   4.912 -0.7530  3.7032  2.5469
   13MOL0     H 1705  11.110   1.453   5.011 -0.7261 -0.8043 -0.2183
   13MOL0     H 1706  11.490   1.424   5.053 -1.0194  0.5210 -2.2719
   13MOL0     H 1707  11.580   1.557   5.277 -2.2117 -2.2690 -3.6147
   13MOL0     H 1708  11.527   1.525   5.437  1.6870  2.1114  0.3385
   13MOL0     H 1709  11.616   1.289   5.422 -2.8280 -0.3842 -0.0088
   13MOL0     H 1710  11.673   1.327   5.257  0.1987  1.7321 -0.4249
   13MOL0     H 1711  11.773   1.401   5.538 -1.0436  0.9713 -0.1637
   13MOL0     H 1712  11.795   1.526   5.404  1.0474 -0.4816 -2.7931
   13MOL0     H 1713  11.886   1.314   5.278  1.1674  1.0829 -1.3587
   13MOL0     H 1714  11.911   1.246   5.429 -0.9287  0.1181 -0.4671
   13MOL0     H 1715  12.110   1.643   5.492  0.0761  1.1487  1.7681
   13MOL0     H 1716  12.287   1.660   5.669 -0.2956 -0.2224  1.2179
   13MOL0     H 1717  12.782   1.375   5.704  1.8446  2.8523  0.5862
   13MOL0     H 1718  12.968   1.378   5.871  1.3699 -1.1999  1.7405
   13MOL0     H 1719  13.113   1.318   6.024 -1.6943 -0.1267  0.3647
   13MOL0     H 1720  13.074   1.500   6.026 -2.5714  1.0639 -0.3678
   13MOL0     H 1721  13.139   1.490   6.274  0.0495  0.6622  0.4083
   13MOL0     H 1722  13.216   1.330   6.246 -1.6006  1.1558  1.3969
   13MOL0     H 1723  13.359   1.405   6.087  1.2299  0.4091  0.3704
   13MOL0     H 1724  13.293   1.576   6.086  1.4320 -1.0435 -1.3511
   13MOL0     H 1725  13.421   1.438   6.329 -0.1047  0.9915  1.1484
   13MOL0     H 1726  13.357   1.593   6.323 -0.3146 -2.5744  2.8549
   13MOL0     H 1727  13.536   1.621   6.128 -3.6104 -2.8529 -1.8835
   13MOL0     H 1728  13.592   1.468   6.179 -0.0947 -0.4679  0.2993
   13MOL0     H 1729  13.572   1.713   6.348  0.5624 -0.0055  0.5940
   13MOL0     H 1730  13.631   1.559   6.401 -1.0900  2.5163  1.7715
   13MOL0     H 1731  13.762   1.774   6.273  2.4905 -0.7954  0.8415
   13MOL0     H 1732  13.765   1.630   6.156  1.4587 -0.9850  0.0238
   13MOL0     H 1733  13.872   1.636   6.440 -0.4919  0.6393 -0.5813
   13MOL0     H 1734  13.872   1.501   6.332  2.6439 -0.8325  0.8134
   13MOL0     H 1735  12.676   1.354   6.184 -1.2643  0.7119 -0.5051
   13MOL0     H 1736  12.503   1.305   6.029  0.1828 -0.6470 -2.2425
   13MOL0     H 1737  12.357   1.243   5.623 -0.3593  0.1122 -0.0267
   13MOL0     H 1738  12.164   1.223   5.473 -3.6783  0.3887 -1.9734
   13MOL0     H 1739  10.346   0.959   4.925 -2.4905  0.1825  0.9231
   13MOL0     H 1740  10.107   0.898   4.886  1.5180 -0.4796  0.2196
   13MOL0     H 1741   9.724   1.052   4.916  0.2696 -0.9028  2.0369
   13MOL0     H 1742   9.490   1.022   4.980 -1.5077  1.7013 -1.6985
   13MOL0     H 1743   9.280   0.649   4.856 -0.5887 -0.5156 -0.0424
   13MOL0     H 1744   9.215   0.770   4.746 -2.6318  1.1437  1.3641
   13MOL0     H 1745   9.067   0.848   4.921  1.4804 -0.0628 -1.7433
   13MOL0     H 1746   9.152   0.756   5.047 -1.7263 -0.8310  1.0185
   13MOL0     H 1747   9.079   0.543   4.913 -1.7880 -1.5734 -3.2281
   13MOL0     H 1748   9.003   0.645   4.797 -1.3647 -3.0406  0.3935
   13MOL0     H 1749   8.910   0.655   5.085 -0.2972  1.2883  0.6110
   13MOL0     H 1750   8.824   0.726   4.948 -2.6566 -1.0076  3.0713
   13MOL0     H 1751   8.705   0.332   4.900  1.4422 -1.6093  1.7779
   13MOL0     H 1752   9.453   0.704   4.711 -2.7178  1.0967  0.0957
   13MOL0     H 1753   9.751   0.629   4.598  0.3639 -0.4425  0.8078
   13MOL0     H 1754   9.593   0.675   4.544 -0.6672  0.8230  2.6312
   13MOL0     H 1755   9.734   0.777   4.502 -1.4659  0.0103 -1.3703
   14MOL0     O 1756   4.280  10.108   0.988 -0.4605 -0.3769 -0.2854
   14MOL0     C 1757   4.319  10.014   1.061  0.1032  0.1872  0.1722
   14MOL0     O 1758   4.245   9.944   1.161  0.4280 -0.0021  0.0798
   14MOL0     C 1759   4.108   9.956   1.154 -0.4655  0.1149 -0.5046
   14MOL0     C 1760   4.037   9.908   1.038  0.6046 -0.8871  0.6552
   14MOL0     C 1761   3.903   9.902   1.040 -0.6198  0.3259  0.6564
   14MOL0     C 1762   3.823   9.919   1.150 -0.4121  0.7497 -0.1265
   14MOL0     O 1763   3.692   9.902   1.139 -0.5295  0.3863 -0.9301
   14MOL0     C 1764   3.601   9.958   1.232  0.6129  0.3733  0.8363
   14MOL0     C 1765   3.525   9.836   1.300  0.4166  0.1697  0.9779
   14MOL0     C 1766   3.421   9.881   1.399 -0.5872 -0.5351 -0.3473
   14MOL0     C 1767   3.312   9.782   1.423 -0.2253 -0.0457 -0.8343
   14MOL0     C 1768   3.221   9.827   1.531  0.0657 -0.1302  0.1462
   14MOL0     C 1769   3.137   9.709   1.581 -1.2774 -0.2572 -0.4481
   14MOL0     C 1770   2.990   9.732   1.630 -0.8799 -0.3332 -0.1753
   14MOL0     C 1771   2.969   9.806   1.762  0.2895  0.8069 -0.0945
   14MOL0     N 1772   3.050   9.926   1.770  0.7871  0.8990 -0.0410
   14MOL0     C 1773   3.151   9.949   1.856  0.0349 -0.7828 -0.3978
   14MOL0     C 1774   3.181  10.084   1.834 -0.1150 -0.0265  0.0159
   14MOL0     C 1775   3.299  10.160   1.886  0.5727 -1.0815  0.5629
   14MOL0     C 1776   3.433  10.112   1.828 -0.0187  0.9609  0.9041
   14MOL0     C 1777   3.547  10.207   1.878  0.7287  0.7648 -0.1634
   14MOL0     C 1778   3.686  10.156   1.858 -0.2971 -0.1869  0.4937
   14MOL0     O 1779   3.772  10.267   1.864  0.4290  0.4833  0.1129
   14MOL0     C 1780   3.909  10.261   1.852 -0.5156 -1.0713  0.2933
   14MOL0     C 1781   3.968  10.390   1.856  0.6828  0.1816  1.0035
   14MOL0     C 1782   4.107  10.392   1.825  0.0546 -0.7486 -0.0721
   14MOL0     C 1783   4.167  10.283   1.771  0.0887 -0.5168  0.9376
   14MOL0     C 1784   4.312  10.291   1.727  0.2092  0.3185  0.1344
   14MOL0     O 1785   4.350  10.203   1.630 -0.6384 -0.1871 -0.6173
   14MOL0     C 1786   4.487  10.199   1.605 -0.1052 -0.1912 -0.1441
   14MOL0     C 1787   4.569  10.308   1.563  0.0147 -0.2005 -1.3581
   14MOL0     C 1788   4.706  10.286   1.524  0.4878 -0.1768 -0.4965
   14MOL0     C 1789   4.750  10.155   1.529  0.0495  0.3261  0.1415
   14MOL0     O 1790   4.878  10.112   1.503 -0.2051  0.6852 -0.4301
   14MOL0     C 1791   4.920  10.154   1.375 -0.0153 -1.2247 -0.4039
   14MOL0     C 1792   5.030  10.063   1.331 -0.0921  0.5571 -0.3543
   14MOL0     C 1793   5.149  10.077   1.432  0.2260  0.0088 -0.4729
   14MOL0     C 1794   5.275  10.012   1.370  0.7577 -0.4720 -0.8060
   14MOL0     C 1795   5.363   9.933   1.471  0.0822 -0.5327  0.2275
   14MOL0     C 1796   5.296   9.804   1.523 -0.8949  0.4091 -0.6050
   14MOL0     C 1797   5.380   9.743   1.637  0.0519 -0.4773  0.6888
   14MOL0     C 1798   5.367   9.590   1.645  0.0830  0.2301  0.3586
   14MOL0    Cl 1799   5.196   9.538   1.687 -0.2109 -0.0177  0.1206
   14MOL0     C 1800   4.671  10.047   1.568 -0.4795  0.1215  0.9048
   14MOL0     C 1801   4.539  10.067   1.595 -0.4420  0.4195 -0.1375
   14MOL0     O 1802   4.381  10.380   1.772  0.3097 -0.0248 -1.0691
   14MOL0     C 1803   4.099  10.159   1.761 -0.3699 -1.0920  0.5765
   14MOL0     C 1804   3.972  10.144   1.809 -0.5968  0.5108 -1.2567
   14MOL0     N 1805   3.095  10.132   1.745 -0.2288  0.1446  0.8958
   14MOL0     N 1806   3.014  10.037   1.698  0.3759  0.7696 -0.0973
   14MOL0     C 1807   3.891   9.960   1.263  0.1497 -0.1607 -0.3452
   14MOL0     C 1808   4.033   9.980   1.268 -0.0984 -0.9535  0.4083
   14MOL0     C 1809   4.468   9.983   1.054 -0.2816  0.5634  0.2563
   14MOL0     C 1810   4.528   9.925   1.166  0.3798 -0.9056 -0.2109
   14MOL0     C 1811   4.662   9.897   1.167 -0.2743 -0.0228  0.1568
   14MOL0     C 1812   4.741   9.904   1.051  0.2048 -0.2683 -0.0037
   14MOL0     O 1813   4.871   9.868   1.065  0.6373  0.2302 -0.1278
   14MOL0     C 1814   4.963   9.892   0.958 -0.6128 -0.0280  0.0708
   14MOL0     C 1815   5.099   9.837   1.003 -0.0899 -0.2503 -0.5716
   14MOL0     C 1816   5.186   9.851   0.888 -0.3117  0.1813  0.3145
   14MOL0     C 1817   5.328   9.797   0.909  0.4310 -0.3130 -0.5731
   14MOL0     C 1818   5.335   9.653   0.904 -0.8363 -0.0476  0.5977
   14MOL0     C 1819   5.372   9.535   0.890 -0.4427  0.2257 -0.5984
   14MOL0     C 1820   4.678   9.967   0.943  0.4125  1.0764  0.6401
   14MOL0     C 1821   4.545  10.002   0.936  0.6745  0.6459 -1.0818
   14MOL0     C 1822   4.491  10.042   0.805 -0.3595 -0.0084 -0.1252
   14MOL0     H 1823   4.079   9.894   0.939  0.1555 -1.1011  0.4908
   14MOL0     H 1824   3.851   9.879   0.947  2.2044  0.0184 -0.9871
   14MOL0     H 1825   3.649  10.027   1.302 -1.7600  2.1250  0.8479
   14MOL0     H 1826   3.527  10.011   1.171  3.0188  0.2707 -2.4643
   14MOL0     H 1827   3.586   9.760   1.351 -0.8065  0.6480  3.2475
   14MOL0     H 1828   3.471   9.779   1.224 -1.8088  1.2803  1.6522
   14MOL0     H 1829   3.369   9.966   1.352 -0.3582 -1.4262 -2.3138
   14MOL0     H 1830   3.469   9.910   1.493  0.6714 -1.0672 -0.8000
   14MOL0     H 1831   3.256   9.764   1.331 -1.7429 -0.1295  0.0685
   14MOL0     H 1832   3.366   9.690   1.447 -2.1235 -1.5318 -1.9564
   14MOL0     H 1833   3.286   9.852   1.616  3.0911 -0.5353 -1.9019
   14MOL0     H 1834   3.158   9.909   1.493  0.1722 -0.6698 -1.2070
   14MOL0     H 1835   3.119   9.637   1.502 -0.4893 -0.1043 -0.7695
   14MOL0     H 1836   3.189   9.654   1.661  0.2024  0.0556 -1.1604
   14MOL0     H 1837   2.943   9.635   1.650 -1.2976  0.0557  0.7998
   14MOL0     H 1838   2.942   9.787   1.549  1.1420  0.5645 -0.8217
   14MOL0     H 1839   2.867   9.846   1.767 -0.3328 -0.7348  0.2208
   14MOL0     H 1840   2.980   9.737   1.846  0.5886 -1.6744 -2.0571
   14MOL0     H 1841   3.193   9.881   1.929  0.9549  0.3223  0.1362
   14MOL0     H 1842   3.277  10.262   1.854  0.9889 -1.3476 -0.6446
   14MOL0     H 1843   3.311  10.159   1.994  1.9963 -1.6278  0.4125
   14MOL0     H 1844   3.446  10.005   1.845 -3.0708  0.2893 -0.3194
   14MOL0     H 1845   3.427  10.123   1.720  1.7945  2.4017  0.8899
   14MOL0     H 1846   3.533  10.216   1.986  1.3429  2.0124 -0.1736
   14MOL0     H 1847   3.529  10.302   1.826 -1.4965 -0.0052 -0.9380
   14MOL0     H 1848   3.690  10.116   1.756  1.5514 -3.0129  1.5530
   14MOL0     H 1849   3.704  10.072   1.925  2.5633 -1.1150 -1.2557
   14MOL0     H 1850   3.904  10.471   1.889  0.0448  0.1074 -0.0000
   14MOL0     H 1851   4.156  10.489   1.832  0.6937 -0.9368 -1.5510
   14MOL0     H 1852   4.529  10.409   1.560 -1.3145 -0.6562 -0.0696
   14MOL0     H 1853   4.774  10.363   1.490 -0.3321  0.6997 -0.2070
   14MOL0     H 1854   4.835  10.163   1.307 -0.5461  2.0768  0.5105
   14MOL0     H 1855   4.955  10.258   1.388 -1.4425 -0.9250  1.4321
   14MOL0     H 1856   4.996   9.959   1.331  2.2292 -0.2779  1.0666
   14MOL0     H 1857   5.062  10.089   1.229  0.1026 -4.2659 -1.7635
   14MOL0     H 1858   5.163  10.179   1.467  0.1380 -0.2301  0.2886
   14MOL0     H 1859   5.104  10.024   1.517  1.0542  1.1681  0.7193
   14MOL0     H 1860   5.330  10.091   1.317 -1.5137  1.3415 -0.6084
   14MOL0     H 1861   5.242   9.938   1.297 -0.2168 -1.8094  0.9045
   14MOL0     H 1862   5.402  10.000   1.547 -0.4832  0.0935 -0.0177
   14MOL0     H 1863   5.453   9.906   1.415  0.6868  1.8722 -0.0963
   14MOL0     H 1864   5.195   9.821   1.561 -0.3047 -0.4211  1.4907
   14MOL0     H 1865   5.287   9.725   1.448 -2.1887  0.2356 -0.2894
   14MOL0     H 1866   5.342   9.789   1.729 -3.8404 -2.0768  0.0920
   14MOL0     H 1867   5.487   9.764   1.634  0.1713 -1.1606 -0.3493
   14MOL0     H 1868   5.390   9.548   1.547  1.7416  0.0331  0.7981
   14MOL0     H 1869   5.437   9.556   1.722 -0.2071  2.2034  1.5693
   14MOL0     H 1870   4.712   9.947   1.569  2.4041  1.0867 -2.4096
   14MOL0     H 1871   4.477   9.982   1.620  0.5428 -0.4553 -0.5847
   14MOL0     H 1872   4.140  10.063   1.732 -2.2594 -2.1522  1.2146
   14MOL0     H 1873   3.915  10.052   1.805 -1.5604  1.0948 -1.2668
   14MOL0     H 1874   3.830   9.966   1.352 -2.3047 -2.4450 -1.7081
   14MOL0     H 1875   4.084  10.023   1.354 -0.5183  3.4378 -1.2532
   14MOL0     H 1876   4.473   9.914   1.259  0.8744 -1.0510  0.0648
   14MOL0     H 1877   4.708   9.843   1.249  0.0778 -0.2457 -0.1787
   14MOL0     H 1878   4.969   9.996   0.927  3.0064 -0.5909 -1.6149
   14MOL0     H 1879   4.936   9.833   0.870 -2.7902  1.1105 -0.1000
   14MOL0     H 1880   5.100   9.732   1.035  0.7523 -0.2137 -0.4280
   14MOL0     H 1881   5.134   9.903   1.083  0.3022 -1.7565  0.5577
   14MOL0     H 1882   5.204   9.958   0.872  0.4965  0.4906  2.8322
   14MOL0     H 1883   5.133   9.806   0.804 -2.0864 -0.6602  1.8159
   14MOL0     H 1884   5.390   9.835   0.828 -1.4790  0.3475 -1.7913
   14MOL0     H 1885   5.369   9.833   1.004 -0.0781  0.2768 -0.5726
   14MOL0     H 1886   5.395   9.430   0.885 -2.0545 -0.0888 -2.1664
   14MOL0     H 1887   4.739   9.984   0.854  2.1713 -2.0202  1.1076
   14MOL0     H 1888   4.462  10.148   0.807 -1.7337 -0.3722  1.4583
   14MOL0     H 1889   4.564  10.025   0.726  2.0615  0.8637  1.8070
   14MOL0     H 1890   4.396   9.989   0.792 -1.3490  1.5912  0.1763
   15MOL0     O 1891   1.893   0.358   5.292  0.0488 -0.7496  0.7468
   15MOL0     C 1892   1.947   0.472   5.283  0.2211  0.7524  0.3134
   15MOL0     O 1893   1.916   0.557   5.189 -0.1522  0.5505  0.9450
   15MOL0     C 1894   1.819   0.524   5.099 -0.1149  0.1850  0.4528
   15MOL0     C 1895   1.682   0.554   5.111 -0.4377  0.9808  0.5446
   15MOL0     C 1896   1.596   0.513   5.003  0.1494  0.7683  0.4111
   15MOL0     C 1897   1.647   0.448   4.889  0.5083 -0.0391  0.5639
   15MOL0     O 1898   1.552   0.405   4.793 -0.4200 -0.2446  0.4409
   15MOL0     C 1899   1.566   0.269   4.738 -0.5141  0.6156 -0.0109
   15MOL0     C 1900   1.470   0.257   4.611 -0.4205  0.6868 -0.8636
   15MOL0     C 1901   1.329   0.222   4.655  0.1699  0.1554  0.2969
   15MOL0     C 1902   1.258   0.131   4.561 -0.3596 -0.1666 -0.0092
   15MOL0     C 1903   1.117   0.120   4.597  0.2913  0.0019 -0.4680
   15MOL0     C 1904   1.046   0.016   4.512  0.2600 -0.1012 -0.0828
   15MOL0     C 1905   0.911  -0.022   4.578  0.2852 -0.6779 -0.3431
   15MOL0     C 1906   0.824  -0.098   4.483  0.3485 -0.0984  0.4180
   15MOL0     N 1907   0.692  -0.133   4.534 -0.4639  0.1115  0.2139
   15MOL0     C 1908   0.574  -0.092   4.468 -0.5130  0.1589 -0.4229
   15MOL0     C 1909   0.485  -0.191   4.500 -0.3111  0.8252 -0.6580
   15MOL0     C 1910   0.339  -0.184   4.453 -0.1589 -0.4184  0.1364
   15MOL0     C 1911   0.234  -0.216   4.561 -0.1776 -0.2380 -0.3820
   15MOL0     C 1912   0.109  -0.255   4.479  0.0457  0.3276  0.0369
   15MOL0     C 1913  -0.014  -0.266   4.565  0.5956  0.1364 -0.4014
   15MOL0     O 1914  -0.115  -0.335   4.482  0.0884 -0.3420  0.0619
   15MOL0     C 1915  -0.229  -0.380   4.537  0.4655 -0.2344  0.4340
   15MOL0     C 1916  -0.276  -0.334   4.665 -0.7468 -1.1433 -0.6047
   15MOL0     C 1917  -0.395  -0.379   4.712  0.6556  0.2657 -0.8922
   15MOL0     C 1918  -0.474  -0.461   4.632  0.1855  0.1960 -0.3244
   15MOL0     C 1919  -0.617  -0.492   4.666  1.1141  0.8319 -0.2267
   15MOL0     O 1920  -0.673  -0.404   4.760 -0.0460  0.1132 -0.5974
   15MOL0     C 1921  -0.802  -0.435   4.800 -0.1290 -0.7238 -0.0519
   15MOL0     C 1922  -0.820  -0.524   4.902  0.4629 -0.3578  0.3596
   15MOL0     C 1923  -0.951  -0.555   4.945 -0.6024  0.4361 -0.3418
   15MOL0     C 1924  -1.060  -0.503   4.882 -0.0641  0.3161 -0.4757
   15MOL0     O 1925  -1.179  -0.535   4.922  0.8118  0.3987  0.3931
   15MOL0     C 1926  -1.209  -0.569   5.062  0.9634  0.3587  0.6792
   15MOL0     C 1927  -1.359  -0.601   5.074  0.3484  0.0369  0.3810
   15MOL0     C 1928  -1.442  -0.472   5.087  0.0491  0.3192  0.4993
   15MOL0     C 1929  -1.592  -0.518   5.059 -1.4817  0.0408 -1.3256
   15MOL0     C 1930  -1.696  -0.429   5.135 -0.1073  0.4292 -0.1191
   15MOL0     C 1931  -1.733  -0.482   5.277 -0.3462 -0.7022 -0.6100
   15MOL0     C 1932  -1.880  -0.552   5.271 -0.6358 -0.1513 -0.0366
   15MOL0     C 1933  -1.902  -0.660   5.372 -0.5228 -0.0074  0.1665
   15MOL0    Cl 1934  -1.794  -0.798   5.340 -0.4520  0.1643  0.3612
   15MOL0     C 1935  -1.036  -0.417   4.768  0.0557 -0.5383  1.6915
   15MOL0     C 1936  -0.905  -0.384   4.728 -0.0117  0.1555  0.2337
   15MOL0     O 1937  -0.676  -0.582   4.614  0.0276  0.0003  0.4735
   15MOL0     C 1938  -0.427  -0.507   4.504  0.0160 -0.1059 -0.0933
   15MOL0     C 1939  -0.304  -0.460   4.450  0.0996  0.8139 -0.9580
   15MOL0     N 1940   0.543  -0.280   4.594 -0.3501 -0.3619  0.2019
   15MOL0     N 1941   0.666  -0.248   4.607 -0.4283  0.0053  0.3809
   15MOL0     C 1942   1.790   0.438   4.874  0.3574 -0.4046 -0.4420
   15MOL0     C 1943   1.866   0.461   4.983 -0.4670  0.2047 -0.8675
   15MOL0     C 1944   2.043   0.506   5.398 -0.1331  0.4901  0.0958
   15MOL0     C 1945   2.129   0.409   5.435 -0.4799  0.2774  0.1490
   15MOL0     C 1946   2.213   0.428   5.540  0.3164  0.1090 -0.0606
   15MOL0     C 1947   2.223   0.544   5.609  1.0317  0.0499 -0.2752
   15MOL0     O 1948   2.303   0.566   5.721 -0.2411  0.3090  0.0176
   15MOL0     C 1949   2.373   0.464   5.796  0.6456  0.1221 -0.3592
   15MOL0     C 1950   2.499   0.416   5.717  0.1151 -1.4176  0.5420
   15MOL0     C 1951   2.639   0.487   5.755 -0.2703 -0.1588 -0.1414
   15MOL0     C 1952   2.684   0.452   5.896  0.9748 -0.0450  0.3194
   15MOL0     C 1953   2.708   0.306   5.909  0.6326  0.1390  0.4405
   15MOL0     C 1954   2.729   0.193   5.902 -0.6950  0.3150 -0.0010
   15MOL0     C 1955   2.137   0.646   5.575 -0.4870 -0.6012  0.4491
   15MOL0     C 1956   2.039   0.631   5.470  0.2929 -0.1902  0.3979
   15MOL0     C 1957   1.932   0.726   5.444 -1.0715  0.7878 -0.1439
   15MOL0     H 1958   1.648   0.598   5.204  0.0873  0.7913  0.8293
   15MOL0     H 1959   1.489   0.525   5.018 -0.0720 -0.5876  0.0750
   15MOL0     H 1960   1.668   0.254   4.704 -0.8284  0.3590 -0.8711
   15MOL0     H 1961   1.551   0.206   4.826  1.2767  2.2215  1.5225
   15MOL0     H 1962   1.502   0.175   4.545 -1.1902 -0.0432 -0.3449
   15MOL0     H 1963   1.471   0.347   4.549  1.5861  1.4006  0.1314
   15MOL0     H 1964   1.263   0.309   4.664 -1.0687 -0.7434  0.2333
   15MOL0     H 1965   1.334   0.173   4.752  2.0697  1.0238  0.6673
   15MOL0     H 1966   1.266   0.172   4.460 -0.6568  0.8675  0.3721
   15MOL0     H 1967   1.305   0.033   4.560 -0.4665 -0.2233  0.3120
   15MOL0     H 1968   1.109   0.090   4.702  3.6010 -0.2547 -0.1784
   15MOL0     H 1969   1.060   0.213   4.583 -1.2544 -0.5849  1.4436
   15MOL0     H 1970   1.024   0.059   4.414 -0.9117  0.8838  0.5909
   15MOL0     H 1971   1.107  -0.072   4.490 -1.1863 -0.9996 -0.5814
   15MOL0     H 1972   0.855   0.070   4.596  0.3082 -0.4792 -1.2057
   15MOL0     H 1973   0.920  -0.084   4.667  0.1424  0.1914  0.2930
   15MOL0     H 1974   0.811  -0.037   4.393 -2.6467 -1.7158 -0.3534
   15MOL0     H 1975   0.864  -0.192   4.445 -0.0691  0.0111 -0.3135
   15MOL0     H 1976   0.566  -0.009   4.398  0.1718  0.4192 -0.2033
   15MOL0     H 1977   0.316  -0.081   4.423  0.9539 -0.0009  0.6643
   15MOL0     H 1978   0.336  -0.256   4.370 -0.6197  2.1420 -2.2522
   15MOL0     H 1979   0.265  -0.302   4.621  0.4916  0.2276 -0.0513
   15MOL0     H 1980   0.230  -0.136   4.635 -0.4300 -0.6061  0.0046
   15MOL0     H 1981   0.132  -0.357   4.448  1.4514  0.4797  0.4928
   15MOL0     H 1982   0.089  -0.192   4.392  0.6393 -0.1601 -0.4598
   15MOL0     H 1983  -0.052  -0.165   4.587 -1.6623 -0.5733 -0.8370
   15MOL0     H 1984  -0.004  -0.324   4.657 -2.6869 -0.7463 -0.4698
   15MOL0     H 1985  -0.235  -0.263   4.736 -4.4586 -0.6586  1.3051
   15MOL0     H 1986  -0.437  -0.328   4.798  1.5097 -0.4875 -0.0025
   15MOL0     H 1987  -0.736  -0.565   4.957  0.2671 -1.8592 -0.4006
   15MOL0     H 1988  -0.948  -0.631   5.022  0.3286  2.4602  1.7255
   15MOL0     H 1989  -1.148  -0.652   5.100 -1.0991 -1.4817  0.2072
   15MOL0     H 1990  -1.195  -0.481   5.125  2.2743 -1.3098  2.8758
   15MOL0     H 1991  -1.393  -0.669   4.996 -1.1463  0.5952  0.5108
   15MOL0     H 1992  -1.376  -0.668   5.159 -0.4524 -0.7003 -0.3461
   15MOL0     H 1993  -1.422  -0.430   5.186  0.9048 -1.0116  0.9125
   15MOL0     H 1994  -1.413  -0.400   5.009 -0.3371 -0.9913 -0.8971
   15MOL0     H 1995  -1.603  -0.621   5.096  2.4296  0.6183  2.1354
   15MOL0     H 1996  -1.604  -0.499   4.952  0.9256 -0.8442 -1.8033
   15MOL0     H 1997  -1.784  -0.405   5.074  1.9030  1.2884 -2.8877
   15MOL0     H 1998  -1.654  -0.331   5.156 -0.5014  0.6552 -0.3816
   15MOL0     H 1999  -1.655  -0.552   5.309 -0.5151  0.2468  2.0767
   15MOL0     H 2000  -1.745  -0.394   5.340  1.1329 -0.7240 -0.2527
   15MOL0     H 2001  -1.905  -0.583   5.169 -1.3283  0.8505 -0.1910
   15MOL0     H 2002  -1.957  -0.478   5.298  1.0085  1.4039  0.6481
   15MOL0     H 2003  -1.888  -0.614   5.470 -0.7094  0.8611 -0.2051
   15MOL0     H 2004  -2.006  -0.692   5.361 -0.6256 -0.0648  1.2218
   15MOL0     H 2005  -1.123  -0.392   4.708  1.0521  0.7291  0.7295
   15MOL0     H 2006  -0.891  -0.318   4.643 -1.1882 -0.9690 -0.8832
   15MOL0     H 2007  -0.489  -0.570   4.441  0.2123 -1.3744  0.9373
   15MOL0     H 2008  -0.268  -0.489   4.353 -2.4242 -1.3593 -1.3688
   15MOL0     H 2009   1.837   0.388   4.790 -0.8339 -2.7607  0.2045
   15MOL0     H 2010   1.972   0.442   4.972  0.0622  3.5903 -2.9868
   15MOL0     H 2011   2.131   0.315   5.379 -0.0625 -0.3121  1.1346
   15MOL0     H 2012   2.267   0.342   5.576  1.5552  0.0353 -1.9698
   15MOL0     H 2013   2.308   0.378   5.814  1.0769 -0.4276 -1.3273
   15MOL0     H 2014   2.396   0.502   5.895  2.9879  0.6839 -1.0586
   15MOL0     H 2015   2.474   0.425   5.611 -1.4068 -2.5095  0.7705
   15MOL0     H 2016   2.500   0.307   5.727  2.1864 -1.5020 -0.1431
   15MOL0     H 2017   2.629   0.596   5.744  1.6885  0.1634  0.8834
   15MOL0     H 2018   2.709   0.451   5.679 -1.5540 -1.8592 -0.5836
   15MOL0     H 2019   2.767   0.513   5.934  0.7007  1.0637 -0.7908
   15MOL0     H 2020   2.602   0.487   5.960 -1.4008 -0.5606 -2.2449
   15MOL0     H 2021   2.759   0.090   5.898  2.2867  1.1138 -3.0065
   15MOL0     H 2022   2.153   0.733   5.639  3.4769 -1.9611  1.6062
   15MOL0     H 2023   1.841   0.665   5.447 -1.2558  1.0751  0.5633
   15MOL0     H 2024   1.925   0.797   5.528 -2.4974 -0.5986  0.9867
   15MOL0     H 2025   1.936   0.776   5.347 -1.1972  1.4956  0.2090
   16MOL0     O 2026  10.757   1.855   7.364 -0.3109  0.5122  0.4477
   16MOL0     C 2027  10.672   1.766   7.379  0.3061 -0.7753 -0.1765
   16MOL0     O 2028  10.690   1.636   7.357 -0.0453  0.0059  0.5875
   16MOL0     C 2029  10.797   1.573   7.299  0.0958 -0.6279 -0.6059
   16MOL0     C 2030  10.800   1.432   7.301  0.2750  0.8171 -0.6525
   16MOL0     C 2031  10.917   1.367   7.243 -0.3099 -0.3352  0.5875
   16MOL0     C 2032  11.024   1.443   7.195  0.1082  0.5176  0.1854
   16MOL0     O 2033  11.146   1.380   7.153  0.5030  0.8546  0.0966
   16MOL0     C 2034  11.167   1.234   7.178  0.0669  0.2380 -0.2435
   16MOL0     C 2035  11.298   1.196   7.119  0.1818 -0.3651 -0.0798
   16MOL0     C 2036  11.320   1.050   7.159  0.3849  0.1326  0.9658
   16MOL0     C 2037  11.440   0.995   7.090  0.1961 -0.3656 -0.1851
   16MOL0     C 2038  11.464   0.844   7.125 -0.0359  0.1733  0.4576
   16MOL0     C 2039  11.560   0.771   7.025  0.2011 -0.3788 -0.5901
   16MOL0     C 2040  11.704   0.840   7.014  0.3730  0.2051 -0.1264
   16MOL0     C 2041  11.781   0.851   7.144 -0.1353  0.1263  0.6301
   16MOL0     N 2042  11.906   0.928   7.117  0.3073 -1.0200  0.1246
   16MOL0     C 2043  12.000   0.909   7.023  0.7109 -0.1514  0.2984
   16MOL0     C 2044  12.105   0.982   7.057 -0.2552 -0.1810  0.0524
   16MOL0     C 2045  12.238   1.000   6.975 -0.4215 -1.3202  0.0985
   16MOL0     C 2046  12.361   0.992   7.065  0.4188 -0.2092  0.0323
   16MOL0     C 2047  12.372   0.860   7.138 -0.4303  0.1840  0.7641
   16MOL0     C 2048  12.502   0.830   7.209 -0.1001  0.2289 -0.3466
   16MOL0     O 2049  12.609   0.864   7.120  0.0201  0.6036 -0.0539
   16MOL0     C 2050  12.745   0.862   7.159 -0.5503  0.3408  0.2629
   16MOL0     C 2051  12.830   0.939   7.085 -0.6751  1.2818  0.3622
   16MOL0     C 2052  12.969   0.938   7.117 -0.0265  0.6582 -0.3196
   16MOL0     C 2053  13.016   0.855   7.218  0.1453 -0.7664  0.3441
   16MOL0     C 2054  13.165   0.850   7.257 -0.0571 -0.2161  0.2928
   16MOL0     O 2055  13.246   0.942   7.199 -0.1814  0.8237  0.3364
   16MOL0     C 2056  13.378   0.958   7.230 -0.0328 -0.0276  0.3756
   16MOL0     C 2057  13.428   1.059   7.147 -0.5845  0.3036 -0.1974
   16MOL0     C 2058  13.561   1.091   7.164 -0.6490 -0.1596  0.1759
   16MOL0     C 2059  13.647   1.017   7.242 -0.2531 -0.7543  0.1377
   16MOL0     O 2060  13.782   1.037   7.247 -0.9735 -0.3373 -0.4366
   16MOL0     C 2061  13.823   1.171   7.201 -0.4027  0.4011 -0.3906
   16MOL0     C 2062  13.962   1.187   7.260  0.5433 -0.1685  0.6939
   16MOL0     C 2063  14.037   1.304   7.197 -0.3635 -0.1251 -0.0042
   16MOL0     C 2064  13.968   1.438   7.216 -0.1026  0.2610  0.7846
   16MOL0     C 2065  14.063   1.554   7.176  0.6081  0.5553  0.2336
   16MOL0     C 2066  14.180   1.586   7.271 -0.4889  0.2343  0.0477
   16MOL0     C 2067  14.142   1.588   7.419 -0.0656 -0.5366  0.7201
   16MOL0     C 2068  14.221   1.695   7.489  0.2746  0.3308 -0.2021
   16MOL0    Cl 2069  14.185   1.721   7.662  0.0914  0.2314 -0.3864
   16MOL0     C 2070  13.597   0.908   7.309  0.0397  0.1268 -0.2536
   16MOL0     C 2071  13.460   0.876   7.307 -0.7040  1.5237 -0.0251
   16MOL0     O 2072  13.199   0.755   7.327  0.0930  0.8418  0.3691
   16MOL0     C 2073  12.932   0.779   7.288  0.6092  0.7674  0.1088
   16MOL0     C 2074  12.795   0.779   7.259  0.3520  0.5715  0.1184
   16MOL0     N 2075  12.060   1.066   7.163 -0.4978  0.8991 -0.5651
   16MOL0     N 2076  11.943   1.031   7.196 -0.7260  0.1088 -0.2879
   16MOL0     C 2077  11.021   1.582   7.190 -0.6095 -0.3421  0.2125
   16MOL0     C 2078  10.908   1.647   7.243  0.4713  0.7882 -0.6509
   16MOL0     C 2079  10.552   1.797   7.458 -0.0101 -0.3161 -0.5073
   16MOL0     C 2080  10.457   1.702   7.496  0.2088 -0.1854 -0.7409
   16MOL0     C 2081  10.335   1.726   7.551  0.2664 -0.7588 -0.3047
   16MOL0     C 2082  10.296   1.857   7.576 -0.0576 -0.4769 -0.5937
   16MOL0     O 2083  10.160   1.877   7.598  0.0883 -0.3199  0.0674
   16MOL0     C 2084  10.102   2.003   7.626 -0.3471 -0.1301  0.0426
   16MOL0     C 2085   9.964   1.986   7.668 -0.2411 -0.1833 -0.1910
   16MOL0     C 2086   9.870   1.999   7.545 -0.1169 -0.9842  0.1796
   16MOL0     C 2087   9.732   1.932   7.566 -0.1262  0.5333  1.0000
   16MOL0     C 2088   9.633   1.981   7.472 -0.9087 -0.4621 -0.6083
   16MOL0     C 2089   9.543   2.017   7.400 -1.2927  0.0513 -0.4130
   16MOL0     C 2090  10.393   1.958   7.552 -0.2770  0.0902  0.3571
   16MOL0     C 2091  10.516   1.927   7.492  0.3895  0.5066 -0.5538
   16MOL0     C 2092  10.607   2.041   7.483  0.2785  0.3570  0.5458
   16MOL0     H 2093  10.712   1.386   7.344  0.9387 -0.5106 -0.6681
   16MOL0     H 2094  10.939   1.262   7.262  3.4532  0.6144  2.6725
   16MOL0     H 2095  11.175   1.218   7.286  1.5533  3.0499  0.1786
   16MOL0     H 2096  11.092   1.168   7.133  1.1252 -0.2629 -1.3214
   16MOL0     H 2097  11.377   1.252   7.169  3.2763 -2.9706 -1.7297
   16MOL0     H 2098  11.295   1.215   7.011  0.3438  1.4124  0.1885
   16MOL0     H 2099  11.238   0.993   7.115 -0.8992  1.3355  1.6933
   16MOL0     H 2100  11.336   1.027   7.265 -1.2892 -1.8259  0.8615
   16MOL0     H 2101  11.427   1.012   6.983  0.5253  3.2170  0.2209
   16MOL0     H 2102  11.522   1.053   7.134 -2.1376  2.9404  0.1360
   16MOL0     H 2103  11.496   0.830   7.229 -1.7359  1.3476  1.1792
   16MOL0     H 2104  11.369   0.794   7.108  0.8662 -1.0532 -1.2196
   16MOL0     H 2105  11.567   0.666   7.056  0.8213  0.3621  2.0888
   16MOL0     H 2106  11.509   0.776   6.928 -0.0734 -2.3120 -0.5960
   16MOL0     H 2107  11.694   0.944   6.983 -2.0681  1.3788  3.8464
   16MOL0     H 2108  11.765   0.777   6.949  2.9279 -1.6097  3.6741
   16MOL0     H 2109  11.718   0.909   7.213  1.2360  0.9177  1.2598
   16MOL0     H 2110  11.795   0.751   7.186  0.1285  0.6646  1.8600
   16MOL0     H 2111  11.988   0.841   6.940 -0.7409 -0.8623  1.0540
   16MOL0     H 2112  12.249   0.936   6.887 -1.7364  0.4716 -1.4690
   16MOL0     H 2113  12.240   1.099   6.927 -0.4308 -2.2951 -2.0325
   16MOL0     H 2114  12.452   1.012   7.008  1.0045 -3.2590 -0.2566
   16MOL0     H 2115  12.370   1.064   7.147 -0.5425  0.4226 -0.3913
   16MOL0     H 2116  12.360   0.777   7.068 -0.8346 -1.6567  2.9038
   16MOL0     H 2117  12.280   0.854   7.197 -1.6585  0.9447 -1.0078
   16MOL0     H 2118  12.511   0.722   7.227 -0.2925  0.1238 -0.8795
   16MOL0     H 2119  12.520   0.879   7.305  3.4059 -1.3876  0.0018
   16MOL0     H 2120  12.790   1.009   7.012 -1.0963  3.0823  2.2010
   16MOL0     H 2121  13.039   0.997   7.059  0.8295 -0.1583 -0.1474
   16MOL0     H 2122  13.366   1.124   7.086 -0.5664  3.9847  3.2971
   16MOL0     H 2123  13.592   1.169   7.095  0.1076 -0.3318  0.3218
   16MOL0     H 2124  13.823   1.176   7.091  2.1953  2.6257 -0.4021
   16MOL0     H 2125  13.754   1.248   7.235  1.3949  2.2195 -0.6567
   16MOL0     H 2126  13.960   1.195   7.369  0.4107  2.2315  0.5729
   16MOL0     H 2127  14.016   1.097   7.230 -1.8343 -0.5612 -3.1524
   16MOL0     H 2128  14.139   1.310   7.238  1.3082  1.1524 -3.9359
   16MOL0     H 2129  14.047   1.295   7.089 -0.1599  2.0240 -0.2074
   16MOL0     H 2130  13.933   1.447   7.319  0.2243 -3.3453  1.3289
   16MOL0     H 2131  13.872   1.443   7.163  0.3679  0.9364 -0.0428
   16MOL0     H 2132  14.008   1.646   7.156  0.5256  0.7029  1.1052
   16MOL0     H 2133  14.105   1.528   7.079 -2.3765  2.7491 -1.8157
   16MOL0     H 2134  14.258   1.513   7.246 -0.4097  0.6628 -1.0306
   16MOL0     H 2135  14.222   1.680   7.233 -0.8528  0.3409 -0.0931
   16MOL0     H 2136  14.143   1.483   7.450  0.1330 -0.8778 -0.3730
   16MOL0     H 2137  14.035   1.610   7.421  0.2460  1.2690  0.0587
   16MOL0     H 2138  14.326   1.664   7.488  0.5184  1.1162  0.3196
   16MOL0     H 2139  14.207   1.791   7.439  1.9934  1.8586  2.0546
   16MOL0     H 2140  13.670   0.851   7.365 -2.3777 -1.0698  1.8998
   16MOL0     H 2141  13.429   0.793   7.370 -0.1789  1.1403 -0.2667
   16MOL0     H 2142  12.954   0.717   7.374 -1.1923  2.3605  1.8160
   16MOL0     H 2143  12.724   0.728   7.322 -2.5849  3.4273 -0.6040
   16MOL0     H 2144  11.106   1.619   7.133  0.6033 -3.3331 -0.1652
   16MOL0     H 2145  10.913   1.755   7.241  0.4569  0.8848  1.8310
   16MOL0     H 2146  10.481   1.602   7.461  1.4962 -0.3392  0.4726
   16MOL0     H 2147  10.258   1.652   7.570 -0.3126 -0.2348 -0.5426
   16MOL0     H 2148  10.118   2.069   7.540  1.7917 -0.4810  0.1050
   16MOL0     H 2149  10.162   2.045   7.707  3.3079 -1.1131 -1.8898
   16MOL0     H 2150   9.939   2.068   7.736  3.4402 -1.0908  2.5556
   16MOL0     H 2151   9.944   1.896   7.727 -0.8134 -0.6076 -1.0091
   16MOL0     H 2152   9.914   1.959   7.453  2.9589  2.9408 -0.2963
   16MOL0     H 2153   9.871   2.108   7.537  1.3518 -1.0601 -1.2030
   16MOL0     H 2154   9.759   1.830   7.538  1.2907  1.0905  0.1967
   16MOL0     H 2155   9.703   1.953   7.669 -0.3206  0.1009  1.0355
   16MOL0     H 2156   9.456   2.025   7.339 -1.8913  2.1332  0.6305
   16MOL0     H 2157  10.379   2.063   7.574  0.3705  0.0545  0.9762
   16MOL0     H 2158  10.567   2.133   7.526  0.9955  2.4973 -2.9655
   16MOL0     H 2159  10.690   2.009   7.546 -0.5444  1.8822  2.5051
   16MOL0     H 2160  10.627   2.071   7.379 -4.2981  1.6691 -0.2076
   17MOL0     O 2161   2.874   2.842  10.712  0.7708  0.6446 -1.1517
   17MOL0     C 2162   2.907   2.955  10.688 -0.5892 -0.1738 -0.5034
   17MOL0     O 2163   2.861   3.029  10.579  0.7005 -0.0897 -0.0447
   17MOL0     C 2164   2.737   2.989  10.530  0.6885 -0.4902  0.1931
   17MOL0     C 2165   2.632   2.950  10.610 -0.0903  0.7565 -1.1253
   17MOL0     C 2166   2.515   2.899  10.549  0.8754 -0.5558  0.3334
   17MOL0     C 2167   2.498   2.898  10.408  0.1352  0.3726  0.0040
   17MOL0     O 2168   2.390   2.843  10.346  0.0804  1.1064  0.2918
   17MOL0     C 2169   2.280   2.786  10.422 -1.0856 -0.4634 -0.0067
   17MOL0     C 2170   2.189   2.907  10.484 -1.1277 -0.0060  0.9254
   17MOL0     C 2171   2.054   2.850  10.519  0.5220  1.1610 -0.3580
   17MOL0     C 2172   1.969   2.963  10.588 -0.5234  0.6255  0.1507
   17MOL0     C 2173   1.830   2.909  10.649 -1.1585  0.4723  0.3463
   17MOL0     C 2174   1.736   2.823  10.553 -1.0182 -0.0256  0.6846
   17MOL0     C 2175   1.586   2.813  10.600 -0.7457 -0.7313  0.1818
   17MOL0     C 2176   1.497   2.758  10.492  0.0708 -0.4587  0.7959
   17MOL0     N 2177   1.502   2.616  10.482 -0.0417  0.2282 -0.4788
   17MOL0     C 2178   1.461   2.538  10.590  0.2876  0.4124 -0.3750
   17MOL0     C 2179   1.516   2.418  10.566 -1.3519  0.2207  0.7967
   17MOL0     C 2180   1.488   2.290  10.653  0.1685  0.0289  0.6592
   17MOL0     C 2181   1.624   2.241  10.710 -0.1565  0.0144  0.0884
   17MOL0     C 2182   1.601   2.105  10.771  0.3394  0.4248  0.0917
   17MOL0     C 2183   1.717   2.054  10.859 -0.1131  0.5200  0.0822
   17MOL0     O 2184   1.745   2.138  10.974 -0.6062  0.4290  0.2432
   17MOL0     C 2185   1.874   2.171  10.994 -0.1818 -0.0992 -0.2088
   17MOL0     C 2186   1.999   2.123  10.937 -0.0781  0.7306 -0.5542
   17MOL0     C 2187   2.117   2.186  10.968 -0.0716 -0.9547 -0.4421
   17MOL0     C 2188   2.117   2.290  11.067 -1.0425  0.6720  0.4644
   17MOL0     C 2189   2.245   2.347  11.123  0.5177 -0.1003  0.0449
   17MOL0     O 2190   2.359   2.267  11.106  0.3754 -0.4579 -0.2604
   17MOL0     C 2191   2.471   2.333  11.123  0.2930  0.1545  0.4029
   17MOL0     C 2192   2.520   2.353  11.243  0.0893  0.5289  0.3882
   17MOL0     C 2193   2.627   2.438  11.262  0.7312 -1.0403  0.1430
   17MOL0     C 2194   2.696   2.487  11.157  0.9111 -0.5502  0.3290
   17MOL0     O 2195   2.819   2.544  11.184  0.2125 -0.0258  0.0668
   17MOL0     C 2196   2.934   2.499  11.099  0.5366  0.1816 -0.1259
   17MOL0     C 2197   3.070   2.552  11.156 -0.2323 -0.3012  0.2775
   17MOL0     C 2198   3.097   2.705  11.133 -0.8191  0.2313  0.0063
   17MOL0     C 2199   3.229   2.754  11.204 -0.3523 -0.4013  0.3229
   17MOL0     C 2200   3.357   2.685  11.144  0.3102  0.5559  0.4596
   17MOL0     C 2201   3.487   2.723  11.214 -0.4502  0.0174 -0.2679
   17MOL0     C 2202   3.614   2.688  11.132  0.1673  0.1191 -1.0461
   17MOL0     C 2203   3.728   2.672  11.226 -0.4323 -1.0961 -0.4465
   17MOL0    Cl 2204   3.758   2.823  11.329  0.4020 -0.2955  0.0779
   17MOL0     C 2205   2.659   2.452  11.025 -0.2147  0.3688 -0.4734
   17MOL0     C 2206   2.543   2.370  11.013 -1.0375 -0.3070 -0.5696
   17MOL0     O 2207   2.246   2.465  11.162  0.6564 -0.1138 -0.0759
   17MOL0     C 2208   1.994   2.338  11.121 -0.0175 -0.4764  0.1983
   17MOL0     C 2209   1.878   2.287  11.077  0.3838 -0.6853  0.5250
   17MOL0     N 2210   1.578   2.422  10.445 -0.1117  0.6162 -0.0200
   17MOL0     N 2211   1.569   2.539  10.395 -0.0896  0.2105  0.2181
   17MOL0     C 2212   2.599   2.949  10.327  0.7686 -0.7591  0.4027
   17MOL0     C 2213   2.716   3.000  10.387  0.5838  0.0145 -0.1527
   17MOL0     C 2214   3.016   3.022  10.778 -0.5815  0.0878  0.6006
   17MOL0     C 2215   3.115   2.934  10.833  0.4417 -0.8568  0.0530
   17MOL0     C 2216   3.222   2.988  10.907 -0.6272 -0.4027  0.1370
   17MOL0     C 2217   3.244   3.124  10.916  0.0362  0.8060 -0.1584
   17MOL0     O 2218   3.357   3.183  10.973 -0.4295  0.5950 -0.3016
   17MOL0     C 2219   3.430   3.101  11.064  0.1259  0.0359  0.8568
   17MOL0     C 2220   3.567   3.163  11.102 -0.1584 -0.4201  0.2099
   17MOL0     C 2221   3.565   3.302  11.169  0.7028 -0.9804 -0.4019
   17MOL0     C 2222   3.694   3.367  11.214 -0.3292 -0.0184 -0.4730
   17MOL0     C 2223   3.773   3.275  11.301  0.5356  0.5692  0.2040
   17MOL0     C 2224   3.821   3.179  11.361  0.4521  0.2216  0.5936
   17MOL0     C 2225   3.154   3.211  10.854  1.1437  0.5644 -0.4480
   17MOL0     C 2226   3.042   3.161  10.790  0.3034  0.4831 -1.2434
   17MOL0     C 2227   2.943   3.257  10.742 -0.5120  0.1594 -0.6329
   17MOL0     H 2228   2.642   2.942  10.718 -0.8329 -4.3700 -1.1635
   17MOL0     H 2229   2.444   2.849  10.613  1.0755 -0.5985  0.5240
   17MOL0     H 2230   2.216   2.733  10.351 -2.9742  1.2713  0.2897
   17MOL0     H 2231   2.308   2.719  10.503 -1.6206  1.3345  1.7601
   17MOL0     H 2232   2.182   2.988  10.411  2.0799 -0.6667 -0.3277
   17MOL0     H 2233   2.244   2.944  10.571  1.6134 -1.3958 -0.0867
   17MOL0     H 2234   2.064   2.766  10.588  3.1595  0.9975 -0.8322
   17MOL0     H 2235   2.005   2.822  10.425 -1.3360  4.2047 -0.4601
   17MOL0     H 2236   2.020   3.003  10.676 -2.7480  1.4301  1.1459
   17MOL0     H 2237   1.958   3.043  10.514  1.8765 -0.9975 -2.1715
   17MOL0     H 2238   1.852   2.859  10.744  2.6581  0.4580 -0.3947
   17MOL0     H 2239   1.773   2.997  10.678 -0.2126  2.2390 -2.7333
   17MOL0     H 2240   1.740   2.857  10.449 -1.5537  0.3309  0.7765
   17MOL0     H 2241   1.766   2.718  10.559  0.1657  0.2219 -0.3516
   17MOL0     H 2242   1.544   2.912  10.625  0.3205  0.3529 -2.0216
   17MOL0     H 2243   1.591   2.749  10.688  0.1009 -0.6147  0.2266
   17MOL0     H 2244   1.393   2.783  10.514  0.2316 -2.2585  4.4407
   17MOL0     H 2245   1.512   2.800  10.392 -2.7168  3.0429  1.6239
   17MOL0     H 2246   1.396   2.568  10.672 -2.9351 -2.5008 -1.6026
   17MOL0     H 2247   1.404   2.307  10.720 -1.6055 -4.8413  0.0965
   17MOL0     H 2248   1.440   2.212  10.592  1.3480 -0.8694  0.8549
   17MOL0     H 2249   1.696   2.229  10.628 -2.1614 -0.8668 -1.6653
   17MOL0     H 2250   1.659   2.319  10.777  0.8759 -0.4411  0.0997
   17MOL0     H 2251   1.572   2.028  10.698  1.8539  0.2428 -0.3536
   17MOL0     H 2252   1.515   2.099  10.838  1.8473  0.4714  2.1015
   17MOL0     H 2253   1.804   2.050  10.793  1.7819 -0.1254  2.4631
   17MOL0     H 2254   1.693   1.950  10.886 -1.3962  0.6293 -0.5785
   17MOL0     H 2255   2.003   2.038  10.871  1.6105  0.2336  0.1239
   17MOL0     H 2256   2.213   2.152  10.929 -0.0725 -0.4813 -0.8666
   17MOL0     H 2257   2.469   2.297  11.322 -0.8469 -1.7573 -1.6828
   17MOL0     H 2258   2.667   2.443  11.362 -1.0828 -1.7980  0.9537
   17MOL0     H 2259   2.940   2.389  11.102 -0.4675  0.0232 -2.0269
   17MOL0     H 2260   2.930   2.530  10.994  0.5863  1.6060  0.2848
   17MOL0     H 2261   3.060   2.541  11.264 -2.4730 -0.3160  0.1138
   17MOL0     H 2262   3.153   2.485  11.134 -0.0264  0.6834 -2.3287
   17MOL0     H 2263   3.106   2.711  11.024 -0.2101 -2.5643 -0.1773
   17MOL0     H 2264   3.017   2.772  11.165 -0.9203 -0.4128  1.1537
   17MOL0     H 2265   3.214   2.728  11.309 -0.0070  0.0682  0.4928
   17MOL0     H 2266   3.242   2.863  11.201 -0.2039 -0.3687  1.6549
   17MOL0     H 2267   3.355   2.706  11.036 -0.1158 -1.5335  0.0171
   17MOL0     H 2268   3.354   2.577  11.161 -0.0518  0.1163 -2.0143
   17MOL0     H 2269   3.484   2.830  11.238  1.3582  0.0436 -0.0150
   17MOL0     H 2270   3.495   2.674  11.312 -0.3042 -1.7506 -1.1259
   17MOL0     H 2271   3.633   2.771  11.063 -1.4105  1.0729 -0.3779
   17MOL0     H 2272   3.601   2.598  11.072 -2.3110  0.1112 -0.6039
   17MOL0     H 2273   3.712   2.580  11.284 -0.2855 -1.5254 -1.0810
   17MOL0     H 2274   3.813   2.664  11.157  0.7062  0.5665  0.6759
   17MOL0     H 2275   2.714   2.478  10.935 -2.7279 -0.9639 -2.5237
   17MOL0     H 2276   2.512   2.328  10.918  2.6417 -0.6113 -1.7912
   17MOL0     H 2277   1.991   2.429  11.181  0.3939  0.3689 -1.0273
   17MOL0     H 2278   1.789   2.315  11.132  1.8830  3.0291  1.3109
   17MOL0     H 2279   2.595   2.939  10.219 -0.4458  0.0104  0.3568
   17MOL0     H 2280   2.808   3.008  10.330  0.3870 -0.4067 -0.5406
   17MOL0     H 2281   3.111   2.828  10.809 -0.8608 -0.6273 -0.8723
   17MOL0     H 2282   3.288   2.914  10.951  0.4463 -0.5524 -1.6364
   17MOL0     H 2283   3.445   3.001  11.022  1.1600  0.5462 -0.0659
   17MOL0     H 2284   3.376   3.081  11.157 -1.1198 -2.1642 -0.2535
   17MOL0     H 2285   3.632   3.161  11.014 -0.4734 -0.8230 -0.0166
   17MOL0     H 2286   3.609   3.096  11.176 -0.8612  0.1632  1.1669
   17MOL0     H 2287   3.500   3.293  11.257 -0.0617 -3.2265 -1.1197
   17MOL0     H 2288   3.506   3.366  11.103 -0.1684 -1.5960 -0.2478
   17MOL0     H 2289   3.750   3.397  11.125 -2.9323 -2.0837 -2.9846
   17MOL0     H 2290   3.678   3.456  11.276 -1.1805 -1.3912  1.3868
   17MOL0     H 2291   3.866   3.102  11.419 -1.3809 -1.2741  0.1273
   17MOL0     H 2292   3.166   3.318  10.864 -0.5583  0.6517  1.1671
   17MOL0     H 2293   2.956   3.262  10.633  3.9718  0.5155 -0.2601
   17MOL0     H 2294   2.841   3.219  10.755 -0.6287  1.1661  1.9230
   17MOL0     H 2295   2.956   3.359  10.779 -2.1719 -0.3250  1.4674
   18MOL0     O 2296   8.611   3.979   4.061 -0.3834  0.3781  0.5946
   18MOL0     C 2297   8.530   4.065   4.094  0.5731  1.1001 -0.7230
   18MOL0     O 2298   8.525   4.106   4.228 -0.1104 -0.2020  0.5384
   18MOL0     C 2299   8.603   4.046   4.324 -0.4050 -0.2919 -0.4240
   18MOL0     C 2300   8.547   3.995   4.443  0.7501 -0.0191  0.0089
   18MOL0     C 2301   8.630   3.945   4.542  0.4266  0.1912 -0.4960
   18MOL0     C 2302   8.770   3.942   4.526 -1.7319 -0.2240  0.0389
   18MOL0     O 2303   8.841   3.882   4.630 -0.6744  0.0512 -1.3765
   18MOL0     C 2304   8.976   3.833   4.616 -0.5821  0.1713 -0.2875
   18MOL0     C 2305   9.037   3.804   4.744  0.0748  0.4455  0.1293
   18MOL0     C 2306   9.037   3.936   4.835  0.2310  0.1757  0.4923
   18MOL0     C 2307   9.147   3.917   4.949 -0.5833  1.5117  0.3312
   18MOL0     C 2308   9.125   4.036   5.048 -0.1517 -0.2145  0.1781
   18MOL0     C 2309   9.227   3.998   5.156 -0.5071 -0.7660  0.5597
   18MOL0     C 2310   9.208   4.092   5.277  0.2950 -0.3066  0.3672
   18MOL0     C 2311   9.241   4.236   5.251  0.4650 -0.1120 -0.2409
   18MOL0     N 2312   9.380   4.257   5.221  0.0129  0.2021  1.1247
   18MOL0     C 2313   9.446   4.262   5.095  0.4182  0.0216  0.7337
   18MOL0     C 2314   9.572   4.297   5.123  0.6690 -0.8624 -0.5297
   18MOL0     C 2315   9.676   4.309   5.009  0.0354  0.7367 -0.1975
   18MOL0     C 2316   9.790   4.210   5.029 -0.1970  0.2864 -0.3735
   18MOL0     C 2317   9.903   4.246   4.932  0.5939 -0.7432 -0.5624
   18MOL0     C 2318   9.965   4.121   4.870  0.2596 -0.4984 -0.8533
   18MOL0     O 2319  10.064   4.057   4.953  0.1351 -0.8325 -0.2667
   18MOL0     C 2320  10.199   4.043   4.928 -0.2085 -0.4066  0.2287
   18MOL0     C 2321  10.259   4.107   4.816  0.3644  0.7231  0.1851
   18MOL0     C 2322  10.399   4.094   4.793  0.4597  0.9958 -0.2149
   18MOL0     C 2323  10.479   4.026   4.883 -0.4180 -0.4539 -0.4571
   18MOL0     C 2324  10.630   4.012   4.858  0.3418 -0.1578 -0.6436
   18MOL0     O 2325  10.671   4.049   4.733  0.0048 -0.6765  0.1967
   18MOL0     C 2326  10.812   4.046   4.715 -0.3333 -0.0976 -0.5315
   18MOL0     C 2327  10.875   3.921   4.732 -0.5043 -0.4578  0.5572
   18MOL0     C 2328  11.014   3.904   4.701  0.2081 -0.1287 -0.1222
   18MOL0     C 2329  11.087   4.014   4.664 -0.1023 -0.2367 -0.8203
   18MOL0     O 2330  11.214   3.977   4.640  0.2153  0.3972  0.9674
   18MOL0     C 2331  11.311   4.077   4.596 -0.0251 -0.9032 -0.1831
   18MOL0     C 2332  11.440   4.001   4.562 -1.7506 -0.7175  0.2069
   18MOL0     C 2333  11.566   4.091   4.584  0.0013  0.7619 -0.3984
   18MOL0     C 2334  11.697   4.015   4.587  0.2109  0.1445 -0.3424
   18MOL0     C 2335  11.822   4.108   4.602  0.9175 -0.0174  0.4554
   18MOL0     C 2336  11.812   4.234   4.523 -0.2476 -0.5999 -0.2495
   18MOL0     C 2337  11.946   4.315   4.555 -0.0767  0.6152  0.9663
   18MOL0     C 2338  11.961   4.433   4.458  0.6623  0.5608 -0.0801
   18MOL0    Cl 2339  12.086   4.542   4.505 -0.1219 -0.2302  0.1108
   18MOL0     C 2340  11.027   4.140   4.646  0.0809 -0.1760  0.5304
   18MOL0     C 2341  10.892   4.155   4.674 -0.3630  0.0513 -0.6438
   18MOL0     O 2342  10.699   3.956   4.949  0.2278 -0.2408  1.0628
   18MOL0     C 2343  10.420   3.975   4.998 -0.3455 -0.2493 -0.1082
   18MOL0     C 2344  10.281   3.974   5.020  0.2626  0.1474  0.3298
   18MOL0     N 2345   9.586   4.307   5.257 -0.6219  0.1615 -0.0332
   18MOL0     N 2346   9.476   4.287   5.316  0.0030 -0.0432  0.0905
   18MOL0     C 2347   8.828   3.982   4.403  0.0147 -0.4032 -0.3956
   18MOL0     C 2348   8.740   4.045   4.315 -0.3968 -0.4132  0.6685
   18MOL0     C 2349   8.424   4.127   4.002 -0.7228  0.6987 -0.1946
   18MOL0     C 2350   8.329   4.209   4.057  0.2929  0.2623  0.1210
   18MOL0     C 2351   8.215   4.256   3.981 -0.3802  0.6525  0.4015
   18MOL0     C 2352   8.206   4.217   3.840  0.0982 -0.1432 -1.2307
   18MOL0     O 2353   8.100   4.245   3.754 -1.5673 -0.5012 -0.3711
   18MOL0     C 2354   7.991   4.318   3.808  0.3205 -0.7228 -0.9597
   18MOL0     C 2355   7.874   4.316   3.707  0.6981 -0.7250 -0.2437
   18MOL0     C 2356   7.758   4.380   3.796 -0.2440 -0.2323 -0.0169
   18MOL0     C 2357   7.628   4.367   3.727  0.2401  0.0276  0.6287
   18MOL0     C 2358   7.526   4.445   3.806 -0.1337 -0.3001  0.4101
   18MOL0     C 2359   7.435   4.491   3.871 -0.1901 -0.7212 -0.0614
   18MOL0     C 2360   8.320   4.163   3.783 -0.6938 -0.7652 -0.0477
   18MOL0     C 2361   8.420   4.102   3.860 -0.7897 -0.6424  0.3951
   18MOL0     C 2362   8.517   4.013   3.786 -0.3052  0.7697  0.2212
   18MOL0     H 2363   8.442   3.989   4.468  0.8257 -1.5181  0.0337
   18MOL0     H 2364   8.594   3.893   4.630  0.0314  0.3654 -0.5555
   18MOL0     H 2365   8.961   3.744   4.555 -2.6969 -0.8170  1.5275
   18MOL0     H 2366   9.037   3.908   4.565 -0.3924 -0.0119 -0.3344
   18MOL0     H 2367   9.139   3.763   4.736 -0.1201  0.2450 -1.7691
   18MOL0     H 2368   8.980   3.723   4.790  0.7207  0.3880  0.8574
   18MOL0     H 2369   8.943   3.948   4.890 -0.5244 -3.1370  0.1501
   18MOL0     H 2370   9.048   4.029   4.779 -0.2444 -0.5690 -0.8858
   18MOL0     H 2371   9.137   3.821   5.001  2.9601 -0.1897 -1.7379
   18MOL0     H 2372   9.250   3.907   4.914 -0.8349 -2.9752  0.3234
   18MOL0     H 2373   9.141   4.130   4.996 -1.8596 -0.7191 -1.3676
   18MOL0     H 2374   9.023   4.040   5.089 -0.7951  0.8272 -1.4242
   18MOL0     H 2375   9.202   3.896   5.186 -3.0343 -0.7296 -1.1285
   18MOL0     H 2376   9.328   4.003   5.114 -1.1290  0.1081 -0.9018
   18MOL0     H 2377   9.275   4.061   5.357 -0.6162 -1.4321  0.7269
   18MOL0     H 2378   9.104   4.075   5.307  0.5933 -3.0850  0.0600
   18MOL0     H 2379   9.184   4.273   5.165 -2.2247  2.1601  2.2913
   18MOL0     H 2380   9.204   4.291   5.338  1.7166 -0.8064  0.7682
   18MOL0     H 2381   9.402   4.238   4.999 -2.2516 -0.4488  1.9894
   18MOL0     H 2382   9.626   4.296   4.913  1.4272  0.5592 -0.9211
   18MOL0     H 2383   9.718   4.410   5.013 -0.1859  0.8086  2.3546
   18MOL0     H 2384   9.832   4.216   5.130 -0.1167  0.3294 -0.4095
   18MOL0     H 2385   9.746   4.111   5.015  0.1258  0.3049 -1.5494
   18MOL0     H 2386   9.980   4.308   4.979 -0.2552 -0.0844  0.0008
   18MOL0     H 2387   9.861   4.306   4.851 -2.2072 -0.5242  0.9296
   18MOL0     H 2388  10.007   4.147   4.772 -1.3055  2.5059 -0.8384
   18MOL0     H 2389   9.887   4.051   4.838  0.7276 -2.3780  1.7794
   18MOL0     H 2390  10.204   4.163   4.741  3.9039  1.5294 -2.0117
   18MOL0     H 2391  10.445   4.130   4.702  1.0378  3.7526  1.0807
   18MOL0     H 2392  10.830   3.830   4.771  1.7465 -2.3594 -0.9967
   18MOL0     H 2393  11.062   3.810   4.723 -2.7081 -1.2880  1.8197
   18MOL0     H 2394  11.275   4.121   4.503  0.5812  0.4531  0.2129
   18MOL0     H 2395  11.337   4.147   4.676 -0.0237 -1.6036  0.4461
   18MOL0     H 2396  11.457   3.914   4.627  1.8940  1.0246  1.8719
   18MOL0     H 2397  11.445   3.968   4.458 -0.9566 -0.6423  0.2128
   18MOL0     H 2398  11.570   4.175   4.515 -0.4968 -0.1360 -1.5633
   18MOL0     H 2399  11.554   4.133   4.684 -2.1232 -1.4785  0.3995
   18MOL0     H 2400  11.706   3.967   4.488 -2.0081 -0.4373 -0.3082
   18MOL0     H 2401  11.691   3.944   4.670 -1.1953 -0.3567 -0.8438
   18MOL0     H 2402  11.908   4.054   4.560  1.6763 -0.1062  2.0508
   18MOL0     H 2403  11.854   4.137   4.702  1.8630  0.3627  0.0598
   18MOL0     H 2404  11.791   4.219   4.417 -1.9169 -0.7305  0.0797
   18MOL0     H 2405  11.729   4.297   4.556  0.0359 -0.5352  0.3697
   18MOL0     H 2406  12.032   4.247   4.558 -0.5011 -0.0876 -0.9831
   18MOL0     H 2407  11.921   4.361   4.651 -2.4136  0.9550  0.2622
   18MOL0     H 2408  11.975   4.392   4.357  1.4159  0.3366  0.1095
   18MOL0     H 2409  11.870   4.488   4.433 -0.4947 -1.0206  0.4025
   18MOL0     H 2410  11.079   4.222   4.597  3.2367 -2.1823  0.2722
   18MOL0     H 2411  10.835   4.245   4.653 -1.1698 -0.5591 -1.1284
   18MOL0     H 2412  10.475   3.929   5.079  0.0739 -0.0305 -0.2629
   18MOL0     H 2413  10.231   3.939   5.109 -0.9003  1.3794  0.2057
   18MOL0     H 2414   8.932   3.962   4.381  1.5158  3.4093  2.1048
   18MOL0     H 2415   8.792   4.094   4.234 -0.0563  1.7848  2.1342
   18MOL0     H 2416   8.326   4.239   4.161  1.2792 -0.4779  0.3730
   18MOL0     H 2417   8.134   4.310   4.030 -1.2568  0.0278 -0.3243
   18MOL0     H 2418   8.018   4.422   3.826 -2.2878 -0.3342  1.3929
   18MOL0     H 2419   7.955   4.280   3.904 -0.4764 -0.1133 -1.0138
   18MOL0     H 2420   7.838   4.215   3.685  0.1879 -0.8304  1.0024
   18MOL0     H 2421   7.894   4.380   3.621 -1.3855  1.7188  0.9526
   18MOL0     H 2422   7.772   4.483   3.829  0.0235 -0.6782  1.3224
   18MOL0     H 2423   7.745   4.317   3.885  0.8108  0.6387  0.7646
   18MOL0     H 2424   7.634   4.406   3.625  4.1895 -0.5895  0.4887
   18MOL0     H 2425   7.598   4.262   3.732  0.0744  0.1196  3.9262
   18MOL0     H 2426   7.377   4.558   3.931 -0.0652  0.5717 -1.3238
   18MOL0     H 2427   8.322   4.154   3.675 -1.0932  2.4173 -0.4015
   18MOL0     H 2428   8.613   4.064   3.778  0.4549 -0.8217 -1.9301
   18MOL0     H 2429   8.526   3.914   3.832 -0.3173  1.1202  0.9927
   18MOL0     H 2430   8.492   4.005   3.679 -0.9400  3.2536  0.1164
   19MOL0     O 2431   1.146   6.754   6.586  0.3489  0.9620  0.3856
   19MOL0     C 2432   1.071   6.791   6.674  0.4269  0.5465 -0.3879
   19MOL0     O 2433   1.102   6.839   6.800  0.7897  0.8078 -0.3342
   19MOL0     C 2434   1.231   6.872   6.847 -0.3860  0.4399  0.1508
   19MOL0     C 2435   1.227   6.921   6.980 -0.8513 -0.3880 -0.2711
   19MOL0     C 2436   1.350   6.947   7.042 -0.1220 -0.8609 -0.0086
   19MOL0     C 2437   1.473   6.937   6.974 -0.8215 -0.0578 -0.1512
   19MOL0     O 2438   1.597   6.990   7.005 -0.0440 -0.2364 -0.2924
   19MOL0     C 2439   1.607   7.086   7.118 -1.2571 -1.2335  0.2375
   19MOL0     C 2440   1.754   7.073   7.153  0.5876 -0.0961  0.1071
   19MOL0     C 2441   1.818   6.942   7.192 -0.3924 -0.2266 -0.5761
   19MOL0     C 2442   1.731   6.867   7.298 -0.0101  0.0425  0.9450
   19MOL0     C 2443   1.814   6.758   7.358 -0.0662 -0.0742 -0.3712
   19MOL0     C 2444   1.838   6.634   7.269  0.3859 -0.0837 -1.1242
   19MOL0     C 2445   1.915   6.538   7.358 -0.2093  0.9059 -0.0532
   19MOL0     C 2446   1.956   6.411   7.280  0.1713 -0.1588  0.2112
   19MOL0     N 2447   2.033   6.313   7.351  0.6342 -0.6470 -1.0639
   19MOL0     C 2448   2.134   6.242   7.285  0.4355  0.0105  0.7237
   19MOL0     C 2449   2.182   6.158   7.382  0.3226 -0.4347 -0.3231
   19MOL0     C 2450   2.297   6.065   7.377 -0.2940  0.3480 -0.2467
   19MOL0     C 2451   2.422   6.149   7.391 -0.5222  0.5854 -0.1421
   19MOL0     C 2452   2.540   6.055   7.372 -0.6759  0.4636 -0.6121
   19MOL0     C 2453   2.672   6.094   7.430 -0.6927 -0.2210  0.5126
   19MOL0     O 2454   2.706   6.236   7.409  0.5194 -0.3333 -0.2070
   19MOL0     C 2455   2.843   6.264   7.407  0.0143 -0.3532 -0.3398
   19MOL0     C 2456   2.940   6.178   7.482 -0.1373  0.1512  0.1001
   19MOL0     C 2457   3.078   6.196   7.467 -0.0639 -0.5853 -0.6015
   19MOL0     C 2458   3.121   6.290   7.381  0.3726  0.8253 -0.1848
   19MOL0     C 2459   3.271   6.307   7.372  1.8050  0.2207 -0.0972
   19MOL0     O 2460   3.328   6.398   7.275  0.0555 -0.3218 -0.1431
   19MOL0     C 2461   3.466   6.419   7.296  0.7414  0.2276  0.2393
   19MOL0     C 2462   3.511   6.476   7.410 -0.1259  0.0560 -0.4634
   19MOL0     C 2463   3.648   6.514   7.411 -0.2104 -0.2747 -0.3815
   19MOL0     C 2464   3.733   6.478   7.314 -0.6702  0.3882  0.3835
   19MOL0     O 2465   3.867   6.504   7.336 -0.5156 -0.1412 -0.4402
   19MOL0     C 2466   3.950   6.532   7.223  0.6266 -0.0541 -0.3641
   19MOL0     C 2467   4.086   6.570   7.279 -0.0368 -0.0187 -0.1842
   19MOL0     C 2468   4.157   6.462   7.360 -0.5762 -0.0878  1.0022
   19MOL0     C 2469   4.302   6.495   7.403 -0.1389 -0.6876  0.4629
   19MOL0     C 2470   4.346   6.383   7.497  0.5450 -0.6006 -1.0513
   19MOL0     C 2471   4.483   6.407   7.554  0.6139 -0.1169 -0.9245
   19MOL0     C 2472   4.539   6.292   7.649  0.2591  0.1286  0.1796
   19MOL0     C 2473   4.552   6.168   7.570  0.5078 -0.5567  0.7659
   19MOL0    Cl 2474   4.645   6.052   7.669 -0.3110 -0.4498 -0.4902
   19MOL0     C 2475   3.683   6.430   7.201  0.1704  0.9673  0.4474
   19MOL0     C 2476   3.543   6.411   7.182 -0.9360  0.6216 -0.1908
   19MOL0     O 2477   3.338   6.235   7.445 -0.0684  0.1599 -0.3206
   19MOL0     C 2478   3.039   6.373   7.297 -0.3158  0.3845 -0.7629
   19MOL0     C 2479   2.899   6.358   7.316 -0.2041 -1.3177  0.1148
   19MOL0     N 2480   2.110   6.185   7.498 -0.4857  0.2700  0.2232
   19MOL0     N 2481   2.023   6.277   7.485 -0.2700  0.0552  0.0774
   19MOL0     C 2482   1.467   6.880   6.850 -0.2397  0.2485 -0.0225
   19MOL0     C 2483   1.349   6.839   6.784 -0.2274 -0.5818  0.1333
   19MOL0     C 2484   0.919   6.777   6.643  0.1579 -1.2510  0.6845
   19MOL0     C 2485   0.875   6.787   6.506 -0.0194  0.5232  0.3491
   19MOL0     C 2486   0.735   6.790   6.472  0.6177  0.2093 -0.2960
   19MOL0     C 2487   0.641   6.775   6.574  0.0918 -0.5839 -0.3965
   19MOL0     O 2488   0.507   6.773   6.540 -0.3731 -0.4211 -0.2477
   19MOL0     C 2489   0.413   6.737   6.643  0.0709 -0.4356  0.2468
   19MOL0     C 2490   0.268   6.729   6.584 -0.1185  0.9679 -1.4539
   19MOL0     C 2491   0.264   6.632   6.463 -0.4701 -0.2772  0.0720
   19MOL0     C 2492   0.120   6.607   6.427  0.0257 -0.5081  0.4320
   19MOL0     C 2493   0.054   6.498   6.508 -0.0953 -0.8852  0.1564
   19MOL0     C 2494  -0.007   6.416   6.563  0.2530  0.3156 -0.4764
   19MOL0     C 2495   0.681   6.768   6.704 -0.5531 -0.1823 -1.3258
   19MOL0     C 2496   0.816   6.778   6.747 -0.8566  1.2653 -0.3496
   19MOL0     C 2497   0.826   6.788   6.897 -0.5775 -0.3739 -0.0856
   19MOL0     H 2498   1.127   6.954   7.007 -1.6863  0.4702 -3.9451
   19MOL0     H 2499   1.349   7.000   7.136  0.6358  0.6497 -0.8172
   19MOL0     H 2500   1.586   7.185   7.077 -0.7441 -2.2166 -2.6591
   19MOL0     H 2501   1.534   7.065   7.197 -0.8110  0.0874  1.0500
   19MOL0     H 2502   1.764   7.145   7.235  2.3085 -2.4803  2.1238
   19MOL0     H 2503   1.817   7.117   7.076 -0.0509  0.9232  0.1458
   19MOL0     H 2504   1.919   6.955   7.233 -0.8434  0.3321  0.3856
   19MOL0     H 2505   1.832   6.877   7.105  2.6086 -2.9687  1.6907
   19MOL0     H 2506   1.692   6.928   7.380  1.8494  0.8025  1.3149
   19MOL0     H 2507   1.651   6.814   7.246  1.1923  0.6152 -1.7231
   19MOL0     H 2508   1.909   6.787   7.405 -1.8638  1.7627  2.4148
   19MOL0     H 2509   1.759   6.723   7.445 -1.7956  3.4248  0.1393
   19MOL0     H 2510   1.742   6.586   7.249  0.2929  0.4326 -1.9604
   19MOL0     H 2511   1.884   6.656   7.173 -0.2236  2.6712 -0.8943
   19MOL0     H 2512   1.857   6.495   7.440  0.8109  1.2450  0.8737
   19MOL0     H 2513   2.006   6.589   7.392  1.3837 -0.3821 -2.0477
   19MOL0     H 2514   1.868   6.360   7.239 -0.5631 -0.5009  2.1072
   19MOL0     H 2515   2.017   6.443   7.195 -1.5510  2.0517 -0.2974
   19MOL0     H 2516   2.168   6.250   7.183  0.7312  1.5652  0.9184
   19MOL0     H 2517   2.281   5.995   7.460  1.2271  2.7292  2.2042
   19MOL0     H 2518   2.293   6.016   7.279  2.1932 -0.7579  0.1331
   19MOL0     H 2519   2.419   6.224   7.312 -1.5021 -1.8682 -2.6040
   19MOL0     H 2520   2.423   6.185   7.494 -1.5230  1.5439 -0.4467
   19MOL0     H 2521   2.561   6.032   7.267 -0.6842 -0.5102 -0.4134
   19MOL0     H 2522   2.519   5.964   7.429  4.2285  0.9785  2.6887
   19MOL0     H 2523   2.748   6.027   7.390 -1.5418  0.0151 -1.6600
   19MOL0     H 2524   2.671   6.078   7.538 -2.7314  0.3543  0.6161
   19MOL0     H 2525   2.912   6.098   7.550 -0.6643 -0.5021 -0.8553
   19MOL0     H 2526   3.131   6.123   7.526 -2.1129 -1.5467  0.1576
   19MOL0     H 2527   3.435   6.489   7.487 -1.1788 -0.4893 -1.3794
   19MOL0     H 2528   3.680   6.577   7.494 -0.9562  1.2128 -1.1861
   19MOL0     H 2529   3.972   6.449   7.156  2.8161  1.5236 -1.7421
   19MOL0     H 2530   3.909   6.620   7.174  0.5762 -0.3495 -0.8536
   19MOL0     H 2531   4.151   6.598   7.196 -2.1222  1.5898 -1.3558
   19MOL0     H 2532   4.080   6.662   7.337  2.0643  0.1323 -0.1267
   19MOL0     H 2533   4.088   6.450   7.444 -2.6446 -0.2983 -0.6487
   19MOL0     H 2534   4.158   6.359   7.324 -2.0610 -0.1235  1.0120
   19MOL0     H 2535   4.313   6.591   7.453  1.4244 -0.4635 -0.2672
   19MOL0     H 2536   4.365   6.514   7.316 -1.8024  3.4128 -0.0514
   19MOL0     H 2537   4.350   6.287   7.444  1.2873  0.5093 -3.1219
   19MOL0     H 2538   4.278   6.376   7.582  2.2519  1.5994  0.6096
   19MOL0     H 2539   4.558   6.438   7.481  1.0843  2.6486  0.5835
   19MOL0     H 2540   4.456   6.493   7.616  0.9011  0.6648 -1.8675
   19MOL0     H 2541   4.469   6.283   7.733  0.4674  0.7246  0.4199
   19MOL0     H 2542   4.640   6.317   7.683  0.3596 -0.1635  0.1038
   19MOL0     H 2543   4.452   6.127   7.552 -0.8343  1.2656  3.4314
   19MOL0     H 2544   4.606   6.186   7.476 -1.1164 -1.7864 -0.4680
   19MOL0     H 2545   3.747   6.386   7.125 -0.9631 -1.2026  0.6616
   19MOL0     H 2546   3.513   6.368   7.087  1.9626  1.6215 -1.6578
   19MOL0     H 2547   3.080   6.446   7.228  2.0916 -0.1526 -0.0044
   19MOL0     H 2548   2.841   6.426   7.253  1.4027 -2.1589 -2.4355
   19MOL0     H 2549   1.565   6.882   6.804 -0.2116  4.5707 -0.2072
   19MOL0     H 2550   1.345   6.802   6.682  0.0911  0.1241 -0.1445
   19MOL0     H 2551   0.946   6.814   6.429  0.2292 -1.3298 -0.1183
   19MOL0     H 2552   0.705   6.810   6.370 -1.1723  0.1249  0.1854
   19MOL0     H 2553   0.416   6.808   6.727 -0.6461 -0.2449  0.1227
   19MOL0     H 2554   0.433   6.633   6.671 -2.4123 -1.4391 -1.2921
   19MOL0     H 2555   0.229   6.825   6.549 -1.8919  1.2050  0.8901
   19MOL0     H 2556   0.196   6.691   6.658  2.5431  0.5721  1.1085
   19MOL0     H 2557   0.325   6.541   6.470  0.0292  0.1132  0.9872
   19MOL0     H 2558   0.307   6.678   6.374 -1.2820 -3.1563 -1.9665
   19MOL0     H 2559   0.061   6.699   6.437 -0.2203 -0.5742 -0.3270
   19MOL0     H 2560   0.115   6.587   6.320  2.3433  0.1088  0.1642
   19MOL0     H 2561  -0.073   6.343   6.604 -0.1622  0.1126 -1.4829
   19MOL0     H 2562   0.609   6.788   6.783  1.3400  0.6381  0.3084
   19MOL0     H 2563   0.748   6.727   6.944 -1.7501 -0.8412 -2.4695
   19MOL0     H 2564   0.921   6.744   6.931  1.0432  0.6529 -2.9342
   19MOL0     H 2565   0.829   6.897   6.908  2.5016 -0.4244  0.6146
   20MOL0     O 2566   8.500   4.939   3.426  0.3496 -0.1719  0.4485
   20MOL0     C 2567   8.408   4.956   3.503  1.0361  0.0980 -0.3959
   20MOL0     O 2568   8.419   4.982   3.634  0.6692  0.4839 -0.0623
   20MOL0     C 2569   8.525   4.932   3.710 -0.3353 -0.9492  0.9244
   20MOL0     C 2570   8.488   4.908   3.840 -0.2448 -0.2602  0.1635
   20MOL0     C 2571   8.586   4.865   3.933 -0.0385  0.5947 -0.5097
   20MOL0     C 2572   8.718   4.837   3.909 -0.4754  0.2797 -0.0250
   20MOL0     O 2573   8.803   4.771   3.997 -0.4200 -0.3397  0.1002
   20MOL0     C 2574   8.937   4.746   3.951  0.4322 -0.4285  0.0148
   20MOL0     C 2575   9.012   4.672   4.065 -0.6761  0.3326 -0.5336
   20MOL0     C 2576   9.164   4.695   4.040 -0.8982  1.1140 -0.7849
   20MOL0     C 2577   9.235   4.592   4.133  1.0097  0.5252  0.0199
   20MOL0     C 2578   9.392   4.606   4.104  0.2709 -0.2853  0.9592
   20MOL0     C 2579   9.461   4.736   4.146  0.3882  0.3154 -0.1508
   20MOL0     C 2580   9.607   4.719   4.119  0.8423 -0.4277  0.5409
   20MOL0     C 2581   9.687   4.658   4.240  0.6146  0.2268 -0.4384
   20MOL0     N 2582   9.772   4.546   4.194 -0.4661 -0.3608 -0.9470
   20MOL0     C 2583   9.733   4.416   4.172  0.5154 -0.6783 -0.7019
   20MOL0     C 2584   9.852   4.347   4.171  0.5456  0.5187 -0.9524
   20MOL0     C 2585   9.871   4.206   4.172  0.0292  1.1804 -0.6523
   20MOL0     C 2586   9.871   4.126   4.305 -0.5614  0.1072 -0.3500
   20MOL0     C 2587   9.883   3.978   4.274  0.3860 -0.1025 -0.1485
   20MOL0     C 2588  10.015   3.949   4.199 -0.7306  0.5910  0.2813
   20MOL0     O 2589  10.131   3.989   4.277  0.7949  0.2328 -0.2552
   20MOL0     C 2590  10.257   3.954   4.237  0.5239 -0.3781  0.4487
   20MOL0     C 2591  10.290   3.874   4.124  1.1423  0.0662  0.3581
   20MOL0     C 2592  10.421   3.848   4.087  0.3138  0.4309  0.1043
   20MOL0     C 2593  10.529   3.883   4.169  0.1491  0.0469 -0.3830
   20MOL0     C 2594  10.665   3.858   4.133 -0.6648 -0.2936  0.6745
   20MOL0     O 2595  10.756   3.886   4.233 -0.4524 -0.3926  0.0799
   20MOL0     C 2596  10.890   3.908   4.205 -0.3033  0.0569 -0.2024
   20MOL0     C 2597  10.952   3.949   4.081  0.1520 -0.5876  0.6463
   20MOL0     C 2598  11.085   3.960   4.061 -0.6886  0.0588  0.2184
   20MOL0     C 2599  11.173   3.929   4.169  0.6129 -0.0405 -0.3389
   20MOL0     O 2600  11.311   3.944   4.167 -0.1287  0.2856 -0.9911
   20MOL0     C 2601  11.382   3.894   4.059 -1.1238 -0.1512  0.3438
   20MOL0     C 2602  11.515   3.848   4.100  0.3300  0.5876 -0.6603
   20MOL0     C 2603  11.608   3.964   4.125  1.1584  0.6775 -0.6837
   20MOL0     C 2604  11.736   3.908   4.167 -0.2245 -0.3661  0.3936
   20MOL0     C 2605  11.837   4.021   4.164  0.1522  0.6655 -0.4998
   20MOL0     C 2606  11.977   3.971   4.166  0.3186  0.3216  0.1861
   20MOL0     C 2607  12.005   3.889   4.291 -0.0116  0.6369 -0.2129
   20MOL0     C 2608  12.155   3.891   4.323  0.1319  0.1106 -0.0278
   20MOL0    Cl 2609  12.198   4.047   4.415  0.0017 -0.1865 -0.1196
   20MOL0     C 2610  11.116   3.896   4.300  0.0089 -0.8196  0.7462
   20MOL0     C 2611  10.977   3.881   4.311  0.1551  0.1076  0.6374
   20MOL0     O 2612  10.688   3.817   4.021  0.3246  0.5150  0.0013
   20MOL0     C 2613  10.500   3.957   4.287 -0.0588  0.3604  0.3675
   20MOL0     C 2614  10.369   3.991   4.316  0.6712 -0.2330 -0.4049
   20MOL0     N 2615   9.954   4.441   4.184  0.0288 -0.5084  0.3977
   20MOL0     N 2616   9.905   4.560   4.190 -0.1775 -0.7758 -0.3284
   20MOL0     C 2617   8.756   4.873   3.774  0.8501 -0.1953  0.4960
   20MOL0     C 2618   8.663   4.912   3.677  0.1879 -1.0764  0.3924
   20MOL0     C 2619   8.270   4.995   3.449  0.5162 -0.4053  0.3460
   20MOL0     C 2620   8.194   5.100   3.508 -0.3630 -0.4540  0.0831
   20MOL0     C 2621   8.068   5.146   3.448 -0.9072  0.2384 -0.2446
   20MOL0     C 2622   8.029   5.097   3.323  0.1198 -0.5948  0.7177
   20MOL0     O 2623   7.929   5.152   3.245 -0.8499  0.8788 -0.0846
   20MOL0     C 2624   7.799   5.176   3.299 -0.2197  0.5066  0.7587
   20MOL0     C 2625   7.720   5.051   3.257  0.5926  0.3938  0.3117
   20MOL0     C 2626   7.571   5.085   3.254 -0.4363 -0.2528 -0.0029
   20MOL0     C 2627   7.494   4.965   3.195  1.0573  0.7740  0.2409
   20MOL0     C 2628   7.526   4.909   3.058 -0.1121  0.3024 -0.7013
   20MOL0     C 2629   7.562   4.862   2.957 -0.0356  0.4274  0.6407
   20MOL0     C 2630   8.100   4.981   3.281 -0.0818  0.4427  0.3529
   20MOL0     C 2631   8.211   4.930   3.341  0.9088  0.1790 -0.4591
   20MOL0     C 2632   8.266   4.804   3.283 -0.1689  0.1016 -0.1340
   20MOL0     H 2633   8.385   4.925   3.870  0.5765  1.3231  2.3527
   20MOL0     H 2634   8.546   4.850   4.033 -0.3193  1.6628 -0.4579
   20MOL0     H 2635   8.937   4.691   3.856  0.6336  0.4031 -0.4746
   20MOL0     H 2636   8.992   4.840   3.941  0.7564 -0.6969 -0.8368
   20MOL0     H 2637   8.979   4.568   4.072 -0.1690  0.1627 -0.5892
   20MOL0     H 2638   8.996   4.721   4.161  2.0711  3.8967 -1.6818
   20MOL0     H 2639   9.186   4.796   4.077 -0.4688  0.4261  0.9407
   20MOL0     H 2640   9.201   4.689   3.938  3.8247  0.6328  0.7342
   20MOL0     H 2641   9.217   4.601   4.240 -1.6271  1.0019 -0.4130
   20MOL0     H 2642   9.206   4.491   4.103 -1.0050  0.7856  0.9786
   20MOL0     H 2643   9.450   4.524   4.146  1.6958 -0.6128 -1.4310
   20MOL0     H 2644   9.401   4.592   3.996 -1.4745  0.5193  0.6754
   20MOL0     H 2645   9.418   4.825   4.099  2.5101  2.6038  2.0007
   20MOL0     H 2646   9.445   4.751   4.253 -3.4306  1.3709 -0.7032
   20MOL0     H 2647   9.642   4.817   4.085 -1.6489  0.6369  0.7822
   20MOL0     H 2648   9.613   4.655   4.031 -2.6092 -0.3336  0.0765
   20MOL0     H 2649   9.749   4.732   4.292 -1.3703  0.6804  1.4296
   20MOL0     H 2650   9.618   4.604   4.306  1.9576 -3.4073 -1.7427
   20MOL0     H 2651   9.639   4.362   4.164  0.6535 -0.7124 -2.5156
   20MOL0     H 2652   9.782   4.172   4.118  0.9291 -2.4069 -0.1432
   20MOL0     H 2653   9.960   4.184   4.112 -0.3549  2.2331 -1.6374
   20MOL0     H 2654   9.957   4.153   4.367 -1.2472  1.8522 -0.0944
   20MOL0     H 2655   9.783   4.154   4.364  1.2332  2.8234  1.2696
   20MOL0     H 2656   9.797   3.965   4.207 -0.6648  0.5577  1.0175
   20MOL0     H 2657   9.881   3.930   4.372 -0.9390  0.3179  0.0534
   20MOL0     H 2658  10.023   3.989   4.098 -0.3470 -0.4010 -0.0969
   20MOL0     H 2659  10.026   3.840   4.201 -1.6955  0.4738 -0.4822
   20MOL0     H 2660  10.214   3.831   4.060  0.4971 -0.7378  1.6206
   20MOL0     H 2661  10.439   3.780   4.004 -2.6134  1.7864 -1.7806
   20MOL0     H 2662  10.883   3.971   4.001  0.0649 -1.7201  0.3926
   20MOL0     H 2663  11.130   3.982   3.965 -3.0473 -1.9946 -1.5006
   20MOL0     H 2664  11.325   3.813   4.012  3.0674 -1.8507 -2.3666
   20MOL0     H 2665  11.392   3.972   3.983  1.2770  0.5576  1.2941
   20MOL0     H 2666  11.504   3.788   4.190 -1.1435  1.5924 -0.1316
   20MOL0     H 2667  11.563   3.787   4.023  2.9444  2.0324 -0.2973
   20MOL0     H 2668  11.615   4.028   4.036  1.8529 -1.4265 -2.2215
   20MOL0     H 2669  11.574   4.021   4.212 -0.7173 -2.1677  0.5931
   20MOL0     H 2670  11.753   3.832   4.091 -0.9876 -1.9791  1.7663
   20MOL0     H 2671  11.734   3.864   4.267 -2.0497  0.6373  0.8414
   20MOL0     H 2672  11.816   4.081   4.253 -1.0713 -0.2469 -0.1454
   20MOL0     H 2673  11.834   4.090   4.080 -0.9581  0.2979 -0.7802
   20MOL0     H 2674  11.994   3.914   4.074  1.0326  0.3420  0.2998
   20MOL0     H 2675  12.044   4.057   4.154  1.5307 -0.3677  1.7248
   20MOL0     H 2676  11.960   3.789   4.283  0.8097  0.0813  1.6343
   20MOL0     H 2677  11.954   3.943   4.371  1.2593  1.1965  0.2433
   20MOL0     H 2678  12.175   3.815   4.399 -1.3099 -0.9356 -0.6618
   20MOL0     H 2679  12.208   3.889   4.228  1.7614  3.2033  0.6637
   20MOL0     H 2680  11.188   3.892   4.381 -0.6815  0.7606  1.4764
   20MOL0     H 2681  10.931   3.866   4.408 -1.0604 -1.2478 -0.1194
   20MOL0     H 2682  10.571   3.999   4.357 -1.8689  2.1553  1.2443
   20MOL0     H 2683  10.354   4.049   4.407  1.9156  0.4241 -0.5958
   20MOL0     H 2684   8.852   4.863   3.726  0.7064 -1.0467  0.3668
   20MOL0     H 2685   8.714   4.930   3.583  0.6389  1.3639  1.0298
   20MOL0     H 2686   8.236   5.157   3.590  0.7740 -2.2023  0.7626
   20MOL0     H 2687   8.025   5.234   3.493  0.1293  0.9456 -0.6033
   20MOL0     H 2688   7.759   5.273   3.268 -3.0583  0.7017  4.3881
   20MOL0     H 2689   7.791   5.176   3.408  1.4672 -1.5145  0.9491
   20MOL0     H 2690   7.726   4.964   3.323 -1.0166  0.1554  0.1676
   20MOL0     H 2691   7.754   5.024   3.157  2.3794 -0.0497  0.9957
   20MOL0     H 2692   7.558   5.176   3.195 -0.1255  0.9325  1.6958
   20MOL0     H 2693   7.537   5.112   3.354  0.8747  3.4173 -0.4078
   20MOL0     H 2694   7.501   4.889   3.273  1.2308 -0.5863 -1.0480
   20MOL0     H 2695   7.389   4.993   3.197  0.4141 -1.3989 -0.4514
   20MOL0     H 2696   7.574   4.831   2.855  1.7691 -0.8344  1.1938
   20MOL0     H 2697   8.055   4.929   3.197  1.9262 -0.6576 -0.1030
   20MOL0     H 2698   8.349   4.827   3.214 -1.5978  0.9370 -1.6538
   20MOL0     H 2699   8.311   4.744   3.363  0.3162 -1.2837 -1.3919
   20MOL0     H 2700   8.191   4.737   3.239  1.4274 -0.4126 -2.2343
   21MOL0     O 2701   2.935   3.434  11.083  0.2223  0.4905 -0.4317
   21MOL0     C 2702   2.942   3.315  11.118 -0.3783  0.3741  0.0405
   21MOL0     O 2703   3.042   3.260  11.202  0.2598 -0.0927 -0.0177
   21MOL0     C 2704   3.114   3.360  11.262  0.5299  0.0358  0.0461
   21MOL0     C 2705   3.097   3.402  11.398 -0.4398  0.2653 -0.1992
   21MOL0     C 2706   3.170   3.505  11.455  0.1774  0.1338  0.6732
   21MOL0     C 2707   3.274   3.564  11.387 -0.1399  0.0540 -0.5589
   21MOL0     O 2708   3.342   3.663  11.450  0.1891 -0.3820 -0.1846
   21MOL0     C 2709   3.472   3.633  11.496 -0.4382  0.3684 -0.7374
   21MOL0     C 2710   3.486   3.504  11.580 -0.1053 -0.0645 -0.1804
   21MOL0     C 2711   3.630   3.489  11.631  0.1982  0.3362 -0.3066
   21MOL0     C 2712   3.752   3.570  11.577 -0.2479 -0.1431  0.7296
   21MOL0     C 2713   3.885   3.530  11.637 -0.5653  0.0756  0.1641
   21MOL0     C 2714   4.009   3.600  11.580 -0.0348 -0.1087 -0.6682
   21MOL0     C 2715   4.126   3.596  11.674 -0.2080  0.6104  0.9500
   21MOL0     C 2716   4.255   3.664  11.624 -0.9207  0.0037  1.2150
   21MOL0     N 2717   4.374   3.619  11.702  0.3465  0.5775 -0.3672
   21MOL0     C 2718   4.486   3.702  11.725  0.5328 -0.3396 -0.1694
   21MOL0     C 2719   4.578   3.617  11.779 -0.0092 -0.6298 -0.3969
   21MOL0     C 2720   4.702   3.662  11.854  0.0952  0.4098 -0.4662
   21MOL0     C 2721   4.825   3.606  11.786 -0.2901 -0.3204  0.4951
   21MOL0     C 2722   4.856   3.460  11.836  0.1991  0.4976 -0.0142
   21MOL0     C 2723   4.926   3.381  11.726  0.8727 -0.0226 -0.2871
   21MOL0     O 2724   4.948   3.242  11.749  0.0369  0.0065  0.2316
   21MOL0     C 2725   4.838   3.159  11.738 -0.8056  0.7217  0.3062
   21MOL0     C 2726   4.863   3.028  11.787 -0.4589  0.6128  0.2282
   21MOL0     C 2727   4.760   2.934  11.793  0.9392  0.3214 -0.1353
   21MOL0     C 2728   4.631   2.970  11.752 -0.4740 -0.5030 -0.1967
   21MOL0     C 2729   4.521   2.876  11.768  0.2055 -0.3287 -0.5585
   21MOL0     O 2730   4.403   2.920  11.724  0.6428 -0.6542 -0.2045
   21MOL0     C 2731   4.299   2.833  11.715  1.3127  0.5994  0.5717
   21MOL0     C 2732   4.248   2.755  11.816  0.3066 -0.6784 -0.1795
   21MOL0     C 2733   4.137   2.677  11.802 -0.9052 -0.3016  0.1201
   21MOL0     C 2734   4.078   2.663  11.672 -0.2009  0.4192  0.4503
   21MOL0     O 2735   3.977   2.576  11.642 -0.2265  0.1210 -0.5963
   21MOL0     C 2736   3.880   2.551  11.744 -0.3340  0.0330  1.0518
   21MOL0     C 2737   3.777   2.459  11.698  0.2875 -0.3081  0.4418
   21MOL0     C 2738   3.651   2.471  11.781 -0.3249  0.2981  0.3848
   21MOL0     C 2739   3.581   2.611  11.772 -0.5121  0.0803 -0.1943
   21MOL0     C 2740   3.532   2.659  11.632  0.8203 -0.0081 -0.7868
   21MOL0     C 2741   3.451   2.791  11.635 -0.4970  1.0642 -0.1526
   21MOL0     C 2742   3.540   2.910  11.671  0.7876 -0.1520 -0.0367
   21MOL0     C 2743   3.508   3.041  11.601  0.6183  0.5775 -0.1974
   21MOL0    Cl 2744   3.344   3.123  11.634 -0.7865 -0.1670 -0.0955
   21MOL0     C 2745   4.138   2.736  11.567  0.3550  0.3404 -0.4075
   21MOL0     C 2746   4.246   2.817  11.585  0.9305  0.2103  0.3031
   21MOL0     O 2747   4.543   2.756  11.808  0.0400 -0.1617  0.2640
   21MOL0     C 2748   4.600   3.104  11.715  0.3129  0.3875 -0.2578
   21MOL0     C 2749   4.710   3.195  11.696  0.0874  0.0139 -1.0159
   21MOL0     N 2750   4.529   3.487  11.774 -0.6408  0.3970 -0.1290
   21MOL0     N 2751   4.412   3.486  11.719 -0.6854  0.3844 -0.1649
   21MOL0     C 2752   3.302   3.525  11.252 -0.2263 -0.2881 -0.6005
   21MOL0     C 2753   3.223   3.427  11.194  0.3116  0.1803 -0.9570
   21MOL0     C 2754   2.851   3.215  11.058  0.4077  0.0424  0.5422
   21MOL0     C 2755   2.885   3.074  11.062  0.3829  0.1673  0.0320
   21MOL0     C 2756   2.792   2.974  11.040  0.1559 -0.3197 -0.5972
   21MOL0     C 2757   2.662   3.014  10.996 -1.0080  0.7545  0.4048
   21MOL0     O 2758   2.568   2.921  10.962  0.6769  0.5567 -0.3453
   21MOL0     C 2759   2.572   2.786  10.996  0.4558 -0.7664  0.3149
   21MOL0     C 2760   2.454   2.710  10.939  1.0572  0.5371  0.5033
   21MOL0     C 2761   2.320   2.779  10.980  0.2336  0.2380  0.3759
   21MOL0     C 2762   2.280   2.892  10.879 -0.0173  0.4237  1.0122
   21MOL0     C 2763   2.148   2.945  10.909  0.7164  0.0138 -0.3536
   21MOL0     C 2764   2.038   3.003  10.945 -0.3220 -0.5301 -0.0682
   21MOL0     C 2765   2.636   3.151  10.972  0.2213  0.6146  0.5038
   21MOL0     C 2766   2.723   3.249  11.011  0.1882 -0.5603 -0.0495
   21MOL0     C 2767   2.684   3.388  10.992 -0.3957  0.4648 -0.2097
   21MOL0     H 2768   3.008   3.360  11.443  0.3879 -0.0571  1.2220
   21MOL0     H 2769   3.151   3.529  11.560 -3.0737  1.2441 -0.0479
   21MOL0     H 2770   3.535   3.640  11.407 -0.2521 -1.9071 -0.8250
   21MOL0     H 2771   3.494   3.725  11.552 -1.7119 -0.3158  0.9637
   21MOL0     H 2772   3.464   3.416  11.519  0.1645  0.1363 -0.5759
   21MOL0     H 2773   3.419   3.515  11.666 -0.2680  1.4320 -0.4799
   21MOL0     H 2774   3.645   3.382  11.616  5.3949  0.7743 -0.0788
   21MOL0     H 2775   3.626   3.498  11.740  0.7941 -2.5003  0.0295
   21MOL0     H 2776   3.751   3.572  11.467 -3.0900  0.3050  0.6897
   21MOL0     H 2777   3.726   3.674  11.600 -1.7106 -0.3101 -0.0652
   21MOL0     H 2778   3.880   3.550  11.744 -5.1709  2.2565 -0.1939
   21MOL0     H 2779   3.900   3.422  11.628  1.5281  0.3921 -0.6428
   21MOL0     H 2780   4.033   3.540  11.492 -1.5745 -1.9617  0.0920
   21MOL0     H 2781   3.992   3.707  11.561  0.4046 -0.2636 -1.9804
   21MOL0     H 2782   4.152   3.490  11.680 -1.6560 -0.1881 -3.2519
   21MOL0     H 2783   4.090   3.623  11.774 -1.1645 -1.2595  1.1592
   21MOL0     H 2784   4.281   3.632  11.523 -1.7373 -3.9997  2.1010
   21MOL0     H 2785   4.246   3.773  11.635  1.1875  0.4683 -0.8069
   21MOL0     H 2786   4.483   3.810  11.727 -1.7472 -0.2549 -2.5010
   21MOL0     H 2787   4.720   3.770  11.853  3.2346  0.0420  1.8464
   21MOL0     H 2788   4.701   3.631  11.959 -0.2731 -2.0905 -1.1267
   21MOL0     H 2789   4.809   3.600  11.678  0.2801  0.9332  0.3289
   21MOL0     H 2790   4.904   3.679  11.807 -1.0695  0.8837 -0.6004
   21MOL0     H 2791   4.764   3.406  11.857  1.0947 -1.0448  0.1105
   21MOL0     H 2792   4.911   3.446  11.930 -2.6593 -2.8671  1.3547
   21MOL0     H 2793   5.028   3.419  11.715  0.7673  0.5312  0.5679
   21MOL0     H 2794   4.880   3.399  11.629 -1.2424 -2.5939  0.1305
   21MOL0     H 2795   4.960   2.995  11.823 -0.0973  0.1135 -1.1551
   21MOL0     H 2796   4.783   2.837  11.835  2.2360  0.8044  0.3137
   21MOL0     H 2797   4.297   2.743  11.912 -2.8673 -4.2684  1.2230
   21MOL0     H 2798   4.100   2.614  11.882  1.0159  0.7329  1.8998
   21MOL0     H 2799   3.931   2.497  11.825  0.7537 -0.9784 -0.2565
   21MOL0     H 2800   3.839   2.646  11.779 -1.8613  0.6230 -1.9822
   21MOL0     H 2801   3.757   2.469  11.591 -4.2616  1.7241  1.2261
   21MOL0     H 2802   3.815   2.358  11.712  1.5672 -0.1628 -1.5963
   21MOL0     H 2803   3.587   2.397  11.731  0.6556  1.3039 -2.5868
   21MOL0     H 2804   3.680   2.447  11.884  0.5877  1.5706  0.4478
   21MOL0     H 2805   3.644   2.695  11.804 -0.9424 -0.1734  1.3625
   21MOL0     H 2806   3.493   2.605  11.836 -0.5271 -1.5915 -0.3418
   21MOL0     H 2807   3.473   2.579  11.587  0.0206 -0.2866  0.7059
   21MOL0     H 2808   3.618   2.672  11.565  1.6917 -2.0680 -0.1309
   21MOL0     H 2809   3.414   2.817  11.535 -0.7023  0.7557 -0.1574
   21MOL0     H 2810   3.370   2.793  11.708 -0.2011  0.0983  0.2241
   21MOL0     H 2811   3.646   2.891  11.651  0.9837  0.8655 -0.0194
   21MOL0     H 2812   3.523   2.928  11.778 -0.8439  0.1135 -0.3211
   21MOL0     H 2813   3.587   3.114  11.621  0.4611 -0.0391  3.4409
   21MOL0     H 2814   3.511   3.022  11.494  0.9617 -2.0818  0.2165
   21MOL0     H 2815   4.091   2.725  11.470  1.7685 -4.0435 -0.8094
   21MOL0     H 2816   4.286   2.875  11.502  0.5047  1.3511  0.8790
   21MOL0     H 2817   4.496   3.133  11.710  0.1649  0.4794  2.0614
   21MOL0     H 2818   4.685   3.293  11.657  0.9917  0.5760 -0.2167
   21MOL0     H 2819   3.382   3.570  11.195 -2.5795  0.9385 -3.2323
   21MOL0     H 2820   3.258   3.395  11.096  2.8639  0.6216 -0.2536
   21MOL0     H 2821   2.986   3.040  11.086  1.2890  0.8813 -2.5012
   21MOL0     H 2822   2.830   2.872  11.043  1.2027  0.0358 -1.1546
   21MOL0     H 2823   2.584   2.786  11.105  1.4712 -0.5589  0.2134
   21MOL0     H 2824   2.663   2.739  10.956 -0.3100 -1.4701 -0.6396
   21MOL0     H 2825   2.454   2.604  10.966 -0.1395  0.6905  1.1741
   21MOL0     H 2826   2.459   2.703  10.830 -0.9763 -1.2605  0.4522
   21MOL0     H 2827   2.319   2.805  11.086 -2.0627 -0.7146  0.6461
   21MOL0     H 2828   2.234   2.713  10.969  1.5498 -1.5747  0.5389
   21MOL0     H 2829   2.353   2.974  10.877  2.6038 -1.7123  2.1680
   21MOL0     H 2830   2.282   2.848  10.779 -0.1031 -1.6705  1.8920
   21MOL0     H 2831   1.952   3.051  10.988  0.7508  0.6379  0.8373
   21MOL0     H 2832   2.538   3.173  10.932 -0.2053 -0.1988  1.0593
   21MOL0     H 2833   2.692   3.441  11.087  1.6219  0.9009 -0.5860
   21MOL0     H 2834   2.746   3.435  10.915  0.4851 -0.7442 -0.2643
   21MOL0     H 2835   2.581   3.393  10.954 -1.8932 -3.2875  2.6328
   22MOL0     O 2836   4.870   8.490   5.177  0.3433 -0.0331 -0.2205
   22MOL0     C 2837   4.835   8.432   5.284 -0.2986 -0.2660 -0.3216
   22MOL0     O 2838   4.899   8.443   5.405  0.0323 -0.3198 -0.4730
   22MOL0     C 2839   4.990   8.549   5.421 -0.5057 -0.1720 -0.6945
   22MOL0     C 2840   5.080   8.528   5.522  0.8570 -0.3057  0.6804
   22MOL0     C 2841   5.173   8.630   5.553  0.3069 -0.1495 -0.0466
   22MOL0     C 2842   5.160   8.769   5.509  0.7334 -0.5407  0.0063
   22MOL0     O 2843   5.225   8.879   5.560 -0.1525  0.1738  0.1746
   22MOL0     C 2844   5.355   8.857   5.624 -0.4817 -0.7320  0.2534
   22MOL0     C 2845   5.365   8.952   5.740 -0.4220  0.3113 -0.0544
   22MOL0     C 2846   5.487   8.928   5.822 -0.1246  0.4505 -0.8891
   22MOL0     C 2847   5.537   9.046   5.904 -0.2217 -0.2876  0.1995
   22MOL0     C 2848   5.635   9.137   5.824  0.0496  0.3973 -0.4053
   22MOL0     C 2849   5.664   9.271   5.908  0.0518 -0.9153  0.0645
   22MOL0     C 2850   5.721   9.378   5.810 -0.0961 -0.0242 -0.8510
   22MOL0     C 2851   5.772   9.512   5.874  0.2303  0.0146 -0.2715
   22MOL0     N 2852   5.762   9.629   5.782  0.0299  0.4376 -0.6235
   22MOL0     C 2853   5.646   9.691   5.739  0.2037  0.1795  0.3449
   22MOL0     C 2854   5.685   9.798   5.672  0.1927 -0.1953 -0.8047
   22MOL0     C 2855   5.595   9.905   5.622  0.3576  0.1663 -0.3481
   22MOL0     C 2856   5.507   9.970   5.739 -0.2729  0.0595 -0.2476
   22MOL0     C 2857   5.442  10.096   5.688 -0.2903  0.8324  0.3639
   22MOL0     C 2858   5.503  10.230   5.735  0.2460  1.2564 -0.0242
   22MOL0     O 2859   5.422  10.333   5.683 -0.5838  0.5905 -0.1465
   22MOL0     C 2860   5.474  10.454   5.717  0.3630 -0.5162 -0.8029
   22MOL0     C 2861   5.403  10.547   5.789 -1.0942 -0.7581  0.4375
   22MOL0     C 2862   5.451  10.668   5.821 -0.1615 -0.3606  0.3409
   22MOL0     C 2863   5.577  10.707   5.780  0.6081  0.7061 -0.2459
   22MOL0     C 2864   5.633  10.827   5.821 -0.4345  0.9634 -0.8724
   22MOL0     O 2865   5.768  10.818   5.872 -0.1370  0.5238 -0.0250
   22MOL0     C 2866   5.845  10.928   5.867  0.9553 -0.2444  0.1142
   22MOL0     C 2867   5.840  11.033   5.772  0.4446 -0.5471 -0.3596
   22MOL0     C 2868   5.948  11.122   5.764 -0.2209 -0.2669 -0.2386
   22MOL0     C 2869   6.055  11.114   5.858 -0.7924  0.4296 -0.3250
   22MOL0     O 2870   6.175  11.192   5.843  0.1265  0.8400  0.1192
   22MOL0     C 2871   6.206  11.262   5.724 -0.9082  0.4829 -0.1788
   22MOL0     C 2872   6.315  11.356   5.771 -0.7697  0.0611  0.1051
   22MOL0     C 2873   6.439  11.281   5.822 -0.8280  0.5060 -0.0417
   22MOL0     C 2874   6.539  11.390   5.864 -0.2607 -0.4566  1.1478
   22MOL0     C 2875   6.656  11.327   5.950  0.7537 -0.4786  0.2748
   22MOL0     C 2876   6.746  11.223   5.868 -0.0714  0.9948  0.4341
   22MOL0     C 2877   6.800  11.274   5.733  0.0339  0.0169  1.0034
   22MOL0     C 2878   6.935  11.209   5.685  0.5177  0.8494 -0.9197
   22MOL0    Cl 2879   7.073  11.263   5.768  0.3040 -0.1260  0.2445
   22MOL0     C 2880   6.056  11.016   5.965  0.2085  0.0162 -0.2816
   22MOL0     C 2881   5.944  10.934   5.970 -0.5560 -0.1064  0.6311
   22MOL0     O 2882   5.566  10.928   5.817  0.1635 -0.0834  0.0532
   22MOL0     C 2883   5.648  10.619   5.696  0.0784 -0.4563 -0.6947
   22MOL0     C 2884   5.600  10.491   5.664  0.2208 -0.1433  0.3075
   22MOL0     N 2885   5.826   9.795   5.659 -0.4076  0.0818 -0.3221
   22MOL0     N 2886   5.868   9.697   5.736  0.2140  0.6774  0.2772
   22MOL0     C 2887   5.071   8.790   5.403 -0.0256 -0.0369  0.5677
   22MOL0     C 2888   4.987   8.678   5.359 -0.8413  0.2647  0.0739
   22MOL0     C 2889   4.719   8.344   5.274  0.2192 -1.2913  0.1974
   22MOL0     C 2890   4.722   8.243   5.181 -0.0636 -0.2295 -0.5266
   22MOL0     C 2891   4.610   8.171   5.160 -0.2282  0.0806  0.7244
   22MOL0     C 2892   4.489   8.192   5.229  0.0205 -0.2284 -0.6202
   22MOL0     O 2893   4.370   8.134   5.212 -0.5830 -0.0911 -0.1377
   22MOL0     C 2894   4.355   8.024   5.121 -0.2238 -0.1796 -0.0722
   22MOL0     C 2895   4.249   7.928   5.191  0.6142 -1.5962  0.3694
   22MOL0     C 2896   4.109   7.984   5.187  0.0346  0.5036  0.9123
   22MOL0     C 2897   4.003   7.870   5.213 -0.3046 -0.3827  0.0216
   22MOL0     C 2898   3.880   7.911   5.273 -0.4298  0.0707  0.3280
   22MOL0     C 2899   3.789   7.944   5.339  0.1345 -0.4440  0.6509
   22MOL0     C 2900   4.489   8.300   5.318  0.2006  0.1964 -0.8734
   22MOL0     C 2901   4.606   8.364   5.354 -0.4138 -0.8714 -0.4870
   22MOL0     C 2902   4.608   8.466   5.462 -0.5424 -0.0562  0.1459
   22MOL0     H 2903   5.089   8.433   5.574  0.0620  0.5671  2.5197
   22MOL0     H 2904   5.246   8.592   5.624  1.0589  1.5662  0.1324
   22MOL0     H 2905   5.381   8.753   5.647 -2.9602 -2.1303 -2.5573
   22MOL0     H 2906   5.426   8.889   5.548 -0.8303  2.9766  1.3220
   22MOL0     H 2907   5.274   8.954   5.800  0.8160 -1.0482  1.9869
   22MOL0     H 2908   5.377   9.055   5.704 -1.8605  0.2162 -0.8745
   22MOL0     H 2909   5.574   8.889   5.768  1.6485 -0.4084  2.2724
   22MOL0     H 2910   5.471   8.856   5.903 -0.3536  1.8844  0.3847
   22MOL0     H 2911   5.458   9.110   5.942  0.2313 -0.4981  1.5515
   22MOL0     H 2912   5.603   9.027   5.989 -0.4421  2.2710  0.9968
   22MOL0     H 2913   5.724   9.079   5.798 -0.5693  0.0445 -1.8389
   22MOL0     H 2914   5.582   9.164   5.732  1.9014 -1.4144 -2.1078
   22MOL0     H 2915   5.564   9.300   5.941  0.0273 -1.9696  0.9669
   22MOL0     H 2916   5.730   9.253   5.993 -1.7697  2.8589  2.5305
   22MOL0     H 2917   5.635   9.405   5.748  0.6112  0.6800 -1.5461
   22MOL0     H 2918   5.800   9.333   5.749 -1.2851  0.7624 -3.0731
   22MOL0     H 2919   5.707   9.542   5.957  3.0818  3.9878  0.8171
   22MOL0     H 2920   5.875   9.516   5.912  0.4918 -1.7508 -0.7269
   22MOL0     H 2921   5.542   9.672   5.763  0.4224 -0.7398  0.6028
   22MOL0     H 2922   5.665   9.979   5.583  0.7982  0.8432  1.5868
   22MOL0     H 2923   5.525   9.869   5.547  0.2308  1.6677 -0.9794
   22MOL0     H 2924   5.427   9.899   5.765 -0.1391 -0.6761 -1.6945
   22MOL0     H 2925   5.575   9.975   5.824 -0.8302  1.9500  0.1260
   22MOL0     H 2926   5.334  10.096   5.702 -0.8188 -2.4032 -2.3866
   22MOL0     H 2927   5.442  10.093   5.578 -0.1945 -1.6710  0.3743
   22MOL0     H 2928   5.611  10.225   5.719  0.4069 -3.9979  0.7035
   22MOL0     H 2929   5.497  10.239   5.844  2.3764  0.3139  0.2270
   22MOL0     H 2930   5.300  10.527   5.818 -0.5303 -1.4155  2.1629
   22MOL0     H 2931   5.387  10.737   5.876 -1.2934 -0.1924 -1.1503
   22MOL0     H 2932   5.759  11.037   5.700 -0.7706 -0.6559  0.9668
   22MOL0     H 2933   5.928  11.208   5.700  2.0752  1.7966  1.6210
   22MOL0     H 2934   6.250  11.206   5.640  0.5275  0.8596  0.2892
   22MOL0     H 2935   6.130  11.332   5.687 -2.2105 -1.7644 -2.0893
   22MOL0     H 2936   6.333  11.428   5.691 -2.5937 -0.7814 -1.1198
   22MOL0     H 2937   6.274  11.425   5.846  0.0375 -0.0644  0.6739
   22MOL0     H 2938   6.418  11.224   5.912  1.5392  2.8642  2.1961
   22MOL0     H 2939   6.478  11.226   5.735 -2.2017  0.4195 -0.6249
   22MOL0     H 2940   6.485  11.472   5.913 -1.1162  0.3746 -1.0399
   22MOL0     H 2941   6.587  11.439   5.779 -0.1415 -1.4577  0.6212
   22MOL0     H 2942   6.618  11.274   6.039 -0.0181  0.0057  0.2435
   22MOL0     H 2943   6.721  11.411   5.976  1.9371 -1.6680  1.3308
   22MOL0     H 2944   6.830  11.198   5.933  0.3979 -1.5827 -1.0088
   22MOL0     H 2945   6.694  11.127   5.852  1.5797 -1.3603  6.4285
   22MOL0     H 2946   6.804  11.383   5.741  0.5800  0.1390 -0.5143
   22MOL0     H 2947   6.723  11.246   5.661  1.1467  0.6144 -0.4921
   22MOL0     H 2948   6.919  11.101   5.688  1.4293  0.7233  1.6975
   22MOL0     H 2949   6.942  11.226   5.577  0.5317  0.4583 -0.9822
   22MOL0     H 2950   6.132  11.011   6.042 -0.0777 -1.0730 -0.0564
   22MOL0     H 2951   5.943  10.849   6.036 -0.5122  0.3158  1.1834
   22MOL0     H 2952   5.749  10.643   5.664 -0.6278  0.2455 -2.5685
   22MOL0     H 2953   5.664  10.430   5.602 -0.5304  2.3835 -3.2307
   22MOL0     H 2954   5.056   8.889   5.361  0.7777 -0.6479 -1.2766
   22MOL0     H 2955   4.908   8.690   5.285  0.9345 -0.4653 -2.0538
   22MOL0     H 2956   4.813   8.220   5.127 -0.2923  0.6291 -1.2997
   22MOL0     H 2957   4.611   8.086   5.093 -2.6232 -0.8562  1.7710
   22MOL0     H 2958   4.442   7.959   5.125 -1.1956 -1.4975  0.5091
   22MOL0     H 2959   4.329   8.048   5.017  1.7350  0.7567 -0.3946
   22MOL0     H 2960   4.265   7.926   5.299 -4.0172  0.0321  1.3577
   22MOL0     H 2961   4.243   7.825   5.155  1.5951 -1.5891  0.1645
   22MOL0     H 2962   4.082   8.025   5.089  1.8523  0.4856  0.3772
   22MOL0     H 2963   4.090   8.061   5.263  2.3379  0.3034  1.7602
   22MOL0     H 2964   3.976   7.824   5.117  1.5467 -1.9690  0.2096
   22MOL0     H 2965   4.038   7.788   5.275 -3.9738 -1.3463  1.0303
   22MOL0     H 2966   3.722   7.993   5.407 -2.0304 -2.5729  0.1918
   22MOL0     H 2967   4.397   8.325   5.369  0.1818  0.3502 -0.9791
   22MOL0     H 2968   4.509   8.514   5.456 -1.2687 -1.3367  1.2484
   22MOL0     H 2969   4.622   8.400   5.548 -1.6672 -1.5467 -0.7667
   22MOL0     H 2970   4.688   8.541   5.467 -2.2574  1.8126  1.4787
   23MOL0     O 2971   7.685   0.495   6.611  0.6489 -0.0000  0.8427
   23MOL0     C 2972   7.599   0.554   6.544  0.5332 -0.5521 -0.1769
   23MOL0     O 2973   7.592   0.538   6.409  0.7890 -0.0945 -0.0113
   23MOL0     C 2974   7.693   0.505   6.323 -0.5992  0.5361 -1.0109
   23MOL0     C 2975   7.687   0.400   6.227  0.1534 -0.1458 -0.3749
   23MOL0     C 2976   7.804   0.365   6.157  0.4370 -0.1387 -0.0444
   23MOL0     C 2977   7.923   0.438   6.172 -0.1801  0.6943  0.1583
   23MOL0     O 2978   8.034   0.382   6.114  0.1083  0.3287 -0.4706
   23MOL0     C 2979   8.161   0.414   6.176 -0.2531 -0.0258 -0.7855
   23MOL0     C 2980   8.255   0.347   6.074 -0.4643 -0.3196 -1.1341
   23MOL0     C 2981   8.404   0.386   6.120  0.2136 -0.2914  0.5166
   23MOL0     C 2982   8.505   0.324   6.015 -0.3250  0.8774  0.3202
   23MOL0     C 2983   8.653   0.353   6.059 -0.8797 -0.3277  0.3322
   23MOL0     C 2984   8.757   0.329   5.947 -0.2484  0.1233 -0.6794
   23MOL0     C 2985   8.911   0.320   5.979 -0.6157 -0.3500  0.4001
   23MOL0     C 2986   8.968   0.438   6.060  0.3522 -1.0179  0.1934
   23MOL0     N 2987   9.116   0.429   6.087  0.9493  0.6068  1.0067
   23MOL0     C 2988   9.169   0.315   6.148 -0.7720 -0.7167 -0.4830
   23MOL0     C 2989   9.302   0.335   6.135 -0.1345  0.8024  0.4834
   23MOL0     C 2990   9.392   0.245   6.203 -0.2572  0.0595 -0.3465
   23MOL0     C 2991   9.523   0.230   6.117 -1.0011  0.1422 -0.1679
   23MOL0     C 2992   9.621   0.157   6.205  0.1761 -0.2561  0.2920
   23MOL0     C 2993   9.759   0.146   6.147 -0.0726 -0.0314 -0.0370
   23MOL0     O 2994   9.827   0.084   6.256 -0.1174  0.1185 -1.3230
   23MOL0     C 2995   9.937   0.015   6.226 -0.3698 -0.3771  0.5813
   23MOL0     C 2996   9.974  -0.086   6.309 -0.0184 -0.6068  0.3031
   23MOL0     C 2997  10.082  -0.169   6.289 -0.1541 -0.1281  0.3217
   23MOL0     C 2998  10.167  -0.154   6.178 -0.0408  0.1357  1.0900
   23MOL0     C 2999  10.274  -0.250   6.155 -0.1038  0.0005 -0.2337
   23MOL0     O 3000  10.295  -0.347   6.247  0.6341 -0.5724 -0.7002
   23MOL0     C 3001  10.374  -0.453   6.212 -0.2955  0.7169  0.4329
   23MOL0     C 3002  10.335  -0.551   6.115 -0.3306  0.1995 -0.3433
   23MOL0     C 3003  10.418  -0.652   6.073 -1.0296  0.5517  0.4527
   23MOL0     C 3004  10.554  -0.656   6.120 -0.5478 -0.0993  0.3159
   23MOL0     O 3005  10.640  -0.748   6.066 -0.3203 -0.1907  0.0510
   23MOL0     C 3006  10.668  -0.726   5.930  0.6497  0.4222  0.2782
   23MOL0     C 3007  10.680  -0.856   5.853 -0.0761  0.2551 -0.8923
   23MOL0     C 3008  10.546  -0.923   5.843 -0.2431 -0.1255 -0.3209
   23MOL0     C 3009  10.461  -0.862   5.728 -0.7806 -0.0464 -0.1577
   23MOL0     C 3010  10.318  -0.908   5.740  0.0645  0.4885 -0.0941
   23MOL0     C 3011  10.214  -0.812   5.817 -0.3104  0.4854  0.6635
   23MOL0     C 3012  10.067  -0.868   5.803  0.5900 -0.1996 -0.8164
   23MOL0     C 3013   9.982  -0.807   5.930 -0.1334 -0.1588  0.2719
   23MOL0    Cl 3014  10.022  -0.637   5.962  0.1083 -0.2038 -0.2237
   23MOL0     C 3015  10.601  -0.556   6.217  0.4456  0.4275 -0.1538
   23MOL0     C 3016  10.505  -0.460   6.264  0.1123  0.6350 -0.2559
   23MOL0     O 3017  10.330  -0.239   6.049 -0.5268 -0.1612 -0.7484
   23MOL0     C 3018  10.131  -0.048   6.085  0.2600  0.2349  0.9906
   23MOL0     C 3019  10.017   0.034   6.112 -0.2846 -0.7375 -0.5168
   23MOL0     N 3020   9.333   0.449   6.071 -0.3179  0.1835 -0.4718
   23MOL0     N 3021   9.216   0.505   6.036  0.5537  0.2132  0.6306
   23MOL0     C 3022   7.929   0.537   6.270 -0.0562  0.2593 -0.1352
   23MOL0     C 3023   7.815   0.573   6.341  0.4693  0.7757 -0.0321
   23MOL0     C 3024   7.495   0.623   6.617 -0.4814 -0.4256  0.2911
   23MOL0     C 3025   7.502   0.635   6.758 -0.3144 -0.4163 -0.8485
   23MOL0     C 3026   7.408   0.693   6.837 -0.2014  0.0950 -0.6605
   23MOL0     C 3027   7.297   0.751   6.785 -0.5863 -0.9826  0.3704
   23MOL0     O 3028   7.206   0.830   6.861 -0.3583  0.2705 -0.3109
   23MOL0     C 3029   7.195   0.818   7.007 -0.2834 -0.5510  0.9839
   23MOL0     C 3030   7.048   0.850   7.043  0.5157 -0.5964 -0.0129
   23MOL0     C 3031   6.951   0.757   6.976  0.2310 -1.1104  0.0128
   23MOL0     C 3032   6.835   0.830   6.903 -0.5536 -0.0238 -0.6685
   23MOL0     C 3033   6.877   0.918   6.790 -0.4201 -0.2120 -0.9465
   23MOL0     C 3034   6.912   0.999   6.705 -0.0755  0.4254 -0.0828
   23MOL0     C 3035   7.285   0.750   6.651  0.4993  0.1000  0.1921
   23MOL0     C 3036   7.370   0.685   6.563 -0.8786  0.2555  0.5445
   23MOL0     C 3037   7.331   0.671   6.414 -0.0494 -0.0199 -0.9758
   23MOL0     H 3038   7.593   0.347   6.219 -1.3259  1.8959  1.9083
   23MOL0     H 3039   7.804   0.282   6.087 -0.1638  1.4683 -2.0448
   23MOL0     H 3040   8.195   0.518   6.174  1.2930 -0.4610  0.5781
   23MOL0     H 3041   8.172   0.369   6.275  2.8024  1.3801 -0.3619
   23MOL0     H 3042   8.237   0.393   5.977 -2.3781 -0.4110 -0.8763
   23MOL0     H 3043   8.236   0.239   6.067  1.5435 -1.0833  2.5693
   23MOL0     H 3044   8.421   0.338   6.217 -0.1871 -0.2341  0.6157
   23MOL0     H 3045   8.423   0.493   6.117  3.3715 -0.7442  0.6960
   23MOL0     H 3046   8.482   0.218   6.002 -2.0750  1.2694 -0.1082
   23MOL0     H 3047   8.479   0.376   5.922 -2.3167 -0.7428 -0.0965
   23MOL0     H 3048   8.653   0.461   6.076 -0.5599 -0.3118  0.2359
   23MOL0     H 3049   8.698   0.304   6.146 -2.9433 -1.8858  0.5925
   23MOL0     H 3050   8.717   0.244   5.890 -2.9489 -0.2108  1.5250
   23MOL0     H 3051   8.741   0.417   5.884  0.7768  0.1700 -0.8909
   23MOL0     H 3052   8.960   0.343   5.885  0.8453  1.0428  1.4450
   23MOL0     H 3053   8.932   0.218   6.013 -3.1279 -0.6120  1.3790
   23MOL0     H 3054   8.937   0.527   6.004 -1.9349 -2.2148 -0.5940
   23MOL0     H 3055   8.922   0.448   6.158 -1.6376 -2.0420 -0.5795
   23MOL0     H 3056   9.126   0.229   6.200 -2.2536 -0.1274 -0.6841
   23MOL0     H 3057   9.418   0.293   6.298  2.3488 -0.9752 -0.4291
   23MOL0     H 3058   9.349   0.150   6.237 -0.3356 -0.3731 -1.5962
   23MOL0     H 3059   9.512   0.170   6.026  1.5887 -1.3891  0.4101
   23MOL0     H 3060   9.566   0.323   6.080 -0.5850 -1.1151 -3.1946
   23MOL0     H 3061   9.596   0.052   6.224 -2.1303 -0.2962 -2.2676
   23MOL0     H 3062   9.636   0.217   6.295  0.6008  0.3620 -0.1836
   23MOL0     H 3063   9.808   0.240   6.122  0.6338 -0.5549 -0.6965
   23MOL0     H 3064   9.759   0.076   6.062 -1.7120  1.2933 -1.1882
   23MOL0     H 3065   9.914  -0.120   6.393 -0.8859 -0.9440 -0.4426
   23MOL0     H 3066  10.107  -0.247   6.360  0.3121 -0.1963  0.0915
   23MOL0     H 3067  10.234  -0.534   6.081 -0.8909 -0.0865  1.0784
   23MOL0     H 3068  10.392  -0.730   6.002  1.8966 -1.7603  1.6756
   23MOL0     H 3069  10.592  -0.661   5.884 -0.2824 -0.2678  0.7904
   23MOL0     H 3070  10.765  -0.676   5.928  0.5878  0.6808  2.0379
   23MOL0     H 3071  10.722  -0.846   5.752  1.9217 -2.6239 -0.4806
   23MOL0     H 3072  10.746  -0.923   5.909 -0.3111 -0.4206 -1.4024
   23MOL0     H 3073  10.556  -1.030   5.821 -1.4925 -0.4335  0.4984
   23MOL0     H 3074  10.490  -0.921   5.937  1.4941  2.4188  0.7552
   23MOL0     H 3075  10.499  -0.910   5.637  1.3728  4.1431 -1.7165
   23MOL0     H 3076  10.467  -0.753   5.726  4.1982 -0.0080  1.7796
   23MOL0     H 3077  10.321  -1.013   5.773  0.0973 -0.0585 -1.7720
   23MOL0     H 3078  10.278  -0.930   5.641 -3.5485  1.2258  1.0343
   23MOL0     H 3079  10.238  -0.832   5.922  1.3305 -1.8272 -0.0510
   23MOL0     H 3080  10.220  -0.709   5.782 -3.6890  0.3392 -0.6861
   23MOL0     H 3081  10.069  -0.978   5.801  2.0951 -0.2828  1.3793
   23MOL0     H 3082  10.020  -0.844   5.708 -1.8577  1.1683  0.6420
   23MOL0     H 3083   9.876  -0.822   5.904 -0.4241  2.9169 -0.7448
   23MOL0     H 3084  10.004  -0.860   6.023  0.6526 -0.1628  0.0860
   23MOL0     H 3085  10.707  -0.559   6.241  0.5131 -3.9288 -0.2637
   23MOL0     H 3086  10.539  -0.381   6.331 -3.2437  2.4938 -0.5107
   23MOL0     H 3087  10.178  -0.032   5.989 -1.1787  2.8231  0.6327
   23MOL0     H 3088   9.985   0.101   6.033 -2.5316 -0.8235  0.2428
   23MOL0     H 3089   8.020   0.590   6.293  1.1771 -2.1898  1.0767
   23MOL0     H 3090   7.821   0.653   6.415 -1.0643  4.3380 -3.4293
   23MOL0     H 3091   7.583   0.594   6.817  0.6307  0.6912 -1.3435
   23MOL0     H 3092   7.426   0.695   6.944  1.1435  0.3262 -0.8658
   23MOL0     H 3093   7.263   0.888   7.057 -1.5163  0.9265  0.6721
   23MOL0     H 3094   7.221   0.718   7.043  1.8847 -0.1709  0.5986
   23MOL0     H 3095   7.038   0.957   7.026  1.5177 -0.2964  1.1041
   23MOL0     H 3096   7.046   0.846   7.153  0.5744 -0.2623  0.0007
   23MOL0     H 3097   6.909   0.703   7.061 -1.1407  2.2370  1.6343
   23MOL0     H 3098   6.996   0.691   6.901  2.2057  1.3604 -1.1162
   23MOL0     H 3099   6.767   0.753   6.866  1.1924 -1.6428 -0.6825
   23MOL0     H 3100   6.793   0.899   6.977 -0.7763  0.3059 -1.0978
   23MOL0     H 3101   6.937   1.074   6.633 -1.4600  0.5459 -0.4621
   23MOL0     H 3102   7.205   0.815   6.615  1.0147  0.4619 -0.3217
   23MOL0     H 3103   7.331   0.567   6.380 -2.3001 -0.0782 -0.9970
   23MOL0     H 3104   7.224   0.693   6.405  0.0688  0.3640 -1.4666
   23MOL0     H 3105   7.394   0.739   6.357 -0.1332  1.7247  0.8914
   24MOL0     O 3106   5.819   7.908  10.896  0.0111 -0.5156 -0.2194
   24MOL0     C 3107   5.799   8.000  10.814 -0.1803 -0.4797  0.1803
   24MOL0     O 3108   5.900   8.067  10.737 -0.3095 -0.0988  0.2158
   24MOL0     C 3109   6.030   8.062  10.772 -0.0294 -0.1169 -0.0306
   24MOL0     C 3110   6.071   8.068  10.907  0.2403  0.2450 -0.1198
   24MOL0     C 3111   6.205   8.094  10.941  1.3125 -0.4757 -0.1716
   24MOL0     C 3112   6.303   8.084  10.836  0.7902 -0.5023  0.5725
   24MOL0     O 3113   6.430   8.063  10.871 -0.5572 -0.1121  0.2955
   24MOL0     C 3114   6.485   8.148  10.968  0.1141 -0.9386 -0.0105
   24MOL0     C 3115   6.633   8.134  10.964  0.2058 -0.9140  0.1331
   24MOL0     C 3116   6.687   8.003  11.001  0.4110 -0.3466 -0.3546
   24MOL0     C 3117   6.840   7.990  11.027 -0.0682  0.2556 -0.0841
   24MOL0     C 3118   6.884   7.844  11.054 -0.0857 -0.3241  0.0155
   24MOL0     C 3119   7.024   7.828  11.111  0.8269  0.3470  0.1744
   24MOL0     C 3120   7.139   7.863  11.026  0.3953 -0.1376  0.6095
   24MOL0     C 3121   7.164   7.772  10.909  0.2817 -0.3078  0.7572
   24MOL0     N 3122   7.252   7.846  10.814  1.1299 -1.3942 -0.0547
   24MOL0     C 3123   7.384   7.845  10.811 -0.0026  0.6331  0.2645
   24MOL0     C 3124   7.422   7.933  10.712 -0.4352  0.6000 -0.3676
   24MOL0     C 3125   7.561   7.963  10.656  0.0033 -0.9462  0.1301
   24MOL0     C 3126   7.561   8.007  10.515  0.1496  0.0623  0.2293
   24MOL0     C 3127   7.706   7.985  10.457  0.4565 -0.8759  0.0637
   24MOL0     C 3128   7.727   8.063  10.333  0.1065  0.1551  0.0288
   24MOL0     O 3129   7.759   8.202  10.356  0.2116  1.0292  0.0825
   24MOL0     C 3130   7.886   8.230  10.374 -0.6390 -0.3477  0.0936
   24MOL0     C 3131   7.967   8.213  10.264 -0.4125  0.3218  0.0663
   24MOL0     C 3132   8.101   8.240  10.267  0.0786  0.1481 -0.2220
   24MOL0     C 3133   8.160   8.278  10.394 -0.0133 -0.4056 -0.2781
   24MOL0     C 3134   8.302   8.295  10.413 -0.2736  0.1645 -0.6297
   24MOL0     O 3135   8.351   8.293  10.544 -0.9278 -0.3891 -0.5041
   24MOL0     C 3136   8.484   8.292  10.584  0.3258 -0.3479  0.6181
   24MOL0     C 3137   8.581   8.371  10.521  0.2054 -0.4879  1.3069
   24MOL0     C 3138   8.713   8.360  10.560  0.0048  0.4450 -0.0063
   24MOL0     C 3139   8.746   8.280  10.677 -0.3541  0.0759  0.5686
   24MOL0     O 3140   8.880   8.279  10.729 -0.0276 -0.0928  0.2541
   24MOL0     C 3141   8.930   8.159  10.801 -0.3304  0.6083  0.6412
   24MOL0     C 3142   9.080   8.183  10.824 -0.2060  0.4646 -0.4806
   24MOL0     C 3143   9.150   8.062  10.885  0.2568  0.2560 -0.2398
   24MOL0     C 3144   9.300   8.066  10.881  0.6224  0.4137  0.7027
   24MOL0     C 3145   9.364   7.935  10.940 -0.2766 -0.1866  0.4309
   24MOL0     C 3146   9.312   7.906  11.083 -0.4323  0.0325  0.1856
   24MOL0     C 3147   9.373   7.773  11.129  1.0090 -0.3934  0.4343
   24MOL0     C 3148   9.289   7.734  11.246  0.2104  0.4963  0.1542
   24MOL0    Cl 3149   9.325   7.568  11.261  0.4074 -0.4347  0.0746
   24MOL0     C 3150   8.644   8.201  10.744  0.1427 -0.3842  0.0726
   24MOL0     C 3151   8.521   8.201  10.689  0.2890 -0.9026  0.1844
   24MOL0     O 3152   8.363   8.313  10.310 -0.3166  0.1490  0.7284
   24MOL0     C 3153   8.070   8.298  10.503 -0.5437 -0.1843  0.6012
   24MOL0     C 3154   7.937   8.279  10.493 -0.3354 -0.4184  0.2470
   24MOL0     N 3155   7.306   7.987  10.661 -0.5023 -0.6637  0.2664
   24MOL0     N 3156   7.208   7.929  10.712  0.6289 -0.3180 -1.1146
   24MOL0     C 3157   6.260   8.061  10.699 -0.8264  0.2695 -0.8635
   24MOL0     C 3158   6.119   8.057  10.672  0.5871 -0.1472  0.4177
   24MOL0     C 3159   5.654   8.020  10.777 -0.1124 -0.0452  0.1030
   24MOL0     C 3160   5.554   7.975  10.870 -0.3121  0.2870  0.7864
   24MOL0     C 3161   5.419   7.976  10.841 -0.0483 -0.3195 -0.5606
   24MOL0     C 3162   5.384   8.034  10.716 -0.2103  0.2879  0.1094
   24MOL0     O 3163   5.252   8.017  10.689 -0.5579  0.0129  0.0492
   24MOL0     C 3164   5.183   8.142  10.680 -0.0532 -0.0359  0.5308
   24MOL0     C 3165   5.141   8.200  10.821 -0.4454  0.2371 -0.3592
   24MOL0     C 3166   5.015   8.121  10.862 -0.9655  0.7666 -0.3840
   24MOL0     C 3167   4.974   8.118  11.015 -0.0266 -0.3731  0.0822
   24MOL0     C 3168   5.074   8.147  11.116 -1.1096  0.2078 -1.0774
   24MOL0     C 3169   5.166   8.167  11.197  0.3420 -0.1046  0.3338
   24MOL0     C 3170   5.478   8.088  10.631 -0.0684 -0.7096 -0.1930
   24MOL0     C 3171   5.614   8.086  10.662 -0.0824 -0.2395  0.0447
   24MOL0     C 3172   5.704   8.155  10.561 -0.4196  0.4186 -0.1445
   24MOL0     H 3173   6.012   8.074  10.997  0.7667  0.1029  0.2375
   24MOL0     H 3174   6.235   8.102  11.045 -1.1981  1.8287  0.4994
   24MOL0     H 3175   6.470   8.251  10.934  0.4342 -1.4500 -1.7898
   24MOL0     H 3176   6.446   8.128  11.068 -2.1659  2.2099 -0.1117
   24MOL0     H 3177   6.682   8.210  11.025 -3.0165  1.7219 -0.2940
   24MOL0     H 3178   6.671   8.143  10.862 -1.1139  0.1512 -0.2986
   24MOL0     H 3179   6.656   7.928  10.927 -0.2352  1.5893 -2.1609
   24MOL0     H 3180   6.631   7.972  11.089 -2.1173  0.6122 -1.5142
   24MOL0     H 3181   6.901   8.017  10.941  0.8336 -1.5391 -0.0609
   24MOL0     H 3182   6.862   8.048  11.118  1.4364  0.4236 -0.5231
   24MOL0     H 3183   6.815   7.818  11.135  1.0677 -2.3489  0.4149
   24MOL0     H 3184   6.874   7.776  10.969  2.4013  1.9592 -2.3099
   24MOL0     H 3185   7.023   7.890  11.201  0.6184 -0.5942  0.8358
   24MOL0     H 3186   7.042   7.726  11.149 -2.2068  0.3622  2.0343
   24MOL0     H 3187   7.227   7.863  11.091  0.4176 -1.5996  0.6077
   24MOL0     H 3188   7.124   7.966  10.991 -3.0658  0.1472  2.4663
   24MOL0     H 3189   7.218   7.684  10.945 -2.0820 -0.9708  3.0023
   24MOL0     H 3190   7.075   7.728  10.862 -0.6499  2.1873  0.0301
   24MOL0     H 3191   7.445   7.786  10.879 -0.9048  1.1975  1.6016
   24MOL0     H 3192   7.610   8.044  10.711  1.2402 -0.6507 -1.3084
   24MOL0     H 3193   7.626   7.875  10.666  1.6663  0.0019 -1.4934
   24MOL0     H 3194   7.485   7.960  10.452 -0.4159 -0.8133  1.5217
   24MOL0     H 3195   7.536   8.113  10.514 -1.2097 -0.2347 -0.9453
   24MOL0     H 3196   7.719   7.877  10.446 -0.4695 -1.0522  0.6138
   24MOL0     H 3197   7.778   8.023  10.530  1.2862 -2.1848 -0.0467
   24MOL0     H 3198   7.636   8.061  10.272  0.7369  1.6673 -1.0227
   24MOL0     H 3199   7.809   8.011  10.283 -2.0687 -1.0952 -2.4543
   24MOL0     H 3200   7.928   8.178  10.168  1.7934 -0.8417 -0.4594
   24MOL0     H 3201   8.156   8.233  10.174  0.9981 -2.1475  0.4154
   24MOL0     H 3202   8.545   8.435  10.441  0.7029 -1.0034  0.6700
   24MOL0     H 3203   8.800   8.410  10.520  0.0982 -0.6782 -1.2657
   24MOL0     H 3204   8.881   8.152  10.899  1.0322 -1.1013  1.2601
   24MOL0     H 3205   8.914   8.074  10.734  1.4903  1.8048 -1.4436
   24MOL0     H 3206   9.123   8.203  10.726  1.2320 -2.5545 -0.5709
   24MOL0     H 3207   9.104   8.267  10.889  0.0937  0.6574 -0.8415
   24MOL0     H 3208   9.116   8.057  10.989 -0.9079 -1.4704 -0.6547
   24MOL0     H 3209   9.114   7.970  10.838  0.8950 -0.5042  0.7331
   24MOL0     H 3210   9.335   8.156  10.933  0.9919  0.7683 -0.1429
   24MOL0     H 3211   9.341   8.081  10.781  1.0180 -0.0298  0.7954
   24MOL0     H 3212   9.470   7.959  10.948 -0.5036  0.3758  2.0109
   24MOL0     H 3213   9.347   7.852  10.871  0.0757  1.2765 -1.5103
   24MOL0     H 3214   9.352   7.981  11.152  1.8186 -0.7093 -0.2192
   24MOL0     H 3215   9.203   7.913  11.088 -0.4734  0.2110 -0.7875
   24MOL0     H 3216   9.481   7.781  11.143  1.2746  0.4807 -1.7373
   24MOL0     H 3217   9.365   7.695  11.053  2.5668  1.2388 -1.4913
   24MOL0     H 3218   9.315   7.795  11.333 -2.3688  0.9677  0.6767
   24MOL0     H 3219   9.180   7.730  11.239  0.3505  0.1169 -4.1985
   24MOL0     H 3220   8.661   8.143  10.834  2.8848  1.1760  0.6622
   24MOL0     H 3221   8.444   8.142  10.737 -1.3714 -0.0063 -1.2471
   24MOL0     H 3222   8.112   8.332  10.597 -0.7229  0.5015  0.4337
   24MOL0     H 3223   7.869   8.302  10.575  0.6249 -0.5027  1.0810
   24MOL0     H 3224   6.337   8.033  10.627 -0.4995  1.4590 -0.9981
   24MOL0     H 3225   6.072   8.042  10.576 -2.5191 -0.5625  1.8846
   24MOL0     H 3226   5.600   7.924  10.954  1.0803 -0.7825 -0.5536
   24MOL0     H 3227   5.344   7.942  10.912 -1.4567  0.2314 -1.7204
   24MOL0     H 3228   5.089   8.134  10.623  0.8631  0.8976 -1.1999
   24MOL0     H 3229   5.239   8.211  10.616  0.0311 -2.2735 -1.9773
   24MOL0     H 3230   5.116   8.306  10.812 -0.7638  0.1002 -1.1922
   24MOL0     H 3231   5.224   8.188  10.891  0.2044  1.1791 -0.9540
   24MOL0     H 3232   5.042   8.016  10.846 -2.3899 -0.3471  3.3711
   24MOL0     H 3233   4.936   8.156  10.795  0.5646  0.7888 -2.2613
   24MOL0     H 3234   4.902   8.200  11.022  1.1995  0.9962 -2.1301
   24MOL0     H 3235   4.916   8.026  11.029 -1.1975  0.6992  3.1998
   24MOL0     H 3236   5.231   8.207  11.272 -1.5489  0.1783  1.9166
   24MOL0     H 3237   5.442   8.122  10.535 -0.4291 -1.8402 -0.4749
   24MOL0     H 3238   5.788   8.094  10.527  0.0183  2.2127 -2.6520
   24MOL0     H 3239   5.647   8.178  10.470  0.2385  1.2845 -0.3575
   24MOL0     H 3240   5.740   8.252  10.599  0.4922  0.3305 -0.7309
   25MOL0     O 3241   2.458   0.931   2.401 -0.1654 -0.2342 -0.1081
   25MOL0     C 3242   2.365   0.931   2.479 -0.4920  0.0508  0.7054
   25MOL0     O 3243   2.376   0.959   2.606  0.2017  0.1503  0.1216
   25MOL0     C 3244   2.493   0.986   2.679  0.6095  0.3838  1.5626
   25MOL0     C 3245   2.488   0.932   2.804 -0.4518  0.1391 -0.8875
   25MOL0     C 3246   2.602   0.930   2.884 -0.6447 -1.5907 -0.1783
   25MOL0     C 3247   2.721   0.997   2.840  0.5729 -1.1646 -0.0832
   25MOL0     O 3248   2.823   1.032   2.936 -0.0843  0.0401 -0.3014
   25MOL0     C 3249   2.929   1.126   2.911  1.2387 -0.7385 -0.6794
   25MOL0     C 3250   3.014   1.109   3.039 -0.2188  0.1468  0.4583
   25MOL0     C 3251   3.127   1.217   3.057  0.7621  0.2579 -0.5931
   25MOL0     C 3252   3.231   1.206   2.949  1.5604  0.1563 -0.0042
   25MOL0     C 3253   3.371   1.240   2.994 -0.3286 -1.3257 -0.6190
   25MOL0     C 3254   3.481   1.224   2.887 -0.1993  0.5952  0.0741
   25MOL0     C 3255   3.625   1.264   2.921 -0.3686  0.7303 -0.0526
   25MOL0     C 3256   3.656   1.417   2.902  1.1124  0.2246 -0.9142
   25MOL0     N 3257   3.782   1.449   2.957  0.5242 -0.1314  0.0990
   25MOL0     C 3258   3.907   1.394   2.937  0.4240  0.5142  0.1120
   25MOL0     C 3259   3.992   1.448   3.023 -0.4027  0.1338 -0.5537
   25MOL0     C 3260   4.136   1.421   3.004 -0.4913 -0.0537  0.2451
   25MOL0     C 3261   4.227   1.545   3.001  0.7724  0.3358  0.7372
   25MOL0     C 3262   4.344   1.519   3.092  0.4311 -0.6933  0.4639
   25MOL0     C 3263   4.477   1.608   3.094  0.5275 -0.1977 -0.6439
   25MOL0     O 3264   4.568   1.556   3.191 -0.2780 -0.2808  0.6882
   25MOL0     C 3265   4.702   1.570   3.167  0.6590 -0.5020 -0.8157
   25MOL0     C 3266   4.779   1.525   3.271 -0.1767  0.2248  0.3774
   25MOL0     C 3267   4.914   1.545   3.275 -0.6409 -0.2415  0.1367
   25MOL0     C 3268   4.980   1.615   3.177 -0.8624 -0.0926 -1.0525
   25MOL0     C 3269   5.129   1.611   3.187  0.6499  0.3612 -0.4181
   25MOL0     O 3270   5.183   1.588   3.299 -0.7696 -0.3357 -0.6122
   25MOL0     C 3271   5.326   1.591   3.317  0.8876 -0.8115  0.2229
   25MOL0     C 3272   5.401   1.700   3.265  0.0254 -0.8455 -0.2434
   25MOL0     C 3273   5.539   1.705   3.288 -0.2298 -0.0092 -0.2152
   25MOL0     C 3274   5.604   1.602   3.358 -0.1338 -0.7429  0.5297
   25MOL0     O 3275   5.740   1.596   3.386 -0.0885 -0.7253  0.0422
   25MOL0     C 3276   5.817   1.724   3.391  0.3195 -0.5144  0.7458
   25MOL0     C 3277   5.943   1.718   3.469  0.6427  0.3127  0.0227
   25MOL0     C 3278   6.060   1.642   3.404  0.3171  0.6263  0.7476
   25MOL0     C 3279   6.177   1.613   3.499  0.0662 -1.0774  0.7317
   25MOL0     C 3280   6.293   1.534   3.445 -0.4825 -1.4114  0.4389
   25MOL0     C 3281   6.403   1.513   3.543  0.3069  0.0343  0.2446
   25MOL0     C 3282   6.486   1.642   3.545  0.4679 -0.0175 -0.4871
   25MOL0     C 3283   6.621   1.604   3.601 -0.1805 -0.2567 -0.0304
   25MOL0    Cl 3284   6.640   1.620   3.785 -0.1292 -0.3992 -0.1389
   25MOL0     C 3285   5.531   1.484   3.399  0.1186  0.2442  0.6600
   25MOL0     C 3286   5.393   1.484   3.381 -0.5355 -0.2428  0.7895
   25MOL0     O 3287   5.180   1.627   3.077  0.1347  0.5321 -0.6041
   25MOL0     C 3288   4.910   1.653   3.059  0.4018  0.3028 -0.7197
   25MOL0     C 3289   4.770   1.629   3.063 -0.2796 -0.2559  0.5959
   25MOL0     N 3290   3.920   1.534   3.114 -0.8537 -0.1572 -0.0280
   25MOL0     N 3291   3.793   1.534   3.065 -0.2267  0.3207 -0.7670
   25MOL0     C 3292   2.724   1.048   2.712 -0.5062  0.1587  0.5049
   25MOL0     C 3293   2.619   1.039   2.623  0.3252  0.2287  0.2626
   25MOL0     C 3294   2.228   0.907   2.430  0.0222 -0.4585 -0.6516
   25MOL0     C 3295   2.118   0.958   2.508 -0.0244 -0.8416 -0.4444
   25MOL0     C 3296   1.990   0.937   2.461  0.8306  0.7952 -0.4918
   25MOL0     C 3297   1.961   0.875   2.340 -0.5697 -0.0733  0.0666
   25MOL0     O 3298   1.840   0.844   2.291  0.1372  0.3428 -0.3656
   25MOL0     C 3299   1.742   0.948   2.277  0.6690  0.1702 -0.0180
   25MOL0     C 3300   1.596   0.894   2.251 -0.0099 -0.1530  0.2406
   25MOL0     C 3301   1.522   0.840   2.372 -0.0762  0.2824 -0.0456
   25MOL0     C 3302   1.398   0.756   2.332 -0.3116 -0.9986  0.7037
   25MOL0     C 3303   1.291   0.843   2.283 -1.1311 -0.0199 -0.0996
   25MOL0     C 3304   1.193   0.910   2.263  0.3036  0.4850  0.2228
   25MOL0     C 3305   2.068   0.825   2.265 -0.0548  0.0720 -0.1050
   25MOL0     C 3306   2.201   0.844   2.304  0.3834 -0.1271 -0.0869
   25MOL0     C 3307   2.301   0.772   2.221 -0.9646  0.1216  0.4731
   25MOL0     H 3308   2.406   0.873   2.844  0.6403 -0.9925 -0.2424
   25MOL0     H 3309   2.597   0.886   2.983 -0.2287  1.0290  1.0793
   25MOL0     H 3310   2.992   1.103   2.826 -1.9626 -2.6313 -2.7586
   25MOL0     H 3311   2.892   1.229   2.902  1.5955 -0.4055  1.1268
   25MOL0     H 3312   3.054   1.007   3.039 -0.3284  0.1016  0.0546
   25MOL0     H 3313   2.951   1.122   3.128  2.3521  1.2803  2.2202
   25MOL0     H 3314   3.175   1.192   3.152  1.7022 -2.4053 -1.6787
   25MOL0     H 3315   3.084   1.317   3.069  0.4650  0.1399 -0.6517
   25MOL0     H 3316   3.240   1.107   2.905 -1.2992 -0.9837  1.7474
   25MOL0     H 3317   3.200   1.276   2.871  1.3186  1.1005  0.9119
   25MOL0     H 3318   3.373   1.348   3.013 -0.6034 -1.4766  0.2976
   25MOL0     H 3319   3.389   1.182   3.085 -1.9971  0.0587  0.6531
   25MOL0     H 3320   3.471   1.118   2.860  2.6061  0.3401 -0.2117
   25MOL0     H 3321   3.454   1.287   2.803  0.9816  1.6442  0.4553
   25MOL0     H 3322   3.699   1.214   2.858 -0.6671  0.2182  0.0009
   25MOL0     H 3323   3.648   1.231   3.022 -1.2424 -4.2881 -1.2344
   25MOL0     H 3324   3.648   1.452   2.799  1.6700  1.1480 -0.6571
   25MOL0     H 3325   3.578   1.475   2.954  3.4365  1.2713  1.6486
   25MOL0     H 3326   3.934   1.338   2.848 -1.5027 -2.5139  1.2678
   25MOL0     H 3327   4.178   1.360   3.085  1.7786  1.9968  0.7379
   25MOL0     H 3328   4.147   1.358   2.915 -1.1193 -3.2757  2.2597
   25MOL0     H 3329   4.263   1.566   2.900  1.9482 -1.1917  0.8113
   25MOL0     H 3330   4.173   1.635   3.033  0.1766 -0.3313  1.6566
   25MOL0     H 3331   4.372   1.415   3.075  1.6877 -0.4092  0.7157
   25MOL0     H 3332   4.301   1.544   3.189  0.8552  1.4472  0.1693
   25MOL0     H 3333   4.442   1.708   3.123 -1.2413 -0.5984 -1.2420
   25MOL0     H 3334   4.520   1.603   2.994  2.9623  1.3551  0.2423
   25MOL0     H 3335   4.723   1.465   3.342  1.5832 -1.6715  0.2615
   25MOL0     H 3336   4.973   1.509   3.359  0.4287 -0.4339 -0.6736
   25MOL0     H 3337   5.341   1.784   3.232  1.4386 -0.1980 -1.2916
   25MOL0     H 3338   5.599   1.795   3.275  0.4657  0.4757  4.5685
   25MOL0     H 3339   5.839   1.762   3.291  1.3325 -0.2628  1.0554
   25MOL0     H 3340   5.759   1.799   3.446  0.7473 -0.1382  0.6876
   25MOL0     H 3341   5.983   1.816   3.499 -0.2318  0.9222 -0.7469
   25MOL0     H 3342   5.921   1.664   3.561  3.8172  1.8722  1.9008
   25MOL0     H 3343   6.025   1.547   3.362  2.1468 -0.3063  1.1977
   25MOL0     H 3344   6.090   1.703   3.318  1.4114  1.2827  1.5802
   25MOL0     H 3345   6.143   1.563   3.589 -0.8106 -2.7820 -0.4980
   25MOL0     H 3346   6.207   1.712   3.535 -1.0619 -0.1175 -0.8033
   25MOL0     H 3347   6.334   1.579   3.355 -3.1848  2.5703  0.9368
   25MOL0     H 3348   6.250   1.437   3.420  1.4109 -2.0082 -0.6917
   25MOL0     H 3349   6.361   1.490   3.641  1.4116 -1.8810  0.3349
   25MOL0     H 3350   6.466   1.429   3.511  0.8138  0.2369  0.6913
   25MOL0     H 3351   6.434   1.730   3.584  2.2082  0.5379  0.7259
   25MOL0     H 3352   6.500   1.677   3.442  2.7402  3.3492  0.8020
   25MOL0     H 3353   6.652   1.503   3.571  0.3895  0.3403 -1.5038
   25MOL0     H 3354   6.695   1.675   3.565 -2.3369  1.6707 -0.8962
   25MOL0     H 3355   5.564   1.397   3.455  3.7729  0.6193 -0.6512
   25MOL0     H 3356   5.325   1.403   3.403 -0.1914 -1.1551 -1.3176
   25MOL0     H 3357   4.971   1.706   2.987  2.7773  0.7681  1.4783
   25MOL0     H 3358   4.717   1.652   2.971  3.1953  0.1959 -1.4758
   25MOL0     H 3359   2.815   1.093   2.674 -1.9557  1.0164 -2.2081
   25MOL0     H 3360   2.628   1.082   2.523 -1.4760  2.9994  1.1872
   25MOL0     H 3361   2.140   1.013   2.599 -1.8309  1.6102 -1.3899
   25MOL0     H 3362   1.914   0.966   2.532 -0.2398  1.8281 -1.9973
   25MOL0     H 3363   1.768   1.016   2.196 -2.1819 -0.8500 -1.9680
   25MOL0     H 3364   1.724   0.994   2.374  0.6732 -1.2406  0.6860
   25MOL0     H 3365   1.601   0.818   2.172 -2.3694  0.3319 -0.4374
   25MOL0     H 3366   1.532   0.974   2.214 -0.3777 -1.6894 -2.6900
   25MOL0     H 3367   1.486   0.919   2.439  1.7307  1.0638  0.0497
   25MOL0     H 3368   1.599   0.782   2.423  1.0814  1.1247 -0.7854
   25MOL0     H 3369   1.420   0.683   2.255  0.5655  1.2000 -1.2541
   25MOL0     H 3370   1.367   0.706   2.424 -0.7516 -1.0650  0.5186
   25MOL0     H 3371   1.096   0.951   2.244 -1.0366 -2.5720 -0.1264
   25MOL0     H 3372   2.049   0.787   2.165 -0.3996  2.3244 -0.9483
   25MOL0     H 3373   2.244   0.735   2.136 -0.1155  1.1278 -0.5578
   25MOL0     H 3374   2.376   0.838   2.177  1.1778 -3.5152 -1.9235
   25MOL0     H 3375   2.350   0.689   2.274 -1.5214 -3.0838 -3.5831
   26MOL0     O 3376   3.351   7.864   0.775  0.6033 -0.6572 -0.0350
   26MOL0     C 3377   3.324   7.781   0.860 -0.1559 -0.8016 -0.0507
   26MOL0     O 3378   3.407   7.688   0.908 -0.2992 -0.1237  0.2443
   26MOL0     C 3379   3.533   7.683   0.857 -0.1060  0.4763 -0.5151
   26MOL0     C 3380   3.641   7.718   0.942 -0.4092  0.1115 -0.2938
   26MOL0     C 3381   3.773   7.708   0.897  0.3906 -0.4236 -0.7581
   26MOL0     C 3382   3.804   7.669   0.769 -0.6531 -0.4214 -0.0536
   26MOL0     O 3383   3.936   7.665   0.723  0.0759 -0.7279 -0.5062
   26MOL0     C 3384   3.982   7.543   0.673 -0.4986 -0.3710  0.4409
   26MOL0     C 3385   4.085   7.499   0.767 -0.0526  0.1743  0.1205
   26MOL0     C 3386   4.209   7.593   0.758  0.2202  0.4529  0.3908
   26MOL0     C 3387   4.331   7.508   0.787 -0.9270 -0.2030  0.5972
   26MOL0     C 3388   4.448   7.600   0.779 -0.8121  0.2797  0.6223
   26MOL0     C 3389   4.577   7.525   0.752 -0.1140 -0.0401  0.1890
   26MOL0     C 3390   4.704   7.614   0.738  0.0287  0.3226  0.0791
   26MOL0     C 3391   4.727   7.681   0.873 -0.1355 -0.5178  0.1684
   26MOL0     N 3392   4.868   7.710   0.886 -0.2889 -0.2705  0.6995
   26MOL0     C 3393   4.953   7.756   0.789 -0.1349  0.4994 -0.0664
   26MOL0     C 3394   5.077   7.756   0.845  0.2582 -0.1419 -0.1201
   26MOL0     C 3395   5.215   7.793   0.793  0.1957 -0.1137 -0.0501
   26MOL0     C 3396   5.215   7.945   0.770  0.5148  0.5814  0.8692
   26MOL0     C 3397   5.130   7.973   0.647  0.3071  0.4611  0.2340
   26MOL0     C 3398   5.184   8.089   0.563  0.3132 -0.7919 -0.1192
   26MOL0     O 3399   5.330   8.075   0.552 -0.3600  0.3506  0.8033
   26MOL0     C 3400   5.403   8.163   0.479 -0.2044  0.6890  0.0878
   26MOL0     C 3401   5.367   8.275   0.420  0.3549 -0.6005  0.5395
   26MOL0     C 3402   5.466   8.354   0.356  0.2935 -0.5322 -0.2808
   26MOL0     C 3403   5.603   8.326   0.372 -0.5303  0.0586  0.7963
   26MOL0     C 3404   5.708   8.412   0.321 -0.0111 -0.0830  0.0665
   26MOL0     O 3405   5.678   8.528   0.261  0.1473  0.9993 -0.5314
   26MOL0     C 3406   5.774   8.606   0.196 -0.2496  0.9907  0.2256
   26MOL0     C 3407   5.773   8.595   0.057  0.4866 -0.8068 -0.6335
   26MOL0     C 3408   5.867   8.658  -0.019  0.3159 -0.0768 -0.0277
   26MOL0     C 3409   5.956   8.745   0.034  0.0604  0.5286  0.0651
   26MOL0     O 3410   6.049   8.816  -0.036  0.5314  0.4568  0.1305
   26MOL0     C 3411   6.154   8.740  -0.100  0.0054  0.1438 -1.1940
   26MOL0     C 3412   6.255   8.824  -0.188  0.0122 -0.5544 -1.2295
   26MOL0     C 3413   6.193   8.837  -0.332 -0.3910 -1.3183  0.6904
   26MOL0     C 3414   6.093   8.952  -0.331  0.0774 -0.3676 -0.1751
   26MOL0     C 3415   6.025   8.978  -0.465 -0.0948  0.3064 -0.2850
   26MOL0     C 3416   5.975   9.121  -0.466  0.2587  0.1342 -0.3438
   26MOL0     C 3417   5.862   9.145  -0.357 -0.5648  0.4533  0.1717
   26MOL0     C 3418   5.833   9.291  -0.355  0.3458 -0.5028  0.0838
   26MOL0    Cl 3419   5.716   9.323  -0.224  0.0941  0.3585  0.2199
   26MOL0     C 3420   5.936   8.774   0.172  1.0916 -0.3154  1.0883
   26MOL0     C 3421   5.848   8.704   0.257 -0.0634 -0.6884 -0.1663
   26MOL0     O 3422   5.821   8.382   0.346  0.3451 -0.1472  0.5844
   26MOL0     C 3423   5.637   8.208   0.438 -0.0747  0.0800 -0.1072
   26MOL0     C 3424   5.535   8.126   0.484  0.1604  0.7445  0.4525
   26MOL0     N 3425   5.061   7.709   0.975  0.5960  0.3480 -0.1809
   26MOL0     N 3426   4.937   7.682   0.991 -0.0909 -0.4246 -0.2267
   26MOL0     C 3427   3.701   7.632   0.687 -0.6603 -0.3378 -0.3357
   26MOL0     C 3428   3.561   7.636   0.729  0.0249  0.0225 -0.2521
   26MOL0     C 3429   3.188   7.778   0.920  0.7000  0.2024 -0.0841
   26MOL0     C 3430   3.176   7.715   1.048 -0.0195 -0.6769 -0.2299
   26MOL0     C 3431   3.054   7.717   1.116  0.2587  0.3308  0.1136
   26MOL0     C 3432   2.945   7.779   1.058 -0.8008  0.0944 -0.3447
   26MOL0     O 3433   2.820   7.786   1.116  0.1044 -0.6127 -0.0685
   26MOL0     C 3434   2.798   7.707   1.232 -1.0530  0.6430  0.2311
   26MOL0     C 3435   2.643   7.693   1.245 -0.1440 -0.2586  0.1340
   26MOL0     C 3436   2.569   7.819   1.291 -0.4294 -0.3090  0.6094
   26MOL0     C 3437   2.416   7.798   1.303  0.2570 -0.3529  0.2434
   26MOL0     C 3438   2.346   7.920   1.348 -0.5200 -0.2411  0.2007
   26MOL0     C 3439   2.286   8.020   1.381 -0.2664  0.5199 -1.0890
   26MOL0     C 3440   2.959   7.838   0.935 -0.4572 -0.1711 -0.3810
   26MOL0     C 3441   3.072   7.823   0.859  0.0244 -0.0215  0.9985
   26MOL0     C 3442   3.065   7.882   0.719 -0.2173  0.8234 -0.1646
   26MOL0     H 3443   3.615   7.745   1.044  1.1438 -0.7031  0.3501
   26MOL0     H 3444   3.856   7.735   0.962  0.8080 -2.6263 -0.3231
   26MOL0     H 3445   3.903   7.467   0.669 -1.8973  1.0653 -0.2645
   26MOL0     H 3446   4.017   7.552   0.570  1.1781 -2.1594  0.7905
   26MOL0     H 3447   4.112   7.400   0.728  1.2343  0.5331  0.0552
   26MOL0     H 3448   4.052   7.477   0.868  0.7766  0.1429  0.3921
   26MOL0     H 3449   4.205   7.679   0.826 -1.0851  1.7431 -1.2135
   26MOL0     H 3450   4.212   7.641   0.660  0.3931  1.3651  0.8278
   26MOL0     H 3451   4.324   7.452   0.881  0.8483 -1.7801 -0.1473
   26MOL0     H 3452   4.351   7.439   0.705 -0.5395  3.8074 -3.0085
   26MOL0     H 3453   4.424   7.680   0.709 -2.8848 -0.3625  0.5303
   26MOL0     H 3454   4.461   7.647   0.876 -1.7653 -1.3554  1.6036
   26MOL0     H 3455   4.589   7.463   0.841  0.0335  0.1822  0.3249
   26MOL0     H 3456   4.575   7.462   0.662  2.1253  1.4267 -0.9835
   26MOL0     H 3457   4.701   7.682   0.653 -0.2201  2.2563  1.5614
   26MOL0     H 3458   4.790   7.549   0.723 -1.0651 -1.2490  0.3742
   26MOL0     H 3459   4.674   7.777   0.877 -1.6688 -1.3340  0.4230
   26MOL0     H 3460   4.685   7.616   0.951  1.8329 -2.2186 -0.1004
   26MOL0     H 3461   4.918   7.794   0.694  0.4217  0.2157 -0.3869
   26MOL0     H 3462   5.285   7.767   0.874  0.9193 -2.2564 -1.2672
   26MOL0     H 3463   5.238   7.726   0.709 -0.7683  1.5704 -1.7139
   26MOL0     H 3464   5.185   8.004   0.857  1.3529  1.7601  0.3821
   26MOL0     H 3465   5.321   7.969   0.759  0.3865  0.7327 -0.1171
   26MOL0     H 3466   5.027   7.999   0.673 -0.1496 -2.1490  1.3413
   26MOL0     H 3467   5.107   7.882   0.591 -1.7893  0.7312  0.5866
   26MOL0     H 3468   5.163   8.188   0.605 -0.5402 -1.1107  0.2305
   26MOL0     H 3469   5.138   8.091   0.463  1.7885  2.1091 -0.8541
   26MOL0     H 3470   5.263   8.304   0.433 -0.4936 -2.3754 -1.6772
   26MOL0     H 3471   5.435   8.447   0.310 -1.5774 -1.3882 -0.8487
   26MOL0     H 3472   5.688   8.551   0.005 -1.1600  1.0866  0.3065
   26MOL0     H 3473   5.865   8.649  -0.128  0.0466 -0.9644  0.0416
   26MOL0     H 3474   6.208   8.690  -0.019 -0.4030  1.8546  0.2135
   26MOL0     H 3475   6.107   8.658  -0.156  2.3538 -2.0443 -0.1480
   26MOL0     H 3476   6.263   8.926  -0.151  1.5987  0.2346 -3.5542
   26MOL0     H 3477   6.355   8.782  -0.181  0.9106  1.6776  0.7601
   26MOL0     H 3478   6.278   8.854  -0.400 -1.3498  0.9229 -0.0576
   26MOL0     H 3479   6.147   8.744  -0.365  0.3597 -1.8083  0.9957
   26MOL0     H 3480   6.146   9.041  -0.295  0.0681 -0.1237 -0.7580
   26MOL0     H 3481   6.015   8.931  -0.257  1.7766 -2.5794  1.1598
   26MOL0     H 3482   5.947   8.905  -0.487 -0.8744  0.5253  1.5836
   26MOL0     H 3483   6.097   8.956  -0.546 -2.8505 -1.7823 -2.3751
   26MOL0     H 3484   6.063   9.184  -0.452  1.2633 -1.4464  0.6877
   26MOL0     H 3485   5.939   9.151  -0.565 -0.0864 -1.5012 -0.7478
   26MOL0     H 3486   5.889   9.109  -0.258 -2.7267 -1.5440  0.1286
   26MOL0     H 3487   5.775   9.085  -0.386  0.6077 -0.0083 -2.8326
   26MOL0     H 3488   5.925   9.349  -0.350 -0.4681  0.9130 -0.5843
   26MOL0     H 3489   5.783   9.330  -0.444  2.1516  1.2437 -0.2232
   26MOL0     H 3490   5.988   8.862   0.210  0.8986  1.2669 -1.9764
   26MOL0     H 3491   5.844   8.727   0.363  1.8419  0.5982 -0.3239
   26MOL0     H 3492   5.742   8.180   0.450 -0.3013 -0.8845 -0.2821
   26MOL0     H 3493   5.567   8.033   0.532  1.7020  1.3786  0.7242
   26MOL0     H 3494   3.724   7.584   0.593  2.4570 -1.9090  1.0953
   26MOL0     H 3495   3.483   7.602   0.662 -0.5016  0.9856 -0.1355
   26MOL0     H 3496   3.270   7.693   1.097  1.3639  1.9592 -1.4300
   26MOL0     H 3497   3.051   7.682   1.219  2.1306  0.2022  0.1591
   26MOL0     H 3498   2.850   7.753   1.317  0.2725  0.9224 -0.6919
   26MOL0     H 3499   2.843   7.608   1.223  0.9701  1.1273  3.4947
   26MOL0     H 3500   2.620   7.611   1.313 -0.3940 -0.0535  0.3006
   26MOL0     H 3501   2.605   7.655   1.150 -0.6606  0.0473  0.2167
   26MOL0     H 3502   2.589   7.905   1.226 -3.7374  2.1474  2.5525
   26MOL0     H 3503   2.607   7.842   1.391  0.3166  0.4572  0.1576
   26MOL0     H 3504   2.374   7.768   1.206  1.5809 -1.9494  0.1311
   26MOL0     H 3505   2.387   7.727   1.380  0.0357 -0.6229 -0.0836
   26MOL0     H 3506   2.247   8.116   1.409  1.1115  1.6104 -2.6883
   26MOL0     H 3507   2.873   7.885   0.888  0.3871  0.3565 -1.4316
   26MOL0     H 3508   3.039   7.988   0.725  2.6453  1.5493  2.8057
   26MOL0     H 3509   3.161   7.882   0.667  0.8601 -1.0851  1.6478
   26MOL0     H 3510   2.987   7.825   0.667  0.5685 -0.2593 -0.1900
   27MOL0     O 3511  10.838   4.748   3.349  0.5629 -0.0095 -0.2070
   27MOL0     C 3512  10.826   4.624   3.358  0.3622 -0.0479  0.6727
   27MOL0     O 3513  10.933   4.543   3.391 -0.2223 -1.1330  0.9156
   27MOL0     C 3514  11.059   4.601   3.386  0.3153  0.1071 -0.5483
   27MOL0     C 3515  11.110   4.655   3.263  0.5100  0.6902  0.1425
   27MOL0     C 3516  11.225   4.729   3.263 -0.5898  0.5839  0.2059
   27MOL0     C 3517  11.315   4.730   3.379  0.7961  0.4933 -0.5413
   27MOL0     O 3518  11.433   4.788   3.365 -0.1806 -0.3387 -0.1531
   27MOL0     C 3519  11.499   4.834   3.483 -0.1378 -0.0941  0.3627
   27MOL0     C 3520  11.622   4.903   3.434  0.3432  0.9657  0.0116
   27MOL0     C 3521  11.719   4.940   3.544  0.1040 -0.6524  0.3527
   27MOL0     C 3522  11.812   4.823   3.575  0.5143 -0.9731 -0.3007
   27MOL0     C 3523  11.926   4.872   3.667 -1.0233 -0.1257  0.8330
   27MOL0     C 3524  12.017   4.757   3.684 -0.0953 -0.0855 -0.2821
   27MOL0     C 3525  12.142   4.796   3.761  0.5067 -0.2928  0.1947
   27MOL0     C 3526  12.246   4.851   3.661  0.5831  0.7779 -0.9880
   27MOL0     N 3527  12.356   4.882   3.745 -0.5348  0.3889  0.2353
   27MOL0     C 3528  12.443   4.792   3.805 -0.1390  0.6475  0.1362
   27MOL0     C 3529  12.525   4.862   3.889  0.6492  0.4343  0.0081
   27MOL0     C 3530  12.623   4.801   3.985  0.2638  0.7633  0.1389
   27MOL0     C 3531  12.599   4.878   4.108  0.2953  0.0403 -0.4643
   27MOL0     C 3532  12.687   5.002   4.111  0.2345 -0.1114 -0.5786
   27MOL0     C 3533  12.689   5.075   4.254  0.6973 -0.1284  0.6608
   27MOL0     O 3534  12.588   5.179   4.258 -0.2196  0.1480  0.1527
   27MOL0     C 3535  12.662   5.293   4.248  0.2853 -0.3191 -0.6038
   27MOL0     C 3536  12.684   5.334   4.116  0.3579  0.6762 -0.2494
   27MOL0     C 3537  12.769   5.438   4.081 -0.3581 -0.3346 -0.0440
   27MOL0     C 3538  12.843   5.508   4.190 -0.6448  0.2190  0.2364
   27MOL0     C 3539  12.921   5.622   4.153  0.1716 -0.4823 -0.4005
   27MOL0     O 3540  13.049   5.634   4.197 -0.3426  0.2445  0.0612
   27MOL0     C 3541  13.133   5.740   4.182 -0.7440 -0.1132  0.0672
   27MOL0     C 3542  13.225   5.767   4.279  0.2129  0.0487  0.1231
   27MOL0     C 3543  13.315   5.862   4.268 -0.0382 -0.6851  0.2616
   27MOL0     C 3544  13.326   5.950   4.158 -0.3989  0.3457  0.2346
   27MOL0     O 3545  13.436   6.040   4.153 -0.1005 -0.6869  0.1696
   27MOL0     C 3546  13.486   6.072   4.023  0.3366  0.1124 -0.2084
   27MOL0     C 3547  13.573   6.195   4.030 -0.3953 -0.8341 -0.3737
   27MOL0     C 3548  13.709   6.163   4.093 -0.0880  0.8173 -0.0394
   27MOL0     C 3549  13.795   6.285   4.125 -0.5501  0.0254 -0.5606
   27MOL0     C 3550  13.950   6.262   4.141  0.6632 -0.1516 -0.0889
   27MOL0     C 3551  14.040   6.385   4.135  0.9530 -0.0295 -0.0678
   27MOL0     C 3552  14.006   6.484   4.245  0.4606 -0.8176  0.1708
   27MOL0     C 3553  14.121   6.574   4.277  0.4330  0.2443  0.0076
   27MOL0    Cl 3554  14.203   6.637   4.130  0.6418  0.4668  0.1355
   27MOL0     C 3555  13.237   5.928   4.056  0.2212 -0.4201 -0.0745
   27MOL0     C 3556  13.134   5.828   4.073 -0.0475 -0.8484  0.5042
   27MOL0     O 3557  12.872   5.694   4.063  0.0027 -0.4906  0.0056
   27MOL0     C 3558  12.826   5.468   4.318 -0.0693 -0.4075 -0.2000
   27MOL0     C 3559  12.740   5.353   4.350 -0.0773  0.4218 -0.6442
   27MOL0     N 3560  12.500   4.993   3.862 -0.3864 -0.2981  0.2154
   27MOL0     N 3561  12.395   5.010   3.785  0.0031  0.0243  0.1822
   27MOL0     C 3562  11.267   4.663   3.501 -0.2857 -0.2524  0.4365
   27MOL0     C 3563  11.133   4.613   3.503  0.1711  0.5393 -0.2658
   27MOL0     C 3564  10.696   4.561   3.332  1.0877  0.1095  0.3282
   27MOL0     C 3565  10.600   4.631   3.260 -0.5783  0.3951  0.3359
   27MOL0     C 3566  10.473   4.570   3.234  0.5763 -0.6541  0.2865
   27MOL0     C 3567  10.436   4.450   3.295  0.4184 -0.0449  0.8951
   27MOL0     O 3568  10.310   4.398   3.254 -0.6752 -0.2128 -0.4004
   27MOL0     C 3569  10.235   4.320   3.360  0.2082 -0.5301  0.9024
   27MOL0     C 3570  10.079   4.353   3.348 -1.0042  0.6679  0.0052
   27MOL0     C 3571  10.034   4.491   3.418 -1.1130  0.1861 -0.9206
   27MOL0     C 3572   9.960   4.590   3.331 -0.0283 -0.1180 -0.8656
   27MOL0     C 3573  10.041   4.692   3.266  0.0283  0.6059 -0.3645
   27MOL0     C 3574  10.093   4.774   3.202  0.0914 -0.3952  0.2913
   27MOL0     C 3575  10.524   4.389   3.376 -0.1140  0.0024  0.2513
   27MOL0     C 3576  10.652   4.437   3.394  0.0568 -0.0785 -0.1228
   27MOL0     C 3577  10.746   4.345   3.483  0.8215 -0.4008 -0.3171
   27MOL0     H 3578  11.055   4.629   3.173  0.4130  0.2215  0.3356
   27MOL0     H 3579  11.268   4.771   3.172  0.0669 -0.4285  0.0346
   27MOL0     H 3580  11.446   4.906   3.546  2.5652  2.2684  0.1436
   27MOL0     H 3581  11.539   4.755   3.549  0.2842  0.6132  0.9663
   27MOL0     H 3582  11.581   4.989   3.382 -1.4575 -0.1862 -0.5702
   27MOL0     H 3583  11.676   4.839   3.363  2.0981  0.2768  1.8532
   27MOL0     H 3584  11.657   4.966   3.631 -1.3597  1.1441 -1.1481
   27MOL0     H 3585  11.780   5.027   3.518  0.2387 -0.1092  2.3212
   27MOL0     H 3586  11.754   4.746   3.626  1.1907 -1.5627 -0.4114
   27MOL0     H 3587  11.860   4.800   3.480 -0.6375 -0.4943 -1.0134
   27MOL0     H 3588  11.968   4.962   3.622 -0.5556 -0.3351  0.8513
   27MOL0     H 3589  11.884   4.904   3.763 -0.9871  1.6254  0.3018
   27MOL0     H 3590  11.953   4.693   3.746  0.0150  2.7065  2.9633
   27MOL0     H 3591  12.049   4.712   3.589 -0.4758 -2.6660  0.7108
   27MOL0     H 3592  12.178   4.706   3.813 -0.1137 -0.5964  0.1154
   27MOL0     H 3593  12.114   4.863   3.843 -0.8165 -3.1968  2.3430
   27MOL0     H 3594  12.274   4.769   3.594 -0.1371 -1.5006  1.3303
   27MOL0     H 3595  12.207   4.937   3.607  1.8431  1.5299 -0.7437
   27MOL0     H 3596  12.451   4.686   3.788 -1.4250  0.4357  0.7161
   27MOL0     H 3597  12.599   4.696   4.006  0.2236  0.9182  0.9170
   27MOL0     H 3598  12.728   4.802   3.954  0.9484 -0.1795  2.2240
   27MOL0     H 3599  12.493   4.902   4.123  1.0172  2.2677  1.7499
   27MOL0     H 3600  12.631   4.809   4.187  2.6772 -0.2293 -1.5894
   27MOL0     H 3601  12.643   5.069   4.037  0.5335 -0.7801 -1.3813
   27MOL0     H 3602  12.792   4.984   4.085 -0.0816 -2.2876 -0.5261
   27MOL0     H 3603  12.787   5.104   4.291  1.9604 -1.6024 -1.3630
   27MOL0     H 3604  12.659   5.008   4.335  0.1411 -0.2673  0.3483
   27MOL0     H 3605  12.628   5.277   4.043  0.6593  1.7733 -1.3732
   27MOL0     H 3606  12.790   5.469   3.979 -1.8646 -1.7335 -0.8271
   27MOL0     H 3607  13.223   5.699   4.364 -3.8754 -2.3366 -1.5495
   27MOL0     H 3608  13.393   5.869   4.343  0.2827 -3.4555  0.2873
   27MOL0     H 3609  13.534   5.989   3.970  1.5094  0.5632  0.1059
   27MOL0     H 3610  13.400   6.101   3.962 -0.7729 -0.8830  0.8277
   27MOL0     H 3611  13.590   6.235   3.930 -1.4070 -0.2382 -0.3137
   27MOL0     H 3612  13.525   6.281   4.078  2.0152  1.8700 -2.4084
   27MOL0     H 3613  13.704   6.100   4.182  1.3462 -1.6403 -1.5682
   27MOL0     H 3614  13.758   6.102   4.017  0.3124  1.0382  0.0382
   27MOL0     H 3615  13.763   6.311   4.227 -2.7173 -3.2809 -0.2531
   27MOL0     H 3616  13.779   6.370   4.058 -1.8410  1.4920  1.4813
   27MOL0     H 3617  13.969   6.191   4.060 -0.5074  2.3427 -2.7409
   27MOL0     H 3618  13.966   6.210   4.236 -1.4432  0.0929  0.4646
   27MOL0     H 3619  14.138   6.338   4.146  1.5633  1.3677  0.8050
   27MOL0     H 3620  14.037   6.440   4.040  3.3724 -0.2492 -0.3197
   27MOL0     H 3621  13.965   6.432   4.333  0.3162 -1.1926 -0.1158
   27MOL0     H 3622  13.936   6.557   4.205  0.0834 -0.7591  0.9070
   27MOL0     H 3623  14.093   6.657   4.342  0.0437  1.9768 -2.2599
   27MOL0     H 3624  14.181   6.505   4.336 -2.3400 -1.2888  1.2107
   27MOL0     H 3625  13.238   5.991   3.967  0.5480 -1.6229 -0.9430
   27MOL0     H 3626  13.055   5.820   3.998 -0.1762 -4.1881  0.8309
   27MOL0     H 3627  12.879   5.519   4.397 -1.9572 -0.8142  1.3824
   27MOL0     H 3628  12.731   5.324   4.454  0.0910 -0.3105 -0.8317
   27MOL0     H 3629  11.330   4.650   3.589  0.1248 -1.2949 -0.0074
   27MOL0     H 3630  11.091   4.562   3.590 -1.1825  1.9978 -0.0159
   27MOL0     H 3631  10.608   4.728   3.213 -2.1316 -0.2298 -1.3444
   27MOL0     H 3632  10.411   4.623   3.163  1.8242  2.1902  1.1444
   27MOL0     H 3633  10.269   4.349   3.460 -1.3143  2.2186  0.7301
   27MOL0     H 3634  10.245   4.212   3.347  1.5382 -0.7912  3.4389
   27MOL0     H 3635  10.035   4.265   3.397  4.7787 -2.0342  1.2652
   27MOL0     H 3636  10.051   4.339   3.243 -2.7155  0.5277  0.4503
   27MOL0     H 3637  10.123   4.546   3.447 -1.2795 -0.1238  0.2107
   27MOL0     H 3638   9.970   4.477   3.505 -0.5355 -0.7392 -0.6412
   27MOL0     H 3639   9.913   4.527   3.255  0.1414 -2.7866  1.0834
   27MOL0     H 3640   9.875   4.642   3.377  2.1050  1.5917  1.3893
   27MOL0     H 3641  10.139   4.847   3.138  0.1320 -1.0721 -0.4685
   27MOL0     H 3642  10.495   4.289   3.404 -1.8656 -0.1499 -1.8533
   27MOL0     H 3643  10.817   4.272   3.443  0.0605 -1.8989  0.9674
   27MOL0     H 3644  10.806   4.406   3.552  1.9149  1.1847 -2.5312
   27MOL0     H 3645  10.682   4.283   3.546  0.8761  1.3557  1.5914
   28MOL0     O 3646   7.812   9.133   8.171 -0.0898  0.6421 -0.6867
   28MOL0     C 3647   7.787   9.089   8.287 -0.1349 -0.2016 -0.4870
   28MOL0     O 3648   7.869   9.104   8.399  0.8336  0.5384  1.0479
   28MOL0     C 3649   7.974   9.184   8.381 -0.3714 -0.3020  0.2142
   28MOL0     C 3650   8.078   9.168   8.298 -1.3536 -0.6234  0.6676
   28MOL0     C 3651   8.193   9.258   8.299 -0.0219 -0.1600  0.1089
   28MOL0     C 3652   8.182   9.372   8.372 -0.2426 -0.2587 -0.2020
   28MOL0     O 3653   8.267   9.480   8.349  0.0194  0.7990  0.5393
   28MOL0     C 3654   8.376   9.463   8.265 -0.2525 -0.2374  0.1418
   28MOL0     C 3655   8.476   9.583   8.248 -0.0726  0.3565  0.3205
   28MOL0     C 3656   8.574   9.592   8.374 -0.3206  1.0144 -0.6246
   28MOL0     C 3657   8.678   9.693   8.348  0.2581  0.9049 -0.1180
   28MOL0     C 3658   8.752   9.719   8.476 -0.3586  0.5430 -0.2344
   28MOL0     C 3659   8.849   9.600   8.504 -0.1193 -0.3779  0.6953
   28MOL0     C 3660   8.937   9.651   8.608 -0.0107 -0.7800  0.1317
   28MOL0     C 3661   9.051   9.562   8.634  0.1641  0.8339 -0.0596
   28MOL0     N 3662   9.147   9.637   8.716 -0.0432 -0.1247  0.0295
   28MOL0     C 3663   9.159   9.629   8.853  0.4517  0.0898  0.1965
   28MOL0     C 3664   9.267   9.696   8.884  0.9840  0.2820 -0.0210
   28MOL0     C 3665   9.324   9.684   9.023 -0.1365  0.2262  0.2922
   28MOL0     C 3666   9.369   9.551   9.075 -0.5226  0.1408  1.2375
   28MOL0     C 3667   9.470   9.490   8.980 -0.0559  0.4780  0.5276
   28MOL0     C 3668   9.603   9.567   8.969  0.0499 -0.3415 -0.8164
   28MOL0     O 3669   9.690   9.518   9.076  0.0862  0.3536  0.1627
   28MOL0     C 3670   9.795   9.596   9.116  0.0591  0.1512 -0.5646
   28MOL0     C 3671   9.867   9.682   9.024 -0.4034 -0.8162 -0.4406
   28MOL0     C 3672   9.994   9.742   9.065  0.6064 -0.1873  0.3279
   28MOL0     C 3673  10.033   9.736   9.198  0.5863 -0.2074  0.0570
   28MOL0     C 3674  10.149   9.824   9.234 -0.6408  0.1156 -0.3725
   28MOL0     O 3675  10.224   9.889   9.139  0.5698  0.4840 -0.0037
   28MOL0     C 3676  10.351   9.932   9.173 -0.4018 -0.0568 -0.3239
   28MOL0     C 3677  10.470   9.851   9.148  0.1121  0.6692  0.8739
   28MOL0     C 3678  10.596   9.897   9.180  0.1955  0.4543 -0.4013
   28MOL0     C 3679  10.608  10.028   9.223 -0.1294  0.3497  0.3851
   28MOL0     O 3680  10.736  10.062   9.248  0.5002 -0.1684 -0.9932
   28MOL0     C 3681  10.758  10.112   9.373 -0.5829  0.0844 -0.0309
   28MOL0     C 3682  10.910  10.102   9.415 -0.4425 -0.1379 -0.3320
   28MOL0     C 3683  11.006  10.162   9.304 -0.1779 -0.9652  0.4295
   28MOL0     C 3684  11.153  10.162   9.353 -0.0880  0.2354 -0.0631
   28MOL0     C 3685  11.241  10.214   9.244 -0.3845 -0.0099  0.5446
   28MOL0     C 3686  11.388  10.218   9.293 -0.4721  0.7508  0.5074
   28MOL0     C 3687  11.499  10.250   9.192  0.7880  0.4477  0.2761
   28MOL0     C 3688  11.631  10.234   9.262 -0.1617 -0.1813  0.2298
   28MOL0    Cl 3689  11.753  10.295   9.153 -0.5797 -0.1594 -0.4851
   28MOL0     C 3690  10.500  10.110   9.236 -0.3302 -0.4508 -1.2777
   28MOL0     C 3691  10.371  10.064   9.221 -0.1740  0.6404 -0.0787
   28MOL0     O 3692  10.181   9.821   9.355  0.3630 -0.5825 -0.3887
   28MOL0     C 3693   9.961   9.653   9.289  0.5704 -0.0181 -0.2880
   28MOL0     C 3694   9.850   9.589   9.240 -0.2835 -0.6339 -0.2397
   28MOL0     N 3695   9.333   9.732   8.769  0.1447  0.3729 -0.4319
   28MOL0     N 3696   9.266   9.687   8.674 -0.1330  0.8422 -0.7248
   28MOL0     C 3697   8.074   9.394   8.451 -0.2155  0.8831 -0.1637
   28MOL0     C 3698   7.979   9.299   8.459  0.6968 -0.5043 -0.1562
   28MOL0     C 3699   7.668   8.999   8.311 -0.2644 -0.7845 -1.1322
   28MOL0     C 3700   7.675   8.917   8.428  0.1851 -0.6229  0.4268
   28MOL0     C 3701   7.565   8.857   8.475  0.2408  0.4310 -0.3735
   28MOL0     C 3702   7.443   8.875   8.410  0.2097 -0.3264  0.5388
   28MOL0     O 3703   7.337   8.825   8.480 -0.3506  0.3186  0.3558
   28MOL0     C 3704   7.260   8.732   8.407  0.0387 -0.3915 -0.1761
   28MOL0     C 3705   7.212   8.620   8.492  0.0569 -0.2826 -0.1976
   28MOL0     C 3706   7.108   8.659   8.599  0.2530 -0.6495  0.1974
   28MOL0     C 3707   6.972   8.696   8.539  0.0109 -0.2454  0.0996
   28MOL0     C 3708   6.874   8.717   8.646  0.2228  0.1943  0.9153
   28MOL0     C 3709   6.805   8.724   8.742 -0.1295  0.2179  0.0778
   28MOL0     C 3710   7.433   8.937   8.282  0.7228 -0.0070 -0.8693
   28MOL0     C 3711   7.548   8.997   8.238  1.2858  0.4254 -0.1748
   28MOL0     C 3712   7.526   9.072   8.108 -0.6783 -0.4953  0.2427
   28MOL0     H 3713   8.086   9.081   8.234 -1.9574 -0.4337  0.3314
   28MOL0     H 3714   8.272   9.243   8.227  1.9246  1.9128  1.6922
   28MOL0     H 3715   8.431   9.372   8.292 -1.5005 -0.9069  0.4925
   28MOL0     H 3716   8.338   9.447   8.164 -4.7523 -1.3119  1.7792
   28MOL0     H 3717   8.420   9.677   8.246 -0.5432  0.0733 -0.3859
   28MOL0     H 3718   8.539   9.576   8.159  2.1619 -2.2785  1.9609
   28MOL0     H 3719   8.609   9.494   8.408  0.0923  1.1091 -0.7763
   28MOL0     H 3720   8.509   9.626   8.456 -1.8363 -0.7788 -1.0027
   28MOL0     H 3721   8.753   9.667   8.273  2.6022  0.4502  2.2004
   28MOL0     H 3722   8.635   9.789   8.317  3.3299  2.3967 -0.1681
   28MOL0     H 3723   8.803   9.815   8.459 -0.8518  1.2627  2.0688
   28MOL0     H 3724   8.682   9.727   8.559 -2.3039 -1.7527 -1.5090
   28MOL0     H 3725   8.787   9.513   8.529 -1.1273 -0.3648 -1.4798
   28MOL0     H 3726   8.902   9.570   8.413 -1.3975 -0.8230  0.0668
   28MOL0     H 3727   8.882   9.664   8.702 -0.0572  1.6843 -0.1756
   28MOL0     H 3728   8.977   9.748   8.577  0.8838 -1.0165  0.5361
   28MOL0     H 3729   9.027   9.473   8.694 -0.3892 -0.4736 -2.0940
   28MOL0     H 3730   9.089   9.524   8.538 -3.0576 -1.1498 -0.7182
   28MOL0     H 3731   9.099   9.569   8.922  2.1737  0.9133  2.5208
   28MOL0     H 3732   9.413   9.749   9.018 -1.0967  1.6026  0.5058
   28MOL0     H 3733   9.257   9.729   9.097 -0.7393  0.7242 -0.5445
   28MOL0     H 3734   9.425   9.560   9.169 -0.6546 -1.5244  1.5001
   28MOL0     H 3735   9.287   9.481   9.092 -1.4055  0.6502 -0.6953
   28MOL0     H 3736   9.422   9.476   8.883 -2.2914  1.0911  1.4831
   28MOL0     H 3737   9.486   9.389   9.019 -0.7721  0.8450  1.8650
   28MOL0     H 3738   9.584   9.674   8.978  0.1959 -0.2883 -1.1399
   28MOL0     H 3739   9.643   9.552   8.869  0.8101  1.4625 -0.8138
   28MOL0     H 3740   9.834   9.688   8.920  1.7813  3.1018 -1.1050
   28MOL0     H 3741  10.045   9.801   8.990  1.2498 -2.8537 -1.4537
   28MOL0     H 3742  10.446   9.758   9.097  0.8493  0.5328  0.7608
   28MOL0     H 3743  10.685   9.839   9.155 -0.4684  0.3066 -2.5412
   28MOL0     H 3744  10.719  10.215   9.381  1.1184  0.6436  1.6146
   28MOL0     H 3745  10.701  10.053   9.445  0.2379 -1.5051 -0.6511
   28MOL0     H 3746  10.920  10.149   9.512  0.6849  0.3526 -0.6670
   28MOL0     H 3747  10.928   9.994   9.420 -1.9664 -0.5602 -2.4945
   28MOL0     H 3748  11.008  10.096   9.217  0.9150 -0.4707  0.0601
   28MOL0     H 3749  10.974  10.264   9.285 -0.2956 -0.8046  1.4335
   28MOL0     H 3750  11.174  10.056   9.373 -1.2120 -0.2095 -1.1226
   28MOL0     H 3751  11.180  10.195   9.454  1.7985 -3.4149  0.7979
   28MOL0     H 3752  11.207  10.311   9.207 -0.2341  0.4391  1.5436
   28MOL0     H 3753  11.240  10.137   9.166 -2.3466 -0.3821  0.8707
   28MOL0     H 3754  11.387  10.284   9.381  1.1769  2.7225 -0.8746
   28MOL0     H 3755  11.415  10.117   9.326 -1.6594  0.7074  1.4254
   28MOL0     H 3756  11.495  10.352   9.152  1.1267 -0.7317 -3.0860
   28MOL0     H 3757  11.481  10.188   9.104 -3.7568  2.3209 -0.3711
   28MOL0     H 3758  11.621  10.290   9.356 -3.8532  2.7964 -1.6362
   28MOL0     H 3759  11.629  10.127   9.280 -2.0272 -0.2387 -0.1076
   28MOL0     H 3760  10.510  10.211   9.276  0.7117 -1.3143  0.7962
   28MOL0     H 3761  10.288  10.131   9.242 -0.5862  0.1528 -0.1132
   28MOL0     H 3762   9.973   9.638   9.395 -0.8136 -0.8490 -0.2350
   28MOL0     H 3763   9.807   9.531   9.321  1.4888  0.8202  1.8677
   28MOL0     H 3764   8.062   9.492   8.496  3.3909  0.1453  2.8845
   28MOL0     H 3765   7.897   9.317   8.527  2.6384 -0.5766  2.3407
   28MOL0     H 3766   7.766   8.918   8.487  2.0458 -1.1201 -2.2744
   28MOL0     H 3767   7.570   8.806   8.571  0.1913 -0.1736 -0.6875
   28MOL0     H 3768   7.320   8.679   8.333  4.5222  1.1332  2.0411
   28MOL0     H 3769   7.177   8.778   8.353  1.2732 -1.7598 -3.4793
   28MOL0     H 3770   7.299   8.572   8.538  0.6173  1.2747  0.4063
   28MOL0     H 3771   7.165   8.541   8.432 -1.4989  1.8790 -1.9817
   28MOL0     H 3772   7.150   8.734   8.666  1.1593 -0.5364 -0.4780
   28MOL0     H 3773   7.084   8.575   8.664 -1.5522 -0.2101  0.1478
   28MOL0     H 3774   6.978   8.787   8.479  2.0566 -0.5785 -0.2759
   28MOL0     H 3775   6.941   8.623   8.463 -0.2859  0.6384 -0.6430
   28MOL0     H 3776   6.733   8.731   8.821  1.5433  0.3920  1.6313
   28MOL0     H 3777   7.338   8.924   8.230 -0.7625  4.2109  0.3866
   28MOL0     H 3778   7.562   9.005   8.030 -1.3778 -1.7415  0.9692
   28MOL0     H 3779   7.421   9.095   8.090 -0.1793  0.5607 -1.5454
   28MOL0     H 3780   7.587   9.164   8.112  1.8159 -2.0159 -0.3817
   29MOL0     O 3781   5.552   2.182   6.627  0.3666  0.4954 -0.1132
   29MOL0     C 3782   5.490   2.269   6.682  0.3716 -0.0625 -1.2581
   29MOL0     O 3783   5.538   2.373   6.764  0.4528 -0.0640 -0.2546
   29MOL0     C 3784   5.664   2.398   6.803 -0.3306  0.5814 -0.2001
   29MOL0     C 3785   5.680   2.449   6.932  0.5059 -1.0487  0.8422
   29MOL0     C 3786   5.811   2.480   6.970 -0.4821 -0.8818 -0.5112
   29MOL0     C 3787   5.928   2.430   6.899  0.7364 -0.7043 -0.0020
   29MOL0     O 3788   6.047   2.471   6.949 -0.1983  0.6180 -0.0827
   29MOL0     C 3789   6.173   2.459   6.875  0.1121  0.0313  0.8645
   29MOL0     C 3790   6.268   2.573   6.929 -0.0966  0.5163 -0.0954
   29MOL0     C 3791   6.213   2.718   6.936  1.3541 -0.2687 -0.8388
   29MOL0     C 3792   6.192   2.766   6.791 -0.6597  0.1389 -0.2234
   29MOL0     C 3793   6.130   2.910   6.784  0.5579  0.9877 -0.4485
   29MOL0     C 3794   6.228   3.008   6.841  0.0421 -0.0682  1.5938
   29MOL0     C 3795   6.168   3.144   6.841  0.4443 -0.5379  0.0611
   29MOL0     C 3796   6.208   3.231   6.957 -0.0067 -0.5092 -0.0855
   29MOL0     N 3797   6.355   3.254   6.957  0.3279 -0.8463  0.4562
   29MOL0     C 3798   6.446   3.170   7.014  0.3379 -0.2156 -0.2374
   29MOL0     C 3799   6.562   3.224   6.972 -0.7266  0.8312  0.3727
   29MOL0     C 3800   6.697   3.193   7.033 -0.1986  0.2810 -0.0544
   29MOL0     C 3801   6.810   3.179   6.917 -0.2266  0.2855 -0.1773
   29MOL0     C 3802   6.952   3.183   6.970 -0.1574 -0.0839  0.2129
   29MOL0     C 3803   7.053   3.178   6.855  0.2473 -0.5474  0.7139
   29MOL0     O 3804   7.186   3.128   6.890 -0.3005 -0.3784 -0.0006
   29MOL0     C 3805   7.297   3.201   6.893  0.3036 -1.2663  0.7115
   29MOL0     C 3806   7.419   3.135   6.887  0.1782  0.0371 -0.9401
   29MOL0     C 3807   7.544   3.208   6.889  0.1862 -0.3357  0.4921
   29MOL0     C 3808   7.550   3.340   6.908  0.8811  0.3635 -1.2619
   29MOL0     C 3809   7.676   3.413   6.907  0.0530  0.1920  0.2033
   29MOL0     O 3810   7.795   3.334   6.890 -0.2516 -0.4518  0.6918
   29MOL0     C 3811   7.916   3.389   6.876 -0.5469  0.4885  0.8419
   29MOL0     C 3812   8.008   3.315   6.799  0.2498  0.6220  0.4180
   29MOL0     C 3813   8.144   3.363   6.787  0.0416 -0.1631  0.3322
   29MOL0     C 3814   8.186   3.481   6.844 -0.9924  0.3308  0.7818
   29MOL0     O 3815   8.316   3.538   6.838  0.4838 -1.1017 -0.4243
   29MOL0     C 3816   8.403   3.495   6.738 -0.3998 -0.0638 -0.4929
   29MOL0     C 3817   8.518   3.604   6.730  0.4035 -0.2188 -0.6682
   29MOL0     C 3818   8.460   3.736   6.674  0.6575  0.0364  0.4906
   29MOL0     C 3819   8.556   3.847   6.709 -0.1505 -0.5102  0.0054
   29MOL0     C 3820   8.550   3.961   6.610 -0.5019  0.1280 -0.6979
   29MOL0     C 3821   8.615   4.091   6.657  0.5367 -0.2602  0.3143
   29MOL0     C 3822   8.764   4.058   6.680  1.2002  0.5976  0.5972
   29MOL0     C 3823   8.824   4.182   6.721 -0.0744  0.5693  0.0595
   29MOL0    Cl 3824   8.996   4.169   6.707  0.1954  0.2448  0.0388
   29MOL0     C 3825   8.088   3.546   6.924  0.0833  1.0059 -1.0896
   29MOL0     C 3826   7.957   3.501   6.934  0.2423 -0.8061  0.7077
   29MOL0     O 3827   7.674   3.533   6.907  0.2171  0.0119 -1.1480
   29MOL0     C 3828   7.429   3.407   6.908 -0.4614 -0.3716  0.1545
   29MOL0     C 3829   7.305   3.346   6.906  0.5428  0.7104 -0.2992
   29MOL0     N 3830   6.543   3.337   6.901 -0.1230 -0.2186  0.0447
   29MOL0     N 3831   6.415   3.364   6.898  1.2124 -0.4844 -0.3143
   29MOL0     C 3832   5.905   2.373   6.775 -0.4386  0.2792  0.1201
   29MOL0     C 3833   5.776   2.351   6.728 -0.0505 -1.4981 -0.1599
   29MOL0     C 3834   5.344   2.270   6.665  0.5992 -0.1421 -0.7701
   29MOL0     C 3835   5.270   2.334   6.767  0.6495 -0.5880 -0.3036
   29MOL0     C 3836   5.126   2.332   6.759 -0.3215  0.3877 -0.7908
   29MOL0     C 3837   5.058   2.279   6.651 -0.0730 -0.1114 -0.2390
   29MOL0     O 3838   4.923   2.282   6.647  0.5687  0.1573 -0.5549
   29MOL0     C 3839   4.859   2.386   6.574 -0.1328  0.4336  0.9553
   29MOL0     C 3840   4.739   2.321   6.500 -0.6278 -0.0518 -0.1708
   29MOL0     C 3841   4.626   2.415   6.463  0.6561  0.6011 -0.0585
   29MOL0     C 3842   4.508   2.319   6.434  0.5833  0.0613 -0.0362
   29MOL0     C 3843   4.523   2.218   6.333 -0.4602  0.9712  0.0152
   29MOL0     C 3844   4.537   2.136   6.245  0.0565 -0.3752 -0.0410
   29MOL0     C 3845   5.135   2.208   6.556  0.1102  0.3956  0.5404
   29MOL0     C 3846   5.278   2.202   6.563  0.8866  0.4121  0.6248
   29MOL0     C 3847   5.336   2.132   6.441  0.1053  0.3503  0.0472
   29MOL0     H 3848   5.592   2.488   6.983  0.0372  0.4148 -0.9764
   29MOL0     H 3849   5.817   2.529   7.067 -0.9687 -1.0179 -0.4055
   29MOL0     H 3850   6.210   2.358   6.894  1.1756 -0.0747 -1.4297
   29MOL0     H 3851   6.149   2.474   6.769 -0.3579 -0.1294  0.9457
   29MOL0     H 3852   6.357   2.566   6.865 -0.2557 -2.9625 -0.1093
   29MOL0     H 3853   6.298   2.554   7.032  1.2758  0.8076 -0.4078
   29MOL0     H 3854   6.276   2.782   6.999 -0.8728  0.6521  0.5854
   29MOL0     H 3855   6.115   2.711   6.984  1.5455  1.6174 -0.0902
   29MOL0     H 3856   6.287   2.756   6.736 -1.6360 -1.6916 -1.6848
   29MOL0     H 3857   6.110   2.705   6.753 -0.8545 -1.6514  2.7513
   29MOL0     H 3858   6.119   2.930   6.677 -2.4182 -2.5644 -1.0023
   29MOL0     H 3859   6.029   2.910   6.827  0.8902 -0.1463  0.3819
   29MOL0     H 3860   6.240   2.967   6.942 -0.0247 -1.7539  0.9421
   29MOL0     H 3861   6.329   3.001   6.798  0.6267 -0.4169  2.9594
   29MOL0     H 3862   6.058   3.145   6.842  0.4376 -0.9512  1.0852
   29MOL0     H 3863   6.206   3.198   6.754 -0.7598  1.0991  0.4899
   29MOL0     H 3864   6.152   3.325   6.960  0.2416 -0.3950  1.2870
   29MOL0     H 3865   6.182   3.186   7.053 -0.2019 -1.0955 -0.4128
   29MOL0     H 3866   6.430   3.089   7.084 -0.1513  1.5020  1.7420
   29MOL0     H 3867   6.722   3.268   7.108 -1.0371 -0.5510  1.0856
   29MOL0     H 3868   6.691   3.095   7.081 -3.4555  0.4596  0.1302
   29MOL0     H 3869   6.802   3.088   6.856 -0.6532  1.8651 -2.6126
   29MOL0     H 3870   6.794   3.273   6.864  0.4449 -0.6023 -2.0428
   29MOL0     H 3871   6.972   3.095   7.032  1.4052 -1.4927 -2.1706
   29MOL0     H 3872   6.971   3.277   7.023 -2.0578  2.1739 -2.7737
   29MOL0     H 3873   7.062   3.285   6.834  2.7272 -0.0673  3.5951
   29MOL0     H 3874   7.009   3.116   6.775 -3.9693  0.7869  1.7604
   29MOL0     H 3875   7.417   3.027   6.878 -1.0735  0.1395 -2.2511
   29MOL0     H 3876   7.632   3.146   6.873  0.6616  0.4402  0.0173
   29MOL0     H 3877   7.979   3.223   6.749  0.4551  0.0903  1.2735
   29MOL0     H 3878   8.212   3.307   6.723 -0.2875  0.7919 -0.9023
   29MOL0     H 3879   8.439   3.397   6.773 -0.8723  0.2161  0.8400
   29MOL0     H 3880   8.353   3.491   6.641  1.5266 -1.6313 -1.5173
   29MOL0     H 3881   8.562   3.619   6.829 -1.0895 -0.4595  0.0601
   29MOL0     H 3882   8.594   3.569   6.661  1.6095  0.0075  0.5026
   29MOL0     H 3883   8.447   3.743   6.566 -0.5439 -0.8708  0.5529
   29MOL0     H 3884   8.362   3.755   6.720  0.3029 -2.2352  0.8021
   29MOL0     H 3885   8.655   3.800   6.715  0.2376  0.0794 -1.3687
   29MOL0     H 3886   8.520   3.879   6.808  1.7911  0.3379  0.4968
   29MOL0     H 3887   8.447   3.986   6.582 -0.8494  2.3266  2.0035
   29MOL0     H 3888   8.589   3.933   6.512  2.1156  0.3554  0.2083
   29MOL0     H 3889   8.601   4.166   6.578 -1.6724  0.1480  1.0402
   29MOL0     H 3890   8.560   4.131   6.742  0.7878  0.6753  0.0497
   29MOL0     H 3891   8.821   4.031   6.590  0.6092 -0.2946  0.4779
   29MOL0     H 3892   8.781   3.984   6.758  0.2412  3.6024  3.9654
   29MOL0     H 3893   8.793   4.261   6.653  2.0184 -0.0146 -1.7124
   29MOL0     H 3894   8.798   4.198   6.826  1.4574 -0.8315  0.6954
   29MOL0     H 3895   8.116   3.634   6.980 -1.0469  2.1583 -2.2937
   29MOL0     H 3896   7.886   3.552   6.998 -1.5697 -0.6576 -1.3076
   29MOL0     H 3897   7.419   3.515   6.916  3.2363  0.0841  0.3028
   29MOL0     H 3898   7.211   3.400   6.909 -0.4424 -0.8121 -1.6582
   29MOL0     H 3899   5.991   2.338   6.719  0.1697  3.1367 -0.8725
   29MOL0     H 3900   5.766   2.302   6.632  0.8932 -2.3668  0.1658
   29MOL0     H 3901   5.302   2.375   6.862 -2.8361 -2.4307  1.8971
   29MOL0     H 3902   5.082   2.374   6.848  2.4239 -3.1080  2.5586
   29MOL0     H 3903   4.937   2.425   6.510  2.2977 -0.5314  3.1475
   29MOL0     H 3904   4.833   2.474   6.633  1.7245 -0.0884  2.6610
   29MOL0     H 3905   4.699   2.246   6.569  1.1920 -1.0292 -0.0980
   29MOL0     H 3906   4.777   2.278   6.407  0.9147 -0.2581  0.5165
   29MOL0     H 3907   4.648   2.473   6.373  1.6458  1.2483  0.5849
   29MOL0     H 3908   4.598   2.484   6.543  0.6997 -1.8298  2.1893
   29MOL0     H 3909   4.487   2.268   6.528  1.1976 -0.7523 -0.3296
   29MOL0     H 3910   4.422   2.381   6.404  0.7356  0.3813  0.1771
   29MOL0     H 3911   4.559   2.074   6.160 -1.3577  1.4904 -1.8594
   29MOL0     H 3912   5.082   2.166   6.471  3.3714  0.9399 -1.9972
   29MOL0     H 3913   5.266   2.076   6.379  0.3207 -0.2036  0.2895
   29MOL0     H 3914   5.411   2.188   6.385  0.2402  0.3812  0.2550
   29MOL0     H 3915   5.400   2.058   6.491  2.3391  1.9149 -0.3368
   30MOL0     O 3916   1.592   6.383   2.904 -0.0963  0.0310 -0.0334
   30MOL0     C 3917   1.655   6.331   2.996  0.4099 -0.6255 -0.7316
   30MOL0     O 3918   1.607   6.227   3.076  0.6878 -0.0770  0.5175
   30MOL0     C 3919   1.477   6.183   3.046 -0.3998 -0.2418 -0.7051
   30MOL0     C 3920   1.441   6.113   2.926  0.4418 -0.7862  0.5308
   30MOL0     C 3921   1.309   6.089   2.898 -0.3639 -0.2929  0.6692
   30MOL0     C 3922   1.207   6.106   2.987  0.3839  0.0233 -0.4759
   30MOL0     O 3923   1.081   6.077   2.952 -0.0358  0.5140 -0.2595
   30MOL0     C 3924   1.048   6.096   2.810  0.5643  0.4789 -0.3761
   30MOL0     C 3925   0.894   6.087   2.798  0.6953 -0.7011  0.4593
   30MOL0     C 3926   0.862   6.108   2.647 -0.5767  0.4588  0.7192
   30MOL0     C 3927   0.719   6.161   2.623  0.2337 -0.2541 -0.4733
   30MOL0     C 3928   0.682   6.126   2.482 -0.1547  0.0424  0.4914
   30MOL0     C 3929   0.595   6.000   2.479 -0.4253 -0.0204 -0.4571
   30MOL0     C 3930   0.540   5.953   2.343  0.6453  0.2423  0.2262
   30MOL0     C 3931   0.437   6.056   2.290 -0.9161  0.2883 -0.6600
   30MOL0     N 3932   0.399   6.032   2.156  0.3062  0.1611 -0.1821
   30MOL0     C 3933   0.299   5.955   2.113  0.5285 -0.1552 -0.3762
   30MOL0     C 3934   0.293   5.956   1.980 -1.0424  0.0830  0.3265
   30MOL0     C 3935   0.183   5.902   1.890 -0.7671 -0.3316  0.1231
   30MOL0     C 3936   0.077   6.008   1.881  0.4629  0.5417  0.6685
   30MOL0     C 3937  -0.057   5.941   1.836  0.0453  0.3396  0.5661
   30MOL0     C 3938  -0.180   6.031   1.837  0.5887 -0.3607  0.6820
   30MOL0     O 3939  -0.279   5.964   1.762  0.2300 -0.4977 -0.4144
   30MOL0     C 3940  -0.409   6.002   1.773  0.0559 -0.1043 -0.2188
   30MOL0     C 3941  -0.513   5.910   1.758  0.1594 -0.5819 -0.4155
   30MOL0     C 3942  -0.649   5.949   1.766  0.3076  0.2039 -0.0025
   30MOL0     C 3943  -0.680   6.089   1.765 -0.0098  0.4402  1.0155
   30MOL0     C 3944  -0.812   6.134   1.746  0.2739 -0.2204 -1.0876
   30MOL0     O 3945  -0.902   6.035   1.726  0.4605 -0.4287 -0.0642
   30MOL0     C 3946  -1.035   6.064   1.732 -0.6220 -0.6856  0.2597
   30MOL0     C 3947  -1.121   5.991   1.646 -1.1736 -0.5452  0.9533
   30MOL0     C 3948  -1.255   6.013   1.654 -0.6042 -0.3957  1.0748
   30MOL0     C 3949  -1.313   6.113   1.734  0.0689 -0.2192  0.1865
   30MOL0     O 3950  -1.446   6.140   1.739  1.3123 -0.6803 -0.9668
   30MOL0     C 3951  -1.542   6.110   1.631  0.2471  0.3298  0.3581
   30MOL0     C 3952  -1.687   6.145   1.685  0.2980  0.2554  0.0535
   30MOL0     C 3953  -1.789   6.138   1.573 -0.4396 -0.3669  0.9040
   30MOL0     C 3954  -1.929   6.109   1.628  0.4411  0.0266  0.4466
   30MOL0     C 3955  -2.038   6.090   1.518  0.5284 -0.7202  0.0339
   30MOL0     C 3956  -2.068   6.202   1.417 -0.3075  0.4183 -0.9118
   30MOL0     C 3957  -2.167   6.297   1.485 -0.7013  0.3964 -0.4609
   30MOL0     C 3958  -2.220   6.405   1.393 -0.7598 -0.2616 -0.1924
   30MOL0    Cl 3959  -2.341   6.492   1.480  0.0510 -0.0736  0.0961
   30MOL0     C 3960  -1.226   6.191   1.812 -0.3200  0.4660  0.4222
   30MOL0     C 3961  -1.096   6.159   1.813 -0.4621  0.2268 -0.0396
   30MOL0     O 3962  -0.829   6.257   1.739  0.6812 -0.2727  0.2786
   30MOL0     C 3963  -0.577   6.180   1.770 -0.2743  0.4257  0.2321
   30MOL0     C 3964  -0.441   6.139   1.777  0.6987  0.0443  1.0470
   30MOL0     N 3965   0.403   6.029   1.941  0.3276 -0.2560 -0.2602
   30MOL0     N 3966   0.463   6.072   2.048  0.2419 -0.6565 -0.6257
   30MOL0     C 3967   1.236   6.153   3.111 -0.3017 -0.4115  0.1180
   30MOL0     C 3968   1.375   6.197   3.140 -0.0575 -0.1569  0.0433
   30MOL0     C 3969   1.778   6.392   3.049  1.2553 -0.9600  0.9517
   30MOL0     C 3970   1.814   6.379   3.186 -0.3576  0.4208  1.1296
   30MOL0     C 3971   1.921   6.446   3.241  0.5414 -0.1029  0.0368
   30MOL0     C 3972   2.006   6.511   3.157 -0.1874  0.4504 -1.0862
   30MOL0     O 3973   2.128   6.554   3.212  0.5017 -0.3039 -0.2170
   30MOL0     C 3974   2.210   6.642   3.132 -0.0733 -0.7197 -0.0147
   30MOL0     C 3975   2.348   6.678   3.201  0.2476  0.0997  0.0358
   30MOL0     C 3976   2.319   6.782   3.303  0.3458 -0.4816  0.4446
   30MOL0     C 3977   2.437   6.840   3.366 -0.4753 -0.6429 -0.7141
   30MOL0     C 3978   2.511   6.937   3.286 -0.1136 -1.0471 -0.6152
   30MOL0     C 3979   2.576   7.023   3.241 -1.1305  0.2498 -0.2279
   30MOL0     C 3980   1.972   6.520   3.022  1.1761 -1.5570  0.2446
   30MOL0     C 3981   1.862   6.463   2.960 -0.0832  0.4806  0.4081
   30MOL0     C 3982   1.842   6.484   2.815  0.3873  0.2480 -0.2398
   30MOL0     H 3983   1.517   6.094   2.850  0.4291 -1.5981  0.7156
   30MOL0     H 3984   1.303   6.059   2.794 -0.6793 -1.3037  0.9645
   30MOL0     H 3985   1.067   6.196   2.770 -0.7490  0.3121 -1.5009
   30MOL0     H 3986   1.092   6.012   2.755 -0.5089 -0.6121  0.3765
   30MOL0     H 3987   0.848   6.168   2.856  1.7767  0.7802 -0.6536
   30MOL0     H 3988   0.861   5.987   2.826 -0.9847 -0.3133  0.0102
   30MOL0     H 3989   0.875   6.010   2.598  1.4641  0.8810  0.3326
   30MOL0     H 3990   0.931   6.180   2.603 -0.0674 -1.1948 -1.3984
   30MOL0     H 3991   0.650   6.101   2.684  0.9793 -0.5771  0.0704
   30MOL0     H 3992   0.709   6.269   2.639  0.7024 -0.2763 -0.0194
   30MOL0     H 3993   0.633   6.209   2.429 -1.1591 -0.3114  0.8410
   30MOL0     H 3994   0.772   6.101   2.425 -0.1441  2.0654 -0.4788
   30MOL0     H 3995   0.650   5.917   2.525 -0.7044  0.4536  0.7627
   30MOL0     H 3996   0.513   6.009   2.550  0.2391 -1.5671  0.5584
   30MOL0     H 3997   0.488   5.858   2.358  1.8343 -0.1990  1.8035
   30MOL0     H 3998   0.625   5.935   2.278 -0.3608 -1.3100 -0.7002
   30MOL0     H 3999   0.352   6.061   2.359  0.6668  0.1876  1.4152
   30MOL0     H 4000   0.480   6.156   2.284  2.8349 -0.9681  1.6701
   30MOL0     H 4001   0.226   5.908   2.178  1.5016 -0.3163  0.6256
   30MOL0     H 4002   0.227   5.893   1.790  1.9017  3.4977  0.7585
   30MOL0     H 4003   0.142   5.806   1.922 -1.0501 -0.2581 -0.0161
   30MOL0     H 4004   0.039   6.039   1.979 -3.1915  0.6134 -0.6215
   30MOL0     H 4005   0.103   6.094   1.819 -0.7930  1.3659  1.2326
   30MOL0     H 4006  -0.080   5.855   1.899  1.9056  1.0139  2.2944
   30MOL0     H 4007  -0.038   5.904   1.735  0.5003  1.5290  0.1992
   30MOL0     H 4008  -0.142   6.120   1.786  2.4120 -0.2761  2.0628
   30MOL0     H 4009  -0.205   6.056   1.940  0.6603 -0.4190  0.7136
   30MOL0     H 4010  -0.513   5.802   1.759 -2.1983 -0.6250  0.9357
   30MOL0     H 4011  -0.725   5.873   1.759 -0.1514  0.7163 -0.6230
   30MOL0     H 4012  -1.071   5.927   1.575 -0.8987 -0.4657  1.0706
   30MOL0     H 4013  -1.321   5.963   1.584 -3.7395  2.1937  1.9443
   30MOL0     H 4014  -1.516   6.178   1.550 -2.6071  0.4894 -0.5585
   30MOL0     H 4015  -1.547   6.014   1.579  1.0522 -0.4012  1.5880
   30MOL0     H 4016  -1.712   6.079   1.769  0.0139 -0.7849 -0.8324
   30MOL0     H 4017  -1.702   6.251   1.708 -5.7627  0.2281 -2.1164
   30MOL0     H 4018  -1.794   6.235   1.524 -3.0010  0.3587  2.3786
   30MOL0     H 4019  -1.773   6.068   1.490 -0.5937  2.3103 -1.5327
   30MOL0     H 4020  -1.952   6.198   1.689  0.2155 -0.3609  0.9346
   30MOL0     H 4021  -1.920   6.015   1.683  0.6963  0.1922  0.6914
   30MOL0     H 4022  -2.128   6.052   1.567  2.4441 -4.6543  0.9369
   30MOL0     H 4023  -2.001   6.010   1.453  1.7468 -0.2178  0.0834
   30MOL0     H 4024  -1.977   6.255   1.387  1.4569 -1.6220  0.5523
   30MOL0     H 4025  -2.109   6.155   1.328  1.4545 -1.0725 -0.9786
   30MOL0     H 4026  -2.136   6.335   1.583 -1.9771 -0.1224  0.1628
   30MOL0     H 4027  -2.257   6.238   1.506 -1.7724  2.1129 -0.0331
   30MOL0     H 4028  -2.134   6.467   1.366 -1.5925  1.2562  0.4971
   30MOL0     H 4029  -2.266   6.363   1.303  1.2445  1.6173 -2.2291
   30MOL0     H 4030  -1.266   6.272   1.872 -1.8100 -0.5648  0.8795
   30MOL0     H 4031  -1.028   6.216   1.875  1.2720  0.5888 -2.1803
   30MOL0     H 4032  -0.599   6.286   1.773 -1.6110  0.2762 -2.1826
   30MOL0     H 4033  -0.362   6.213   1.786 -1.2178  2.6542 -1.5521
   30MOL0     H 4034   1.147   6.163   3.173  0.3090  0.9971  0.8116
   30MOL0     H 4035   1.410   6.233   3.237  1.0685  0.1568 -0.4702
   30MOL0     H 4036   1.751   6.323   3.254  0.2116 -0.1912  1.1639
   30MOL0     H 4037   1.939   6.436   3.347 -0.5946 -1.6702  0.1229
   30MOL0     H 4038   2.147   6.728   3.108 -0.7096 -1.0983  0.2873
   30MOL0     H 4039   2.239   6.579   3.047  2.1779 -0.1550  0.2462
   30MOL0     H 4040   2.427   6.715   3.136 -0.1244  0.8158 -0.0169
   30MOL0     H 4041   2.373   6.589   3.260 -1.5471  1.8264  3.7496
   30MOL0     H 4042   2.262   6.739   3.386 -2.7053  1.2729 -0.5984
   30MOL0     H 4043   2.272   6.868   3.254  1.8507 -1.6270 -3.3658
   30MOL0     H 4044   2.403   6.897   3.453 -0.8516 -1.8776 -0.0220
   30MOL0     H 4045   2.502   6.759   3.401 -0.3734 -0.3855 -0.3003
   30MOL0     H 4046   2.633   7.105   3.202  1.6948 -1.2459  0.4865
   30MOL0     H 4047   2.033   6.570   2.948  1.2239 -1.9151  0.0390
   30MOL0     H 4048   1.822   6.387   2.769 -3.0909  0.7906 -0.1353
   30MOL0     H 4049   1.754   6.548   2.801 -1.5957 -1.9339  1.5300
   30MOL0     H 4050   1.922   6.535   2.761 -1.8659  3.5473 -0.8074
   31MOL0     O 4051  10.537   3.078   2.577  0.1924 -1.3232  0.7797
   31MOL0     C 4052  10.462   2.982   2.552  0.4253  0.0379  0.6413
   31MOL0     O 4053  10.492   2.851   2.564  0.5958  0.3328 -0.5717
   31MOL0     C 4054  10.602   2.797   2.631 -0.0587  0.3957  0.4524
   31MOL0     C 4055  10.694   2.868   2.710  0.7752 -0.3127  0.3920
   31MOL0     C 4056  10.811   2.814   2.742  0.0272  0.7145 -0.3765
   31MOL0     C 4057  10.837   2.672   2.733 -0.7476 -0.4502  0.8396
   31MOL0     O 4058  10.958   2.613   2.769  0.4193  0.7217  0.3637
   31MOL0     C 4059  11.038   2.678   2.863  0.2861  0.1515 -0.3657
   31MOL0     C 4060  11.157   2.594   2.908  0.4089  0.5109  0.6578
   31MOL0     C 4061  11.233   2.673   3.008 -0.5172 -0.3617 -0.5941
   31MOL0     C 4062  11.333   2.585   3.079 -0.0450 -0.3098  0.6733
   31MOL0     C 4063  11.383   2.639   3.211  0.3244  0.7263  0.1329
   31MOL0     C 4064  11.456   2.525   3.284 -0.9970 -0.1401  0.0928
   31MOL0     C 4065  11.532   2.586   3.408  0.2780 -0.9829  0.2214
   31MOL0     C 4066  11.621   2.485   3.485  0.3793 -0.2096 -0.3203
   31MOL0     N 4067  11.754   2.471   3.428 -0.3681  0.5550 -0.2658
   31MOL0     C 4068  11.838   2.580   3.433  0.0323 -0.3338  0.5776
   31MOL0     C 4069  11.965   2.538   3.426 -0.4924  0.2537 -0.0275
   31MOL0     C 4070  12.080   2.622   3.457 -0.4159 -0.1126  0.2170
   31MOL0     C 4071  12.152   2.649   3.329  0.6121 -0.1244 -0.0475
   31MOL0     C 4072  12.255   2.762   3.356 -0.1928  0.2092 -0.1678
   31MOL0     C 4073  12.338   2.788   3.226 -0.9994  0.2803 -0.2023
   31MOL0     O 4074  12.397   2.921   3.211 -1.1560  0.4016 -0.3126
   31MOL0     C 4075  12.513   2.929   3.138 -0.8609  0.3588  0.3581
   31MOL0     C 4076  12.557   2.853   3.026  0.3599 -0.4889 -0.8573
   31MOL0     C 4077  12.672   2.882   2.953  0.4208  0.0897 -0.6138
   31MOL0     C 4078  12.741   2.999   2.985  0.5297  0.5290 -0.5780
   31MOL0     C 4079  12.867   3.033   2.922  0.0296  0.6105 -0.0312
   31MOL0     O 4080  12.934   2.925   2.852  0.0600 -0.4550 -0.1198
   31MOL0     C 4081  13.042   2.964   2.780  0.5509 -0.0823  0.2718
   31MOL0     C 4082  13.041   2.976   2.636  0.3989  0.1166 -0.9890
   31MOL0     C 4083  13.164   2.990   2.567  0.2434  0.1379 -0.2779
   31MOL0     C 4084  13.282   3.002   2.638  0.6417  0.1466 -0.5830
   31MOL0     O 4085  13.393   3.044   2.569 -0.1519  1.0827 -0.4869
   31MOL0     C 4086  13.529   3.039   2.629  0.0794  0.0134 -0.4386
   31MOL0     C 4087  13.639   3.052   2.518  0.4245  0.1552 -0.5327
   31MOL0     C 4088  13.664   2.929   2.430  0.3327 -0.6931 -0.0942
   31MOL0     C 4089  13.606   2.948   2.290  0.1649 -0.4597  0.0975
   31MOL0     C 4090  13.653   2.846   2.194  0.8432  1.4386 -0.8285
   31MOL0     C 4091  13.797   2.845   2.144  0.1639 -0.6818  0.4639
   31MOL0     C 4092  13.817   2.728   2.064 -0.8678  0.6601 -0.1940
   31MOL0     C 4093  13.956   2.723   1.994  0.2733  0.3362 -0.3309
   31MOL0    Cl 4094  14.066   2.650   2.105 -0.2816  0.2846 -0.0402
   31MOL0     C 4095  13.274   3.011   2.780  0.7752 -0.2065  0.4598
   31MOL0     C 4096  13.160   2.983   2.849 -0.2427  0.4661  0.3249
   31MOL0     O 4097  12.910   3.148   2.936  0.3426 -0.3366  0.2303
   31MOL0     C 4098  12.696   3.079   3.089 -0.7761  0.0354  0.0454
   31MOL0     C 4099  12.586   3.046   3.165 -0.0817 -0.9289 -0.7823
   31MOL0     N 4100  11.951   2.391   3.406 -0.2888  0.0106  0.4077
   31MOL0     N 4101  11.826   2.354   3.409  0.0270 -0.3578  0.1965
   31MOL0     C 4102  10.747   2.596   2.658  0.7276 -0.4612 -0.4277
   31MOL0     C 4103  10.628   2.656   2.604  0.5105  0.3394  0.8940
   31MOL0     C 4104  10.325   3.024   2.513 -0.0345  0.6625  0.3509
   31MOL0     C 4105  10.295   3.167   2.497  0.4253 -0.1223  0.3971
   31MOL0     C 4106  10.167   3.212   2.468 -0.0044 -0.0122 -0.6217
   31MOL0     C 4107  10.065   3.119   2.449  0.8704  0.0112  0.8107
   31MOL0     O 4108   9.943   3.163   2.406  0.2870  0.3811 -0.3595
   31MOL0     C 4109   9.828   3.095   2.455  0.3086 -0.4308 -0.5875
   31MOL0     C 4110   9.704   3.191   2.447  0.0723  0.1075 -0.0583
   31MOL0     C 4111   9.690   3.255   2.311  0.5447 -0.3451  0.5529
   31MOL0     C 4112   9.691   3.163   2.181 -0.5929  0.0493 -0.0152
   31MOL0     C 4113   9.579   3.073   2.170 -0.8017 -0.2277  0.2516
   31MOL0     C 4114   9.483   3.001   2.160  0.8641 -0.3371  0.5136
   31MOL0     C 4115  10.100   2.978   2.448  1.3230 -0.3695  0.1895
   31MOL0     C 4116  10.223   2.926   2.486  0.2520  0.7033 -0.4447
   31MOL0     C 4117  10.243   2.772   2.486 -0.8396 -0.0742  0.0405
   31MOL0     H 4118  10.670   2.972   2.731 -1.3040 -0.5961 -0.3887
   31MOL0     H 4119  10.878   2.880   2.798  1.1387  0.5160 -1.4319
   31MOL0     H 4120  11.072   2.775   2.825  0.5268  0.1252 -0.2194
   31MOL0     H 4121  10.998   2.699   2.963  2.1448 -0.1317  0.4817
   31MOL0     H 4122  11.218   2.576   2.819 -0.8696 -0.6565 -0.0228
   31MOL0     H 4123  11.118   2.502   2.952 -3.0829  2.1143  1.3426
   31MOL0     H 4124  11.167   2.701   3.091  0.3256 -1.4068  0.4892
   31MOL0     H 4125  11.281   2.766   2.977  0.8391 -0.3082  1.4419
   31MOL0     H 4126  11.293   2.486   3.103  3.3488 -2.4683 -1.5296
   31MOL0     H 4127  11.412   2.574   3.003 -1.4268 -0.7044 -0.7610
   31MOL0     H 4128  11.456   2.719   3.195 -1.2655  2.0626 -0.7571
   31MOL0     H 4129  11.305   2.678   3.277 -1.1516  0.7368 -1.5393
   31MOL0     H 4130  11.388   2.442   3.308  0.5211 -0.8396  2.2877
   31MOL0     H 4131  11.534   2.480   3.222 -1.2866  0.6846 -0.9006
   31MOL0     H 4132  11.464   2.618   3.488  2.1369 -0.2346  1.5855
   31MOL0     H 4133  11.591   2.668   3.366 -0.0128 -1.1815 -0.5913
   31MOL0     H 4134  11.625   2.508   3.592  0.3339  0.8937 -0.5401
   31MOL0     H 4135  11.567   2.390   3.485  0.3482 -0.1926 -0.0222
   31MOL0     H 4136  11.798   2.680   3.437 -2.3451 -1.2573  2.0968
   31MOL0     H 4137  12.048   2.722   3.490 -0.8368  1.0889 -3.3968
   31MOL0     H 4138  12.139   2.576   3.537 -0.5092 -1.2585 -0.3524
   31MOL0     H 4139  12.194   2.553   3.297 -2.1638 -1.4585 -0.0272
   31MOL0     H 4140  12.076   2.682   3.258 -0.0903  0.2123  0.8372
   31MOL0     H 4141  12.315   2.733   3.442 -0.0529 -1.0696 -0.6752
   31MOL0     H 4142  12.218   2.860   3.388  1.5329 -0.3863  4.3534
   31MOL0     H 4143  12.271   2.773   3.141  1.3253 -0.9718 -1.9245
   31MOL0     H 4144  12.415   2.710   3.218 -2.4540 -2.2287  5.2556
   31MOL0     H 4145  12.494   2.773   2.989  0.5600 -0.1807 -1.8985
   31MOL0     H 4146  12.694   2.813   2.872 -1.9487  1.5548 -2.6355
   31MOL0     H 4147  12.950   2.962   2.577 -0.5572 -1.4539  0.7665
   31MOL0     H 4148  13.177   2.989   2.460 -1.0812 -2.7282 -0.5137
   31MOL0     H 4149  13.530   3.122   2.700 -0.2801 -0.2576 -0.1092
   31MOL0     H 4150  13.540   2.949   2.690  0.8900  0.4498  0.0703
   31MOL0     H 4151  13.624   3.140   2.455 -1.6159  0.0527 -0.2398
   31MOL0     H 4152  13.733   3.067   2.572  0.6697 -1.1350 -0.5713
   31MOL0     H 4153  13.770   2.905   2.418  1.0374  1.1826  1.7904
   31MOL0     H 4154  13.630   2.841   2.484 -0.2649  1.2850  2.9767
   31MOL0     H 4155  13.648   3.039   2.247  2.1769 -1.1166  0.5900
   31MOL0     H 4156  13.496   2.944   2.287  0.1708 -0.0499 -0.8678
   31MOL0     H 4157  13.585   2.863   2.110 -2.6751  3.4270  2.1570
   31MOL0     H 4158  13.640   2.747   2.239 -2.6597  0.4355 -3.5719
   31MOL0     H 4159  13.816   2.942   2.097  2.3146 -0.6838  1.2097
   31MOL0     H 4160  13.871   2.830   2.224  2.8049  0.6565 -1.5719
   31MOL0     H 4161  13.742   2.732   1.984 -0.9318  0.1324 -0.1633
   31MOL0     H 4162  13.810   2.636   2.123  3.0086 -0.2906 -0.9936
   31MOL0     H 4163  13.960   2.650   1.912  1.0169  0.2333 -0.2090
   31MOL0     H 4164  13.998   2.817   1.958  4.2249 -2.3960 -3.8839
   31MOL0     H 4165  13.357   3.051   2.839 -1.1393  2.4011  1.5875
   31MOL0     H 4166  13.167   2.985   2.957 -3.8743 -0.8721  0.7438
   31MOL0     H 4167  12.752   3.166   3.121 -0.1517 -0.6599  0.8764
   31MOL0     H 4168  12.562   3.097   3.258  1.7026  0.3372 -0.9573
   31MOL0     H 4169  10.757   2.494   2.624  0.6808  0.0560 -2.1073
   31MOL0     H 4170  10.556   2.614   2.534  0.7253  1.6482 -0.1608
   31MOL0     H 4171  10.372   3.243   2.510  0.1551  0.1998  0.1364
   31MOL0     H 4172  10.142   3.317   2.453 -0.8223 -0.2670 -1.0660
   31MOL0     H 4173   9.830   3.074   2.562  3.1249  0.8067 -0.3238
   31MOL0     H 4174   9.817   3.005   2.394  1.6745 -1.8924  1.1856
   31MOL0     H 4175   9.707   3.263   2.529  1.6373 -2.0785  1.9623
   31MOL0     H 4176   9.617   3.131   2.475 -0.8512  0.6646 -1.5651
   31MOL0     H 4177   9.785   3.309   2.307  0.8348 -0.8271  0.8429
   31MOL0     H 4178   9.611   3.329   2.298  2.2113  1.5216  0.5154
   31MOL0     H 4179   9.687   3.228   2.093  0.5573 -1.4400 -1.2060
   31MOL0     H 4180   9.784   3.107   2.168 -1.9166 -1.9877 -1.2565
   31MOL0     H 4181   9.406   2.929   2.139 -0.4552  1.6237 -1.8272
   31MOL0     H 4182  10.021   2.909   2.423 -0.5689  2.0417 -0.9274
   31MOL0     H 4183  10.243   2.726   2.585 -2.3519  0.5220  0.3385
   31MOL0     H 4184  10.167   2.725   2.424 -0.1701  1.2552 -1.8963
   31MOL0     H 4185  10.343   2.750   2.447  1.4477  1.7410  4.1340
   32MOL0     O 4186   6.305   6.937   5.390  0.1435  0.2632 -0.0097
   32MOL0     C 4187   6.273   7.026   5.316 -0.1690 -0.0950 -0.8422
   32MOL0     O 4188   6.368   7.105   5.250 -0.0939  0.4580 -0.5472
   32MOL0     C 4189   6.502   7.066   5.233  0.6787  0.3458 -0.5882
   32MOL0     C 4190   6.572   7.133   5.135 -0.4577 -0.3300  0.0864
   32MOL0     C 4191   6.714   7.120   5.112 -0.4533 -0.0777 -0.4663
   32MOL0     C 4192   6.781   7.018   5.179  0.5057 -0.5564 -0.0612
   32MOL0     O 4193   6.910   6.995   5.148 -0.6934 -0.1273 -0.3438
   32MOL0     C 4194   6.991   6.894   5.219 -0.7898 -0.7077  0.8267
   32MOL0     C 4195   7.127   6.894   5.153 -0.4161 -0.1225  0.2719
   32MOL0     C 4196   7.250   6.962   5.229  0.5238  0.4077  0.5131
   32MOL0     C 4197   7.382   6.959   5.156 -0.3404 -1.1050  0.5579
   32MOL0     C 4198   7.490   7.048   5.234  0.0632 -1.0778  1.2024
   32MOL0     C 4199   7.626   7.019   5.163 -0.5118 -0.4463 -0.0950
   32MOL0     C 4200   7.742   7.068   5.247  0.0220 -0.3881 -0.3875
   32MOL0     C 4201   7.875   7.039   5.169 -0.0079 -0.1734 -0.3664
   32MOL0     N 4202   7.986   7.076   5.253 -0.4082  0.2056 -0.2853
   32MOL0     C 4203   8.030   6.999   5.357 -0.1385  0.5120  0.3794
   32MOL0     C 4204   8.124   7.071   5.412  0.4499 -0.0977  0.4594
   32MOL0     C 4205   8.180   7.039   5.552  0.2406  0.1382  0.8626
   32MOL0     C 4206   8.333   7.071   5.565  0.6090 -0.8155 -1.2101
   32MOL0     C 4207   8.381   7.059   5.707  0.1061 -0.8485  0.6722
   32MOL0     C 4208   8.407   6.912   5.753 -0.3222  1.0239  0.9863
   32MOL0     O 4209   8.393   6.904   5.893 -0.3023 -0.5082  0.4057
   32MOL0     C 4210   8.508   6.957   5.956 -0.0283  0.8794 -0.1039
   32MOL0     C 4211   8.627   7.004   5.909 -0.5318 -0.2527 -0.4551
   32MOL0     C 4212   8.729   7.054   5.997 -0.7042 -0.6603 -0.5085
   32MOL0     C 4213   8.711   7.053   6.130 -0.9452 -0.0947 -0.0245
   32MOL0     C 4214   8.820   7.100   6.219  0.7764 -0.0485 -0.9856
   32MOL0     O 4215   8.795   7.096   6.355 -0.2358  0.3447  0.3075
   32MOL0     C 4216   8.905   7.114   6.431 -0.0287 -0.4140  0.0293
   32MOL0     C 4217   8.962   7.016   6.506  0.4540  0.8674  0.3189
   32MOL0     C 4218   9.064   7.039   6.593  0.3195 -0.4288  0.2546
   32MOL0     C 4219   9.128   7.165   6.593 -0.3016 -0.8578  0.3128
   32MOL0     O 4220   9.241   7.178   6.667  0.4433 -0.9153 -0.8331
   32MOL0     C 4221   9.315   7.296   6.684 -0.6617  0.0506  0.5245
   32MOL0     C 4222   9.408   7.269   6.798  0.8943 -0.3138 -0.5471
   32MOL0     C 4223   9.488   7.394   6.834 -0.4697 -0.1087  0.0228
   32MOL0     C 4224   9.637   7.361   6.844  0.5920 -0.1715  0.8012
   32MOL0     C 4225   9.701   7.489   6.881 -0.2035 -0.8298 -0.3259
   32MOL0     C 4226   9.855   7.479   6.918  0.5312  0.2688 -0.1111
   32MOL0     C 4227   9.946   7.436   6.798 -0.3130  0.5521  0.0664
   32MOL0     C 4228  10.063   7.531   6.775 -0.1344  0.1869 -0.5234
   32MOL0    Cl 4229  10.160   7.545   6.922  0.0072  0.3619 -0.1810
   32MOL0     C 4230   9.076   7.270   6.515 -0.2412  0.5032 -0.2740
   32MOL0     C 4231   8.970   7.240   6.428 -0.0332  0.5423 -0.8351
   32MOL0     O 4232   8.915   7.142   6.160 -0.0015 -0.2698 -1.1757
   32MOL0     C 4233   8.584   7.012   6.172  0.3990 -0.1491 -0.4038
   32MOL0     C 4234   8.488   6.965   6.091  0.4761  0.6107 -0.4229
   32MOL0     N 4235   8.142   7.196   5.350 -0.1814 -0.3091  0.1254
   32MOL0     N 4236   8.063   7.192   5.251 -0.0090 -0.3310  0.4956
   32MOL0     C 4237   6.711   6.954   5.280 -0.7071  0.0311 -0.6579
   32MOL0     C 4238   6.573   6.970   5.308 -0.3410 -0.4235  0.3402
   32MOL0     C 4239   6.123   7.061   5.325 -0.2296 -0.4371 -0.4576
   32MOL0     C 4240   6.036   6.963   5.338  0.9241  1.2607 -0.4205
   32MOL0     C 4241   5.902   6.995   5.357  0.0636  0.3896  0.6640
   32MOL0     C 4242   5.850   7.127   5.346  0.4881 -0.2628  1.0716
   32MOL0     O 4243   5.715   7.168   5.350  0.3618  0.4616  0.3464
   32MOL0     C 4244   5.624   7.054   5.340 -0.2228 -0.0618 -0.4732
   32MOL0     C 4245   5.478   7.096   5.354  0.9796 -0.4875 -0.7987
   32MOL0     C 4246   5.385   6.989   5.318  1.0230 -0.7668  1.8600
   32MOL0     C 4247   5.254   7.031   5.371  0.9532 -0.4461 -0.1910
   32MOL0     C 4248   5.161   6.922   5.393  0.2200 -0.3732 -0.6704
   32MOL0     C 4249   5.063   6.853   5.405 -0.3090 -0.6195  0.0285
   32MOL0     C 4250   5.951   7.229   5.341  0.0877  1.2117  0.0115
   32MOL0     C 4251   6.082   7.199   5.326 -0.3137  0.8718 -0.7341
   32MOL0     C 4252   6.181   7.317   5.326  0.3985 -0.4253  0.0933
   32MOL0     H 4253   6.527   7.215   5.079 -0.6297  0.1458  0.8968
   32MOL0     H 4254   6.763   7.192   5.048 -1.2474  0.2770 -0.6879
   32MOL0     H 4255   7.021   6.943   5.312  3.7414  2.4540 -1.8747
   32MOL0     H 4256   6.943   6.796   5.225 -0.9131 -0.5993  1.8287
   32MOL0     H 4257   7.118   6.937   5.053  0.6918  2.3813  1.1744
   32MOL0     H 4258   7.165   6.792   5.146  1.3538  0.5492 -0.3604
   32MOL0     H 4259   7.269   6.907   5.321 -0.3018  1.7872  1.5435
   32MOL0     H 4260   7.224   7.067   5.246 -2.2225  0.4970 -2.9754
   32MOL0     H 4261   7.418   6.856   5.150  1.7533 -0.3585 -0.7300
   32MOL0     H 4262   7.374   6.997   5.054  2.0273 -2.2993 -0.1263
   32MOL0     H 4263   7.462   7.154   5.229 -2.1783 -1.6683 -1.1916
   32MOL0     H 4264   7.494   7.010   5.337  1.0904 -1.2194  1.1126
   32MOL0     H 4265   7.631   6.911   5.145 -0.2392 -0.3414 -0.7051
   32MOL0     H 4266   7.614   7.080   5.073 -1.5702  0.0701  0.3775
   32MOL0     H 4267   7.739   7.024   5.347  3.6265  1.8132  0.8607
   32MOL0     H 4268   7.740   7.175   5.272  2.1432 -0.4803  0.3324
   32MOL0     H 4269   7.889   6.936   5.134  1.8376  0.7057 -2.4462
   32MOL0     H 4270   7.882   7.102   5.080 -2.4593  1.7969  0.7206
   32MOL0     H 4271   7.995   6.908   5.404  2.5130 -0.1220  1.3120
   32MOL0     H 4272   8.121   7.091   5.627  2.6881  1.4393  1.9911
   32MOL0     H 4273   8.172   6.931   5.570  2.3854 -0.2916 -0.4011
   32MOL0     H 4274   8.389   7.000   5.503 -0.8400 -1.8215 -1.4266
   32MOL0     H 4275   8.346   7.174   5.532 -2.6927  0.3151  0.5506
   32MOL0     H 4276   8.301   7.090   5.774  0.0156  1.7579 -0.5405
   32MOL0     H 4277   8.471   7.120   5.709 -0.7311  0.4568  0.0294
   32MOL0     H 4278   8.500   6.867   5.715 -1.2610  0.5631 -0.8773
   32MOL0     H 4279   8.320   6.854   5.719 -0.0514  2.1994 -2.0759
   32MOL0     H 4280   8.651   6.999   5.803 -1.5325  0.3440 -0.7195
   32MOL0     H 4281   8.826   7.071   5.953 -1.3547 -2.4039 -2.8216
   32MOL0     H 4282   8.903   6.925   6.508 -2.2341  2.5044  0.7337
   32MOL0     H 4283   9.106   6.961   6.656 -0.6658 -3.5377 -2.6215
   32MOL0     H 4284   9.376   7.320   6.596 -1.2620 -0.8380 -0.1494
   32MOL0     H 4285   9.259   7.389   6.695  0.5774  0.8819  0.0591
   32MOL0     H 4286   9.348   7.230   6.880  1.3866  0.9194  0.4252
   32MOL0     H 4287   9.479   7.189   6.772  0.4081 -1.4576  1.4445
   32MOL0     H 4288   9.485   7.474   6.759  0.4008 -0.4332 -0.3767
   32MOL0     H 4289   9.445   7.417   6.932 -2.6420 -4.3037  0.2457
   32MOL0     H 4290   9.686   7.320   6.755 -1.5547 -0.3408 -0.3850
   32MOL0     H 4291   9.650   7.279   6.915 -1.3129 -1.4226 -0.2029
   32MOL0     H 4292   9.652   7.534   6.968  1.1310  0.6745 -0.2939
   32MOL0     H 4293   9.690   7.566   6.804 -0.0048  0.9990  1.3833
   32MOL0     H 4294   9.887   7.573   6.962 -0.8732 -1.0791  4.3457
   32MOL0     H 4295   9.878   7.405   6.996  3.7144  0.9587 -0.2627
   32MOL0     H 4296   9.894   7.443   6.702  2.5403  2.0337 -1.4843
   32MOL0     H 4297   9.989   7.337   6.813  2.2408  1.7336  1.0401
   32MOL0     H 4298  10.132   7.486   6.704  1.1780  0.0674  0.7615
   32MOL0     H 4299  10.037   7.632   6.744 -3.3735 -0.1137  0.7837
   32MOL0     H 4300   9.132   7.362   6.504 -1.8521  1.3066 -2.3984
   32MOL0     H 4301   8.928   7.319   6.367 -0.8515 -1.4004 -2.9275
   32MOL0     H 4302   8.564   7.015   6.279  0.8232 -1.7263 -0.2395
   32MOL0     H 4303   8.395   6.924   6.130  0.4419 -1.4187 -2.4033
   32MOL0     H 4304   6.765   6.891   5.350  1.5525  3.5286  1.0386
   32MOL0     H 4305   6.525   6.918   5.390 -0.2180 -1.9749 -0.5293
   32MOL0     H 4306   6.054   6.856   5.337 -0.6651  0.9728 -0.7314
   32MOL0     H 4307   5.846   6.904   5.377  1.1822 -0.8820 -1.5716
   32MOL0     H 4308   5.630   6.972   5.412 -0.6480  0.7051  0.4444
   32MOL0     H 4309   5.646   7.008   5.243 -0.1480  0.3039 -0.6325
   32MOL0     H 4310   5.444   7.192   5.314 -0.4946  1.3521  4.1550
   32MOL0     H 4311   5.471   7.105   5.463  1.2448  1.0517 -0.8883
   32MOL0     H 4312   5.413   6.901   5.377 -1.0153 -1.4852  1.8451
   32MOL0     H 4313   5.374   6.973   5.211  0.9824 -1.3237  1.9483
   32MOL0     H 4314   5.265   7.074   5.471 -0.2199 -2.6901  1.0056
   32MOL0     H 4315   5.208   7.100   5.300 -1.1460 -2.0490 -0.5149
   32MOL0     H 4316   4.976   6.791   5.410  1.8053 -3.9825 -1.1636
   32MOL0     H 4317   5.911   7.330   5.341 -1.8353  0.5149  1.7513
   32MOL0     H 4318   6.281   7.295   5.367  0.6069  1.6193  0.8050
   32MOL0     H 4319   6.198   7.351   5.224 -3.3283 -2.1436 -1.2873
   32MOL0     H 4320   6.148   7.409   5.375 -0.1101  0.9809 -2.7331
   33MOL0     O 4321   5.089   0.402   3.738 -0.8525  0.3476  0.5705
   33MOL0     C 4322   5.055   0.413   3.620  0.0673 -0.7069  0.5003
   33MOL0     O 4323   5.142   0.444   3.517 -0.1529 -0.0211 -0.0992
   33MOL0     C 4324   5.272   0.451   3.549 -0.8360  0.0295  0.3007
   33MOL0     C 4325   5.367   0.370   3.487 -0.0903 -0.3506  1.0750
   33MOL0     C 4326   5.502   0.375   3.532  0.5407  0.2035  0.5685
   33MOL0     C 4327   5.542   0.468   3.633 -0.3638  0.1365 -0.1449
   33MOL0     O 4328   5.671   0.466   3.682  0.0139 -0.1119 -0.7640
   33MOL0     C 4329   5.717   0.587   3.753  0.3059 -0.0429 -0.9653
   33MOL0     C 4330   5.867   0.575   3.773  1.1632 -0.5200  0.3332
   33MOL0     C 4331   5.916   0.457   3.863 -0.1419 -0.0688 -1.2581
   33MOL0     C 4332   6.067   0.444   3.840 -0.3287  0.2465 -0.1236
   33MOL0     C 4333   6.111   0.321   3.919  0.5334 -0.5514  0.1758
   33MOL0     C 4334   6.257   0.294   3.923 -0.6403  0.1735 -0.5056
   33MOL0     C 4335   6.338   0.395   4.016 -0.6770  0.2368 -0.5611
   33MOL0     C 4336   6.329   0.395   4.173  0.1648 -0.1334 -0.4918
   33MOL0     N 4337   6.197   0.441   4.224  0.5511  0.2721  0.9710
   33MOL0     C 4338   6.146   0.564   4.190 -0.6025 -0.3094  0.4650
   33MOL0     C 4339   6.030   0.563   4.260 -0.4147 -0.4723 -0.1355
   33MOL0     C 4340   5.937   0.678   4.277  0.4536 -0.2462  0.5334
   33MOL0     C 4341   5.818   0.663   4.180  0.2801 -0.2033 -0.2344
   33MOL0     C 4342   5.696   0.742   4.233  0.0905  0.3905  0.0845
   33MOL0     C 4343   5.576   0.748   4.140  0.6901  0.4498 -0.5307
   33MOL0     O 4344   5.467   0.839   4.187  0.1337  0.4394  0.0376
   33MOL0     C 4345   5.341   0.835   4.133  0.3444  0.2450  0.1454
   33MOL0     C 4346   5.313   0.749   4.026 -0.0702 -0.1909  1.5831
   33MOL0     C 4347   5.178   0.729   3.996 -0.4829 -0.8504 -0.1224
   33MOL0     C 4348   5.077   0.806   4.050 -0.0215  0.8657 -0.2932
   33MOL0     C 4349   4.945   0.786   4.011  1.1176 -0.4019  0.5439
   33MOL0     O 4350   4.859   0.889   4.032 -0.3737 -0.9682  0.0404
   33MOL0     C 4351   4.722   0.877   4.016 -0.4005 -0.1653  0.0275
   33MOL0     C 4352   4.656   0.996   4.020 -0.2191  0.0884 -0.5134
   33MOL0     C 4353   4.515   1.011   4.013 -0.2779  0.4821  0.0502
   33MOL0     C 4354   4.439   0.896   3.977  0.1582 -0.2060  0.0417
   33MOL0     O 4355   4.306   0.899   3.952  0.0442  0.2561 -0.0691
   33MOL0     C 4356   4.254   1.004   3.875 -0.4212 -0.2497  1.1460
   33MOL0     C 4357   4.099   0.989   3.863 -0.3595 -0.5855 -0.1617
   33MOL0     C 4358   4.074   0.837   3.813  1.1509  0.4815  0.2195
   33MOL0     C 4359   3.928   0.830   3.774 -0.1438 -0.9227 -1.4957
   33MOL0     C 4360   3.915   0.695   3.702  0.1074 -0.0088  0.4394
   33MOL0     C 4361   3.774   0.656   3.703 -0.2923 -0.1278 -0.0030
   33MOL0     C 4362   3.714   0.692   3.564  0.2234  1.0876  0.3216
   33MOL0     C 4363   3.563   0.652   3.542 -0.5165 -0.2805  0.3899
   33MOL0    Cl 4364   3.452   0.753   3.636 -0.5019 -0.5629 -0.1780
   33MOL0     C 4365   4.501   0.771   3.959  0.0312  0.0349  0.4904
   33MOL0     C 4366   4.642   0.764   3.979  0.2944  0.4870 -0.1543
   33MOL0     O 4367   4.920   0.682   3.952 -0.0464  0.0087  0.1809
   33MOL0     C 4368   5.107   0.905   4.145 -0.3332 -0.4443 -0.1887
   33MOL0     C 4369   5.238   0.911   4.196  0.3073 -0.4614  0.3341
   33MOL0     N 4370   6.006   0.450   4.321  0.3756  0.0868 -0.1928
   33MOL0     N 4371   6.116   0.376   4.312 -0.1826 -0.2088 -0.1141
   33MOL0     C 4372   5.445   0.553   3.689  0.0082 -0.0508 -0.6020
   33MOL0     C 4373   5.309   0.549   3.636 -0.4181  0.2450 -0.0867
   33MOL0     C 4374   4.903   0.404   3.597 -0.6133 -0.5573 -0.3280
   33MOL0     C 4375   4.819   0.385   3.708 -0.2391 -0.1111  0.6688
   33MOL0     C 4376   4.683   0.360   3.694  0.6117  0.1749 -0.5618
   33MOL0     C 4377   4.627   0.345   3.564 -0.2163  0.4588 -0.3271
   33MOL0     O 4378   4.496   0.339   3.525  0.1717  0.1429  0.3747
   33MOL0     C 4379   4.397   0.313   3.631  0.5408 -0.5714  0.9027
   33MOL0     C 4380   4.340   0.440   3.685  0.0074 -0.4900 -0.0521
   33MOL0     C 4381   4.217   0.430   3.780  1.3718  0.9910  0.1311
   33MOL0     C 4382   4.228   0.330   3.887  0.4160 -0.0328 -0.3746
   33MOL0     C 4383   4.352   0.328   3.964 -0.2998  0.5528  0.4458
   33MOL0     C 4384   4.444   0.343   4.043  0.5537 -0.0678 -0.0628
   33MOL0     C 4385   4.704   0.372   3.459  0.3053  0.1058  0.2268
   33MOL0     C 4386   4.841   0.405   3.469  0.4821 -0.1348 -0.0317
   33MOL0     C 4387   4.900   0.448   3.343 -0.6531  0.3807  0.8896
   33MOL0     H 4388   5.339   0.286   3.424  3.7703 -0.7248 -0.3517
   33MOL0     H 4389   5.565   0.306   3.477 -1.6104 -1.5637  0.1573
   33MOL0     H 4390   5.699   0.674   3.689  2.2987  0.0996 -1.3768
   33MOL0     H 4391   5.670   0.605   3.850  0.1994 -3.7586 -0.1476
   33MOL0     H 4392   5.910   0.659   3.829  0.9305 -0.0714 -0.1604
   33MOL0     H 4393   5.912   0.562   3.674  0.5250 -3.4845  0.3371
   33MOL0     H 4394   5.859   0.368   3.834  1.1602 -0.6058 -2.2345
   33MOL0     H 4395   5.896   0.485   3.967 -1.0087 -0.0969 -1.4050
   33MOL0     H 4396   6.097   0.433   3.735 -0.0100  0.7338 -0.0855
   33MOL0     H 4397   6.120   0.532   3.877  0.6740 -0.9691  1.4688
   33MOL0     H 4398   6.074   0.319   4.022 -0.4981  1.2991 -0.1227
   33MOL0     H 4399   6.067   0.233   3.870  0.9706 -0.3858 -0.5314
   33MOL0     H 4400   6.275   0.195   3.965  1.9577  0.6169 -0.4008
   33MOL0     H 4401   6.290   0.298   3.819  1.1071 -0.0396  0.0063
   33MOL0     H 4402   6.324   0.499   3.987  0.2012  0.6506  0.4243
   33MOL0     H 4403   6.441   0.368   3.992 -0.5200  0.1006  0.2339
   33MOL0     H 4404   6.330   0.296   4.219 -1.8318 -0.0177 -0.0937
   33MOL0     H 4405   6.401   0.464   4.218  0.1928 -0.0537 -0.6596
   33MOL0     H 4406   6.191   0.640   4.126 -0.6060 -0.9174 -0.2720
   33MOL0     H 4407   5.894   0.663   4.376  0.2332 -3.2429  0.0761
   33MOL0     H 4408   5.971   0.782   4.275 -1.9940  0.8147  3.9963
   33MOL0     H 4409   5.851   0.701   4.082  1.1868 -1.4966 -0.4704
   33MOL0     H 4410   5.780   0.561   4.179  1.1541 -0.5454  0.4568
   33MOL0     H 4411   5.722   0.846   4.255 -0.8520  0.6615 -0.0503
   33MOL0     H 4412   5.668   0.685   4.322 -0.8298 -5.2586 -3.3264
   33MOL0     H 4413   5.532   0.651   4.117 -2.3473  1.8767 -1.4046
   33MOL0     H 4414   5.600   0.773   4.036  3.6832  0.0272 -0.0212
   33MOL0     H 4415   5.391   0.695   3.972  0.9679  2.5067  0.1499
   33MOL0     H 4416   5.154   0.644   3.933 -2.7053 -0.6278  0.3488
   33MOL0     H 4417   4.719   1.085   4.014  0.3532 -0.3896 -2.4146
   33MOL0     H 4418   4.466   1.108   4.020 -1.3017 -0.1508  2.7983
   33MOL0     H 4419   4.292   1.097   3.918  0.3858 -0.8517  1.7574
   33MOL0     H 4420   4.289   0.996   3.772 -3.5648  2.5778 -0.3140
   33MOL0     H 4421   4.056   0.997   3.963 -0.3610 -3.7892  0.2105
   33MOL0     H 4422   4.055   1.066   3.799  1.4266 -0.5676 -1.4437
   33MOL0     H 4423   4.133   0.819   3.723  1.9289 -0.0925  0.8324
   33MOL0     H 4424   4.103   0.780   3.902 -1.4141 -0.7102  0.3971
   33MOL0     H 4425   3.905   0.917   3.712 -2.6842 -0.8237 -0.5253
   33MOL0     H 4426   3.865   0.844   3.862  1.1455 -0.3098 -0.6399
   33MOL0     H 4427   3.963   0.607   3.747 -2.8728 -3.4371 -2.3448
   33MOL0     H 4428   3.951   0.700   3.598  0.2045 -0.9138  0.4146
   33MOL0     H 4429   3.771   0.548   3.719  0.8351  0.1474  2.6301
   33MOL0     H 4430   3.716   0.689   3.790  0.1581 -2.2702  1.1774
   33MOL0     H 4431   3.774   0.629   3.498  0.5081  1.4656  0.2126
   33MOL0     H 4432   3.737   0.793   3.529  2.9868  0.2894 -0.4009
   33MOL0     H 4433   3.548   0.674   3.436 -1.6114 -3.3823 -0.1892
   33MOL0     H 4434   3.552   0.547   3.569  1.7776  0.0899  3.2537
   33MOL0     H 4435   4.434   0.689   3.932 -0.6416  0.6151  0.3540
   33MOL0     H 4436   4.685   0.665   3.986  0.2244  0.5544  1.9126
   33MOL0     H 4437   5.033   0.963   4.199  0.7821  0.6577  0.2066
   33MOL0     H 4438   5.262   0.979   4.277  2.2667 -1.6308  0.8012
   33MOL0     H 4439   5.461   0.606   3.783  0.3111 -0.5693 -0.3511
   33MOL0     H 4440   5.222   0.602   3.671 -0.6825  0.6005 -1.2387
   33MOL0     H 4441   4.868   0.385   3.805  1.7833  0.8314 -0.2964
   33MOL0     H 4442   4.623   0.345   3.783 -0.6914 -2.9919 -1.8241
   33MOL0     H 4443   4.442   0.261   3.717  0.9353  1.2258  1.8307
   33MOL0     H 4444   4.318   0.247   3.595  1.5615 -2.5612  2.1245
   33MOL0     H 4445   4.316   0.508   3.602  0.9264  0.8710  0.7502
   33MOL0     H 4446   4.424   0.493   3.730 -1.0426 -0.4248  1.9568
   33MOL0     H 4447   4.121   0.407   3.733  0.9258  4.8890 -1.2690
   33MOL0     H 4448   4.201   0.529   3.825 -1.4239 -0.0478  1.6788
   33MOL0     H 4449   4.147   0.341   3.961  2.5571 -1.4145  2.3655
   33MOL0     H 4450   4.226   0.229   3.845  1.6965 -2.1377  4.0537
   33MOL0     H 4451   4.515   0.339   4.123 -0.3265 -1.9107  0.6669
   33MOL0     H 4452   4.662   0.359   3.359  2.5112  0.7745 -0.8646
   33MOL0     H 4453   4.958   0.367   3.298  1.0307  2.0541 -0.1539
   33MOL0     H 4454   4.824   0.468   3.268  2.3780 -1.0166 -2.8868
   33MOL0     H 4455   4.967   0.535   3.337 -1.3750  0.8421 -2.1817
   34MOL0     O 4456   6.527   0.364   0.767  0.8893  0.0342  0.5949
   34MOL0     C 4457   6.449   0.301   0.706  0.6251  0.1765  0.1503
   34MOL0     O 4458   6.481   0.165   0.662  0.1371  0.3775 -0.2967
   34MOL0     C 4459   6.598   0.109   0.710 -0.1340  0.0679  1.1898
   34MOL0     C 4460   6.715   0.169   0.666  0.0951  0.0900 -0.3091
   34MOL0     C 4461   6.841   0.114   0.695  0.0920 -0.2520 -1.3001
   34MOL0     C 4462   6.851  -0.008   0.768 -0.3688 -0.5647 -0.3057
   34MOL0     O 4463   6.966  -0.069   0.801  0.1421  0.1428  0.0679
   34MOL0     C 4464   7.082  -0.035   0.728  1.0087 -0.2895  0.3887
   34MOL0     C 4465   7.179   0.049   0.808  0.4239 -1.1254 -0.1380
   34MOL0     C 4466   7.310   0.078   0.731 -1.1763 -0.0488  0.1786
   34MOL0     C 4467   7.427   0.069   0.827 -0.3154 -0.0597 -0.4018
   34MOL0     C 4468   7.554   0.140   0.785 -0.0862 -0.0263  0.9064
   34MOL0     C 4469   7.621   0.047   0.688  0.3688  0.3840 -0.2423
   34MOL0     C 4470   7.702  -0.069   0.745 -0.1985  0.2554 -0.4030
   34MOL0     C 4471   7.844  -0.045   0.788 -0.9838  0.1363 -0.8179
   34MOL0     N 4472   7.943  -0.083   0.684 -0.6096 -0.8635 -0.3532
   34MOL0     C 4473   8.027  -0.190   0.690 -0.2285 -0.1895  0.3468
   34MOL0     C 4474   8.104  -0.175   0.577  0.0811 -0.3313  0.3843
   34MOL0     C 4475   8.213  -0.270   0.543 -0.0173  0.6107  0.0598
   34MOL0     C 4476   8.328  -0.264   0.645  0.0349 -0.1022  1.1254
   34MOL0     C 4477   8.453  -0.349   0.621 -0.3878 -0.0569  0.9105
   34MOL0     C 4478   8.546  -0.321   0.744 -0.2643  0.0242 -0.0063
   34MOL0     O 4479   8.538  -0.187   0.785 -0.1743 -0.4906  0.4550
   34MOL0     C 4480   8.637  -0.159   0.876 -0.3669 -0.0562  0.6961
   34MOL0     C 4481   8.727  -0.055   0.842  0.4198  0.3038  0.1696
   34MOL0     C 4482   8.831  -0.016   0.927  0.1824  0.4673  0.4863
   34MOL0     C 4483   8.856  -0.088   1.046 -0.3934  0.3222 -0.3816
   34MOL0     C 4484   8.979  -0.070   1.131 -0.4143 -0.5472 -1.0532
   34MOL0     O 4485   9.061   0.023   1.086 -0.3765 -0.3271  0.3906
   34MOL0     C 4486   9.180   0.056   1.146  0.5048  0.0002  0.3021
   34MOL0     C 4487   9.278   0.108   1.064 -0.0559  0.5162 -0.0540
   34MOL0     C 4488   9.403   0.152   1.106  0.0094 -0.6094 -0.3009
   34MOL0     C 4489   9.429   0.150   1.246  1.0782 -0.1736 -0.7978
   34MOL0     O 4490   9.552   0.182   1.300  0.7550 -0.3525  0.2893
   34MOL0     C 4491   9.597   0.316   1.269 -0.0017 -0.1612  0.0565
   34MOL0     C 4492   9.750   0.323   1.288  0.1667  0.7022 -0.5125
   34MOL0     C 4493   9.813   0.452   1.239  0.3535 -0.5612  0.3579
   34MOL0     C 4494   9.757   0.577   1.302  0.1422 -0.1113  0.0099
   34MOL0     C 4495   9.825   0.706   1.254 -0.9177 -0.9502  0.3709
   34MOL0     C 4496   9.718   0.816   1.267 -0.7566 -0.2817  0.2228
   34MOL0     C 4497   9.657   0.834   1.410  0.6804 -0.4469  0.6153
   34MOL0     C 4498   9.579   0.967   1.407  0.0295 -0.1579 -0.0263
   34MOL0    Cl 4499   9.472   0.965   1.553  0.1709  0.3865 -0.2685
   34MOL0     C 4500   9.331   0.103   1.336  0.3561  0.3565 -0.0365
   34MOL0     C 4501   9.207   0.064   1.288 -0.4762 -0.2671 -0.0495
   34MOL0     O 4502   8.998  -0.140   1.231 -0.0934  0.2601  0.0973
   34MOL0     C 4503   8.763  -0.191   1.074 -0.0756 -0.0191 -0.3587
   34MOL0     C 4504   8.662  -0.236   0.992  0.2535 -0.6353 -0.7204
   34MOL0     N 4505   8.056  -0.065   0.504 -0.8001 -0.3407  0.0598
   34MOL0     N 4506   7.964  -0.010   0.569 -0.3783 -0.3322  0.0908
   34MOL0     C 4507   6.740  -0.077   0.802  0.5807 -0.2432 -0.2622
   34MOL0     C 4508   6.616  -0.016   0.768 -0.3053 -0.6525 -0.1541
   34MOL0     C 4509   6.317   0.351   0.680 -0.1059  0.6601  0.2004
   34MOL0     C 4510   6.246   0.298   0.556 -0.9900  0.1368 -0.1605
   34MOL0     C 4511   6.123   0.351   0.515  0.2298 -0.6477 -0.1594
   34MOL0     C 4512   6.058   0.449   0.585 -0.4392 -0.1065  0.6926
   34MOL0     O 4513   5.944   0.501   0.530 -0.3268 -0.4583 -0.1943
   34MOL0     C 4514   5.836   0.523   0.617 -0.1833 -0.4959 -0.0329
   34MOL0     C 4515   5.706   0.528   0.527 -0.8118 -0.0554  0.3164
   34MOL0     C 4516   5.573   0.518   0.616  0.4534  0.4067  0.2454
   34MOL0     C 4517   5.445   0.531   0.523  0.5071  0.1416 -0.2918
   34MOL0     C 4518   5.426   0.415   0.428 -0.4792 -0.2876 -0.1553
   34MOL0     C 4519   5.423   0.334   0.342 -0.0279  0.0781  0.3956
   34MOL0     C 4520   6.124   0.502   0.696  0.6099 -0.3580  0.6243
   34MOL0     C 4521   6.248   0.457   0.748 -0.3983  0.4164 -0.8111
   34MOL0     C 4522   6.301   0.533   0.863 -0.7479  0.0441 -0.3031
   34MOL0     H 4523   6.725   0.265   0.617  1.0527 -0.5957 -1.5192
   34MOL0     H 4524   6.932   0.167   0.666  0.5641  0.9783  2.0103
   34MOL0     H 4525   7.130  -0.131   0.709 -0.3975 -0.8098 -0.7366
   34MOL0     H 4526   7.057   0.009   0.631 -1.1811 -0.4948  0.8075
   34MOL0     H 4527   7.207   0.003   0.904  2.5199  0.1634 -0.0590
   34MOL0     H 4528   7.136   0.147   0.833  3.5056 -0.0477  1.5503
   34MOL0     H 4529   7.299   0.174   0.679 -1.8633  0.7187  1.6805
   34MOL0     H 4530   7.327  -0.005   0.662 -1.5585  0.1691 -0.1828
   34MOL0     H 4531   7.404   0.113   0.925  1.7359 -0.9069  0.5429
   34MOL0     H 4532   7.459  -0.031   0.861  2.0272  0.8623  0.3327
   34MOL0     H 4533   7.517   0.231   0.738  1.9792 -0.9463 -2.8874
   34MOL0     H 4534   7.619   0.176   0.867  0.8725 -0.5029  0.3745
   34MOL0     H 4535   7.545   0.011   0.619 -0.4659 -0.2403  0.9591
   34MOL0     H 4536   7.687   0.112   0.630  0.2502  1.7030  1.0233
   34MOL0     H 4537   7.699  -0.146   0.667 -0.1879 -1.3481  1.1216
   34MOL0     H 4538   7.644  -0.121   0.822 -2.3478 -0.2721 -2.2669
   34MOL0     H 4539   7.857   0.060   0.819 -2.7194  0.0106  0.4809
   34MOL0     H 4540   7.880  -0.103   0.874  0.5448  1.8584 -0.2107
   34MOL0     H 4541   8.046  -0.268   0.762  2.0414  0.1578  0.2193
   34MOL0     H 4542   8.172  -0.371   0.535  0.7909  0.3101 -0.4598
   34MOL0     H 4543   8.258  -0.250   0.445  0.8576 -0.1302  0.2955
   34MOL0     H 4544   8.363  -0.161   0.634 -0.1492 -0.3100 -2.8235
   34MOL0     H 4545   8.300  -0.289   0.748 -2.0824 -1.6667  0.2422
   34MOL0     H 4546   8.495  -0.322   0.524 -1.3050 -0.2901  0.4433
   34MOL0     H 4547   8.430  -0.456   0.620  2.7308 -0.8523 -0.9271
   34MOL0     H 4548   8.649  -0.343   0.716 -0.0693 -0.3169  0.9379
   34MOL0     H 4549   8.511  -0.382   0.827 -0.2374  0.4344  0.3111
   34MOL0     H 4550   8.705   0.004   0.754 -2.0391  0.6963  0.9639
   34MOL0     H 4551   8.885   0.077   0.916 -0.7193  1.2166  2.0702
   34MOL0     H 4552   9.259   0.106   0.957 -1.1096  1.5605  0.0880
   34MOL0     H 4553   9.480   0.192   1.040  0.8461 -1.8830 -0.1249
   34MOL0     H 4554   9.570   0.347   1.167 -1.6888 -0.0642  0.4947
   34MOL0     H 4555   9.540   0.382   1.334  1.7173  1.1876  0.2589
   34MOL0     H 4556   9.768   0.310   1.395 -0.3788  2.3034 -0.2002
   34MOL0     H 4557   9.799   0.240   1.234  1.4282  1.4505 -0.5647
   34MOL0     H 4558   9.919   0.446   1.265  1.8764  0.3014 -4.6597
   34MOL0     H 4559   9.793   0.451   1.132 -3.0418 -2.4634  0.8477
   34MOL0     H 4560   9.759   0.565   1.411  2.3013 -1.6660 -0.1339
   34MOL0     H 4561   9.649   0.580   1.285 -0.2694  0.3549  2.3382
   34MOL0     H 4562   9.860   0.689   1.152  0.5809  2.2543  0.2379
   34MOL0     H 4563   9.906   0.734   1.322 -1.2982  0.0901  0.4085
   34MOL0     H 4564   9.768   0.910   1.244  0.1416 -0.9308 -0.5287
   34MOL0     H 4565   9.639   0.804   1.193  0.9286  0.2528 -1.7521
   34MOL0     H 4566   9.736   0.832   1.487  1.1193 -0.6159  0.1665
   34MOL0     H 4567   9.581   0.757   1.424 -1.9076  1.2941 -2.5321
   34MOL0     H 4568   9.646   1.053   1.393 -1.7934  0.9244 -2.8100
   34MOL0     H 4569   9.523   0.968   1.313  3.6451 -1.7124 -2.4215
   34MOL0     H 4570   9.351   0.105   1.442 -0.1657  1.2629  0.0551
   34MOL0     H 4571   9.127   0.054   1.361 -0.2815 -0.6823  0.1077
   34MOL0     H 4572   8.779  -0.239   1.170 -0.6412 -2.1885 -1.2901
   34MOL0     H 4573   8.605  -0.318   1.034  0.3424 -1.6445 -2.4751
   34MOL0     H 4574   6.746  -0.165   0.865 -1.0944  0.1234  0.4627
   34MOL0     H 4575   6.530  -0.056   0.821  0.3119  0.5868  1.8996
   34MOL0     H 4576   6.293   0.220   0.498  1.8130  0.8876  0.9342
   34MOL0     H 4577   6.075   0.309   0.428 -4.3301  1.6018  0.9572
   34MOL0     H 4578   5.861   0.616   0.667  3.1059 -0.1332 -2.0361
   34MOL0     H 4579   5.822   0.436   0.682 -1.6772 -1.8696 -2.0653
   34MOL0     H 4580   5.706   0.443   0.457  2.0847  0.8301 -0.9136
   34MOL0     H 4581   5.698   0.615   0.461 -1.3979 -1.6310 -1.8339
   34MOL0     H 4582   5.574   0.597   0.691  0.4942  0.6843 -0.0477
   34MOL0     H 4583   5.558   0.421   0.666 -0.1379 -0.2483 -1.1409
   34MOL0     H 4584   5.358   0.539   0.589  0.6922  2.9656 -0.2874
   34MOL0     H 4585   5.457   0.621   0.463 -1.6606  1.7809  1.5345
   34MOL0     H 4586   5.421   0.253   0.272  3.6870  0.2207 -0.1100
   34MOL0     H 4587   6.072   0.581   0.750 -0.8941 -0.8643 -0.0308
   34MOL0     H 4588   6.247   0.628   0.865 -1.5146 -0.4041  1.1974
   34MOL0     H 4589   6.274   0.490   0.960 -1.4323  3.5750  1.2303
   34MOL0     H 4590   6.407   0.543   0.840 -0.8596 -3.6274 -3.5636
   35MOL0     O 4591   5.010   1.162   7.946 -0.3467  0.3641 -0.1055
   35MOL0     C 4592   4.918   1.247   7.941  0.2434 -0.1679  0.1886
   35MOL0     O 4593   4.926   1.372   7.879 -0.6259  0.1293 -0.3677
   35MOL0     C 4594   5.042   1.414   7.829 -0.5924  0.3212  1.0899
   35MOL0     C 4595   5.079   1.367   7.703  0.2563  1.2033  0.4795
   35MOL0     C 4596   5.197   1.395   7.642  1.3447  0.6872 -0.7830
   35MOL0     C 4597   5.279   1.504   7.697  0.3372 -0.0640 -0.1742
   35MOL0     O 4598   5.396   1.532   7.636 -0.3456  0.7577  0.4712
   35MOL0     C 4599   5.514   1.545   7.725  0.0658  0.0682 -0.8647
   35MOL0     C 4600   5.585   1.407   7.721  0.4539  0.4207 -0.9136
   35MOL0     C 4601   5.709   1.401   7.809 -0.0064 -0.1261 -0.0398
   35MOL0     C 4602   5.838   1.454   7.738 -1.0006 -0.6861 -0.3803
   35MOL0     C 4603   5.961   1.410   7.812  0.4850  0.4888  0.3868
   35MOL0     C 4604   6.079   1.492   7.762 -0.4530 -0.2378  1.0431
   35MOL0     C 4605   6.212   1.406   7.775  0.0843 -0.3740  0.0358
   35MOL0     C 4606   6.337   1.485   7.732  0.3937 -0.0381 -0.6467
   35MOL0     N 4607   6.456   1.405   7.740 -0.4691  0.8349 -0.2955
   35MOL0     C 4608   6.473   1.296   7.823  0.4522 -0.0720  0.5938
   35MOL0     C 4609   6.589   1.240   7.785  0.6793  0.1793  0.1190
   35MOL0     C 4610   6.652   1.111   7.858  0.3797 -1.1874  0.3811
   35MOL0     C 4611   6.548   0.998   7.890 -0.0156 -0.1744 -0.4060
   35MOL0     C 4612   6.622   0.890   7.959 -0.0611 -0.8389  0.6691
   35MOL0     C 4613   6.725   0.815   7.885 -0.3412  0.4085 -0.1240
   35MOL0     O 4614   6.792   0.725   7.970 -0.3226 -0.0913 -0.3611
   35MOL0     C 4615   6.932   0.718   7.970 -0.7378  0.6406  0.6053
   35MOL0     C 4616   7.017   0.715   7.846 -0.3805  0.1677 -0.2951
   35MOL0     C 4617   7.153   0.690   7.868  0.1614 -0.5050  0.2829
   35MOL0     C 4618   7.212   0.679   7.994  0.1344  0.2904  0.1304
   35MOL0     C 4619   7.361   0.658   8.011  0.0736 -0.5817  0.2226
   35MOL0     O 4620   7.416   0.627   8.137  0.1314  0.3962 -0.0150
   35MOL0     C 4621   7.554   0.621   8.151  0.2658 -0.4649  0.4106
   35MOL0     C 4622   7.623   0.737   8.182 -0.0965 -0.3525  0.0190
   35MOL0     C 4623   7.763   0.739   8.200 -0.0366 -0.0847 -0.7285
   35MOL0     C 4624   7.828   0.617   8.197  0.0138  0.4047 -0.9032
   35MOL0     O 4625   7.951   0.596   8.253  0.2583  0.2659  0.1054
   35MOL0     C 4626   8.055   0.686   8.224  0.1300  0.0556 -0.4688
   35MOL0     C 4627   8.167   0.672   8.322  0.4538 -0.3844 -0.2951
   35MOL0     C 4628   8.209   0.520   8.358 -0.0382  0.1213 -0.5605
   35MOL0     C 4629   8.287   0.506   8.491 -0.2119  0.5183  0.1145
   35MOL0     C 4630   8.428   0.545   8.468 -0.4316 -0.1942  0.0889
   35MOL0     C 4631   8.505   0.592   8.593 -0.3498 -0.2666  0.4228
   35MOL0     C 4632   8.651   0.635   8.563  0.2269  0.1610  0.2404
   35MOL0     C 4633   8.747   0.633   8.686  0.9683 -0.0808 -0.0158
   35MOL0    Cl 4634   8.920   0.602   8.634  0.7424  0.0353 -0.3592
   35MOL0     C 4635   7.763   0.499   8.159 -0.2906  0.9470  0.4478
   35MOL0     C 4636   7.631   0.501   8.136 -0.3204  0.1305  0.6710
   35MOL0     O 4637   7.428   0.663   7.908 -0.6288  0.3838  0.0823
   35MOL0     C 4638   7.133   0.683   8.112 -0.1210 -0.0429  0.2465
   35MOL0     C 4639   6.994   0.695   8.094 -0.2509 -0.0013 -0.1335
   35MOL0     N 4640   6.641   1.312   7.672  0.7852 -0.0819 -0.3044
   35MOL0     N 4641   6.564   1.408   7.651  0.7466  0.2173  0.1141
   35MOL0     C 4642   5.236   1.561   7.827  0.4853 -0.0651  0.2939
   35MOL0     C 4643   5.118   1.510   7.896  0.2036  0.4023  0.7053
   35MOL0     C 4644   4.771   1.212   7.979 -0.5930  0.6108  0.7813
   35MOL0     C 4645   4.671   1.287   7.914 -0.1351 -0.3057  0.2229
   35MOL0     C 4646   4.536   1.272   7.955  0.1974  0.7167  0.8934
   35MOL0     C 4647   4.501   1.179   8.052 -0.0989  0.4692 -0.4656
   35MOL0     O 4648   4.371   1.154   8.088  0.1951  0.2009 -0.2938
   35MOL0     C 4649   4.269   1.234   8.030 -1.2388  0.2999  0.2816
   35MOL0     C 4650   4.252   1.371   8.100  0.5979  0.5237 -0.3668
   35MOL0     C 4651   4.130   1.450   8.037  0.1932  0.1043 -0.8580
   35MOL0     C 4652   4.110   1.586   8.103  0.7276  0.3718 -0.1973
   35MOL0     C 4653   4.107   1.597   8.245 -0.7041  0.6157 -0.1846
   35MOL0     C 4654   4.100   1.579   8.368  0.8332 -0.0592  0.0878
   35MOL0     C 4655   4.595   1.104   8.114 -0.2323 -0.3785 -0.4670
   35MOL0     C 4656   4.733   1.118   8.081 -0.8300 -0.2344  0.1219
   35MOL0     C 4657   4.819   1.034   8.167 -0.3222  0.5210 -0.2116
   35MOL0     H 4658   5.008   1.295   7.661  0.5598  1.4687 -0.5139
   35MOL0     H 4659   5.233   1.353   7.548  0.8475 -2.4196  0.2926
   35MOL0     H 4660   5.579   1.625   7.686 -0.3180  0.7465 -0.1494
   35MOL0     H 4661   5.492   1.555   7.831 -0.2592 -3.0611 -0.5619
   35MOL0     H 4662   5.607   1.372   7.620  0.9822 -0.9936 -0.3425
   35MOL0     H 4663   5.517   1.332   7.762 -0.0301  1.1120 -0.4397
   35MOL0     H 4664   5.741   1.298   7.828  0.6791  0.5788  3.2538
   35MOL0     H 4665   5.694   1.443   7.909  1.1519 -1.3473  0.6885
   35MOL0     H 4666   5.845   1.431   7.631 -0.7325 -0.4248 -0.4191
   35MOL0     H 4667   5.836   1.563   7.738  3.3469 -0.4107 -0.4010
   35MOL0     H 4668   5.948   1.437   7.917 -1.0782  2.9934 -0.3677
   35MOL0     H 4669   5.964   1.302   7.794 -1.7279  0.2812  0.8699
   35MOL0     H 4670   6.067   1.523   7.658 -0.8783  0.9307  1.4255
   35MOL0     H 4671   6.088   1.583   7.822 -0.7330  0.3026  0.2665
   35MOL0     H 4672   6.209   1.319   7.709  1.2663 -1.5754  1.5020
   35MOL0     H 4673   6.227   1.364   7.875  1.4788 -3.3790 -1.3000
   35MOL0     H 4674   6.328   1.517   7.628 -3.0980  1.3197 -0.0706
   35MOL0     H 4675   6.332   1.578   7.788  0.2535 -0.8637  0.7626
   35MOL0     H 4676   6.401   1.274   7.901 -0.2085  2.1383  0.6816
   35MOL0     H 4677   6.726   1.073   7.787 -0.2873  0.1885 -1.1154
   35MOL0     H 4678   6.693   1.142   7.954 -1.1354 -1.3658  1.1188
   35MOL0     H 4679   6.460   1.025   7.948 -0.8802  0.5042 -1.9561
   35MOL0     H 4680   6.500   0.956   7.801  0.1533 -1.9029  0.2808
   35MOL0     H 4681   6.550   0.825   8.010 -0.9488 -0.6850 -0.3535
   35MOL0     H 4682   6.668   0.940   8.045  2.6744 -0.6080 -0.8089
   35MOL0     H 4683   6.787   0.877   7.820  1.7098  0.6852  1.9903
   35MOL0     H 4684   6.673   0.747   7.817  0.5223  0.5454 -0.9405
   35MOL0     H 4685   6.989   0.735   7.743  0.5221 -0.3672 -0.6593
   35MOL0     H 4686   7.214   0.696   7.779  0.3798 -1.8942  0.3223
   35MOL0     H 4687   7.571   0.833   8.183 -1.3973 -1.0108  1.2357
   35MOL0     H 4688   7.810   0.831   8.232 -2.6150  0.7189  1.1067
   35MOL0     H 4689   8.087   0.664   8.122 -1.1840 -2.6247 -0.4046
   35MOL0     H 4690   8.019   0.789   8.220  1.0522  0.3483 -3.3039
   35MOL0     H 4691   8.240   0.744   8.285 -0.7017  0.8424 -0.2929
   35MOL0     H 4692   8.139   0.716   8.419  2.8590  0.8442 -0.0997
   35MOL0     H 4693   8.111   0.473   8.367 -1.2001  2.0535 -2.3626
   35MOL0     H 4694   8.248   0.463   8.274 -0.0256  3.7487 -3.2833
   35MOL0     H 4695   8.287   0.405   8.535 -2.3113  0.5716  0.3642
   35MOL0     H 4696   8.244   0.578   8.562  0.1072  1.8999 -1.0547
   35MOL0     H 4697   8.449   0.628   8.400  3.1865  0.3676  1.6594
   35MOL0     H 4698   8.476   0.461   8.417 -0.1285 -0.6974  1.1671
   35MOL0     H 4699   8.461   0.682   8.638  1.5548  1.0902 -0.2607
   35MOL0     H 4700   8.511   0.501   8.654  1.1497 -2.6352 -2.9550
   35MOL0     H 4701   8.662   0.730   8.511 -1.9766 -1.1213 -2.8680
   35MOL0     H 4702   8.692   0.565   8.489 -4.1226 -1.1637 -1.2780
   35MOL0     H 4703   8.733   0.726   8.741 -1.4761 -0.2350 -0.2916
   35MOL0     H 4704   8.712   0.547   8.743 -0.3879 -0.3260 -1.1743
   35MOL0     H 4705   7.816   0.406   8.141 -2.6819 -0.2887 -0.6564
   35MOL0     H 4706   7.571   0.411   8.121 -1.8654  0.8144  2.3933
   35MOL0     H 4707   7.168   0.665   8.213 -1.4601  0.8381  0.8982
   35MOL0     H 4708   6.919   0.708   8.171 -1.2049  1.8486 -1.2987
   35MOL0     H 4709   5.298   1.640   7.865  2.2438  1.3832 -4.7388
   35MOL0     H 4710   5.081   1.531   7.996 -4.8457 -0.6083 -0.6962
   35MOL0     H 4711   4.688   1.355   7.831 -1.6052 -0.8788 -0.6023
   35MOL0     H 4712   4.467   1.337   7.901 -0.5752  0.7475  1.8885
   35MOL0     H 4713   4.187   1.167   8.057  0.4826 -2.4730 -0.9680
   35MOL0     H 4714   4.277   1.238   7.921  3.4016  0.1932  0.3982
   35MOL0     H 4715   4.341   1.435   8.097  0.3074  0.9181 -0.9927
   35MOL0     H 4716   4.232   1.354   8.206  2.1915  1.3582  0.0964
   35MOL0     H 4717   4.038   1.390   8.044 -0.0683  0.6261  0.4377
   35MOL0     H 4718   4.151   1.471   7.932  1.2786 -0.0505 -0.6820
   35MOL0     H 4719   4.188   1.659   8.079 -2.1398  3.6200 -0.4160
   35MOL0     H 4720   4.022   1.625   8.050  1.4374 -2.2575 -3.6673
   35MOL0     H 4721   4.095   1.562   8.473  1.6634  0.8254  0.2790
   35MOL0     H 4722   4.558   1.034   8.188  1.2949 -1.8895 -1.0664
   35MOL0     H 4723   4.903   0.985   8.118 -2.1145 -2.3390 -0.6480
   35MOL0     H 4724   4.854   1.097   8.249 -1.3029  0.1686  0.5112
   35MOL0     H 4725   4.765   0.954   8.219 -1.9631  1.2967 -0.6416
   36MOL0     O 4726   5.506   7.786   4.374 -0.1178 -0.4203  0.3501
   36MOL0     C 4727   5.445   7.897   4.372 -0.2622 -0.1483 -0.6245
   36MOL0     O 4728   5.500   8.014   4.346 -0.3667 -0.4718  0.3819
   36MOL0     C 4729   5.626   8.017   4.292  0.7932  0.5838  0.4675
   36MOL0     C 4730   5.638   8.070   4.167 -0.2101 -0.6576  1.0610
   36MOL0     C 4731   5.762   8.065   4.112  0.4284  0.4922 -0.0972
   36MOL0     C 4732   5.878   8.008   4.172 -0.0099 -0.1326 -0.1631
   36MOL0     O 4733   5.992   8.011   4.099 -0.0682  0.0527 -0.7176
   36MOL0     C 4734   6.110   7.958   4.175 -0.0367  0.3725  0.3487
   36MOL0     C 4735   6.239   7.945   4.085  0.2783  0.2692 -0.5714
   36MOL0     C 4736   6.271   8.081   4.019  0.9386 -0.2621 -0.4657
   36MOL0     C 4737   6.347   8.177   4.118 -0.6798  0.1391 -0.4345
   36MOL0     C 4738   6.375   8.313   4.066  0.3508 -0.1487  0.0552
   36MOL0     C 4739   6.494   8.328   3.971  0.3478  0.1326  0.4087
   36MOL0     C 4740   6.622   8.360   4.053  0.5673  0.8080  0.3105
   36MOL0     C 4741   6.629   8.514   4.092 -0.1029 -0.3475  0.5792
   36MOL0     N 4742   6.729   8.528   4.189 -0.8416 -0.1201 -0.1656
   36MOL0     C 4743   6.848   8.595   4.173  0.1392  0.3204  0.2120
   36MOL0     C 4744   6.905   8.615   4.290  0.3981  0.6939  0.8979
   36MOL0     C 4745   7.034   8.688   4.314  0.4575 -0.0041  0.4584
   36MOL0     C 4746   7.151   8.579   4.334 -0.8904  0.1324 -0.6142
   36MOL0     C 4747   7.150   8.503   4.461  1.2311  0.1551 -0.2823
   36MOL0     C 4748   7.137   8.586   4.584  0.1073 -0.5932 -0.1438
   36MOL0     O 4749   7.197   8.538   4.705 -0.7989 -0.7761 -0.6289
   36MOL0     C 4750   7.335   8.564   4.724  0.8520  0.6818  0.0099
   36MOL0     C 4751   7.431   8.592   4.618  0.1080  0.8802 -0.0506
   36MOL0     C 4752   7.564   8.584   4.639  0.3403  0.3686  0.7509
   36MOL0     C 4753   7.618   8.561   4.771 -0.2752  0.4155 -0.7863
   36MOL0     C 4754   7.763   8.548   4.786 -0.2419  0.1853  0.2226
   36MOL0     O 4755   7.823   8.551   4.908  0.3486 -0.2611 -0.2640
   36MOL0     C 4756   7.963   8.543   4.919  1.0703 -0.8731  0.8817
   36MOL0     C 4757   8.020   8.638   5.010  0.1298  0.4830 -0.6858
   36MOL0     C 4758   8.150   8.618   5.050 -0.4052 -0.2696  0.8126
   36MOL0     C 4759   8.234   8.523   4.990 -0.2440 -0.3474  0.7733
   36MOL0     O 4760   8.360   8.512   5.028  0.0108  0.5035 -0.1546
   36MOL0     C 4761   8.376   8.427   5.143 -0.3776  0.5248 -1.2791
   36MOL0     C 4762   8.512   8.359   5.136  0.0966  0.1029 -0.6600
   36MOL0     C 4763   8.550   8.287   5.005  0.2985 -0.4020 -0.1213
   36MOL0     C 4764   8.614   8.383   4.905 -0.5140  0.5850  0.1054
   36MOL0     C 4765   8.651   8.312   4.771 -0.1359 -0.3939 -0.3708
   36MOL0     C 4766   8.523   8.265   4.697 -0.3123  0.2639 -0.1500
   36MOL0     C 4767   8.563   8.195   4.562  0.3837  0.2926 -0.0449
   36MOL0     C 4768   8.676   8.083   4.564 -0.3268 -0.8015  0.3472
   36MOL0    Cl 4769   8.654   7.959   4.690  0.4274 -0.1072  0.1315
   36MOL0     C 4770   8.176   8.438   4.890 -0.7182 -0.1912 -0.3415
   36MOL0     C 4771   8.045   8.448   4.847  0.0297  0.0681 -1.0115
   36MOL0     O 4772   7.822   8.531   4.680  0.5556  0.1078  0.4163
   36MOL0     C 4773   7.526   8.551   4.886  0.3595 -0.1276  0.0471
   36MOL0     C 4774   7.386   8.556   4.853 -0.3015 -0.3017 -0.4883
   36MOL0     N 4775   6.815   8.566   4.384  0.0613 -0.3550 -0.6007
   36MOL0     N 4776   6.713   8.516   4.323  0.2386  0.2137 -0.4530
   36MOL0     C 4777   5.864   7.955   4.304 -0.2409  0.1514 -0.2549
   36MOL0     C 4778   5.738   7.958   4.361  0.5473  0.2952 -0.1336
   36MOL0     C 4779   5.304   7.887   4.417  0.0141 -0.7360  0.3732
   36MOL0     C 4780   5.267   7.773   4.486 -0.2745  0.2338  0.7740
   36MOL0     C 4781   5.138   7.755   4.529  0.9997  0.4901  0.7956
   36MOL0     C 4782   5.042   7.847   4.506 -0.3929 -0.1840 -0.3247
   36MOL0     O 4783   4.912   7.834   4.545  0.3754 -0.2351 -0.5224
   36MOL0     C 4784   4.864   7.696   4.575 -0.2306 -0.3070  0.2118
   36MOL0     C 4785   4.726   7.710   4.629  0.6921 -0.3485 -0.1214
   36MOL0     C 4786   4.668   7.571   4.667 -0.4631 -0.0351  0.5084
   36MOL0     C 4787   4.534   7.581   4.719 -0.7396  0.0529 -0.2097
   36MOL0     C 4788   4.432   7.593   4.614  0.6954  0.2692 -0.2786
   36MOL0     C 4789   4.356   7.590   4.525 -0.1527  0.5492  0.0128
   36MOL0     C 4790   5.077   7.962   4.437  0.2542  0.2437  0.7815
   36MOL0     C 4791   5.210   7.991   4.398  0.4769  1.7952  0.5255
   36MOL0     C 4792   5.244   8.122   4.323  0.4598  0.9795 -0.1278
   36MOL0     H 4793   5.549   8.113   4.122  1.1636 -0.3689 -1.5299
   36MOL0     H 4794   5.759   8.090   4.006 -4.0945 -1.7980 -0.7707
   36MOL0     H 4795   6.143   8.019   4.259  0.2423  2.2313 -1.0533
   36MOL0     H 4796   6.087   7.852   4.192 -2.6987  0.9075  0.5204
   36MOL0     H 4797   6.225   7.861   4.017 -1.8433  0.2625 -0.2065
   36MOL0     H 4798   6.322   7.921   4.152 -1.8645 -1.2027  1.7443
   36MOL0     H 4799   6.174   8.123   3.989  1.0034 -0.7402 -1.3909
   36MOL0     H 4800   6.333   8.076   3.929 -0.1786  1.0413 -1.3562
   36MOL0     H 4801   6.283   8.183   4.206  0.5562 -2.6415  0.7915
   36MOL0     H 4802   6.444   8.134   4.145  0.5675  3.3077  0.5305
   36MOL0     H 4803   6.289   8.351   4.011  0.9947 -0.5575 -1.2649
   36MOL0     H 4804   6.397   8.376   4.153 -0.0435  1.1282 -0.7585
   36MOL0     H 4805   6.518   8.241   3.909  3.0492  1.2455 -0.2534
   36MOL0     H 4806   6.480   8.416   3.907 -0.2042 -0.7235 -0.6738
   36MOL0     H 4807   6.707   8.333   3.989 -0.4002 -1.3144 -0.1565
   36MOL0     H 4808   6.634   8.304   4.146 -0.9032  0.2116  0.1605
   36MOL0     H 4809   6.647   8.569   4.000 -1.8030  0.4695  0.7136
   36MOL0     H 4810   6.532   8.550   4.126  0.2016  2.9794 -1.7253
   36MOL0     H 4811   6.890   8.624   4.077 -1.7302 -1.2595 -1.1695
   36MOL0     H 4812   7.057   8.748   4.225 -0.4116  1.7384  1.3617
   36MOL0     H 4813   7.017   8.744   4.406 -0.9662 -0.6410  0.6081
   36MOL0     H 4814   7.145   8.501   4.257  0.6609  0.9058 -1.5729
   36MOL0     H 4815   7.251   8.622   4.327  0.3909 -1.7712  3.2252
   36MOL0     H 4816   7.239   8.440   4.459 -0.6871 -2.7936  0.8039
   36MOL0     H 4817   7.062   8.438   4.459 -0.7353  2.6204  0.2266
   36MOL0     H 4818   7.029   8.589   4.602  0.3912 -0.9673  1.9476
   36MOL0     H 4819   7.172   8.688   4.567  1.3430 -1.0532 -0.4659
   36MOL0     H 4820   7.386   8.596   4.519 -0.0539 -0.1513 -0.0300
   36MOL0     H 4821   7.629   8.588   4.552 -1.6605  3.4861 -0.7885
   36MOL0     H 4822   7.956   8.708   5.063  1.2006  0.2242  1.0293
   36MOL0     H 4823   8.187   8.675   5.133 -0.8621  0.0256  0.8175
   36MOL0     H 4824   8.364   8.471   5.243 -1.8833 -1.9822 -0.2622
   36MOL0     H 4825   8.298   8.351   5.153  0.5805 -0.2887  0.5942
   36MOL0     H 4826   8.590   8.435   5.144  0.4037 -0.2623 -0.1649
   36MOL0     H 4827   8.521   8.279   5.210 -1.5774 -0.3032 -0.8547
   36MOL0     H 4828   8.618   8.204   5.029  0.3720 -0.1224  0.6616
   36MOL0     H 4829   8.454   8.247   4.968 -0.7986  2.6804 -0.9134
   36MOL0     H 4830   8.705   8.425   4.950  3.1923 -5.0437 -1.0741
   36MOL0     H 4831   8.545   8.463   4.875  0.8846  2.1359  0.8073
   36MOL0     H 4832   8.717   8.228   4.796 -0.2273 -0.4205 -0.2158
   36MOL0     H 4833   8.716   8.377   4.712  2.6530 -3.3738 -0.9015
   36MOL0     H 4834   8.468   8.196   4.762 -0.9191 -1.2639 -2.1884
   36MOL0     H 4835   8.463   8.353   4.675  2.4862  1.4597 -3.9352
   36MOL0     H 4836   8.594   8.263   4.482 -0.4087 -0.9597 -1.4833
   36MOL0     H 4837   8.465   8.157   4.533 -0.5361 -0.4305  3.4941
   36MOL0     H 4838   8.675   8.029   4.468 -1.7566  0.8116 -0.5971
   36MOL0     H 4839   8.772   8.133   4.578 -0.5567 -0.4219  0.5793
   36MOL0     H 4840   8.238   8.372   4.831 -1.3448 -0.3725 -0.8102
   36MOL0     H 4841   8.004   8.379   4.774 -1.3919 -0.1400 -0.0593
   36MOL0     H 4842   7.548   8.551   4.992 -0.4738  2.3026  0.2836
   36MOL0     H 4843   7.306   8.547   4.927  1.8957  1.7747  2.3640
   36MOL0     H 4844   5.943   7.913   4.366  1.5670  1.6893 -1.4367
   36MOL0     H 4845   5.717   7.909   4.455  1.6522 -0.3531 -0.2081
   36MOL0     H 4846   5.333   7.693   4.517  0.3478  0.8934  1.1876
   36MOL0     H 4847   5.110   7.668   4.588 -0.5125 -0.5063 -1.2965
   36MOL0     H 4848   4.929   7.640   4.642  1.9791  0.4281 -1.2149
   36MOL0     H 4849   4.854   7.641   4.481  0.5203 -1.6091  0.8692
   36MOL0     H 4850   4.665   7.762   4.554  1.2077 -1.0587 -1.0557
   36MOL0     H 4851   4.722   7.778   4.715 -0.5970  0.0340 -0.4619
   36MOL0     H 4852   4.729   7.528   4.747  0.4055  0.5994  0.2049
   36MOL0     H 4853   4.669   7.502   4.582 -0.0850  0.3001  0.2372
   36MOL0     H 4854   4.514   7.487   4.771  0.2884 -1.8155 -2.9676
   36MOL0     H 4855   4.523   7.663   4.791  1.5836  0.2411  0.0182
   36MOL0     H 4856   4.298   7.591   4.435 -0.4183  1.0384  0.1854
   36MOL0     H 4857   5.004   8.039   4.416  1.2225  0.4475 -2.3494
   36MOL0     H 4858   5.163   8.195   4.314  0.3356  0.6756 -1.9690
   36MOL0     H 4859   5.321   8.178   4.376 -0.8228 -0.4879  3.5690
   36MOL0     H 4860   5.269   8.096   4.220 -2.2948 -1.7620 -0.2857
   37MOL0     O 4861   4.468   3.287  10.286 -0.6520 -0.4565  0.2298
   37MOL0     C 4862   4.350   3.328  10.297 -0.6421  0.0451  0.6090
   37MOL0     O 4863   4.320   3.458  10.332  0.6737  0.1277 -0.3440
   37MOL0     C 4864   4.424   3.534  10.367 -0.3424 -0.4484  0.2358
   37MOL0     C 4865   4.508   3.584  10.263 -0.4093  0.0131  0.0173
   37MOL0     C 4866   4.620   3.659  10.287 -0.9441 -1.1540 -0.1203
   37MOL0     C 4867   4.650   3.700  10.424  0.2492  1.0187  0.0095
   37MOL0     O 4868   4.760   3.784  10.440 -0.0527  0.1279  0.0942
   37MOL0     C 4869   4.780   3.851  10.573  0.1589  0.0939  0.7653
   37MOL0     C 4870   4.872   3.774  10.659 -0.8493 -0.2604  0.0193
   37MOL0     C 4871   5.013   3.740  10.601  0.7248 -0.0031 -0.5050
   37MOL0     C 4872   5.082   3.883  10.593 -0.5333 -0.8501 -0.3014
   37MOL0     C 4873   5.229   3.871  10.581 -0.3803  0.0631  0.7905
   37MOL0     C 4874   5.287   4.022  10.541 -0.3855  1.3222  0.1450
   37MOL0     C 4875   5.444   4.024  10.547  0.5003  0.4054 -0.4355
   37MOL0     C 4876   5.495   3.915  10.444  0.1445 -0.0896 -0.0598
   37MOL0     N 4877   5.639   3.914  10.433  0.4710 -0.1912 -0.1584
   37MOL0     C 4878   5.721   3.863  10.522 -0.2005 -0.1989 -0.5166
   37MOL0     C 4879   5.843   3.902  10.495 -0.0127 -0.5892  0.0120
   37MOL0     C 4880   5.972   3.849  10.560  1.4753 -0.6475  0.2166
   37MOL0     C 4881   6.087   3.819  10.474 -0.0209  0.2866  0.3702
   37MOL0     C 4882   6.203   3.768  10.556  0.6212 -0.6583  0.2167
   37MOL0     C 4883   6.331   3.737  10.477 -0.2370  0.5749  1.0089
   37MOL0     O 4884   6.368   3.857  10.409 -0.6561  0.3133  0.2896
   37MOL0     C 4885   6.444   3.953  10.465 -0.2957 -0.6940 -0.5364
   37MOL0     C 4886   6.494   3.954  10.602 -0.7883 -0.4767 -0.9152
   37MOL0     C 4887   6.555   4.073  10.651  0.3580 -0.3623 -0.1510
   37MOL0     C 4888   6.583   4.183  10.565 -1.0914 -0.2961 -1.1424
   37MOL0     C 4889   6.652   4.313  10.613  0.0165  0.4755 -0.1178
   37MOL0     O 4890   6.725   4.368  10.519 -0.3233 -0.2439  1.0142
   37MOL0     C 4891   6.793   4.490  10.535 -0.0716 -0.6369  0.1795
   37MOL0     C 4892   6.769   4.601  10.450 -0.1739  0.1607 -0.1504
   37MOL0     C 4893   6.831   4.720  10.480 -1.0876  0.5376 -0.1475
   37MOL0     C 4894   6.916   4.727  10.594  0.4076  0.0070  0.6992
   37MOL0     O 4895   6.972   4.859  10.608  0.0712  0.6386  0.2202
   37MOL0     C 4896   7.083   4.880  10.701  0.0837  0.5519 -0.3909
   37MOL0     C 4897   7.165   5.017  10.683  0.7658  0.7612 -0.1801
   37MOL0     C 4898   7.247   5.015  10.547 -0.0655  0.2145  0.0374
   37MOL0     C 4899   7.304   5.145  10.504  0.2577  0.2403 -0.1544
   37MOL0     C 4900   7.427   5.188  10.580 -0.7924 -0.1099  0.2552
   37MOL0     C 4901   7.545   5.089  10.569  0.4558  1.1449  0.9580
   37MOL0     C 4902   7.671   5.155  10.603  0.3607 -0.2504  0.1928
   37MOL0     C 4903   7.777   5.064  10.523  0.2474 -0.8907 -0.5260
   37MOL0    Cl 4904   7.939   5.091  10.578 -0.0675 -0.2741  0.3965
   37MOL0     C 4905   6.936   4.616  10.678 -0.2545 -0.8157 -0.2017
   37MOL0     C 4906   6.876   4.506  10.648 -0.4824  1.2071  0.6996
   37MOL0     O 4907   6.646   4.350  10.729 -0.7818  0.4881 -0.2298
   37MOL0     C 4908   6.538   4.178  10.439 -0.3894  0.0494  0.4470
   37MOL0     C 4909   6.468   4.065  10.388  0.1179  0.5017 -0.1958
   37MOL0     N 4910   5.837   4.003  10.408  1.0579  1.0028  0.9471
   37MOL0     N 4911   5.712   4.011  10.370 -0.0714  0.4358  0.3492
   37MOL0     C 4912   4.560   3.659  10.529 -0.5381 -0.2881 -0.9160
   37MOL0     C 4913   4.449   3.580  10.498 -0.0148 -0.1812 -0.6164
   37MOL0     C 4914   4.238   3.242  10.239  0.2015 -0.5714  0.4587
   37MOL0     C 4915   4.109   3.311  10.224 -0.0229 -0.1731  0.0555
   37MOL0     C 4916   3.999   3.235  10.181  1.2567  0.1656  0.5204
   37MOL0     C 4917   4.009   3.106  10.164  0.3355  0.1407  0.1296
   37MOL0     O 4918   3.913   3.019  10.122 -0.6915 -0.2988  0.5774
   37MOL0     C 4919   3.779   3.075  10.090 -0.3816 -0.0055  0.0665
   37MOL0     C 4920   3.711   2.975  10.008 -0.0073 -0.0119 -0.9819
   37MOL0     C 4921   3.680   2.844  10.089  0.3466 -0.3410  0.6429
   37MOL0     C 4922   3.601   2.838  10.223 -0.8770  0.0513  0.0901
   37MOL0     C 4923   3.612   2.698  10.277 -0.5078  0.3019 -0.2108
   37MOL0     C 4924   3.617   2.578  10.296  0.0995 -0.1250 -1.6294
   37MOL0     C 4925   4.132   3.040  10.180  0.1758  0.5358  1.4238
   37MOL0     C 4926   4.247   3.102  10.219  0.3387  0.2731  1.6003
   37MOL0     C 4927   4.369   3.014  10.242  0.1101  0.6249  0.2239
   37MOL0     H 4928   4.489   3.553  10.161  0.4936 -0.5757  0.0157
   37MOL0     H 4929   4.692   3.706  10.221  1.9228  0.6567  3.8800
   37MOL0     H 4930   4.826   3.948  10.555  1.1148 -0.5526 -0.4595
   37MOL0     H 4931   4.691   3.873  10.633 -0.8303  0.0734 -0.6324
   37MOL0     H 4932   4.827   3.674  10.659 -1.0786 -0.1586  0.4396
   37MOL0     H 4933   4.874   3.817  10.760  0.1637 -2.0447  0.8306
   37MOL0     H 4934   5.006   3.687  10.505  2.4740  0.1424 -0.7573
   37MOL0     H 4935   5.064   3.671  10.670  0.1189 -0.8294 -0.8690
   37MOL0     H 4936   5.049   3.934  10.502  0.4244 -2.1828 -1.4511
   37MOL0     H 4937   5.065   3.935  10.687  0.6113  0.2711 -0.6946
   37MOL0     H 4938   5.278   3.828  10.668 -0.0956 -0.3545  0.4294
   37MOL0     H 4939   5.243   3.803  10.496 -2.5988  0.1129  0.3453
   37MOL0     H 4940   5.270   4.045  10.435 -0.0454  0.4566 -0.1012
   37MOL0     H 4941   5.251   4.096  10.613  2.1398  1.6931  1.1265
   37MOL0     H 4942   5.488   3.992  10.642 -1.5958 -1.3069  0.0256
   37MOL0     H 4943   5.467   4.130  10.531 -0.8276  0.8171  0.2486
   37MOL0     H 4944   5.467   3.813  10.469 -0.5689 -0.6414 -2.7977
   37MOL0     H 4945   5.455   3.928  10.343  2.7209 -2.5187 -1.5347
   37MOL0     H 4946   5.687   3.789  10.594 -2.5398  0.9632 -0.3381
   37MOL0     H 4947   6.000   3.933  10.625  0.5882  3.2386 -3.8983
   37MOL0     H 4948   5.945   3.762  10.620 -0.6533  0.0665  0.3754
   37MOL0     H 4949   6.058   3.734  10.411 -2.6899 -0.6860  2.7073
   37MOL0     H 4950   6.108   3.906  10.410 -4.9392 -0.1705 -2.4645
   37MOL0     H 4951   6.183   3.683  10.622  2.3958  1.8700  4.3482
   37MOL0     H 4952   6.232   3.855  10.614  4.5909 -1.5451 -0.1449
   37MOL0     H 4953   6.322   3.646  10.417  2.3295  1.0553 -0.2057
   37MOL0     H 4954   6.408   3.716  10.551  0.2189  0.2300  0.4526
   37MOL0     H 4955   6.475   3.873  10.671  0.3206 -1.0485 -1.2605
   37MOL0     H 4956   6.588   4.079  10.754  0.8734  3.4802 -0.3821
   37MOL0     H 4957   6.706   4.595  10.362  0.4530 -0.8829 -0.5464
   37MOL0     H 4958   6.818   4.807  10.417 -0.6808  0.8018  0.1319
   37MOL0     H 4959   7.036   4.883  10.800  2.8355  4.2576  1.0662
   37MOL0     H 4960   7.157   4.799  10.701 -2.5210 -1.9618 -0.7509
   37MOL0     H 4961   7.088   5.094  10.676 -0.1489 -0.2598 -2.5211
   37MOL0     H 4962   7.231   5.034  10.769  0.9418 -1.5893  0.2374
   37MOL0     H 4963   7.323   4.937  10.562 -0.0774  0.0315 -0.8049
   37MOL0     H 4964   7.195   4.976  10.459  2.7801 -2.5531 -0.6077
   37MOL0     H 4965   7.234   5.228  10.496 -0.1675 -0.1565 -0.6453
   37MOL0     H 4966   7.337   5.118  10.403 -0.0239 -4.4491  0.7849
   37MOL0     H 4967   7.400   5.202  10.685  0.8749 -1.7060  0.9763
   37MOL0     H 4968   7.462   5.279  10.531 -1.3179 -0.5397 -0.9538
   37MOL0     H 4969   7.533   4.990  10.614  0.5528 -1.1498 -3.5265
   37MOL0     H 4970   7.557   5.050  10.468 -0.1533 -0.0929  1.3488
   37MOL0     H 4971   7.681   5.159  10.712 -0.5793  1.2788  0.2560
   37MOL0     H 4972   7.666   5.253  10.555 -2.4825 -0.9641 -1.1836
   37MOL0     H 4973   7.755   4.958  10.540 -0.3242 -1.1979 -2.8847
   37MOL0     H 4974   7.774   5.087  10.416 -3.0693  1.7638 -0.0204
   37MOL0     H 4975   6.996   4.631  10.768 -1.6867  0.4032  0.6012
   37MOL0     H 4976   6.896   4.420  10.711 -1.5174  1.7065  1.7620
   37MOL0     H 4977   6.553   4.271  10.387  2.0909  0.6169  2.0238
   37MOL0     H 4978   6.458   4.057  10.280  3.0352 -1.6305 -0.4222
   37MOL0     H 4979   4.566   3.701  10.628 -1.6741  0.7970 -1.2902
   37MOL0     H 4980   4.365   3.550  10.561 -1.3855  0.4100 -2.0990
   37MOL0     H 4981   4.102   3.419  10.230  1.1160  0.0185 -1.3903
   37MOL0     H 4982   3.905   3.287  10.171  1.5340  0.7230  0.7554
   37MOL0     H 4983   3.786   3.166  10.030 -2.1477  0.2896  0.2623
   37MOL0     H 4984   3.733   3.109  10.184 -0.6907 -2.1918  0.7445
   37MOL0     H 4985   3.777   2.953   9.924  0.5682  1.5387 -0.9828
   37MOL0     H 4986   3.621   3.016   9.961 -1.2197 -0.5986  0.7623
   37MOL0     H 4987   3.778   2.799  10.105  0.1548 -2.1972 -2.6426
   37MOL0     H 4988   3.628   2.770  10.028 -0.5629  1.7878 -1.3027
   37MOL0     H 4989   3.643   2.914  10.290  0.7283  0.4943 -1.3587
   37MOL0     H 4990   3.497   2.869  10.204 -0.4192  0.3738 -2.2209
   37MOL0     H 4991   3.620   2.475  10.323  0.9189  0.6349  1.5472
   37MOL0     H 4992   4.141   2.932  10.169  3.7220  0.8581  0.0023
   37MOL0     H 4993   4.418   3.053  10.332 -2.7684  1.5654  1.5148
   37MOL0     H 4994   4.349   2.912  10.275  1.4083 -0.8113 -2.9709
   37MOL0     H 4995   4.440   3.015  10.158  0.6298  0.3777  0.6528
   38MOL0     O 4996   3.477   7.605   1.484  0.3260  1.1370 -0.4836
   38MOL0     C 4997   3.426   7.572   1.380  0.3525  0.8585  0.8481
   38MOL0     O 4998   3.487   7.568   1.254 -0.8904 -0.3590  0.2391
   38MOL0     C 4999   3.630   7.577   1.238  0.2429 -0.3443  0.1729
   38MOL0     C 5000   3.702   7.475   1.179 -1.0679  0.7892 -0.0918
   38MOL0     C 5001   3.844   7.474   1.194 -0.4828 -0.5587 -0.0413
   38MOL0     C 5002   3.913   7.589   1.247  0.8332  0.7549 -0.7548
   38MOL0     O 5003   4.046   7.613   1.261 -0.2483  0.1360  0.4470
   38MOL0     C 5004   4.131   7.545   1.171  0.1813  0.5371 -0.4568
   38MOL0     C 5005   4.259   7.626   1.141 -0.4346  0.0655 -0.1602
   38MOL0     C 5006   4.356   7.569   1.244  0.2530  0.4602 -0.0501
   38MOL0     C 5007   4.492   7.635   1.218 -0.1732  0.3227 -0.4925
   38MOL0     C 5008   4.598   7.564   1.305 -0.0002  0.5679 -0.3079
   38MOL0     C 5009   4.739   7.611   1.275  0.0769 -0.1581  0.2317
   38MOL0     C 5010   4.849   7.538   1.353 -0.5969  0.1049  0.1163
   38MOL0     C 5011   4.899   7.407   1.287 -0.3754 -0.4706  0.0619
   38MOL0     N 5012   5.016   7.360   1.358 -0.8625 -0.5779 -0.1130
   38MOL0     C 5013   5.140   7.423   1.380  0.3101  0.3191  0.3814
   38MOL0     C 5014   5.201   7.360   1.486  0.6600  0.7910 -0.2213
   38MOL0     C 5015   5.324   7.406   1.556 -0.1108  0.4703 -0.2931
   38MOL0     C 5016   5.451   7.388   1.469 -0.1851 -0.1595  0.5069
   38MOL0     C 5017   5.564   7.467   1.541  0.2455  0.7030  0.1860
   38MOL0     C 5018   5.667   7.505   1.436 -0.6768  0.1731 -0.4287
   38MOL0     O 5019   5.710   7.385   1.376  0.1090 -0.7187  0.2681
   38MOL0     C 5020   5.828   7.343   1.411 -0.5266  0.0375 -0.4869
   38MOL0     C 5021   5.946   7.419   1.414 -0.1343 -0.8739  0.7504
   38MOL0     C 5022   6.069   7.369   1.457 -0.0351 -0.0992 -0.5910
   38MOL0     C 5023   6.075   7.229   1.500 -0.0600  0.0550 -0.6193
   38MOL0     C 5024   6.212   7.180   1.514 -0.0385 -0.3000  0.7121
   38MOL0     O 5025   6.325   7.268   1.524 -0.0238  0.4155 -0.4663
   38MOL0     C 5026   6.453   7.216   1.542  0.0815  0.5488  0.5144
   38MOL0     C 5027   6.503   7.096   1.488 -0.8639  0.6749  0.4896
   38MOL0     C 5028   6.639   7.059   1.516  0.0186 -0.3592 -0.0332
   38MOL0     C 5029   6.725   7.144   1.582  0.6469 -0.4331  0.3513
   38MOL0     O 5030   6.856   7.118   1.588 -0.0718 -0.6595  0.4282
   38MOL0     C 5031   6.921   7.177   1.478  0.5057  1.1550  0.0873
   38MOL0     C 5032   6.994   7.313   1.517  0.4021 -0.3363  0.2720
   38MOL0     C 5033   7.057   7.372   1.385 -0.0327 -1.2061 -0.6762
   38MOL0     C 5034   6.949   7.443   1.298 -0.1602  0.4581 -0.0727
   38MOL0     C 5035   7.021   7.511   1.186  0.2234 -0.7892  0.4222
   38MOL0     C 5036   6.961   7.493   1.047 -0.1718  0.5369  1.1830
   38MOL0     C 5037   6.815   7.536   1.043 -0.5188  0.3677 -0.5460
   38MOL0     C 5038   6.743   7.532   0.906  0.1014 -0.0496  0.2577
   38MOL0    Cl 5039   6.820   7.657   0.797  0.0896  0.2057  0.1056
   38MOL0     C 5040   6.676   7.269   1.625 -0.5750 -0.3033 -0.2139
   38MOL0     C 5041   6.539   7.297   1.607  0.1417  1.1071  0.1440
   38MOL0     O 5042   6.221   7.066   1.540  0.2806 -0.2537  0.6042
   38MOL0     C 5043   5.952   7.152   1.499 -0.6507 -0.2729  0.7938
   38MOL0     C 5044   5.836   7.207   1.456  0.5318  0.7995  0.4954
   38MOL0     N 5045   5.123   7.241   1.512  0.6051  0.0225 -0.9393
   38MOL0     N 5046   5.013   7.256   1.440  0.0586  0.1635 -0.3333
   38MOL0     C 5047   3.833   7.695   1.285  0.1629 -0.3195 -0.0669
   38MOL0     C 5048   3.698   7.699   1.278  0.0837  0.5050 -0.5125
   38MOL0     C 5049   3.286   7.531   1.384  0.3980  1.0725  0.9985
   38MOL0     C 5050   3.247   7.419   1.297  0.0218 -0.6786 -0.0369
   38MOL0     C 5051   3.118   7.367   1.291 -0.3849 -0.0287  0.2479
   38MOL0     C 5052   3.019   7.423   1.376  0.8818 -0.0017  0.4325
   38MOL0     O 5053   2.884   7.377   1.379  0.3531 -0.1578  0.2255
   38MOL0     C 5054   2.847   7.248   1.325 -0.0519 -0.1650 -0.0019
   38MOL0     C 5055   2.726   7.185   1.383  0.1019 -1.0472  0.0710
   38MOL0     C 5056   2.611   7.285   1.404  0.4540 -1.4072  0.6742
   38MOL0     C 5057   2.486   7.200   1.439  0.6610 -0.5552  0.2774
   38MOL0     C 5058   2.361   7.283   1.407  0.0731 -0.2724  0.0028
   38MOL0     C 5059   2.274   7.372   1.386  0.5943 -0.0073  0.3017
   38MOL0     C 5060   3.050   7.530   1.455  0.1057  0.4791 -0.4191
   38MOL0     C 5061   3.182   7.576   1.468  0.4912 -0.1834  1.4459
   38MOL0     C 5062   3.211   7.683   1.566  0.1141  0.3055 -0.3615
   38MOL0     H 5063   3.631   7.406   1.134 -1.6024 -0.8039  2.9746
   38MOL0     H 5064   3.911   7.397   1.158  1.9961  2.1086 -1.5432
   38MOL0     H 5065   4.146   7.442   1.206  0.1876  0.8439  0.4852
   38MOL0     H 5066   4.077   7.537   1.076 -0.1889 -1.1008 -0.1523
   38MOL0     H 5067   4.243   7.734   1.151  1.9570  0.4136  0.4993
   38MOL0     H 5068   4.294   7.600   1.041 -0.7623  0.3810 -0.3594
   38MOL0     H 5069   4.368   7.462   1.226  1.7004  0.8559 -1.7017
   38MOL0     H 5070   4.334   7.592   1.349  2.8501 -2.4375  1.2609
   38MOL0     H 5071   4.517   7.619   1.113  0.2086 -1.7465 -0.1326
   38MOL0     H 5072   4.493   7.742   1.240 -2.2816 -0.2263  3.0889
   38MOL0     H 5073   4.581   7.595   1.409  2.2986 -0.4358  0.4430
   38MOL0     H 5074   4.586   7.459   1.276 -0.8169  0.6318 -0.2167
   38MOL0     H 5075   4.767   7.624   1.169  0.7406 -0.7722  0.3194
   38MOL0     H 5076   4.753   7.715   1.306  4.8268 -0.7234  0.7832
   38MOL0     H 5077   4.822   7.527   1.459  2.5011 -0.1357  0.9549
   38MOL0     H 5078   4.928   7.613   1.351 -0.7795  0.3355  1.0365
   38MOL0     H 5079   4.822   7.329   1.288  1.3117 -2.2158  0.7372
   38MOL0     H 5080   4.926   7.426   1.183  0.4342 -1.7598  0.0131
   38MOL0     H 5081   5.178   7.509   1.326 -1.5619  0.2658 -1.1094
   38MOL0     H 5082   5.309   7.510   1.587  3.3939  0.4348  2.1930
   38MOL0     H 5083   5.340   7.350   1.649  0.8636  0.1393 -0.6506
   38MOL0     H 5084   5.478   7.282   1.463  1.7552  0.2541  1.0979
   38MOL0     H 5085   5.437   7.428   1.369  1.4895 -1.8839 -0.4838
   38MOL0     H 5086   5.617   7.408   1.616 -2.5098  0.0847  1.8106
   38MOL0     H 5087   5.519   7.559   1.582 -1.7677 -0.0823 -0.1276
   38MOL0     H 5088   5.746   7.571   1.472  0.6196 -1.3180 -0.3898
   38MOL0     H 5089   5.619   7.564   1.358 -2.7668 -0.4919  0.2907
   38MOL0     H 5090   5.948   7.519   1.371  0.7135 -0.4909  1.6537
   38MOL0     H 5091   6.154   7.433   1.438 -0.2052 -0.7372 -4.4322
   38MOL0     H 5092   6.439   7.024   1.438  2.2528 -1.4444 -0.7240
   38MOL0     H 5093   6.677   6.962   1.487 -0.4880 -1.6945  3.3422
   38MOL0     H 5094   6.990   7.102   1.438 -2.0737 -1.5577  0.3233
   38MOL0     H 5095   6.858   7.201   1.392 -2.8581 -3.8919  0.6785
   38MOL0     H 5096   6.927   7.384   1.565 -0.1849 -1.8364  1.7572
   38MOL0     H 5097   7.066   7.292   1.596  1.1906  4.7172  1.2778
   38MOL0     H 5098   7.136   7.442   1.414  0.6104 -2.4150  0.6133
   38MOL0     H 5099   7.100   7.295   1.321 -0.3051 -2.1082  0.1954
   38MOL0     H 5100   6.879   7.512   1.347 -1.4236  0.0594 -1.2313
   38MOL0     H 5101   6.885   7.366   1.254 -0.4380  0.3526  0.5019
   38MOL0     H 5102   7.124   7.474   1.181 -0.5008 -2.9573  0.3311
   38MOL0     H 5103   7.032   7.619   1.197  2.5694 -0.5522 -2.7250
   38MOL0     H 5104   7.022   7.538   0.968  0.9718 -1.0903  1.0730
   38MOL0     H 5105   6.970   7.386   1.024 -1.4455  0.8653 -1.1198
   38MOL0     H 5106   6.814   7.637   1.085  0.2364  0.2651 -0.2639
   38MOL0     H 5107   6.764   7.475   1.119  3.3659  1.1050  3.0066
   38MOL0     H 5108   6.743   7.434   0.858  0.8335 -0.8675  1.8306
   38MOL0     H 5109   6.636   7.551   0.913  0.2394  0.4868  1.1181
   38MOL0     H 5110   6.739   7.343   1.673 -0.0561 -0.3394 -0.8270
   38MOL0     H 5111   6.486   7.379   1.654 -3.4035 -0.5295 -0.6905
   38MOL0     H 5112   5.956   7.049   1.533 -3.6038 -0.7162  0.1130
   38MOL0     H 5113   5.744   7.148   1.460  1.0854 -0.1091  0.0602
   38MOL0     H 5114   3.884   7.785   1.319  1.0426 -0.3799 -1.1531
   38MOL0     H 5115   3.648   7.789   1.311 -0.0971  0.5441 -0.8882
   38MOL0     H 5116   3.322   7.370   1.236  0.5826  0.5447 -0.3692
   38MOL0     H 5117   3.096   7.276   1.236 -1.1172  0.0078  0.4702
   38MOL0     H 5118   2.930   7.177   1.335  0.1582  0.0588 -0.1402
   38MOL0     H 5119   2.822   7.262   1.219 -0.9676 -2.3472 -0.1301
   38MOL0     H 5120   2.747   7.142   1.481 -3.3906 -1.7045  0.6619
   38MOL0     H 5121   2.692   7.116   1.305  1.8048  1.8418 -3.5168
   38MOL0     H 5122   2.601   7.340   1.310 -0.0314 -1.0652  0.9252
   38MOL0     H 5123   2.634   7.355   1.485 -1.8603 -2.6435  2.5549
   38MOL0     H 5124   2.487   7.116   1.369  0.9457  0.3950 -0.9011
   38MOL0     H 5125   2.488   7.178   1.546 -0.1596  0.8453  0.6192
   38MOL0     H 5126   2.212   7.458   1.373 -0.9954 -1.0777  0.6424
   38MOL0     H 5127   2.972   7.580   1.513  2.1643  0.8392  2.2296
   38MOL0     H 5128   3.272   7.756   1.513  0.6116  0.9285  1.0437
   38MOL0     H 5129   3.119   7.736   1.590  0.8875  1.1752  0.7728
   38MOL0     H 5130   3.264   7.638   1.650  0.4268 -2.2084 -1.7974
   39MOL0     O 5131   4.042   2.120   2.936 -0.1690 -0.0285  0.2927
   39MOL0     C 5132   3.939   2.163   2.889 -0.6171  0.0942  1.1459
   39MOL0     O 5133   3.914   2.165   2.753 -0.4118 -0.0281  0.7713
   39MOL0     C 5134   4.021   2.161   2.665  1.0197 -0.2339 -0.1455
   39MOL0     C 5135   4.117   2.254   2.657  0.3827 -0.3636 -0.5744
   39MOL0     C 5136   4.214   2.263   2.556 -0.6862  0.0002 -1.3137
   39MOL0     C 5137   4.222   2.161   2.468  0.0063  0.1973  0.9834
   39MOL0     O 5138   4.326   2.164   2.381 -0.3942 -0.3048  0.6117
   39MOL0     C 5139   4.306   2.120   2.246  0.1241  0.1053 -0.1351
   39MOL0     C 5140   4.424   2.151   2.154 -1.0096 -0.1622  0.2329
   39MOL0     C 5141   4.565   2.072   2.165  0.8972  0.0968 -0.1809
   39MOL0     C 5142   4.666   2.132   2.067  0.2468 -0.6001 -0.1031
   39MOL0     C 5143   4.806   2.087   2.077 -0.7668 -0.1030 -0.3956
   39MOL0     C 5144   4.824   1.950   2.006 -0.1214  0.0374 -0.7422
   39MOL0     C 5145   4.961   1.895   2.037  0.2785 -0.4633 -0.2103
   39MOL0     C 5146   5.092   1.983   2.015  1.0085  0.8205  0.9766
   39MOL0     N 5147   5.205   1.908   2.071 -0.1737  0.7200 -0.1359
   39MOL0     C 5148   5.315   1.891   1.992  0.1277  0.3700 -0.2317
   39MOL0     C 5149   5.406   1.818   2.070  1.2550 -0.4342 -0.0262
   39MOL0     C 5150   5.539   1.774   2.032 -0.4796 -1.2262  0.2142
   39MOL0     C 5151   5.646   1.882   2.073  0.5021  0.7771  0.4099
   39MOL0     C 5152   5.770   1.837   2.000 -0.7463 -1.4046 -0.2289
   39MOL0     C 5153   5.892   1.923   2.029  0.3402  0.1691 -0.1570
   39MOL0     O 5154   5.994   1.901   1.933 -0.2955 -0.3996 -0.5953
   39MOL0     C 5155   6.114   1.923   1.988 -0.4613 -0.2293  0.4122
   39MOL0     C 5156   6.146   2.048   2.025 -0.2856  0.3732 -0.2943
   39MOL0     C 5157   6.273   2.080   2.079  0.0609 -0.0934  1.1900
   39MOL0     C 5158   6.370   1.974   2.091  0.7708  0.0495 -0.0823
   39MOL0     C 5159   6.511   1.987   2.140 -0.5174 -0.6019 -0.3272
   39MOL0     O 5160   6.555   2.114   2.183 -0.1449 -0.4560  0.7188
   39MOL0     C 5161   6.681   2.122   2.227  0.1230 -0.8570 -0.4656
   39MOL0     C 5162   6.779   2.187   2.160 -0.5052  0.2157 -0.2313
   39MOL0     C 5163   6.903   2.211   2.224 -0.5646  0.5013 -0.3586
   39MOL0     C 5164   6.917   2.195   2.362 -0.0388  0.1047  0.6690
   39MOL0     O 5165   7.024   2.227   2.435 -0.4214  0.0857 -0.0555
   39MOL0     C 5166   7.116   2.328   2.395  0.3519 -0.0469  0.0268
   39MOL0     C 5167   7.187   2.373   2.523  0.7480  0.3330 -0.3778
   39MOL0     C 5168   7.286   2.485   2.495  0.5714  1.2460  0.3759
   39MOL0     C 5169   7.357   2.533   2.616 -0.0947  0.4887  0.2625
   39MOL0     C 5170   7.462   2.634   2.586  0.0143 -0.0206  0.5773
   39MOL0     C 5171   7.606   2.563   2.590  0.5630  0.1049  0.1735
   39MOL0     C 5172   7.717   2.659   2.602  0.4437 -0.3886  0.6856
   39MOL0     C 5173   7.846   2.582   2.636 -0.4321 -1.5158  0.1936
   39MOL0    Cl 5174   7.996   2.691   2.665 -0.2995 -0.0051  0.2641
   39MOL0     C 5175   6.812   2.135   2.436  0.4671 -0.3584 -0.3381
   39MOL0     C 5176   6.701   2.092   2.361  0.1139  0.6984  1.2289
   39MOL0     O 5177   6.584   1.890   2.147  0.0250 -0.0179 -0.1223
   39MOL0     C 5178   6.332   1.844   2.035 -0.3765 -0.1566  0.4400
   39MOL0     C 5179   6.207   1.820   1.985  0.0180  0.1068  0.6876
   39MOL0     N 5180   5.352   1.809   2.203 -0.6126 -0.5750  0.0107
   39MOL0     N 5181   5.233   1.862   2.199  0.0477 -0.6041 -0.4623
   39MOL0     C 5182   4.130   2.054   2.481 -0.7829 -0.9514  1.0847
   39MOL0     C 5183   4.025   2.057   2.576 -0.2079 -0.1404 -0.1568
   39MOL0     C 5184   3.827   2.214   2.969  0.3853 -0.7108 -0.5654
   39MOL0     C 5185   3.746   2.313   2.914  0.4727 -0.7460  0.2236
   39MOL0     C 5186   3.633   2.357   2.993 -0.0733  0.0019  0.0735
   39MOL0     C 5187   3.595   2.299   3.114 -0.1370 -0.5252 -0.3477
   39MOL0     O 5188   3.494   2.348   3.189 -0.2291  0.2354  0.1451
   39MOL0     C 5189   3.489   2.335   3.333  0.1962  0.6448 -0.9696
   39MOL0     C 5190   3.378   2.400   3.416  0.4767 -0.1766  0.1081
   39MOL0     C 5191   3.243   2.346   3.373 -0.3083 -0.0019  0.6825
   39MOL0     C 5192   3.151   2.403   3.474  0.5806  0.4602  0.2607
   39MOL0     C 5193   3.141   2.323   3.595  0.2731  0.7018  0.6598
   39MOL0     C 5194   3.144   2.261   3.700  1.1895 -0.7189 -0.3193
   39MOL0     C 5195   3.686   2.212   3.172  0.0715  0.5801  0.0633
   39MOL0     C 5196   3.794   2.167   3.098 -0.6642  0.3667  0.4798
   39MOL0     C 5197   3.883   2.069   3.157 -0.4941 -1.0364 -0.2580
   39MOL0     H 5198   4.115   2.341   2.722  0.4429 -0.9699  0.2586
   39MOL0     H 5199   4.282   2.347   2.547  0.5678 -0.6596  1.0753
   39MOL0     H 5200   4.296   2.011   2.251 -0.7371  0.1279 -1.0476
   39MOL0     H 5201   4.216   2.167   2.205  0.2497  0.3757 -0.1036
   39MOL0     H 5202   4.445   2.258   2.146 -0.0235 -0.3091  0.7119
   39MOL0     H 5203   4.385   2.128   2.055 -2.1184  2.0437  0.1017
   39MOL0     H 5204   4.539   1.969   2.141  0.2784 -0.1180  1.2968
   39MOL0     H 5205   4.606   2.081   2.267 -0.9784  0.8289  0.5669
   39MOL0     H 5206   4.632   2.124   1.964  0.0280  0.9422 -0.1716
   39MOL0     H 5207   4.658   2.240   2.085 -1.5530 -0.5306 -1.0697
   39MOL0     H 5208   4.877   2.154   2.028 -0.1588 -0.0434  0.5392
   39MOL0     H 5209   4.839   2.082   2.181 -1.5773  2.6288  0.0761
   39MOL0     H 5210   4.747   1.880   2.039  0.1790  0.2546  0.4700
   39MOL0     H 5211   4.798   1.972   1.901 -4.5738 -1.7145 -0.2523
   39MOL0     H 5212   4.976   1.811   1.968 -0.7029 -0.7066 -0.1417
   39MOL0     H 5213   4.953   1.863   2.141 -0.2671  1.4307  0.3621
   39MOL0     H 5214   5.121   1.998   1.910 -1.2250 -0.5003  0.0962
   39MOL0     H 5215   5.080   2.082   2.060  2.0037  1.2446  0.3634
   39MOL0     H 5216   5.332   1.939   1.896 -1.1420  6.2081  2.0302
   39MOL0     H 5217   5.552   1.682   2.089  0.1802 -1.1676  0.1766
   39MOL0     H 5218   5.554   1.744   1.928 -0.1897 -2.4097  0.5898
   39MOL0     H 5219   5.607   1.977   2.037 -1.4359 -0.7141 -1.7453
   39MOL0     H 5220   5.655   1.892   2.182  3.2877  2.3903  0.1169
   39MOL0     H 5221   5.746   1.857   1.895 -1.0699  2.8966  0.4647
   39MOL0     H 5222   5.804   1.733   2.006  2.1203 -0.5327  0.5978
   39MOL0     H 5223   5.921   1.914   2.134 -0.4208  0.8611  0.1219
   39MOL0     H 5224   5.858   2.025   2.008 -0.5016 -0.4404 -1.9721
   39MOL0     H 5225   6.079   2.132   2.009  1.3202  1.4248 -1.8616
   39MOL0     H 5226   6.294   2.182   2.110  1.9955  0.4825 -1.5827
   39MOL0     H 5227   6.762   2.219   2.057  1.6980  1.0247 -0.4062
   39MOL0     H 5228   6.985   2.249   2.164 -2.4860  0.9540 -2.8857
   39MOL0     H 5229   7.182   2.277   2.325 -4.2113 -3.2936 -2.4352
   39MOL0     H 5230   7.075   2.414   2.341  2.5615 -0.0543 -1.8306
   39MOL0     H 5231   7.109   2.391   2.598  1.6856 -3.0116  1.6505
   39MOL0     H 5232   7.246   2.288   2.560  0.9854  0.6129 -0.1032
   39MOL0     H 5233   7.358   2.444   2.423 -0.5171 -1.3127  0.6280
   39MOL0     H 5234   7.225   2.564   2.450 -4.3932 -1.9542  0.7349
   39MOL0     H 5235   7.394   2.447   2.673  0.5346  0.5472 -0.0521
   39MOL0     H 5236   7.283   2.582   2.680  0.1414  0.2190  0.7467
   39MOL0     H 5237   7.461   2.718   2.657  2.1071  0.4736  0.0877
   39MOL0     H 5238   7.439   2.683   2.492  1.7310  0.0310  0.1499
   39MOL0     H 5239   7.618   2.493   2.673 -4.2307 -1.2140  0.0727
   39MOL0     H 5240   7.614   2.524   2.488  1.1783 -0.7311  0.5380
   39MOL0     H 5241   7.704   2.741   2.673 -1.3535 -0.3356  0.3386
   39MOL0     H 5242   7.737   2.694   2.500  0.5577 -5.6722 -1.4179
   39MOL0     H 5243   7.839   2.533   2.733  1.8978 -2.2428  0.0366
   39MOL0     H 5244   7.872   2.505   2.563  3.0073 -1.7537  1.4918
   39MOL0     H 5245   6.829   2.115   2.541 -0.7384 -0.8438 -0.2218
   39MOL0     H 5246   6.623   2.040   2.417 -0.0017  0.1910  0.5983
   39MOL0     H 5247   6.395   1.756   2.044 -2.9162 -2.2715 -1.2544
   39MOL0     H 5248   6.191   1.720   1.947  0.5338  0.3777 -0.2789
   39MOL0     H 5249   4.144   1.977   2.406  2.3945  1.9324 -1.6334
   39MOL0     H 5250   3.953   1.977   2.586 -0.2094 -0.2162 -0.7261
   39MOL0     H 5251   3.766   2.339   2.811 -0.0192  1.1730  0.5751
   39MOL0     H 5252   3.573   2.438   2.952  0.5350  2.1738  3.1326
   39MOL0     H 5253   3.577   2.382   3.378  0.6973 -0.6365 -0.5713
   39MOL0     H 5254   3.485   2.228   3.352  0.1924  0.4558 -1.9737
   39MOL0     H 5255   3.376   2.505   3.385  0.0266 -0.2911 -0.2671
   39MOL0     H 5256   3.387   2.395   3.525  0.5839  1.1555  0.1795
   39MOL0     H 5257   3.249   2.239   3.394 -1.7450 -0.1985  0.1637
   39MOL0     H 5258   3.214   2.370   3.270  4.2174 -1.6693 -1.2718
   39MOL0     H 5259   3.185   2.498   3.517  0.3103  0.2132  1.0405
   39MOL0     H 5260   3.052   2.420   3.430 -0.5479 -1.7733  1.7418
   39MOL0     H 5261   3.164   2.197   3.784  2.1730  2.3875  2.0074
   39MOL0     H 5262   3.672   2.182   3.275 -3.5877  2.3654  0.2636
   39MOL0     H 5263   3.902   1.985   3.090 -0.7177 -0.4922 -1.0134
   39MOL0     H 5264   3.980   2.114   3.182 -0.2021 -0.6369 -1.9635
   39MOL0     H 5265   3.834   2.036   3.249 -1.1509  2.3412  0.7561
   40MOL0     O 5266   0.126  11.079   2.846  0.0875 -0.1841  0.0098
   40MOL0     C 5267   0.120  10.956   2.876  0.4901  0.0477 -0.2034
   40MOL0     O 5268   0.198  10.854   2.826 -0.2462 -0.6881  0.3186
   40MOL0     C 5269   0.301  10.897   2.746 -0.6184 -0.3108  0.1261
   40MOL0     C 5270   0.276  10.945   2.616 -0.2991  0.2952 -0.0885
   40MOL0     C 5271   0.363  10.995   2.540  0.3212  0.0078 -0.8146
   40MOL0     C 5272   0.492  11.002   2.583  0.6450  0.2134 -0.5783
   40MOL0     O 5273   0.575  11.079   2.505  0.3908 -0.2009 -0.2990
   40MOL0     C 5274   0.672  11.005   2.434 -0.2832 -0.0419  0.8756
   40MOL0     C 5275   0.768  11.101   2.355  0.6737  0.5458 -0.0538
   40MOL0     C 5276   0.866  11.152   2.453 -0.8413  0.4116  1.0770
   40MOL0     C 5277   0.960  11.252   2.375  0.5458 -0.0087 -0.2081
   40MOL0     C 5278   1.077  11.273   2.471  1.0251 -0.6179  0.1757
   40MOL0     C 5279   1.168  11.397   2.452 -0.2877  0.1154 -0.1319
   40MOL0     C 5280   1.270  11.427   2.560  0.0252  0.2361 -0.1228
   40MOL0     C 5281   1.370  11.312   2.587  0.3253 -0.0746  0.5439
   40MOL0     N 5282   1.459  11.278   2.476 -0.0968 -0.1979 -0.2305
   40MOL0     C 5283   1.592  11.325   2.471  0.6100 -0.2945  0.0030
   40MOL0     C 5284   1.645  11.254   2.368  0.2948  0.2374  0.7577
   40MOL0     C 5285   1.786  11.276   2.329 -0.8323 -0.1818 -0.0372
   40MOL0     C 5286   1.879  11.297   2.453  0.0068  0.6042  0.9568
   40MOL0     C 5287   2.015  11.336   2.400  0.1441  0.3761 -0.3224
   40MOL0     C 5288   2.112  11.388   2.509  0.4178  0.3545  0.0778
   40MOL0     O 5289   2.246  11.401   2.460 -0.3824 -0.1353  0.2600
   40MOL0     C 5290   2.333  11.294   2.435  0.3598 -0.3734  0.3678
   40MOL0     C 5291   2.339  11.177   2.504  0.6620  0.1726 -0.4460
   40MOL0     C 5292   2.426  11.076   2.469 -0.0157  0.3528 -0.0724
   40MOL0     C 5293   2.522  11.096   2.368  0.5298  0.9627  0.0154
   40MOL0     C 5294   2.620  10.991   2.323  0.3766 -0.5592 -1.4086
   40MOL0     O 5295   2.732  11.034   2.262  0.8884 -0.3907 -0.0089
   40MOL0     C 5296   2.833  10.955   2.231  0.4929  0.8838 -0.3770
   40MOL0     C 5297   2.814  10.847   2.143 -0.4317  0.7719 -0.3445
   40MOL0     C 5298   2.920  10.779   2.099 -0.5990 -0.3786  0.0500
   40MOL0     C 5299   3.053  10.808   2.132 -0.9030 -0.2459  0.9742
   40MOL0     O 5300   3.163  10.743   2.079  0.1642 -0.3058  0.5961
   40MOL0     C 5301   3.147  10.657   1.966 -0.6570 -0.4402  0.3309
   40MOL0     C 5302   3.287  10.602   1.932  0.1668  0.0991  0.0870
   40MOL0     C 5303   3.389  10.705   1.871 -0.7369  0.5213 -0.6353
   40MOL0     C 5304   3.530  10.642   1.845 -0.4276 -0.3949 -0.9223
   40MOL0     C 5305   3.635  10.755   1.844  0.3220 -0.6964 -1.1494
   40MOL0     C 5306   3.757  10.722   1.764  0.3932 -0.2569 -0.4505
   40MOL0     C 5307   3.854  10.834   1.755 -0.8906  0.0489 -0.8527
   40MOL0     C 5308   3.978  10.788   1.675 -0.2237  0.2750 -0.6084
   40MOL0    Cl 5309   4.062  10.927   1.601  0.0496 -0.4241 -0.2971
   40MOL0     C 5310   3.069  10.912   2.225 -0.3970  0.0563 -0.2921
   40MOL0     C 5311   2.958  10.984   2.270 -0.2762 -0.0904 -0.3361
   40MOL0     O 5312   2.599  10.874   2.346  0.5287 -0.6523 -0.1048
   40MOL0     C 5313   2.531  11.219   2.302  0.9684  0.2023  0.3183
   40MOL0     C 5314   2.427  11.303   2.335  0.5259  0.2719  0.9117
   40MOL0     N 5315   1.556  11.162   2.316 -0.6277  0.0532  0.7884
   40MOL0     N 5316   1.435  11.188   2.369 -0.3872  0.6212 -0.2379
   40MOL0     C 5317   0.527  10.949   2.710 -0.4936  0.6926  0.2791
   40MOL0     C 5318   0.434  10.893   2.797  0.7703 -0.3477 -0.6476
   40MOL0     C 5319  -0.002  10.918   2.951  0.1433 -0.9478 -0.6730
   40MOL0     C 5320  -0.045  11.005   3.049  0.2163 -0.6299  0.7004
   40MOL0     C 5321  -0.173  10.985   3.095 -0.1744 -0.2177 -0.1778
   40MOL0     C 5322  -0.251  10.872   3.069 -1.1695 -0.0774 -0.2585
   40MOL0     O 5323  -0.381  10.845   3.119 -0.6331  0.4803 -0.4645
   40MOL0     C 5324  -0.409  10.852   3.263  0.3145  0.2325  0.5279
   40MOL0     C 5325  -0.438  10.711   3.301 -0.2539  0.5722  0.3236
   40MOL0     C 5326  -0.556  10.641   3.226 -0.7384 -0.4782 -0.1235
   40MOL0     C 5327  -0.691  10.689   3.274 -0.3336 -0.4624 -0.6292
   40MOL0     C 5328  -0.799  10.601   3.221  0.0526 -1.3076  0.9044
   40MOL0     C 5329  -0.885  10.527   3.183 -0.5208 -0.4313 -0.7662
   40MOL0     C 5330  -0.196  10.780   2.982 -0.5645  0.3494 -0.4277
   40MOL0     C 5331  -0.077  10.799   2.915  0.6466 -0.2772 -0.0388
   40MOL0     C 5332  -0.038  10.707   2.800  0.7572  0.5046 -1.4234
   40MOL0     H 5333   0.172  10.936   2.584 -0.5269  1.9749  0.1048
   40MOL0     H 5334   0.331  11.027   2.441  0.0133  0.0571 -0.6999
   40MOL0     H 5335   0.733  10.938   2.495  3.8136 -1.2853 -3.8820
   40MOL0     H 5336   0.624  10.943   2.358 -0.9562  2.1378 -0.5858
   40MOL0     H 5337   0.717  11.185   2.308 -0.0267  0.1509 -0.0184
   40MOL0     H 5338   0.812  11.043   2.273 -0.3044 -0.8797  0.3868
   40MOL0     H 5339   0.921  11.069   2.500 -2.3254 -0.4513  1.3634
   40MOL0     H 5340   0.827  11.202   2.542 -0.9721  1.8438  0.2311
   40MOL0     H 5341   0.986  11.215   2.276  1.7899  1.0572 -0.3121
   40MOL0     H 5342   0.913  11.349   2.356  0.9150 -0.2027 -2.3384
   40MOL0     H 5343   1.035  11.290   2.571 -2.4300  0.3905 -1.3138
   40MOL0     H 5344   1.136  11.180   2.469  4.2861  1.3078 -0.3493
   40MOL0     H 5345   1.233  11.369   2.369  0.9952  0.9486  0.5530
   40MOL0     H 5346   1.115  11.490   2.428 -0.4274  0.0469 -0.0890
   40MOL0     H 5347   1.205  11.453   2.644 -0.4066  1.8184 -0.9063
   40MOL0     H 5348   1.319  11.520   2.531  0.4384 -0.1346 -0.6178
   40MOL0     H 5349   1.431  11.341   2.673  0.8654 -3.6386  1.5241
   40MOL0     H 5350   1.314  11.221   2.612 -2.4312  0.8964 -1.5407
   40MOL0     H 5351   1.637  11.393   2.542 -1.0329 -2.1396  3.0435
   40MOL0     H 5352   1.827  11.196   2.268  2.8198  2.0152 -0.7417
   40MOL0     H 5353   1.775  11.361   2.261  2.2677  0.1003 -0.3268
   40MOL0     H 5354   1.842  11.379   2.516 -1.9021  0.5407  0.0051
   40MOL0     H 5355   1.889  11.208   2.515  0.3410  1.0587  1.5634
   40MOL0     H 5356   2.013  11.415   2.325  0.7901  1.2532  0.5604
   40MOL0     H 5357   2.067  11.257   2.343  0.7153  0.2751  0.3249
   40MOL0     H 5358   2.108  11.321   2.596 -0.0503 -0.9748 -0.9509
   40MOL0     H 5359   2.078  11.488   2.540 -0.4426 -0.2330  1.1054
   40MOL0     H 5360   2.283  11.158   2.595  0.4089 -0.1288 -0.6628
   40MOL0     H 5361   2.433  10.982   2.524 -4.0074 -0.4759 -0.6664
   40MOL0     H 5362   2.722  10.822   2.091  0.4874 -0.2537 -1.5400
   40MOL0     H 5363   2.900  10.696   2.033  0.6549  0.2053 -1.1096
   40MOL0     H 5364   3.078  10.574   1.984 -0.7744 -0.4929 -0.3269
   40MOL0     H 5365   3.107  10.707   1.877 -0.5395 -0.7858  0.0776
   40MOL0     H 5366   3.329  10.571   2.028  0.1081  2.2216  0.8325
   40MOL0     H 5367   3.279  10.515   1.866 -2.7223  1.2562 -1.2502
   40MOL0     H 5368   3.353  10.728   1.770  0.8140  1.6303 -0.9714
   40MOL0     H 5369   3.384  10.798   1.929 -2.3080 -0.6678  1.2695
   40MOL0     H 5370   3.534  10.582   1.753  1.2158 -1.4541 -0.1988
   40MOL0     H 5371   3.561  10.576   1.926 -2.1934  1.4443  1.3981
   40MOL0     H 5372   3.657  10.774   1.949 -1.8760 -2.5101 -0.2791
   40MOL0     H 5373   3.591  10.845   1.798  1.4908  0.3525 -0.2909
   40MOL0     H 5374   3.786  10.624   1.803 -2.7164 -1.4968 -0.9678
   40MOL0     H 5375   3.722  10.710   1.661 -1.8144  0.6780  0.1505
   40MOL0     H 5376   3.871  10.863   1.859  3.6148 -2.8123 -0.4989
   40MOL0     H 5377   3.804  10.923   1.718 -1.4920  0.7284  1.4423
   40MOL0     H 5378   4.043  10.721   1.731  2.0909  1.5923 -1.5883
   40MOL0     H 5379   3.934  10.738   1.588  0.5069  1.2956 -1.5879
   40MOL0     H 5380   3.162  10.949   2.266 -0.2931  0.0556 -0.5265
   40MOL0     H 5381   2.985  11.069   2.332  1.2416  1.3031 -2.7297
   40MOL0     H 5382   2.607  11.252   2.232 -0.1958  2.0801 -0.1300
   40MOL0     H 5383   2.420  11.388   2.268 -1.0822 -0.5120  0.0295
   40MOL0     H 5384   0.628  10.966   2.747 -1.1552  0.2990  2.4282
   40MOL0     H 5385   0.457  10.845   2.892  2.9539 -2.1899 -1.9855
   40MOL0     H 5386   0.017  11.090   3.074  2.1147 -1.5802 -0.5156
   40MOL0     H 5387  -0.202  11.061   3.166 -1.7737 -1.2065  0.2692
   40MOL0     H 5388  -0.483  10.927   3.289 -0.0245  0.1181 -0.0797
   40MOL0     H 5389  -0.318  10.885   3.315  1.2258  0.5520 -1.1847
   40MOL0     H 5390  -0.454  10.703   3.409  1.2228  0.7024  0.5726
   40MOL0     H 5391  -0.343  10.662   3.281 -0.2232 -0.0453  1.8541
   40MOL0     H 5392  -0.549  10.532   3.234  0.1063 -0.4476 -0.3785
   40MOL0     H 5393  -0.561  10.657   3.118 -1.8970  1.8807  0.2235
   40MOL0     H 5394  -0.703  10.687   3.383  0.5935  0.4181 -0.4892
   40MOL0     H 5395  -0.694  10.791   3.235  1.5169 -0.5014 -0.9953
   40MOL0     H 5396  -0.964  10.460   3.155 -0.2158 -0.9577 -0.3958
   40MOL0     H 5397  -0.263  10.696   2.965 -0.0164 -0.3000  0.5564
   40MOL0     H 5398   0.055  10.654   2.820  0.5609 -0.5194 -3.0325
   40MOL0     H 5399  -0.122  10.640   2.779  0.5671  0.8677 -1.8391
   40MOL0     H 5400  -0.011  10.761   2.709 -1.4498 -0.7386 -2.9242
   41MOL0     O 5401   5.752   1.518   1.841  0.0497  0.4359 -0.3300
   41MOL0     C 5402   5.803   1.405   1.854 -0.7106  0.6024  0.4207
   41MOL0     O 5403   5.737   1.286   1.851  0.1279  0.1951 -0.4129
   41MOL0     C 5404   5.598   1.284   1.869 -0.9974  0.2674 -0.6907
   41MOL0     C 5405   5.535   1.164   1.830 -0.0120  0.4579  0.1259
   41MOL0     C 5406   5.400   1.135   1.860  0.2016 -0.7835 -0.3913
   41MOL0     C 5407   5.325   1.243   1.929  0.4624 -0.6649 -0.5187
   41MOL0     O 5408   5.194   1.240   1.969 -0.1339 -1.0053 -0.4369
   41MOL0     C 5409   5.132   1.105   1.969  0.2260  0.1717 -0.2247
   41MOL0     C 5410   5.164   1.021   2.092 -0.3749  0.1788 -0.1871
   41MOL0     C 5411   5.176   0.868   2.056  1.0808  0.1675 -0.8867
   41MOL0     C 5412   5.217   0.779   2.178 -0.7537 -0.4394 -0.0679
   41MOL0     C 5413   5.154   0.642   2.190  0.0950  0.4780  0.5288
   41MOL0     C 5414   5.211   0.536   2.089  0.3696 -1.1746 -0.0802
   41MOL0     C 5415   5.119   0.417   2.058 -0.4242 -0.6270 -0.1522
   41MOL0     C 5416   5.177   0.319   1.950  0.1669  0.4960 -0.3540
   41MOL0     N 5417   5.154   0.360   1.815  0.7082 -0.1917 -0.1704
   41MOL0     C 5418   5.225   0.456   1.739 -0.7619  0.6045  0.4602
   41MOL0     C 5419   5.170   0.456   1.617  0.3848  0.0402  0.0376
   41MOL0     C 5420   5.221   0.552   1.505  0.3746  0.7422 -0.6554
   41MOL0     C 5421   5.359   0.511   1.457  0.1309 -1.2205 -0.5620
   41MOL0     C 5422   5.419   0.623   1.373  0.3591  0.0121 -0.1084
   41MOL0     C 5423   5.495   0.728   1.449  0.3918 -0.3509 -0.8714
   41MOL0     O 5424   5.589   0.656   1.542  0.2175  0.3563 -0.2852
   41MOL0     C 5425   5.713   0.711   1.563 -0.2653  0.1373  0.1982
   41MOL0     C 5426   5.802   0.620   1.630 -0.2415  1.1189 -0.6160
   41MOL0     C 5427   5.933   0.659   1.661  0.1492 -0.5133  0.1591
   41MOL0     C 5428   5.984   0.777   1.611  0.9933 -0.6459  0.3507
   41MOL0     C 5429   6.122   0.824   1.626 -0.5564 -0.4826 -0.2983
   41MOL0     O 5430   6.219   0.733   1.665  0.0760 -0.1510  0.0632
   41MOL0     C 5431   6.345   0.771   1.709  0.5405  0.7374 -0.3666
   41MOL0     C 5432   6.443   0.671   1.708  0.0951  0.4358 -0.1343
   41MOL0     C 5433   6.571   0.703   1.742  0.4143  0.5825 -0.2044
   41MOL0     C 5434   6.608   0.829   1.796  0.9927  0.8313  0.4594
   41MOL0     O 5435   6.737   0.849   1.821 -0.2944 -0.6640 -0.1478
   41MOL0     C 5436   6.795   0.976   1.777  0.5323 -0.2053 -0.4495
   41MOL0     C 5437   6.935   0.970   1.719 -1.1224 -0.0456  0.7439
   41MOL0     C 5438   6.997   1.110   1.692 -0.2431  0.0382 -0.9402
   41MOL0     C 5439   7.144   1.093   1.652  1.5539 -0.0626 -0.7708
   41MOL0     C 5440   7.186   1.232   1.601  0.4122  0.1357 -0.6588
   41MOL0     C 5441   7.300   1.209   1.511 -0.7988  0.3291 -0.3360
   41MOL0     C 5442   7.342   1.344   1.456 -0.2664 -0.1639  0.3374
   41MOL0     C 5443   7.464   1.330   1.360  0.7320 -0.1439 -0.5577
   41MOL0    Cl 5444   7.421   1.240   1.213 -0.0580 -0.1856  0.2743
   41MOL0     C 5445   6.503   0.921   1.818  0.1691 -0.4432 -0.1857
   41MOL0     C 5446   6.370   0.901   1.771 -0.3251 -0.0816 -0.0142
   41MOL0     O 5447   6.143   0.943   1.605 -0.2095  0.5721 -0.1407
   41MOL0     C 5448   5.894   0.870   1.552  1.0192  0.1936 -1.3373
   41MOL0     C 5449   5.758   0.836   1.535 -0.1524  0.1955  0.7677
   41MOL0     N 5450   5.062   0.377   1.619 -0.0341 -0.9116  0.1925
   41MOL0     N 5451   5.058   0.311   1.733 -0.2251  1.0748 -0.4406
   41MOL0     C 5452   5.390   1.362   1.968  0.2190 -0.2086 -0.1220
   41MOL0     C 5453   5.530   1.372   1.948  0.4249 -0.5447  0.6226
   41MOL0     C 5454   5.953   1.395   1.861  0.0096 -0.6744 -0.1511
   41MOL0     C 5455   6.024   1.509   1.831 -0.5422 -0.0598 -0.3031
   41MOL0     C 5456   6.164   1.500   1.820 -1.0543  0.2925 -0.1851
   41MOL0     C 5457   6.240   1.392   1.852  0.0934  0.3901 -0.2480
   41MOL0     O 5458   6.377   1.375   1.841 -0.2660  0.5330  0.3314
   41MOL0     C 5459   6.477   1.478   1.806 -0.1857 -0.3147 -0.7982
   41MOL0     C 5460   6.612   1.419   1.829  0.6833  0.9895 -0.3187
   41MOL0     C 5461   6.722   1.529   1.807  0.1383 -0.4883 -0.6349
   41MOL0     C 5462   6.858   1.463   1.824 -0.4406  0.0905  0.4190
   41MOL0     C 5463   6.964   1.554   1.787 -0.2659 -0.0955 -0.8851
   41MOL0     C 5464   7.044   1.636   1.761 -0.7823 -0.4369 -0.7397
   41MOL0     C 5465   6.166   1.277   1.891  0.1568  0.3213 -0.3975
   41MOL0     C 5466   6.023   1.272   1.882 -0.3264  0.3341 -0.0512
   41MOL0     C 5467   5.956   1.134   1.913 -0.2245  0.0228  1.2800
   41MOL0     H 5468   5.572   1.079   1.773  0.6421 -0.6934  2.1600
   41MOL0     H 5469   5.354   1.040   1.835  0.0239 -1.2382  1.4814
   41MOL0     H 5470   5.026   1.125   1.953  0.1750 -0.0769 -0.1967
   41MOL0     H 5471   5.161   1.048   1.881  0.8413  0.7213 -0.3877
   41MOL0     H 5472   5.097   1.033   2.177  0.9140 -0.8865  1.0284
   41MOL0     H 5473   5.259   1.049   2.138 -0.4681 -0.9435  0.7389
   41MOL0     H 5474   5.257   0.854   1.985  1.3165 -0.8277 -0.4352
   41MOL0     H 5475   5.082   0.827   2.018 -1.0770  0.2863  3.6054
   41MOL0     H 5476   5.325   0.762   2.175 -0.4116  1.0169  2.1855
   41MOL0     H 5477   5.201   0.839   2.268 -1.0408  0.1805 -0.5241
   41MOL0     H 5478   5.186   0.615   2.291  1.8513  2.5465  0.5888
   41MOL0     H 5479   5.045   0.645   2.187  0.0525 -0.8466 -0.1327
   41MOL0     H 5480   5.232   0.594   1.999  0.3015  0.7103  1.0818
   41MOL0     H 5481   5.307   0.502   2.129 -1.2027 -2.7184  2.6805
   41MOL0     H 5482   5.015   0.431   2.026  0.2794 -2.5173 -3.7978
   41MOL0     H 5483   5.110   0.360   2.151 -0.3419  2.7166  2.0695
   41MOL0     H 5484   5.280   0.291   1.971  0.0411  0.1741 -0.1627
   41MOL0     H 5485   5.130   0.221   1.966 -0.6687  1.1269  1.2319
   41MOL0     H 5486   5.312   0.517   1.765 -0.5685  0.9466 -0.9302
   41MOL0     H 5487   5.151   0.550   1.421 -1.4322 -0.4977  0.8038
   41MOL0     H 5488   5.220   0.653   1.548 -0.1643  1.2138 -1.7314
   41MOL0     H 5489   5.424   0.479   1.538  1.5797 -0.9840 -1.5892
   41MOL0     H 5490   5.353   0.436   1.377  1.8229 -0.5022 -1.4314
   41MOL0     H 5491   5.337   0.662   1.312 -0.8029 -0.6946  0.9590
   41MOL0     H 5492   5.492   0.580   1.304  0.4943 -2.4898  1.4495
   41MOL0     H 5493   5.435   0.804   1.499 -1.2056 -1.0012 -1.7111
   41MOL0     H 5494   5.552   0.787   1.376  4.3108 -0.6889  1.6252
   41MOL0     H 5495   5.792   0.515   1.656  2.2920  1.1635  0.8679
   41MOL0     H 5496   5.999   0.583   1.703 -0.2876  0.4740  2.8462
   41MOL0     H 5497   6.428   0.574   1.663  2.2728 -0.0460  0.0380
   41MOL0     H 5498   6.639   0.618   1.749 -0.4670 -0.0638  0.8253
   41MOL0     H 5499   6.731   1.014   1.697  0.7100 -0.5611 -0.7646
   41MOL0     H 5500   6.794   1.047   1.860 -3.6617  2.6786 -2.5832
   41MOL0     H 5501   7.002   0.916   1.787 -0.4140  0.0051  0.0938
   41MOL0     H 5502   6.934   0.924   1.620 -2.7079  0.2980  0.5791
   41MOL0     H 5503   6.946   1.159   1.609  2.2063 -0.0543 -2.5994
   41MOL0     H 5504   6.981   1.170   1.782  1.5061 -0.4182 -0.2770
   41MOL0     H 5505   7.153   1.016   1.575 -3.0930 -1.2561 -0.4600
   41MOL0     H 5506   7.212   1.069   1.735  2.8388 -0.1647 -1.8203
   41MOL0     H 5507   7.213   1.299   1.683 -3.2387  2.4603 -1.1347
   41MOL0     H 5508   7.108   1.271   1.535  0.7096 -1.4845 -2.0289
   41MOL0     H 5509   7.383   1.159   1.562 -0.9432  0.5199  0.0844
   41MOL0     H 5510   7.260   1.153   1.425 -1.8901 -0.3322  0.5835
   41MOL0     H 5511   7.379   1.412   1.532  0.8530  0.0454 -0.3779
   41MOL0     H 5512   7.254   1.400   1.421 -1.8577  0.1159  4.2672
   41MOL0     H 5513   7.504   1.429   1.337  0.4349  0.3695  0.9862
   41MOL0     H 5514   7.544   1.278   1.415 -0.7993  0.5878  2.5940
   41MOL0     H 5515   6.523   1.019   1.859 -0.8610 -0.2885 -0.0279
   41MOL0     H 5516   6.295   0.978   1.783 -0.8034 -0.4184 -0.7228
   41MOL0     H 5517   5.930   0.971   1.538  1.6084  0.2793  0.5683
   41MOL0     H 5518   5.693   0.905   1.482 -1.1174  0.6546  2.4498
   41MOL0     H 5519   5.333   1.440   2.017 -0.3933  0.7339 -2.2119
   41MOL0     H 5520   5.588   1.455   1.987 -1.6380  1.1150  0.3375
   41MOL0     H 5521   5.980   1.606   1.810 -1.8453 -0.4661  0.4533
   41MOL0     H 5522   6.217   1.581   1.770  0.2275  1.4035  2.7267
   41MOL0     H 5523   6.469   1.561   1.877  2.4451  0.1886 -0.9656
   41MOL0     H 5524   6.474   1.515   1.703 -1.8627  1.9852  0.0006
   41MOL0     H 5525   6.632   1.336   1.761 -0.7814  1.1066 -0.9273
   41MOL0     H 5526   6.617   1.379   1.931  1.8395  1.9384  0.0283
   41MOL0     H 5527   6.711   1.612   1.878 -0.3583 -0.8023 -0.3386
   41MOL0     H 5528   6.713   1.555   1.701  0.1819  0.0614 -0.5065
   41MOL0     H 5529   6.883   1.413   1.918  1.1372  0.4848  0.2289
   41MOL0     H 5530   6.873   1.387   1.746  1.4918  0.3006  0.5447
   41MOL0     H 5531   7.123   1.705   1.739 -2.1747  1.7530  0.6854
   41MOL0     H 5532   6.216   1.186   1.921  1.9328  1.1039 -0.8352
   41MOL0     H 5533   5.909   1.083   1.828  3.8199  0.7418 -1.6538
   41MOL0     H 5534   6.025   1.063   1.960  0.6939  0.0639  0.0387
   41MOL0     H 5535   5.872   1.143   1.984 -1.6424  0.5362 -0.4072
   42MOL0     O 5536  10.307   8.162   1.851 -0.2072  0.4480 -0.8528
   42MOL0     C 5537  10.304   8.125   1.735  0.2601  0.2826 -0.7347
   42MOL0     O 5538  10.407   8.092   1.663 -0.0895 -0.5101 -0.3091
   42MOL0     C 5539  10.524   8.052   1.725  1.0995  0.3505 -0.0939
   42MOL0     C 5540  10.631   8.033   1.642 -0.3205 -0.0897 -0.3045
   42MOL0     C 5541  10.753   7.985   1.689 -0.5092 -0.0327 -0.3194
   42MOL0     C 5542  10.775   7.961   1.827 -0.2815 -1.2713  0.4719
   42MOL0     O 5543  10.899   7.914   1.875 -0.5253  0.0998 -0.1997
   42MOL0     C 5544  11.015   7.919   1.788 -0.4690 -0.3839 -0.4235
   42MOL0     C 5545  11.131   7.885   1.881 -0.0419  0.4207  0.7803
   42MOL0     C 5546  11.272   7.899   1.814  0.5393 -1.5968  0.5066
   42MOL0     C 5547  11.398   7.853   1.900 -0.4511  0.2775 -1.2235
   42MOL0     C 5548  11.436   7.949   2.010  0.2769 -0.2010 -0.8645
   42MOL0     C 5549  11.533   7.869   2.101 -0.1898 -0.2928 -0.9309
   42MOL0     C 5550  11.607   7.943   2.219 -0.2334  0.0171 -0.9041
   42MOL0     C 5551  11.525   7.992   2.334 -0.2760  0.1693  0.3781
   42MOL0     N 5552  11.615   8.058   2.429 -0.5980 -0.6241 -0.3016
   42MOL0     C 5553  11.645   8.009   2.554 -0.6658  0.1284  0.8853
   42MOL0     C 5554  11.704   8.123   2.610 -0.4446 -0.3049 -0.1537
   42MOL0     C 5555  11.766   8.110   2.752  1.2656 -0.3745  0.3177
   42MOL0     C 5556  11.885   8.200   2.779 -0.9634  1.0442  0.6267
   42MOL0     C 5557  11.939   8.187   2.924 -0.1315  0.0454  0.2870
   42MOL0     C 5558  12.035   8.070   2.935 -0.8557  0.0212  0.5580
   42MOL0     O 5559  12.137   8.080   2.836  0.1974 -0.0700 -0.4884
   42MOL0     C 5560  12.245   8.159   2.854  0.1577  0.1983  0.1691
   42MOL0     C 5561  12.324   8.185   2.744 -0.2505 -0.0486  0.4324
   42MOL0     C 5562  12.442   8.251   2.764  0.3698  0.0861 -0.5524
   42MOL0     C 5563  12.493   8.286   2.887 -0.2770 -1.2897 -0.0845
   42MOL0     C 5564  12.613   8.374   2.894  0.4038 -0.1785  0.5376
   42MOL0     O 5565  12.695   8.387   2.785  0.4769  0.4732  0.1959
   42MOL0     C 5566  12.803   8.473   2.798 -0.4228 -0.3581 -0.3635
   42MOL0     C 5567  12.794   8.604   2.846  0.2656 -0.3698 -0.2098
   42MOL0     C 5568  12.909   8.689   2.879 -0.1086 -0.7967  1.2345
   42MOL0     C 5569  13.035   8.642   2.837 -0.6983 -0.3189 -0.0304
   42MOL0     O 5570  13.152   8.723   2.843 -0.2604 -0.1701  0.2963
   42MOL0     C 5571  13.282   8.664   2.829  0.5568 -0.5299 -0.6947
   42MOL0     C 5572  13.403   8.748   2.852 -0.2329 -0.4902 -0.1033
   42MOL0     C 5573  13.470   8.811   2.727  0.6673 -0.1189  0.5602
   42MOL0     C 5574  13.594   8.888   2.760 -0.1880 -0.7292 -0.8200
   42MOL0     C 5575  13.677   8.942   2.637  0.2968  0.8517 -0.1272
   42MOL0     C 5576  13.815   8.994   2.673 -0.1828  0.2599 -0.7460
   42MOL0     C 5577  13.827   9.135   2.716 -0.3546  0.7200 -0.2952
   42MOL0     C 5578  13.968   9.168   2.765  0.6018 -0.2303 -0.4475
   42MOL0    Cl 5579  13.946   9.301   2.875  0.1227 -0.2230  0.5310
   42MOL0     C 5580  13.047   8.504   2.806 -0.3258  0.3863  0.5533
   42MOL0     C 5581  12.933   8.422   2.778 -0.1179 -0.8044 -0.5713
   42MOL0     O 5582  12.627   8.432   3.005  0.8145  0.2421  0.5959
   42MOL0     C 5583  12.409   8.267   3.003 -0.2730 -0.2229  0.7599
   42MOL0     C 5584  12.286   8.202   2.982  0.3037 -0.2529  0.3574
   42MOL0     N 5585  11.701   8.233   2.515  0.2487  0.1797 -0.4974
   42MOL0     N 5586  11.647   8.191   2.408 -0.4692 -0.4459  1.2526
   42MOL0     C 5587  10.663   7.983   1.909 -0.2167 -0.2167  0.1498
   42MOL0     C 5588  10.545   8.027   1.864 -0.5764  0.5312 -0.9399
   42MOL0     C 5589  10.184   8.119   1.647  0.4649  0.1977 -0.2236
   42MOL0     C 5590  10.193   8.130   1.508  0.9177 -0.4393 -0.1236
   42MOL0     C 5591  10.082   8.143   1.435  0.7530  0.2318  0.5551
   42MOL0     C 5592   9.955   8.136   1.488 -0.1014  0.3308  0.8938
   42MOL0     O 5593   9.837   8.155   1.413  0.3283  0.0857  0.5380
   42MOL0     C 5594   9.822   8.095   1.287 -0.5728  0.6727 -0.1729
   42MOL0     C 5595   9.774   8.207   1.198  0.4344  1.2305  0.3607
   42MOL0     C 5596   9.620   8.223   1.204  0.6727  0.7857 -1.2620
   42MOL0     C 5597   9.579   8.287   1.333  0.3738  0.0348 -0.1455
   42MOL0     C 5598   9.435   8.315   1.341  0.4386 -0.0169 -0.5345
   42MOL0     C 5599   9.313   8.333   1.351 -0.1754 -0.3572  0.0576
   42MOL0     C 5600   9.943   8.127   1.627 -0.2667  0.8315  0.1172
   42MOL0     C 5601  10.055   8.121   1.706 -0.3449  0.0557 -0.6791
   42MOL0     C 5602  10.035   8.127   1.866 -0.9100  0.1242  0.2978
   42MOL0     H 5603  10.623   8.054   1.536  0.7171  1.3016 -0.1423
   42MOL0     H 5604  10.843   7.977   1.628  1.4141 -0.3761  2.3619
   42MOL0     H 5605  11.011   7.847   1.706 -2.0074 -0.8814  0.0435
   42MOL0     H 5606  11.029   8.020   1.748 -1.7733 -0.2185 -0.4965
   42MOL0     H 5607  11.123   7.777   1.898  0.3881  0.2915  0.2035
   42MOL0     H 5608  11.118   7.951   1.967  0.2459  0.8577  0.4947
   42MOL0     H 5609  11.281   8.004   1.784  0.4955 -1.2178  1.7466
   42MOL0     H 5610  11.271   7.845   1.720 -0.3077  1.0880 -1.1514
   42MOL0     H 5611  11.369   7.756   1.942 -1.1018  0.9364 -0.1124
   42MOL0     H 5612  11.488   7.829   1.843  0.1186  3.0404 -1.6240
   42MOL0     H 5613  11.487   8.036   1.967  1.7832 -0.3002  0.5815
   42MOL0     H 5614  11.356   7.988   2.073 -0.7974  0.0661 -2.3662
   42MOL0     H 5615  11.476   7.785   2.141 -2.5562  1.6062 -0.0164
   42MOL0     H 5616  11.611   7.831   2.035 -0.4171 -0.5119 -1.0778
   42MOL0     H 5617  11.658   8.033   2.184  2.2114 -1.7227 -2.0715
   42MOL0     H 5618  11.674   7.864   2.253  0.6230  0.2444 -2.0267
   42MOL0     H 5619  11.459   8.073   2.303  1.9259  0.7039 -3.5512
   42MOL0     H 5620  11.461   7.914   2.377  0.5260 -2.3907 -2.7496
   42MOL0     H 5621  11.635   7.909   2.594  0.9702 -2.4450 -4.2950
   42MOL0     H 5622  11.691   8.123   2.831  0.6094 -3.9364  0.4258
   42MOL0     H 5623  11.788   8.003   2.752 -3.7073 -1.6174 -0.9099
   42MOL0     H 5624  11.966   8.176   2.710 -0.6686 -0.3155  1.4056
   42MOL0     H 5625  11.849   8.303   2.770 -1.4931  0.8278  0.1874
   42MOL0     H 5626  11.856   8.171   2.994 -2.3326  2.2106 -1.6236
   42MOL0     H 5627  11.987   8.279   2.957 -0.5056 -0.3651  2.1030
   42MOL0     H 5628  11.986   7.980   2.898  0.6529 -0.5737 -0.0766
   42MOL0     H 5629  12.065   8.056   3.039 -0.9878  1.0713  0.7561
   42MOL0     H 5630  12.303   8.140   2.648 -1.2239 -0.8571  1.0111
   42MOL0     H 5631  12.502   8.252   2.674  3.7608  1.3871  1.5452
   42MOL0     H 5632  12.696   8.645   2.869  0.2024  0.7014 -2.2186
   42MOL0     H 5633  12.912   8.792   2.915 -1.0229 -1.1153  2.2733
   42MOL0     H 5634  13.285   8.588   2.908  2.0135  1.0069  0.8293
   42MOL0     H 5635  13.280   8.617   2.730 -2.8095  1.7741 -1.9010
   42MOL0     H 5636  13.360   8.832   2.907 -0.4676  0.2674 -1.4005
   42MOL0     H 5637  13.479   8.684   2.897  0.6822 -0.5838 -1.7077
   42MOL0     H 5638  13.510   8.730   2.665  3.0457  0.6127  1.0245
   42MOL0     H 5639  13.396   8.875   2.678  1.0884  0.2754  0.4306
   42MOL0     H 5640  13.660   8.823   2.817 -3.0319 -2.8187  0.3431
   42MOL0     H 5641  13.575   8.972   2.827  1.9089 -0.1053 -0.9340
   42MOL0     H 5642  13.606   9.012   2.590 -0.7383 -0.1104 -0.0498
   42MOL0     H 5643  13.699   8.858   2.571  2.0093  2.2674 -1.4481
   42MOL0     H 5644  13.857   8.928   2.749  0.5972  0.9111 -0.5922
   42MOL0     H 5645  13.888   8.977   2.593 -0.3240 -0.2690 -0.7632
   42MOL0     H 5646  13.750   9.161   2.789 -0.1783 -1.2365  0.6711
   42MOL0     H 5647  13.809   9.196   2.628 -1.9844 -1.1236 -1.3136
   42MOL0     H 5648  14.007   9.081   2.818 -0.1422  0.7709  1.8667
   42MOL0     H 5649  14.026   9.186   2.674 -2.7068 -1.0353 -2.9440
   42MOL0     H 5650  13.141   8.452   2.795 -0.2584  0.5755  0.1884
   42MOL0     H 5651  12.943   8.317   2.755 -2.1050 -0.9793 -0.8153
   42MOL0     H 5652  12.456   8.294   3.097  1.9612 -0.0555 -0.3456
   42MOL0     H 5653  12.225   8.188   3.071 -0.4198  1.1986  0.1159
   42MOL0     H 5654  10.672   7.977   2.017 -0.6729  3.0235  0.4523
   42MOL0     H 5655  10.472   8.033   1.944 -0.2264  1.4865 -0.6784
   42MOL0     H 5656  10.290   8.133   1.459  0.2624 -0.1564 -1.4365
   42MOL0     H 5657  10.097   8.174   1.332  1.6224 -1.4262  0.1529
   42MOL0     H 5658   9.755   8.009   1.285  0.7384 -0.3897 -1.9733
   42MOL0     H 5659   9.917   8.062   1.244 -0.1280  0.1725  1.1526
   42MOL0     H 5660   9.785   8.178   1.093  0.0552 -0.6758  0.8006
   42MOL0     H 5661   9.828   8.297   1.229 -0.1494  1.7096  0.0115
   42MOL0     H 5662   9.562   8.131   1.189  1.6723  0.2360 -1.8167
   42MOL0     H 5663   9.601   8.277   1.110 -1.9986 -0.0914 -1.3302
   42MOL0     H 5664   9.609   8.225   1.419 -0.5164 -0.7010 -0.3395
   42MOL0     H 5665   9.634   8.380   1.349  0.6433 -0.6388  4.2050
   42MOL0     H 5666   9.207   8.337   1.366 -0.5636 -2.8900 -1.4182
   42MOL0     H 5667   9.847   8.120   1.678 -0.2993  1.0710  0.0890
   42MOL0     H 5668   9.929   8.141   1.889 -1.0621  2.3432 -1.4501
   42MOL0     H 5669  10.081   8.038   1.912  0.2902  0.3929 -0.3452
   42MOL0     H 5670  10.081   8.218   1.904 -0.9116 -0.0011  0.6059
   43MOL0     O 5671   8.604   8.068   0.557  0.4791 -0.6426  0.3818
   43MOL0     C 5672   8.624   8.114   0.676 -0.7592 -0.5281  0.5402
   43MOL0     O 5673   8.715   8.059   0.768  0.4915  0.2239  0.0194
   43MOL0     C 5674   8.768   7.936   0.765 -0.2966  1.3520 -0.5764
   43MOL0     C 5675   8.895   7.918   0.831  0.6513 -0.0054  0.6299
   43MOL0     C 5676   8.960   7.796   0.830 -0.5650  0.6905 -0.9516
   43MOL0     C 5677   8.901   7.679   0.768 -0.4329  0.0690  0.4968
   43MOL0     O 5678   8.959   7.555   0.765  0.3907 -0.1928 -0.1361
   43MOL0     C 5679   9.061   7.517   0.867 -0.0748 -0.0127  0.1088
   43MOL0     C 5680   9.201   7.541   0.803 -0.0762  0.0328  0.9057
   43MOL0     C 5681   9.304   7.580   0.913  0.4831 -0.3403  0.3842
   43MOL0     C 5682   9.447   7.580   0.869 -0.9150 -0.6657 -0.2481
   43MOL0     C 5683   9.531   7.653   0.980  0.3429 -0.1651  0.5711
   43MOL0     C 5684   9.684   7.652   0.964  0.0196  0.1370  0.2803
   43MOL0     C 5685   9.761   7.688   1.088  0.0089  0.1878 -0.1329
   43MOL0     C 5686   9.906   7.712   1.042 -0.2243 -0.8697 -0.4904
   43MOL0     N 5687  10.014   7.724   1.151 -0.2261  0.1320  0.0736
   43MOL0     C 5688  10.001   7.686   1.275  0.2200 -0.5323 -0.8121
   43MOL0     C 5689  10.094   7.761   1.347 -1.3368  0.5651  0.1013
   43MOL0     C 5690  10.122   7.769   1.499  0.1799 -0.0392  0.5073
   43MOL0     C 5691  10.153   7.632   1.551  0.4016 -0.7392 -0.4887
   43MOL0     C 5692  10.304   7.594   1.542 -0.3476  0.6951  0.5739
   43MOL0     C 5693  10.395   7.642   1.651 -1.1953 -0.9965 -0.2614
   43MOL0     O 5694  10.514   7.555   1.653 -0.3311  0.3312  1.0806
   43MOL0     C 5695  10.611   7.568   1.745 -0.3691 -0.2371  0.0083
   43MOL0     C 5696  10.713   7.475   1.733  0.6767  0.1923 -0.0297
   43MOL0     C 5697  10.817   7.476   1.828  0.1226  0.0886 -0.5697
   43MOL0     C 5698  10.812   7.562   1.942 -0.4798 -0.4609 -0.4176
   43MOL0     C 5699  10.913   7.561   2.053 -1.7912  0.0413  0.2443
   43MOL0     O 5700  10.904   7.654   2.150  0.3190  0.0931 -0.3955
   43MOL0     C 5701  11.009   7.680   2.242 -0.5751 -0.0874  0.2574
   43MOL0     C 5702  10.972   7.729   2.367 -1.0916 -0.3113  0.3361
   43MOL0     C 5703  11.072   7.753   2.466  0.6388 -0.3023  0.7786
   43MOL0     C 5704  11.206   7.735   2.439 -0.1659 -0.1621 -0.0450
   43MOL0     O 5705  11.293   7.752   2.543  0.3570 -0.5752  0.1492
   43MOL0     C 5706  11.250   7.772   2.682 -0.5957 -0.4848  0.0261
   43MOL0     C 5707  11.379   7.764   2.772  0.0949  0.3465  0.3795
   43MOL0     C 5708  11.438   7.619   2.761 -0.6341 -0.2200 -0.4973
   43MOL0     C 5709  11.562   7.597   2.849  0.4217 -0.1875  0.3188
   43MOL0     C 5710  11.615   7.450   2.831 -0.6040 -0.6415  0.1650
   43MOL0     C 5711  11.741   7.430   2.913 -0.6778  0.2298  0.5488
   43MOL0     C 5712  11.763   7.279   2.963 -0.2953  0.0117  0.0374
   43MOL0     C 5713  11.876   7.277   3.072 -0.0797 -0.0945 -0.1384
   43MOL0    Cl 5714  12.042   7.317   3.003 -0.2421  0.0579  0.1915
   43MOL0     C 5715  11.245   7.697   2.314  0.6712 -0.0934  0.7643
   43MOL0     C 5716  11.146   7.665   2.212  0.1176  0.1398  0.0393
   43MOL0     O 5717  10.999   7.469   2.057 -0.2128  0.3161 -0.1196
   43MOL0     C 5718  10.703   7.656   1.949  0.1266  0.5356 -2.2139
   43MOL0     C 5719  10.606   7.661   1.859 -0.0161  0.5637  0.3595
   43MOL0     N 5720  10.174   7.811   1.248 -0.3446  1.0309 -0.1358
   43MOL0     N 5721  10.129   7.790   1.131  0.2638 -0.4629  0.4174
   43MOL0     C 5722   8.783   7.696   0.702 -0.2558  0.4260  0.2825
   43MOL0     C 5723   8.716   7.822   0.696 -0.0156  0.0205 -0.8589
   43MOL0     C 5724   8.570   8.251   0.709 -0.1237  0.4795  0.5020
   43MOL0     C 5725   8.666   8.344   0.734  0.3103 -0.2626 -1.1651
   43MOL0     C 5726   8.634   8.475   0.762 -0.1443 -0.0105 -0.1156
   43MOL0     C 5727   8.501   8.519   0.753 -0.0668 -0.0862 -0.4200
   43MOL0     O 5728   8.474   8.646   0.789  0.0348  0.8046  1.0281
   43MOL0     C 5729   8.377   8.714   0.718 -0.8281  0.3192 -0.0866
   43MOL0     C 5730   8.244   8.718   0.799  0.5370 -0.6174  0.1095
   43MOL0     C 5731   8.274   8.796   0.924 -0.6040 -0.4493  0.1405
   43MOL0     C 5732   8.145   8.799   1.016  0.4414  0.2524  0.1456
   43MOL0     C 5733   8.165   8.889   1.125  0.2239  0.0083  0.0026
   43MOL0     C 5734   8.181   8.967   1.218  0.6204 -1.3014  0.5666
   43MOL0     C 5735   8.397   8.430   0.723 -1.0013  0.3800  0.6560
   43MOL0     C 5736   8.439   8.296   0.701  0.0862  0.3263  0.4971
   43MOL0     C 5737   8.327   8.193   0.691  0.0612 -0.0570  0.1722
   43MOL0     H 5738   8.940   8.003   0.883  0.2497  1.7669 -1.7792
   43MOL0     H 5739   9.061   7.788   0.869 -0.9034 -2.3812 -0.4895
   43MOL0     H 5740   9.042   7.577   0.956  1.1961  1.6844 -0.6981
   43MOL0     H 5741   9.049   7.414   0.901 -0.7542  0.2401  0.6662
   43MOL0     H 5742   9.203   7.618   0.725 -1.1726 -1.0710 -0.2443
   43MOL0     H 5743   9.229   7.442   0.767  1.4874  1.4373 -2.1782
   43MOL0     H 5744   9.288   7.521   1.004 -1.9786  1.3896  1.1890
   43MOL0     H 5745   9.274   7.679   0.948 -0.7980 -1.1676  1.7768
   43MOL0     H 5746   9.490   7.479   0.872 -0.9901 -0.6682  2.1920
   43MOL0     H 5747   9.449   7.632   0.773 -0.4173 -0.2604 -0.0235
   43MOL0     H 5748   9.498   7.756   0.963 -1.4084 -0.3736  2.4545
   43MOL0     H 5749   9.503   7.618   1.079  0.9393 -1.9685  0.1336
   43MOL0     H 5750   9.719   7.552   0.937 -0.5312 -0.2676  1.0628
   43MOL0     H 5751   9.707   7.728   0.888 -3.2927  1.8484  0.8243
   43MOL0     H 5752   9.758   7.610   1.166  0.3626  0.6316  0.3313
   43MOL0     H 5753   9.726   7.775   1.144 -1.0603  0.9552 -1.9152
   43MOL0     H 5754   9.951   7.635   0.979 -0.0360 -1.2021  0.0404
   43MOL0     H 5755   9.921   7.801   0.981  1.0624 -1.4299 -1.0416
   43MOL0     H 5756   9.926   7.620   1.319 -0.5521  0.4093 -0.6734
   43MOL0     H 5757  10.206   7.835   1.522  0.4571  0.3087 -1.3238
   43MOL0     H 5758  10.028   7.807   1.542 -1.6628 -1.6186 -1.8329
   43MOL0     H 5759  10.116   7.619   1.653 -1.6080  0.0457 -1.0531
   43MOL0     H 5760  10.089   7.557   1.504 -0.3511 -0.5054  0.1284
   43MOL0     H 5761  10.342   7.621   1.443  1.4932 -0.4481  0.9363
   43MOL0     H 5762  10.296   7.486   1.548 -2.5244  0.8898  2.7670
   43MOL0     H 5763  10.350   7.624   1.749  1.3419 -2.8659  0.6588
   43MOL0     H 5764  10.431   7.745   1.652  1.4628 -1.8478  1.8309
   43MOL0     H 5765  10.717   7.413   1.645 -1.1131  0.7240 -0.5343
   43MOL0     H 5766  10.889   7.396   1.815 -1.4992 -1.4789 -0.1958
   43MOL0     H 5767  10.866   7.745   2.384 -1.9057 -1.1203 -3.2097
   43MOL0     H 5768  11.034   7.803   2.554 -0.2108  1.9410 -0.7528
   43MOL0     H 5769  11.203   7.870   2.694  1.6793  1.0258 -2.2815
   43MOL0     H 5770  11.186   7.694   2.723 -0.2963  0.0207  1.4877
   43MOL0     H 5771  11.455   7.839   2.746 -0.6924  0.9747 -0.1398
   43MOL0     H 5772  11.348   7.781   2.875 -1.2488  3.0726 -0.3770
   43MOL0     H 5773  11.357   7.554   2.796  1.1970 -1.4114  1.7555
   43MOL0     H 5774  11.470   7.596   2.659  1.2323 -1.9738  0.4056
   43MOL0     H 5775  11.538   7.625   2.952 -0.6386 -1.0859  0.3325
   43MOL0     H 5776  11.626   7.679   2.816 -0.3842 -0.3299 -1.7508
   43MOL0     H 5777  11.624   7.426   2.724 -2.2939 -1.6255  0.2138
   43MOL0     H 5778  11.539   7.379   2.865  0.7910 -2.2238  0.0983
   43MOL0     H 5779  11.822   7.473   2.855  0.2505  0.3603  1.8904
   43MOL0     H 5780  11.732   7.495   3.001 -0.7835  2.1374 -0.8218
   43MOL0     H 5781  11.791   7.206   2.887 -1.9338 -1.8456  1.1210
   43MOL0     H 5782  11.668   7.240   2.999 -0.7866 -0.2243 -1.4784
   43MOL0     H 5783  11.848   7.341   3.156  0.4678 -0.2634  0.1780
   43MOL0     H 5784  11.879   7.175   3.112 -2.0796 -0.5976 -1.1403
   43MOL0     H 5785  11.347   7.691   2.279  1.5625 -0.2322  3.2130
   43MOL0     H 5786  11.173   7.647   2.109 -2.0306 -0.2731 -0.5069
   43MOL0     H 5787  10.700   7.724   2.033  0.1018 -2.9726  0.8473
   43MOL0     H 5788  10.523   7.731   1.872 -3.1745 -2.7453 -0.3293
   43MOL0     H 5789   8.737   7.609   0.656 -2.0457  0.7351  1.3921
   43MOL0     H 5790   8.626   7.843   0.639 -0.1614  1.7733 -0.0456
   43MOL0     H 5791   8.766   8.304   0.747 -1.1922 -3.3609  2.4782
   43MOL0     H 5792   8.705   8.550   0.795 -1.5385  0.5274  1.8412
   43MOL0     H 5793   8.364   8.672   0.618  0.2744  0.1453 -0.1685
   43MOL0     H 5794   8.419   8.814   0.702 -0.6581  0.3084  0.2840
   43MOL0     H 5795   8.196   8.622   0.819 -0.1583 -0.9798 -2.8092
   43MOL0     H 5796   8.179   8.780   0.736  0.0477  1.4879  2.5029
   43MOL0     H 5797   8.295   8.900   0.899 -2.0198  0.0702  0.9451
   43MOL0     H 5798   8.358   8.764   0.986  0.1443  0.4087 -0.4061
   43MOL0     H 5799   8.056   8.842   0.967  0.6026 -0.8677 -1.1687
   43MOL0     H 5800   8.123   8.699   1.054  1.0112  0.9002  2.2895
   43MOL0     H 5801   8.203   9.029   1.303 -1.3708 -0.8185  0.7959
   43MOL0     H 5802   8.292   8.455   0.719 -0.6186  1.8775 -1.8951
   43MOL0     H 5803   8.323   8.142   0.788  0.4101 -2.0989 -0.8369
   43MOL0     H 5804   8.237   8.253   0.675  2.0935  2.4402 -3.1207
   43MOL0     H 5805   8.354   8.117   0.617  0.4051  1.4070 -1.2591
   44MOL0     O 5806  10.831   6.711   3.798 -0.1649 -0.0411  0.5398
   44MOL0     C 5807  10.930   6.735   3.733  0.8976 -0.8449  0.6673
   44MOL0     O 5808  11.049   6.758   3.788 -0.1162  0.0020 -0.0936
   44MOL0     C 5809  11.071   6.735   3.921  0.1890  0.0889 -0.3412
   44MOL0     C 5810  11.171   6.636   3.948 -0.2930  0.7949 -0.0070
   44MOL0     C 5811  11.235   6.623   4.073  0.8306 -0.1939 -0.0723
   44MOL0     C 5812  11.194   6.711   4.179  0.9339 -0.2206 -0.1304
   44MOL0     O 5813  11.242   6.715   4.304  1.1010  0.1296 -0.6029
   44MOL0     C 5814  11.357   6.631   4.336 -0.1094 -1.0092  0.2351
   44MOL0     C 5815  11.416   6.674   4.469  0.9855 -0.0238 -0.6339
   44MOL0     C 5816  11.501   6.797   4.471 -0.1187 -0.6824  0.1061
   44MOL0     C 5817  11.631   6.776   4.403  0.1405 -0.0437  0.4285
   44MOL0     C 5818  11.731   6.877   4.459  0.2648 -0.1819  0.1481
   44MOL0     C 5819  11.872   6.843   4.409 -0.1106 -0.3776 -0.4458
   44MOL0     C 5820  11.974   6.958   4.435  0.3183 -0.1180 -1.1587
   44MOL0     C 5821  12.110   6.924   4.375  0.5154  0.4905 -0.1280
   44MOL0     N 5822  12.187   7.041   4.400 -0.4535  0.4316 -0.4265
   44MOL0     C 5823  12.311   7.031   4.464 -0.6332  0.5844  0.1781
   44MOL0     C 5824  12.366   7.158   4.451 -0.1412  0.2978 -0.9612
   44MOL0     C 5825  12.486   7.193   4.531  0.5141 -0.0640 -0.1751
   44MOL0     C 5826  12.613   7.220   4.446  0.3196  0.4161 -0.5073
   44MOL0     C 5827  12.716   7.261   4.560  0.0624  0.3123  0.5424
   44MOL0     C 5828  12.845   7.314   4.493  0.6668 -0.0724 -0.6723
   44MOL0     O 5829  12.894   7.229   4.388  0.7516  0.0070 -0.3361
   44MOL0     C 5830  13.026   7.209   4.404  0.2810 -0.6781 -0.5997
   44MOL0     C 5831  13.120   7.308   4.414 -0.1056  0.5423  0.0953
   44MOL0     C 5832  13.250   7.275   4.453  0.2937  0.0035  0.7561
   44MOL0     C 5833  13.292   7.140   4.462  0.2438 -0.0301  0.3528
   44MOL0     C 5834  13.439   7.117   4.494 -0.2271  0.2048  1.1991
   44MOL0     O 5835  13.527   7.229   4.497 -0.3816 -0.1066 -0.2339
   44MOL0     C 5836  13.663   7.228   4.517 -0.1196 -0.0836  0.0180
   44MOL0     C 5837  13.724   7.347   4.501 -0.1897  0.3878  0.2343
   44MOL0     C 5838  13.862   7.357   4.510 -0.9287 -0.3120  0.2345
   44MOL0     C 5839  13.947   7.240   4.539  0.3168  0.0805 -0.3240
   44MOL0     O 5840  14.087   7.246   4.538 -0.5380  0.5292 -0.9555
   44MOL0     C 5841  14.160   7.352   4.467 -0.1975 -0.5997 -0.0923
   44MOL0     C 5842  14.195   7.470   4.560  0.5202 -0.4539 -0.1705
   44MOL0     C 5843  14.253   7.593   4.480  0.2005 -0.1849 -0.1777
   44MOL0     C 5844  14.344   7.694   4.554 -1.0962 -0.3010  0.2079
   44MOL0     C 5845  14.382   7.819   4.461  0.3752 -1.0599 -0.7365
   44MOL0     C 5846  14.510   7.885   4.522 -0.2656 -0.1396 -0.8452
   44MOL0     C 5847  14.521   8.027   4.467 -0.8502 -0.8308 -0.1791
   44MOL0     C 5848  14.621   8.112   4.545 -0.9503 -0.5290 -0.1861
   44MOL0    Cl 5849  14.792   8.056   4.529 -0.0611  0.2309 -0.5204
   44MOL0     C 5850  13.881   7.113   4.556  0.2757 -0.2363  0.2501
   44MOL0     C 5851  13.740   7.110   4.541 -0.4532 -0.1176 -0.6135
   44MOL0     O 5852  13.474   6.997   4.496 -0.2033  0.2307  0.0671
   44MOL0     C 5853  13.192   7.033   4.445 -0.1840 -0.3603 -0.6724
   44MOL0     C 5854  13.060   7.079   4.414 -0.4123  0.8758 -0.0059
   44MOL0     N 5855  12.277   7.230   4.368 -0.3495  0.0920 -0.1551
   44MOL0     N 5856  12.176   7.162   4.336  0.5633 -0.3274 -0.1390
   44MOL0     C 5857  11.085   6.802   4.152 -0.7151 -0.8196 -0.2187
   44MOL0     C 5858  11.030   6.815   4.023 -0.2476  0.5575 -0.3069
   44MOL0     C 5859  10.920   6.737   3.584  0.5162 -0.0431  0.0508
   44MOL0     C 5860  11.028   6.780   3.510  0.1831 -0.9019  0.0816
   44MOL0     C 5861  11.030   6.794   3.374  0.4547  1.1517  0.2468
   44MOL0     C 5862  10.910   6.768   3.303 -0.2637 -0.5409  0.1418
   44MOL0     O 5863  10.917   6.800   3.169  0.1524  0.5698 -0.4699
   44MOL0     C 5864  10.821   6.730   3.082 -0.4957 -0.4026  0.6762
   44MOL0     C 5865  10.869   6.741   2.936 -0.7965  0.1518 -0.1777
   44MOL0     C 5866  10.992   6.651   2.917  1.1387 -0.2137 -0.2521
   44MOL0     C 5867  11.046   6.670   2.774  0.1039  0.8143 -0.0293
   44MOL0     C 5868  11.182   6.611   2.767 -0.2075 -0.3153  0.0487
   44MOL0     C 5869  11.282   6.559   2.734  1.1321 -0.2983 -0.0915
   44MOL0     C 5870  10.799   6.733   3.380  0.5640 -0.8866  0.0647
   44MOL0     C 5871  10.798   6.720   3.517  0.1838 -1.0586  0.0266
   44MOL0     C 5872  10.661   6.694   3.586 -0.2158  0.0663  0.4331
   44MOL0     H 5873  11.207   6.581   3.862 -0.1661  0.6983  0.1072
   44MOL0     H 5874  11.317   6.552   4.080 -0.0142 -1.1750  0.0198
   44MOL0     H 5875  11.327   6.526   4.334  4.8009 -2.7068  0.9517
   44MOL0     H 5876  11.439   6.650   4.267  1.2595  3.6426  2.6814
   44MOL0     H 5877  11.474   6.591   4.510  0.5191 -0.8400 -1.5873
   44MOL0     H 5878  11.327   6.703   4.526  3.5463  2.1254  2.6243
   44MOL0     H 5879  11.528   6.822   4.574  0.3085  3.3010 -0.8089
   44MOL0     H 5880  11.453   6.883   4.424 -1.0958 -1.3306 -0.1041
   44MOL0     H 5881  11.659   6.670   4.411 -0.8606 -0.2153  2.2264
   44MOL0     H 5882  11.599   6.782   4.299  2.4105 -1.2877 -0.4165
   44MOL0     H 5883  11.711   6.982   4.435  0.4965  0.0648  0.9865
   44MOL0     H 5884  11.738   6.880   4.569  0.1046 -0.1473  0.1572
   44MOL0     H 5885  11.908   6.752   4.459  0.8782 -0.0805 -0.6011
   44MOL0     H 5886  11.866   6.814   4.304 -7.0735  0.3050 -0.7463
   44MOL0     H 5887  11.989   6.971   4.543  0.0688  0.7206 -1.2197
   44MOL0     H 5888  11.937   7.049   4.388 -1.2361  0.9207  1.7736
   44MOL0     H 5889  12.150   6.832   4.418 -1.9454  0.3038  2.0611
   44MOL0     H 5890  12.089   6.906   4.270 -1.1156  0.2069  0.2132
   44MOL0     H 5891  12.351   6.944   4.515 -3.2898 -1.8006 -1.4574
   44MOL0     H 5892  12.457   7.288   4.576  0.9623  1.1215 -2.2645
   44MOL0     H 5893  12.511   7.116   4.605  1.7314  0.2866 -0.1985
   44MOL0     H 5894  12.641   7.127   4.396  0.7173  0.7683 -0.9361
   44MOL0     H 5895  12.582   7.303   4.382  0.7784  0.6108 -0.4742
   44MOL0     H 5896  12.739   7.173   4.620 -2.3502  0.7539  2.2370
   44MOL0     H 5897  12.668   7.328   4.632 -4.1931 -0.7058 -1.0620
   44MOL0     H 5898  12.917   7.347   4.569 -0.0073  3.9815 -1.5690
   44MOL0     H 5899  12.832   7.411   4.443  3.2671  0.0322 -1.2988
   44MOL0     H 5900  13.089   7.412   4.411  0.4965  0.9494  3.4794
   44MOL0     H 5901  13.324   7.351   4.476  0.5272  0.1518 -0.3894
   44MOL0     H 5902  13.661   7.434   4.488  0.9064  0.9069 -2.1500
   44MOL0     H 5903  13.909   7.450   4.479 -2.2635 -0.2800 -1.8962
   44MOL0     H 5904  14.253   7.314   4.423  0.1046 -0.5241  0.4729
   44MOL0     H 5905  14.094   7.395   4.391  0.0902 -0.6115 -0.3522
   44MOL0     H 5906  14.100   7.487   4.610  1.9975  0.8080  2.3929
   44MOL0     H 5907  14.268   7.424   4.627 -0.4440 -2.7826 -0.6111
   44MOL0     H 5908  14.314   7.559   4.396  1.3733 -2.4723  1.4820
   44MOL0     H 5909  14.165   7.652   4.451 -0.2416 -1.8169 -2.5022
   44MOL0     H 5910  14.440   7.643   4.571 -0.0918  1.3374 -0.3448
   44MOL0     H 5911  14.297   7.728   4.646 -0.3058  2.2778 -0.2596
   44MOL0     H 5912  14.306   7.897   4.473  2.1957  1.5219 -3.9497
   44MOL0     H 5913  14.396   7.798   4.355  0.9716  1.6738 -1.2695
   44MOL0     H 5914  14.497   7.889   4.630 -1.3792 -1.4042 -0.9078
   44MOL0     H 5915  14.605   7.835   4.501 -0.6383 -2.1203  1.7291
   44MOL0     H 5916  14.427   8.082   4.456  0.6434  1.7005 -1.0458
   44MOL0     H 5917  14.568   8.027   4.368  2.3554 -0.1850  1.2232
   44MOL0     H 5918  14.607   8.213   4.506 -4.2810 -1.3101 -1.3002
   44MOL0     H 5919  14.595   8.116   4.651  2.1555 -0.6696  0.6763
   44MOL0     H 5920  13.932   7.021   4.582  0.1209  0.4340  3.1932
   44MOL0     H 5921  13.692   7.014   4.556 -0.1560  0.0258  1.6307
   44MOL0     H 5922  13.215   6.929   4.465 -0.0469 -0.3370 -0.7076
   44MOL0     H 5923  12.973   7.016   4.405 -1.0511  1.7622 -0.0933
   44MOL0     H 5924  11.051   6.854   4.241 -0.7648 -0.2620 -0.5629
   44MOL0     H 5925  10.958   6.890   3.991 -1.3451 -1.0431 -1.7871
   44MOL0     H 5926  11.126   6.788   3.556  0.4170 -3.4595  0.1517
   44MOL0     H 5927  11.113   6.828   3.313  1.2463 -0.1935  0.5274
   44MOL0     H 5928  10.723   6.776   3.099 -0.8360 -0.7618 -0.2662
   44MOL0     H 5929  10.809   6.623   3.099  2.6497 -1.0465 -0.5431
   44MOL0     H 5930  10.893   6.845   2.912 -0.1671 -0.2060 -1.1139
   44MOL0     H 5931  10.783   6.703   2.880 -0.6709 -1.5573  0.7275
   44MOL0     H 5932  10.974   6.544   2.931 -1.0731  0.0481 -0.6935
   44MOL0     H 5933  11.067   6.679   2.992  2.1133 -2.4206 -0.3421
   44MOL0     H 5934  10.985   6.626   2.695  0.7932 -2.3655  1.0496
   44MOL0     H 5935  11.043   6.778   2.759 -2.4878  0.8221  0.0784
   44MOL0     H 5936  11.373   6.506   2.715 -0.5715 -2.8882 -1.8011
   44MOL0     H 5937  10.706   6.720   3.326 -0.8274  3.4903  0.9803
   44MOL0     H 5938  10.583   6.685   3.509  0.3403 -0.4137 -0.0914
   44MOL0     H 5939  10.663   6.601   3.644 -0.2781  1.0351  2.0406
   44MOL0     H 5940  10.629   6.777   3.648 -2.2715 -1.8089  2.0421
   45MOL0     O 5941   5.016   1.546   1.143 -0.0205  0.2090  0.2153
   45MOL0     C 5942   4.977   1.432   1.143  0.6467  0.5372  0.3578
   45MOL0     O 5943   5.040   1.325   1.088 -0.1363  0.0811  0.9328
   45MOL0     C 5944   5.167   1.343   1.038 -0.4237  0.2902  1.0656
   45MOL0     C 5945   5.278   1.340   1.113 -0.0793  0.6408 -0.0749
   45MOL0     C 5946   5.400   1.350   1.057 -0.6936 -0.4069  0.4817
   45MOL0     C 5947   5.423   1.362   0.918  0.0845 -0.6239  0.0978
   45MOL0     O 5948   5.546   1.382   0.878 -0.2205  0.2332 -0.7052
   45MOL0     C 5949   5.606   1.304   0.773  0.0411 -0.3350  0.4168
   45MOL0     C 5950   5.759   1.302   0.763 -0.5364 -0.3395  0.6188
   45MOL0     C 5951   5.831   1.271   0.893  1.0748 -0.1858 -0.3198
   45MOL0     C 5952   5.989   1.243   0.871 -0.2801  0.0970 -0.7641
   45MOL0     C 5953   6.085   1.267   0.981 -0.0351 -1.0899  0.3209
   45MOL0     C 5954   6.058   1.187   1.113  0.3679  1.7935 -0.3907
   45MOL0     C 5955   6.105   1.043   1.096 -0.4426  0.7898 -0.9192
   45MOL0     C 5956   6.080   0.968   1.223 -0.0496  0.2647 -0.3384
   45MOL0     N 5957   6.139   0.835   1.225  0.4181  0.3277 -0.2612
   45MOL0     C 5958   6.260   0.797   1.286  0.1114 -0.5361 -0.0827
   45MOL0     C 5959   6.280   0.667   1.259 -0.4029  0.8228 -0.1814
   45MOL0     C 5960   6.402   0.589   1.294  1.1403  0.2599  0.1409
   45MOL0     C 5961   6.488   0.576   1.167 -0.7434 -0.4879 -0.0593
   45MOL0     C 5962   6.545   0.697   1.092  0.7120 -0.0579 -0.2152
   45MOL0     C 5963   6.688   0.728   1.116  0.5035  0.1256 -1.7613
   45MOL0     O 5964   6.701   0.731   1.261  0.0021 -0.3624  0.9801
   45MOL0     C 5965   6.815   0.699   1.325 -0.5892 -0.3189 -0.0975
   45MOL0     C 5966   6.940   0.703   1.260 -0.3453  0.7497  0.3901
   45MOL0     C 5967   7.057   0.656   1.319  0.1641 -0.4210  0.3868
   45MOL0     C 5968   7.057   0.604   1.451  0.4440 -0.3102 -0.3478
   45MOL0     C 5969   7.174   0.544   1.517 -0.1782  0.4516 -0.3818
   45MOL0     O 5970   7.159   0.485   1.642 -0.8240 -0.6239  0.0076
   45MOL0     C 5971   7.260   0.412   1.679 -0.6254 -0.1727 -0.3147
   45MOL0     C 5972   7.311   0.307   1.610  0.2902 -0.1219  0.3188
   45MOL0     C 5973   7.414   0.225   1.667  0.4067 -0.8241 -0.4912
   45MOL0     C 5974   7.473   0.250   1.791  0.0235 -0.4077 -0.3511
   45MOL0     O 5975   7.571   0.166   1.845  0.0272  0.0987  0.4500
   45MOL0     C 5976   7.568   0.130   1.989 -0.4099 -0.0820  0.5631
   45MOL0     C 5977   7.691   0.048   2.026 -0.8521 -0.1270 -0.2583
   45MOL0     C 5978   7.817   0.135   2.011  0.7337  0.3246 -0.6420
   45MOL0     C 5979   7.939   0.043   2.038 -0.3977 -0.0178  0.6667
   45MOL0     C 5980   8.064   0.110   2.015  0.3903 -0.7954 -0.5316
   45MOL0     C 5981   8.178   0.013   2.010 -0.2255 -0.0305  0.3610
   45MOL0     C 5982   8.314   0.073   1.962 -1.0338 -0.4031  0.0889
   45MOL0     C 5983   8.397  -0.041   1.911 -0.9386  0.6997  0.0114
   45MOL0    Cl 5984   8.561   0.002   1.868  0.0048  0.2053  0.2413
   45MOL0     C 5985   7.424   0.364   1.860 -0.7394 -0.0599  0.7110
   45MOL0     C 5986   7.317   0.438   1.807 -0.1390 -1.1172  1.7920
   45MOL0     O 5987   7.281   0.545   1.452  0.3756  0.1590 -0.7090
   45MOL0     C 5988   6.930   0.606   1.519 -0.7300  0.2395 -0.3030
   45MOL0     C 5989   6.806   0.643   1.454 -1.1615 -0.0331 -0.5791
   45MOL0     N 5990   6.174   0.627   1.187  0.2233 -0.0490 -0.0787
   45MOL0     N 5991   6.094   0.721   1.167  0.4493  0.0887 -0.5124
   45MOL0     C 5992   5.306   1.368   0.841 -0.8882 -0.2560  0.1471
   45MOL0     C 5993   5.182   1.360   0.899  0.5896  0.1945  0.5640
   45MOL0     C 5994   4.856   1.398   1.221  0.0403  0.1219 -0.0145
   45MOL0     C 5995   4.845   1.258   1.256 -0.2057 -0.1108  0.2387
   45MOL0     C 5996   4.750   1.211   1.338  0.4454  0.8726 -0.0930
   45MOL0     C 5997   4.662   1.298   1.393  0.2720 -0.3636 -0.8179
   45MOL0     O 5998   4.571   1.239   1.481  0.4358 -0.4173 -0.5042
   45MOL0     C 5999   4.454   1.320   1.500  0.6060  0.9207 -1.3835
   45MOL0     C 6000   4.342   1.250   1.584 -0.5414 -0.9188  0.7133
   45MOL0     C 6001   4.285   1.124   1.500 -0.3710  0.3449  0.1053
   45MOL0     C 6002   4.180   1.165   1.395 -0.5561  0.7078  0.3348
   45MOL0     C 6003   4.056   1.199   1.452  0.7011 -0.0708 -0.3018
   45MOL0     C 6004   3.956   1.231   1.518 -0.8786  0.0967 -0.1478
   45MOL0     C 6005   4.675   1.435   1.370  0.4020 -0.1290 -1.0254
   45MOL0     C 6006   4.763   1.487   1.275  0.1663 -1.3038  0.1637
   45MOL0     C 6007   4.745   1.636   1.228  0.9150  0.1074 -0.9013
   45MOL0     H 6008   5.262   1.323   1.219 -0.8069 -1.7924 -0.5096
   45MOL0     H 6009   5.487   1.335   1.119 -1.0994 -0.3411  1.0758
   45MOL0     H 6010   5.571   1.201   0.782  0.2221 -0.4277  0.0669
   45MOL0     H 6011   5.569   1.346   0.679 -0.4898  4.6540  2.5513
   45MOL0     H 6012   5.789   1.406   0.748  1.1443 -0.8485  0.1861
   45MOL0     H 6013   5.788   1.241   0.677  0.6920  0.5419  0.3816
   45MOL0     H 6014   5.780   1.179   0.923  2.4263 -0.6337  0.7284
   45MOL0     H 6015   5.816   1.345   0.973 -1.4256 -0.2476 -0.6572
   45MOL0     H 6016   6.007   1.144   0.829  2.5400  0.4886 -0.6752
   45MOL0     H 6017   6.013   1.308   0.787 -0.6199 -1.5720 -2.1998
   45MOL0     H 6018   6.190   1.266   0.948 -0.0857  0.5932  0.0319
   45MOL0     H 6019   6.077   1.376   0.988  2.9835 -0.4015 -3.4249
   45MOL0     H 6020   6.129   1.228   1.186  0.4517  0.7127  0.1551
   45MOL0     H 6021   5.956   1.192   1.152  0.6691 -1.3817  1.1165
   45MOL0     H 6022   6.209   1.025   1.066  0.5667  3.1757  0.8738
   45MOL0     H 6023   6.062   0.989   1.011  4.3755 -1.5226 -2.3066
   45MOL0     H 6024   6.108   1.030   1.309  0.0040  0.7151 -0.6775
   45MOL0     H 6025   5.971   0.965   1.233 -0.3322 -1.8697 -2.9694
   45MOL0     H 6026   6.330   0.870   1.326  0.0983 -0.7895  0.4194
   45MOL0     H 6027   6.444   0.636   1.384 -3.9208 -0.2793  3.1617
   45MOL0     H 6028   6.374   0.487   1.323  3.6311 -0.5187  0.0711
   45MOL0     H 6029   6.573   0.510   1.189  0.6523  1.8775  2.2029
   45MOL0     H 6030   6.427   0.520   1.096 -0.6356 -0.0778 -0.4803
   45MOL0     H 6031   6.491   0.787   1.121  1.7018  1.0027 -1.5291
   45MOL0     H 6032   6.535   0.669   0.986  0.8585 -1.0031  0.0091
   45MOL0     H 6033   6.710   0.830   1.080 -1.0458  1.2067  0.1738
   45MOL0     H 6034   6.759   0.651   1.085 -0.8414 -2.9565  2.1338
   45MOL0     H 6035   6.948   0.751   1.163  0.3346  1.6457  0.8729
   45MOL0     H 6036   7.152   0.659   1.267  1.4657  2.8768  2.6504
   45MOL0     H 6037   7.277   0.285   1.510  0.0798  0.2769  0.3019
   45MOL0     H 6038   7.448   0.134   1.620  1.8063 -2.1453  2.7748
   45MOL0     H 6039   7.563   0.217   2.055  0.3744  0.5980 -0.2527
   45MOL0     H 6040   7.485   0.060   2.003 -0.9498 -0.0646 -2.0509
   45MOL0     H 6041   7.686   0.021   2.131 -2.5511 -0.8648 -0.4964
   45MOL0     H 6042   7.692  -0.046   1.969 -0.6560 -0.8100  0.8508
   45MOL0     H 6043   7.817   0.173   1.909  0.1483  1.4997 -0.2247
   45MOL0     H 6044   7.818   0.227   2.070  0.9702  0.2253 -0.4844
   45MOL0     H 6045   7.926  -0.033   1.960 -1.3188  0.8148 -0.0264
   45MOL0     H 6046   7.922  -0.001   2.136  4.9820 -0.4946  1.6867
   45MOL0     H 6047   8.087   0.184   2.092 -1.5130  1.7551 -2.2428
   45MOL0     H 6048   8.062   0.164   1.920 -1.6935  0.0671 -0.0748
   45MOL0     H 6049   8.189  -0.024   2.113 -1.6062 -2.1855 -0.1910
   45MOL0     H 6050   8.157  -0.071   1.944  0.0600  0.8909 -0.9393
   45MOL0     H 6051   8.360   0.117   2.051 -0.9606  1.4128 -0.8064
   45MOL0     H 6052   8.302   0.145   1.882 -0.0290 -0.5219 -0.1804
   45MOL0     H 6053   8.402  -0.122   1.985  1.5664 -0.1791 -1.0071
   45MOL0     H 6054   8.342  -0.083   1.826  0.7617  2.0998 -1.8814
   45MOL0     H 6055   7.471   0.392   1.953  1.2858 -1.0554  0.0531
   45MOL0     H 6056   7.274   0.524   1.858 -1.3994  0.8891 -2.2309
   45MOL0     H 6057   6.932   0.578   1.624 -0.0586  0.9532 -0.1133
   45MOL0     H 6058   6.710   0.635   1.503 -0.2056 -0.8556  1.2715
   45MOL0     H 6059   5.321   1.398   0.737 -0.0406 -0.2025  0.2808
   45MOL0     H 6060   5.090   1.367   0.841  0.5841 -0.8963  0.4229
   45MOL0     H 6061   4.913   1.181   1.222 -1.2065 -0.4865 -0.9444
   45MOL0     H 6062   4.749   1.110   1.377 -0.3010  1.5828  1.8173
   45MOL0     H 6063   4.416   1.368   1.410 -2.1497  1.7930  0.1153
   45MOL0     H 6064   4.470   1.406   1.566 -3.2684  0.0493  1.0737
   45MOL0     H 6065   4.261   1.322   1.600 -0.0838  0.2960 -1.8235
   45MOL0     H 6066   4.372   1.224   1.685 -2.2589  1.2301  1.8673
   45MOL0     H 6067   4.260   1.044   1.570  1.8746 -0.1640  0.3924
   45MOL0     H 6068   4.370   1.073   1.453 -0.3038 -0.5848  1.1892
   45MOL0     H 6069   4.219   1.252   1.340  1.4130  0.9622  2.0154
   45MOL0     H 6070   4.172   1.075   1.333  1.1198  0.5728  0.2523
   45MOL0     H 6071   3.867   1.268   1.564  0.5455  2.6112  0.8510
   45MOL0     H 6072   4.597   1.497   1.413  1.6053  1.7451 -1.4733
   45MOL0     H 6073   4.800   1.705   1.293 -2.1923  0.1811  1.9222
   45MOL0     H 6074   4.783   1.646   1.126  2.5156  4.1794 -0.0826
   45MOL0     H 6075   4.639   1.661   1.224  1.3225  1.8661 -1.3295
   46MOL0     O 6076   2.716   5.133   7.499  0.0711 -0.3795 -0.2812
   46MOL0     C 6077   2.606   5.122   7.549  0.6900 -0.3958  0.1537
   46MOL0     O 6078   2.579   5.138   7.680  0.5020 -0.1401  0.1721
   46MOL0     C 6079   2.671   5.209   7.754  0.1728 -0.0508 -1.2027
   46MOL0     C 6080   2.713   5.333   7.708  0.0545 -0.0050 -0.1337
   46MOL0     C 6081   2.778   5.419   7.797 -0.1996  0.6745 -0.0066
   46MOL0     C 6082   2.817   5.373   7.928 -0.1606 -0.1942  0.1855
   46MOL0     O 6083   2.887   5.454   8.014 -0.5456  0.7402  0.2496
   46MOL0     C 6084   2.832   5.465   8.141  0.7043  0.6077  0.7813
   46MOL0     C 6085   2.901   5.561   8.235  0.7427 -0.7418  0.4536
   46MOL0     C 6086   3.054   5.543   8.253  0.5508  0.0033 -0.6102
   46MOL0     C 6087   3.123   5.673   8.302  0.4447 -0.3059 -0.3528
   46MOL0     C 6088   3.272   5.645   8.326 -0.5889  0.1035  0.3209
   46MOL0     C 6089   3.304   5.571   8.454 -0.1338  0.3892 -1.1002
   46MOL0     C 6090   3.452   5.541   8.471  0.0738 -0.2377  0.2112
   46MOL0     C 6091   3.488   5.454   8.592 -0.5134  0.6576  0.4058
   46MOL0     N 6092   3.631   5.455   8.611 -0.4478 -0.2979  0.2757
   46MOL0     C 6093   3.720   5.394   8.528 -0.3380  0.0758  0.2368
   46MOL0     C 6094   3.836   5.374   8.602  0.2419 -0.4411 -0.6078
   46MOL0     C 6095   3.956   5.305   8.546  0.5781  0.4678  0.0408
   46MOL0     C 6096   4.057   5.271   8.655  0.2417  0.6108  0.6998
   46MOL0     C 6097   4.189   5.221   8.600 -0.6186  0.6211 -0.8675
   46MOL0     C 6098   4.276   5.181   8.716 -0.2831 -0.2510  0.6781
   46MOL0     O 6099   4.403   5.139   8.673 -0.8295  0.3566 -0.4057
   46MOL0     C 6100   4.504   5.093   8.764 -0.3521  0.9082  0.8271
   46MOL0     C 6101   4.486   5.078   8.899  0.1768  0.3381 -0.0601
   46MOL0     C 6102   4.580   5.033   8.985  0.5287  0.2937  0.1617
   46MOL0     C 6103   4.700   4.993   8.934  0.2879  0.2780  0.7712
   46MOL0     C 6104   4.797   4.929   9.026  0.7520 -0.8113  0.6499
   46MOL0     O 6105   4.769   4.904   9.162 -0.6348 -0.1144  0.2462
   46MOL0     C 6106   4.879   4.872   9.235 -0.2588 -0.0119 -0.9776
   46MOL0     C 6107   4.920   4.738   9.252  0.7150 -0.1899 -0.0474
   46MOL0     C 6108   5.031   4.709   9.332 -0.0747 -0.2109 -0.4546
   46MOL0     C 6109   5.114   4.809   9.390  1.1439 -0.3945 -0.2913
   46MOL0     O 6110   5.223   4.774   9.457 -0.2692  0.4294  0.8349
   46MOL0     C 6111   5.244   4.850   9.580 -0.4927  0.7490  0.7753
   46MOL0     C 6112   5.346   4.777   9.668 -1.0938  0.6187 -1.1272
   46MOL0     C 6113   5.475   4.761   9.589 -1.2291  0.0080 -0.4942
   46MOL0     C 6114   5.592   4.746   9.693 -0.6204  0.5846  0.0123
   46MOL0     C 6115   5.693   4.637   9.638  0.0285  0.3624  0.6052
   46MOL0     C 6116   5.831   4.675   9.689  0.5989  0.0653  0.3887
   46MOL0     C 6117   5.941   4.570   9.655  0.6114  0.0895  0.5028
   46MOL0     C 6118   5.974   4.572   9.507 -0.3569 -0.6810  0.8719
   46MOL0    Cl 6119   6.079   4.710   9.454 -0.2992 -0.1477 -0.6022
   46MOL0     C 6120   5.071   4.939   9.369  0.4338  0.1614 -0.0946
   46MOL0     C 6121   4.956   4.973   9.296 -0.6120  0.3303 -0.2156
   46MOL0     O 6122   4.897   4.913   8.965  0.2754  0.3931 -0.1741
   46MOL0     C 6123   4.725   5.006   8.795 -0.7464 -0.5523 -0.7889
   46MOL0     C 6124   4.626   5.053   8.709 -0.1327 -0.2819  0.4776
   46MOL0     N 6125   3.808   5.421   8.728  0.0082  0.0791 -0.0521
   46MOL0     N 6126   3.686   5.467   8.738 -0.2547 -1.2192  0.2856
   46MOL0     C 6127   2.785   5.241   7.963  0.7711  0.2541 -0.3989
   46MOL0     C 6128   2.712   5.161   7.878  0.6491 -0.2203  0.1702
   46MOL0     C 6129   2.490   5.111   7.461  0.1874 -0.2190 -0.2657
   46MOL0     C 6130   2.504   5.150   7.335 -0.4244  0.7114 -0.6344
   46MOL0     C 6131   2.405   5.144   7.235 -0.1441  0.1197 -0.1396
   46MOL0     C 6132   2.294   5.074   7.269 -0.6139 -0.1699 -0.1514
   46MOL0     O 6133   2.196   5.052   7.177  0.2498  0.8327  0.5679
   46MOL0     C 6134   2.220   4.948   7.083 -0.6250  0.3931 -0.1158
   46MOL0     C 6135   2.212   4.812   7.150  0.0160  0.2641 -0.3267
   46MOL0     C 6136   2.066   4.789   7.204  1.3224  0.6566  0.1370
   46MOL0     C 6137   2.055   4.671   7.294 -0.3255  0.8113 -0.2729
   46MOL0     C 6138   2.099   4.551   7.214 -0.2557 -1.3827  0.5419
   46MOL0     C 6139   2.136   4.451   7.152  0.1678 -0.0753 -0.0620
   46MOL0     C 6140   2.280   5.024   7.399  0.5690  0.4465  0.0412
   46MOL0     C 6141   2.371   5.044   7.499  0.2228 -1.1249  0.4985
   46MOL0     C 6142   2.333   4.994   7.634  0.0475 -0.2119  0.0259
   46MOL0     H 6143   2.700   5.360   7.604 -1.7495 -0.5284 -0.0791
   46MOL0     H 6144   2.807   5.521   7.772 -0.3263  1.6341  3.2775
   46MOL0     H 6145   2.729   5.500   8.135  0.2218 -0.3945  2.5125
   46MOL0     H 6146   2.841   5.366   8.187  2.1325 -0.0907 -0.8994
   46MOL0     H 6147   2.850   5.557   8.332 -2.5170  0.5503 -1.0618
   46MOL0     H 6148   2.875   5.657   8.189 -1.9766 -0.8013  1.6508
   46MOL0     H 6149   3.103   5.499   8.165  0.2555  0.0928 -0.8245
   46MOL0     H 6150   3.076   5.474   8.334 -0.0039  0.7775  0.2118
   46MOL0     H 6151   3.120   5.754   8.228  1.3062  0.1500  0.0946
   46MOL0     H 6152   3.085   5.719   8.394  2.1998 -1.1458  0.8509
   46MOL0     H 6153   3.314   5.582   8.247 -0.6603 -0.5169  0.7639
   46MOL0     H 6154   3.325   5.739   8.341  1.3778 -1.3389  3.6487
   46MOL0     H 6155   3.275   5.636   8.537  0.0041  0.8077 -1.3768
   46MOL0     H 6156   3.239   5.483   8.451 -1.1001  1.0178  0.2271
   46MOL0     H 6157   3.501   5.638   8.482  0.9400 -0.5937 -0.3240
   46MOL0     H 6158   3.488   5.492   8.380 -0.1163  0.8825 -0.4875
   46MOL0     H 6159   3.444   5.504   8.678 -1.4903  1.4264 -0.5118
   46MOL0     H 6160   3.454   5.350   8.590  4.4089 -1.2257 -0.1952
   46MOL0     H 6161   3.706   5.371   8.423 -2.5168  3.2980 -0.3324
   46MOL0     H 6162   3.915   5.218   8.492 -0.2999  2.8130 -3.4316
   46MOL0     H 6163   4.007   5.373   8.477  0.5736  1.2949  0.8308
   46MOL0     H 6164   4.065   5.359   8.719 -0.2117 -0.3511  2.1172
   46MOL0     H 6165   4.025   5.193   8.725  0.0927  2.6001  2.9736
   46MOL0     H 6166   4.236   5.303   8.544 -0.0973  0.3817 -0.7872
   46MOL0     H 6167   4.175   5.135   8.533  1.3055 -0.3323 -0.1389
   46MOL0     H 6168   4.232   5.095   8.767  0.2508 -3.6987 -3.9590
   46MOL0     H 6169   4.291   5.264   8.785 -0.0494 -1.5242  2.2174
   46MOL0     H 6170   4.385   5.099   8.934  0.2759  0.2123  0.2964
   46MOL0     H 6171   4.554   5.022   9.090  2.5050  0.2594  0.6918
   46MOL0     H 6172   4.860   4.657   9.211 -0.2744  0.7828 -0.5628
   46MOL0     H 6173   5.046   4.603   9.349  1.6220  0.3010  1.7891
   46MOL0     H 6174   5.289   4.949   9.567  1.3968 -0.2242 -0.5452
   46MOL0     H 6175   5.150   4.867   9.633 -1.5290  1.7144 -1.2463
   46MOL0     H 6176   5.357   4.823   9.767 -0.8974 -0.4427 -0.6457
   46MOL0     H 6177   5.300   4.679   9.682  1.2316 -0.5284 -0.9893
   46MOL0     H 6178   5.471   4.673   9.526 -2.1429  0.2346 -0.7549
   46MOL0     H 6179   5.496   4.849   9.527 -0.2637  0.1679  0.0274
   46MOL0     H 6180   5.554   4.734   9.795  0.5539 -0.6872  0.3343
   46MOL0     H 6181   5.646   4.840   9.697 -1.1918  0.8936  0.9527
   46MOL0     H 6182   5.685   4.633   9.529  0.3571  0.3389  0.5796
   46MOL0     H 6183   5.665   4.540   9.679  1.6153  0.0943  1.1232
   46MOL0     H 6184   5.848   4.774   9.645 -0.3745  0.2222  0.3492
   46MOL0     H 6185   5.820   4.689   9.797 -1.1826  0.9773  0.1283
   46MOL0     H 6186   5.905   4.470   9.683 -1.5956  0.5690 -0.3739
   46MOL0     H 6187   6.030   4.603   9.709  0.6149 -1.5859  1.5954
   46MOL0     H 6188   6.040   4.487   9.490  4.6809  1.6038  5.7971
   46MOL0     H 6189   5.884   4.576   9.446  1.2093  0.1686 -1.5593
   46MOL0     H 6190   5.141   5.015   9.404  0.3226  0.9119 -1.4541
   46MOL0     H 6191   4.940   5.079   9.278  1.0485  0.4765 -1.1248
   46MOL0     H 6192   4.824   4.979   8.758  0.7103  3.8345 -0.6254
   46MOL0     H 6193   4.631   5.053   8.601 -0.7203  3.1604  0.3426
   46MOL0     H 6194   2.816   5.204   8.060 -0.4522  0.2126 -0.0100
   46MOL0     H 6195   2.676   5.067   7.919 -1.6453  1.1734  1.5582
   46MOL0     H 6196   2.601   5.195   7.318  1.2162 -1.6941  1.5726
   46MOL0     H 6197   2.419   5.169   7.130  1.5555 -5.2520 -1.5633
   46MOL0     H 6198   2.322   4.962   7.048 -0.2144 -1.9216  0.0243
   46MOL0     H 6199   2.150   4.958   6.999 -0.8024 -0.9426 -0.1477
   46MOL0     H 6200   2.279   4.808   7.236  1.1722 -0.0299 -1.2246
   46MOL0     H 6201   2.251   4.737   7.081  1.6531  1.3051 -0.5789
   46MOL0     H 6202   1.995   4.786   7.121  2.8691  1.2713 -1.2757
   46MOL0     H 6203   2.042   4.880   7.260  1.5356  1.4598 -1.0323
   46MOL0     H 6204   2.129   4.684   7.374 -1.1044  0.1079  0.5902
   46MOL0     H 6205   1.955   4.659   7.335 -0.0435  0.1338  0.2383
   46MOL0     H 6206   2.178   4.369   7.098  1.0691 -0.5364  1.2745
   46MOL0     H 6207   2.192   4.966   7.424  0.6267 -0.3209 -1.4772
   46MOL0     H 6208   2.253   4.920   7.622  0.6015 -1.1281  1.5890
   46MOL0     H 6209   2.420   4.935   7.666 -0.3274 -1.3805 -1.0189
   46MOL0     H 6210   2.312   5.064   7.715  0.1761  0.4885 -0.5390
   47MOL0     O 6211   6.397   7.027   3.739  0.2028  0.6240 -0.2950
   47MOL0     C 6212   6.352   7.098   3.829 -0.4543  1.0018  0.0790
   47MOL0     O 6213   6.425   7.174   3.911  0.3648  0.0658  1.3945
   47MOL0     C 6214   6.543   7.216   3.856  0.2823  0.1624  0.6833
   47MOL0     C 6215   6.561   7.331   3.785 -0.2656 -0.3201 -0.2901
   47MOL0     C 6216   6.695   7.380   3.760  0.5779 -0.5008 -0.4611
   47MOL0     C 6217   6.805   7.315   3.798  0.5860 -0.1665  0.0508
   47MOL0     O 6218   6.935   7.347   3.780 -0.0817 -0.0305 -0.1652
   47MOL0     C 6219   6.957   7.461   3.696  0.0350  0.1126  0.1416
   47MOL0     C 6220   7.103   7.476   3.659  0.2141 -1.0621  0.4738
   47MOL0     C 6221   7.191   7.488   3.783 -0.6602 -0.1765 -1.1196
   47MOL0     C 6222   7.337   7.460   3.760  0.1301  0.1396  0.4379
   47MOL0     C 6223   7.424   7.473   3.883  0.7377 -0.9576 -0.1660
   47MOL0     C 6224   7.577   7.442   3.850  0.7107 -0.3287  0.0461
   47MOL0     C 6225   7.662   7.492   3.972  0.8193  0.6535  0.4219
   47MOL0     C 6226   7.811   7.435   3.955  1.0252  0.3818 -0.6214
   47MOL0     N 6227   7.860   7.472   3.822 -0.2287 -0.3259 -0.0131
   47MOL0     C 6228   7.903   7.589   3.763 -0.4937  0.0968 -0.2803
   47MOL0     C 6229   7.954   7.556   3.645 -0.0011  1.2332  0.4416
   47MOL0     C 6230   8.019   7.645   3.544  0.1720  0.5939  0.2522
   47MOL0     C 6231   8.169   7.644   3.545 -0.6656  0.5444 -0.4659
   47MOL0     C 6232   8.223   7.701   3.418  0.3343 -0.8142  0.5373
   47MOL0     C 6233   8.369   7.653   3.391  1.5095  0.1960 -0.2952
   47MOL0     O 6234   8.429   7.732   3.291 -1.0646  0.5865 -0.6467
   47MOL0     C 6235   8.568   7.747   3.290  0.6212 -0.0202  0.3855
   47MOL0     C 6236   8.657   7.651   3.336 -0.4648  0.2734  1.0737
   47MOL0     C 6237   8.795   7.657   3.319  0.1476  0.6896  0.5746
   47MOL0     C 6238   8.846   7.768   3.248  0.6441 -0.3895 -0.2258
   47MOL0     C 6239   8.986   7.780   3.236  0.7934  0.4265  0.4068
   47MOL0     O 6240   9.069   7.693   3.291  0.3669 -0.1169 -0.1969
   47MOL0     C 6241   9.197   7.701   3.254 -0.0453 -0.2987 -0.6392
   47MOL0     C 6242   9.254   7.595   3.187  1.4552 -0.7955 -0.3069
   47MOL0     C 6243   9.380   7.602   3.131 -0.1521 -0.3237  0.5709
   47MOL0     C 6244   9.467   7.709   3.155  0.5238  0.0358  0.0814
   47MOL0     O 6245   9.587   7.704   3.094 -0.7395 -0.1450  0.0936
   47MOL0     C 6246   9.680   7.817   3.095  0.2933  0.8186  0.4173
   47MOL0     C 6247   9.824   7.779   3.041  0.0122  0.2461 -0.3108
   47MOL0     C 6248   9.901   7.667   3.113  0.2735 -0.0430 -0.0667
   47MOL0     C 6249  10.048   7.662   3.053 -0.0944  0.0815  0.4316
   47MOL0     C 6250  10.115   7.536   3.104  0.0583  0.2608 -0.0841
   47MOL0     C 6251  10.256   7.509   3.049 -0.4573 -1.1583  1.0298
   47MOL0     C 6252  10.351   7.633   3.067  0.2231  0.4692 -0.6778
   47MOL0     C 6253  10.502   7.617   3.027 -0.5541  0.2647  0.1421
   47MOL0    Cl 6254  10.597   7.565   3.166 -0.0271  0.5019 -0.0662
   47MOL0     C 6255   9.408   7.821   3.219  0.0722  0.2597 -0.4341
   47MOL0     C 6256   9.276   7.815   3.269  0.1031 -0.5142 -0.4945
   47MOL0     O 6257   9.015   7.879   3.168  0.3757  0.0912  0.7045
   47MOL0     C 6258   8.753   7.857   3.187  0.8803  1.1972  0.0116
   47MOL0     C 6259   8.618   7.848   3.215 -0.0916 -0.1871 -0.7765
   47MOL0     N 6260   7.942   7.419   3.638 -0.2774  0.0306  1.0084
   47MOL0     N 6261   7.888   7.370   3.741  0.5662  0.5973 -0.6440
   47MOL0     C 6262   6.778   7.189   3.860 -0.3441 -0.2134 -1.3197
   47MOL0     C 6263   6.651   7.150   3.900 -0.2765  0.1240 -0.1979
   47MOL0     C 6264   6.209   7.066   3.874 -0.7506  0.0458 -0.2556
   47MOL0     C 6265   6.177   7.125   3.990  0.0494 -0.6615 -0.8088
   47MOL0     C 6266   6.045   7.125   4.039 -0.0948  0.0204  0.5485
   47MOL0     C 6267   5.947   7.065   3.965 -0.1955  0.2868 -0.2180
   47MOL0     O 6268   5.818   7.057   4.007 -0.0107  0.4086  0.7002
   47MOL0     C 6269   5.807   7.042   4.149 -0.2980  0.5065  0.8157
   47MOL0     C 6270   5.666   7.009   4.191  0.5217 -0.1263  0.2049
   47MOL0     C 6271   5.570   7.101   4.117  0.3276 -0.2424 -0.8606
   47MOL0     C 6272   5.438   7.081   4.181  0.3221  0.0810 -0.5662
   47MOL0     C 6273   5.342   7.186   4.128  0.4045  0.1191  0.8361
   47MOL0     C 6274   5.274   7.267   4.066 -0.8241 -0.4719 -0.7299
   47MOL0     C 6275   5.981   7.020   3.836  0.3584  0.3320 -0.0762
   47MOL0     C 6276   6.112   7.007   3.793 -0.3265 -1.0768  0.1849
   47MOL0     C 6277   6.127   6.943   3.658 -0.6034 -0.0655 -0.8338
   47MOL0     H 6278   6.477   7.391   3.752  1.7202  3.3602  0.7600
   47MOL0     H 6279   6.703   7.473   3.705 -2.3747  1.5836  2.2386
   47MOL0     H 6280   6.900   7.447   3.604 -0.3277 -0.6055  0.4650
   47MOL0     H 6281   6.918   7.553   3.739  0.1697  1.6820 -2.8464
   47MOL0     H 6282   7.102   7.566   3.597 -1.4455 -1.1831  0.2776
   47MOL0     H 6283   7.139   7.397   3.592 -2.6407  0.0034 -2.6177
   47MOL0     H 6284   7.163   7.418   3.862  0.2457  0.0058 -0.6337
   47MOL0     H 6285   7.187   7.588   3.828  2.3431 -0.9248  1.0729
   47MOL0     H 6286   7.342   7.356   3.724 -0.6241 -0.9810  3.3039
   47MOL0     H 6287   7.371   7.527   3.680 -1.7720  0.5953 -0.0442
   47MOL0     H 6288   7.414   7.580   3.906 -2.2427 -1.0391 -0.6980
   47MOL0     H 6289   7.379   7.428   3.971 -0.9212  0.6293 -0.1207
   47MOL0     H 6290   7.597   7.335   3.845 -0.4986 -0.5157 -1.3080
   47MOL0     H 6291   7.608   7.484   3.754  1.4591 -0.2425  0.3168
   47MOL0     H 6292   7.620   7.451   4.064  0.2678  0.3199  0.0331
   47MOL0     H 6293   7.661   7.601   3.968  3.8940  0.7345 -1.3481
   47MOL0     H 6294   7.874   7.487   4.028  0.2935  2.4932 -1.4123
   47MOL0     H 6295   7.818   7.328   3.974  1.3617  0.8101  2.1622
   47MOL0     H 6296   7.910   7.685   3.814  0.7698 -1.2883  2.4089
   47MOL0     H 6297   7.993   7.616   3.442  2.6644  1.0863 -0.5993
   47MOL0     H 6298   7.982   7.745   3.571 -1.7206 -0.0584  0.2233
   47MOL0     H 6299   8.217   7.700   3.625  2.0435  0.1065 -1.6756
   47MOL0     H 6300   8.205   7.541   3.554  1.9450  1.3088 -1.4533
   47MOL0     H 6301   8.223   7.810   3.426  2.0457 -0.6499 -1.2207
   47MOL0     H 6302   8.157   7.679   3.333  1.0080  1.5300 -0.6658
   47MOL0     H 6303   8.363   7.546   3.372 -3.1781  0.4143 -1.2298
   47MOL0     H 6304   8.425   7.656   3.486 -1.2219  1.4725  1.4106
   47MOL0     H 6305   8.615   7.564   3.385 -0.5603 -0.9021 -0.9791
   47MOL0     H 6306   8.856   7.573   3.349 -0.1950 -0.3520 -1.5242
   47MOL0     H 6307   9.193   7.510   3.156  0.2004  0.0850 -0.3606
   47MOL0     H 6308   9.414   7.518   3.071 -0.6479 -0.3155  0.2746
   47MOL0     H 6309   9.639   7.903   3.042  0.0536 -0.4114 -1.5242
   47MOL0     H 6310   9.703   7.849   3.197  0.9925 -0.9532  0.8532
   47MOL0     H 6311   9.815   7.748   2.936 -0.4801 -1.0674  0.1019
   47MOL0     H 6312   9.882   7.872   3.031  2.7115 -1.0618  1.8159
   47MOL0     H 6313   9.896   7.676   3.222  0.7603 -0.2346 -0.0264
   47MOL0     H 6314   9.864   7.568   3.087 -2.6817  1.3456 -1.6170
   47MOL0     H 6315  10.094   7.753   3.095  1.3679  0.6325 -2.1706
   47MOL0     H 6316  10.054   7.673   2.945 -2.1789  3.7901  0.5089
   47MOL0     H 6317  10.067   7.446   3.064  3.0539 -1.0221 -1.0343
   47MOL0     H 6318  10.102   7.530   3.212 -3.3021 -0.4132 -0.4076
   47MOL0     H 6319  10.300   7.420   3.095  1.4309 -0.3116  0.9580
   47MOL0     H 6320  10.237   7.497   2.942 -1.3131  2.1135  0.6948
   47MOL0     H 6321  10.349   7.673   3.169 -0.5484  0.3141 -0.6251
   47MOL0     H 6322  10.307   7.710   3.004 -4.1433 -0.2354  1.1405
   47MOL0     H 6323  10.517   7.551   2.941  1.5535  0.9079 -0.0377
   47MOL0     H 6324  10.549   7.710   2.994 -1.3231  0.1137 -1.4881
   47MOL0     H 6325   9.466   7.911   3.233  0.4124 -0.0105 -0.1107
   47MOL0     H 6326   9.240   7.908   3.312 -0.8938 -0.0517 -2.2147
   47MOL0     H 6327   8.785   7.928   3.112 -0.5267  1.0801 -0.7502
   47MOL0     H 6328   8.553   7.922   3.169 -0.6291  1.0404  1.7536
   47MOL0     H 6329   6.858   7.126   3.897 -0.8620 -0.5556 -0.7434
   47MOL0     H 6330   6.634   7.054   3.949 -2.7369 -1.3145 -3.5402
   47MOL0     H 6331   6.253   7.178   4.047 -1.0160  0.1321 -0.0921
   47MOL0     H 6332   6.031   7.167   4.138 -1.8790 -0.5428  0.5705
   47MOL0     H 6333   5.833   7.134   4.201 -1.9893  0.6159  1.5330
   47MOL0     H 6334   5.878   6.965   4.181  1.4209  0.9201 -1.7023
   47MOL0     H 6335   5.655   7.022   4.299 -0.1602 -1.2150  0.2803
   47MOL0     H 6336   5.636   6.906   4.170 -3.3761  1.2608 -2.0262
   47MOL0     H 6337   5.554   7.066   4.014 -1.4185 -3.9424  0.4903
   47MOL0     H 6338   5.609   7.202   4.130 -3.8359  1.3983  0.7005
   47MOL0     H 6339   5.383   6.988   4.164 -2.3037  1.3932  0.2490
   47MOL0     H 6340   5.444   7.086   4.290  0.6375 -1.1756 -0.5111
   47MOL0     H 6341   5.207   7.347   4.039 -1.8513 -0.7465  0.8981
   47MOL0     H 6342   5.898   6.997   3.770  0.3107 -0.8865  0.3963
   47MOL0     H 6343   6.223   6.891   3.648 -0.0642  0.1215  2.4494
   47MOL0     H 6344   6.062   6.856   3.666 -1.2720  0.5263  0.5493
   47MOL0     H 6345   6.100   7.004   3.571  0.1178 -0.7735 -1.5796
   48MOL0     O 6346   8.080   2.840   8.591 -0.2806 -0.5004 -0.3341
   48MOL0     C 6347   8.037   2.848   8.711  0.3111 -1.1015  0.5996
   48MOL0     O 6348   8.116   2.848   8.827 -0.2972 -0.1298  0.5606
   48MOL0     C 6349   8.250   2.828   8.822  0.0167  0.5274 -0.2633
   48MOL0     C 6350   8.290   2.756   8.935 -0.4698 -1.2760 -0.2266
   48MOL0     C 6351   8.425   2.766   8.967  0.0374 -0.3463 -0.3150
   48MOL0     C 6352   8.525   2.839   8.892  0.3942  0.0058  0.8671
   48MOL0     O 6353   8.656   2.827   8.930  0.3572  0.1285  0.2156
   48MOL0     C 6354   8.741   2.932   8.909 -0.0031  0.2588  0.8172
   48MOL0     C 6355   8.756   3.007   9.045  0.1419 -0.0510  0.8939
   48MOL0     C 6356   8.780   2.911   9.168 -0.6031 -0.5015 -0.7049
   48MOL0     C 6357   8.900   2.810   9.142  1.5070 -0.2222  0.2429
   48MOL0     C 6358   9.029   2.872   9.195 -0.1573 -1.3224 -0.5480
   48MOL0     C 6359   9.096   2.964   9.100 -0.5748 -1.4592  0.3890
   48MOL0     C 6360   9.240   2.987   9.134  0.0496  0.4348  0.0056
   48MOL0     C 6361   9.327   2.866   9.119  0.5318 -0.3002 -0.6953
   48MOL0     N 6362   9.477   2.891   9.101  0.1003 -0.5345 -0.2122
   48MOL0     C 6363   9.549   2.931   9.204  0.0267  0.0150  0.3731
   48MOL0     C 6364   9.674   2.907   9.168  0.8581  0.3193 -0.0814
   48MOL0     C 6365   9.802   2.944   9.237 -0.0662  0.9338  0.9697
   48MOL0     C 6366   9.936   2.893   9.167  0.0505  0.4815  0.8428
   48MOL0     C 6367  10.061   2.929   9.245 -0.2046  0.3554  0.6058
   48MOL0     C 6368  10.183   2.926   9.150 -0.4715 -0.5500 -0.1683
   48MOL0     O 6369  10.294   2.941   9.246  0.5495  0.9563 -0.2962
   48MOL0     C 6370  10.420   2.899   9.209 -0.3466 -0.5682  0.6838
   48MOL0     C 6371  10.495   2.819   9.299  0.7990  0.6109  0.2203
   48MOL0     C 6372  10.633   2.788   9.273  0.0598  0.0157 -0.5142
   48MOL0     C 6373  10.690   2.830   9.146  0.0863  0.3787  0.1211
   48MOL0     C 6374  10.831   2.806   9.105 -0.2781  1.0747  1.5617
   48MOL0     O 6375  10.884   2.712   9.184  0.4751  0.2572 -0.2752
   48MOL0     C 6376  11.027   2.708   9.198  1.0479 -0.7184  0.6196
   48MOL0     C 6377  11.087   2.751   9.317 -0.5578 -0.5178  0.4814
   48MOL0     C 6378  11.227   2.753   9.330  0.6709  0.3325 -0.0716
   48MOL0     C 6379  11.308   2.706   9.225 -0.0762 -0.3352 -0.3136
   48MOL0     O 6380  11.441   2.686   9.246  0.3962  0.0795 -0.2476
   48MOL0     C 6381  11.519   2.721   9.129  0.6879  0.0612 -0.1152
   48MOL0     C 6382  11.636   2.805   9.173 -0.5008  0.4984  0.1147
   48MOL0     C 6383  11.706   2.855   9.047  0.0023  0.5841 -0.4140
   48MOL0     C 6384  11.835   2.932   9.091  0.3582  0.3273  0.0734
   48MOL0     C 6385  11.928   2.967   8.971 -0.4677 -0.1019  0.2657
   48MOL0     C 6386  12.012   3.097   9.001 -0.4337 -0.1177 -0.0522
   48MOL0     C 6387  12.094   3.156   8.887  0.5112  0.1108  0.0220
   48MOL0     C 6388  12.220   3.070   8.852 -0.0053 -0.2965  0.6620
   48MOL0    Cl 6389  12.325   3.169   8.743 -0.1630 -0.2579 -0.3917
   48MOL0     C 6390  11.245   2.665   9.106  0.0364  0.6123 -0.3363
   48MOL0     C 6391  11.108   2.657   9.100 -0.3167 -0.3378  0.1098
   48MOL0     O 6392  10.893   2.874   9.026 -0.3843  1.2039  0.4814
   48MOL0     C 6393  10.599   2.900   9.058 -1.0157 -0.2255  0.0737
   48MOL0     C 6394  10.465   2.927   9.077 -0.6345 -0.1100  0.3048
   48MOL0     N 6395   9.666   2.858   9.034 -0.5973  0.8342 -0.7618
   48MOL0     N 6396   9.547   2.842   8.995 -0.2025 -0.2228  0.0431
   48MOL0     C 6397   8.481   2.890   8.770  0.8469  0.2692  0.4861
   48MOL0     C 6398   8.347   2.888   8.730  1.0603  0.9383  0.8901
   48MOL0     C 6399   7.888   2.893   8.720 -0.1041  0.2816  0.7959
   48MOL0     C 6400   7.835   2.938   8.846 -0.4623  0.3989  0.1684
   48MOL0     C 6401   7.712   2.969   8.866  0.8649 -0.2458 -0.0430
   48MOL0     C 6402   7.619   2.973   8.761 -0.7001  0.2465  0.4839
   48MOL0     O 6403   7.490   2.999   8.775  0.8497  0.7716  0.1500
   48MOL0     C 6404   7.469   3.141   8.800  0.2507  0.1149 -0.9782
   48MOL0     C 6405   7.325   3.196   8.791 -0.0476 -0.4923 -0.0265
   48MOL0     C 6406   7.332   3.343   8.839 -0.1932  0.9092  0.6955
   48MOL0     C 6407   7.190   3.414   8.820 -0.5127  0.6168 -0.5315
   48MOL0     C 6408   7.113   3.374   8.940 -0.4077  0.0871 -0.0159
   48MOL0     C 6409   7.049   3.340   9.037  0.0486 -0.2200  0.0619
   48MOL0     C 6410   7.662   2.940   8.630  0.3402  0.4720  0.1956
   48MOL0     C 6411   7.797   2.895   8.605 -0.0283  0.6601 -0.5568
   48MOL0     C 6412   7.814   2.836   8.466 -0.5185  0.0975 -0.0790
   48MOL0     H 6413   8.212   2.714   8.996 -0.2277  1.7253  2.3990
   48MOL0     H 6414   8.462   2.713   9.055 -1.3412  1.0588  1.1673
   48MOL0     H 6415   8.842   2.905   8.875  0.5253  0.6051  2.0479
   48MOL0     H 6416   8.703   3.008   8.840 -0.5718  0.1300  0.9881
   48MOL0     H 6417   8.666   3.069   9.057  0.3239  0.8655 -1.7500
   48MOL0     H 6418   8.833   3.083   9.030 -0.1489 -0.3189 -2.9998
   48MOL0     H 6419   8.686   2.860   9.193 -0.4700 -0.0184  0.8866
   48MOL0     H 6420   8.793   2.970   9.259 -0.5327 -0.9323 -0.4293
   48MOL0     H 6421   8.878   2.717   9.196  3.7038 -0.5531  0.6335
   48MOL0     H 6422   8.905   2.771   9.040 -2.0368 -0.6898  0.1251
   48MOL0     H 6423   9.027   2.903   9.300 -2.0984 -3.2025  0.0526
   48MOL0     H 6424   9.096   2.786   9.205  1.0028 -0.4813 -0.9634
   48MOL0     H 6425   9.088   2.924   8.998 -2.7692 -0.2478  0.0447
   48MOL0     H 6426   9.042   3.058   9.112  0.7475 -1.0344  4.4221
   48MOL0     H 6427   9.242   3.041   9.229 -0.8775 -0.8585  0.7970
   48MOL0     H 6428   9.279   3.059   9.061 -2.6205  1.0376 -0.9403
   48MOL0     H 6429   9.310   2.800   9.204 -0.8514  0.0218 -0.6990
   48MOL0     H 6430   9.290   2.810   9.033  0.0340  0.4402 -0.9805
   48MOL0     H 6431   9.522   2.971   9.301  2.2126 -0.5159  1.2616
   48MOL0     H 6432   9.804   3.053   9.229  1.0302  0.8166 -1.0240
   48MOL0     H 6433   9.801   2.915   9.342 -1.6931  1.9357  1.2742
   48MOL0     H 6434   9.939   2.787   9.142  0.2019  0.5744  0.4427
   48MOL0     H 6435   9.944   2.944   9.070 -2.1599 -0.6850 -0.0312
   48MOL0     H 6436  10.073   2.860   9.329  1.3728  0.5269  0.5465
   48MOL0     H 6437  10.055   3.029   9.291 -1.4346 -1.5779  5.2554
   48MOL0     H 6438  10.171   3.009   9.079  0.4257 -0.7675 -0.5897
   48MOL0     H 6439  10.195   2.835   9.091 -2.3605 -0.1721 -1.2122
   48MOL0     H 6440  10.452   2.791   9.395  0.2277  0.7111 -0.0085
   48MOL0     H 6441  10.695   2.731   9.342 -0.9883 -2.5497 -1.5266
   48MOL0     H 6442  11.028   2.787   9.401  1.3061 -1.9253  2.5248
   48MOL0     H 6443  11.269   2.777   9.427  3.8708 -0.7351 -1.0603
   48MOL0     H 6444  11.551   2.629   9.079  0.3977 -1.5212  2.4296
   48MOL0     H 6445  11.472   2.785   9.054  1.1951  1.5918  0.8356
   48MOL0     H 6446  11.597   2.894   9.223 -1.0073  0.9249 -1.0009
   48MOL0     H 6447  11.704   2.750   9.239 -0.5834  1.4007  0.9826
   48MOL0     H 6448  11.739   2.774   8.981  1.0945 -0.4582  1.3261
   48MOL0     H 6449  11.644   2.922   8.987 -0.5440  2.0751  1.7436
   48MOL0     H 6450  11.894   2.867   9.155 -0.5002  0.2872  0.8433
   48MOL0     H 6451  11.802   3.024   9.141 -0.3083 -0.5896  1.3775
   48MOL0     H 6452  11.871   2.973   8.878 -2.9325  0.7822  1.7598
   48MOL0     H 6453  11.992   2.879   8.959 -0.8355 -0.2259 -0.8861
   48MOL0     H 6454  11.939   3.175   9.021  1.1820  1.0154  1.6977
   48MOL0     H 6455  12.085   3.081   9.081 -0.5259 -2.8383 -0.4036
   48MOL0     H 6456  12.139   3.253   8.911 -0.6751  0.6650  0.0612
   48MOL0     H 6457  12.033   3.179   8.799 -1.3507  2.3733  1.7733
   48MOL0     H 6458  12.275   3.037   8.940  1.9326 -2.4671 -1.2244
   48MOL0     H 6459  12.175   2.982   8.804 -1.3091 -0.3681  1.9703
   48MOL0     H 6460  11.307   2.629   9.025  0.3011  1.1460 -0.3766
   48MOL0     H 6461  11.064   2.609   9.013  2.9711  0.5052 -2.1725
   48MOL0     H 6462  10.650   2.932   8.968  2.3446  0.3899  2.0501
   48MOL0     H 6463  10.397   2.972   9.005 -1.1987  1.5006  1.7911
   48MOL0     H 6464   8.553   2.945   8.709  1.0496  3.2035  3.1159
   48MOL0     H 6465   8.319   2.952   8.647 -1.3453 -0.4632  0.5373
   48MOL0     H 6466   7.915   2.954   8.917  1.3928 -3.5079 -0.8044
   48MOL0     H 6467   7.678   2.996   8.965  1.3010 -0.9863  0.3211
   48MOL0     H 6468   7.522   3.208   8.732  0.0019  3.0939  1.5102
   48MOL0     H 6469   7.514   3.164   8.897 -0.7463 -0.5263 -0.3425
   48MOL0     H 6470   7.264   3.126   8.848  3.1449 -2.2434  1.5188
   48MOL0     H 6471   7.298   3.188   8.685 -0.6308 -0.3761  0.1113
   48MOL0     H 6472   7.410   3.397   8.785  0.7003 -1.5397 -0.5990
   48MOL0     H 6473   7.363   3.331   8.943 -0.5741 -0.7069  0.6422
   48MOL0     H 6474   7.207   3.522   8.816 -1.0169  0.6642 -2.7611
   48MOL0     H 6475   7.142   3.377   8.729 -0.2097 -0.9373 -0.0833
   48MOL0     H 6476   6.994   3.311   9.124 -1.0534 -3.0986 -1.4702
   48MOL0     H 6477   7.603   2.959   8.541  2.4433 -0.3777 -1.4693
   48MOL0     H 6478   7.719   2.792   8.434 -1.1955  0.8295  0.8791
   48MOL0     H 6479   7.845   2.921   8.404 -0.1590  1.3983  1.7881
   48MOL0     H 6480   7.896   2.764   8.466  1.6841  2.4574 -0.6064
   49MOL0     O 6481   0.537  10.285   7.507 -0.3292  0.1484  0.5210
   49MOL0     C 6482   0.439  10.257   7.435 -0.3664 -0.2591 -0.2665
   49MOL0     O 6483   0.426  10.264   7.301  0.0944 -0.2620  0.2645
   49MOL0     C 6484   0.524  10.294   7.207  0.4170  0.1781 -0.3277
   49MOL0     C 6485   0.481  10.295   7.073  0.4758 -0.3023 -0.7205
   49MOL0     C 6486   0.566  10.315   6.963 -0.3784 -0.2378 -0.2656
   49MOL0     C 6487   0.704  10.345   6.988 -0.7594  0.4189  0.6987
   49MOL0     O 6488   0.807  10.375   6.903 -0.3570  0.3395 -0.2660
   49MOL0     C 6489   0.787  10.364   6.765 -0.4637 -0.3003 -0.8793
   49MOL0     C 6490   0.919  10.410   6.703 -0.2855 -0.2873 -0.3470
   49MOL0     C 6491   0.978  10.540   6.736 -0.7714 -0.2352  0.5091
   49MOL0     C 6492   1.080  10.581   6.632 -0.2770 -0.2072 -0.0934
   49MOL0     C 6493   1.213  10.503   6.657  0.1382  0.4545  0.3970
   49MOL0     C 6494   1.317  10.541   6.550 -0.0188 -0.3876  0.3905
   49MOL0     C 6495   1.425  10.430   6.558  0.2234  0.3758  0.5194
   49MOL0     C 6496   1.528  10.447   6.448  0.2401  0.3326  0.0960
   49MOL0     N 6497   1.622  10.337   6.476 -0.3124  0.0527 -0.3895
   49MOL0     C 6498   1.726  10.338   6.575 -0.6108 -0.4860  0.6085
   49MOL0     C 6499   1.793  10.226   6.551  0.5520 -0.6194  0.2525
   49MOL0     C 6500   1.902  10.172   6.638  0.0652  0.4625  0.3485
   49MOL0     C 6501   1.969  10.280   6.733 -0.4796  0.5827  0.2623
   49MOL0     C 6502   2.108  10.237   6.789 -0.0872  0.2231  0.9627
   49MOL0     C 6503   2.220  10.221   6.691  0.0949 -0.2123  0.8224
   49MOL0     O 6504   2.338  10.179   6.757  0.7841  0.3164 -0.1949
   49MOL0     C 6505   2.458  10.185   6.691 -0.6327 -0.1854  0.6644
   49MOL0     C 6506   2.481  10.266   6.575 -1.3143 -0.5225  0.8277
   49MOL0     C 6507   2.608  10.283   6.524 -1.1810  0.3010 -0.1977
   49MOL0     C 6508   2.709  10.195   6.564 -0.1588 -0.1305  0.3137
   49MOL0     C 6509   2.839  10.198   6.489  0.2780  1.1818 -0.4388
   49MOL0     O 6510   2.944  10.139   6.559  0.3406 -0.5504  0.2297
   49MOL0     C 6511   3.074  10.180   6.540 -0.1219 -0.0441  0.1501
   49MOL0     C 6512   3.107  10.311   6.553  0.2578 -0.4508 -0.8352
   49MOL0     C 6513   3.237  10.357   6.549  0.8207 -0.4338  0.1905
   49MOL0     C 6514   3.344  10.266   6.533 -0.3961  0.2984 -0.3443
   49MOL0     O 6515   3.464  10.325   6.513 -0.5781 -0.1075 -0.1549
   49MOL0     C 6516   3.566  10.252   6.444  0.4303  0.9431 -0.1368
   49MOL0     C 6517   3.685  10.346   6.406 -0.2083  0.5402 -0.1813
   49MOL0     C 6518   3.741  10.429   6.520 -0.1234 -0.0381 -0.0264
   49MOL0     C 6519   3.890  10.464   6.492 -0.6524  0.3248 -0.1491
   49MOL0     C 6520   3.987  10.378   6.561  0.0398  0.4535 -0.7344
   49MOL0     C 6521   4.138  10.421   6.546 -0.2458  0.1893  0.1609
   49MOL0     C 6522   4.234  10.320   6.588 -0.1069 -0.2386  0.4166
   49MOL0     C 6523   4.361  10.329   6.505 -0.1471  0.3417  0.5402
   49MOL0    Cl 6524   4.448  10.495   6.525 -0.3239 -0.3303 -0.1960
   49MOL0     C 6525   3.319  10.124   6.518  0.7076 -0.7136 -0.4005
   49MOL0     C 6526   3.182  10.087   6.525 -0.0609  0.9742 -0.0094
   49MOL0     O 6527   2.842  10.258   6.390 -1.0909 -0.0397  0.4494
   49MOL0     C 6528   2.687  10.118   6.679 -0.9351  0.3726  0.3450
   49MOL0     C 6529   2.561  10.111   6.750 -0.2093  0.3318  0.1722
   49MOL0     N 6530   1.740  10.165   6.441 -0.0823  0.1864  0.5361
   49MOL0     N 6531   1.644  10.230   6.394 -0.2275 -0.3146 -0.2219
   49MOL0     C 6532   0.754  10.326   7.123  0.4693  0.2428  0.5364
   49MOL0     C 6533   0.663  10.312   7.234  0.0874  0.2588  0.5601
   49MOL0     C 6534   0.318  10.225   7.520 -0.2445  0.1712  0.6216
   49MOL0     C 6535   0.194  10.240   7.456 -0.1939  0.9061 -0.3893
   49MOL0     C 6536   0.077  10.218   7.537  0.1913 -0.3042  0.4128
   49MOL0     C 6537   0.076  10.185   7.667 -0.4190 -0.0457 -0.1018
   49MOL0     O 6538  -0.040  10.155   7.740 -0.2157 -0.6094  0.1821
   49MOL0     C 6539  -0.169  10.141   7.665 -0.6994  0.1442 -0.2845
   49MOL0     C 6540  -0.274  10.090   7.768  0.0923 -0.5031 -0.2524
   49MOL0     C 6541  -0.317  10.192   7.875 -0.1511  0.1869 -0.6624
   49MOL0     C 6542  -0.442  10.273   7.853  0.3658 -0.1093 -0.8677
   49MOL0     C 6543  -0.412  10.401   7.791 -0.1745  0.9680  0.9990
   49MOL0     C 6544  -0.384  10.501   7.732 -0.4109  0.8112 -0.7848
   49MOL0     C 6545   0.198  10.163   7.726  0.1959  0.2701 -0.1074
   49MOL0     C 6546   0.312  10.164   7.648  0.0391 -0.9025 -0.8621
   49MOL0     C 6547   0.436  10.105   7.714  0.0971  0.5472  0.6142
   49MOL0     H 6548   0.375  10.276   7.057  0.7002 -1.6258 -0.7131
   49MOL0     H 6549   0.527  10.303   6.862 -3.7098 -0.2314  0.9080
   49MOL0     H 6550   0.782  10.256   6.745  0.5997 -0.1049 -2.2961
   49MOL0     H 6551   0.711  10.430   6.722 -0.2766 -1.3886 -3.0409
   49MOL0     H 6552   0.914  10.405   6.594 -0.4458 -3.1497 -0.2674
   49MOL0     H 6553   0.990  10.332   6.732  1.3625  0.2155 -2.7374
   49MOL0     H 6554   1.032  10.555   6.830 -1.2016 -0.3310  0.7746
   49MOL0     H 6555   0.907  10.624   6.739 -0.0452  0.4230 -0.3100
   49MOL0     H 6556   1.052  10.567   6.527  0.6960  1.3138 -0.5914
   49MOL0     H 6557   1.103  10.687   6.647 -1.2776 -0.0792  0.6597
   49MOL0     H 6558   1.255  10.514   6.758 -0.3759 -0.0931  0.6822
   49MOL0     H 6559   1.192  10.396   6.645  2.6668 -0.0370 -0.3113
   49MOL0     H 6560   1.263  10.532   6.455 -0.1965 -0.3372  0.4859
   49MOL0     H 6561   1.358  10.641   6.563 -0.1685 -0.1216 -0.9642
   49MOL0     H 6562   1.376  10.333   6.547  0.9198 -0.0936  1.4387
   49MOL0     H 6563   1.476  10.427   6.654 -1.6465  0.2467  1.5524
   49MOL0     H 6564   1.484  10.423   6.350  0.4036  3.1700 -0.7559
   49MOL0     H 6565   1.576  10.545   6.450 -0.4429  0.6701  0.2387
   49MOL0     H 6566   1.745  10.413   6.651  0.0263 -1.5284  1.5084
   49MOL0     H 6567   1.857  10.096   6.702  0.1399  0.1665  0.0508
   49MOL0     H 6568   1.966  10.106   6.579 -0.9576  0.2545 -0.5807
   49MOL0     H 6569   1.990  10.375   6.684  2.6786  0.0789  0.4281
   49MOL0     H 6570   1.903  10.290   6.820  0.8074 -0.8828  1.4618
   49MOL0     H 6571   2.089  10.138   6.831 -4.8183  0.2099 -0.5474
   49MOL0     H 6572   2.135  10.310   6.866  0.6006 -0.1761  1.1068
   49MOL0     H 6573   2.222  10.312   6.630 -2.6336  0.3587  1.4531
   49MOL0     H 6574   2.196  10.141   6.621 -0.2230 -0.5549  1.3175
   49MOL0     H 6575   2.406  10.329   6.528 -0.8481 -1.4761 -1.2979
   49MOL0     H 6576   2.623  10.358   6.447  0.0697  1.3826  1.0482
   49MOL0     H 6577   3.040  10.393   6.578  1.2919  0.7562 -1.9312
   49MOL0     H 6578   3.268  10.460   6.567  0.4690 -0.1891 -0.5733
   49MOL0     H 6579   3.602  10.171   6.507 -2.6743 -0.0858  0.5036
   49MOL0     H 6580   3.525  10.205   6.354  0.5747  2.1520 -0.8553
   49MOL0     H 6581   3.768  10.301   6.351 -0.4012  0.8610 -0.7457
   49MOL0     H 6582   3.637  10.417   6.337 -1.4594 -0.9626 -0.9337
   49MOL0     H 6583   3.671  10.513   6.526  3.1046  2.9748 -0.8408
   49MOL0     H 6584   3.738  10.380   6.618 -2.3820  0.7894  0.3774
   49MOL0     H 6585   3.907  10.563   6.535  1.4414  0.6003 -1.4794
   49MOL0     H 6586   3.924  10.476   6.389  2.6207  2.5743  1.0199
   49MOL0     H 6587   3.985  10.275   6.523 -0.4103  1.1768 -2.8037
   49MOL0     H 6588   3.964  10.384   6.668 -1.5656 -0.1668 -1.0276
   49MOL0     H 6589   4.156  10.450   6.442 -0.1694  1.9509  0.6297
   49MOL0     H 6590   4.158  10.511   6.605 -1.4208  0.1858  0.5904
   49MOL0     H 6591   4.193  10.220   6.572 -2.5434  0.6006  0.9604
   49MOL0     H 6592   4.257  10.329   6.695  0.2072 -1.0804  0.4262
   49MOL0     H 6593   4.429  10.257   6.551  0.1863  0.4669  0.2504
   49MOL0     H 6594   4.343  10.307   6.399  0.4405 -0.2817  0.5621
   49MOL0     H 6595   3.404  10.060   6.493  1.5816 -0.5851  2.0449
   49MOL0     H 6596   3.163   9.981   6.514  2.5259  0.3753  0.5662
   49MOL0     H 6597   2.779  10.066   6.705  0.2804  1.9527 -0.5638
   49MOL0     H 6598   2.547  10.043   6.833  0.9930 -2.8546 -2.0626
   49MOL0     H 6599   0.860  10.327   7.148  0.6538  2.5871 -0.1109
   49MOL0     H 6600   0.712  10.309   7.331  0.8213  1.9813  0.2761
   49MOL0     H 6601   0.189  10.273   7.352 -0.7347  1.5958 -0.1548
   49MOL0     H 6602  -0.014  10.204   7.480  1.5732  0.9758 -2.3244
   49MOL0     H 6603  -0.156  10.070   7.583  0.5660 -1.1891  1.0138
   49MOL0     H 6604  -0.193  10.240   7.624  2.6612  0.6429 -1.3199
   49MOL0     H 6605  -0.239  10.002   7.822 -2.2329 -3.0737 -2.6338
   49MOL0     H 6606  -0.366  10.051   7.722  0.5903 -2.3834  0.2457
   49MOL0     H 6607  -0.230  10.247   7.911  2.1292 -3.8544  0.5959
   49MOL0     H 6608  -0.339  10.116   7.950  0.7811  1.6057  1.1150
   49MOL0     H 6609  -0.521  10.221   7.798 -1.8049  2.0315  0.0595
   49MOL0     H 6610  -0.488  10.281   7.952  1.5332 -1.4775 -0.1711
   49MOL0     H 6611  -0.361  10.593   7.681  4.5427  1.3109  1.6876
   49MOL0     H 6612   0.204  10.134   7.830  0.4052  1.5222  0.2464
   49MOL0     H 6613   0.515  10.175   7.741 -0.8030  1.0441  2.0985
   49MOL0     H 6614   0.409  10.049   7.804  2.8529 -1.3323  0.4183
   49MOL0     H 6615   0.469  10.029   7.642 -0.6426  1.1198 -0.3626
   50MOL0     O 6616   5.081   4.235  10.328  0.1864  0.1175 -0.0987
   50MOL0     C 6617   5.012   4.281  10.241 -0.1405 -0.4067  0.5334
   50MOL0     O 6618   5.058   4.344  10.134  0.5873 -0.5463 -0.4514
   50MOL0     C 6619   5.191   4.357  10.105 -0.5132  0.4670 -0.4904
   50MOL0     C 6620   5.277   4.245  10.122  0.3548  0.2587  0.2015
   50MOL0     C 6621   5.420   4.261  10.109 -0.1961  0.4033 -0.3016
   50MOL0     C 6622   5.468   4.385  10.075  0.3403  0.9039 -0.4569
   50MOL0     O 6623   5.600   4.413  10.054 -0.0234  0.2740 -0.1628
   50MOL0     C 6624   5.706   4.330  10.101  0.3109 -0.2782 -0.7921
   50MOL0     C 6625   5.826   4.410  10.070 -1.2140  0.1546  0.8547
   50MOL0     C 6626   5.951   4.325  10.102 -0.2625  0.6652  0.3054
   50MOL0     C 6627   5.980   4.312  10.255 -0.3869 -0.6504  0.3530
   50MOL0     C 6628   6.121   4.244  10.277 -0.7352 -0.0537  0.6877
   50MOL0     C 6629   6.164   4.247  10.420 -0.9647  0.1059  0.3460
   50MOL0     C 6630   6.221   4.383  10.476  0.2894 -0.5148  0.4578
   50MOL0     C 6631   6.250   4.373  10.632  0.6179  0.1682  0.9658
   50MOL0     N 6632   6.314   4.492  10.692  0.4910  0.9547 -0.0101
   50MOL0     C 6633   6.425   4.555  10.649 -0.3673 -0.1943  0.0570
   50MOL0     C 6634   6.438   4.658  10.737  0.4349  0.1998 -0.4186
   50MOL0     C 6635   6.541   4.767  10.761 -0.1447  0.2402 -0.5864
   50MOL0     C 6636   6.558   4.867  10.651 -0.1705  0.2814  0.1645
   50MOL0     C 6637   6.656   4.973  10.683  0.2780  0.0079 -0.2165
   50MOL0     C 6638   6.612   5.095  10.611 -0.0327 -0.1755  0.4068
   50MOL0     O 6639   6.713   5.200  10.638 -0.6102 -0.0169 -0.2079
   50MOL0     C 6640   6.781   5.261  10.537 -0.4111  0.4126  0.0216
   50MOL0     C 6641   6.885   5.192  10.472  0.3777  0.2138  0.1775
   50MOL0     C 6642   6.974   5.252  10.376  0.4968  0.4386  0.8569
   50MOL0     C 6643   6.947   5.386  10.343  0.3578  0.0768  0.1517
   50MOL0     C 6644   7.040   5.447  10.242 -0.0237 -0.0493  0.7939
   50MOL0     O 6645   7.146   5.358  10.197  0.0313  0.5176 -0.1001
   50MOL0     C 6646   7.235   5.392  10.104  0.5788 -0.2003  1.0009
   50MOL0     C 6647   7.361   5.338  10.120 -1.1857  0.3429  0.0146
   50MOL0     C 6648   7.464   5.350  10.032 -0.5929 -0.7184 -0.1387
   50MOL0     C 6649   7.442   5.425   9.911  0.3776 -0.6988  0.5011
   50MOL0     O 6650   7.550   5.434   9.822 -0.5980 -0.6527  0.6411
   50MOL0     C 6651   7.527   5.496   9.699 -0.1568  0.6424  0.1418
   50MOL0     C 6652   7.656   5.521   9.617  0.3429  0.3181  0.7165
   50MOL0     C 6653   7.759   5.598   9.692 -0.1470  0.0915  0.4745
   50MOL0     C 6654   7.883   5.613   9.604  0.1584  0.2054  0.0056
   50MOL0     C 6655   7.990   5.687   9.671  0.9737 -0.3528  0.3393
   50MOL0     C 6656   8.112   5.718   9.574 -0.1366 -0.2107 -0.7999
   50MOL0     C 6657   8.070   5.819   9.463  0.3579 -0.8547 -0.2645
   50MOL0     C 6658   8.186   5.898   9.400 -0.6027 -0.2446  0.1962
   50MOL0    Cl 6659   8.313   5.774   9.349  0.4113  0.0217 -0.0994
   50MOL0     C 6660   7.322   5.496   9.897  0.4863  0.7878  0.2806
   50MOL0     C 6661   7.219   5.471   9.988 -0.1336  0.2898 -0.6291
   50MOL0     O 6662   7.014   5.560  10.199 -0.4818 -0.1601 -0.3284
   50MOL0     C 6663   6.834   5.452  10.399  0.6938 -0.0515 -0.6239
   50MOL0     C 6664   6.749   5.387  10.488  0.6018 -0.5477  0.0206
   50MOL0     N 6665   6.347   4.645  10.842 -0.0789 -0.4565  0.8567
   50MOL0     N 6666   6.273   4.545  10.805 -0.0955 -0.0312 -0.5150
   50MOL0     C 6667   5.376   4.484  10.047 -0.4281  0.2641 -0.3579
   50MOL0     C 6668   5.234   4.481  10.067 -0.2976 -0.5364 -0.2342
   50MOL0     C 6669   4.862   4.254  10.245 -0.1422  0.9801  0.7242
   50MOL0     C 6670   4.815   4.171  10.354 -0.6877 -0.1949 -0.3739
   50MOL0     C 6671   4.678   4.131  10.360  0.0169  0.8210  0.2699
   50MOL0     C 6672   4.589   4.182  10.262  0.4414  0.2171  0.3553
   50MOL0     O 6673   4.460   4.138  10.252 -0.2572 -0.2996 -0.6044
   50MOL0     C 6674   4.387   4.103  10.371 -0.4207 -0.7213 -0.3926
   50MOL0     C 6675   4.352   3.961  10.348  0.0252  0.0578 -0.0035
   50MOL0     C 6676   4.252   3.937  10.232  0.1355 -0.5937  0.1948
   50MOL0     C 6677   4.224   3.793  10.207 -0.2457  0.6116  0.7661
   50MOL0     C 6678   4.099   3.761  10.138  0.5293 -0.1297 -0.5513
   50MOL0     C 6679   3.986   3.713  10.118  0.5374 -0.4503  1.7259
   50MOL0     C 6680   4.630   4.267  10.167 -0.2771  0.1028 -0.1557
   50MOL0     C 6681   4.767   4.297  10.146  0.0616  0.4249 -0.3984
   50MOL0     C 6682   4.790   4.385  10.024  0.5596  0.2887  0.2106
   50MOL0     H 6683   5.240   4.144  10.131 -0.5797  0.7418  2.4085
   50MOL0     H 6684   5.487   4.176  10.103 -0.9148 -0.0946 -2.0479
   50MOL0     H 6685   5.701   4.318  10.210 -1.9389  0.1887 -0.8009
   50MOL0     H 6686   5.704   4.235  10.045  0.1717  0.2816 -1.7550
   50MOL0     H 6687   5.827   4.503  10.128  3.5664  0.0891  1.2741
   50MOL0     H 6688   5.824   4.437   9.964 -3.1214 -2.4075  0.1192
   50MOL0     H 6689   6.038   4.383  10.069 -1.0634  0.7366 -1.8497
   50MOL0     H 6690   5.936   4.226  10.059 -1.6133  1.5371 -1.3420
   50MOL0     H 6691   5.982   4.416  10.288 -0.9796 -0.5685  0.1458
   50MOL0     H 6692   5.893   4.271  10.307 -1.8940  0.3633 -1.2753
   50MOL0     H 6693   6.098   4.142  10.247  1.0543  0.4973 -3.1255
   50MOL0     H 6694   6.191   4.290  10.207 -0.5850 -1.0823  0.1463
   50MOL0     H 6695   6.077   4.225  10.482 -0.6438  0.8410  1.0857
   50MOL0     H 6696   6.240   4.172  10.447 -1.5770 -1.4541 -2.0260
   50MOL0     H 6697   6.159   4.470  10.451 -0.2989 -1.0642 -0.0341
   50MOL0     H 6698   6.318   4.406  10.432 -0.7544  0.9393 -1.2011
   50MOL0     H 6699   6.158   4.349  10.687  0.4560  1.3477  1.2492
   50MOL0     H 6700   6.304   4.279  10.644 -1.4951 -1.0365  1.5718
   50MOL0     H 6701   6.485   4.533  10.562 -0.4007  1.4515 -0.4100
   50MOL0     H 6702   6.496   4.820  10.845  0.9629 -1.4900  1.1838
   50MOL0     H 6703   6.640   4.726  10.783 -0.9286 -0.8486  1.1523
   50MOL0     H 6704   6.581   4.819  10.556 -0.4060  1.2546 -0.3964
   50MOL0     H 6705   6.463   4.915  10.625  1.1764  2.2798 -1.3282
   50MOL0     H 6706   6.761   4.943  10.673  1.0228  1.8728  1.3853
   50MOL0     H 6707   6.653   5.001  10.789 -0.4046 -0.7885 -0.0151
   50MOL0     H 6708   6.512   5.132  10.636 -0.0978  0.4516 -0.6808
   50MOL0     H 6709   6.618   5.075  10.504 -1.2585 -0.9040  0.4636
   50MOL0     H 6710   6.906   5.089  10.499 -2.5622  0.0666  2.4616
   50MOL0     H 6711   7.056   5.191  10.340  1.2292  2.5414 -1.3096
   50MOL0     H 6712   7.374   5.275  10.208  0.9717 -1.3767 -1.4410
   50MOL0     H 6713   7.555   5.291  10.039 -0.2070  0.0727  2.4041
   50MOL0     H 6714   7.465   5.422   9.646 -1.0488  0.2712  1.6426
   50MOL0     H 6715   7.469   5.588   9.703 -4.2004 -1.7008  2.4267
   50MOL0     H 6716   7.680   5.423   9.574 -1.2903  1.1794 -2.4490
   50MOL0     H 6717   7.625   5.582   9.532 -0.1774 -1.3362 -0.3336
   50MOL0     H 6718   7.725   5.700   9.710  0.9098  0.2477  1.7226
   50MOL0     H 6719   7.766   5.557   9.793  0.0754  0.2487  0.5239
   50MOL0     H 6720   7.860   5.661   9.509  0.9149 -0.8789 -0.7453
   50MOL0     H 6721   7.914   5.510   9.582  1.2761  0.1731  1.6132
   50MOL0     H 6722   8.022   5.632   9.760  0.4940 -0.7426  0.2728
   50MOL0     H 6723   7.954   5.783   9.710  1.1788 -0.1545  0.0450
   50MOL0     H 6724   8.194   5.753   9.638  1.1838  2.1776 -3.5062
   50MOL0     H 6725   8.145   5.625   9.527  1.1287 -0.3533  0.3257
   50MOL0     H 6726   7.996   5.886   9.506  0.7485  0.6815 -1.8773
   50MOL0     H 6727   8.008   5.768   9.388 -2.1898 -1.1656  1.9075
   50MOL0     H 6728   8.137   5.962   9.327 -1.3080 -2.3014 -1.2067
   50MOL0     H 6729   8.237   5.964   9.472 -3.0737 -0.0550  1.8995
   50MOL0     H 6730   7.279   5.552   9.815 -1.4224 -0.7759  0.1338
   50MOL0     H 6731   7.115   5.502   9.982 -0.8009 -1.1241  1.9182
   50MOL0     H 6732   6.807   5.556  10.382 -2.3685 -0.5948  0.1829
   50MOL0     H 6733   6.660   5.435  10.529  1.0924 -0.0600  0.5237
   50MOL0     H 6734   5.423   4.582  10.037  1.5803 -0.1863  2.9898
   50MOL0     H 6735   5.172   4.570  10.056  0.2432  0.0836  1.4051
   50MOL0     H 6736   4.879   4.136  10.435 -4.8707 -2.3581  2.3253
   50MOL0     H 6737   4.643   4.067  10.440  0.2775 -1.7878 -1.5741
   50MOL0     H 6738   4.293   4.159  10.366  1.2022  2.1085 -3.3509
   50MOL0     H 6739   4.439   4.126  10.465 -0.8779 -0.8143 -0.1155
   50MOL0     H 6740   4.319   3.918  10.443  1.1025  0.4835  0.5862
   50MOL0     H 6741   4.442   3.902  10.330 -1.0078 -1.8965  0.9128
   50MOL0     H 6742   4.286   3.978  10.137  2.1239 -0.4656  0.9110
   50MOL0     H 6743   4.152   3.970  10.263 -1.3930 -1.8850 -2.9936
   50MOL0     H 6744   4.303   3.748  10.146  0.5222  1.1204  1.3763
   50MOL0     H 6745   4.221   3.740  10.303  0.1189 -1.2185 -0.1779
   50MOL0     H 6746   3.891   3.674  10.089  0.7046 -1.0005  1.9142
   50MOL0     H 6747   4.558   4.318  10.105 -1.6019 -0.4483  0.8935
   50MOL0     H 6748   4.843   4.325   9.948 -3.1733 -1.8564 -0.9611
   50MOL0     H 6749   4.703   4.427   9.973  0.5469 -2.6990 -2.5470
   50MOL0     H 6750   4.847   4.473  10.056 -1.4907  1.5091  0.6623
   51MOL0     O 6751   4.439   7.866   1.747 -0.3555 -0.4039 -0.0601
   51MOL0     C 6752   4.457   7.868   1.872  0.2487  0.3367  0.5014
   51MOL0     O 6753   4.363   7.919   1.955  0.3179  0.3282 -0.2526
   51MOL0     C 6754   4.248   7.970   1.899  1.1802  0.3897 -0.0683
   51MOL0     C 6755   4.242   8.065   1.793 -0.3898  0.3304 -0.1143
   51MOL0     C 6756   4.121   8.121   1.748  0.0264 -0.8457 -0.3290
   51MOL0     C 6757   3.992   8.079   1.796 -0.1325  0.6028  0.2363
   51MOL0     O 6758   3.870   8.121   1.745 -0.6043 -0.0894  0.6417
   51MOL0     C 6759   3.872   8.228   1.650  0.3027  0.5192 -0.0147
   51MOL0     C 6760   3.730   8.272   1.638 -0.4717 -0.3989  0.8511
   51MOL0     C 6761   3.631   8.163   1.618  0.2144 -0.4835  0.3633
   51MOL0     C 6762   3.496   8.206   1.563 -0.6267 -0.6155 -0.2056
   51MOL0     C 6763   3.397   8.091   1.543  0.3236 -0.0812 -0.8014
   51MOL0     C 6764   3.256   8.126   1.478 -0.4105  0.3106 -0.0684
   51MOL0     C 6765   3.143   8.126   1.572 -0.2481 -0.4242 -0.1615
   51MOL0     C 6766   3.013   8.087   1.506 -0.2245 -0.0454  1.0956
   51MOL0     N 6767   2.902   8.053   1.591  0.2195  0.4350 -0.3965
   51MOL0     C 6768   2.773   8.104   1.583  0.1247  0.6326  0.2600
   51MOL0     C 6769   2.696   8.009   1.643  0.5885 -0.4247 -0.1087
   51MOL0     C 6770   2.544   8.018   1.674  0.1565  0.0504  0.4642
   51MOL0     C 6771   2.506   8.139   1.761  0.6503  0.0251 -0.0878
   51MOL0     C 6772   2.484   8.101   1.912 -1.0491  0.4102 -0.6298
   51MOL0     C 6773   2.603   8.056   1.991  0.8530 -0.2672 -0.6398
   51MOL0     O 6774   2.706   8.154   1.974  0.5342  0.0788 -0.4035
   51MOL0     C 6775   2.836   8.131   2.020 -0.5104  0.2997  0.5744
   51MOL0     C 6776   2.937   8.198   1.955 -0.6423 -0.4109 -0.5234
   51MOL0     C 6777   3.073   8.175   1.993 -0.0569  0.1760 -0.6475
   51MOL0     C 6778   3.098   8.095   2.112 -0.0178  0.0158  0.3682
   51MOL0     C 6779   3.241   8.087   2.156 -0.0611 -0.2361  1.4197
   51MOL0     O 6780   3.336   8.128   2.073 -0.4901 -0.0330  0.1034
   51MOL0     C 6781   3.467   8.171   2.108  0.2815  0.4479  0.9411
   51MOL0     C 6782   3.502   8.194   2.233 -0.9273 -1.1323 -0.5229
   51MOL0     C 6783   3.636   8.234   2.263  0.4346  0.1385  0.5085
   51MOL0     C 6784   3.731   8.260   2.162  0.7854  0.8096  0.0318
   51MOL0     O 6785   3.851   8.305   2.200 -0.0720  0.7221  0.0199
   51MOL0     C 6786   3.971   8.261   2.141  0.4832  0.3664  0.5476
   51MOL0     C 6787   4.095   8.331   2.207  0.2041  0.5517  0.8417
   51MOL0     C 6788   4.235   8.290   2.149  0.2846 -0.3251  0.6037
   51MOL0     C 6789   4.350   8.360   2.218  0.5229 -0.4597  0.8135
   51MOL0     C 6790   4.482   8.300   2.203 -1.4772 -0.0057  0.3071
   51MOL0     C 6791   4.536   8.296   2.054  0.1254 -0.0054  0.0675
   51MOL0     C 6792   4.683   8.271   2.052  0.9283 -0.4690  0.2484
   51MOL0     C 6793   4.726   8.202   1.928  0.7496  0.3323  0.0726
   51MOL0    Cl 6794   4.894   8.224   1.880 -0.2815  0.3216  0.3769
   51MOL0     C 6795   3.699   8.223   2.029 -0.3731 -0.0195  0.0984
   51MOL0     C 6796   3.567   8.180   2.005 -0.8974  0.6450  0.7578
   51MOL0     O 6797   3.262   8.039   2.263  0.1438 -0.3950 -0.3061
   51MOL0     C 6798   2.992   8.033   2.173  0.0964  0.0648 -0.4113
   51MOL0     C 6799   2.862   8.049   2.135 -0.2704  0.9501 -0.2928
   51MOL0     N 6800   2.777   7.897   1.682  0.2377 -0.0360  0.2378
   51MOL0     N 6801   2.895   7.928   1.644 -0.4944  0.1217 -0.2871
   51MOL0     C 6802   4.003   8.000   1.912  0.1639 -1.0213  0.4927
   51MOL0     C 6803   4.123   7.940   1.962 -0.2910  0.0065  0.7421
   51MOL0     C 6804   4.588   7.813   1.930  0.2205 -0.3852  0.1182
   51MOL0     C 6805   4.605   7.840   2.067  0.5384 -0.1468  0.0761
   51MOL0     C 6806   4.718   7.813   2.141  0.4702  1.0078 -0.8423
   51MOL0     C 6807   4.833   7.775   2.070  0.5332  0.0340  0.8155
   51MOL0     O 6808   4.952   7.749   2.124 -0.3187 -0.1200 -0.4876
   51MOL0     C 6809   5.029   7.859   2.186  0.7487  0.7320 -0.4270
   51MOL0     C 6810   5.148   7.884   2.098 -0.6141 -0.2770 -0.3371
   51MOL0     C 6811   5.250   7.775   2.081  0.3841  0.4729 -0.5361
   51MOL0     C 6812   5.350   7.806   1.974  0.1794 -0.8452  0.4603
   51MOL0     C 6813   5.415   7.942   1.972  0.5819  0.4689 -0.5803
   51MOL0     C 6814   5.464   8.053   1.970  1.0032 -0.1588 -0.3053
   51MOL0     C 6815   4.819   7.750   1.937 -0.0603 -0.0198  0.3620
   51MOL0     C 6816   4.705   7.762   1.864  0.2879 -0.1825  0.2640
   51MOL0     C 6817   4.704   7.732   1.713  0.4791  0.1833 -0.0927
   51MOL0     H 6818   4.332   8.101   1.744  0.2534  0.3044  1.0161
   51MOL0     H 6819   4.135   8.193   1.668  0.5026 -0.5707 -0.0054
   51MOL0     H 6820   3.935   8.312   1.682  0.8962 -0.4869  1.6403
   51MOL0     H 6821   3.903   8.181   1.557  0.2928 -1.1836  0.8038
   51MOL0     H 6822   3.723   8.340   1.552  1.4331  0.0034  0.9770
   51MOL0     H 6823   3.712   8.320   1.735  2.6996 -1.5855  2.1751
   51MOL0     H 6824   3.609   8.118   1.715  0.1348 -1.2629 -0.0060
   51MOL0     H 6825   3.674   8.086   1.553 -2.4005 -0.3770 -1.6913
   51MOL0     H 6826   3.456   8.275   1.637 -1.4991 -1.8986  0.5759
   51MOL0     H 6827   3.504   8.259   1.468 -0.7922 -0.5385 -0.1773
   51MOL0     H 6828   3.445   8.025   1.471 -1.1667 -1.7794 -0.3086
   51MOL0     H 6829   3.381   8.028   1.631 -0.1748  2.0433  0.7211
   51MOL0     H 6830   3.263   8.222   1.425  1.9847  0.1831 -0.0876
   51MOL0     H 6831   3.241   8.040   1.412  0.6381  1.4620 -1.8935
   51MOL0     H 6832   3.128   8.223   1.621  1.2275 -0.5009  0.5020
   51MOL0     H 6833   3.165   8.061   1.657 -0.1052 -0.4619 -0.2262
   51MOL0     H 6834   2.975   8.164   1.439 -1.2835 -2.3400 -1.0917
   51MOL0     H 6835   3.030   8.006   1.434  0.4314 -1.4480  2.7542
   51MOL0     H 6836   2.749   8.201   1.539  2.1195  1.3801  0.7018
   51MOL0     H 6837   2.493   8.021   1.578  1.5590  0.4041 -0.3062
   51MOL0     H 6838   2.510   7.927   1.723  4.6235 -2.5393 -0.6526
   51MOL0     H 6839   2.578   8.221   1.762 -1.3923  1.9217  1.9231
   51MOL0     H 6840   2.413   8.178   1.720 -1.0710 -2.0851  1.5118
   51MOL0     H 6841   2.408   8.022   1.912 -0.0250 -0.6053 -1.4017
   51MOL0     H 6842   2.437   8.180   1.972  0.0563 -2.5983  4.8258
   51MOL0     H 6843   2.635   7.960   1.949 -0.6091 -0.2733 -1.8141
   51MOL0     H 6844   2.570   8.035   2.094 -1.1448 -3.6603 -1.7821
   51MOL0     H 6845   2.915   8.254   1.864  1.8902  0.2333 -0.8279
   51MOL0     H 6846   3.155   8.223   1.942  0.8271 -0.0280  0.5414
   51MOL0     H 6847   3.432   8.190   2.316 -0.6259 -1.7300 -0.2908
   51MOL0     H 6848   3.658   8.242   2.369 -2.0865  0.4842  1.0659
   51MOL0     H 6849   3.987   8.154   2.154  0.0761  0.2632  0.2050
   51MOL0     H 6850   3.977   8.269   2.032  0.0938 -3.1996  0.1502
   51MOL0     H 6851   4.078   8.438   2.192 -1.3853  0.5071  2.0031
   51MOL0     H 6852   4.085   8.308   2.313  0.0836  2.0611  1.1756
   51MOL0     H 6853   4.250   8.185   2.176  0.0967 -0.7489 -0.8572
   51MOL0     H 6854   4.236   8.295   2.040  4.4301 -1.8840  0.3534
   51MOL0     H 6855   4.323   8.383   2.322 -1.2603 -0.0612  0.3024
   51MOL0     H 6856   4.350   8.452   2.159 -1.6557 -1.9889 -1.8348
   51MOL0     H 6857   4.475   8.198   2.241 -2.6098  0.2490  0.8228
   51MOL0     H 6858   4.560   8.350   2.262 -0.6242 -0.7695 -0.1588
   51MOL0     H 6859   4.480   8.221   1.998  0.7396  1.0907 -2.1453
   51MOL0     H 6860   4.511   8.398   2.024  0.8464  0.3596  0.6506
   51MOL0     H 6861   4.724   8.217   2.138  0.3564  0.3924  1.0947
   51MOL0     H 6862   4.726   8.372   2.049  1.3476 -0.6791 -1.2583
   51MOL0     H 6863   4.706   8.096   1.941 -4.7603  0.8138 -2.0863
   51MOL0     H 6864   4.671   8.248   1.845 -0.6355  0.1236  0.8557
   51MOL0     H 6865   3.775   8.228   1.951  0.0198 -0.2300  0.4618
   51MOL0     H 6866   3.540   8.142   1.907  0.7514 -0.7384  0.7890
   51MOL0     H 6867   3.007   7.961   2.253  1.3903  2.6283  1.7905
   51MOL0     H 6868   2.791   7.984   2.186 -1.0017  0.3196 -2.0595
   51MOL0     H 6869   3.904   7.971   1.945 -1.6575 -2.4213 -5.1185
   51MOL0     H 6870   4.117   7.886   2.056 -1.0207 -0.3520  0.4902
   51MOL0     H 6871   4.520   7.872   2.128  0.3158 -1.7908  0.6815
   51MOL0     H 6872   4.708   7.829   2.248  0.0184  2.9921 -1.1438
   51MOL0     H 6873   5.052   7.838   2.291  1.9026 -1.1988 -1.0029
   51MOL0     H 6874   4.971   7.951   2.195  0.4149  0.4677  0.2073
   51MOL0     H 6875   5.192   7.975   2.139 -1.8932 -0.3016  1.1961
   51MOL0     H 6876   5.109   7.898   1.997 -1.0744 -2.4708 -0.5112
   51MOL0     H 6877   5.209   7.675   2.065 -1.3143  0.3684  3.2234
   51MOL0     H 6878   5.301   7.773   2.178  0.9984  1.7171 -0.8143
   51MOL0     H 6879   5.423   7.725   1.981 -1.1911 -2.0274  1.6775
   51MOL0     H 6880   5.298   7.783   1.880 -0.5046  1.0794  0.3396
   51MOL0     H 6881   5.494   8.156   1.962 -0.5555  0.8153  3.8611
   51MOL0     H 6882   4.898   7.707   1.876 -0.3251  0.6591 -0.4673
   51MOL0     H 6883   4.796   7.678   1.689  2.7413  1.8702  3.7855
   51MOL0     H 6884   4.616   7.677   1.679 -0.1056  1.5404 -0.8333
   51MOL0     H 6885   4.707   7.830   1.666 -2.2631  0.8297  0.9291
   52MOL0     O 6886   4.951   8.685   0.410  0.3508 -0.5231  0.3770
   52MOL0     C 6887   4.924   8.633   0.301 -0.6359 -0.3231  0.0588
   52MOL0     O 6888   4.992   8.644   0.184  0.3722 -0.7692 -0.5267
   52MOL0     C 6889   5.110   8.707   0.177  0.1686  0.3304 -0.5265
   52MOL0     C 6890   5.099   8.842   0.198 -0.0820 -0.2371 -0.3701
   52MOL0     C 6891   5.206   8.926   0.187  0.2006 -0.5404 -0.7041
   52MOL0     C 6892   5.334   8.878   0.148  0.4793  0.5413 -0.4734
   52MOL0     O 6893   5.430   8.975   0.145 -1.1833  0.2594  0.1739
   52MOL0     C 6894   5.564   8.953   0.103 -0.1854  0.1523  0.6343
   52MOL0     C 6895   5.662   9.053   0.169  0.6750  0.9673  1.5019
   52MOL0     C 6896   5.687   9.030   0.317  0.1259  0.3215  0.2905
   52MOL0     C 6897   5.799   9.117   0.385  0.7214  0.3812  0.2717
   52MOL0     C 6898   5.822   9.071   0.532 -0.0865  0.6554  0.2667
   52MOL0     C 6899   5.700   9.111   0.620 -0.3631 -0.1828 -0.5478
   52MOL0     C 6900   5.744   9.092   0.771 -0.2536  0.1901 -0.1980
   52MOL0     C 6901   5.638   9.145   0.862  0.3932 -0.2108  0.3569
   52MOL0     N 6902   5.696   9.143   0.997 -0.0785 -0.1937 -0.0995
   52MOL0     C 6903   5.762   9.251   1.052 -0.2878  0.3898  0.4776
   52MOL0     C 6904   5.814   9.203   1.168  0.7304  0.8263 -1.3527
   52MOL0     C 6905   5.904   9.282   1.258 -0.8511 -0.0812  0.1800
   52MOL0     C 6906   6.050   9.293   1.192 -0.2761 -0.1372  0.0051
   52MOL0     C 6907   6.150   9.359   1.297 -0.9308 -0.0858  0.2964
   52MOL0     C 6908   6.291   9.330   1.251  0.1850 -0.4479 -0.7046
   52MOL0     O 6909   6.384   9.398   1.344 -0.0375 -0.1895  0.5119
   52MOL0     C 6910   6.520   9.390   1.321  0.3050 -0.1586  0.7019
   52MOL0     C 6911   6.579   9.305   1.222 -0.5947  0.4131 -0.0133
   52MOL0     C 6912   6.721   9.291   1.219  0.0213 -0.2063 -0.5560
   52MOL0     C 6913   6.800   9.379   1.294  0.1534  0.2882 -0.5031
   52MOL0     C 6914   6.945   9.362   1.304 -0.1366  0.0442 -0.2559
   52MOL0     O 6915   7.030   9.460   1.364 -0.4240  0.1125  0.1206
   52MOL0     C 6916   7.164   9.431   1.362  0.1010 -0.5413  0.0320
   52MOL0     C 6917   7.236   9.437   1.246  0.6907 -0.0886  0.6031
   52MOL0     C 6918   7.371   9.406   1.242 -0.0709 -0.7442 -0.4241
   52MOL0     C 6919   7.445   9.389   1.354  0.3371  0.2934  0.4184
   52MOL0     O 6920   7.582   9.380   1.341  0.4820 -0.4538 -0.3295
   52MOL0     C 6921   7.635   9.245   1.354 -0.0402  0.9126 -0.6739
   52MOL0     C 6922   7.789   9.245   1.363 -0.1320 -0.3126 -0.1704
   52MOL0     C 6923   7.860   9.281   1.233  0.2319 -0.0669 -0.0252
   52MOL0     C 6924   8.007   9.290   1.246  0.2924  0.8341  0.9045
   52MOL0     C 6925   8.067   9.315   1.119 -0.5530  0.1429  0.0290
   52MOL0     C 6926   8.223   9.338   1.135  0.4592  0.1801 -0.8237
   52MOL0     C 6927   8.298   9.313   1.005  0.8037  0.5317 -0.3846
   52MOL0     C 6928   8.448   9.310   1.027  0.1553 -0.2306  0.4840
   52MOL0    Cl 6929   8.518   9.457   1.101 -0.0588 -0.1777 -0.1235
   52MOL0     C 6930   7.374   9.386   1.479 -0.1896  0.5134 -0.0986
   52MOL0     C 6931   7.233   9.407   1.481  0.3485  0.1908  0.0626
   52MOL0     O 6932   6.980   9.250   1.270  0.2626  0.0385 -0.2232
   52MOL0     C 6933   6.738   9.476   1.381 -0.3221 -0.0170  0.9647
   52MOL0     C 6934   6.600   9.479   1.389 -0.3573 -0.3420 -0.6932
   52MOL0     N 6935   5.762   9.081   1.201  0.5550  0.4438 -0.2614
   52MOL0     N 6936   5.690   9.048   1.097 -0.6526 -0.0888  0.1326
   52MOL0     C 6937   5.342   8.736   0.124  0.4185  0.2616  0.1650
   52MOL0     C 6938   5.233   8.652   0.133 -0.1509 -0.2847 -0.1101
   52MOL0     C 6939   4.804   8.544   0.289 -0.6144 -0.3909  0.4184
   52MOL0     C 6940   4.706   8.568   0.189 -0.0029  0.0885  0.6439
   52MOL0     C 6941   4.600   8.474   0.161 -0.4651  0.3087  0.4888
   52MOL0     C 6942   4.605   8.357   0.228  0.4241  0.8623 -0.5508
   52MOL0     O 6943   4.513   8.255   0.195  0.4087 -0.3939  0.4415
   52MOL0     C 6944   4.447   8.250   0.062 -0.0528 -0.4529 -0.5120
   52MOL0     C 6945   4.317   8.317   0.076 -0.3326  0.4959 -0.1072
   52MOL0     C 6946   4.242   8.274   0.199 -0.1522  0.2790 -0.5538
   52MOL0     C 6947   4.260   8.369   0.315 -0.0249 -0.9389 -0.5219
   52MOL0     C 6948   4.201   8.318   0.439 -0.5747  1.0870  0.2288
   52MOL0     C 6949   4.162   8.306   0.554  0.0647  1.6950 -0.8265
   52MOL0     C 6950   4.691   8.329   0.337  0.1725  0.1482  0.3962
   52MOL0     C 6951   4.797   8.422   0.362  0.4224 -0.4147 -0.0222
   52MOL0     C 6952   4.880   8.396   0.483 -0.0703 -0.1339  0.2899
   52MOL0     H 6953   5.009   8.891   0.235 -0.2072 -0.5945 -0.1928
   52MOL0     H 6954   5.193   9.033   0.200 -0.3673 -0.7184  0.2599
   52MOL0     H 6955   5.591   8.853   0.137  1.5566  0.2682 -0.3212
   52MOL0     H 6956   5.564   8.967  -0.005 -0.1326 -2.3863  0.2442
   52MOL0     H 6957   5.617   9.152   0.155 -2.7495 -0.6114  0.0587
   52MOL0     H 6958   5.757   9.046   0.115 -0.6038 -0.5401 -0.7065
   52MOL0     H 6959   5.721   8.928   0.334 -1.6134  0.0850  3.0078
   52MOL0     H 6960   5.595   9.054   0.371 -1.2835 -0.5655 -1.5980
   52MOL0     H 6961   5.889   9.111   0.323 -0.0636  0.7017 -0.9171
   52MOL0     H 6962   5.759   9.219   0.389  1.1334  0.5163  2.7445
   52MOL0     H 6963   5.832   8.962   0.541  0.9162  0.8248  1.5461
   52MOL0     H 6964   5.915   9.115   0.569 -0.0368 -0.2753  1.3365
   52MOL0     H 6965   5.676   9.215   0.599  0.2641 -0.1636 -1.1719
   52MOL0     H 6966   5.610   9.051   0.603 -1.0303  0.6989 -0.2004
   52MOL0     H 6967   5.836   9.147   0.794 -0.7614  0.3054  1.7417
   52MOL0     H 6968   5.757   8.984   0.779  0.9604  0.3070 -0.3984
   52MOL0     H 6969   5.606   9.244   0.828  1.5111  0.0179 -0.0855
   52MOL0     H 6970   5.543   9.091   0.854 -1.3574  2.8958 -1.9584
   52MOL0     H 6971   5.782   9.344   1.001 -0.6835  0.4682  0.4701
   52MOL0     H 6972   5.849   9.376   1.263  0.9086  1.0263 -0.2582
   52MOL0     H 6973   5.909   9.234   1.356  2.4209 -0.9375 -0.2711
   52MOL0     H 6974   6.092   9.193   1.178  1.0928 -0.2134  3.5842
   52MOL0     H 6975   6.047   9.349   1.098 -2.2044 -0.6006 -0.2503
   52MOL0     H 6976   6.134   9.313   1.395  1.6197 -1.6054  0.0796
   52MOL0     H 6977   6.130   9.467   1.307 -0.1798  0.2034 -1.1825
   52MOL0     H 6978   6.311   9.366   1.149  0.4970  0.8259 -0.2243
   52MOL0     H 6979   6.325   9.227   1.251  3.4754  0.4972 -2.2172
   52MOL0     H 6980   6.515   9.236   1.169 -1.7977 -0.0829  1.9794
   52MOL0     H 6981   6.771   9.210   1.167 -1.1027 -1.9156  0.9182
   52MOL0     H 6982   7.195   9.476   1.154  1.4832  0.9490  0.6714
   52MOL0     H 6983   7.432   9.417   1.153  0.0916 -3.8483 -0.8055
   52MOL0     H 6984   7.596   9.207   1.449  2.8152  1.6209  0.8983
   52MOL0     H 6985   7.609   9.185   1.267  0.3794 -1.0506  0.4918
   52MOL0     H 6986   7.831   9.297   1.450  1.3277 -3.5811  1.2124
   52MOL0     H 6987   7.809   9.138   1.373  2.1077  0.2759  3.0367
   52MOL0     H 6988   7.823   9.221   1.150  0.1751  1.3351 -1.0553
   52MOL0     H 6989   7.822   9.380   1.205  3.3437  1.1572 -0.3671
   52MOL0     H 6990   8.041   9.194   1.286 -0.3025 -1.5407 -3.5774
   52MOL0     H 6991   8.032   9.370   1.316  0.0423  3.7933 -2.1531
   52MOL0     H 6992   8.022   9.408   1.082 -0.8761  1.0023  2.3823
   52MOL0     H 6993   8.053   9.237   1.044  2.8931 -2.0139  1.3967
   52MOL0     H 6994   8.241   9.437   1.178 -0.3304 -0.2917  0.6517
   52MOL0     H 6995   8.258   9.271   1.214 -4.0765 -0.0218  1.3371
   52MOL0     H 6996   8.275   9.396   0.938  0.7424  0.8905  0.0795
   52MOL0     H 6997   8.266   9.220   0.958 -1.2362 -0.6284  2.9711
   52MOL0     H 6998   8.472   9.227   1.094  1.9433  0.5032  0.8089
   52MOL0     H 6999   8.500   9.293   0.932 -2.8553  0.0161 -1.3700
   52MOL0     H 7000   7.434   9.374   1.568 -0.2169  1.8316  0.1212
   52MOL0     H 7001   7.182   9.397   1.576 -1.0802 -0.2157 -0.7253
   52MOL0     H 7002   6.781   9.556   1.441  0.6535  0.2441 -0.0464
   52MOL0     H 7003   6.550   9.538   1.465 -3.3128 -3.0265 -0.3345
   52MOL0     H 7004   5.436   8.695   0.086  1.0989  2.0410 -0.1692
   52MOL0     H 7005   5.252   8.547   0.113  0.1591 -1.3371  4.5805
   52MOL0     H 7006   4.708   8.657   0.127 -0.3820 -1.6782 -2.0874
   52MOL0     H 7007   4.517   8.493   0.094 -0.0816  0.7902  0.1437
   52MOL0     H 7008   4.442   8.142   0.045  1.5668 -1.3481  3.4739
   52MOL0     H 7009   4.512   8.288  -0.017 -3.1091  2.6702 -1.7911
   52MOL0     H 7010   4.256   8.293  -0.012 -1.4864  0.8630  0.5669
   52MOL0     H 7011   4.331   8.425   0.077 -2.4186  0.8112 -0.0441
   52MOL0     H 7012   4.254   8.167   0.220  1.3795 -0.3613 -4.0032
   52MOL0     H 7013   4.135   8.275   0.177 -0.6744 -2.4352  1.3704
   52MOL0     H 7014   4.362   8.377   0.354  0.0801  3.4783 -1.1182
   52MOL0     H 7015   4.233   8.473   0.294 -0.7560 -0.9952  0.1217
   52MOL0     H 7016   4.128   8.313   0.656 -0.4535  3.4544 -1.0899
   52MOL0     H 7017   4.687   8.237   0.394  1.8869  0.2527  0.7285
   52MOL0     H 7018   4.897   8.491   0.534  1.0983 -1.3593  2.3252
   52MOL0     H 7019   4.839   8.319   0.548 -1.4180  1.6657  1.6857
   52MOL0     H 7020   4.978   8.361   0.450 -0.6358 -1.5094 -0.0069
   53MOL0     O 7021  10.303   2.427   0.172 -0.1283  0.3797 -0.5482
   53MOL0     C 7022  10.239   2.389   0.267 -0.5477  0.1572 -0.0541
   53MOL0     O 7023  10.292   2.346   0.397  0.2055  0.9559  0.2079
   53MOL0     C 7024  10.428   2.354   0.425  0.7832  0.4930 -0.1180
   53MOL0     C 7025  10.451   2.367   0.559 -0.6307 -0.6248 -0.4460
   53MOL0     C 7026  10.585   2.376   0.605 -0.5479  0.2588  0.1717
   53MOL0     C 7027  10.691   2.380   0.520 -0.0725  0.7871  1.2435
   53MOL0     O 7028  10.823   2.382   0.558 -0.2026  0.2908  0.5828
   53MOL0     C 7029  10.872   2.353   0.691  0.8940  0.4702 -0.5174
   53MOL0     C 7030  10.959   2.472   0.724 -0.2953 -0.2900 -0.2452
   53MOL0     C 7031  10.888   2.598   0.767  0.4758  0.8964  0.5259
   53MOL0     C 7032  10.982   2.729   0.782  0.4027  1.0143  0.3596
   53MOL0     C 7033  11.092   2.740   0.671  0.2080 -0.1958  0.5119
   53MOL0     C 7034  11.184   2.852   0.707 -0.3911  0.1733  0.5191
   53MOL0     C 7035  11.318   2.831   0.640 -0.1968  0.2688 -0.7331
   53MOL0     C 7036  11.407   2.738   0.721 -0.1770 -0.1731 -0.2491
   53MOL0     N 7037  11.509   2.688   0.636 -0.2107 -0.4545  0.2297
   53MOL0     C 7038  11.649   2.674   0.666  0.2610 -0.0979  0.8890
   53MOL0     C 7039  11.704   2.603   0.559 -1.2710  0.6481 -0.5174
   53MOL0     C 7040  11.839   2.549   0.525 -1.1763 -0.1542  0.0885
   53MOL0     C 7041  11.950   2.629   0.602 -0.3326  0.9873  1.0363
   53MOL0     C 7042  12.079   2.537   0.599  0.1046 -1.2669 -0.6233
   53MOL0     C 7043  12.203   2.614   0.632  0.0967 -0.4485 -0.2186
   53MOL0     O 7044  12.298   2.503   0.647  0.7457 -0.0513 -0.0532
   53MOL0     C 7045  12.424   2.535   0.683 -0.4281 -0.1467  0.3198
   53MOL0     C 7046  12.509   2.425   0.700  0.2999 -0.4411  0.8128
   53MOL0     C 7047  12.647   2.431   0.714 -0.2384 -0.2270  0.9722
   53MOL0     C 7048  12.706   2.557   0.724 -0.3384 -0.0550 -0.6297
   53MOL0     C 7049  12.846   2.577   0.749  0.0502  0.7820  0.0687
   53MOL0     O 7050  12.891   2.706   0.728  0.0552  0.0872 -0.1191
   53MOL0     C 7051  13.025   2.716   0.710 -0.9205 -0.5316  0.1651
   53MOL0     C 7052  13.117   2.649   0.622 -0.9589  0.2622 -1.0005
   53MOL0     C 7053  13.263   2.662   0.625  0.2425  0.2609 -1.0205
   53MOL0     C 7054  13.312   2.764   0.710 -0.7325  0.4646  0.4440
   53MOL0     O 7055  13.445   2.793   0.735 -0.3108 -0.4462 -0.0283
   53MOL0     C 7056  13.542   2.718   0.663  0.2574 -0.6056 -0.1806
   53MOL0     C 7057  13.669   2.787   0.702 -0.9602 -0.0930  0.2329
   53MOL0     C 7058  13.796   2.708   0.656 -0.1327  0.0188  0.0386
   53MOL0     C 7059  13.932   2.756   0.702  0.2049 -0.8914  0.8617
   53MOL0     C 7060  14.040   2.732   0.591  0.5164  0.5413  0.4033
   53MOL0     C 7061  14.176   2.745   0.656 -0.2216  0.4133  0.3372
   53MOL0     C 7062  14.221   2.605   0.716 -0.2321  0.5835  0.2787
   53MOL0     C 7063  14.355   2.616   0.791  0.0517 -0.3822 -0.3366
   53MOL0    Cl 7064  14.320   2.708   0.936 -0.4371 -0.1211  0.1769
   53MOL0     C 7065  13.222   2.833   0.794  0.0242 -0.1761  0.0323
   53MOL0     C 7066  13.084   2.807   0.800 -0.6433  0.3268  0.6983
   53MOL0     O 7067  12.914   2.471   0.769 -0.1830 -0.8387  0.5559
   53MOL0     C 7068  12.624   2.669   0.711  0.4938 -0.0833  0.3673
   53MOL0     C 7069  12.481   2.665   0.690 -0.1002 -0.0222  0.3590
   53MOL0     N 7070  11.602   2.584   0.470 -0.0411  0.5802  0.5996
   53MOL0     N 7071  11.486   2.627   0.516 -0.0859  0.4422  0.3147
   53MOL0     C 7072  10.668   2.367   0.387 -0.5798 -0.5855 -0.0908
   53MOL0     C 7073  10.535   2.361   0.342 -0.8198 -0.3879 -0.4605
   53MOL0     C 7074  10.089   2.372   0.240 -0.3046 -0.1347 -0.0691
   53MOL0     C 7075  10.014   2.305   0.339 -0.0776 -0.1363  0.1175
   53MOL0     C 7076   9.879   2.271   0.316  0.2846 -0.2390  0.2693
   53MOL0     C 7077   9.815   2.311   0.204  0.1792  0.3456 -0.3039
   53MOL0     O 7078   9.682   2.272   0.214 -0.0139 -0.5592 -0.2553
   53MOL0     C 7079   9.617   2.271   0.086 -0.7750  0.1351 -0.3018
   53MOL0     C 7080   9.457   2.262   0.094 -0.2197 -0.3695 -0.5282
   53MOL0     C 7081   9.419   2.198  -0.031 -0.0984  0.1377 -0.0922
   53MOL0     C 7082   9.265   2.193  -0.033  0.3335  0.7553 -0.7749
   53MOL0     C 7083   9.227   2.082  -0.120  0.6475 -0.9567 -0.5200
   53MOL0     C 7084   9.187   1.996  -0.194 -1.3405 -0.0538 -0.4284
   53MOL0     C 7085   9.891   2.367   0.101  0.0088 -1.1214  0.4892
   53MOL0     C 7086  10.022   2.407   0.122  0.4993 -0.5573 -0.2035
   53MOL0     C 7087  10.081   2.484   0.002 -0.2477  0.2282  0.2839
   53MOL0     H 7088  10.363   2.365   0.623  1.6220  1.7393  3.1444
   53MOL0     H 7089  10.599   2.405   0.709 -0.2686  1.5286 -0.2029
   53MOL0     H 7090  10.804   2.330   0.774  0.6696 -2.2780 -1.3535
   53MOL0     H 7091  10.923   2.257   0.681 -2.6592 -1.7720  1.0472
   53MOL0     H 7092  11.011   2.491   0.629 -0.8019  1.1984 -0.2466
   53MOL0     H 7093  11.029   2.441   0.802  0.8950  1.8240 -0.4208
   53MOL0     H 7094  10.836   2.580   0.861 -2.5075 -3.5563 -1.6576
   53MOL0     H 7095  10.815   2.624   0.690  1.0143  0.7934 -0.0320
   53MOL0     H 7096  10.916   2.816   0.781 -3.4827 -1.6647 -2.2098
   53MOL0     H 7097  11.041   2.708   0.871  1.2226 -2.9455 -0.9339
   53MOL0     H 7098  11.153   2.650   0.665  0.6671  0.1904 -1.3651
   53MOL0     H 7099  11.035   2.750   0.578 -0.2211  0.3296  0.8239
   53MOL0     H 7100  11.134   2.945   0.677  3.3679  1.1720 -3.7288
   53MOL0     H 7101  11.199   2.854   0.815  0.7469 -1.7880  0.4491
   53MOL0     H 7102  11.370   2.927   0.641  0.8819 -0.2893  0.6459
   53MOL0     H 7103  11.306   2.804   0.535 -1.8413  2.4485 -1.1579
   53MOL0     H 7104  11.443   2.775   0.817  2.6945 -0.2625 -1.1960
   53MOL0     H 7105  11.356   2.648   0.757 -0.2862  0.5415  1.4567
   53MOL0     H 7106  11.701   2.707   0.755  4.1814  2.1861 -1.9394
   53MOL0     H 7107  11.843   2.446   0.562  0.9574 -0.0509  0.2625
   53MOL0     H 7108  11.854   2.552   0.417  1.5560 -2.2835  0.3017
   53MOL0     H 7109  11.969   2.719   0.543  0.0878  0.8975  1.0343
   53MOL0     H 7110  11.909   2.653   0.701 -2.3320 -1.1909  0.8386
   53MOL0     H 7111  12.088   2.513   0.493  1.9406  2.2724 -1.4443
   53MOL0     H 7112  12.064   2.452   0.666 -0.1101 -1.9354 -1.5078
   53MOL0     H 7113  12.195   2.674   0.722  0.4106  1.1711 -1.2211
   53MOL0     H 7114  12.231   2.680   0.549  1.0040 -0.1594  0.2979
   53MOL0     H 7115  12.467   2.325   0.693 -0.3125 -0.0827 -2.2236
   53MOL0     H 7116  12.708   2.342   0.707  0.0334 -0.2715  3.1985
   53MOL0     H 7117  13.069   2.578   0.556 -0.3522 -1.6472  0.5059
   53MOL0     H 7118  13.321   2.599   0.559 -1.2594  0.9145 -3.0801
   53MOL0     H 7119  13.539   2.614   0.694  1.7363 -1.1521 -1.7164
   53MOL0     H 7120  13.521   2.733   0.556  1.1184 -1.4136 -0.4745
   53MOL0     H 7121  13.654   2.890   0.671 -4.1533 -0.3321  0.5871
   53MOL0     H 7122  13.675   2.789   0.811  4.3902  0.8371  0.1758
   53MOL0     H 7123  13.792   2.602   0.682  0.6424  0.1833  0.8597
   53MOL0     H 7124  13.795   2.714   0.547 -0.3580 -0.5642  0.0057
   53MOL0     H 7125  13.955   2.696   0.791 -1.4060 -1.8536  0.6677
   53MOL0     H 7126  13.927   2.863   0.727 -0.5836 -0.2705 -1.6385
   53MOL0     H 7127  14.033   2.813   0.518 -0.0611 -0.3134 -0.5195
   53MOL0     H 7128  14.023   2.635   0.544 -0.6388  1.3772 -1.0080
   53MOL0     H 7129  14.257   2.759   0.583  0.5446 -0.2441  1.0443
   53MOL0     H 7130  14.181   2.836   0.717  0.0895  0.5585  0.0998
   53MOL0     H 7131  14.239   2.535   0.634  3.5034 -0.7361  2.0188
   53MOL0     H 7132  14.148   2.565   0.787 -0.7291 -1.4302 -1.2589
   53MOL0     H 7133  14.392   2.516   0.815  1.5626 -0.6048 -3.1655
   53MOL0     H 7134  14.432   2.667   0.732 -1.4018  2.5786  0.1488
   53MOL0     H 7135  13.262   2.897   0.873 -0.3851 -0.4299  0.4537
   53MOL0     H 7136  13.035   2.882   0.862  1.2440  0.1071  2.5691
   53MOL0     H 7137  12.670   2.764   0.735 -0.3571  0.1217  1.2606
   53MOL0     H 7138  12.420   2.754   0.674 -0.7166  0.0145  2.5583
   53MOL0     H 7139  10.753   2.379   0.320  1.7995  3.1079  3.1452
   53MOL0     H 7140  10.524   2.374   0.234  1.2614 -1.2305 -0.8193
   53MOL0     H 7141  10.044   2.265   0.435 -0.7567 -1.1048 -0.0624
   53MOL0     H 7142   9.828   2.212   0.391  4.1534 -1.1594  2.4688
   53MOL0     H 7143   9.666   2.194   0.025  1.0790  1.4424 -0.5534
   53MOL0     H 7144   9.639   2.366   0.037  2.6640 -0.5542 -0.3971
   53MOL0     H 7145   9.421   2.365   0.096  4.1500  1.3584  1.0253
   53MOL0     H 7146   9.433   2.204   0.184  1.4460 -1.0743 -0.4855
   53MOL0     H 7147   9.470   2.102  -0.031  1.3048  0.8580 -0.6530
   53MOL0     H 7148   9.454   2.256  -0.117  0.1114 -0.2839 -0.2921
   53MOL0     H 7149   9.210   2.185   0.062  1.0599 -2.3785 -0.4831
   53MOL0     H 7150   9.220   2.281  -0.079 -2.9211 -0.1041  0.4315
   53MOL0     H 7151   9.172   1.915  -0.262 -2.1638 -0.1704 -0.1314
   53MOL0     H 7152   9.849   2.378   0.001 -1.4837 -2.4159  0.9119
   53MOL0     H 7153  10.136   2.575   0.025 -1.3907  0.5552  1.8278
   53MOL0     H 7154  10.154   2.415  -0.042  2.1167  1.3657  2.2400
   53MOL0     H 7155  10.009   2.514  -0.075 -0.0780  0.5824  0.2605
   54MOL0     O 7156   8.526   0.200  11.048 -0.3000 -0.0751  0.0903
   54MOL0     C 7157   8.482   0.161  11.154  0.0627 -0.0708 -0.4215
   54MOL0     O 7158   8.561   0.137  11.264 -0.1004  0.6035 -0.6187
   54MOL0     C 7159   8.698   0.157  11.254  0.1824 -0.8784  0.3111
   54MOL0     C 7160   8.780   0.044  11.233  0.2479  0.1968 -0.8661
   54MOL0     C 7161   8.917   0.055  11.240  0.0592  0.0003  0.5660
   54MOL0     C 7162   8.972   0.183  11.270  0.3140  1.0361 -0.4481
   54MOL0     O 7163   9.105   0.190  11.302  1.1304 -0.4014 -0.2938
   54MOL0     C 7164   9.150   0.277  11.409 -0.9260  0.6940 -0.0298
   54MOL0     C 7165   9.285   0.217  11.463 -0.9065  0.6529  0.3084
   54MOL0     C 7166   9.399   0.237  11.352 -0.0587  1.0551  0.2777
   54MOL0     C 7167   9.536   0.204  11.401 -0.5792  0.3358 -0.6975
   54MOL0     C 7168   9.656   0.222  11.302  0.0437 -0.7023  0.4066
   54MOL0     C 7169   9.691   0.367  11.282 -0.5643  0.0990  0.1320
   54MOL0     C 7170   9.793   0.383  11.167  0.5460  0.3270  0.4874
   54MOL0     C 7171   9.846   0.532  11.182  0.2388 -0.1737  1.0218
   54MOL0     N 7172   9.923   0.557  11.058 -0.8611 -0.0108  0.0593
   54MOL0     C 7173  10.051   0.502  11.042  0.4644 -0.2314 -0.4037
   54MOL0     C 7174  10.093   0.547  10.915  0.3296 -0.4197  0.0277
   54MOL0     C 7175  10.213   0.529  10.828 -0.7383  0.7256 -0.2346
   54MOL0     C 7176  10.322   0.630  10.868 -0.1601  0.3610  0.3607
   54MOL0     C 7177  10.446   0.611  10.785  1.3188  0.2447  0.2700
   54MOL0     C 7178  10.549   0.722  10.790  0.1550  0.2421  0.8234
   54MOL0     O 7179  10.669   0.670  10.740  0.0464  0.0689  0.4170
   54MOL0     C 7180  10.788   0.736  10.744  0.2489 -0.3400 -0.3112
   54MOL0     C 7181  10.899   0.661  10.716 -0.5425  0.7728 -0.1252
   54MOL0     C 7182  11.028   0.724  10.721 -0.6018 -0.3483  0.9016
   54MOL0     C 7183  11.041   0.861  10.756  0.2665  0.1495 -0.2984
   54MOL0     C 7184  11.171   0.913  10.784  0.3386 -0.1139 -0.6262
   54MOL0     O 7185  11.275   0.860  10.709  0.5332 -0.8437 -0.6409
   54MOL0     C 7186  11.401   0.917  10.710  0.1191  0.1412  0.2789
   54MOL0     C 7187  11.421   1.054  10.703 -0.1824  0.1035  0.6602
   54MOL0     C 7188  11.547   1.111  10.700 -0.4722  1.0654 -0.1025
   54MOL0     C 7189  11.659   1.035  10.674  0.2343 -0.1540  0.0168
   54MOL0     O 7190  11.790   1.078  10.654 -0.6742 -1.0797 -0.3889
   54MOL0     C 7191  11.822   1.217  10.679  0.9714  0.2061 -0.1604
   54MOL0     C 7192  11.966   1.234  10.713 -0.2906 -1.0129 -0.8737
   54MOL0     C 7193  11.989   1.359  10.808 -0.0693 -0.4474  0.3342
   54MOL0     C 7194  11.989   1.490  10.732 -0.2162  0.7191  0.3479
   54MOL0     C 7195  12.034   1.605  10.821  0.3744 -0.3970 -0.4919
   54MOL0     C 7196  11.984   1.742  10.755 -0.5815 -0.2742  0.3949
   54MOL0     C 7197  12.022   1.861  10.840 -0.2872  0.3145  0.1989
   54MOL0     C 7198  11.980   2.001  10.787  0.1563  0.5048  0.4846
   54MOL0    Cl 7199  12.049   2.013  10.617  0.3423  0.5240 -0.2670
   54MOL0     C 7200  11.646   0.900  10.670  0.4975 -0.1263  0.0244
   54MOL0     C 7201  11.515   0.835  10.698 -0.0388  0.1013  0.3096
   54MOL0     O 7202  11.179   1.010  10.861  0.4342  0.7388  0.4612
   54MOL0     C 7203  10.928   0.930  10.787 -0.5907 -0.4410 -0.4329
   54MOL0     C 7204  10.801   0.870  10.783  0.1201 -0.7521  0.4779
   54MOL0     N 7205   9.991   0.637  10.870  0.0420  0.9514  0.4291
   54MOL0     N 7206   9.894   0.642  10.952 -0.0623 -0.0677 -0.7417
   54MOL0     C 7207   8.888   0.293  11.284 -0.8223  0.0006 -0.4347
   54MOL0     C 7208   8.751   0.280  11.274  0.3824  0.4808 -0.0911
   54MOL0     C 7209   8.332   0.139  11.182 -0.6147 -0.5547  0.3795
   54MOL0     C 7210   8.299   0.127  11.318 -0.0029  0.3874 -0.4701
   54MOL0     C 7211   8.165   0.116  11.353 -0.7387 -0.9649 -0.2282
   54MOL0     C 7212   8.064   0.121  11.261 -0.6622 -0.1515 -0.0288
   54MOL0     O 7213   7.933   0.093  11.293  0.6631 -0.7359  0.0885
   54MOL0     C 7214   7.876   0.137  11.421  0.0102 -0.6272 -0.0371
   54MOL0     C 7215   7.777   0.031  11.468  0.7821 -0.5194  1.3132
   54MOL0     C 7216   7.667   0.102  11.540 -1.2448 -0.4141 -0.1910
   54MOL0     C 7217   7.573  -0.003  11.585  0.1622 -0.5377 -1.0341
   54MOL0     C 7218   7.451   0.037  11.655 -0.1224  1.3147 -0.3529
   54MOL0     C 7219   7.343   0.054  11.719 -0.6560  0.1583  0.9960
   54MOL0     C 7220   8.101   0.124  11.125  0.0451 -0.3035 -0.3572
   54MOL0     C 7221   8.230   0.138  11.084 -0.8125  0.0573 -0.1078
   54MOL0     C 7222   8.268   0.163  10.945  0.2534 -1.0795  0.5467
   54MOL0     H 7223   8.736  -0.055  11.220 -1.1857  0.8584 -1.2532
   54MOL0     H 7224   8.988  -0.025  11.221  1.4132  1.8703 -3.4004
   54MOL0     H 7225   9.176   0.378  11.376 -1.3105  0.1905 -1.9895
   54MOL0     H 7226   9.081   0.287  11.493 -0.1131 -0.1670  0.7674
   54MOL0     H 7227   9.271   0.109  11.476 -2.1205  0.6566 -0.7910
   54MOL0     H 7228   9.319   0.264  11.555 -1.0755  1.3298  0.0305
   54MOL0     H 7229   9.391   0.342  11.320  1.2814  0.8260 -0.9472
   54MOL0     H 7230   9.382   0.180  11.260  1.4172  2.2673 -0.8159
   54MOL0     H 7231   9.561   0.260  11.492  0.2888 -1.7814  0.4239
   54MOL0     H 7232   9.525   0.103  11.442 -0.3494  0.4031 -0.4620
   54MOL0     H 7233   9.738   0.164  11.346 -0.7055 -0.4740  2.1905
   54MOL0     H 7234   9.625   0.185  11.204 -0.3813  0.7695 -0.0448
   54MOL0     H 7235   9.607   0.434  11.262 -0.6896 -0.4822 -1.5097
   54MOL0     H 7236   9.733   0.406  11.375 -1.1220  0.5278  0.2085
   54MOL0     H 7237   9.746   0.378  11.068 -0.3591  0.0911  0.9254
   54MOL0     H 7238   9.868   0.306  11.185 -0.6669 -0.9847  0.0727
   54MOL0     H 7239   9.761   0.601  11.185  1.5721  1.7884 -1.6326
   54MOL0     H 7240   9.915   0.539  11.267  2.2783  0.6540 -0.6003
   54MOL0     H 7241  10.095   0.428  11.108  1.1311 -0.7637 -1.4217
   54MOL0     H 7242  10.251   0.427  10.841 -0.0842  1.1666  1.7985
   54MOL0     H 7243  10.192   0.530  10.721 -0.0571 -3.3113 -0.5387
   54MOL0     H 7244  10.286   0.732  10.852 -3.5505 -0.8756 -0.7991
   54MOL0     H 7245  10.337   0.615  10.975  0.3141 -0.4703  0.1937
   54MOL0     H 7246  10.413   0.617  10.680  0.9421 -0.1096  0.3619
   54MOL0     H 7247  10.486   0.512  10.811 -0.9119  0.0471  3.5957
   54MOL0     H 7248  10.575   0.760  10.889  2.8083  0.1009  0.2355
   54MOL0     H 7249  10.518   0.801  10.721 -1.5573 -0.1034  1.1445
   54MOL0     H 7250  10.882   0.556  10.696  0.5451  0.0017  2.6217
   54MOL0     H 7251  11.113   0.656  10.713  0.9079  1.6003 -0.4128
   54MOL0     H 7252  11.337   1.122  10.711  1.7461  2.5330  1.3810
   54MOL0     H 7253  11.557   1.219  10.705 -0.1849  0.9928  1.8002
   54MOL0     H 7254  11.800   1.280  10.592 -1.5794 -0.1500  0.1572
   54MOL0     H 7255  11.768   1.249  10.769 -0.3068  2.7367 -1.6984
   54MOL0     H 7256  11.998   1.145  10.769  3.1567  0.9958  0.7535
   54MOL0     H 7257  12.032   1.238  10.626  1.2233  5.7536  0.0331
   54MOL0     H 7258  11.903   1.363  10.875 -1.0367 -0.2108 -0.8751
   54MOL0     H 7259  12.076   1.338  10.871 -0.6369 -0.1870  1.2199
   54MOL0     H 7260  11.891   1.516  10.691 -0.6436 -1.9525 -0.5220
   54MOL0     H 7261  12.070   1.482  10.659  0.8856  1.8100  1.4104
   54MOL0     H 7262  12.141   1.617  10.838  0.1408  0.0591  0.7300
   54MOL0     H 7263  11.983   1.593  10.917  1.8460 -1.8934  0.1552
   54MOL0     H 7264  12.014   1.753  10.650 -1.3804 -0.5235  0.1321
   54MOL0     H 7265  11.875   1.743  10.757 -0.6753 -1.0679 -1.8794
   54MOL0     H 7266  12.131   1.852  10.842 -0.4522 -2.2153  1.8065
   54MOL0     H 7267  11.981   1.851  10.941 -2.3732 -1.5796 -0.7502
   54MOL0     H 7268  11.872   2.014  10.783  0.0359 -0.6311 -0.8091
   54MOL0     H 7269  12.027   2.074  10.854  0.6290 -0.5658  1.3433
   54MOL0     H 7270  11.740   0.848  10.659  1.9229  2.5600 -1.5157
   54MOL0     H 7271  11.498   0.728  10.702  0.0139  0.0311 -0.9363
   54MOL0     H 7272  10.919   1.035  10.813 -1.1626 -1.2754  3.2424
   54MOL0     H 7273  10.721   0.934  10.818 -0.2307 -2.5767  3.3317
   54MOL0     H 7274   8.929   0.390  11.307  1.4291 -0.8678 -0.5402
   54MOL0     H 7275   8.679   0.359  11.296 -2.9155 -1.0133 -4.1516
   54MOL0     H 7276   8.376   0.131  11.394 -0.8341  0.4753  0.3845
   54MOL0     H 7277   8.147   0.082  11.455 -0.4824 -3.2305 -0.8724
   54MOL0     H 7278   7.825   0.231  11.396  1.2177 -0.4663 -2.1894
   54MOL0     H 7279   7.953   0.159  11.496 -1.4328  2.1373  0.8004
   54MOL0     H 7280   7.821  -0.044  11.534  3.8537 -1.2536 -1.3190
   54MOL0     H 7281   7.729  -0.025  11.387 -0.0342  0.1804  1.2997
   54MOL0     H 7282   7.616   0.168  11.469  1.7771 -1.0712 -3.2370
   54MOL0     H 7283   7.705   0.169  11.618 -1.7942 -1.8947  1.4205
   54MOL0     H 7284   7.531  -0.060  11.501 -2.4697  0.3979 -0.4561
   54MOL0     H 7285   7.630  -0.069  11.652 -0.9784 -0.5815 -0.0690
   54MOL0     H 7286   7.256   0.056  11.781 -1.0132 -1.5329  0.6086
   54MOL0     H 7287   8.015   0.122  11.059 -2.9256 -1.3022  3.2179
   54MOL0     H 7288   8.176   0.151  10.888 -0.0702 -2.4816  1.3281
   54MOL0     H 7289   8.293   0.268  10.928  2.2962 -1.7320 -0.8391
   54MOL0     H 7290   8.349   0.098  10.912  0.5948  0.5010 -1.9581
   55MOL0     O 7291   1.048   2.603   5.635  0.1141 -0.1326 -0.1588
   55MOL0     C 7292   0.957   2.526   5.606 -0.4286 -0.1185  0.2368
   55MOL0     O 7293   0.971   2.428   5.513 -0.6893 -0.1179 -0.7499
   55MOL0     C 7294   1.089   2.435   5.446  0.2410 -0.2442  0.1773
   55MOL0     C 7295   1.067   2.490   5.321 -0.0674  0.8194  0.9622
   55MOL0     C 7296   1.183   2.489   5.230  0.0011 -0.1017 -0.6112
   55MOL0     C 7297   1.312   2.466   5.278 -1.0621  0.3016 -1.0034
   55MOL0     O 7298   1.413   2.488   5.185  0.6119 -0.0869  0.7800
   55MOL0     C 7299   1.538   2.422   5.205  0.3800  0.0168  0.3612
   55MOL0     C 7300   1.537   2.266   5.189  1.0139  0.0386  0.5765
   55MOL0     C 7301   1.673   2.205   5.143  0.1232  0.5743 -0.4966
   55MOL0     C 7302   1.678   2.060   5.191 -0.5813 -0.1608  0.2391
   55MOL0     C 7303   1.812   2.009   5.138 -0.3048 -0.0319  0.7231
   55MOL0     C 7304   1.862   1.892   5.217  0.6266  0.0524 -0.9616
   55MOL0     C 7305   1.893   1.913   5.366 -0.5809 -0.5319 -0.3051
   55MOL0     C 7306   2.006   1.809   5.404 -0.1921  0.3671  0.2530
   55MOL0     N 7307   2.140   1.856   5.353  0.6525  0.2537 -0.3789
   55MOL0     C 7308   2.246   1.773   5.332  0.0956 -0.1421  0.2260
   55MOL0     C 7309   2.356   1.850   5.351  0.4662  0.5372  0.8766
   55MOL0     C 7310   2.500   1.808   5.329  0.5814 -0.6540 -0.2766
   55MOL0     C 7311   2.565   1.798   5.191 -0.3601 -0.5407 -0.3569
   55MOL0     C 7312   2.711   1.751   5.221 -0.0094 -0.5924 -0.1721
   55MOL0     C 7313   2.786   1.843   5.314 -0.0788  0.9466  0.1630
   55MOL0     O 7314   2.924   1.828   5.285 -0.3125  0.7888 -0.2494
   55MOL0     C 7315   3.013   1.830   5.397 -0.8045  0.3766  0.0588
   55MOL0     C 7316   2.979   1.811   5.537 -0.0582 -0.3725  0.0228
   55MOL0     C 7317   3.082   1.813   5.633 -0.2093 -0.2294 -0.2410
   55MOL0     C 7318   3.211   1.829   5.598  0.3348  0.3672  0.5605
   55MOL0     C 7319   3.318   1.829   5.702  0.4332  0.9146  0.9890
   55MOL0     O 7320   3.442   1.867   5.673 -0.4897  0.9734  0.0270
   55MOL0     C 7321   3.548   1.871   5.757 -0.4499 -0.3150 -0.3385
   55MOL0     C 7322   3.679   1.856   5.704 -0.1165 -0.2069  0.3504
   55MOL0     C 7323   3.795   1.853   5.782 -0.0427  0.4077  1.2658
   55MOL0     C 7324   3.785   1.870   5.921 -0.2298  0.4591 -0.7025
   55MOL0     O 7325   3.895   1.880   6.012  0.8714 -0.8505  0.1632
   55MOL0     C 7326   3.998   1.980   5.984  0.8966  0.7085  0.2834
   55MOL0     C 7327   4.089   1.987   6.103  0.3378 -0.6683  0.5342
   55MOL0     C 7328   4.023   2.004   6.238 -0.4729  0.5836 -0.8206
   55MOL0     C 7329   3.902   2.097   6.243 -0.1059  0.1123  0.4168
   55MOL0     C 7330   3.819   2.075   6.372 -0.2663  0.6675 -0.2677
   55MOL0     C 7331   3.684   2.152   6.391  1.0819  0.1945 -0.2038
   55MOL0     C 7332   3.720   2.296   6.415  0.8684  0.0444  0.0063
   55MOL0     C 7333   3.597   2.383   6.420  0.2472 -0.8203  0.5546
   55MOL0    Cl 7334   3.527   2.394   6.260 -0.0780 -0.1128 -0.0707
   55MOL0     C 7335   3.659   1.886   5.979 -0.3159  0.6462  0.1405
   55MOL0     C 7336   3.540   1.880   5.893 -0.4634 -0.6083 -0.3478
   55MOL0     O 7337   3.280   1.786   5.811 -0.1797 -0.5113 -0.1149
   55MOL0     C 7338   3.241   1.852   5.468 -0.3031  1.0612  0.1829
   55MOL0     C 7339   3.146   1.844   5.366  0.1815  0.0405 -0.2006
   55MOL0     N 7340   2.316   1.980   5.389 -0.4025 -0.2767 -0.3657
   55MOL0     N 7341   2.192   1.972   5.393 -0.1187 -0.1726 -0.0606
   55MOL0     C 7342   1.329   2.422   5.408 -0.2237 -0.2974 -0.6012
   55MOL0     C 7343   1.223   2.407   5.493 -0.2147 -0.0270 -0.2338
   55MOL0     C 7344   0.822   2.546   5.656  0.0347 -0.0204  0.2127
   55MOL0     C 7345   0.739   2.595   5.558  1.5137 -0.3798 -0.4567
   55MOL0     C 7346   0.605   2.636   5.583  0.0980  0.2606 -0.0634
   55MOL0     C 7347   0.549   2.619   5.710  0.6234 -1.4356  0.0058
   55MOL0     O 7348   0.420   2.657   5.741  0.7002 -0.0128 -0.2336
   55MOL0     C 7349   0.318   2.677   5.638 -0.8914 -0.8919 -0.1385
   55MOL0     C 7350   0.185   2.674   5.705 -0.1674  0.4480  0.3228
   55MOL0     C 7351   0.172   2.570   5.823 -0.1735 -0.7444  0.2888
   55MOL0     C 7352   0.040   2.594   5.897 -0.3288 -0.6446 -0.9629
   55MOL0     C 7353   0.037   2.482   5.992  0.9142 -0.0627  0.2043
   55MOL0     C 7354   0.023   2.385   6.061  0.0229 -0.1983 -0.0523
   55MOL0     C 7355   0.636   2.570   5.805  0.1544  0.1586  0.5455
   55MOL0     C 7356   0.764   2.527   5.779 -0.6143 -0.6050 -0.2290
   55MOL0     C 7357   0.845   2.470   5.897 -0.3384 -0.8116 -0.1003
   55MOL0     H 7358   0.977   2.540   5.286 -0.1294 -0.4029 -0.7789
   55MOL0     H 7359   1.177   2.519   5.126 -1.3735 -2.4728 -1.2942
   55MOL0     H 7360   1.594   2.477   5.129 -0.0020 -0.8480 -0.5690
   55MOL0     H 7361   1.583   2.455   5.299  0.3287 -0.5010  0.5695
   55MOL0     H 7362   1.465   2.243   5.110  1.5985  1.0074 -0.2643
   55MOL0     H 7363   1.491   2.222   5.278 -0.9651 -0.4114 -0.6043
   55MOL0     H 7364   1.766   2.247   5.184  2.4368 -3.3999 -1.1660
   55MOL0     H 7365   1.687   2.207   5.035  1.7894 -1.6643 -0.3741
   55MOL0     H 7366   1.679   2.080   5.299  0.5790  2.7534 -0.2243
   55MOL0     H 7367   1.586   2.004   5.172  0.2931 -1.2343 -0.9779
   55MOL0     H 7368   1.804   1.983   5.032 -1.8413  1.7398  0.3568
   55MOL0     H 7369   1.888   2.088   5.147  0.7175 -0.7923 -0.6845
   55MOL0     H 7370   1.778   1.823   5.204 -2.4080  3.6068 -1.5884
   55MOL0     H 7371   1.954   1.856   5.169  2.6698  0.8689  2.0229
   55MOL0     H 7372   1.812   1.892   5.436 -2.0457 -2.3266 -2.4160
   55MOL0     H 7373   1.912   2.020   5.383  0.0160 -0.4563 -1.3275
   55MOL0     H 7374   2.018   1.792   5.511 -1.2153  0.3681  0.3788
   55MOL0     H 7375   1.979   1.713   5.359  0.4583  0.0902  0.4422
   55MOL0     H 7376   2.243   1.669   5.303 -0.0600  0.1211 -0.7230
   55MOL0     H 7377   2.546   1.892   5.381 -0.9076  0.5462 -0.8268
   55MOL0     H 7378   2.525   1.715   5.382 -0.5538 -1.5500 -1.2472
   55MOL0     H 7379   2.514   1.722   5.131  0.5347  1.0134 -3.2201
   55MOL0     H 7380   2.554   1.892   5.136  0.2204  0.7804  1.6441
   55MOL0     H 7381   2.774   1.739   5.132 -0.2821  0.9188 -0.5911
   55MOL0     H 7382   2.709   1.656   5.275  0.8784 -0.8620 -0.5920
   55MOL0     H 7383   2.750   1.831   5.417 -3.0991  1.6515 -0.7242
   55MOL0     H 7384   2.767   1.950   5.312 -2.7219  0.5452  0.1714
   55MOL0     H 7385   2.880   1.777   5.567  0.8198 -1.6963  1.6240
   55MOL0     H 7386   3.060   1.797   5.738  1.0399 -0.9192 -0.0580
   55MOL0     H 7387   3.686   1.843   5.596 -0.9250  0.3384  0.2202
   55MOL0     H 7388   3.890   1.841   5.730 -0.3874 -0.4062  0.8069
   55MOL0     H 7389   4.041   1.955   5.887 -0.1459  0.0315 -0.0147
   55MOL0     H 7390   3.951   2.078   5.974 -2.3743 -0.5441  1.9097
   55MOL0     H 7391   4.163   1.906   6.105 -1.3810 -2.2905  1.0573
   55MOL0     H 7392   4.147   2.078   6.085 -0.1041  0.1152  2.7133
   55MOL0     H 7393   3.988   1.907   6.274  0.2074  0.6702  0.1269
   55MOL0     H 7394   4.103   2.040   6.304 -0.0644 -1.3476 -0.2009
   55MOL0     H 7395   3.832   2.084   6.160 -0.4238 -3.0224  1.0517
   55MOL0     H 7396   3.942   2.199   6.245 -0.4595  0.2496  0.7922
   55MOL0     H 7397   3.884   2.101   6.456  1.1410 -0.5040 -0.9597
   55MOL0     H 7398   3.795   1.968   6.375  0.5330  0.4988  0.5069
   55MOL0     H 7399   3.634   2.129   6.296 -0.5476 -1.6760  1.0179
   55MOL0     H 7400   3.615   2.109   6.464 -0.2733 -1.1000 -2.1522
   55MOL0     H 7401   3.787   2.336   6.338  0.5566 -0.2246 -0.4138
   55MOL0     H 7402   3.756   2.298   6.518 -1.8362  0.0914  1.0113
   55MOL0     H 7403   3.528   2.346   6.496 -2.5210  2.1657 -0.2572
   55MOL0     H 7404   3.604   2.486   6.456 -1.3786  0.4243 -2.3203
   55MOL0     H 7405   3.650   1.885   6.087  0.1768 -0.4800  0.1802
   55MOL0     H 7406   3.446   1.884   5.948 -0.4297 -2.0054 -0.1693
   55MOL0     H 7407   3.342   1.877   5.436  0.0489 -0.6204 -0.1008
   55MOL0     H 7408   3.167   1.845   5.260  1.8028 -0.4917  0.0861
   55MOL0     H 7409   1.433   2.413   5.440  0.1546 -2.0177 -2.1680
   55MOL0     H 7410   1.250   2.374   5.593 -0.8083  1.4888  0.4591
   55MOL0     H 7411   0.776   2.617   5.458  1.8653  0.7711 -0.0873
   55MOL0     H 7412   0.560   2.680   5.494 -0.3126  0.0067  0.0164
   55MOL0     H 7413   0.319   2.589   5.573 -1.4000  1.4601 -3.5805
   55MOL0     H 7414   0.333   2.769   5.582 -2.0151  0.9233  2.3436
   55MOL0     H 7415   0.118   2.656   5.620 -1.6257 -1.6573  1.8133
   55MOL0     H 7416   0.172   2.778   5.734 -0.4355  0.2338  1.0029
   55MOL0     H 7417   0.267   2.561   5.877  0.3540  3.6420  0.4508
   55MOL0     H 7418   0.162   2.476   5.768  2.3780 -1.9575  1.7257
   55MOL0     H 7419   0.027   2.693   5.941  1.3055 -0.9880  0.3634
   55MOL0     H 7420  -0.042   2.574   5.827 -1.2803 -2.1124  0.5058
   55MOL0     H 7421  -0.004   2.304   6.126 -0.6322 -1.4449 -1.7927
   55MOL0     H 7422   0.601   2.555   5.906  1.9964 -0.8365  1.0827
   55MOL0     H 7423   0.873   2.366   5.876  0.2286 -0.4034 -1.4993
   55MOL0     H 7424   0.928   2.537   5.921  0.4660 -1.1597 -1.7429
   55MOL0     H 7425   0.782   2.471   5.986 -1.8477 -1.7173 -1.1223
   56MOL0     O 7426   1.061   0.987   8.846  0.2259 -0.2109 -0.0185
   56MOL0     C 7427   0.993   1.033   8.757  0.2786 -0.6858  0.2267
   56MOL0     O 7428   1.026   1.053   8.624  0.6130  0.2693  0.6683
   56MOL0     C 7429   1.126   0.991   8.558 -0.9974 -0.1303  0.0128
   56MOL0     C 7430   1.256   1.038   8.578  0.2084 -0.4902  0.6888
   56MOL0     C 7431   1.373   0.976   8.516  0.7407 -0.1084  0.1819
   56MOL0     C 7432   1.356   0.855   8.442  0.1010 -0.5106  0.6761
   56MOL0     O 7433   1.456   0.797   8.379 -0.3986  0.0429 -0.1476
   56MOL0     C 7434   1.595   0.829   8.411 -0.2121 -0.2504  0.1129
   56MOL0     C 7435   1.632   0.786   8.552  0.0217  0.2310  0.4305
   56MOL0     C 7436   1.707   0.891   8.635 -0.1380  0.4378 -0.0254
   56MOL0     C 7437   1.710   0.835   8.779 -0.2665 -1.2734 -0.6764
   56MOL0     C 7438   1.795   0.937   8.865  0.4695  0.2594  1.2195
   56MOL0     C 7439   1.935   0.950   8.808 -0.4570 -0.5061 -0.5021
   56MOL0     C 7440   2.035   0.993   8.918 -0.6137  0.0143  0.1870
   56MOL0     C 7441   2.181   0.986   8.861  0.0962 -0.2574 -0.3645
   56MOL0     N 7442   2.272   1.061   8.954  0.4616 -0.1725  0.1283
   56MOL0     C 7443   2.271   1.191   8.976  0.5183 -0.3719 -0.2345
   56MOL0     C 7444   2.395   1.217   9.043  0.0767 -0.7379  0.1590
   56MOL0     C 7445   2.452   1.357   9.078  0.0214  0.5449  0.3800
   56MOL0     C 7446   2.530   1.398   8.951  0.0258  0.1863  0.2915
   56MOL0     C 7447   2.581   1.543   8.950 -0.7695 -0.1668  0.2609
   56MOL0     C 7448   2.705   1.565   9.035 -0.3871  0.8751  0.4218
   56MOL0     O 7449   2.809   1.477   8.982 -0.4361 -0.2881 -0.7137
   56MOL0     C 7450   2.933   1.479   9.044 -0.2577  0.6993  0.9011
   56MOL0     C 7451   2.956   1.503   9.174 -0.6219 -0.3221 -0.3810
   56MOL0     C 7452   3.081   1.498   9.230  0.3777  0.0824 -0.1547
   56MOL0     C 7453   3.193   1.476   9.148 -0.3801  0.4449 -0.4555
   56MOL0     C 7454   3.337   1.477   9.196  0.7482 -0.4108 -0.4312
   56MOL0     O 7455   3.424   1.413   9.119  0.4065  0.4988 -0.1706
   56MOL0     C 7456   3.543   1.357   9.157 -0.2853  0.4735 -0.3596
   56MOL0     C 7457   3.620   1.309   9.042 -0.0960 -0.1381  0.0336
   56MOL0     C 7458   3.746   1.248   9.057 -0.6454  1.0011  0.2348
   56MOL0     C 7459   3.805   1.240   9.184 -0.2953 -0.3079  0.6087
   56MOL0     O 7460   3.929   1.192   9.220  0.2306 -0.0590 -0.1491
   56MOL0     C 7461   4.018   1.150   9.113  0.4111  0.4207 -0.2667
   56MOL0     C 7462   4.131   1.073   9.169  0.5635 -0.2342 -0.0186
   56MOL0     C 7463   4.218   1.002   9.066 -0.2017 -0.2650 -0.2669
   56MOL0     C 7464   4.331   0.923   9.143  0.5610 -0.5871  0.2281
   56MOL0     C 7465   4.371   0.797   9.074 -0.1093  0.0433  0.7800
   56MOL0     C 7466   4.510   0.732   9.122  1.1236  1.4185 -0.2814
   56MOL0     C 7467   4.592   0.663   9.010 -0.6344  0.2484 -0.3311
   56MOL0     C 7468   4.721   0.600   9.059 -0.3610  0.8000  0.0367
   56MOL0    Cl 7469   4.869   0.713   9.066 -0.2668 -0.2890 -0.2692
   56MOL0     C 7470   3.735   1.291   9.299 -0.0873  0.6420  0.5060
   56MOL0     C 7471   3.604   1.338   9.290 -0.2900  0.8189 -0.2655
   56MOL0     O 7472   3.356   1.509   9.313  0.1473 -0.8339  0.3905
   56MOL0     C 7473   3.176   1.450   9.008  0.7099 -0.7318  0.1803
   56MOL0     C 7474   3.044   1.448   8.964 -0.3281 -0.1072  0.9805
   56MOL0     N 7475   2.460   1.097   9.056 -0.1819 -0.4511  0.0003
   56MOL0     N 7476   2.386   1.003   9.000 -0.1762 -0.2640 -0.0803
   56MOL0     C 7477   1.218   0.817   8.415 -0.2522 -0.5477  0.0475
   56MOL0     C 7478   1.109   0.881   8.484 -0.3075  0.9484  0.6494
   56MOL0     C 7479   0.860   1.086   8.789  0.8063  0.3606  0.3595
   56MOL0     C 7480   0.761   1.086   8.682  0.2418  0.1009  0.0205
   56MOL0     C 7481   0.633   1.146   8.699  0.3487 -0.2152 -0.1539
   56MOL0     C 7482   0.596   1.196   8.825 -0.6360 -0.5453 -0.4808
   56MOL0     O 7483   0.483   1.267   8.846  0.6049  0.1323 -0.3621
   56MOL0     C 7484   0.361   1.189   8.826  0.3697 -0.2050 -0.2548
   56MOL0     C 7485   0.251   1.224   8.928 -1.1076 -0.3261 -0.3767
   56MOL0     C 7486   0.120   1.147   8.898  0.5936  0.9990 -0.3499
   56MOL0     C 7487   0.034   1.202   8.775 -0.5158 -0.2321 -0.4651
   56MOL0     C 7488  -0.030   1.321   8.809  0.3215 -0.3996  0.2056
   56MOL0     C 7489  -0.091   1.426   8.824  0.3661 -0.5248  0.1671
   56MOL0     C 7490   0.689   1.195   8.926  1.0538  0.3886 -0.4976
   56MOL0     C 7491   0.819   1.146   8.917 -0.5488  0.9465  0.6302
   56MOL0     C 7492   0.918   1.163   9.030  0.1431  0.1292 -0.2130
   56MOL0     H 7493   1.260   1.133   8.631 -0.0863  1.2606 -2.1876
   56MOL0     H 7494   1.466   1.027   8.536 -0.4925  1.3762  2.6543
   56MOL0     H 7495   1.666   0.780   8.343  1.0757 -1.8342  2.4868
   56MOL0     H 7496   1.596   0.935   8.384 -2.2917 -0.3150 -0.4378
   56MOL0     H 7497   1.685   0.691   8.548  1.7055  0.7690  4.5642
   56MOL0     H 7498   1.544   0.754   8.608  1.1444 -2.0830  0.9936
   56MOL0     H 7499   1.655   0.986   8.623 -1.7222 -0.4972 -1.0511
   56MOL0     H 7500   1.801   0.897   8.580 -1.7150  0.3065 -2.9367
   56MOL0     H 7501   1.607   0.836   8.818  0.5470 -0.0718  1.6280
   56MOL0     H 7502   1.746   0.733   8.791  0.6757 -1.0951 -1.7965
   56MOL0     H 7503   1.747   1.035   8.858 -1.5152 -0.7149  0.6731
   56MOL0     H 7504   1.808   0.906   8.969  0.8669  0.0776  1.1178
   56MOL0     H 7505   1.972   0.855   8.768  1.5866 -0.5730  1.3632
   56MOL0     H 7506   1.939   1.025   8.728  1.0580 -0.5315 -0.4816
   56MOL0     H 7507   2.030   0.914   8.994 -1.9344 -0.4357 -0.3509
   56MOL0     H 7508   2.010   1.092   8.956 -0.8553  0.3383 -0.8063
   56MOL0     H 7509   2.223   0.885   8.865  2.8397  0.8118  0.0849
   56MOL0     H 7510   2.191   1.035   8.764  0.3133  2.5543  0.9517
   56MOL0     H 7511   2.196   1.264   8.949 -0.1972 -0.6803  0.8431
   56MOL0     H 7512   2.378   1.434   9.100 -0.5288  0.3969 -0.8831
   56MOL0     H 7513   2.525   1.351   9.159  2.8890 -1.4855 -2.1125
   56MOL0     H 7514   2.609   1.324   8.935 -0.4600 -0.7612  2.0042
   56MOL0     H 7515   2.461   1.388   8.867  0.6925  0.7865 -0.3350
   56MOL0     H 7516   2.495   1.603   8.982  1.0230  1.1317  3.0251
   56MOL0     H 7517   2.600   1.568   8.846  1.1156 -2.0444  0.0947
   56MOL0     H 7518   2.688   1.554   9.142 -0.0791  1.3700  0.5237
   56MOL0     H 7519   2.738   1.668   9.017 -0.1589  0.8229  0.5431
   56MOL0     H 7520   2.868   1.528   9.231  0.5136  1.3273  0.7358
   56MOL0     H 7521   3.098   1.520   9.335  2.0899 -0.3090 -0.3128
   56MOL0     H 7522   3.572   1.311   8.945  1.3368 -0.6405 -0.7267
   56MOL0     H 7523   3.790   1.197   8.971  0.4549  0.0578  1.3235
   56MOL0     H 7524   3.972   1.082   9.041  0.8445 -1.2082  0.9411
   56MOL0     H 7525   4.056   1.240   9.064  1.6042  1.0585  1.6910
   56MOL0     H 7526   4.186   1.150   9.224 -0.4219  1.4206 -1.2739
   56MOL0     H 7527   4.079   1.008   9.240  0.6333  0.6263  0.8501
   56MOL0     H 7528   4.150   0.946   9.001 -2.5330  0.0428  1.7568
   56MOL0     H 7529   4.281   1.074   9.013  1.6539  0.5030  2.7063
   56MOL0     H 7530   4.294   0.909   9.245 -1.6140 -1.9242 -0.6878
   56MOL0     H 7531   4.419   0.988   9.145  0.3221 -0.2829  1.1574
   56MOL0     H 7532   4.380   0.825   8.969 -0.6401 -2.6487 -0.0550
   56MOL0     H 7533   4.289   0.725   9.083 -0.5695  0.6507  1.6099
   56MOL0     H 7534   4.569   0.807   9.176 -2.6993  1.1474  5.0645
   56MOL0     H 7535   4.499   0.649   9.192  6.9749  0.0166 -0.4675
   56MOL0     H 7536   4.610   0.736   8.930  1.0787  2.2453  1.7172
   56MOL0     H 7537   4.521   0.588   8.976 -1.1276  0.3109  0.5370
   56MOL0     H 7538   4.718   0.563   9.162 -0.0346  0.8894  0.0799
   56MOL0     H 7539   4.749   0.528   8.982 -1.3735  0.5958 -0.1506
   56MOL0     H 7540   3.781   1.290   9.398  1.5872 -0.7353 -0.2138
   56MOL0     H 7541   3.552   1.366   9.381 -1.0949 -0.6376 -0.2481
   56MOL0     H 7542   3.262   1.427   8.947  0.7768  1.8690 -0.8133
   56MOL0     H 7543   3.043   1.430   8.857 -1.7312  1.6335  0.6754
   56MOL0     H 7544   1.207   0.726   8.357  1.5474 -0.8584  0.1106
   56MOL0     H 7545   1.009   0.838   8.480  0.3934 -1.0687  2.6975
   56MOL0     H 7546   0.771   1.052   8.580  0.1189 -3.7907  1.1459
   56MOL0     H 7547   0.569   1.161   8.613 -0.7388  2.6388  1.0255
   56MOL0     H 7548   0.385   1.082   8.828 -2.3622 -0.8786 -0.1493
   56MOL0     H 7549   0.325   1.220   8.728 -0.4228  0.7569  0.3209
   56MOL0     H 7550   0.233   1.331   8.915  1.4649 -0.0721 -2.8807
   56MOL0     H 7551   0.307   1.208   9.020  1.1329  4.1662 -0.7023
   56MOL0     H 7552   0.050   1.144   8.982 -0.4776 -1.0652 -1.2320
   56MOL0     H 7553   0.150   1.044   8.876  2.3875  0.6528  2.9698
   56MOL0     H 7554   0.094   1.210   8.683  1.5589 -2.2054  0.6115
   56MOL0     H 7555  -0.044   1.131   8.748  0.6142 -1.9842  0.6965
   56MOL0     H 7556  -0.148   1.516   8.819 -0.0141 -0.7937 -0.4166
   56MOL0     H 7557   0.658   1.245   9.017  0.2747  1.1660 -1.1803
   56MOL0     H 7558   1.015   1.205   9.003  0.9568 -0.4055  1.6998
   56MOL0     H 7559   0.874   1.225   9.109 -1.5034 -2.4294  1.0106
   56MOL0     H 7560   0.931   1.066   9.079  1.3391 -0.7617 -2.1639
   57MOL0     O 7561   5.087   3.215  10.520  0.1724  0.0719  0.6145
   57MOL0     C 7562   5.051   3.151  10.616  0.7577  0.2791  0.0036
   57MOL0     O 7563   5.134   3.095  10.710 -0.6358 -0.3312 -0.0232
   57MOL0     C 7564   5.269   3.082  10.676 -0.2368 -0.2315  0.1979
   57MOL0     C 7565   5.358   3.114  10.774 -0.1219  0.7165 -0.1559
   57MOL0     C 7566   5.498   3.099  10.744 -0.4748 -0.2144 -0.0024
   57MOL0     C 7567   5.542   3.038  10.620 -0.4544 -1.1946  0.1360
   57MOL0     O 7568   5.669   3.011  10.583  0.2265 -0.4532  0.2253
   57MOL0     C 7569   5.785   3.032  10.664 -0.7012 -0.9909  0.0081
   57MOL0     C 7570   5.905   3.037  10.580  0.4603 -0.5927 -0.3001
   57MOL0     C 7571   5.941   2.895  10.520 -0.1195  0.2875 -0.0839
   57MOL0     C 7572   5.989   2.814  10.639 -0.4094 -0.9570  0.0689
   57MOL0     C 7573   6.045   2.680  10.594 -0.4605  0.2150 -0.0548
   57MOL0     C 7574   6.176   2.692  10.519  0.8082  0.0048 -0.0549
   57MOL0     C 7575   6.241   2.569  10.484  0.4725 -0.0644  0.6492
   57MOL0     C 7576   6.197   2.528  10.339 -0.2314 -1.0374  0.5271
   57MOL0     N 7577   6.286   2.594  10.238  0.9269 -0.1593 -0.1247
   57MOL0     C 7578   6.235   2.687  10.147  0.2098  0.0030  1.2527
   57MOL0     C 7579   6.344   2.713  10.072  0.3356 -0.2309  0.4399
   57MOL0     C 7580   6.336   2.801   9.946 -0.1340 -0.2421  0.3699
   57MOL0     C 7581   6.475   2.816   9.876 -0.6606  0.7688 -0.7949
   57MOL0     C 7582   6.482   2.920   9.768 -0.0692  0.5045 -0.4132
   57MOL0     C 7583   6.390   2.933   9.646 -0.0471  0.3443  0.6179
   57MOL0     O 7584   6.257   2.977   9.690  0.4986  0.2258 -0.2666
   57MOL0     C 7585   6.174   3.022   9.596 -0.0457  0.1525  1.0156
   57MOL0     C 7586   6.222   3.077   9.473 -1.0624 -0.5040 -0.2154
   57MOL0     C 7587   6.125   3.134   9.388  0.2911 -0.4273  0.1103
   57MOL0     C 7588   5.993   3.136   9.415 -0.0897  0.0216  0.3943
   57MOL0     C 7589   5.893   3.202   9.321  0.4116 -0.1768 -0.5919
   57MOL0     O 7590   5.765   3.149   9.329  0.6609 -0.5980 -0.0548
   57MOL0     C 7591   5.658   3.217   9.275  0.0677  0.7697  0.1436
   57MOL0     C 7592   5.559   3.272   9.360  1.4710 -0.0687  0.9606
   57MOL0     C 7593   5.447   3.338   9.305 -0.2335  0.1551 -0.1799
   57MOL0     C 7594   5.430   3.344   9.170  0.6621  0.3811  1.0347
   57MOL0     O 7595   5.308   3.391   9.116  0.0357  0.1661  0.1157
   57MOL0     C 7596   5.256   3.514   9.169  0.9527 -0.1715  0.0963
   57MOL0     C 7597   5.132   3.470   9.250 -0.7676  0.6313 -0.3949
   57MOL0     C 7598   5.026   3.580   9.281 -0.5918  0.1861 -0.0874
   57MOL0     C 7599   4.915   3.533   9.363  0.2460 -0.0742  0.4741
   57MOL0     C 7600   4.815   3.646   9.370  0.4324  0.2532  0.1671
   57MOL0     C 7601   4.672   3.602   9.404 -0.3397  0.4259 -0.1237
   57MOL0     C 7602   4.584   3.725   9.439  0.0698  0.2065 -0.3723
   57MOL0     C 7603   4.437   3.696   9.422  0.3128  0.0439 -0.1784
   57MOL0    Cl 7604   4.379   3.546   9.513 -0.1137 -0.2912  0.2681
   57MOL0     C 7605   5.525   3.288   9.086  0.0523  0.2772 -0.5932
   57MOL0     C 7606   5.639   3.231   9.142 -1.0036  0.1804  0.8782
   57MOL0     O 7607   5.923   3.299   9.251 -0.0774  0.2909  0.3975
   57MOL0     C 7608   5.952   3.088   9.537  0.7043 -0.6682 -0.5376
   57MOL0     C 7609   6.038   3.028   9.627  0.1234 -0.8723 -0.3100
   57MOL0     N 7610   6.453   2.650  10.125 -0.1522  0.5078 -0.1197
   57MOL0     N 7611   6.412   2.564  10.216 -0.9059 -0.2918  0.0002
   57MOL0     C 7612   5.448   3.014  10.526 -0.4706 -0.2549 -0.4877
   57MOL0     C 7613   5.309   3.027  10.551  0.3037  0.4757 -0.4391
   57MOL0     C 7614   4.901   3.136  10.642  0.7789  0.0402  0.4999
   57MOL0     C 7615   4.858   3.030  10.725 -0.0840 -0.5119  0.0507
   57MOL0     C 7616   4.723   3.000  10.737  0.0893  0.6566  0.3721
   57MOL0     C 7617   4.626   3.065  10.656  0.3132 -1.0476 -0.0488
   57MOL0     O 7618   4.491   3.041  10.666  0.4571  0.3750 -0.5807
   57MOL0     C 7619   4.447   2.906  10.659 -0.8345  0.2866  0.2761
   57MOL0     C 7620   4.303   2.910  10.655  0.5776 -0.0504 -0.4820
   57MOL0     C 7621   4.245   2.768  10.625  0.0774  0.4082 -0.0460
   57MOL0     C 7622   4.097   2.776  10.638 -0.5388 -0.1932 -0.6359
   57MOL0     C 7623   4.035   2.781  10.501  0.0049  0.4983 -0.2606
   57MOL0     C 7624   3.998   2.785  10.386 -0.0882  0.0427  0.0792
   57MOL0     C 7625   4.670   3.172  10.577 -0.0516  0.3132 -0.5629
   57MOL0     C 7626   4.805   3.214  10.572 -0.3644  0.2162  0.1122
   57MOL0     C 7627   4.829   3.339  10.506  0.7034 -0.7086  0.0251
   57MOL0     H 7628   5.322   3.150  10.870 -1.8113 -0.5267 -0.2839
   57MOL0     H 7629   5.579   3.120  10.813  0.0736  0.2038 -0.7546
   57MOL0     H 7630   5.774   3.129  10.714 -1.2266 -1.5007  0.9114
   57MOL0     H 7631   5.784   2.957  10.744 -0.8464  1.0597  2.0575
   57MOL0     H 7632   5.991   3.087  10.626  1.1334 -0.5414 -1.5695
   57MOL0     H 7633   5.886   3.095  10.489 -0.4318  0.8653  0.7597
   57MOL0     H 7634   6.010   2.909  10.437 -2.3986  0.5419 -2.0690
   57MOL0     H 7635   5.856   2.847  10.469  0.8543 -0.5183 -0.9897
   57MOL0     H 7636   6.069   2.872  10.685 -1.5518  0.3421  0.4800
   57MOL0     H 7637   5.904   2.796  10.705 -1.9961  0.2408 -1.5206
   57MOL0     H 7638   6.055   2.626  10.688 -2.8533 -0.3554 -0.0698
   57MOL0     H 7639   5.973   2.628  10.530 -1.1143  1.1240 -0.0867
   57MOL0     H 7640   6.172   2.761  10.435  2.4947  1.5877  1.0917
   57MOL0     H 7641   6.242   2.741  10.591 -0.3201 -0.4983  1.3904
   57MOL0     H 7642   6.230   2.489  10.558 -1.3260  0.0992  0.6018
   57MOL0     H 7643   6.347   2.593  10.469  0.6816 -1.1622  0.3026
   57MOL0     H 7644   6.214   2.420  10.343  1.5355 -0.8234 -0.3198
   57MOL0     H 7645   6.095   2.562  10.320  1.8084  4.9473 -2.2364
   57MOL0     H 7646   6.133   2.725  10.139 -1.0939 -3.6114 -2.7548
   57MOL0     H 7647   6.265   2.763   9.873 -1.5853  1.8478  0.6085
   57MOL0     H 7648   6.301   2.903   9.964  0.9148  0.2858 -0.5085
   57MOL0     H 7649   6.544   2.854   9.953 -0.8762  0.2305 -0.3300
   57MOL0     H 7650   6.511   2.718   9.843  3.2071  1.9443 -0.6495
   57MOL0     H 7651   6.585   2.919   9.732  0.0661 -0.9953 -0.0141
   57MOL0     H 7652   6.480   3.018   9.817  1.1479  1.0243 -1.3292
   57MOL0     H 7653   6.377   2.846   9.581  0.6547 -0.2487  1.2422
   57MOL0     H 7654   6.442   3.008   9.588 -0.3914 -0.5942 -0.9705
   57MOL0     H 7655   6.326   3.089   9.444 -0.3594 -0.0408  2.2878
   57MOL0     H 7656   6.160   3.155   9.287 -2.0716  0.4396 -0.5922
   57MOL0     H 7657   5.558   3.261   9.468 -0.9353 -0.2990  0.9771
   57MOL0     H 7658   5.377   3.379   9.377  0.9653  1.2396  0.4181
   57MOL0     H 7659   5.332   3.569   9.226 -0.4698  0.9814  0.9572
   57MOL0     H 7660   5.214   3.577   9.089 -1.3798 -1.4175  0.2660
   57MOL0     H 7661   5.086   3.385   9.198  0.6501 -0.5305  0.1795
   57MOL0     H 7662   5.159   3.443   9.353 -2.3140  1.9969  0.4218
   57MOL0     H 7663   5.082   3.658   9.333  1.4644 -1.7777  0.8110
   57MOL0     H 7664   4.985   3.600   9.182 -1.0190 -3.7601 -0.8855
   57MOL0     H 7665   4.933   3.485   9.460  1.3336 -0.8610 -0.1057
   57MOL0     H 7666   4.878   3.451   9.301  0.6332  0.6111 -0.7026
   57MOL0     H 7667   4.794   3.693   9.274 -1.4176 -1.5944 -0.3938
   57MOL0     H 7668   4.864   3.715   9.439  0.3849  2.0976 -1.5519
   57MOL0     H 7669   4.634   3.541   9.322  0.9958 -0.9305  0.2287
   57MOL0     H 7670   4.677   3.528   9.485 -1.5260 -1.0125 -1.3143
   57MOL0     H 7671   4.628   3.803   9.375 -0.5951  0.7635 -0.1663
   57MOL0     H 7672   4.602   3.745   9.545 -0.5868 -1.2716  0.0441
   57MOL0     H 7673   4.387   3.783   9.465  0.4638 -0.1096  0.3106
   57MOL0     H 7674   4.400   3.690   9.319 -2.8741  2.4797  0.6626
   57MOL0     H 7675   5.506   3.282   8.979 -1.3846 -1.1275 -0.3036
   57MOL0     H 7676   5.718   3.197   9.076  0.4501  4.4942  0.0621
   57MOL0     H 7677   5.854   3.109   9.579  0.7358 -1.1105 -0.2359
   57MOL0     H 7678   6.003   3.000   9.725 -2.5766  1.3482 -0.5132
   57MOL0     H 7679   5.470   2.964  10.432  1.3721  1.3731 -0.9678
   57MOL0     H 7680   5.234   3.008  10.475 -1.5891  2.0769  0.9222
   57MOL0     H 7681   4.933   2.974  10.779 -0.0314 -2.3289 -1.7936
   57MOL0     H 7682   4.681   2.913  10.786 -0.4434 -0.2059 -1.5098
   57MOL0     H 7683   4.479   2.845  10.745  0.7152  2.5018  1.3758
   57MOL0     H 7684   4.490   2.875  10.563 -1.6987  1.0971 -0.3835
   57MOL0     H 7685   4.273   2.980  10.577  1.1655  1.0358  0.2428
   57MOL0     H 7686   4.265   2.953  10.748  2.5682  3.7853 -1.2427
   57MOL0     H 7687   4.294   2.688  10.681  2.3051  0.3670 -1.9212
   57MOL0     H 7688   4.272   2.746  10.522 -0.8086 -1.0457  0.0040
   57MOL0     H 7689   4.063   2.687  10.692  1.3397 -0.1086  0.7678
   57MOL0     H 7690   4.061   2.866  10.688  1.5412  1.1526 -1.4513
   57MOL0     H 7691   3.959   2.790  10.286 -3.1351  2.9410  1.2491
   57MOL0     H 7692   4.591   3.229  10.529  0.1392  1.2761  0.2364
   57MOL0     H 7693   4.844   3.316  10.400  0.0345 -0.1357 -0.2035
   57MOL0     H 7694   4.739   3.401  10.514 -1.9255 -4.3649  2.0291
   57MOL0     H 7695   4.913   3.393  10.549  0.8259 -0.0723 -0.9855
   58MOL0     O 7696   0.627   8.994  10.620 -0.0995 -0.3542  0.7509
   58MOL0     C 7697   0.581   9.058  10.530 -0.1570  0.3353  0.3097
   58MOL0     O 7698   0.632   9.082  10.403  0.1635  0.1070 -0.0365
   58MOL0     C 7699   0.756   9.020  10.378  0.0346  0.0317  0.9292
   58MOL0     C 7700   0.874   9.093  10.396 -0.2453 -0.3805 -0.0744
   58MOL0     C 7701   0.997   9.033  10.373 -0.0595  0.2601  1.0391
   58MOL0     C 7702   1.009   8.903  10.322  0.8440 -0.9293  0.2490
   58MOL0     O 7703   1.140   8.857  10.308 -0.6032  0.1294 -0.0112
   58MOL0     C 7704   1.156   8.718  10.256 -0.0141  0.3453 -0.1413
   58MOL0     C 7705   1.288   8.685  10.191 -0.3176  0.0938 -0.6628
   58MOL0     C 7706   1.309   8.782  10.083  0.6760  0.2809  0.1363
   58MOL0     C 7707   1.452   8.753  10.034 -0.4663 -0.0307 -0.5062
   58MOL0     C 7708   1.462   8.805   9.889 -0.0292  0.1760 -0.2159
   58MOL0     C 7709   1.608   8.825   9.842 -0.8595 -0.2061 -0.1517
   58MOL0     C 7710   1.631   8.849   9.692 -0.6962 -0.3520  0.0893
   58MOL0     C 7711   1.728   8.964   9.658 -0.1050  0.6576 -0.2962
   58MOL0     N 7712   1.667   9.092   9.615 -0.8418  0.3762  0.0874
   58MOL0     C 7713   1.569   9.164   9.684  0.5999  1.0956  0.0743
   58MOL0     C 7714   1.552   9.272   9.612  0.3703  0.1078 -0.0502
   58MOL0     C 7715   1.435   9.372   9.646  0.2548 -0.0628  0.4187
   58MOL0     C 7716   1.330   9.397   9.525 -1.2265  0.2372  0.4461
   58MOL0     C 7717   1.222   9.494   9.554  0.0416 -0.4531 -0.2255
   58MOL0     C 7718   1.135   9.469   9.676 -0.4200  0.1069 -1.5526
   58MOL0     O 7719   1.018   9.549   9.649  0.0782 -0.4446 -0.0824
   58MOL0     C 7720   0.928   9.574   9.750  0.3037 -0.2208 -0.0289
   58MOL0     C 7721   0.817   9.652   9.716  0.4891 -0.1800 -0.1998
   58MOL0     C 7722   0.702   9.660   9.808  0.0534  0.3839  0.2235
   58MOL0     C 7723   0.704   9.599   9.935 -0.3995  0.7969 -0.7228
   58MOL0     C 7724   0.590   9.600  10.028  0.5392  0.0074 -0.0221
   58MOL0     O 7725   0.476   9.648   9.975 -0.0830 -0.2079  0.6993
   58MOL0     C 7726   0.371   9.661  10.059  0.9608  0.5359 -0.1744
   58MOL0     C 7727   0.379   9.715  10.190 -0.0782 -0.1987  0.6501
   58MOL0     C 7728   0.261   9.753  10.260  0.6103  0.2783  0.3851
   58MOL0     C 7729   0.138   9.747  10.199  0.2663  0.4484  0.8567
   58MOL0     O 7730   0.026   9.774  10.271 -0.1059 -0.7027  0.3182
   58MOL0     C 7731  -0.037   9.897  10.218  1.0172 -0.1695 -0.9828
   58MOL0     C 7732  -0.175   9.925  10.276 -0.0661 -0.5540 -0.3684
   58MOL0     C 7733  -0.211  10.074  10.248  0.2232 -0.4451 -0.4218
   58MOL0     C 7734  -0.355  10.106  10.285  0.0070  0.2523 -0.2043
   58MOL0     C 7735  -0.451  10.054  10.182 -0.7032  0.0575  0.9165
   58MOL0     C 7736  -0.601  10.054  10.211 -0.5607 -0.1760  0.4931
   58MOL0     C 7737  -0.683   9.993  10.086 -0.7282 -0.6909  0.7604
   58MOL0     C 7738  -0.827   9.955  10.113 -0.3059 -0.5874 -0.5172
   58MOL0    Cl 7739  -0.856   9.819  10.237  0.3158 -0.0061 -0.2304
   58MOL0     C 7740   0.133   9.697  10.069  0.1566 -0.3430 -1.1210
   58MOL0     C 7741   0.244   9.641  10.000 -0.4699 -0.4229  0.3385
   58MOL0     O 7742   0.599   9.547  10.138  0.6142 -0.1602  0.3339
   58MOL0     C 7743   0.814   9.520   9.966 -0.4912 -1.1357 -0.6353
   58MOL0     C 7744   0.920   9.507   9.876 -0.1828 -0.5919  0.2175
   58MOL0     N 7745   1.640   9.279   9.505  0.5973  0.3160 -0.5305
   58MOL0     N 7746   1.722   9.178   9.520 -0.2121 -0.8570  0.9537
   58MOL0     C 7747   0.887   8.830  10.297 -0.9829  0.1321 -0.0418
   58MOL0     C 7748   0.757   8.892  10.310  0.3503 -0.4736 -0.3384
   58MOL0     C 7749   0.458   9.126  10.559  0.7315 -0.9500 -0.0080
   58MOL0     C 7750   0.360   9.137  10.457  0.2510  0.2915 -0.0471
   58MOL0     C 7751   0.234   9.191  10.493 -0.1264 -0.8307  0.6426
   58MOL0     C 7752   0.216   9.237  10.621 -0.1744 -0.8126 -0.4067
   58MOL0     O 7753   0.090   9.289  10.656 -0.0331  1.3121 -0.4732
   58MOL0     C 7754   0.066   9.422  10.610 -0.2444 -0.0467  0.1196
   58MOL0     C 7755  -0.077   9.421  10.553 -0.1173 -0.2575 -0.8666
   58MOL0     C 7756  -0.113   9.568  10.510  0.0148  0.0319 -0.3144
   58MOL0     C 7757  -0.212   9.573  10.393 -0.6202 -0.2514 -0.1029
   58MOL0     C 7758  -0.342   9.555  10.459  0.1591  0.7616  0.4687
   58MOL0     C 7759  -0.454   9.554  10.504  0.5847 -0.8730  0.3115
   58MOL0     C 7760   0.311   9.227  10.711  0.2624 -0.5729 -0.8971
   58MOL0     C 7761   0.441   9.181  10.686  0.0485  0.0968  0.6918
   58MOL0     C 7762   0.543   9.190  10.804  1.0090  0.0454  0.8944
   58MOL0     H 7763   0.855   9.196  10.423  0.1414 -0.1042 -0.8380
   58MOL0     H 7764   1.088   9.092  10.374  0.8742 -1.0937 -0.1117
   58MOL0     H 7765   1.147   8.643  10.335  1.2769  0.2775 -0.0467
   58MOL0     H 7766   1.076   8.687  10.188 -1.4388 -0.4906  1.8377
   58MOL0     H 7767   1.301   8.580  10.165  3.6801 -0.1379  1.4296
   58MOL0     H 7768   1.359   8.705  10.272 -1.5244 -0.0071  0.4553
   58MOL0     H 7769   1.291   8.885  10.113 -2.0037 -0.6779  2.2110
   58MOL0     H 7770   1.247   8.749   9.999  0.8572 -1.5781  0.6958
   58MOL0     H 7771   1.527   8.800  10.098  0.3491 -1.8842 -0.0379
   58MOL0     H 7772   1.473   8.646  10.026 -1.4800 -0.1573 -1.9460
   58MOL0     H 7773   1.405   8.739   9.823 -0.3059 -0.7513  0.9206
   58MOL0     H 7774   1.412   8.902   9.893 -1.5098 -0.4462 -1.9871
   58MOL0     H 7775   1.648   8.910   9.898 -2.3618 -0.4152  1.3010
   58MOL0     H 7776   1.671   8.741   9.870  1.6024  1.0821 -1.4719
   58MOL0     H 7777   1.538   8.868   9.638 -0.7145  1.5131  0.7234
   58MOL0     H 7778   1.670   8.752   9.659  0.0930 -0.6977  1.9258
   58MOL0     H 7779   1.798   8.976   9.741  0.4393 -1.0835 -0.4741
   58MOL0     H 7780   1.793   8.944   9.573  1.3732 -0.3172  0.9986
   58MOL0     H 7781   1.510   9.135   9.770 -1.6560  0.2283 -1.6586
   58MOL0     H 7782   1.381   9.336   9.734 -0.7127  0.9529  0.2646
   58MOL0     H 7783   1.479   9.465   9.685 -0.6559 -0.1197  1.6228
   58MOL0     H 7784   1.393   9.430   9.442  1.1907 -2.1997  1.1257
   58MOL0     H 7785   1.284   9.298   9.513  1.5990 -1.2276  0.8039
   58MOL0     H 7786   1.158   9.500   9.466 -4.1648  2.0919  2.6337
   58MOL0     H 7787   1.274   9.589   9.571  1.0647 -1.4171  2.8031
   58MOL0     H 7788   1.181   9.510   9.767  0.0918  1.2151 -2.2845
   58MOL0     H 7789   1.104   9.368   9.703 -3.4284  1.7314  1.9839
   58MOL0     H 7790   0.800   9.695   9.618 -0.4482 -1.1770 -0.4883
   58MOL0     H 7791   0.615   9.721   9.784 -0.0560  0.4688  0.8205
   58MOL0     H 7792   0.477   9.736  10.231 -0.6684  1.5055  1.2579
   58MOL0     H 7793   0.272   9.804  10.355  1.4964 -1.1586  1.0975
   58MOL0     H 7794   0.023   9.982  10.251  2.1572 -1.7926  1.4186
   58MOL0     H 7795  -0.057   9.902  10.110 -0.5329  1.6334 -0.6550
   58MOL0     H 7796  -0.248   9.855  10.234  0.6595 -2.0462  0.7489
   58MOL0     H 7797  -0.164   9.914  10.384 -1.5819  1.1393  0.0005
   58MOL0     H 7798  -0.142  10.139  10.303 -0.8973  0.4682 -0.0693
   58MOL0     H 7799  -0.179  10.100  10.147  0.6499  1.6542  0.2086
   58MOL0     H 7800  -0.368  10.212  10.308 -0.4887  0.3290 -0.8297
   58MOL0     H 7801  -0.380  10.052  10.377  1.7088  0.7000  0.5742
   58MOL0     H 7802  -0.430   9.949  10.163 -1.9972  0.0960 -0.9942
   58MOL0     H 7803  -0.423  10.100  10.087 -1.5992  3.0089  1.9659
   58MOL0     H 7804  -0.633   9.995  10.297 -1.7066 -1.2138 -0.5986
   58MOL0     H 7805  -0.637  10.155  10.233  4.0827  1.7672  0.3287
   58MOL0     H 7806  -0.632   9.907  10.041 -1.3656 -0.5842 -0.1988
   58MOL0     H 7807  -0.680  10.072  10.011  1.4533 -0.0253  1.4665
   58MOL0     H 7808  -0.876  10.045  10.152 -0.5147 -0.6106 -0.7258
   58MOL0     H 7809  -0.876   9.921  10.022  1.1734 -2.0652 -0.8001
   58MOL0     H 7810   0.051   9.697   9.998  2.9416  1.2465 -4.6542
   58MOL0     H 7811   0.223   9.593   9.905 -3.6243  0.2165  0.6010
   58MOL0     H 7812   0.820   9.458  10.056  2.7450 -0.7481 -0.4778
   58MOL0     H 7813   0.995   9.437   9.913 -1.9657 -1.3813  2.5349
   58MOL0     H 7814   0.891   8.726  10.265  2.5992  0.2488 -0.3982
   58MOL0     H 7815   0.666   8.834  10.295  0.2723 -0.2850 -0.6102
   58MOL0     H 7816   0.366   9.080  10.365  1.9839 -3.8383  2.3378
   58MOL0     H 7817   0.162   9.205  10.414  1.1495  0.2319 -0.3764
   58MOL0     H 7818   0.140   9.461  10.539 -0.5465 -0.4536 -0.4255
   58MOL0     H 7819   0.079   9.476  10.704  0.0747 -2.0129  1.2586
   58MOL0     H 7820  -0.147   9.383  10.627  0.7582 -1.3412 -0.5612
   58MOL0     H 7821  -0.094   9.347  10.473 -0.9960 -0.5478 -0.4211
   58MOL0     H 7822  -0.018   9.615  10.480  0.2338 -0.2510 -0.0783
   58MOL0     H 7823  -0.149   9.630  10.593  0.5791 -1.3392  1.0143
   58MOL0     H 7824  -0.204   9.671  10.346  3.3294  0.9111  2.5044
   58MOL0     H 7825  -0.190   9.499  10.316 -0.6798  1.9879 -2.3989
   58MOL0     H 7826  -0.551   9.567  10.549  0.6331 -1.0114  0.4577
   58MOL0     H 7827   0.289   9.272  10.807  2.3560 -1.1936 -0.0647
   58MOL0     H 7828   0.510   9.259  10.882  0.4240 -1.4432  2.0028
   58MOL0     H 7829   0.541   9.091  10.851  0.1937 -0.3715  0.0328
   58MOL0     H 7830   0.636   9.221  10.756 -0.4130  2.5076 -0.4766
   59MOL0     O 7831  10.326   7.441   4.283 -0.5537 -0.7287  0.3390
   59MOL0     C 7832  10.250   7.350   4.277  0.3113  0.1054 -0.4995
   59MOL0     O 7833  10.296   7.225   4.240 -0.0125 -0.4197  0.3702
   59MOL0     C 7834  10.433   7.203   4.241  0.7476  0.4718  0.4715
   59MOL0     C 7835  10.491   7.216   4.363  0.9494  0.2807  0.1376
   59MOL0     C 7836  10.629   7.192   4.372  0.8039 -0.3768 -1.3266
   59MOL0     C 7837  10.711   7.150   4.266  0.3693 -0.0519  0.4806
   59MOL0     O 7838  10.847   7.124   4.275  0.0951  0.0290  0.4096
   59MOL0     C 7839  10.915   7.168   4.389  0.1443 -0.0588 -0.7192
   59MOL0     C 7840  11.051   7.094   4.408  0.7907  0.8788  0.0915
   59MOL0     C 7841  11.147   7.147   4.303 -0.0982 -0.2906  0.5601
   59MOL0     C 7842  11.198   7.290   4.337  0.6657 -0.0494 -0.1470
   59MOL0     C 7843  11.327   7.331   4.261 -0.0317 -0.3393  1.3303
   59MOL0     C 7844  11.399   7.461   4.321 -0.5137 -0.1549  0.4346
   59MOL0     C 7845  11.530   7.516   4.255  1.3292 -0.0605 -0.2415
   59MOL0     C 7846  11.647   7.417   4.261 -0.3726  0.0147 -0.1561
   59MOL0     N 7847  11.769   7.464   4.193 -0.1042 -0.8267  0.0716
   59MOL0     C 7848  11.886   7.488   4.258  0.1169  0.3177 -0.4075
   59MOL0     C 7849  11.958   7.569   4.174 -0.3442  0.3795  0.8621
   59MOL0     C 7850  12.080   7.633   4.225  0.0236  0.7342 -0.0396
   59MOL0     C 7851  12.212   7.557   4.198 -0.1654  0.6609 -0.2855
   59MOL0     C 7852  12.325   7.609   4.271  0.1530 -0.0793  0.1810
   59MOL0     C 7853  12.444   7.520   4.256  0.0473 -0.9177 -0.3478
   59MOL0     O 7854  12.518   7.572   4.145  0.1003 -0.2963  0.2085
   59MOL0     C 7855  12.646   7.590   4.167 -0.0403 -1.4235  0.0910
   59MOL0     C 7856  12.735   7.493   4.200 -0.0881 -0.2785  0.1999
   59MOL0     C 7857  12.876   7.509   4.198 -0.2948 -0.2996  0.1624
   59MOL0     C 7858  12.929   7.648   4.201  0.1868  0.6005  0.6472
   59MOL0     C 7859  13.077   7.681   4.210  0.1899  0.0672  0.3322
   59MOL0     O 7860  13.151   7.573   4.247 -0.1421  0.5548 -0.2507
   59MOL0     C 7861  13.286   7.591   4.270  0.2568 -0.1893 -0.0209
   59MOL0     C 7862  13.328   7.703   4.346  0.4976 -0.4995 -0.5097
   59MOL0     C 7863  13.457   7.732   4.360 -0.2848  0.0302 -0.1993
   59MOL0     C 7864  13.558   7.645   4.317  0.4622  0.3732 -0.2032
   59MOL0     O 7865  13.692   7.671   4.314  0.5766  0.1968 -0.6017
   59MOL0     C 7866  13.727   7.805   4.329  0.1212  1.1123  0.2366
   59MOL0     C 7867  13.877   7.820   4.278 -1.0404 -0.1008  0.5525
   59MOL0     C 7868  13.891   7.758   4.131  0.0270 -0.0503  0.9974
   59MOL0     C 7869  14.032   7.776   4.072  0.3506  0.1481 -0.1391
   59MOL0     C 7870  14.090   7.918   4.101 -0.6248  0.1883  0.1647
   59MOL0     C 7871  14.212   7.942   4.021 -0.8019 -0.7610  0.1909
   59MOL0     C 7872  14.341   7.873   4.075 -0.4214  0.3832 -1.0010
   59MOL0     C 7873  14.468   7.907   3.992 -0.8469  0.3923 -0.6504
   59MOL0    Cl 7874  14.497   8.092   3.971  0.2341 -0.3232 -0.2719
   59MOL0     C 7875  13.520   7.521   4.269 -0.6726 -0.3892 -0.8786
   59MOL0     C 7876  13.384   7.493   4.242  0.1747 -0.2044  0.9635
   59MOL0     O 7877  13.116   7.794   4.168 -0.6868  0.1829 -0.0478
   59MOL0     C 7878  12.839   7.749   4.175  0.9017 -0.5011  0.2128
   59MOL0     C 7879  12.693   7.725   4.162 -0.0669 -0.0372 -0.6175
   59MOL0     N 7880  11.884   7.608   4.066  0.0969 -0.3235  0.4039
   59MOL0     N 7881  11.770   7.541   4.077  0.0523 -0.2886  0.5762
   59MOL0     C 7882  10.645   7.133   4.146 -0.4468  0.6267  0.7116
   59MOL0     C 7883  10.503   7.159   4.132 -0.9151 -0.6415 -0.1663
   59MOL0     C 7884  10.101   7.368   4.278  0.3260  0.5058 -0.0614
   59MOL0     C 7885  10.035   7.267   4.204 -1.2323  1.2292 -0.8784
   59MOL0     C 7886   9.900   7.263   4.174  0.2436 -1.1412  0.1223
   59MOL0     C 7887   9.820   7.365   4.222 -0.2035  0.6137  0.2310
   59MOL0     O 7888   9.690   7.362   4.199 -0.2714  0.6516  1.0370
   59MOL0     C 7889   9.622   7.261   4.273  1.1675 -0.7350 -0.0840
   59MOL0     C 7890   9.525   7.192   4.182 -0.6422  0.8748 -0.2444
   59MOL0     C 7891   9.465   7.065   4.246  0.0415  0.1712 -0.2707
   59MOL0     C 7892   9.378   6.992   4.139  1.1080 -1.3872 -0.4410
   59MOL0     C 7893   9.339   6.862   4.189  0.3747  1.0020  1.0261
   59MOL0     C 7894   9.327   6.756   4.243 -1.4794 -0.0245  0.4271
   59MOL0     C 7895   9.873   7.458   4.317 -0.0109  0.5525 -0.3429
   59MOL0     C 7896  10.013   7.468   4.331 -0.0901  0.3072 -0.4781
   59MOL0     C 7897  10.068   7.576   4.423 -0.7793 -0.1824 -0.6305
   59MOL0     H 7898  10.434   7.264   4.442 -1.7914  0.1446 -1.6479
   59MOL0     H 7899  10.671   7.221   4.468  3.1951 -5.1574 -0.6465
   59MOL0     H 7900  10.923   7.275   4.406 -2.0141  0.0616 -0.0918
   59MOL0     H 7901  10.866   7.122   4.476  0.4544 -1.5482 -1.2867
   59MOL0     H 7902  11.030   6.986   4.399 -0.9496  1.2679 -1.2773
   59MOL0     H 7903  11.084   7.110   4.510  1.6276  0.8697 -0.1717
   59MOL0     H 7904  11.100   7.149   4.204 -0.0791 -0.7310  0.5436
   59MOL0     H 7905  11.232   7.079   4.302  0.2842  0.1454 -1.5374
   59MOL0     H 7906  11.117   7.363   4.328  0.4448  0.3033  3.2809
   59MOL0     H 7907  11.219   7.282   4.444 -0.1484  1.7757  0.1799
   59MOL0     H 7908  11.403   7.254   4.270 -1.2977 -1.6244  1.4216
   59MOL0     H 7909  11.310   7.335   4.153  0.8040 -0.6325  1.1794
   59MOL0     H 7910  11.315   7.532   4.323 -2.0549 -1.8662  3.1049
   59MOL0     H 7911  11.416   7.445   4.428 -1.3980  0.5316  0.6933
   59MOL0     H 7912  11.566   7.609   4.300  0.0078  1.1242 -1.5565
   59MOL0     H 7913  11.498   7.533   4.152  0.2066 -0.8527 -0.0376
   59MOL0     H 7914  11.670   7.389   4.365  0.6449  1.2066 -0.0434
   59MOL0     H 7915  11.616   7.329   4.204  0.0635  0.7027 -1.4911
   59MOL0     H 7916  11.918   7.458   4.357  0.9242  0.1214 -0.7199
   59MOL0     H 7917  12.083   7.728   4.171  3.9868 -0.3878 -2.1667
   59MOL0     H 7918  12.069   7.647   4.333  1.2036 -0.5335  0.2689
   59MOL0     H 7919  12.202   7.452   4.226 -1.7031  0.3423 -1.8959
   59MOL0     H 7920  12.229   7.564   4.091 -0.1624 -0.1823 -0.3426
   59MOL0     H 7921  12.292   7.610   4.375 -0.3454 -0.3905  0.0305
   59MOL0     H 7922  12.341   7.712   4.239  4.0277 -1.2777 -2.4139
   59MOL0     H 7923  12.417   7.414   4.251 -1.4371 -0.7806  2.6535
   59MOL0     H 7924  12.500   7.531   4.349 -1.7090  0.8657  0.5741
   59MOL0     H 7925  12.700   7.390   4.205  0.3349 -0.5124 -1.1494
   59MOL0     H 7926  12.945   7.429   4.220 -0.9170 -0.7009  0.7056
   59MOL0     H 7927  13.247   7.763   4.386  0.5264 -0.6907 -0.1605
   59MOL0     H 7928  13.487   7.830   4.398  0.4271 -0.1110 -0.3706
   59MOL0     H 7929  13.668   7.873   4.266  0.1238  0.4868 -0.4602
   59MOL0     H 7930  13.709   7.844   4.430 -1.7229 -3.8130  2.1073
   59MOL0     H 7931  13.908   7.925   4.277  0.8698 -0.5832 -2.1486
   59MOL0     H 7932  13.955   7.764   4.332  1.2662 -1.2563 -3.5623
   59MOL0     H 7933  13.863   7.652   4.136  1.6521 -0.4912  1.1585
   59MOL0     H 7934  13.826   7.805   4.057  0.7032  0.0742  0.4801
   59MOL0     H 7935  14.007   7.764   3.966  1.8468 -0.1371 -0.4850
   59MOL0     H 7936  14.106   7.704   4.108  2.2878  2.1262  0.0513
   59MOL0     H 7937  14.119   7.923   4.206  0.3166  0.2312 -0.0779
   59MOL0     H 7938  14.015   7.992   4.073  2.4521  3.7368  0.4686
   59MOL0     H 7939  14.206   7.915   3.916  1.3040  0.9850 -0.4475
   59MOL0     H 7940  14.231   8.049   4.011  1.7362 -1.3149 -1.6692
   59MOL0     H 7941  14.321   7.766   4.066 -0.2774 -0.0294  2.2751
   59MOL0     H 7942  14.363   7.917   4.172 -1.2937  0.2835 -0.7490
   59MOL0     H 7943  14.559   7.866   4.037 -1.1755  0.9335  0.5547
   59MOL0     H 7944  14.459   7.861   3.893  0.5671  1.0112 -1.0877
   59MOL0     H 7945  13.600   7.450   4.252  2.5897  1.9580  2.7315
   59MOL0     H 7946  13.354   7.398   4.198  2.9587 -0.1974 -1.2826
   59MOL0     H 7947  12.883   7.848   4.165 -2.3447  1.0893  0.3229
   59MOL0     H 7948  12.617   7.796   4.134  0.9790  1.3330 -0.0807
   59MOL0     H 7949  10.701   7.104   4.057  0.8433  0.8418  1.4387
   59MOL0     H 7950  10.453   7.145   4.037 -0.9428 -2.3857  0.0862
   59MOL0     H 7951  10.092   7.189   4.155  0.8168  3.7487 -2.8103
   59MOL0     H 7952   9.867   7.191   4.100 -0.1120 -1.0896  0.2323
   59MOL0     H 7953   9.561   7.310   4.349  0.2273  3.3441 -3.1033
   59MOL0     H 7954   9.689   7.193   4.327  0.5368 -1.2324  0.0827
   59MOL0     H 7955   9.579   7.164   4.091 -1.0410  1.1840 -0.5784
   59MOL0     H 7956   9.444   7.260   4.157 -2.3864  0.2209  3.0017
   59MOL0     H 7957   9.409   7.093   4.336 -0.7378  1.3617 -1.0975
   59MOL0     H 7958   9.548   7.001   4.276 -0.9735  0.4057  3.6033
   59MOL0     H 7959   9.284   7.046   4.129  0.3136 -2.6352  0.0193
   59MOL0     H 7960   9.435   6.988   4.046  1.2378 -0.7204 -0.3930
   59MOL0     H 7961   9.332   6.655   4.278 -0.5539  0.9591  3.4570
   59MOL0     H 7962   9.804   7.532   4.356 -0.6309  0.9117 -2.0106
   59MOL0     H 7963  10.144   7.529   4.487 -0.4666  1.6388  0.4083
   59MOL0     H 7964  10.127   7.654   4.374 -0.1992  0.2265  0.6792
   59MOL0     H 7965   9.996   7.619   4.493 -0.9202 -2.0892  0.4749
   60MOL0     O 7966   2.761   6.242   6.704  0.2566  0.0932  0.5691
   60MOL0     C 7967   2.716   6.216   6.822 -0.2449 -0.4469  1.1836
   60MOL0     O 7968   2.752   6.285   6.929  0.0089  0.4250 -0.1079
   60MOL0     C 7969   2.863   6.371   6.918 -0.1176 -0.4086  0.2435
   60MOL0     C 7970   2.982   6.353   6.975 -0.7241  0.7316  0.8687
   60MOL0     C 7971   3.087   6.441   6.953 -0.3909  0.2466 -0.0163
   60MOL0     C 7972   3.055   6.577   6.911 -0.3473  0.6450  0.3613
   60MOL0     O 7973   3.144   6.677   6.917 -0.0674 -1.0863  0.1843
   60MOL0     C 7974   3.171   6.729   7.051 -0.4822 -0.1510 -0.1801
   60MOL0     C 7975   3.323   6.731   7.079  0.5139 -0.9766  0.4155
   60MOL0     C 7976   3.399   6.847   7.005 -0.6697  0.3310  1.0907
   60MOL0     C 7977   3.541   6.868   7.053  0.0996  0.3088 -0.8614
   60MOL0     C 7978   3.612   6.951   6.946 -0.2238  0.6877 -0.0655
   60MOL0     C 7979   3.762   6.980   6.982  0.4115 -0.5126  0.8389
   60MOL0     C 7980   3.849   6.851   6.990  0.3683 -0.3068 -1.0293
   60MOL0     C 7981   4.000   6.880   7.011 -0.3348  1.0685  0.7410
   60MOL0     N 7982   4.099   6.808   6.931  0.0751  0.1458  0.5817
   60MOL0     C 7983   4.130   6.834   6.799  0.5138 -0.4404  0.2745
   60MOL0     C 7984   4.216   6.736   6.763 -0.3027  0.1063  0.6671
   60MOL0     C 7985   4.270   6.702   6.623  0.0086 -0.0197  0.5817
   60MOL0     C 7986   4.375   6.801   6.569  1.1418 -0.3243 -0.3514
   60MOL0     C 7987   4.312   6.889   6.454  0.6546  0.6605 -0.4875
   60MOL0     C 7988   4.408   6.984   6.381 -0.1038  0.1100  0.6287
   60MOL0     O 7989   4.502   6.912   6.300  0.1963  0.3833 -0.7189
   60MOL0     C 7990   4.597   6.995   6.240  0.2055  0.4157  0.5790
   60MOL0     C 7991   4.598   7.132   6.214  0.2480  0.2146 -0.0616
   60MOL0     C 7992   4.706   7.189   6.143 -0.1013 -0.1372  0.0144
   60MOL0     C 7993   4.814   7.122   6.095  0.3865 -0.6448  0.5504
   60MOL0     C 7994   4.929   7.185   6.027 -1.0229 -0.4325  0.1319
   60MOL0     O 7995   5.041   7.115   5.986 -0.3487  0.7481 -0.2724
   60MOL0     C 7996   5.126   7.185   5.901  0.3546  0.5532  0.2264
   60MOL0     C 7997   5.105   7.203   5.763  0.2196  0.8923  0.2954
   60MOL0     C 7998   5.199   7.271   5.680 -0.2203 -0.3998  0.6798
   60MOL0     C 7999   5.310   7.335   5.731  0.3593 -0.6647  0.3350
   60MOL0     O 8000   5.384   7.414   5.647 -0.1626 -0.1054 -0.1944
   60MOL0     C 8001   5.518   7.368   5.632 -0.4719  0.5605  0.1941
   60MOL0     C 8002   5.618   7.475   5.658 -0.9324  0.1177  0.2345
   60MOL0     C 8003   5.759   7.412   5.683  0.0336  0.5098  0.5906
   60MOL0     C 8004   5.862   7.502   5.638 -0.1281  0.1064 -0.2215
   60MOL0     C 8005   5.995   7.463   5.687 -0.1042 -0.2477 -0.3785
   60MOL0     C 8006   6.109   7.563   5.644 -0.6333 -0.0233  0.3958
   60MOL0     C 8007   6.237   7.511   5.696 -0.6175  0.1824 -0.0045
   60MOL0     C 8008   6.347   7.619   5.679 -0.5017  0.0211  0.1960
   60MOL0    Cl 8009   6.509   7.575   5.720  0.4478 -0.2071  0.1725
   60MOL0     C 8010   5.340   7.315   5.868 -0.3333  0.3466  0.3202
   60MOL0     C 8011   5.246   7.242   5.952  0.2923 -0.5250 -0.0050
   60MOL0     O 8012   4.914   7.306   6.011 -1.0271  0.0370 -0.5036
   60MOL0     C 8013   4.815   6.987   6.134 -0.6731  0.7325  0.0407
   60MOL0     C 8014   4.716   6.922   6.206  0.3744 -0.1621  0.7430
   60MOL0     N 8015   4.259   6.665   6.881  1.3062  0.7497  0.2099
   60MOL0     N 8016   4.194   6.719   6.977  0.8542  0.3904  0.0464
   60MOL0     C 8017   2.929   6.602   6.865 -0.0619  0.1090  0.5927
   60MOL0     C 8018   2.837   6.494   6.851  0.1335 -0.5453  0.4275
   60MOL0     C 8019   2.594   6.137   6.838  0.1588 -0.3426 -0.6493
   60MOL0     C 8020   2.527   6.151   6.962 -0.4443  0.5147 -0.2736
   60MOL0     C 8021   2.401   6.104   6.981  0.0967  0.0324  1.0237
   60MOL0     C 8022   2.339   6.033   6.875  0.7456  0.0511  0.3203
   60MOL0     O 8023   2.219   5.971   6.891  0.0011  0.3512  0.3985
   60MOL0     C 8024   2.201   5.897   7.012  0.7092 -1.1125  0.0857
   60MOL0     C 8025   2.138   5.764   6.974  0.1795 -0.1215 -0.2505
   60MOL0     C 8026   1.997   5.785   6.921 -0.1256  1.1441 -0.2231
   60MOL0     C 8027   1.890   5.790   7.027 -0.3035 -0.4834 -0.3561
   60MOL0     C 8028   1.859   5.921   7.088  0.7201 -0.2611 -0.9153
   60MOL0     C 8029   1.842   6.027   7.150  0.2546 -0.7030  1.1701
   60MOL0     C 8030   2.397   6.015   6.754 -0.4619 -0.3597  0.4637
   60MOL0     C 8031   2.534   6.069   6.731  0.1986 -0.0613  0.8974
   60MOL0     C 8032   2.599   6.046   6.601  0.9037  0.4409  0.4884
   60MOL0     H 8033   2.998   6.259   7.027 -3.2666  1.9384  4.2139
   60MOL0     H 8034   3.190   6.413   6.972 -0.9510 -1.1534  1.1544
   60MOL0     H 8035   3.118   6.824   7.065  0.9153  0.2405  3.7374
   60MOL0     H 8036   3.113   6.675   7.126 -1.1075 -1.3619 -1.4867
   60MOL0     H 8037   3.366   6.637   7.044  0.1292 -0.4046 -1.7798
   60MOL0     H 8038   3.332   6.739   7.188 -3.2299 -2.0582  0.9692
   60MOL0     H 8039   3.351   6.943   7.025 -3.7615 -0.3533 -2.0855
   60MOL0     H 8040   3.397   6.831   6.897  1.5579  0.2371  1.0095
   60MOL0     H 8041   3.531   6.921   7.148 -0.3939 -2.2844  0.6234
   60MOL0     H 8042   3.584   6.770   7.075  0.1753  0.4872 -0.1775
   60MOL0     H 8043   3.596   6.898   6.852 -1.3738 -2.5134  1.7698
   60MOL0     H 8044   3.558   7.046   6.944 -2.0477 -0.3038 -0.1166
   60MOL0     H 8045   3.791   7.046   6.900 -0.9285 -0.3147  0.4919
   60MOL0     H 8046   3.762   7.036   7.076 -0.5069 -0.4179  0.7941
   60MOL0     H 8047   3.836   6.792   6.899 -0.4190  1.7653 -2.3482
   60MOL0     H 8048   3.814   6.791   7.075 -0.0755  0.8781 -0.3540
   60MOL0     H 8049   4.009   6.989   6.998 -3.8000  1.1205 -3.3161
   60MOL0     H 8050   4.019   6.865   7.118  1.3839  0.9435  0.4509
   60MOL0     H 8051   4.094   6.922   6.746  1.8185 -0.8212 -1.3312
   60MOL0     H 8052   4.330   6.611   6.631 -0.6737 -1.1640 -4.3137
   60MOL0     H 8053   4.195   6.682   6.546  0.1615  0.5978  0.2704
   60MOL0     H 8054   4.407   6.871   6.646  1.2451  0.5347 -1.1544
   60MOL0     H 8055   4.468   6.751   6.542  2.4736  2.1925 -0.7397
   60MOL0     H 8056   4.233   6.948   6.501 -0.8750  1.5515 -3.8711
   60MOL0     H 8057   4.268   6.823   6.380  0.5689 -0.0214  0.1555
   60MOL0     H 8058   4.444   7.042   6.466  1.3493 -1.5999  1.2353
   60MOL0     H 8059   4.342   7.041   6.315 -1.0749 -0.6300  0.9441
   60MOL0     H 8060   4.515   7.196   6.243 -1.2745 -0.7871 -2.0045
   60MOL0     H 8061   4.693   7.297   6.146 -1.6643 -0.2992  2.7034
   60MOL0     H 8062   5.009   7.171   5.723 -0.3583  0.9338  1.6180
   60MOL0     H 8063   5.169   7.282   5.576 -0.3413 -1.0063  0.6469
   60MOL0     H 8064   5.542   7.281   5.695  0.8209  0.8320  0.1001
   60MOL0     H 8065   5.528   7.329   5.530 -1.6915 -0.3144  0.3828
   60MOL0     H 8066   5.619   7.545   5.574  0.8531 -0.1530 -0.0168
   60MOL0     H 8067   5.587   7.535   5.744  2.3055  3.6558 -0.7723
   60MOL0     H 8068   5.778   7.387   5.787  1.4197  0.7223  0.4125
   60MOL0     H 8069   5.772   7.327   5.615  1.3093  1.4670 -0.4138
   60MOL0     H 8070   5.831   7.605   5.660 -3.2498 -0.8104  0.1859
   60MOL0     H 8071   5.854   7.492   5.529  1.9983 -0.1109 -0.4049
   60MOL0     H 8072   6.040   7.375   5.640 -2.3214 -1.8389  0.3262
   60MOL0     H 8073   5.988   7.447   5.795 -4.2231 -0.0901 -0.4548
   60MOL0     H 8074   6.100   7.563   5.535 -1.0661  2.6612  0.3775
   60MOL0     H 8075   6.093   7.664   5.684 -1.3687 -0.7017  1.9184
   60MOL0     H 8076   6.266   7.422   5.638 -1.7819  0.0374 -0.3879
   60MOL0     H 8077   6.216   7.490   5.801 -0.4401 -1.1397 -0.2127
   60MOL0     H 8078   6.351   7.656   5.576  2.0833 -1.9702 -0.5146
   60MOL0     H 8079   6.313   7.701   5.744 -0.7876 -0.3781  0.5573
   60MOL0     H 8080   5.440   7.342   5.900  1.0200 -2.5050 -1.0968
   60MOL0     H 8081   5.262   7.253   6.059 -1.1517  1.2606  0.0824
   60MOL0     H 8082   4.896   6.927   6.094  0.2305  2.3106 -0.6206
   60MOL0     H 8083   4.725   6.818   6.236  0.1826 -0.4714 -0.2535
   60MOL0     H 8084   2.904   6.696   6.817 -1.1658  0.6032  2.0614
   60MOL0     H 8085   2.744   6.516   6.799  0.9972  2.7305  0.0180
   60MOL0     H 8086   2.563   6.204   7.050 -0.9039 -1.0646  0.9187
   60MOL0     H 8087   2.349   6.110   7.076  1.2807 -0.1420  1.7009
   60MOL0     H 8088   2.120   5.945   7.067 -0.9256 -0.7282 -2.4846
   60MOL0     H 8089   2.289   5.883   7.076  1.7370  1.5679 -0.6114
   60MOL0     H 8090   2.135   5.703   7.065  1.7493  0.5032  0.2724
   60MOL0     H 8091   2.193   5.709   6.898 -0.7601 -0.0269 -1.0047
   60MOL0     H 8092   1.982   5.687   6.876  1.6053 -1.1314  3.6707
   60MOL0     H 8093   1.988   5.872   6.855 -2.2033  1.9420  1.0247
   60MOL0     H 8094   1.795   5.752   6.989  0.0770 -3.3778  1.2978
   60MOL0     H 8095   1.899   5.713   7.104 -3.4313 -0.1820  0.4403
   60MOL0     H 8096   1.826   6.117   7.205 -2.5789 -0.8996  0.8371
   60MOL0     H 8097   2.346   5.958   6.677  0.1130 -2.5898  1.6581
   60MOL0     H 8098   2.695   5.998   6.619  1.7919  1.3323 -1.6273
   60MOL0     H 8099   2.538   5.984   6.535 -0.0589  1.2217  0.6109
   60MOL0     H 8100   2.620   6.137   6.545  0.5495 -0.3496 -0.9624
   61MOL0     O 8101   2.944   9.040   1.455  0.1426 -0.7642  0.1251
   61MOL0     C 8102   3.021   9.111   1.515  0.0078  0.0015 -0.2300
   61MOL0     O 8103   2.996   9.175   1.633  0.1060 -0.2606 -0.1260
   61MOL0     C 8104   2.880   9.152   1.692  0.1706  0.0804 -0.3224
   61MOL0     C 8105   2.827   9.025   1.707  0.0682  0.1242 -0.2766
   61MOL0     C 8106   2.689   9.018   1.740  0.1188  0.5808 -0.4821
   61MOL0     C 8107   2.615   9.127   1.790  0.2602 -0.4005  0.6751
   61MOL0     O 8108   2.488   9.114   1.841  0.2697 -0.3020  0.0479
   61MOL0     C 8109   2.435   8.985   1.875  0.2135 -0.0552 -0.0433
   61MOL0     C 8110   2.285   8.987   1.893  0.8282  1.3728 -0.6480
   61MOL0     C 8111   2.226   8.847   1.915 -0.2571 -0.0881 -0.1220
   61MOL0     C 8112   2.077   8.849   1.931 -0.0441 -0.0414  0.1059
   61MOL0     C 8113   2.017   8.706   1.920  0.3927 -0.0641  0.1438
   61MOL0     C 8114   1.886   8.704   1.991 -0.9253 -0.2956  0.3313
   61MOL0     C 8115   1.817   8.570   1.964  0.4226 -0.1226  0.4302
   61MOL0     C 8116   1.677   8.548   2.022  0.0226 -0.5271 -0.8958
   61MOL0     N 8117   1.620   8.419   1.985  0.0446 -0.2534 -0.0526
   61MOL0     C 8118   1.604   8.308   2.067 -0.2632 -1.0137  0.6372
   61MOL0     C 8119   1.550   8.222   1.979  0.3627 -0.3446  0.2576
   61MOL0     C 8120   1.521   8.074   2.001 -0.2750  0.7671 -0.1752
   61MOL0     C 8121   1.641   7.979   2.011  0.6814  0.1772 -0.3232
   61MOL0     C 8122   1.719   7.983   2.134 -0.1069  0.5789 -0.5363
   61MOL0     C 8123   1.846   7.894   2.105 -0.2052 -0.0065  0.0788
   61MOL0     O 8124   1.920   7.852   2.223  0.0172 -0.5788 -0.0991
   61MOL0     C 8125   2.048   7.811   2.217 -0.6568  0.8350 -0.5767
   61MOL0     C 8126   2.117   7.809   2.333 -0.8833 -1.3809 -0.6634
   61MOL0     C 8127   2.252   7.796   2.345  0.3614 -0.3274 -0.6957
   61MOL0     C 8128   2.329   7.780   2.225 -1.6133 -0.5777 -0.0947
   61MOL0     C 8129   2.476   7.762   2.243  0.3284 -0.1876  0.1503
   61MOL0     O 8130   2.524   7.781   2.383 -0.0320 -0.3711  0.7778
   61MOL0     C 8131   2.659   7.770   2.398 -0.5682 -0.5520 -0.8223
   61MOL0     C 8132   2.757   7.697   2.327 -1.6193 -0.5115 -0.5995
   61MOL0     C 8133   2.891   7.708   2.361  0.0758 -0.4902 -0.1069
   61MOL0     C 8134   2.928   7.796   2.468 -0.5616  0.0644 -0.3210
   61MOL0     O 8135   3.059   7.814   2.515 -0.5996  0.4213  0.1433
   61MOL0     C 8136   3.157   7.734   2.453  0.1222  0.1511  0.5090
   61MOL0     C 8137   3.289   7.803   2.491 -0.2721  0.0766 -0.3561
   61MOL0     C 8138   3.412   7.715   2.456  0.1070 -0.4800  0.1830
   61MOL0     C 8139   3.429   7.708   2.304  0.0585 -0.2388 -0.1256
   61MOL0     C 8140   3.544   7.621   2.256  0.3150  0.0857 -0.6227
   61MOL0     C 8141   3.674   7.648   2.331 -0.6384  0.1339 -0.7506
   61MOL0     C 8142   3.787   7.574   2.249 -0.0199  0.0426 -0.6805
   61MOL0     C 8143   3.912   7.663   2.264 -0.2562 -0.2551  0.5295
   61MOL0    Cl 8144   4.056   7.568   2.202  0.2533  0.0523 -0.0261
   61MOL0     C 8145   2.835   7.851   2.549  0.0157  0.1009  0.2819
   61MOL0     C 8146   2.702   7.838   2.514 -0.0929 -0.2511  0.5107
   61MOL0     O 8147   2.548   7.755   2.142 -0.2680  0.6295  0.1518
   61MOL0     C 8148   2.265   7.786   2.102  0.8181  0.4105  0.7047
   61MOL0     C 8149   2.125   7.794   2.100  0.3572  0.4932 -0.5121
   61MOL0     N 8150   1.528   8.290   1.856  0.1896  1.0741  0.2021
   61MOL0     N 8151   1.573   8.405   1.866 -0.7854 -0.1006  0.8208
   61MOL0     C 8152   2.676   9.257   1.774 -0.1950 -0.6103  0.4655
   61MOL0     C 8153   2.805   9.266   1.724  0.2015 -0.7824  0.6032
   61MOL0     C 8154   3.144   9.146   1.441 -0.0500 -0.0473 -0.3157
   61MOL0     C 8155   3.185   9.278   1.467  0.1447  0.1512 -0.4009
   61MOL0     C 8156   3.287   9.326   1.385 -0.4789 -0.3775 -0.4538
   61MOL0     C 8157   3.356   9.248   1.292 -1.0371 -0.3247  0.5706
   61MOL0     O 8158   3.467   9.289   1.213  0.5275  0.0082 -0.0932
   61MOL0     C 8159   3.530   9.414   1.240  0.1797 -0.7162 -0.5337
   61MOL0     C 8160   3.661   9.399   1.160 -0.2521  0.2868 -0.0649
   61MOL0     C 8161   3.733   9.534   1.199  0.7639 -0.0039 -0.0854
   61MOL0     C 8162   3.880   9.534   1.162 -0.3429 -0.2538 -0.6851
   61MOL0     C 8163   3.952   9.422   1.230 -0.1929 -0.8430  0.6651
   61MOL0     C 8164   3.999   9.310   1.255  0.6297 -0.3893 -0.4233
   61MOL0     C 8165   3.322   9.115   1.283 -0.5438  0.3048  0.0730
   61MOL0     C 8166   3.209   9.058   1.354  0.0153 -0.2973 -0.1454
   61MOL0     C 8167   3.167   8.917   1.331  0.3283 -0.9794 -0.1639
   61MOL0     H 8168   2.896   8.946   1.678 -0.7102 -0.1484 -1.4814
   61MOL0     H 8169   2.656   8.915   1.756  0.1513  0.7290  0.5822
   61MOL0     H 8170   2.466   8.912   1.800  3.5372 -0.6536  1.6927
   61MOL0     H 8171   2.471   8.952   1.973  0.4421  0.0295 -0.0984
   61MOL0     H 8172   2.235   9.011   1.799  0.0894 -0.3675 -0.7406
   61MOL0     H 8173   2.268   9.052   1.979  0.6525  1.6279 -0.8755
   61MOL0     H 8174   2.272   8.806   2.006 -3.1756 -3.1880  0.1801
   61MOL0     H 8175   2.259   8.778   1.837  0.4639 -0.0415  0.1325
   61MOL0     H 8176   2.056   8.899   2.026 -0.4117 -1.6803  0.9038
   61MOL0     H 8177   2.025   8.904   1.851 -1.2348 -1.9193 -0.4748
   61MOL0     H 8178   2.006   8.684   1.813  0.0164  2.3458 -0.3597
   61MOL0     H 8179   2.087   8.633   1.963  2.2822  0.4124 -1.8744
   61MOL0     H 8180   1.896   8.719   2.099 -1.9744  4.5237 -0.0511
   61MOL0     H 8181   1.822   8.781   1.949  0.3984  0.7179  0.0971
   61MOL0     H 8182   1.876   8.493   2.014  1.6570  2.1396  2.6675
   61MOL0     H 8183   1.817   8.547   1.857  0.7491  0.9114  0.2040
   61MOL0     H 8184   1.690   8.561   2.130  2.1765 -2.4340 -0.8458
   61MOL0     H 8185   1.599   8.624   2.015  0.0267  0.4913  5.0487
   61MOL0     H 8186   1.623   8.294   2.173  4.0781 -0.0951  0.1598
   61MOL0     H 8187   1.471   8.077   2.098  0.6429 -0.2466  0.3496
   61MOL0     H 8188   1.441   8.046   1.931 -1.5111 -1.5979  1.9907
   61MOL0     H 8189   1.603   7.878   1.993  0.0061  0.6148 -1.5281
   61MOL0     H 8190   1.715   8.003   1.934  0.0271 -1.4233 -1.5184
   61MOL0     H 8191   1.661   7.935   2.213  0.9499  2.5035  1.5201
   61MOL0     H 8192   1.750   8.085   2.159  0.4583  0.7139 -1.7202
   61MOL0     H 8193   1.904   7.948   2.030 -1.6128 -0.9352 -1.7582
   61MOL0     H 8194   1.827   7.804   2.046  2.8404  0.6795 -2.1733
   61MOL0     H 8195   2.066   7.823   2.428  2.2364  0.4887  0.8927
   61MOL0     H 8196   2.294   7.799   2.445 -2.8597 -0.2728  0.7754
   61MOL0     H 8197   2.730   7.630   2.245 -3.5359 -0.4662 -0.0570
   61MOL0     H 8198   2.964   7.648   2.308  0.9893  1.0525 -0.6616
   61MOL0     H 8199   3.151   7.630   2.489 -1.3741 -0.4006 -1.2004
   61MOL0     H 8200   3.146   7.738   2.345  0.0794 -0.5876  0.4818
   61MOL0     H 8201   3.299   7.903   2.450 -0.2539 -0.2720 -1.2192
   61MOL0     H 8202   3.297   7.800   2.600  1.0238 -3.5221 -0.3943
   61MOL0     H 8203   3.503   7.757   2.500  0.8275  0.3741 -1.9724
   61MOL0     H 8204   3.399   7.616   2.501 -0.0871  0.7359  2.9851
   61MOL0     H 8205   3.423   7.806   2.255  0.5988  0.7271  1.6669
   61MOL0     H 8206   3.342   7.658   2.260  0.1726  0.3301 -1.0337
   61MOL0     H 8207   3.550   7.617   2.147 -1.7814 -1.6713 -0.7334
   61MOL0     H 8208   3.515   7.520   2.287 -0.7890  0.4192 -0.5492
   61MOL0     H 8209   3.693   7.756   2.333  2.5694 -0.3271 -0.5189
   61MOL0     H 8210   3.670   7.621   2.437  0.1084  0.5764 -0.6017
   61MOL0     H 8211   3.764   7.557   2.144  2.7215  0.0619 -1.3576
   61MOL0     H 8212   3.807   7.476   2.294  0.8931  0.7590  0.5380
   61MOL0     H 8213   3.906   7.755   2.205 -1.5136 -0.0994  0.8670
   61MOL0     H 8214   3.927   7.686   2.369  0.0072  1.0022  0.2283
   61MOL0     H 8215   2.867   7.903   2.639 -0.5205 -0.8340  1.0320
   61MOL0     H 8216   2.622   7.882   2.573 -0.5109  0.6964 -0.7099
   61MOL0     H 8217   2.324   7.778   2.011 -0.5878  1.4758 -0.3423
   61MOL0     H 8218   2.076   7.783   2.004  0.2256 -1.9162 -0.2315
   61MOL0     H 8219   2.621   9.344   1.807 -2.2384 -2.3376  1.8465
   61MOL0     H 8220   2.856   9.362   1.714  1.0600 -1.0834  1.8608
   61MOL0     H 8221   3.131   9.342   1.536 -1.4481  1.2189 -2.5021
   61MOL0     H 8222   3.312   9.432   1.389  0.3241 -0.6006  0.7261
   61MOL0     H 8223   3.547   9.438   1.345  0.8019 -0.5538 -0.6690
   61MOL0     H 8224   3.472   9.494   1.193 -1.2545 -2.0882 -1.1976
   61MOL0     H 8225   3.636   9.401   1.054 -1.3931  3.5274  0.1389
   61MOL0     H 8226   3.723   9.313   1.185  0.8303  1.3876  1.2634
   61MOL0     H 8227   3.713   9.552   1.304 -0.8254 -1.6409 -0.0695
   61MOL0     H 8228   3.688   9.610   1.135  1.0313 -0.9257 -1.4259
   61MOL0     H 8229   3.891   9.533   1.053  0.5655 -0.0277 -0.5979
   61MOL0     H 8230   3.932   9.628   1.179  1.5921 -0.0293 -6.0825
   61MOL0     H 8231   4.045   9.215   1.269  3.2595  0.9636  0.8691
   61MOL0     H 8232   3.374   9.055   1.208  2.6823  2.5848  0.2609
   61MOL0     H 8233   3.082   8.910   1.263 -1.1390 -1.0681  1.5929
   61MOL0     H 8234   3.249   8.854   1.295 -1.3177 -2.7682 -0.9570
   61MOL0     H 8235   3.131   8.875   1.425  3.1518 -0.1927  1.4152
   62MOL0     O 8236   7.602   8.694   6.719 -0.6414 -0.7250  0.2105
   62MOL0     C 8237   7.615   8.728   6.835  0.2156  0.3111 -1.0151
   62MOL0     O 8238   7.512   8.759   6.918 -0.3965  0.3294 -0.3887
   62MOL0     C 8239   7.391   8.774   6.856 -0.2496 -1.3656 -0.4801
   62MOL0     C 8240   7.296   8.680   6.894 -0.0715 -0.0201  0.4452
   62MOL0     C 8241   7.170   8.686   6.845  0.5474  0.7740 -0.4824
   62MOL0     C 8242   7.135   8.779   6.746  1.1177 -0.2018  0.7379
   62MOL0     O 8243   7.010   8.802   6.694 -0.2459 -0.2082 -0.6466
   62MOL0     C 8244   6.922   8.693   6.699 -0.4319  0.4016  0.1592
   62MOL0     C 8245   6.770   8.734   6.666 -0.8310  0.1629  0.0352
   62MOL0     C 8246   6.765   8.777   6.522 -0.4157  0.1173  0.8623
   62MOL0     C 8247   6.617   8.810   6.484 -0.3971  0.7312  0.0395
   62MOL0     C 8248   6.620   8.836   6.329 -0.0803 -0.1563 -0.2794
   62MOL0     C 8249   6.484   8.870   6.256  0.5270  0.0586 -0.0818
   62MOL0     C 8250   6.508   8.911   6.109  0.5807 -0.4286  0.0822
   62MOL0     C 8251   6.525   9.061   6.079  0.9479 -0.2562 -0.5317
   62MOL0     N 8252   6.589   9.093   5.949  0.1282 -0.3214 -0.0959
   62MOL0     C 8253   6.687   9.193   5.938 -0.0707  0.2939  0.4066
   62MOL0     C 8254   6.717   9.192   5.803 -0.0144 -0.3906 -0.0583
   62MOL0     C 8255   6.831   9.271   5.744 -0.1176 -0.3073  0.4320
   62MOL0     C 8256   6.941   9.173   5.697  0.4477 -0.2351 -1.0131
   62MOL0     C 8257   7.044   9.245   5.604  0.9570 -0.3638 -0.4268
   62MOL0     C 8258   7.165   9.149   5.585  0.3308 -0.4731 -0.1397
   62MOL0     O 8259   7.223   9.150   5.716 -0.0427  0.2032 -0.0752
   62MOL0     C 8260   7.348   9.092   5.723  0.1339  0.4654  0.6812
   62MOL0     C 8261   7.424   9.035   5.613 -0.4964  0.1781 -1.2563
   62MOL0     C 8262   7.549   8.978   5.642  0.4712  0.2759  0.0512
   62MOL0     C 8263   7.598   8.978   5.776 -0.0701 -0.2153 -1.4304
   62MOL0     C 8264   7.731   8.922   5.801  0.1298  0.6897 -1.0745
   62MOL0     O 8265   7.790   8.847   5.702 -0.2790  0.4275 -0.4515
   62MOL0     C 8266   7.907   8.792   5.736  0.7019  1.0049 -0.4416
   62MOL0     C 8267   7.906   8.666   5.798 -0.2618  0.1549 -0.2364
   62MOL0     C 8268   8.032   8.616   5.837 -1.0978  0.0076 -0.6571
   62MOL0     C 8269   8.155   8.690   5.829  0.4011 -0.5171 -0.3559
   62MOL0     O 8270   8.263   8.619   5.862 -0.3932 -0.5326  0.4124
   62MOL0     C 8271   8.382   8.688   5.899  0.2278  0.4891  0.8558
   62MOL0     C 8272   8.487   8.582   5.966 -0.0800  1.5131  0.0931
   62MOL0     C 8273   8.435   8.523   6.102 -0.1185 -0.7058  0.6258
   62MOL0     C 8274   8.544   8.482   6.202 -0.7960 -0.6843 -0.7142
   62MOL0     C 8275   8.491   8.411   6.328  0.4345 -0.0363  0.3417
   62MOL0     C 8276   8.389   8.492   6.408 -0.8878  0.1626  0.0078
   62MOL0     C 8277   8.360   8.430   6.547 -0.5985 -0.1829 -0.0613
   62MOL0     C 8278   8.260   8.517   6.634 -1.0034  0.4149  0.6412
   62MOL0    Cl 8279   8.212   8.407   6.759 -0.0969 -0.1406  0.0313
   62MOL0     C 8280   8.150   8.818   5.767 -0.0842  0.6626  0.3769
   62MOL0     C 8281   8.027   8.861   5.717 -0.2305  0.2651 -0.0273
   62MOL0     O 8282   7.773   8.942   5.917 -0.6629 -0.0306  0.5727
   62MOL0     C 8283   7.527   9.031   5.879 -0.1246  0.2103 -0.7955
   62MOL0     C 8284   7.407   9.092   5.849  0.2670 -0.4421  0.2234
   62MOL0     N 8285   6.633   9.106   5.733  0.2338 -0.5767  0.3056
   62MOL0     N 8286   6.559   9.056   5.822  0.5129 -0.3130 -0.2150
   62MOL0     C 8287   7.229   8.871   6.693 -0.2404 -0.5224  0.1457
   62MOL0     C 8288   7.357   8.867   6.754  0.0454 -0.0882 -0.0120
   62MOL0     C 8289   7.750   8.738   6.897  0.0770  0.3110  0.5825
   62MOL0     C 8290   7.763   8.752   7.035 -0.3339  0.2970 -0.2650
   62MOL0     C 8291   7.884   8.764   7.091 -0.0489  0.4423  0.0345
   62MOL0     C 8292   8.005   8.779   7.014 -0.2620  0.4841  0.8595
   62MOL0     O 8293   8.125   8.798   7.081  0.1343  0.0596 -0.9506
   62MOL0     C 8294   8.241   8.798   7.000  0.1396 -0.2812 -0.3554
   62MOL0     C 8295   8.369   8.804   7.094 -0.0248 -0.5994  0.5017
   62MOL0     C 8296   8.377   8.917   7.196 -0.5415  0.7646  0.2187
   62MOL0     C 8297   8.369   9.056   7.133 -0.0578  0.9964 -0.8333
   62MOL0     C 8298   8.497   9.078   7.062 -0.0716 -0.2051  0.8399
   62MOL0     C 8299   8.596   9.104   6.996  0.4803 -0.0107  0.6356
   62MOL0     C 8300   7.991   8.769   6.878 -0.1518 -0.0352 -0.1592
   62MOL0     C 8301   7.867   8.745   6.815  0.1661 -0.6385  1.3096
   62MOL0     C 8302   7.864   8.746   6.662 -0.3694 -0.1443 -0.3611
   62MOL0     H 8303   7.313   8.611   6.976 -2.3472 -3.2314 -1.5646
   62MOL0     H 8304   7.089   8.634   6.895  1.3043 -0.5549 -0.6083
   62MOL0     H 8305   6.955   8.618   6.627 -1.5845  0.0165  0.0149
   62MOL0     H 8306   6.918   8.636   6.793 -0.4575 -2.0189 -1.2338
   62MOL0     H 8307   6.739   8.809   6.739  0.0812 -1.0220  1.7019
   62MOL0     H 8308   6.711   8.643   6.669  3.8721 -3.7191 -4.8513
   62MOL0     H 8309   6.801   8.694   6.460  3.1609  2.7845 -0.9926
   62MOL0     H 8310   6.836   8.856   6.495  1.3770 -1.9819 -0.9455
   62MOL0     H 8311   6.551   8.728   6.514 -0.9172  2.0130  2.6856
   62MOL0     H 8312   6.583   8.895   6.543 -1.5654  0.0988  0.3042
   62MOL0     H 8313   6.678   8.929   6.329 -0.0837 -0.1166  1.5312
   62MOL0     H 8314   6.675   8.761   6.272  0.7247  0.6763 -0.6233
   62MOL0     H 8315   6.419   8.782   6.263  1.3816 -0.6192 -0.5948
   62MOL0     H 8316   6.438   8.951   6.314 -1.7680 -0.0435 -1.6483
   62MOL0     H 8317   6.415   8.884   6.056  0.9339 -0.5984 -0.4614
   62MOL0     H 8318   6.585   8.846   6.069  0.5512 -0.9537  0.8746
   62MOL0     H 8319   6.426   9.109   6.080  1.1262  0.1141  0.2250
   62MOL0     H 8320   6.587   9.107   6.157 -0.9919  2.0382 -0.2238
   62MOL0     H 8321   6.732   9.250   6.018 -1.8704  0.7409  1.1612
   62MOL0     H 8322   6.798   9.330   5.658  2.0130 -1.3315 -1.1787
   62MOL0     H 8323   6.867   9.344   5.817  2.7864  0.1375 -1.2664
   62MOL0     H 8324   7.000   9.153   5.787 -1.2004 -1.2565 -0.1125
   62MOL0     H 8325   6.911   9.075   5.659 -1.3331 -0.9126  1.7960
   62MOL0     H 8326   7.087   9.338   5.644 -0.7199 -0.4256  1.7031
   62MOL0     H 8327   7.000   9.263   5.506 -0.4422 -0.1636  0.2136
   62MOL0     H 8328   7.232   9.193   5.511  0.3053 -0.9784 -0.4659
   62MOL0     H 8329   7.131   9.048   5.560 -2.2004  0.2923 -0.0234
   62MOL0     H 8330   7.396   9.022   5.509 -0.7179 -0.1872 -1.1564
   62MOL0     H 8331   7.607   8.942   5.557 -0.0036  1.3479 -0.7354
   62MOL0     H 8332   7.825   8.597   5.818 -0.0354 -0.0867 -0.1558
   62MOL0     H 8333   8.046   8.520   5.884  1.9059  1.3889  1.6201
   62MOL0     H 8334   8.421   8.728   5.805  1.0099 -0.6350  0.6857
   62MOL0     H 8335   8.367   8.770   5.970  2.7925 -1.2728  3.7209
   62MOL0     H 8336   8.504   8.498   5.898 -4.4453 -1.3482  2.0657
   62MOL0     H 8337   8.580   8.633   5.989 -0.1060  0.8437  1.8571
   62MOL0     H 8338   8.355   8.575   6.155  0.5544 -0.1117  1.0808
   62MOL0     H 8339   8.379   8.436   6.067 -0.3085 -0.7534  1.0437
   62MOL0     H 8340   8.586   8.578   6.233 -2.4501  0.2738 -1.2994
   62MOL0     H 8341   8.627   8.424   6.161  0.0082 -0.0159 -0.0780
   62MOL0     H 8342   8.575   8.397   6.397  0.8487 -1.1027 -0.3526
   62MOL0     H 8343   8.447   8.315   6.300 -3.6118  1.9037 -0.6412
   62MOL0     H 8344   8.425   8.593   6.430 -1.7626  0.4207  0.3122
   62MOL0     H 8345   8.298   8.493   6.348 -0.7070 -4.6494 -0.7598
   62MOL0     H 8346   8.449   8.421   6.609 -1.4615 -2.7497  0.9530
   62MOL0     H 8347   8.310   8.333   6.536  0.2590 -0.7332  0.7575
   62MOL0     H 8348   8.310   8.607   6.668  4.1277 -0.6803 -2.8443
   62MOL0     H 8349   8.168   8.543   6.580 -1.7926 -2.0245  0.6755
   62MOL0     H 8350   8.244   8.872   5.760  1.3847 -1.7636  0.4474
   62MOL0     H 8351   8.033   8.964   5.683  2.5643 -0.1156 -0.8997
   62MOL0     H 8352   7.559   9.028   5.982  0.0015 -1.6717 -0.8639
   62MOL0     H 8353   7.357   9.140   5.933  0.3757  1.0553 -0.5290
   62MOL0     H 8354   7.211   8.945   6.616 -1.5876 -0.7581  0.2089
   62MOL0     H 8355   7.432   8.934   6.714  2.1297  0.5471  4.3882
   62MOL0     H 8356   7.677   8.753   7.101  0.1335  0.9343  0.3472
   62MOL0     H 8357   7.885   8.757   7.199 -2.3224 -0.0922  0.0759
   62MOL0     H 8358   8.234   8.889   6.939  0.8391 -0.9452 -1.4418
   62MOL0     H 8359   8.240   8.705   6.943 -2.0127 -0.1273 -0.6441
   62MOL0     H 8360   8.462   8.808   7.035 -0.3553 -1.9878 -0.1635
   62MOL0     H 8361   8.376   8.714   7.155  0.1728 -0.2796  0.9569
   62MOL0     H 8362   8.468   8.908   7.256  0.0127 -2.6588 -0.8979
   62MOL0     H 8363   8.296   8.897   7.267  0.4061  1.0095  1.4132
   62MOL0     H 8364   8.276   9.058   7.075 -0.0026  3.9482 -0.9898
   62MOL0     H 8365   8.365   9.121   7.221  0.4866  0.6372 -0.5376
   62MOL0     H 8366   8.680   9.125   6.933  1.2652 -0.7174  1.4208
   62MOL0     H 8367   8.073   8.772   6.807 -2.1396 -3.3687 -2.9401
   62MOL0     H 8368   7.964   8.767   6.623  0.1673 -2.3782 -0.3446
   62MOL0     H 8369   7.858   8.648   6.614  0.6383  1.0138 -3.0213
   62MOL0     H 8370   7.785   8.812   6.627 -0.4842 -0.2466 -0.2960
   63MOL0     O 8371   1.445   5.382  10.536 -0.2433  0.6876  0.5957
   63MOL0     C 8372   1.479   5.476  10.461 -0.7891 -0.0253  0.2671
   63MOL0     O 8373   1.601   5.478  10.392 -0.5033  0.0945  0.1527
   63MOL0     C 8374   1.681   5.365  10.393  1.2355  0.5173 -0.1280
   63MOL0     C 8375   1.804   5.388  10.445  0.2896 -0.0021 -1.0843
   63MOL0     C 8376   1.898   5.284  10.458  0.4768 -0.0993  0.6360
   63MOL0     C 8377   1.867   5.157  10.407 -0.4974  0.5915  0.3915
   63MOL0     O 8378   1.975   5.063  10.411  0.0847 -0.3811 -0.0659
   63MOL0     C 8379   1.981   4.944  10.323 -0.0830  0.3556  0.4413
   63MOL0     C 8380   2.088   4.846  10.379  0.4826 -0.2787 -0.7817
   63MOL0     C 8381   2.234   4.894  10.374  1.0126  0.8760  0.4665
   63MOL0     C 8382   2.278   4.996  10.486 -0.1992  0.2406  0.8074
   63MOL0     C 8383   2.425   5.056  10.465  0.2990 -0.1833  0.8413
   63MOL0     C 8384   2.438   5.148  10.346 -0.2390  0.5553 -0.4239
   63MOL0     C 8385   2.545   5.257  10.378 -0.4455 -0.2287  1.0675
   63MOL0     C 8386   2.511   5.359  10.473  0.1754 -0.1781 -0.8182
   63MOL0     N 8387   2.634   5.420  10.512 -0.4395  0.0659 -0.2252
   63MOL0     C 8388   2.699   5.399  10.629  0.8980 -0.0857  0.9472
   63MOL0     C 8389   2.811   5.475  10.629 -0.4842 -0.8270  0.7166
   63MOL0     C 8390   2.932   5.477  10.721 -0.1417 -0.3483  0.4489
   63MOL0     C 8391   2.922   5.586  10.830  0.4320 -0.1545 -0.0553
   63MOL0     C 8392   2.942   5.730  10.777  0.0441 -0.8296  0.1064
   63MOL0     C 8393   3.091   5.753  10.757 -0.5401  0.0747 -0.8428
   63MOL0     O 8394   3.104   5.888  10.703 -0.1269 -0.1157 -0.3875
   63MOL0     C 8395   3.204   5.973  10.738  0.3941 -0.5231  0.7676
   63MOL0     C 8396   3.200   6.102  10.683 -0.1319 -0.1834  0.1920
   63MOL0     C 8397   3.295   6.195  10.718  1.0486 -0.0175  0.3093
   63MOL0     C 8398   3.406   6.162  10.801 -0.1376 -0.0384 -0.6038
   63MOL0     C 8399   3.509   6.264  10.842  0.2076 -0.5464  1.2505
   63MOL0     O 8400   3.639   6.216  10.863  0.2559 -0.3688 -0.1754
   63MOL0     C 8401   3.741   6.298  10.904  0.0447  0.0019 -0.4359
   63MOL0     C 8402   3.734   6.419  10.974 -0.3513 -0.2802  0.4599
   63MOL0     C 8403   3.850   6.461  11.031  0.3435 -0.4430  0.0467
   63MOL0     C 8404   3.970   6.396  11.034  1.0341 -0.7068  0.4197
   63MOL0     O 8405   4.087   6.439  11.086 -0.2313 -0.3901 -0.5483
   63MOL0     C 8406   4.086   6.545  11.184 -0.1399 -0.0436 -0.7807
   63MOL0     C 8407   4.230   6.559  11.251  0.3305  0.6867 -0.2050
   63MOL0     C 8408   4.273   6.436  11.332  1.0332  0.7878 -0.0618
   63MOL0     C 8409   4.354   6.463  11.460 -0.0559  0.0176 -0.1402
   63MOL0     C 8410   4.418   6.336  11.516 -0.0765  0.0480  0.0530
   63MOL0     C 8411   4.516   6.363  11.623 -0.3011 -0.2097 -0.6521
   63MOL0     C 8412   4.640   6.440  11.578  0.1859  1.2641 -0.3634
   63MOL0     C 8413   4.760   6.411  11.678 -0.6177 -0.3675 -0.1751
   63MOL0    Cl 8414   4.902   6.485  11.622 -0.0078  0.4213  0.2273
   63MOL0     C 8415   3.977   6.280  10.957  0.0127  0.3663  0.2128
   63MOL0     C 8416   3.865   6.231  10.890 -0.5546 -0.2544 -0.7119
   63MOL0     O 8417   3.468   6.381  10.835 -0.2998 -1.0206 -0.5345
   63MOL0     C 8418   3.414   6.023  10.848  0.6718  0.0144 -0.2468
   63MOL0     C 8419   3.320   5.928  10.808 -0.0473 -0.7073 -0.2314
   63MOL0     N 8420   2.803   5.549  10.511 -0.0062 -1.3953  0.1529
   63MOL0     N 8421   2.692   5.520  10.449 -0.4112  0.2458 -1.0840
   63MOL0     C 8422   1.738   5.129  10.355  0.9990 -0.4536 -0.0135
   63MOL0     C 8423   1.648   5.232  10.348 -0.5967 -0.0047 -0.4510
   63MOL0     C 8424   1.385   5.592  10.452 -0.1637  0.1494 -0.0180
   63MOL0     C 8425   1.438   5.708  10.395 -0.5797 -0.0405  0.8329
   63MOL0     C 8426   1.361   5.824  10.373  0.5233  0.1535 -0.3513
   63MOL0     C 8427   1.228   5.825  10.410 -0.1358 -0.5555  0.1875
   63MOL0     O 8428   1.157   5.947  10.406  0.0171  0.4695  0.7704
   63MOL0     C 8429   1.018   5.950  10.451 -1.2708 -0.0263 -1.4826
   63MOL0     C 8430   0.926   5.903  10.337 -1.1290  0.6471  0.3837
   63MOL0     C 8431   0.787   5.924  10.387  0.0895  0.5731 -0.0394
   63MOL0     C 8432   0.672   5.924  10.283 -0.3169  0.1605 -0.2700
   63MOL0     C 8433   0.557   5.986  10.347 -0.6351 -0.4038 -0.0771
   63MOL0     C 8434   0.473   6.060  10.396 -1.1212 -0.5462 -0.1597
   63MOL0     C 8435   1.177   5.707  10.465  0.7758  0.6006 -0.4470
   63MOL0     C 8436   1.248   5.589  10.475 -0.4326  0.9529 -0.1880
   63MOL0     C 8437   1.163   5.467  10.499  0.1574 -0.0895  0.5757
   63MOL0     H 8438   1.830   5.479  10.498  1.6021 -2.0084  2.0343
   63MOL0     H 8439   1.991   5.299  10.512  1.3262 -0.1238 -0.7704
   63MOL0     H 8440   1.888   4.887  10.331  1.1508 -1.6878  0.9583
   63MOL0     H 8441   2.000   4.976  10.220 -0.6220  0.2597  0.3109
   63MOL0     H 8442   2.083   4.755  10.318  0.7110  0.5413 -2.0528
   63MOL0     H 8443   2.077   4.817  10.484  1.3301  1.9517 -0.0310
   63MOL0     H 8444   2.251   4.939  10.275  1.6094 -0.9909 -0.3284
   63MOL0     H 8445   2.305   4.812  10.363  0.5033  0.4903  0.0268
   63MOL0     H 8446   2.212   5.082  10.498 -0.8974  0.0368 -1.2270
   63MOL0     H 8447   2.282   4.945  10.583 -0.2963  0.5107  0.9555
   63MOL0     H 8448   2.468   5.094  10.558 -1.2222 -1.6973  2.2220
   63MOL0     H 8449   2.484   4.964  10.449  0.7926  0.2057  0.3721
   63MOL0     H 8450   2.474   5.103  10.253 -1.3509 -2.0930  0.3518
   63MOL0     H 8451   2.344   5.200  10.329  1.2152  3.4488 -0.2197
   63MOL0     H 8452   2.568   5.307  10.283 -1.4108  0.6587  1.2890
   63MOL0     H 8453   2.637   5.203  10.402 -0.3815 -0.0355  1.2564
   63MOL0     H 8454   2.443   5.430  10.424 -1.5048  0.1855  1.8369
   63MOL0     H 8455   2.462   5.311  10.558  4.3799 -1.5032  1.0900
   63MOL0     H 8456   2.672   5.330  10.708 -0.4574 -0.8998 -0.1894
   63MOL0     H 8457   2.927   5.378  10.767 -0.6066 -1.1607 -1.2864
   63MOL0     H 8458   3.022   5.481  10.659  0.0330 -0.7741  0.6702
   63MOL0     H 8459   2.832   5.565  10.888  0.9258 -2.9071 -0.1288
   63MOL0     H 8460   2.993   5.559  10.909 -3.5557 -2.5355  3.1251
   63MOL0     H 8461   2.908   5.812  10.841  1.5748 -0.5131  0.5548
   63MOL0     H 8462   2.891   5.741  10.681 -0.7781 -3.8104  0.1113
   63MOL0     H 8463   3.141   5.674  10.700  0.3678  0.0947 -0.1056
   63MOL0     H 8464   3.134   5.739  10.857 -0.2927  0.7684 -0.8445
   63MOL0     H 8465   3.115   6.132  10.623 -0.2979 -1.7324 -0.4009
   63MOL0     H 8466   3.283   6.287  10.662 -0.6445 -0.3239  0.1202
   63MOL0     H 8467   3.645   6.477  10.994 -1.0421 -0.6221 -1.4250
   63MOL0     H 8468   3.856   6.552  11.090  1.0385 -0.1950 -0.4060
   63MOL0     H 8469   4.060   6.644  11.146  0.6217 -1.1713 -4.6976
   63MOL0     H 8470   4.026   6.518  11.271  1.3040 -1.4988 -0.1703
   63MOL0     H 8471   4.310   6.567  11.177  1.0259  1.2202  0.5902
   63MOL0     H 8472   4.229   6.644  11.320  0.7191 -0.2957  1.0700
   63MOL0     H 8473   4.187   6.375  11.361  1.8107  0.0443  0.7453
   63MOL0     H 8474   4.342   6.375  11.273  1.8129 -0.2972  1.8820
   63MOL0     H 8475   4.290   6.514  11.534 -1.8821 -2.4162  0.1093
   63MOL0     H 8476   4.442   6.523  11.436 -0.4137 -0.4578 -2.9095
   63MOL0     H 8477   4.471   6.283  11.437 -0.8385 -1.1210  0.3019
   63MOL0     H 8478   4.343   6.272  11.564 -0.7217  1.3399  0.8307
   63MOL0     H 8479   4.470   6.406  11.712 -2.3329 -0.0425 -1.7235
   63MOL0     H 8480   4.559   6.266  11.649 -1.8772 -0.5705  0.7517
   63MOL0     H 8481   4.618   6.548  11.581 -2.6502  0.7492  1.0484
   63MOL0     H 8482   4.659   6.425  11.472 -3.5304 -2.4539 -0.7701
   63MOL0     H 8483   4.734   6.459  11.773 -0.4548 -3.0747  1.3545
   63MOL0     H 8484   4.773   6.304  11.697  0.2200 -0.0036  1.5333
   63MOL0     H 8485   4.066   6.222  10.936 -0.9803 -0.6822 -1.3027
   63MOL0     H 8486   3.873   6.150  10.818  2.5327 -0.7094 -0.0067
   63MOL0     H 8487   3.503   5.986  10.899 -0.9932 -0.6970  2.3282
   63MOL0     H 8488   3.343   5.823  10.828 -3.3951 -1.4444  0.3776
   63MOL0     H 8489   1.700   5.034  10.316 -1.3286 -0.8029  2.7612
   63MOL0     H 8490   1.544   5.219  10.318 -0.7548  1.1999 -0.4807
   63MOL0     H 8491   1.541   5.716  10.361 -1.1757  0.8522 -0.8896
   63MOL0     H 8492   1.406   5.915  10.335 -1.1637  0.8745 -0.6710
   63MOL0     H 8493   0.990   6.054  10.465  1.0770  0.5626 -0.6112
   63MOL0     H 8494   0.985   5.892  10.538 -2.2600 -1.3299 -2.6955
   63MOL0     H 8495   0.952   5.799  10.315  2.1314  1.9295 -2.8946
   63MOL0     H 8496   0.937   5.968  10.250  0.8451 -2.1679 -1.6634
   63MOL0     H 8497   0.784   6.018  10.442  2.1714  2.6499 -3.1367
   63MOL0     H 8498   0.755   5.846  10.456 -0.5496  2.5656  2.0318
   63MOL0     H 8499   0.712   5.966  10.190  1.1872  1.4199  0.8773
   63MOL0     H 8500   0.645   5.820  10.261  1.3005 -0.2898 -0.3033
   63MOL0     H 8501   0.414   6.131  10.451  0.8496 -1.3817  3.3388
   63MOL0     H 8502   1.074   5.704  10.500  0.7145 -0.3736 -0.6702
   63MOL0     H 8503   1.214   5.399  10.568  1.3325 -0.0653 -0.2266
   63MOL0     H 8504   1.063   5.494  10.532 -1.6656  0.2367 -4.3919
   63MOL0     H 8505   1.146   5.409  10.408 -0.9261 -0.9289  1.2903
   64MOL0     O 8506   5.563   1.866  11.289 -0.0620 -0.0455  0.1260
   64MOL0     C 8507   5.464   1.849  11.222  0.2275 -0.5615  0.2554
   64MOL0     O 8508   5.426   1.928  11.113 -0.0511 -0.2577  0.0859
   64MOL0     C 8509   5.519   2.005  11.058  0.9257  0.3195 -1.0320
   64MOL0     C 8510   5.588   1.955  10.951 -0.5451 -0.3461  0.0684
   64MOL0     C 8511   5.675   2.041  10.875 -0.2937  0.5498 -0.0369
   64MOL0     C 8512   5.701   2.171  10.930 -0.4355  1.5482 -0.2006
   64MOL0     O 8513   5.772   2.262  10.858 -0.6316 -0.6715 -0.0792
   64MOL0     C 8514   5.907   2.211  10.830  0.0254 -0.2630  0.4836
   64MOL0     C 8515   5.987   2.311  10.747 -0.2066 -0.2497  0.1304
   64MOL0     C 8516   5.941   2.320  10.599 -0.3670  0.6541  0.4533
   64MOL0     C 8517   6.012   2.209  10.516 -0.0807 -1.8641 -0.4430
   64MOL0     C 8518   5.963   2.229  10.369 -0.2729 -0.5670 -0.2942
   64MOL0     C 8519   6.002   2.126  10.269 -0.3826 -0.0769  0.3408
   64MOL0     C 8520   6.157   2.109  10.269  0.5414  0.2456 -0.0277
   64MOL0     C 8521   6.189   1.997  10.167 -0.1264 -0.2623  0.0658
   64MOL0     N 8522   6.327   1.954  10.196 -0.9355 -0.3664  0.1958
   64MOL0     C 8523   6.366   1.862  10.293  0.6347 -0.2628 -1.0484
   64MOL0     C 8524   6.499   1.852  10.286 -0.0305  0.2879 -0.3857
   64MOL0     C 8525   6.573   1.743  10.362  0.2768 -0.6944 -0.5220
   64MOL0     C 8526   6.705   1.809  10.412  0.5602  0.3541 -1.0836
   64MOL0     C 8527   6.816   1.710  10.458 -0.8819  0.6080  0.9457
   64MOL0     C 8528   6.858   1.628  10.346  0.4443 -0.7166 -0.2108
   64MOL0     O 8529   6.993   1.586  10.368 -0.0803 -0.1577 -0.1588
   64MOL0     C 8530   7.017   1.480  10.451 -0.6387 -0.6194  0.1009
   64MOL0     C 8531   6.926   1.396  10.511  0.1813 -0.0211  0.1744
   64MOL0     C 8532   6.974   1.273  10.558  0.2571  0.3008 -0.5564
   64MOL0     C 8533   7.110   1.237  10.566 -0.2450  0.2654  0.4540
   64MOL0     C 8534   7.150   1.112  10.624  1.0565  0.5604  1.3088
   64MOL0     O 8535   7.048   1.019  10.643 -0.9673  0.3692 -0.2611
   64MOL0     C 8536   7.081   0.886  10.663  0.7540 -0.8263 -0.0663
   64MOL0     C 8537   7.202   0.805  10.633 -0.2978  0.4514 -0.4431
   64MOL0     C 8538   7.209   0.670  10.672 -0.2820 -0.1912  1.1117
   64MOL0     C 8539   7.104   0.600  10.733 -0.2002  0.8412 -0.4796
   64MOL0     O 8540   7.103   0.469  10.772  0.1088 -0.4459  0.1256
   64MOL0     C 8541   7.200   0.379  10.719 -0.5060 -0.5430 -0.4515
   64MOL0     C 8542   7.205   0.244  10.798 -0.3042  0.8687  0.0159
   64MOL0     C 8543   7.077   0.179  10.839  0.1587  0.4362 -1.6025
   64MOL0     C 8544   7.090   0.080  10.956 -0.1090 -0.0038  0.3732
   64MOL0     C 8545   6.964   0.006  10.976  0.3867  0.8562 -0.6451
   64MOL0     C 8546   6.964  -0.104  11.075 -0.3852  0.4679 -0.2957
   64MOL0     C 8547   6.949  -0.039  11.219 -0.4609 -0.1289  0.5484
   64MOL0     C 8548   7.036  -0.106  11.319 -0.2263  0.2123  0.7288
   64MOL0    Cl 8549   7.210  -0.060  11.298 -0.2321 -0.2083  0.0019
   64MOL0     C 8550   6.999   0.676  10.765 -0.1714  0.1419  0.0994
   64MOL0     C 8551   6.983   0.807  10.726 -0.0810  0.5524 -0.0398
   64MOL0     O 8552   7.271   1.091  10.639 -0.0914 -0.2900 -0.7834
   64MOL0     C 8553   7.206   1.333  10.515  0.8618 -0.1771  0.1501
   64MOL0     C 8554   7.149   1.452  10.457 -0.4103 -0.9384 -0.6239
   64MOL0     N 8555   6.547   1.929  10.183 -0.5861 -0.6448 -0.9429
   64MOL0     N 8556   6.440   1.987  10.126 -0.4760 -0.5202 -0.0979
   64MOL0     C 8557   5.638   2.210  11.048 -0.2638 -0.5307 -0.1414
   64MOL0     C 8558   5.542   2.134  11.113 -0.0146 -0.4187  0.5531
   64MOL0     C 8559   5.369   1.743  11.262 -0.5126 -0.4887 -0.0256
   64MOL0     C 8560   5.254   1.720  11.178  0.7355 -0.7144  0.3629
   64MOL0     C 8561   5.150   1.630  11.206  0.2047 -0.5406  0.2375
   64MOL0     C 8562   5.158   1.560  11.326  0.4760  0.7346 -0.3647
   64MOL0     O 8563   5.071   1.458  11.366 -0.0119  0.0713 -0.2623
   64MOL0     C 8564   4.949   1.432  11.294  0.0290  0.2922  0.2232
   64MOL0     C 8565   4.959   1.363  11.150  0.6594  0.2042 -0.0508
   64MOL0     C 8566   4.819   1.302  11.118 -0.8638 -0.6564  0.6595
   64MOL0     C 8567   4.826   1.193  11.016  0.2545  0.0949 -0.4171
   64MOL0     C 8568   4.693   1.171  10.959 -0.0363  0.9663 -0.4928
   64MOL0     C 8569   4.593   1.151  10.889 -0.7106 -0.8882  0.4981
   64MOL0     C 8570   5.271   1.571  11.402  0.1082 -0.4457 -0.2092
   64MOL0     C 8571   5.378   1.661  11.366  0.2000  0.3019 -0.0766
   64MOL0     C 8572   5.502   1.647  11.454  0.0287  0.6928  0.7671
   64MOL0     H 8573   5.579   1.851  10.923  2.1581 -1.6313  3.2286
   64MOL0     H 8574   5.730   2.015  10.785  0.8869  2.1330  0.1939
   64MOL0     H 8575   5.949   2.199  10.930 -1.5545 -1.2332  1.0847
   64MOL0     H 8576   5.911   2.112  10.782 -1.7017  0.0597 -0.4326
   64MOL0     H 8577   6.090   2.276  10.749 -0.7084 -1.8767  2.8496
   64MOL0     H 8578   5.979   2.410  10.792 -2.6634  0.5254 -1.7831
   64MOL0     H 8579   5.979   2.418  10.570  0.7350  0.4352  1.0724
   64MOL0     H 8580   5.832   2.319  10.593 -0.3193  1.6647 -0.7729
   64MOL0     H 8581   6.120   2.228  10.517 -0.3334 -0.1942  1.1986
   64MOL0     H 8582   5.989   2.109  10.553  0.1473 -1.0405  2.0640
   64MOL0     H 8583   5.855   2.249  10.370  0.0467  1.4156  0.2945
   64MOL0     H 8584   5.999   2.327  10.336 -0.5213  0.2513  1.7231
   64MOL0     H 8585   5.967   2.029  10.306  2.1346 -0.5346  1.7583
   64MOL0     H 8586   5.966   2.151  10.169  1.9898  1.0644 -0.2977
   64MOL0     H 8587   6.177   2.063  10.366 -1.5739 -0.3289  0.1840
   64MOL0     H 8588   6.214   2.196  10.236 -1.8966  1.4590 -1.3094
   64MOL0     H 8589   6.116   1.918  10.188  1.2587 -2.1548 -1.7555
   64MOL0     H 8590   6.174   2.036  10.066 -0.0207  0.2195  0.2342
   64MOL0     H 8591   6.305   1.811  10.367  2.6743  3.2772  3.5901
   64MOL0     H 8592   6.513   1.687  10.434 -0.2494  0.5837  0.0569
   64MOL0     H 8593   6.593   1.670  10.282 -0.5883 -0.9467 -0.5170
   64MOL0     H 8594   6.737   1.881  10.336  0.7478  2.0177  0.4991
   64MOL0     H 8595   6.673   1.873  10.494 -2.2136  2.3310 -3.4902
   64MOL0     H 8596   6.771   1.650  10.537 -0.1111 -2.6716 -0.8739
   64MOL0     H 8597   6.898   1.764  10.507  0.1321  0.3332 -0.3944
   64MOL0     H 8598   6.848   1.689  10.255  0.9972 -2.1360 -1.2593
   64MOL0     H 8599   6.790   1.546  10.320  0.2753 -0.3857 -0.8554
   64MOL0     H 8600   6.823   1.429  10.505 -0.1709 -1.2717 -1.2142
   64MOL0     H 8601   6.894   1.211  10.595  0.1996 -0.0931 -1.3197
   64MOL0     H 8602   7.287   0.857  10.589  0.8214 -0.2038  0.8912
   64MOL0     H 8603   7.297   0.610  10.651  0.0038 -0.2283  2.3588
   64MOL0     H 8604   7.179   0.342  10.618  1.1333 -2.2348 -0.2309
   64MOL0     H 8605   7.301   0.420  10.732 -0.5214 -0.3044 -1.0335
   64MOL0     H 8606   7.254   0.164  10.743 -1.3370 -0.1546  0.5407
   64MOL0     H 8607   7.266   0.269  10.886  1.8674 -1.1389 -0.8179
   64MOL0     H 8608   7.003   0.256  10.863  0.8743  0.3900  1.1490
   64MOL0     H 8609   7.040   0.129  10.749  0.8622  0.9351 -2.1846
   64MOL0     H 8610   7.130   0.128  11.046 -1.5207  1.9810  0.0046
   64MOL0     H 8611   7.176   0.021  10.922  1.0199  1.2589  0.9332
   64MOL0     H 8612   6.932  -0.038  10.881  0.5550 -0.0264 -0.3071
   64MOL0     H 8613   6.890   0.082  11.004 -0.4102  0.2256 -0.9959
   64MOL0     H 8614   6.893  -0.185  11.054  2.1791 -1.5660 -1.7814
   64MOL0     H 8615   7.058  -0.159  11.068 -0.4519  0.5204 -2.3030
   64MOL0     H 8616   6.848  -0.054  11.256 -0.9064 -2.4686 -1.3197
   64MOL0     H 8617   6.987   0.064  11.215  3.4082 -1.3382  1.5920
   64MOL0     H 8618   7.007  -0.071  11.418 -0.3706  0.3025  0.6552
   64MOL0     H 8619   7.017  -0.214  11.314  0.1805  0.1605  0.1375
   64MOL0     H 8620   6.923   0.616  10.814  0.1080  1.0630  1.7268
   64MOL0     H 8621   6.896   0.860  10.765 -1.4211 -0.1029 -2.0365
   64MOL0     H 8622   7.312   1.313  10.511  0.6022 -2.0733  1.3295
   64MOL0     H 8623   7.219   1.523  10.414 -3.4042  2.7360  0.0171
   64MOL0     H 8624   5.652   2.310  11.088 -3.4833  0.0516 -0.2163
   64MOL0     H 8625   5.475   2.171  11.189 -0.6748 -1.1561  0.3509
   64MOL0     H 8626   5.248   1.782  11.089 -2.2671  0.7546  1.4366
   64MOL0     H 8627   5.060   1.636  11.146 -0.1004  3.1412  0.8233
   64MOL0     H 8628   4.896   1.527  11.294  1.9819  1.4387  1.7462
   64MOL0     H 8629   4.895   1.366  11.363  1.2860  0.6591  1.6121
   64MOL0     H 8630   5.040   1.290  11.156  0.3622 -0.0941  0.4496
   64MOL0     H 8631   4.975   1.438  11.072 -1.1416 -0.2021 -0.8697
   64MOL0     H 8632   4.749   1.383  11.095  1.1025  1.2717  1.0538
   64MOL0     H 8633   4.775   1.261  11.209 -1.4022  0.2727  0.8334
   64MOL0     H 8634   4.889   1.227  10.933  2.8491 -0.9300  1.0055
   64MOL0     H 8635   4.874   1.105  11.059  2.6175  1.6107  0.2126
   64MOL0     H 8636   4.511   1.130  10.824 -1.2621  2.1243  0.0901
   64MOL0     H 8637   5.265   1.503  11.486  1.8991  0.5743  0.8077
   64MOL0     H 8638   5.600   1.639  11.406  0.9836  3.5722  1.9938
   64MOL0     H 8639   5.502   1.733  11.522  2.0743 -0.1020  1.8742
   64MOL0     H 8640   5.478   1.564  11.522 -1.7165  1.3227  0.9601
   65MOL0     O 8641   2.763   3.300   5.629 -0.6825 -0.0516 -1.1003
   65MOL0     C 8642   2.791   3.349   5.738 -0.1375  0.8420  0.0399
   65MOL0     O 8643   2.913   3.338   5.799 -0.4090 -0.3094 -0.3642
   65MOL0     C 8644   3.018   3.275   5.735  0.6270 -1.0045  0.6300
   65MOL0     C 8645   3.017   3.144   5.680 -0.0275  0.2824  0.1975
   65MOL0     C 8646   3.129   3.096   5.618  0.1086  1.0129  0.0622
   65MOL0     C 8647   3.253   3.166   5.625 -0.0270 -0.6401  0.1103
   65MOL0     O 8648   3.366   3.140   5.547  0.4355  0.1456 -0.4531
   65MOL0     C 8649   3.353   3.080   5.420  0.2162  0.3732  0.4127
   65MOL0     C 8650   3.459   3.122   5.319 -0.0004 -0.4615 -0.6001
   65MOL0     C 8651   3.599   3.077   5.362 -0.1000 -0.0153 -0.7257
   65MOL0     C 8652   3.705   3.127   5.267 -0.2947 -0.2695 -0.9434
   65MOL0     C 8653   3.835   3.126   5.341  0.3993 -0.0779  0.0746
   65MOL0     C 8654   3.953   3.153   5.251 -0.0493  0.1035  0.8941
   65MOL0     C 8655   4.093   3.123   5.314 -0.1344  0.5137  0.1010
   65MOL0     C 8656   4.151   3.241   5.397 -0.4784 -0.0850  0.3560
   65MOL0     N 8657   4.292   3.213   5.439 -0.2212  0.0380 -1.5018
   65MOL0     C 8658   4.395   3.140   5.375 -0.5284 -0.4443  0.2310
   65MOL0     C 8659   4.508   3.194   5.421  0.1692  0.6670  0.6893
   65MOL0     C 8660   4.644   3.150   5.371 -0.1559 -0.7446 -0.4441
   65MOL0     C 8661   4.703   3.050   5.472  0.0552 -0.1958 -0.1085
   65MOL0     C 8662   4.855   3.040   5.434  0.8978 -0.3355  0.0198
   65MOL0     C 8663   4.930   2.925   5.498  0.5800 -0.5864  1.0906
   65MOL0     O 8664   5.062   2.954   5.458 -0.1499 -0.5585 -0.7730
   65MOL0     C 8665   5.152   2.923   5.556  0.4890  0.5388 -0.2564
   65MOL0     C 8666   5.142   2.798   5.613  0.3433 -0.6398  0.0384
   65MOL0     C 8667   5.247   2.764   5.702  0.1209 -0.2762  0.4599
   65MOL0     C 8668   5.349   2.849   5.736 -0.8348 -0.6444 -0.6844
   65MOL0     C 8669   5.454   2.821   5.841 -0.5967 -0.6994  0.5777
   65MOL0     O 8670   5.531   2.930   5.878  0.1421 -0.2629  0.2887
   65MOL0     C 8671   5.652   2.908   5.947  0.2589 -0.2186  0.8370
   65MOL0     C 8672   5.648   2.830   6.057 -0.1872 -0.2425 -1.8486
   65MOL0     C 8673   5.768   2.762   6.102  0.4546 -0.6677 -0.3581
   65MOL0     C 8674   5.895   2.789   6.048 -0.4681 -0.6607 -0.3296
   65MOL0     O 8675   6.003   2.731   6.114  0.2092  0.2964  0.0863
   65MOL0     C 8676   6.116   2.711   6.036  0.1442 -0.5867 -0.1342
   65MOL0     C 8677   6.229   2.812   6.073  0.5694 -0.1362  0.0757
   65MOL0     C 8678   6.267   2.814   6.227  0.0516  0.0655  0.1797
   65MOL0     C 8679   6.385   2.725   6.257 -0.1930 -0.3352  0.0890
   65MOL0     C 8680   6.441   2.739   6.398  0.4799 -0.0289 -0.0702
   65MOL0     C 8681   6.579   2.675   6.417  0.8206 -0.0798  0.8570
   65MOL0     C 8682   6.558   2.518   6.412 -0.0763  0.1082 -1.1157
   65MOL0     C 8683   6.521   2.473   6.557  0.8421 -0.0787 -0.8065
   65MOL0    Cl 8684   6.662   2.501   6.665 -0.2314  0.5513 -0.1295
   65MOL0     C 8685   5.895   2.886   5.942  1.0784 -0.3885 -0.5562
   65MOL0     C 8686   5.775   2.932   5.888 -0.2160 -0.2582  0.8723
   65MOL0     O 8687   5.477   2.702   5.861  0.2309 -0.1928 -0.1144
   65MOL0     C 8688   5.353   2.976   5.672  0.1377  0.3614 -0.4120
   65MOL0     C 8689   5.252   3.016   5.579 -0.6880  0.0322 -0.2026
   65MOL0     N 8690   4.473   3.287   5.518 -1.2229 -0.4738  0.6774
   65MOL0     N 8691   4.348   3.291   5.528  0.2102  0.1915  0.2681
   65MOL0     C 8692   3.258   3.289   5.686 -0.6269  0.1922 -0.2969
   65MOL0     C 8693   3.133   3.341   5.728  0.4655 -1.1377  0.1293
   65MOL0     C 8694   2.690   3.432   5.808  0.5386  0.1643  0.4809
   65MOL0     C 8695   2.678   3.431   5.948  0.5424  0.2190  0.0445
   65MOL0     C 8696   2.591   3.514   6.017  1.0121 -0.3721 -1.2557
   65MOL0     C 8697   2.502   3.595   5.939 -0.6136 -0.3080  0.4137
   65MOL0     O 8698   2.415   3.690   5.992 -0.7480 -0.3217  0.0838
   65MOL0     C 8699   2.419   3.711   6.133  0.4899 -0.0050 -0.2299
   65MOL0     C 8700   2.295   3.793   6.180 -0.8399 -0.4100 -0.1138
   65MOL0     C 8701   2.258   3.785   6.332 -0.0368 -0.7744  0.8650
   65MOL0     C 8702   2.155   3.892   6.368  0.2511 -0.4830 -0.3635
   65MOL0     C 8703   2.048   3.914   6.268 -0.3724 -0.3638  0.2429
   65MOL0     C 8704   1.950   3.946   6.201 -0.7529  0.1832 -0.7788
   65MOL0     C 8705   2.491   3.583   5.802  0.2551 -0.2901  0.1385
   65MOL0     C 8706   2.588   3.507   5.735 -0.2365 -0.7100  0.1597
   65MOL0     C 8707   2.589   3.523   5.584 -0.1403  0.5962  0.1422
   65MOL0     H 8708   2.934   3.074   5.678 -1.1993  1.6277 -0.3672
   65MOL0     H 8709   3.117   2.996   5.579 -1.2435  0.2082  2.3629
   65MOL0     H 8710   3.346   2.971   5.430 -0.0944  0.2549 -0.8216
   65MOL0     H 8711   3.259   3.118   5.378  2.1087  2.8664 -2.0063
   65MOL0     H 8712   3.459   3.231   5.311  0.6165 -0.5182 -1.4821
   65MOL0     H 8713   3.427   3.083   5.222 -0.4440 -0.9307 -0.2652
   65MOL0     H 8714   3.588   2.969   5.370 -0.7147  0.1529  1.4740
   65MOL0     H 8715   3.621   3.105   5.466  2.4073 -2.2035 -0.5676
   65MOL0     H 8716   3.716   3.076   5.171  2.8732  0.5415 -1.1216
   65MOL0     H 8717   3.687   3.234   5.252 -1.4763 -0.4961 -1.2109
   65MOL0     H 8718   3.829   3.189   5.430  1.3219  0.1500 -0.0107
   65MOL0     H 8719   3.857   3.030   5.389 -1.3446  0.5142  2.2061
   65MOL0     H 8720   3.944   3.094   5.159  0.3799 -0.1628  1.0152
   65MOL0     H 8721   3.943   3.259   5.227 -1.2777 -0.0753  0.5538
   65MOL0     H 8722   4.163   3.101   5.233 -0.7427 -0.7448 -0.1049
   65MOL0     H 8723   4.094   3.034   5.376  0.4621  1.0817  0.9302
   65MOL0     H 8724   4.145   3.337   5.345  2.3392  1.6643  2.8920
   65MOL0     H 8725   4.093   3.269   5.485 -1.1332  3.3947 -1.0246
   65MOL0     H 8726   4.381   3.065   5.298  1.8247 -0.7623  0.0592
   65MOL0     H 8727   4.634   3.114   5.268 -0.7829  2.3884 -1.5923
   65MOL0     H 8728   4.704   3.241   5.375 -1.8375  0.4982 -1.9752
   65MOL0     H 8729   4.690   3.080   5.576 -1.0076  0.0655 -0.3085
   65MOL0     H 8730   4.667   2.948   5.460  0.9171 -0.4890 -0.3165
   65MOL0     H 8731   4.910   3.126   5.472 -1.0361  0.2225  1.7021
   65MOL0     H 8732   4.868   3.036   5.325  0.5880 -1.4510  0.0153
   65MOL0     H 8733   4.899   2.827   5.461  2.3845 -0.7918  0.0120
   65MOL0     H 8734   4.914   2.919   5.606 -2.7872 -3.3008  0.6017
   65MOL0     H 8735   5.058   2.733   5.593  0.3502 -0.3695 -0.9307
   65MOL0     H 8736   5.255   2.669   5.754  0.2534 -1.7227 -2.0149
   65MOL0     H 8737   5.555   2.817   6.111  0.6249  0.7511 -0.0967
   65MOL0     H 8738   5.755   2.689   6.181 -0.4267  1.5761  1.7234
   65MOL0     H 8739   6.155   2.612   6.062 -0.5281 -0.4262  1.5714
   65MOL0     H 8740   6.107   2.714   5.927  2.1417  2.9544 -0.3383
   65MOL0     H 8741   6.315   2.780   6.013 -1.3493 -3.1891 -1.2918
   65MOL0     H 8742   6.198   2.911   6.037  1.4951 -0.6678 -2.3892
   65MOL0     H 8743   6.288   2.917   6.258 -0.2049  0.3787 -0.6445
   65MOL0     H 8744   6.189   2.781   6.297  1.6684  0.2788  2.1703
   65MOL0     H 8745   6.459   2.747   6.180 -0.3758 -2.5623 -0.8110
   65MOL0     H 8746   6.349   2.622   6.253  0.6547 -0.6130 -0.7147
   65MOL0     H 8747   6.373   2.689   6.469 -1.0942 -1.8771 -2.7020
   65MOL0     H 8748   6.449   2.846   6.418  2.5621 -0.3803  1.2763
   65MOL0     H 8749   6.656   2.686   6.340 -1.9080 -0.1761 -2.0386
   65MOL0     H 8750   6.618   2.711   6.513  1.0573  2.2447 -0.0507
   65MOL0     H 8751   6.661   2.484   6.395  0.3187  1.3775 -1.3775
   65MOL0     H 8752   6.499   2.472   6.331 -0.0994 -0.9296 -0.5307
   65MOL0     H 8753   6.429   2.517   6.598 -0.4351 -1.6210 -1.8893
   65MOL0     H 8754   6.504   2.367   6.539 -0.9089  0.2589 -1.4310
   65MOL0     H 8755   5.988   2.916   5.895  1.5215 -0.1498  0.4389
   65MOL0     H 8756   5.772   2.986   5.794 -0.6168  0.0109  1.0356
   65MOL0     H 8757   5.443   3.035   5.687  1.3942 -1.8268  1.1453
   65MOL0     H 8758   5.261   3.101   5.511 -2.5210 -0.0464 -0.6041
   65MOL0     H 8759   3.344   3.355   5.690  0.3097 -1.0549  0.6157
   65MOL0     H 8760   3.128   3.446   5.757 -1.2109 -1.5257  1.3762
   65MOL0     H 8761   2.752   3.376   6.004  1.0326  1.0860  0.2724
   65MOL0     H 8762   2.587   3.506   6.125  0.4709  0.6763 -1.1871
   65MOL0     H 8763   2.509   3.763   6.165 -1.8240  3.7330  0.8783
   65MOL0     H 8764   2.421   3.615   6.186  0.9791 -1.6581 -3.0409
   65MOL0     H 8765   2.209   3.752   6.126 -0.2005  0.4850 -1.8797
   65MOL0     H 8766   2.293   3.897   6.145 -0.6576  0.0019  1.0375
   65MOL0     H 8767   2.346   3.800   6.394 -0.7542  2.6187  1.2286
   65MOL0     H 8768   2.227   3.683   6.357 -1.2855 -0.4114  0.8843
   65MOL0     H 8769   2.105   3.868   6.462  1.2453 -0.6244  0.1446
   65MOL0     H 8770   2.202   3.991   6.376 -1.8929  0.5535  0.1481
   65MOL0     H 8771   1.868   3.981   6.142 -2.6032  0.0787  1.5555
   65MOL0     H 8772   2.414   3.638   5.749  0.8330 -1.4968 -2.1125
   65MOL0     H 8773   2.561   3.430   5.534  1.7396  1.7307 -3.3688
   65MOL0     H 8774   2.523   3.600   5.542 -0.9498  0.0674  0.4124
   65MOL0     H 8775   2.692   3.550   5.560  0.0760 -0.8539 -0.6096
   66MOL0     O 8776   0.350   0.510  10.837  0.0562  0.3378  0.0291
   66MOL0     C 8777   0.289   0.466  10.930  0.0123  0.7082  0.1738
   66MOL0     O 8778   0.343   0.426  11.050 -0.0460 -0.3028  0.1809
   66MOL0     C 8779   0.477   0.460  11.073  0.8634  0.1131 -1.1205
   66MOL0     C 8780   0.584   0.393  11.018 -0.5897 -1.4109 -0.3390
   66MOL0     C 8781   0.709   0.441  11.053 -0.4076  0.3275  0.0877
   66MOL0     C 8782   0.734   0.561  11.127  0.6046  1.9183  0.4286
   66MOL0     O 8783   0.860   0.616  11.159 -0.3547 -0.2139 -0.1257
   66MOL0     C 8784   0.985   0.542  11.123 -0.5822 -0.1249  0.1373
   66MOL0     C 8785   1.110   0.622  11.167 -1.1154 -0.4384  0.9668
   66MOL0     C 8786   1.146   0.735  11.071  0.2433 -0.1525  0.6463
   66MOL0     C 8787   1.250   0.828  11.127  1.0142 -0.6492 -0.6723
   66MOL0     C 8788   1.275   0.949  11.039 -0.1222 -0.3065 -0.2457
   66MOL0     C 8789   1.396   1.027  11.101  0.3704 -0.0219  0.4850
   66MOL0     C 8790   1.430   1.154  11.026  0.2643 -0.6237 -0.6568
   66MOL0     C 8791   1.491   1.139  10.889  0.5531  0.2702  0.1844
   66MOL0     N 8792   1.522   1.268  10.835  0.1851 -0.1548  0.1388
   66MOL0     C 8793   1.432   1.357  10.790  0.3638  0.4993 -0.3357
   66MOL0     C 8794   1.512   1.449  10.730  0.9562  0.2077  0.4812
   66MOL0     C 8795   1.463   1.568  10.652  0.6994  0.0681 -0.2165
   66MOL0     C 8796   1.526   1.571  10.511  0.1926  1.2589 -0.8285
   66MOL0     C 8797   1.637   1.678  10.500  0.3571 -0.1248  1.5101
   66MOL0     C 8798   1.756   1.676  10.599 -0.5618 -0.5582  1.0133
   66MOL0     O 8799   1.831   1.800  10.579  0.3839  0.3764 -0.1961
   66MOL0     C 8800   1.950   1.822  10.641  0.2877  1.0341 -0.4569
   66MOL0     C 8801   2.019   1.937  10.615 -0.1275  0.6791  0.0631
   66MOL0     C 8802   2.151   1.964  10.661  0.3696  0.4677 -0.2752
   66MOL0     C 8803   2.215   1.882  10.749 -0.3019 -0.2483  0.0250
   66MOL0     C 8804   2.364   1.904  10.785  0.1703 -0.2879  0.4922
   66MOL0     O 8805   2.426   1.821  10.879  0.6923 -0.1629  0.3011
   66MOL0     C 8806   2.551   1.855  10.936  0.3762 -0.3016 -0.4108
   66MOL0     C 8807   2.561   1.977  11.005  0.4024  1.2266  0.0059
   66MOL0     C 8808   2.669   2.009  11.084 -0.0224 -0.8394 -0.6375
   66MOL0     C 8809   2.775   1.916  11.097  0.1950  0.1389  0.1657
   66MOL0     O 8810   2.890   1.957  11.164  0.1614 -0.3495 -0.1634
   66MOL0     C 8811   2.874   2.046  11.282 -0.7315  0.1434  0.2006
   66MOL0     C 8812   2.990   2.040  11.378 -0.5411  0.1518  0.4596
   66MOL0     C 8813   3.115   2.110  11.329  0.0743 -0.8655  0.3341
   66MOL0     C 8814   3.227   2.105  11.432  0.1366  0.6682  0.2348
   66MOL0     C 8815   3.332   2.203  11.384 -0.5908  0.1925 -0.6968
   66MOL0     C 8816   3.463   2.159  11.457  0.3505  0.6842  0.2436
   66MOL0     C 8817   3.559   2.066  11.370 -0.0552  0.1789 -0.2383
   66MOL0     C 8818   3.710   2.105  11.365  0.0936 -0.3272  0.5043
   66MOL0    Cl 8819   3.717   2.274  11.270 -0.0150 -0.2648 -0.2492
   66MOL0     C 8820   2.768   1.793  11.028 -0.4074 -0.4226  0.1991
   66MOL0     C 8821   2.653   1.766  10.949  0.0153 -0.5195 -0.2205
   66MOL0     O 8822   2.415   2.008  10.740 -0.1878 -0.3110  0.3941
   66MOL0     C 8823   2.144   1.764  10.786  0.6578  0.8293 -0.0353
   66MOL0     C 8824   2.011   1.732  10.733  0.0004 -0.5184  0.5090
   66MOL0     N 8825   1.643   1.416  10.744 -0.5230 -0.9037 -0.5695
   66MOL0     N 8826   1.650   1.316  10.821 -0.1524 -0.0704  0.0182
   66MOL0     C 8827   0.623   0.622  11.174  0.1349  0.5150  0.7694
   66MOL0     C 8828   0.491   0.573  11.153 -1.2376 -0.4553 -0.6447
   66MOL0     C 8829   0.142   0.435  10.926  0.6683  0.4799  0.6295
   66MOL0     C 8830   0.051   0.431  11.042 -0.4316  0.1132 -0.0233
   66MOL0     C 8831  -0.089   0.437  11.022  0.8501 -0.4792  0.0096
   66MOL0     C 8832  -0.151   0.409  10.903  0.1065 -0.4221  0.2613
   66MOL0     O 8833  -0.292   0.392  10.887 -0.2557  0.3365  0.6623
   66MOL0     C 8834  -0.372   0.437  10.999 -1.1947  0.1445  0.6932
   66MOL0     C 8835  -0.517   0.391  10.966  0.2470 -0.1312 -0.0514
   66MOL0     C 8836  -0.606   0.418  11.090  0.0459 -0.5775  0.0108
   66MOL0     C 8837  -0.630   0.571  11.099  1.0229  0.5549 -0.1556
   66MOL0     C 8838  -0.734   0.590  11.200  0.1906 -0.1336  0.5051
   66MOL0     C 8839  -0.824   0.604  11.286 -0.2692 -0.2201 -0.1095
   66MOL0     C 8840  -0.066   0.385  10.790  0.1382 -0.2534 -1.0156
   66MOL0     C 8841   0.078   0.403  10.803  0.3899 -0.1269 -0.1908
   66MOL0     C 8842   0.153   0.385  10.668 -0.3953  0.0499 -0.0456
   66MOL0     H 8843   0.565   0.308  10.953  0.2638 -4.3429  2.9161
   66MOL0     H 8844   0.800   0.402  11.010  0.6202 -0.5677  2.8502
   66MOL0     H 8845   0.971   0.447  11.174 -1.6571  0.0832  0.2650
   66MOL0     H 8846   0.998   0.509  11.019 -0.1046 -1.8416  0.7273
   66MOL0     H 8847   1.196   0.556  11.160  0.0157  1.1235 -3.8314
   66MOL0     H 8848   1.097   0.663  11.268 -1.8010  2.9376 -0.3378
   66MOL0     H 8849   1.066   0.802  11.038  0.2876 -1.0519 -1.4705
   66MOL0     H 8850   1.183   0.687  10.980 -1.2048 -0.7925  0.3680
   66MOL0     H 8851   1.219   0.866  11.225  1.2717  1.4958 -1.3729
   66MOL0     H 8852   1.340   0.767  11.137  2.6748  1.9195  1.8266
   66MOL0     H 8853   1.285   0.907  10.939 -2.7581 -0.1034 -0.6692
   66MOL0     H 8854   1.187   1.015  11.041  0.1213  0.0252 -0.4855
   66MOL0     H 8855   1.381   1.065  11.203  0.3561  2.8224 -0.4911
   66MOL0     H 8856   1.486   0.965  11.100 -0.1503 -0.8300 -2.0085
   66MOL0     H 8857   1.508   1.203  11.084  1.5002 -1.9418 -1.1644
   66MOL0     H 8858   1.342   1.218  11.011  0.6750  0.0678 -0.1655
   66MOL0     H 8859   1.574   1.070  10.872  1.3493  0.7341  1.9379
   66MOL0     H 8860   1.409   1.104  10.826 -0.1801  0.8253  0.8086
   66MOL0     H 8861   1.324   1.358  10.804  0.0941  1.9301 -2.0420
   66MOL0     H 8862   1.355   1.570  10.636  0.7454  1.8301 -0.6136
   66MOL0     H 8863   1.488   1.653  10.716  0.1316  0.5728 -0.6504
   66MOL0     H 8864   1.570   1.476  10.479  1.5594  0.1619  3.5677
   66MOL0     H 8865   1.450   1.596  10.437 -0.6840 -1.2036 -0.8181
   66MOL0     H 8866   1.579   1.767  10.522  1.0686  0.1929  2.1340
   66MOL0     H 8867   1.667   1.682  10.395 -0.5249  0.9960  1.2798
   66MOL0     H 8868   1.818   1.590  10.574  1.1896 -0.2196  3.7711
   66MOL0     H 8869   1.731   1.665  10.705  0.8923  2.2900  1.7708
   66MOL0     H 8870   1.981   2.002  10.537  1.0729  1.4277  0.0644
   66MOL0     H 8871   2.199   2.048  10.611 -0.3678  0.6419 -0.6995
   66MOL0     H 8872   2.467   2.031  11.014  0.0416  0.8434 -1.3065
   66MOL0     H 8873   2.674   2.100  11.143  3.1649 -1.6388  0.5072
   66MOL0     H 8874   2.870   2.148  11.242  0.7190  0.3554  0.5346
   66MOL0     H 8875   2.775   2.022  11.321 -1.4374  0.9025 -1.0509
   66MOL0     H 8876   2.951   2.082  11.471 -0.8788  1.2131 -0.1490
   66MOL0     H 8877   3.008   1.934  11.399  0.4508  0.4482  1.1408
   66MOL0     H 8878   3.147   2.064  11.235  1.7188  2.0628 -0.6719
   66MOL0     H 8879   3.093   2.212  11.298  0.1903 -1.1715 -0.8154
   66MOL0     H 8880   3.268   2.005  11.447 -0.0359  0.8086  1.7920
   66MOL0     H 8881   3.188   2.134  11.530 -3.4572  1.4331 -1.2445
   66MOL0     H 8882   3.314   2.307  11.414 -2.1686  0.7518 -3.2701
   66MOL0     H 8883   3.355   2.211  11.277  2.1125  5.1564 -0.0681
   66MOL0     H 8884   3.514   2.253  11.476 -0.9443  1.2804  0.9393
   66MOL0     H 8885   3.446   2.116  11.556 -2.1446 -0.8631 -0.7378
   66MOL0     H 8886   3.525   2.054  11.267 -0.6593  3.3765 -0.5021
   66MOL0     H 8887   3.551   1.966  11.414 -0.0125 -1.8333 -4.2802
   66MOL0     H 8888   3.749   2.118  11.466 -0.3840 -1.9787  0.9173
   66MOL0     H 8889   3.777   2.036  11.314  0.9088  2.3334 -2.3639
   66MOL0     H 8890   2.843   1.714  11.032 -0.4395 -0.6228 -1.8850
   66MOL0     H 8891   2.638   1.669  10.903 -2.5587  1.7709 -4.9199
   66MOL0     H 8892   2.198   1.688  10.842  0.3735 -2.7460 -4.1446
   66MOL0     H 8893   1.975   1.637  10.771 -0.0530 -1.1637 -1.0778
   66MOL0     H 8894   0.639   0.710  11.236  1.7520  0.4678  0.4696
   66MOL0     H 8895   0.400   0.617  11.192 -0.5798 -1.6605  2.5847
   66MOL0     H 8896   0.095   0.434  11.141  1.5275 -2.9679 -0.6454
   66MOL0     H 8897  -0.149   0.450  11.112  0.9452  1.0379 -0.1152
   66MOL0     H 8898  -0.372   0.545  11.010 -2.0147  0.6209 -2.8538
   66MOL0     H 8899  -0.335   0.389  11.090 -1.7252 -0.9133  0.3658
   66MOL0     H 8900  -0.529   0.284  10.945  0.1203 -0.9906  3.6391
   66MOL0     H 8901  -0.550   0.448  10.879 -2.2078 -0.5033  0.5576
   66MOL0     H 8902  -0.557   0.374  11.177  1.9959  0.5787 -0.4504
   66MOL0     H 8903  -0.703   0.369  11.072  0.3854 -0.7549 -1.4932
   66MOL0     H 8904  -0.531   0.606  11.130  1.8879 -2.4335  0.7622
   66MOL0     H 8905  -0.662   0.614  11.003 -1.2652 -0.2279  0.2134
   66MOL0     H 8906  -0.912   0.623  11.345 -0.8310 -0.2807 -0.9086
   66MOL0     H 8907  -0.113   0.366  10.694 -0.2070  1.3860 -1.2091
   66MOL0     H 8908   0.255   0.347  10.681  0.1781  1.6753  0.4792
   66MOL0     H 8909   0.103   0.316  10.599 -1.2342  1.3800 -0.7992
   66MOL0     H 8910   0.168   0.478  10.613 -0.3949 -0.0156 -0.1596
   67MOL0     O 8911   5.084   9.169   2.694  0.4743  0.1448 -0.2861
   67MOL0     C 8912   5.004   9.258   2.665 -0.1408 -0.4467  0.1763
   67MOL0     O 8913   5.033   9.364   2.576  0.3868 -0.3683 -0.2814
   67MOL0     C 8914   5.159   9.371   2.522 -0.4353  0.1046  0.2401
   67MOL0     C 8915   5.226   9.262   2.466 -0.5436  0.1446 -0.1438
   67MOL0     C 8916   5.352   9.284   2.417 -0.1462 -0.6958 -0.8342
   67MOL0     C 8917   5.422   9.405   2.413  0.2353  0.3282  0.1614
   67MOL0     O 8918   5.557   9.411   2.370  0.0379 -0.4230  0.1223
   67MOL0     C 8919   5.640   9.504   2.442  0.8096 -1.0308  0.0458
   67MOL0     C 8920   5.783   9.509   2.399 -0.7609  0.0162 -0.1758
   67MOL0     C 8921   5.837   9.649   2.432 -0.0964 -0.2987 -0.4245
   67MOL0     C 8922   5.989   9.642   2.426  0.4605 -0.8861  0.4785
   67MOL0     C 8923   6.048   9.775   2.477  0.5523  1.2109 -0.5231
   67MOL0     C 8924   6.196   9.761   2.504  0.5615 -0.1021 -0.5045
   67MOL0     C 8925   6.270   9.724   2.375  0.9154 -0.0973  0.3404
   67MOL0     C 8926   6.419   9.774   2.383  0.0851  0.3337 -1.0958
   67MOL0     N 8927   6.506   9.680   2.454 -0.1313  0.3423  0.6428
   67MOL0     C 8928   6.545   9.558   2.402  0.7518 -0.1346  0.5201
   67MOL0     C 8929   6.625   9.506   2.504  0.7987 -0.1693 -0.2158
   67MOL0     C 8930   6.707   9.381   2.493  0.1284 -0.7440 -0.2703
   67MOL0     C 8931   6.843   9.400   2.429 -0.3103  0.8069  0.7883
   67MOL0     C 8932   6.946   9.461   2.528 -0.4962  0.3575 -0.4345
   67MOL0     C 8933   7.080   9.504   2.475  0.1915  0.0259  0.4337
   67MOL0     O 8934   7.129   9.389   2.412 -0.2984 -0.1412  0.5365
   67MOL0     C 8935   7.262   9.394   2.376 -1.0486 -0.8440 -0.1302
   67MOL0     C 8936   7.321   9.268   2.380  0.5017 -0.1869 -1.0141
   67MOL0     C 8937   7.448   9.254   2.333 -0.2629  0.1422 -0.6369
   67MOL0     C 8938   7.525   9.365   2.287  0.4758  0.9261 -0.2376
   67MOL0     C 8939   7.664   9.359   2.235  0.2249  0.5272 -0.4129
   67MOL0     O 8940   7.706   9.231   2.212 -0.2921 -0.3674  0.1167
   67MOL0     C 8941   7.837   9.198   2.181 -0.1768  0.6591  0.2564
   67MOL0     C 8942   7.947   9.286   2.152 -0.1748 -0.3213  0.0786
   67MOL0     C 8943   8.077   9.232   2.128  0.1429 -0.4973  0.2217
   67MOL0     C 8944   8.103   9.096   2.133  0.2404 -0.0905 -0.9443
   67MOL0     O 8945   8.227   9.056   2.107 -0.6492 -0.4662 -0.6665
   67MOL0     C 8946   8.253   8.911   2.112 -0.8770 -1.0625  0.5657
   67MOL0     C 8947   8.409   8.885   2.088  0.1605 -0.7417  0.1731
   67MOL0     C 8948   8.495   8.963   2.191 -1.1627  0.1277  0.2110
   67MOL0     C 8949   8.648   8.919   2.179  0.1763 -0.8852 -0.0684
   67MOL0     C 8950   8.727   8.996   2.290 -0.3477 -0.7895  1.0072
   67MOL0     C 8951   8.870   8.939   2.301  0.4117  0.1447  1.0259
   67MOL0     C 8952   8.927   8.970   2.439 -0.6902 -0.7180  0.5102
   67MOL0     C 8953   9.071   8.930   2.446  0.2555 -0.1615 -0.3492
   67MOL0    Cl 8954   9.139   8.971   2.608  0.4845  0.1369  0.3119
   67MOL0     C 8955   7.990   9.012   2.158 -0.2693 -0.0674 -0.4389
   67MOL0     C 8956   7.865   9.057   2.188  0.5529  0.1277 -0.0596
   67MOL0     O 8957   7.731   9.463   2.221 -0.2631 -0.0725 -0.5277
   67MOL0     C 8958   7.466   9.493   2.287 -0.5667 -0.2945  0.0733
   67MOL0     C 8959   7.334   9.513   2.337 -0.0010 -0.0962  0.7647
   67MOL0     N 8960   6.625   9.595   2.612 -0.1075  0.2351  1.0062
   67MOL0     N 8961   6.542   9.688   2.583  0.2341 -0.5349  0.8480
   67MOL0     C 8962   5.344   9.514   2.472  0.3631 -0.2129 -0.2914
   67MOL0     C 8963   5.217   9.496   2.517 -0.0084  0.6343  0.6985
   67MOL0     C 8964   4.875   9.257   2.742 -0.4401 -0.2735 -0.2619
   67MOL0     C 8965   4.771   9.351   2.704  0.1454 -0.5918 -0.4964
   67MOL0     C 8966   4.647   9.358   2.766 -0.1872 -0.0172  0.0514
   67MOL0     C 8967   4.629   9.281   2.876  0.4515 -0.3323 -0.6244
   67MOL0     O 8968   4.509   9.292   2.950 -0.0313  0.7075  0.0791
   67MOL0     C 8969   4.509   9.298   3.091  0.7390  0.2252 -0.0156
   67MOL0     C 8970   4.377   9.353   3.159 -0.1894  0.1768  0.0479
   67MOL0     C 8971   4.251   9.289   3.108  0.0877 -0.2942  0.4365
   67MOL0     C 8972   4.224   9.157   3.169 -0.1103  0.5044 -0.1240
   67MOL0     C 8973   4.084   9.125   3.139  0.4021 -0.1586  0.4195
   67MOL0     C 8974   3.970   9.102   3.111 -0.6834 -0.0759 -0.1115
   67MOL0     C 8975   4.729   9.196   2.924 -0.2082 -0.4531  0.5815
   67MOL0     C 8976   4.851   9.190   2.866 -0.2930  0.3924  0.2476
   67MOL0     C 8977   4.953   9.093   2.932  0.0731  0.1705  0.0477
   67MOL0     H 8978   5.193   9.159   2.463  2.6293 -1.0907  1.5242
   67MOL0     H 8979   5.404   9.195   2.384  2.2305  0.4689 -0.4972
   67MOL0     H 8980   5.596   9.604   2.447  2.1644 -0.4016 -0.1572
   67MOL0     H 8981   5.647   9.472   2.546  1.0541  1.5306  0.8810
   67MOL0     H 8982   5.788   9.490   2.292  1.0911 -1.0637  0.0656
   67MOL0     H 8983   5.835   9.428   2.451 -0.1823  2.6631  3.8823
   67MOL0     H 8984   5.830   9.665   2.540  2.6128 -2.3433  0.1641
   67MOL0     H 8985   5.793   9.725   2.367 -2.9417 -0.3480  1.2558
   67MOL0     H 8986   6.020   9.558   2.489  0.9278 -0.7561  0.4193
   67MOL0     H 8987   6.018   9.626   2.322 -0.0182  2.2003 -0.2273
   67MOL0     H 8988   6.030   9.864   2.416 -1.3780  0.0616 -1.7598
   67MOL0     H 8989   6.006   9.793   2.576  1.1756 -1.2228  0.2566
   67MOL0     H 8990   6.242   9.855   2.535  0.9050 -1.0659  2.1907
   67MOL0     H 8991   6.217   9.689   2.584 -1.4574 -2.4539 -1.9493
   67MOL0     H 8992   6.225   9.781   2.293  0.8690 -0.1579  0.3241
   67MOL0     H 8993   6.256   9.618   2.353  0.0745  0.1944 -0.6296
   67MOL0     H 8994   6.452   9.794   2.280 -0.9814  0.6567 -1.3901
   67MOL0     H 8995   6.420   9.867   2.441 -1.7149 -0.7261  0.7842
   67MOL0     H 8996   6.528   9.516   2.303  5.1689  0.1788 -0.5963
   67MOL0     H 8997   6.710   9.337   2.593  0.4207 -1.6933 -0.6920
   67MOL0     H 8998   6.645   9.315   2.433  0.7719 -0.4286 -1.3088
   67MOL0     H 8999   6.888   9.309   2.387  1.9417  2.1224  0.2100
   67MOL0     H 9000   6.840   9.468   2.344 -1.0712  1.0470  1.0035
   67MOL0     H 9001   6.969   9.389   2.607 -0.5624  1.0819  0.2582
   67MOL0     H 9002   6.899   9.541   2.586 -0.1242  0.0132  0.3555
   67MOL0     H 9003   7.149   9.540   2.552 -3.0835  1.1357  3.1055
   67MOL0     H 9004   7.060   9.581   2.401  1.1878  0.4232  0.5737
   67MOL0     H 9005   7.272   9.182   2.425 -0.3275  1.1162  0.7173
   67MOL0     H 9006   7.502   9.160   2.324 -0.1651 -0.1455  2.0753
   67MOL0     H 9007   7.947   9.395   2.151 -0.8520 -0.3012 -1.7530
   67MOL0     H 9008   8.166   9.293   2.117 -2.0048  2.5091 -2.3955
   67MOL0     H 9009   8.222   8.874   2.210 -1.8440 -2.5808 -0.2842
   67MOL0     H 9010   8.206   8.851   2.034  0.4225  2.1860 -3.0613
   67MOL0     H 9011   8.436   8.779   2.091  2.3625 -0.2137  0.8049
   67MOL0     H 9012   8.431   8.904   1.982 -2.1446 -5.9513 -1.5476
   67MOL0     H 9013   8.491   9.071   2.179 -2.7887  0.1231  0.5216
   67MOL0     H 9014   8.470   8.943   2.296 -1.1273 -1.9447 -0.1241
   67MOL0     H 9015   8.698   8.942   2.085  3.0693 -1.1430  1.2999
   67MOL0     H 9016   8.645   8.810   2.191 -1.5367 -0.6492  2.2258
   67MOL0     H 9017   8.683   8.989   2.390  2.1881  1.5274  2.4024
   67MOL0     H 9018   8.721   9.103   2.272  0.1125 -1.0704 -1.0426
   67MOL0     H 9019   8.884   8.833   2.277  1.5996  0.3027  0.9692
   67MOL0     H 9020   8.933   8.986   2.225  1.6044 -1.6009  0.8612
   67MOL0     H 9021   8.866   8.914   2.510  0.1071 -1.4454  0.6362
   67MOL0     H 9022   8.906   9.076   2.456  1.9106 -0.6450  4.5269
   67MOL0     H 9023   9.085   8.822   2.435  1.5353 -0.4215  2.8525
   67MOL0     H 9024   9.135   8.983   2.376  2.6543 -0.0748  1.7746
   67MOL0     H 9025   7.982   8.904   2.164 -2.5120  0.1188  2.1833
   67MOL0     H 9026   7.793   8.984   2.223 -0.2837  1.1649  0.4408
   67MOL0     H 9027   7.529   9.575   2.254 -0.4243 -0.5280 -0.2390
   67MOL0     H 9028   7.294   9.611   2.315 -0.8395 -0.8896 -1.6689
   67MOL0     H 9029   5.383   9.612   2.496 -0.1310 -0.7357  3.1776
   67MOL0     H 9030   5.170   9.585   2.558 -0.0270  1.9751 -2.0113
   67MOL0     H 9031   4.777   9.421   2.621 -3.8624  1.4134  0.6649
   67MOL0     H 9032   4.564   9.416   2.725  1.1425  0.2388 -2.4911
   67MOL0     H 9033   4.597   9.353   3.127 -0.1778  2.4607 -0.9991
   67MOL0     H 9034   4.532   9.201   3.135 -0.7529 -0.8483 -1.4646
   67MOL0     H 9035   4.360   9.459   3.141 -1.3577 -0.2779 -1.7574
   67MOL0     H 9036   4.372   9.359   3.268 -3.1314  0.6254 -0.0308
   67MOL0     H 9037   4.268   9.294   3.000  0.6483 -1.3630  0.4588
   67MOL0     H 9038   4.172   9.361   3.130 -1.4009 -1.9334  0.7431
   67MOL0     H 9039   4.286   9.084   3.116 -1.6043 -0.3714 -0.7274
   67MOL0     H 9040   4.244   9.158   3.277  3.1407  0.6572 -0.6393
   67MOL0     H 9041   3.868   9.078   3.086 -1.2726  0.9416  1.2048
   67MOL0     H 9042   4.718   9.147   3.020 -2.5276 -0.6171  0.2987
   67MOL0     H 9043   4.995   9.028   2.855  4.9866  2.1382  0.7221
   67MOL0     H 9044   5.035   9.151   2.975 -0.5355  0.1486  1.3018
   67MOL0     H 9045   4.916   9.018   3.004  0.3199  1.4927  1.6185
   68MOL0     O 9046   4.693   1.791   4.872 -0.4351 -0.2450  0.6083
   68MOL0     C 9047   4.721   1.884   4.950 -0.3444 -0.5757 -0.8463
   68MOL0     O 9048   4.629   1.935   5.042  0.1749 -0.0615 -0.2761
   68MOL0     C 9049   4.499   1.939   5.006  0.5885  1.0185 -0.4730
   68MOL0     C 9050   4.414   1.921   5.111  0.5283  0.0294  0.1120
   68MOL0     C 9051   4.277   1.923   5.087  0.6782  0.0119  0.1455
   68MOL0     C 9052   4.224   1.931   4.960 -0.9086 -0.0368  0.1132
   68MOL0     O 9053   4.085   1.929   4.960 -0.0512  0.5456 -0.0588
   68MOL0     C 9054   4.043   1.832   4.867  0.1297  0.2846 -0.3386
   68MOL0     C 9055   3.901   1.781   4.884  0.4192  0.4364  0.4407
   68MOL0     C 9056   3.782   1.886   4.869 -1.0084 -0.8090 -0.0712
   68MOL0     C 9057   3.763   1.933   4.728 -0.3326  0.0212 -0.2953
   68MOL0     C 9058   3.716   2.075   4.687 -0.2785 -0.3924  0.0073
   68MOL0     C 9059   3.810   2.190   4.741  0.1778  0.2698  0.3845
   68MOL0     C 9060   3.966   2.193   4.715 -0.0406  0.0098 -0.8868
   68MOL0     C 9061   4.026   2.238   4.580 -0.4260  0.7807  0.0024
   68MOL0     N 9062   4.168   2.262   4.594  0.2457  0.1281 -0.1337
   68MOL0     C 9063   4.220   2.366   4.678  0.3242  0.2828 -0.1592
   68MOL0     C 9064   4.356   2.327   4.686 -0.2521 -0.4145 -0.0645
   68MOL0     C 9065   4.468   2.410   4.737 -0.1158 -0.8196 -0.0778
   68MOL0     C 9066   4.571   2.435   4.626  0.7851  0.1098 -0.0640
   68MOL0     C 9067   4.694   2.521   4.660 -0.0896  0.2213 -0.4505
   68MOL0     C 9068   4.789   2.454   4.761  1.0487 -0.4887 -0.4288
   68MOL0     O 9069   4.747   2.502   4.894 -0.6346  0.2702  0.1747
   68MOL0     C 9070   4.829   2.458   4.996  0.1132 -0.5133  0.2649
   68MOL0     C 9071   4.873   2.325   5.004 -0.8499 -0.5929  0.6796
   68MOL0     C 9072   4.959   2.289   5.114  0.1617 -0.1273 -0.2735
   68MOL0     C 9073   4.991   2.388   5.216  0.4463 -1.0826 -0.2370
   68MOL0     C 9074   5.069   2.343   5.337 -0.2501  0.1161  0.7025
   68MOL0     O 9075   5.069   2.441   5.429  0.0463 -0.0025  0.4040
   68MOL0     C 9076   5.160   2.418   5.532  0.3151  0.5749 -1.0606
   68MOL0     C 9077   5.117   2.351   5.647  0.3519 -0.3731  0.7760
   68MOL0     C 9078   5.209   2.311   5.741 -0.2248  0.3174  0.0700
   68MOL0     C 9079   5.342   2.352   5.734  0.3961 -0.7176 -0.5215
   68MOL0     O 9080   5.424   2.314   5.846 -0.6108 -0.1279 -0.2364
   68MOL0     C 9081   5.557   2.368   5.845 -0.1272 -0.1484  0.9515
   68MOL0     C 9082   5.631   2.321   5.962 -0.7418 -0.6763  0.7705
   68MOL0     C 9083   5.783   2.325   5.936 -0.0366 -0.5403  0.1288
   68MOL0     C 9084   5.857   2.297   6.067 -0.3741 -0.2504 -0.2061
   68MOL0     C 9085   6.003   2.256   6.047 -0.3864  0.0213  0.6732
   68MOL0     C 9086   6.097   2.310   6.145  0.4492  0.1094 -0.4056
   68MOL0     C 9087   6.082   2.225   6.275 -0.6402  0.2797  0.4786
   68MOL0     C 9088   6.101   2.304   6.403 -0.8279 -0.1385  0.0515
   68MOL0    Cl 9089   6.249   2.394   6.396 -0.2276 -0.1728  0.5409
   68MOL0     C 9090   5.389   2.436   5.627 -0.2128 -1.0158  0.1950
   68MOL0     C 9091   5.288   2.475   5.529  0.1253 -0.2516  0.6082
   68MOL0     O 9092   5.123   2.235   5.348 -1.3846 -0.0950  0.6141
   68MOL0     C 9093   4.922   2.515   5.220 -1.1942 -0.6135  0.4982
   68MOL0     C 9094   4.858   2.550   5.098  0.3868  0.2938 -0.3709
   68MOL0     N 9095   4.384   2.218   4.609  0.2235  0.6152 -0.0047
   68MOL0     N 9096   4.271   2.171   4.563 -0.8732  0.4074 -0.0680
   68MOL0     C 9097   4.306   1.948   4.847  0.3961 -0.4159 -0.2236
   68MOL0     C 9098   4.444   1.950   4.874 -0.6922 -0.3413  0.2043
   68MOL0     C 9099   4.865   1.902   4.993  0.2631 -0.0453 -0.2038
   68MOL0     C 9100   4.962   1.892   4.890 -1.0847  0.5616 -0.1287
   68MOL0     C 9101   5.094   1.897   4.912  0.2515  0.0626 -0.7193
   68MOL0     C 9102   5.144   1.904   5.041 -0.0767 -0.8914  0.3492
   68MOL0     O 9103   5.281   1.914   5.052  0.5064  0.3466  0.2714
   68MOL0     C 9104   5.344   1.909   5.177  0.6051 -0.2310 -0.5206
   68MOL0     C 9105   5.492   1.923   5.153  0.0810  0.2411  0.3539
   68MOL0     C 9106   5.522   2.046   5.058 -0.5493  0.1884 -0.5531
   68MOL0     C 9107   5.666   2.063   5.009  0.0552  0.2551  0.1122
   68MOL0     C 9108   5.767   2.055   5.113 -0.0343  0.1791  0.3194
   68MOL0     C 9109   5.864   2.039   5.185  0.3054 -0.0276 -0.0080
   68MOL0     C 9110   5.055   1.925   5.142 -1.6546  0.4427  0.3300
   68MOL0     C 9111   4.921   1.912   5.123 -0.4073  0.1166  0.1362
   68MOL0     C 9112   4.841   1.919   5.248 -0.2330 -0.8569  0.3339
   68MOL0     H 9113   4.441   1.924   5.216 -1.9388 -2.5138  0.9367
   68MOL0     H 9114   4.218   1.898   5.175  2.7500 -6.0491  0.2516
   68MOL0     H 9115   4.058   1.871   4.766  1.1344  2.2478  0.5097
   68MOL0     H 9116   4.102   1.741   4.881 -1.2077 -0.7357 -1.1038
   68MOL0     H 9117   3.904   1.744   4.986  3.7102 -0.9755 -0.0377
   68MOL0     H 9118   3.879   1.707   4.806 -1.3903  1.8174 -0.4421
   68MOL0     H 9119   3.796   1.969   4.939 -0.7882 -0.5815 -0.3837
   68MOL0     H 9120   3.688   1.841   4.903 -1.0946 -1.0560 -0.6232
   68MOL0     H 9121   3.858   1.914   4.677 -1.1058 -2.1363 -1.0117
   68MOL0     H 9122   3.690   1.867   4.682 -2.0616  2.9635 -2.0856
   68MOL0     H 9123   3.723   2.092   4.580  0.0737  3.9594  0.5450
   68MOL0     H 9124   3.610   2.094   4.710 -0.3558 -0.7936 -0.0067
   68MOL0     H 9125   3.770   2.287   4.712 -0.0860  0.1337  0.2928
   68MOL0     H 9126   3.801   2.197   4.850  0.8686 -0.0681  0.4708
   68MOL0     H 9127   4.004   2.096   4.749  0.9760  1.3595  2.1690
   68MOL0     H 9128   4.007   2.259   4.792 -1.1820  0.0503 -0.2826
   68MOL0     H 9129   4.007   2.157   4.509 -1.8638  0.1397  1.0873
   68MOL0     H 9130   3.967   2.328   4.561 -1.6274  0.1805  0.7988
   68MOL0     H 9131   4.154   2.439   4.724 -2.7938  0.1915 -3.9976
   68MOL0     H 9132   4.424   2.506   4.763  0.0027 -0.9582  0.6607
   68MOL0     H 9133   4.532   2.370   4.817  1.5749 -0.4458 -1.1777
   68MOL0     H 9134   4.614   2.349   4.574  1.2666 -0.3460  1.0530
   68MOL0     H 9135   4.515   2.493   4.553 -3.7734 -1.6805  1.6172
   68MOL0     H 9136   4.663   2.615   4.707  0.7136  0.8051 -1.0533
   68MOL0     H 9137   4.748   2.552   4.570 -1.4509 -1.2543 -1.8504
   68MOL0     H 9138   4.890   2.488   4.734  0.3819  1.8366 -0.1411
   68MOL0     H 9139   4.797   2.345   4.750  3.4964 -0.4032 -0.0024
   68MOL0     H 9140   4.835   2.253   4.933  0.2070  0.4489 -1.0134
   68MOL0     H 9141   5.007   2.192   5.117  0.2030 -0.0821  2.1940
   68MOL0     H 9142   5.018   2.310   5.664  0.9419 -1.5353  1.5419
   68MOL0     H 9143   5.178   2.268   5.836 -0.5256 -0.7265 -0.4937
   68MOL0     H 9144   5.621   2.325   5.767  1.6808 -1.1202  2.8640
   68MOL0     H 9145   5.551   2.477   5.834  1.4704 -0.1654 -0.6894
   68MOL0     H 9146   5.609   2.390   6.044 -1.1098 -0.2352  0.3090
   68MOL0     H 9147   5.607   2.217   5.987  0.4015 -1.6544 -1.8599
   68MOL0     H 9148   5.809   2.252   5.859 -0.6186 -0.4958 -0.1147
   68MOL0     H 9149   5.808   2.425   5.901 -1.4282 -0.8048 -1.8002
   68MOL0     H 9150   5.807   2.212   6.114  0.8097 -0.1689  1.2589
   68MOL0     H 9151   5.845   2.380   6.137  2.2167  0.2403 -0.2187
   68MOL0     H 9152   6.044   2.279   5.948 -0.3381  2.0797  1.1335
   68MOL0     H 9153   6.012   2.147   6.053  2.1694  0.1614  0.8183
   68MOL0     H 9154   6.199   2.314   6.104  0.2688  0.2896 -0.8450
   68MOL0     H 9155   6.062   2.411   6.167  0.6369 -0.3769  2.4803
   68MOL0     H 9156   6.147   2.138   6.261 -1.3517 -0.0441 -1.0124
   68MOL0     H 9157   5.982   2.181   6.283 -0.4063 -0.6851 -1.3151
   68MOL0     H 9158   6.017   2.369   6.430  0.7380  1.0379  2.4697
   68MOL0     H 9159   6.117   2.240   6.490 -2.2357  1.1310  1.2898
   68MOL0     H 9160   5.488   2.479   5.627 -0.6872  0.0920 -0.1980
   68MOL0     H 9161   5.314   2.543   5.449  0.2931  0.6004  1.3789
   68MOL0     H 9162   4.950   2.599   5.283  0.1540 -0.2731 -0.5003
   68MOL0     H 9163   4.828   2.655   5.097  0.4900  0.3223 -0.8943
   68MOL0     H 9164   4.262   1.970   4.750 -0.0052 -0.9538 -0.1710
   68MOL0     H 9165   4.502   1.978   4.787  0.0166  0.6270  0.9734
   68MOL0     H 9166   4.925   1.861   4.793 -1.1947 -2.7933  0.8518
   68MOL0     H 9167   5.166   1.877   4.833  0.0964 -0.9156 -0.6283
   68MOL0     H 9168   5.335   1.819   5.238  2.4886 -1.2106 -1.6164
   68MOL0     H 9169   5.309   1.990   5.241 -1.5197 -2.2963  1.1030
   68MOL0     H 9170   5.526   1.829   5.107  1.4285  2.1373 -2.8812
   68MOL0     H 9171   5.546   1.931   5.247 -1.4347 -2.3816  1.5693
   68MOL0     H 9172   5.502   2.141   5.107  0.8845  0.1365  0.2023
   68MOL0     H 9173   5.466   2.046   4.964 -1.0270 -1.0532 -0.2893
   68MOL0     H 9174   5.686   1.978   4.942 -0.5105 -1.6113  2.1785
   68MOL0     H 9175   5.677   2.151   4.946  2.4086 -0.4008 -0.4848
   68MOL0     H 9176   5.947   2.024   5.251 -1.4218 -3.7893  1.6414
   68MOL0     H 9177   5.090   1.963   5.238 -0.6122 -0.5142  0.3493
   68MOL0     H 9178   4.844   2.021   5.287  1.2277 -0.1235 -1.5296
   68MOL0     H 9179   4.737   1.884   5.241 -0.3758 -0.2175 -1.0612
   68MOL0     H 9180   4.883   1.847   5.319 -1.7310 -0.4443  1.6914
   69MOL0     O 9181  11.183   7.681   4.825  0.0247 -0.1218  0.3021
   69MOL0     C 9182  11.086   7.743   4.856 -0.3875 -1.2040 -0.9534
   69MOL0     O 9183  11.091   7.849   4.941  0.3934  0.4133 -0.0600
   69MOL0     C 9184  11.209   7.917   4.953  0.4489 -0.8247  0.4321
   69MOL0     C 9185  11.274   7.930   5.075  0.2558  0.7220  0.0873
   69MOL0     C 9186  11.394   8.006   5.082 -0.3152 -0.4452  0.0487
   69MOL0     C 9187  11.440   8.081   4.972 -0.4983 -1.1357  0.3224
   69MOL0     O 9188  11.536   8.175   4.983  0.1305  0.4002 -0.0508
   69MOL0     C 9189  11.593   8.243   4.866 -0.4401  0.2732 -0.4972
   69MOL0     C 9190  11.712   8.164   4.813  0.4490 -0.1015  0.3026
   69MOL0     C 9191  11.814   8.098   4.917 -0.5624  0.4612 -0.1412
   69MOL0     C 9192  11.876   8.216   4.995 -0.2261  0.8413 -0.1312
   69MOL0     C 9193  12.004   8.170   5.069  1.0247 -0.3830  0.0684
   69MOL0     C 9194  12.083   8.297   5.106 -0.3422 -0.6225 -0.0369
   69MOL0     C 9195  12.229   8.254   5.099 -0.1731 -0.4416 -0.7511
   69MOL0     C 9196  12.321   8.362   5.159 -0.0823  0.2133  0.4167
   69MOL0     N 9197  12.461   8.324   5.134  0.0841 -0.3197 -0.0347
   69MOL0     C 9198  12.537   8.338   5.014 -0.4333 -0.6552 -1.1116
   69MOL0     C 9199  12.665   8.290   5.050  1.5773 -0.1175 -1.1225
   69MOL0     C 9200  12.796   8.301   4.969  0.5220 -0.7507  0.2114
   69MOL0     C 9201  12.867   8.435   4.998  0.2174  0.4017 -0.0670
   69MOL0     C 9202  12.958   8.482   4.890 -0.2649  0.7985 -0.2406
   69MOL0     C 9203  13.066   8.379   4.851  0.0566 -0.6099  0.1866
   69MOL0     O 9204  13.121   8.439   4.727  0.4609 -0.1031  0.0440
   69MOL0     C 9205  13.220   8.368   4.675 -0.5167 -0.4510  0.6678
   69MOL0     C 9206  13.286   8.261   4.733  0.2305  0.5178  0.5946
   69MOL0     C 9207  13.394   8.199   4.666  0.1689 -0.3102 -0.3939
   69MOL0     C 9208  13.446   8.242   4.542 -0.0322  0.2919  0.1253
   69MOL0     C 9209  13.563   8.182   4.477  0.5437  0.3123  0.4359
   69MOL0     O 9210  13.632   8.263   4.398 -0.1079 -0.1024 -0.4662
   69MOL0     C 9211  13.763   8.240   4.383  0.1597 -0.6456  0.2052
   69MOL0     C 9212  13.823   8.305   4.275  0.6301 -0.2067 -0.1001
   69MOL0     C 9213  13.961   8.295   4.246 -0.5621 -0.0640  0.7362
   69MOL0     C 9214  14.051   8.219   4.321 -1.1006  0.3378  0.2052
   69MOL0     O 9215  14.187   8.227   4.312 -0.5075 -0.4109 -0.5765
   69MOL0     C 9216  14.247   8.258   4.186 -0.0953  0.3893 -0.2933
   69MOL0     C 9217  14.322   8.391   4.197 -0.0380 -0.6906 -0.5879
   69MOL0     C 9218  14.452   8.370   4.284  0.5587  0.1626  0.5396
   69MOL0     C 9219  14.583   8.323   4.210  0.0978  0.4003 -0.6264
   69MOL0     C 9220  14.708   8.399   4.276  0.1479  0.3237  0.8779
   69MOL0     C 9221  14.827   8.364   4.189  0.7395  0.0196  0.5111
   69MOL0     C 9222  14.947   8.440   4.235 -0.1171  0.2902 -0.3470
   69MOL0     C 9223  15.035   8.370   4.342 -0.1222  1.0030 -0.7262
   69MOL0    Cl 9224  15.087   8.213   4.268 -0.4380 -0.3164 -0.3589
   69MOL0     C 9225  13.998   8.159   4.428  0.7530 -0.4657 -0.1516
   69MOL0     C 9226  13.854   8.156   4.454 -0.2245  0.3452 -1.1526
   69MOL0     O 9227  13.582   8.058   4.485  0.4255  0.2597  1.1707
   69MOL0     C 9228  13.374   8.354   4.486 -0.3489  0.5657  0.2076
   69MOL0     C 9229  13.267   8.411   4.548 -0.2847 -0.7684 -0.5333
   69MOL0     N 9230  12.663   8.265   5.187 -0.6958  0.0873 -0.0137
   69MOL0     N 9231  12.552   8.294   5.238  0.2703  0.3377 -0.3170
   69MOL0     C 9232  11.372   8.060   4.850 -0.9033 -0.0416 -0.1801
   69MOL0     C 9233  11.256   7.983   4.837  0.0776  0.1049  0.1712
   69MOL0     C 9234  10.947   7.711   4.819  0.8392  0.8695 -0.1176
   69MOL0     C 9235  10.847   7.809   4.833  0.1352 -0.1391  0.3504
   69MOL0     C 9236  10.711   7.785   4.799  0.1153 -0.4382  0.1905
   69MOL0     C 9237  10.670   7.669   4.741  0.1877  1.0227  0.3253
   69MOL0     O 9238  10.543   7.658   4.691 -0.0493 -0.5893 -0.2366
   69MOL0     C 9239  10.503   7.551   4.611 -0.7458  0.1390  0.5006
   69MOL0     C 9240  10.481   7.423   4.701  0.4906  0.0895  0.3587
   69MOL0     C 9241  10.351   7.421   4.777  0.1238 -0.2087 -1.2564
   69MOL0     C 9242  10.377   7.492   4.912  0.1762 -0.0531  0.3135
   69MOL0     C 9243  10.255   7.496   4.997  0.1115 -1.2348  1.3460
   69MOL0     C 9244  10.144   7.505   5.050  0.7314 -1.3314  0.3606
   69MOL0     C 9245  10.781   7.574   4.715  0.3530 -0.6065  0.0485
   69MOL0     C 9246  10.914   7.587   4.762  0.2814  0.2466 -0.0940
   69MOL0     C 9247  10.999   7.460   4.755  0.1170  0.3240  0.6359
   69MOL0     H 9248  11.241   7.885   5.168 -0.1034 -0.2757 -0.4958
   69MOL0     H 9249  11.437   8.013   5.182 -0.2693 -2.1852  0.1908
   69MOL0     H 9250  11.535   8.275   4.779  0.4130  1.6774 -0.5723
   69MOL0     H 9251  11.627   8.336   4.913  1.2909 -0.2735 -0.6073
   69MOL0     H 9252  11.777   8.234   4.759  0.3296 -1.5113 -1.7750
   69MOL0     H 9253  11.683   8.079   4.751  0.5264 -1.3793  1.9292
   69MOL0     H 9254  11.892   8.035   4.873  0.7427  1.0002  1.2998
   69MOL0     H 9255  11.771   8.028   4.989 -0.0748 -0.1012 -0.3898
   69MOL0     H 9256  11.901   8.294   4.923  0.3800  1.4795  0.7475
   69MOL0     H 9257  11.798   8.261   5.058 -0.7718  0.2556 -0.3769
   69MOL0     H 9258  11.978   8.115   5.160 -3.4105  0.9892 -0.1437
   69MOL0     H 9259  12.059   8.101   5.004 -0.2870 -2.9123  1.4683
   69MOL0     H 9260  12.066   8.375   5.031  0.4732  0.3359  0.7376
   69MOL0     H 9261  12.051   8.331   5.205 -2.0820 -1.6405 -0.2046
   69MOL0     H 9262  12.269   8.223   5.002  1.5306  1.1065 -0.6013
   69MOL0     H 9263  12.243   8.165   5.160  0.2552 -0.7014 -1.2169
   69MOL0     H 9264  12.286   8.453   5.110  3.0620  1.6703  0.6503
   69MOL0     H 9265  12.288   8.373   5.263 -0.7724  1.5715  0.0786
   69MOL0     H 9266  12.504   8.381   4.920 -1.7672 -0.4522 -0.5647
   69MOL0     H 9267  12.857   8.218   5.004  0.4379 -1.0364 -0.3082
   69MOL0     H 9268  12.776   8.280   4.863 -3.3856 -0.9294  0.8521
   69MOL0     H 9269  12.797   8.514   5.027 -0.8978 -0.8539  0.7861
   69MOL0     H 9270  12.928   8.426   5.088 -0.2499  0.9163  0.3094
   69MOL0     H 9271  13.005   8.574   4.926 -1.1427  0.8538  0.8279
   69MOL0     H 9272  12.893   8.504   4.805 -1.1826 -1.9767 -0.3518
   69MOL0     H 9273  13.023   8.280   4.835  1.3791 -1.2769  0.6472
   69MOL0     H 9274  13.150   8.375   4.921  0.6711  0.0937 -0.4966
   69MOL0     H 9275  13.248   8.217   4.824  0.5877  3.0668  2.0645
   69MOL0     H 9276  13.444   8.113   4.708 -2.0529 -0.5996  1.8791
   69MOL0     H 9277  13.766   8.367   4.207 -1.8073 -1.5555  0.5511
   69MOL0     H 9278  13.988   8.349   4.156  1.0265 -1.3449  0.3903
   69MOL0     H 9279  14.321   8.180   4.167  0.5929  0.4290  1.8497
   69MOL0     H 9280  14.172   8.262   4.107 -1.4215 -0.9118  0.8338
   69MOL0     H 9281  14.346   8.428   4.096 -1.1092  2.7506  0.2825
   69MOL0     H 9282  14.272   8.468   4.255 -0.6944  0.9978 -3.2002
   69MOL0     H 9283  14.463   8.467   4.333  0.8126 -0.2537  1.3294
   69MOL0     H 9284  14.425   8.318   4.376 -1.1597  0.4309  0.2305
   69MOL0     H 9285  14.565   8.352   4.106 -0.6242  1.2918 -0.2681
   69MOL0     H 9286  14.603   8.215   4.217  0.4820  0.4287 -1.2006
   69MOL0     H 9287  14.729   8.374   4.380  3.5458  1.3918  0.5896
   69MOL0     H 9288  14.691   8.507   4.274 -2.3982  0.0229 -2.2732
   69MOL0     H 9289  14.844   8.256   4.201 -1.4058 -0.2405  1.7101
   69MOL0     H 9290  14.815   8.377   4.081  0.4564 -1.3067  0.3646
   69MOL0     H 9291  14.921   8.541   4.270  1.2828  0.3079  0.7008
   69MOL0     H 9292  15.019   8.446   4.154 -0.7226 -1.1685 -1.0339
   69MOL0     H 9293  15.117   8.433   4.378 -0.1124  1.8374 -2.1246
   69MOL0     H 9294  14.977   8.347   4.431  0.3904  1.5798 -0.2303
   69MOL0     H 9295  14.066   8.092   4.479  1.3315 -0.3031 -0.6988
   69MOL0     H 9296  13.815   8.101   4.539  0.3240 -0.0154 -1.1332
   69MOL0     H 9297  13.405   8.398   4.392 -2.3979  1.8558  0.0619
   69MOL0     H 9298  13.221   8.497   4.502  0.9097 -0.0212 -0.3718
   69MOL0     H 9299  11.397   8.110   4.757  0.6467  2.5012  1.4679
   69MOL0     H 9300  11.216   7.971   4.737 -3.1352 -0.5877  1.4168
   69MOL0     H 9301  10.871   7.906   4.877 -0.7390  1.8604 -3.1732
   69MOL0     H 9302  10.644   7.869   4.816  2.5538  1.9685 -1.2465
   69MOL0     H 9303  10.575   7.531   4.531  0.9330 -2.8760  2.5717
   69MOL0     H 9304  10.416   7.577   4.551  0.7918  0.6231 -1.6588
   69MOL0     H 9305  10.560   7.403   4.775 -0.2307 -3.2218  0.3901
   69MOL0     H 9306  10.485   7.339   4.631 -0.7197 -0.6045  1.1017
   69MOL0     H 9307  10.308   7.324   4.804  2.3451 -1.3118 -1.4536
   69MOL0     H 9308  10.276   7.480   4.722  1.6159  0.2371 -2.8983
   69MOL0     H 9309  10.449   7.429   4.966 -0.7971  0.1160  1.8658
   69MOL0     H 9310  10.417   7.593   4.904  3.2495 -1.2143 -0.6240
   69MOL0     H 9311  10.044   7.500   5.087  0.9578 -0.9015  1.0394
   69MOL0     H 9312  10.761   7.483   4.659  0.8585 -1.8802  1.8440
   69MOL0     H 9313  10.933   7.382   4.717  1.6497 -0.5182 -0.3764
   69MOL0     H 9314  11.078   7.484   4.684  0.9748 -0.0588  1.4443
   69MOL0     H 9315  11.054   7.426   4.843  0.5540 -1.0325 -0.1496
   70MOL0     O 9316   7.326  10.980   6.027 -0.1484 -0.0857  0.2068
   70MOL0     C 9317   7.275  10.965   5.919  0.7676  0.8108  0.0575
   70MOL0     O 9318   7.322  11.001   5.794  0.4095 -0.1425  0.1483
   70MOL0     C 9319   7.440  11.068   5.787 -0.4689  0.4706 -0.2935
   70MOL0     C 9320   7.545  11.023   5.704 -0.0999 -0.0175 -0.2951
   70MOL0     C 9321   7.657  11.108   5.690  0.0229  0.1554  0.4181
   70MOL0     C 9322   7.665  11.233   5.756 -0.0412  0.0988 -0.0512
   70MOL0     O 9323   7.768  11.318   5.743  0.3321  0.3140 -0.6274
   70MOL0     C 9324   7.889  11.264   5.802 -0.3119  0.1502  0.2399
   70MOL0     C 9325   7.985  11.385   5.807 -0.1224 -0.3235 -0.1455
   70MOL0     C 9326   8.030  11.435   5.668 -0.1438  0.3782  0.2501
   70MOL0     C 9327   8.180  11.471   5.683  1.5088 -0.6400 -0.0817
   70MOL0     C 9328   8.229  11.552   5.566  0.9173  0.4117  0.0667
   70MOL0     C 9329   8.345  11.634   5.611  0.0430 -0.0113 -0.9550
   70MOL0     C 9330   8.418  11.712   5.498  0.1587 -0.2367 -0.2075
   70MOL0     C 9331   8.515  11.630   5.431 -0.8860  0.7708 -0.6342
   70MOL0     N 9332   8.649  11.623   5.496 -0.2289  0.5813 -0.2814
   70MOL0     C 9333   8.735  11.727   5.503 -0.2791  0.0888  0.3607
   70MOL0     C 9334   8.846  11.676   5.573  0.1797  1.1645 -0.0654
   70MOL0     C 9335   8.971  11.750   5.602  0.5641 -0.1281 -0.2535
   70MOL0     C 9336   9.089  11.663   5.632  0.0043  0.9207 -0.6309
   70MOL0     C 9337   9.197  11.750   5.705 -0.7008 -0.0570 -0.4184
   70MOL0     C 9338   9.319  11.664   5.748  0.5171  0.2166 -0.3757
   70MOL0     O 9339   9.393  11.639   5.630 -0.0508  0.3029 -0.7524
   70MOL0     C 9340   9.523  11.659   5.656 -0.0909 -1.0262 -0.8484
   70MOL0     C 9341   9.598  11.606   5.761 -0.3391  0.5641  0.4124
   70MOL0     C 9342   9.735  11.630   5.775  0.3062  0.8994 -0.3893
   70MOL0     C 9343   9.803  11.717   5.684  0.1913 -0.4118 -0.5104
   70MOL0     C 9344   9.945  11.748   5.705  0.9333  0.0631 -0.2186
   70MOL0     O 9345  10.013  11.685   5.809  0.0391 -0.3724 -0.0158
   70MOL0     C 9346  10.148  11.667   5.783  1.3467  0.3989 -0.1012
   70MOL0     C 9347  10.182  11.554   5.710 -1.0116 -0.8065  0.0531
   70MOL0     C 9348  10.320  11.518   5.706 -0.0796 -0.6420 -0.6407
   70MOL0     C 9349  10.417  11.577   5.795 -0.0782 -0.3850  0.7556
   70MOL0     O 9350  10.545  11.530   5.801  0.0202 -0.2670 -0.0502
   70MOL0     C 9351  10.559  11.390   5.833 -0.9343 -0.1323 -0.2871
   70MOL0     C 9352  10.647  11.372   5.961 -0.1067 -0.4132 -0.0102
   70MOL0     C 9353  10.676  11.220   5.992 -0.0844  0.5590 -0.3931
   70MOL0     C 9354  10.778  11.219   6.110 -0.3483 -0.4480  0.4356
   70MOL0     C 9355  10.812  11.068   6.133  0.9490  0.7132 -0.4940
   70MOL0     C 9356  10.923  11.022   6.045 -0.3842  0.9698  0.2428
   70MOL0     C 9357  10.946  10.872   6.068 -0.1900  0.7905 -0.0138
   70MOL0     C 9358  11.023  10.807   5.951 -0.9831 -0.2561 -0.3193
   70MOL0    Cl 9359  11.067  10.642   5.997  0.3069 -0.1739  0.3626
   70MOL0     C 9360  10.374  11.685   5.870  0.2909  0.5516 -0.4681
   70MOL0     C 9361  10.238  11.724   5.867 -0.4477 -0.0982 -0.3324
   70MOL0     O 9362  10.003  11.825   5.623  0.5888  0.0886 -0.3651
   70MOL0     C 9363   9.734  11.770   5.575  0.8008  0.0786  0.1739
   70MOL0     C 9364   9.598  11.729   5.560  0.4496  0.8364 -0.0253
   70MOL0     N 9365   8.828  11.539   5.593 -1.2562 -0.0326  0.0308
   70MOL0     N 9366   8.709  11.512   5.548 -0.3228  0.0447 -1.0355
   70MOL0     C 9367   7.567  11.273   5.843  0.1952  1.1975  0.0520
   70MOL0     C 9368   7.461  11.186   5.868 -0.3418 -0.2661 -0.8134
   70MOL0     C 9369   7.141  10.896   5.911 -0.0510  0.3410 -0.1432
   70MOL0     C 9370   7.082  10.856   5.784  0.0072  0.2348  0.1794
   70MOL0     C 9371   6.965  10.788   5.770 -0.2119  0.0792 -0.5573
   70MOL0     C 9372   6.889  10.756   5.879  0.9061 -0.5708 -0.8761
   70MOL0     O 9373   6.763  10.692   5.865 -0.3895 -0.0729  0.2579
   70MOL0     C 9374   6.693  10.638   5.984 -0.1630  0.2026 -0.1420
   70MOL0     C 9375   6.601  10.744   6.055 -0.6863  0.1410  0.0278
   70MOL0     C 9376   6.509  10.801   5.948  0.0554 -0.6693 -0.3307
   70MOL0     C 9377   6.391  10.893   6.002  0.0745  0.1709  0.2969
   70MOL0     C 9378   6.298  10.798   6.072  0.8285  0.7533 -0.2471
   70MOL0     C 9379   6.214  10.727   6.136  0.3348  0.5051 -0.2601
   70MOL0     C 9380   6.932  10.799   6.005 -0.2123  0.7182  0.5277
   70MOL0     C 9381   7.057  10.878   6.023  0.0161  0.3149 -0.5437
   70MOL0     C 9382   7.082  10.926   6.161 -0.6411 -0.9848  0.8039
   70MOL0     H 9383   7.537  10.927   5.656 -1.4881  0.9833 -2.2105
   70MOL0     H 9384   7.739  11.073   5.629  0.6888 -2.6206  2.6605
   70MOL0     H 9385   7.875  11.213   5.898  1.2359 -0.6796  0.0586
   70MOL0     H 9386   7.927  11.184   5.739  0.7618  1.9214 -1.4670
   70MOL0     H 9387   8.074  11.347   5.857 -0.6168  0.0915  1.0656
   70MOL0     H 9388   7.956  11.468   5.872 -0.8144  0.2949 -1.2107
   70MOL0     H 9389   7.982  11.530   5.641 -0.0455  1.0672  2.3281
   70MOL0     H 9390   8.018  11.362   5.588  0.0478 -2.8167  2.9197
   70MOL0     H 9391   8.200  11.534   5.770  0.7927  3.3682 -2.5455
   70MOL0     H 9392   8.235  11.378   5.697  2.0674 -0.3626 -0.3982
   70MOL0     H 9393   8.243  11.479   5.485 -0.5452 -0.6515  0.7314
   70MOL0     H 9394   8.156  11.622   5.524 -1.7670 -2.5767 -0.6389
   70MOL0     H 9395   8.311  11.701   5.691 -1.0794 -1.3690 -0.2267
   70MOL0     H 9396   8.420  11.566   5.651  2.1798  0.7464 -3.4690
   70MOL0     H 9397   8.463  11.801   5.542 -0.5424  0.0211 -0.0008
   70MOL0     H 9398   8.343  11.752   5.429  1.2362 -0.1100 -1.3546
   70MOL0     H 9399   8.467  11.534   5.411 -1.4008  0.4575  1.7863
   70MOL0     H 9400   8.553  11.689   5.347 -0.0429  0.9760 -0.1246
   70MOL0     H 9401   8.725  11.825   5.457 -2.8684 -0.3904 -0.2418
   70MOL0     H 9402   8.993  11.812   5.514 -0.3458  1.5099  0.6297
   70MOL0     H 9403   8.961  11.821   5.685  0.8735 -1.5502  1.0523
   70MOL0     H 9404   9.054  11.577   5.690  1.6834 -1.3020 -2.7193
   70MOL0     H 9405   9.136  11.626   5.541  1.6545  1.2022  0.0607
   70MOL0     H 9406   9.158  11.811   5.788 -2.4219 -2.1565  0.4106
   70MOL0     H 9407   9.229  11.823   5.630 -0.8318 -3.0028 -3.5773
   70MOL0     H 9408   9.294  11.564   5.784  1.7046  0.0758  0.1332
   70MOL0     H 9409   9.369  11.715   5.831 -0.9248  0.2593  0.4950
   70MOL0     H 9410   9.555  11.545   5.840 -0.2723  1.4122  1.1153
   70MOL0     H 9411   9.792  11.589   5.858 -0.6742 -3.2131 -1.5364
   70MOL0     H 9412  10.116  11.513   5.634  2.2587 -2.4445 -2.1455
   70MOL0     H 9413  10.371  11.448   5.639  1.9565  0.1448  0.0047
   70MOL0     H 9414  10.461  11.347   5.855 -2.2776  1.8881 -1.9149
   70MOL0     H 9415  10.603  11.347   5.743 -4.0751  1.0366 -2.5899
   70MOL0     H 9416  10.746  11.418   5.958  0.9167 -2.2588  2.2821
   70MOL0     H 9417  10.607  11.418   6.051  2.0662  0.2725  0.6609
   70MOL0     H 9418  10.589  11.159   6.016  1.0804 -1.4029 -0.9461
   70MOL0     H 9419  10.726  11.177   5.905 -0.1730 -1.9003  0.7069
   70MOL0     H 9420  10.733  11.269   6.196 -3.3027 -1.5042 -0.3999
   70MOL0     H 9421  10.872  11.271   6.090 -0.0521 -1.8015 -2.0777
   70MOL0     H 9422  10.723  11.008   6.110  0.8477 -0.6506  2.9206
   70MOL0     H 9423  10.836  11.057   6.239  0.2768 -1.0984 -0.4795
   70MOL0     H 9424  10.905  11.037   5.938  3.2518 -0.1373 -0.6815
   70MOL0     H 9425  11.012  11.082   6.068 -1.2883  3.0810 -1.4689
   70MOL0     H 9426  10.852  10.818   6.071  0.5566 -0.5612 -0.2477
   70MOL0     H 9427  10.989  10.864   6.169 -0.3230 -1.9394 -0.1046
   70MOL0     H 9428  10.963  10.797   5.860 -1.1134 -2.5632 -0.0452
   70MOL0     H 9429  11.111  10.871   5.943 -1.5554  0.8806  1.5631
   70MOL0     H 9430  10.439  11.750   5.927  0.4722 -0.2692  0.2851
   70MOL0     H 9431  10.213  11.796   5.944  0.6406 -0.3294  0.2574
   70MOL0     H 9432   9.786  11.833   5.503  1.5210 -0.7769 -0.0806
   70MOL0     H 9433   9.556  11.773   5.470  0.2773 -0.6263 -0.6846
   70MOL0     H 9434   7.584  11.365   5.897  0.7555  0.6007  0.9160
   70MOL0     H 9435   7.393  11.216   5.947  2.4775  3.4588  0.5216
   70MOL0     H 9436   7.117  10.885   5.685 -3.9019  2.2343 -0.8020
   70MOL0     H 9437   6.944  10.762   5.667  2.9457 -1.6283 -0.8802
   70MOL0     H 9438   6.761  10.604   6.062 -1.5284  1.2700  1.6025
   70MOL0     H 9439   6.619  10.564   5.953 -2.5354  1.8060  1.3426
   70MOL0     H 9440   6.654  10.828   6.102  0.3142  2.8519 -5.1230
   70MOL0     H 9441   6.545  10.694   6.134  0.6383 -1.5507 -0.0545
   70MOL0     H 9442   6.465  10.715   5.897 -1.6160  0.1024 -0.2699
   70MOL0     H 9443   6.562  10.871   5.884  0.5306 -0.4563  0.2808
   70MOL0     H 9444   6.425  10.974   6.067  3.0883 -0.8055  0.1093
   70MOL0     H 9445   6.331  10.933   5.920  1.6857 -1.3302 -1.7293
   70MOL0     H 9446   6.143  10.675   6.198 -1.5421 -0.1912 -2.8044
   70MOL0     H 9447   6.880  10.776   6.098 -1.2688 -1.0864 -0.4695
   70MOL0     H 9448   6.997  10.933   6.230 -0.7013  0.1649  0.6304
   70MOL0     H 9449   7.162  10.867   6.207 -0.3358 -1.4209 -0.2703
   70MOL0     H 9450   7.118  11.029   6.160 -2.5022 -0.1600  3.7398
   71MOL0     O 9451   6.354   7.595   2.725  0.0675  0.1036  0.4334
   71MOL0     C 9452   6.351   7.680   2.634 -1.2028 -0.7826  0.6308
   71MOL0     O 9453   6.433   7.680   2.527  0.0663  0.3860  0.1649
   71MOL0     C 9454   6.561   7.619   2.536 -0.1681  0.1964 -0.4554
   71MOL0     C 9455   6.638   7.646   2.642 -0.6130 -0.4337 -0.1890
   71MOL0     C 9456   6.756   7.586   2.659  0.0954 -0.5589  0.2762
   71MOL0     C 9457   6.807   7.502   2.560 -0.9567 -0.4417  0.0989
   71MOL0     O 9458   6.940   7.461   2.551 -0.6408  0.4046  0.1925
   71MOL0     C 9459   7.021   7.490   2.660 -0.5573  0.2742 -0.1160
   71MOL0     C 9460   7.142   7.399   2.662 -0.6841  0.3025  0.4182
   71MOL0     C 9461   7.216   7.371   2.796  0.0061 -0.4028  0.6378
   71MOL0     C 9462   7.295   7.243   2.780 -0.0941  0.9074  0.3955
   71MOL0     C 9463   7.377   7.226   2.904 -1.1452 -0.0881  0.2803
   71MOL0     C 9464   7.471   7.104   2.898  0.6542 -0.6958 -0.2537
   71MOL0     C 9465   7.594   7.115   2.990 -0.3209  0.3552 -0.7052
   71MOL0     C 9466   7.719   7.022   2.952 -0.1705 -0.9684 -0.2032
   71MOL0     N 9467   7.822   7.017   3.050 -0.5584 -0.0337  0.2032
   71MOL0     C 9468   7.893   7.121   3.115 -0.6778  0.6743 -0.9945
   71MOL0     C 9469   7.999   7.063   3.172  0.4783  0.0164  0.2494
   71MOL0     C 9470   8.106   7.120   3.256  0.4719 -0.2737  0.0680
   71MOL0     C 9471   8.067   7.130   3.405  0.4595  0.9831 -0.3424
   71MOL0     C 9472   8.162   7.226   3.486 -0.0183 -0.0702  0.8808
   71MOL0     C 9473   8.306   7.186   3.491  0.1144  0.1226  0.8251
   71MOL0     O 9474   8.377   7.206   3.369  0.0425 -0.6752  0.9132
   71MOL0     C 9475   8.504   7.236   3.386  1.1633 -0.6438  0.5526
   71MOL0     C 9476   8.590   7.167   3.467 -0.2176  0.1729 -0.1910
   71MOL0     C 9477   8.726   7.172   3.444 -0.6978 -0.3026  1.1393
   71MOL0     C 9478   8.789   7.269   3.355 -0.1103  0.0231  0.6085
   71MOL0     C 9479   8.932   7.293   3.333 -0.2184  0.2019 -0.6703
   71MOL0     O 9480   9.014   7.237   3.433 -0.0181 -0.4880  0.2058
   71MOL0     C 9481   9.145   7.234   3.412 -0.5776  0.5958  0.7761
   71MOL0     C 9482   9.196   7.129   3.335  0.4245  0.4404 -0.2724
   71MOL0     C 9483   9.321   7.129   3.281  0.8215  0.3569  0.3240
   71MOL0     C 9484   9.408   7.224   3.326  0.1877 -0.1031 -0.2916
   71MOL0     O 9485   9.538   7.211   3.284  0.8939  0.2119  0.8284
   71MOL0     C 9486   9.633   7.173   3.385 -0.4794 -0.4719  0.3758
   71MOL0     C 9487   9.731   7.286   3.400  0.3746  0.0255  0.1703
   71MOL0     C 9488   9.853   7.251   3.489  0.6443 -0.0178  0.1216
   71MOL0     C 9489   9.964   7.198   3.400 -0.1108 -0.3744 -1.2319
   71MOL0     C 9490  10.089   7.152   3.469 -0.4758 -0.4070 -0.2931
   71MOL0     C 9491  10.188   7.082   3.370 -0.1665 -0.1587 -0.0042
   71MOL0     C 9492  10.298   7.011   3.452 -0.3494 -0.8792 -0.3892
   71MOL0     C 9493  10.375   6.914   3.370 -0.1998 -0.0719 -0.6104
   71MOL0    Cl 9494  10.529   6.965   3.288  0.0914 -0.0387  0.3175
   71MOL0     C 9495   9.371   7.324   3.415 -0.7464  0.4481  0.0204
   71MOL0     C 9496   9.233   7.336   3.452  0.2610 -0.8996 -0.6632
   71MOL0     O 9497   8.972   7.356   3.242  0.1410  0.0582  0.1682
   71MOL0     C 9498   8.695   7.339   3.276 -0.6239 -0.2797  0.2976
   71MOL0     C 9499   8.554   7.323   3.287 -0.1764  0.3108  0.4935
   71MOL0     N 9500   8.002   6.921   3.142 -0.6387 -1.0922 -0.4503
   71MOL0     N 9501   7.896   6.899   3.068  0.5675 -0.1833  0.2123
   71MOL0     C 9502   6.727   7.476   2.452 -1.6612  0.3486 -0.3753
   71MOL0     C 9503   6.599   7.528   2.443  0.0434 -0.0898 -0.5807
   71MOL0     C 9504   6.255   7.787   2.652  0.3893  0.1586 -0.4187
   71MOL0     C 9505   6.125   7.749   2.657  0.4868 -0.6485 -0.3424
   71MOL0     C 9506   6.019   7.840   2.663 -0.4404  0.3490 -1.4211
   71MOL0     C 9507   6.045   7.976   2.678 -0.9761  0.0102  0.6493
   71MOL0     O 9508   5.944   8.064   2.690 -0.4289  0.0110  0.3412
   71MOL0     C 9509   5.955   8.205   2.730  0.5871 -0.0335  0.2485
   71MOL0     C 9510   5.817   8.257   2.777 -0.6838 -0.6199 -0.3261
   71MOL0     C 9511   5.733   8.311   2.655  0.5092  0.2924 -0.1938
   71MOL0     C 9512   5.605   8.385   2.704 -0.1451  0.4187  0.0535
   71MOL0     C 9513   5.509   8.286   2.765 -0.1437  1.0495  0.5516
   71MOL0     C 9514   5.435   8.207   2.828  0.5834 -0.5211 -0.4428
   71MOL0     C 9515   6.186   8.011   2.679 -0.1024  0.0522  0.2763
   71MOL0     C 9516   6.288   7.919   2.658  0.4057 -0.6371 -0.0751
   71MOL0     C 9517   6.426   7.975   2.648 -0.1624  0.6134  0.1284
   71MOL0     H 9518   6.593   7.716   2.711 -2.6125 -0.9954 -0.8458
   71MOL0     H 9519   6.818   7.624   2.740  0.6833  1.1901 -0.9378
   71MOL0     H 9520   7.053   7.594   2.654 -0.7505  0.8156  4.5656
   71MOL0     H 9521   6.972   7.469   2.755  2.3539 -1.7205  1.0787
   71MOL0     H 9522   7.218   7.440   2.594  0.3492 -2.6369 -0.3137
   71MOL0     H 9523   7.117   7.301   2.621  2.4922  0.0550 -1.2675
   71MOL0     H 9524   7.139   7.353   2.870  0.3784 -0.1995  1.0822
   71MOL0     H 9525   7.280   7.458   2.815 -1.7475  1.5584 -1.8049
   71MOL0     H 9526   7.221   7.164   2.767 -1.2820  2.2887 -1.7334
   71MOL0     H 9527   7.353   7.243   2.687  2.1615 -0.0094  1.7153
   71MOL0     H 9528   7.446   7.310   2.913 -0.0305 -1.0834  1.4387
   71MOL0     H 9529   7.312   7.228   2.992 -0.8395 -0.4333  0.5147
   71MOL0     H 9530   7.407   7.019   2.922 -2.3518  1.2336 -0.9011
   71MOL0     H 9531   7.507   7.109   2.795  4.1481 -0.0866  0.8423
   71MOL0     H 9532   7.560   7.088   3.091 -1.9507 -0.6820 -1.4841
   71MOL0     H 9533   7.630   7.218   2.996  2.8534 -0.6561 -0.8859
   71MOL0     H 9534   7.688   6.919   2.930  1.1733 -0.8362 -3.1246
   71MOL0     H 9535   7.754   7.066   2.859  2.5309 -2.0288  0.2357
   71MOL0     H 9536   7.880   7.228   3.105 -1.5598  0.6839  0.0902
   71MOL0     H 9537   8.199   7.064   3.256  0.3461 -0.5870 -2.3933
   71MOL0     H 9538   8.119   7.224   3.224 -3.1066 -0.8874 -4.4690
   71MOL0     H 9539   7.967   7.169   3.425 -0.1164 -1.0173  0.8507
   71MOL0     H 9540   8.065   7.030   3.447 -4.1533  1.2579  0.6018
   71MOL0     H 9541   8.126   7.225   3.589 -0.1009 -4.6951  1.0124
   71MOL0     H 9542   8.149   7.324   3.438  0.0886 -1.5800 -2.5292
   71MOL0     H 9543   8.317   7.085   3.531  2.7566  0.8600  2.1715
   71MOL0     H 9544   8.351   7.255   3.563  1.4525 -1.2364  1.3264
   71MOL0     H 9545   8.549   7.094   3.537  0.2584 -3.0733 -3.0722
   71MOL0     H 9546   8.795   7.109   3.500  0.2378 -1.8099 -1.5450
   71MOL0     H 9547   9.125   7.047   3.326 -1.6652  2.1448 -0.2349
   71MOL0     H 9548   9.361   7.055   3.211  1.2955  1.1836 -0.2998
   71MOL0     H 9549   9.582   7.144   3.477  1.4923  0.6945  1.9017
   71MOL0     H 9550   9.688   7.088   3.344 -2.2168  0.0867 -3.6485
   71MOL0     H 9551   9.768   7.319   3.302 -1.6013  0.8177 -0.3607
   71MOL0     H 9552   9.691   7.374   3.450  1.1085  0.3353  0.2190
   71MOL0     H 9553   9.895   7.332   3.548  1.5406  0.7214 -1.4776
   71MOL0     H 9554   9.818   7.177   3.562  1.0948  1.6901  2.1754
   71MOL0     H 9555  10.002   7.287   3.350 -1.4359  2.3998  2.2725
   71MOL0     H 9556   9.931   7.119   3.332  1.8902 -2.0477 -0.3550
   71MOL0     H 9557  10.064   7.070   3.538 -1.5170  0.1776  0.0372
   71MOL0     H 9558  10.129   7.230   3.534  0.7066 -2.5668  1.7752
   71MOL0     H 9559  10.141   7.012   3.301 -1.0489  0.7326 -0.3380
   71MOL0     H 9560  10.241   7.162   3.318  1.5380  0.3929  2.3878
   71MOL0     H 9561  10.256   6.945   3.530 -1.1473 -1.4762 -1.3033
   71MOL0     H 9562  10.372   7.080   3.492 -0.5599 -0.6283 -0.4303
   71MOL0     H 9563  10.388   6.831   3.440  0.1810  2.3822  2.4610
   71MOL0     H 9564  10.306   6.882   3.292 -1.5645  0.6931  0.2422
   71MOL0     H 9565   9.441   7.398   3.455 -1.9232  1.7622 -0.2724
   71MOL0     H 9566   9.204   7.421   3.513  2.2095 -0.8641  0.2661
   71MOL0     H 9567   8.739   7.399   3.198 -1.4853 -0.9553 -0.7404
   71MOL0     H 9568   8.487   7.363   3.212  0.5185  0.8995  0.1774
   71MOL0     H 9569   6.767   7.420   2.368 -0.1663  3.3937 -1.8302
   71MOL0     H 9570   6.523   7.513   2.367 -0.6156 -0.5022  0.1485
   71MOL0     H 9571   6.103   7.644   2.643 -1.0050 -0.7373  2.0037
   71MOL0     H 9572   5.914   7.816   2.671 -0.0366 -1.0421  0.1407
   71MOL0     H 9573   5.980   8.264   2.642  2.3589  2.8531  2.4979
   71MOL0     H 9574   6.031   8.219   2.808  1.9101  1.1802 -1.2035
   71MOL0     H 9575   5.837   8.336   2.849  1.5729 -2.1738  0.8877
   71MOL0     H 9576   5.760   8.178   2.826 -0.6055 -0.0579  0.6922
   71MOL0     H 9577   5.699   8.233   2.587 -0.3606 -1.3469  2.0058
   71MOL0     H 9578   5.790   8.388   2.601 -0.4500  1.8731  0.9525
   71MOL0     H 9579   5.639   8.468   2.767  3.3451 -1.2212  0.5804
   71MOL0     H 9580   5.553   8.430   2.619  1.2614 -1.3878 -1.8653
   71MOL0     H 9581   5.377   8.127   2.870  0.0182  1.2280  2.4638
   71MOL0     H 9582   6.212   8.116   2.681 -1.4003  0.4195 -0.5452
   71MOL0     H 9583   6.470   7.952   2.550 -0.1361  1.3191 -0.0306
   71MOL0     H 9584   6.440   8.082   2.665 -0.6377  0.6603  0.2421
   71MOL0     H 9585   6.490   7.934   2.727 -1.1644 -2.2878 -0.4119
   72MOL0     O 9586   8.640   3.747   0.133 -0.0262 -0.2778  0.4660
   72MOL0     C 9587   8.600   3.800   0.240 -0.0078 -0.5759  0.5633
   72MOL0     O 9588   8.676   3.871   0.329 -0.3021 -1.0262 -0.0326
   72MOL0     C 9589   8.806   3.898   0.287  0.4181  0.2805 -0.4361
   72MOL0     C 9590   8.908   3.877   0.377 -0.0973 -0.1772 -0.3591
   72MOL0     C 9591   9.042   3.874   0.340  0.3954 -0.1930  0.6161
   72MOL0     C 9592   9.078   3.906   0.201  0.9230 -0.1528 -0.7931
   72MOL0     O 9593   9.209   3.900   0.176 -0.5237 -0.0761  0.4588
   72MOL0     C 9594   9.259   3.976   0.063 -0.3757  0.4102 -0.0002
   72MOL0     C 9595   9.405   3.939   0.057  0.0773 -1.4515  0.0355
   72MOL0     C 9596   9.472   4.000  -0.073 -0.7226 -0.3737 -0.9817
   72MOL0     C 9597   9.610   3.942  -0.102  0.1688 -0.0065  0.0039
   72MOL0     C 9598   9.625   3.942  -0.253 -0.2164 -0.3621 -0.3824
   72MOL0     C 9599   9.768   3.927  -0.306  0.5093 -0.5289  0.4997
   72MOL0     C 9600   9.832   3.790  -0.263 -0.6963  0.6420  0.5444
   72MOL0     C 9601   9.976   3.801  -0.313  0.3075  0.8736 -0.5850
   72MOL0     N 9602  10.050   3.925  -0.297  0.2862  0.6484  0.2903
   72MOL0     C 9603  10.098   3.984  -0.180 -0.2836  0.2358  0.2160
   72MOL0     C 9604  10.171   4.093  -0.225  0.2790 -0.3117 -0.6198
   72MOL0     C 9605  10.259   4.176  -0.137 -0.3125  0.4601  0.8053
   72MOL0     C 9606  10.406   4.169  -0.194 -0.0271 -0.2878 -0.1907
   72MOL0     C 9607  10.498   4.280  -0.140 -0.3968  0.1105  0.0829
   72MOL0     C 9608  10.635   4.279  -0.213 -0.5603 -0.6373 -0.3529
   72MOL0     O 9609  10.725   4.347  -0.122 -0.4669  0.1221 -0.0934
   72MOL0     C 9610  10.861   4.361  -0.157  0.1751 -0.0967 -0.5827
   72MOL0     C 9611  10.948   4.429  -0.068 -0.4227  0.3622  0.0197
   72MOL0     C 9612  11.089   4.434  -0.094 -0.2570  0.2933  0.1848
   72MOL0     C 9613  11.145   4.384  -0.210 -0.5862  0.3206 -0.1790
   72MOL0     C 9614  11.291   4.371  -0.237  0.6377 -0.0657  0.1871
   72MOL0     O 9615  11.367   4.391  -0.124  0.3511 -0.1930 -0.4256
   72MOL0     C 9616  11.502   4.371  -0.131 -0.9420  0.1785  0.2437
   72MOL0     C 9617  11.568   4.247  -0.150  0.1426 -0.7848 -0.3677
   72MOL0     C 9618  11.709   4.244  -0.160 -0.1650 -0.4968 -0.7182
   72MOL0     C 9619  11.784   4.360  -0.130 -0.3929 -0.4912 -0.1972
   72MOL0     O 9620  11.925   4.344  -0.136  0.0436  0.2850 -0.0924
   72MOL0     C 9621  12.019   4.448  -0.117 -0.5242  0.2697 -0.1551
   72MOL0     C 9622  12.155   4.382  -0.150 -0.6773  0.0310  0.4742
   72MOL0     C 9623  12.285   4.456  -0.101  0.4077 -0.2766  0.4635
   72MOL0     C 9624  12.402   4.356  -0.097  0.1346 -0.3444 -0.5771
   72MOL0     C 9625  12.532   4.420  -0.056 -0.2635 -0.4532  0.7732
   72MOL0     C 9626  12.643   4.323  -0.093  0.0900  0.2858  0.4861
   72MOL0     C 9627  12.766   4.390  -0.040 -0.7805  0.8282 -0.9514
   72MOL0     C 9628  12.892   4.291  -0.029 -0.1499 -0.7484  0.0447
   72MOL0    Cl 9629  12.924   4.242  -0.202  0.0423  0.2685 -0.0611
   72MOL0     C 9630  11.727   4.483  -0.116 -0.2782  0.4663 -0.8191
   72MOL0     C 9631  11.588   4.490  -0.122 -0.0509  0.4466 -0.3932
   72MOL0     O 9632  11.327   4.344  -0.352 -0.4612  0.1868 -0.3750
   72MOL0     C 9633  11.055   4.318  -0.295 -0.1387  0.4678  0.9010
   72MOL0     C 9634  10.920   4.300  -0.274  0.2967  0.5233  0.6545
   72MOL0     N 9635  10.160   4.091  -0.359 -0.4314  0.9035  0.3393
   72MOL0     N 9636  10.083   4.003  -0.400 -0.4312 -0.2243 -0.8785
   72MOL0     C 9637   8.978   3.945   0.104  0.9031  0.7781 -0.3619
   72MOL0     C 9638   8.843   3.939   0.149 -0.2286  0.5422 -0.2601
   72MOL0     C 9639   8.458   3.772   0.254 -0.2333  0.1846 -0.0415
   72MOL0     C 9640   8.376   3.741   0.146  0.2087  0.2174  0.0221
   72MOL0     C 9641   8.242   3.703   0.151  0.2869  0.3129  0.2289
   72MOL0     C 9642   8.180   3.698   0.266 -0.2121 -0.3144 -0.4035
   72MOL0     O 9643   8.044   3.677   0.268  1.4171  0.2391 -1.0760
   72MOL0     C 9644   7.979   3.639   0.395 -0.6262  0.6678 -0.3811
   72MOL0     C 9645   7.828   3.604   0.362 -0.9476 -0.1066 -0.3382
   72MOL0     C 9646   7.744   3.568   0.486  0.8204 -0.5395 -0.0198
   72MOL0     C 9647   7.612   3.627   0.447 -0.1610  0.4699  0.3315
   72MOL0     C 9648   7.512   3.601   0.555  0.2247  1.0839 -0.0057
   72MOL0     C 9649   7.425   3.591   0.641 -0.8533 -0.5206  0.1959
   72MOL0     C 9650   8.256   3.728   0.382  0.2737 -0.0803  0.0916
   72MOL0     C 9651   8.390   3.767   0.374 -1.0106  0.1258 -0.2194
   72MOL0     C 9652   8.447   3.802   0.509 -0.4075 -0.7523  0.4884
   72MOL0     H 9653   8.896   3.838   0.477 -1.1521  1.3940  0.1459
   72MOL0     H 9654   9.116   3.845   0.414  0.9745 -0.7368 -0.1579
   72MOL0     H 9655   9.214   3.939  -0.029  1.6927  0.3146 -1.0202
   72MOL0     H 9656   9.246   4.085   0.061 -1.0821  0.3555  0.9444
   72MOL0     H 9657   9.415   3.830   0.055  1.4473 -1.3484  0.3319
   72MOL0     H 9658   9.456   3.968   0.149  0.1078  0.2314 -0.4854
   72MOL0     H 9659   9.486   4.108  -0.064 -1.2649 -0.4510  1.3636
   72MOL0     H 9660   9.408   3.981  -0.159 -0.6443  0.8704 -1.3359
   72MOL0     H 9661   9.686   3.998  -0.047  1.3686 -1.6617  0.1126
   72MOL0     H 9662   9.610   3.841  -0.060 -3.1728  0.4100  1.3434
   72MOL0     H 9663   9.559   3.867  -0.299 -1.5904 -0.0628  0.9942
   72MOL0     H 9664   9.587   4.038  -0.289 -1.9469 -0.4050  1.1521
   72MOL0     H 9665   9.765   3.924  -0.415  3.3205  0.6378  0.3185
   72MOL0     H 9666   9.824   4.015  -0.274 -2.3455  1.6553 -0.1514
   72MOL0     H 9667   9.782   3.702  -0.306  2.3846 -0.6911 -0.5824
   72MOL0     H 9668   9.838   3.792  -0.154  1.4441  1.4748  0.4513
   72MOL0     H 9669  10.034   3.733  -0.250 -1.6468 -1.1155 -0.7901
   72MOL0     H 9670   9.995   3.765  -0.414  0.0112 -2.9806  0.5455
   72MOL0     H 9671  10.079   3.947  -0.080 -2.8087  1.6320  0.3297
   72MOL0     H 9672  10.225   4.280  -0.139 -1.2811  0.2005 -2.3720
   72MOL0     H 9673  10.254   4.135  -0.036 -0.0171 -0.0009  0.6399
   72MOL0     H 9674  10.432   4.070  -0.155  2.3622 -0.2898 -1.6444
   72MOL0     H 9675  10.410   4.165  -0.303  1.4332  2.4538 -0.3321
   72MOL0     H 9676  10.514   4.261  -0.034 -0.5368  0.1173  0.1053
   72MOL0     H 9677  10.445   4.372  -0.166 -2.1191 -0.2248  2.0955
   72MOL0     H 9678  10.637   4.340  -0.303  1.2276  0.5546  0.4285
   72MOL0     H 9679  10.663   4.175  -0.234  0.9967 -0.2027 -0.5490
   72MOL0     H 9680  10.893   4.477   0.012 -1.0387  2.9884 -1.8510
   72MOL0     H 9681  11.154   4.491  -0.029  0.6577  0.2261 -0.6580
   72MOL0     H 9682  11.508   4.158  -0.165  1.2385 -1.3867 -1.4113
   72MOL0     H 9683  11.762   4.154  -0.188  3.4518  0.8704  1.0755
   72MOL0     H 9684  12.014   4.525  -0.194 -2.1150 -2.4619 -3.0225
   72MOL0     H 9685  12.017   4.487  -0.015  1.8807 -0.6830  0.3256
   72MOL0     H 9686  12.144   4.280  -0.111 -1.2925 -0.0477  0.1213
   72MOL0     H 9687  12.163   4.368  -0.259  0.8138 -0.6916  0.6521
   72MOL0     H 9688  12.319   4.536  -0.167  0.6503  0.6357  1.6749
   72MOL0     H 9689  12.264   4.508  -0.007 -0.9255  1.3513 -0.6882
   72MOL0     H 9690  12.406   4.320  -0.200  0.4943  0.0582 -0.7078
   72MOL0     H 9691  12.386   4.273  -0.028  2.4147  0.3068  0.8703
   72MOL0     H 9692  12.528   4.449   0.050  0.4563 -0.5501  0.8329
   72MOL0     H 9693  12.554   4.515  -0.106  0.3330 -0.8643  0.2435
   72MOL0     H 9694  12.612   4.228  -0.050 -0.5781  0.7921  1.1437
   72MOL0     H 9695  12.657   4.310  -0.201  1.5961 -2.1064  0.8900
   72MOL0     H 9696  12.754   4.446   0.053  0.7218  0.2480 -0.3712
   72MOL0     H 9697  12.781   4.470  -0.113 -1.9550  1.3196 -0.6718
   72MOL0     H 9698  12.976   4.322   0.034 -2.1398 -0.7033  2.8628
   72MOL0     H 9699  12.867   4.201   0.028 -0.0034 -0.2154  0.9658
   72MOL0     H 9700  11.784   4.575  -0.110 -0.5646  0.6627 -1.0889
   72MOL0     H 9701  11.536   4.583  -0.103 -2.5408 -1.0674  0.7228
   72MOL0     H 9702  11.103   4.282  -0.386  2.4592 -0.3039  2.4450
   72MOL0     H 9703  10.858   4.242  -0.341 -0.5645  1.3636  0.7021
   72MOL0     H 9704   9.002   3.973   0.002  0.8979  2.1404 -0.0156
   72MOL0     H 9705   8.758   3.950   0.082 -0.1896  2.4860 -0.0542
   72MOL0     H 9706   8.416   3.758   0.047  1.0975  0.3067  0.3867
   72MOL0     H 9707   8.200   3.675   0.055  2.9477 -0.5649 -0.7820
   72MOL0     H 9708   7.984   3.717   0.471 -0.6202  1.1819 -0.8990
   72MOL0     H 9709   8.022   3.542   0.422 -2.2651  0.5147  1.9472
   72MOL0     H 9710   7.811   3.526   0.286 -2.1435  1.0434 -1.3031
   72MOL0     H 9711   7.800   3.698   0.315 -0.0032  1.4339  2.0159
   72MOL0     H 9712   7.781   3.625   0.572 -0.8049 -1.9863  1.7551
   72MOL0     H 9713   7.743   3.460   0.504  0.4143 -0.9906 -2.4695
   72MOL0     H 9714   7.623   3.734   0.430  2.7839  0.0658 -0.8775
   72MOL0     H 9715   7.573   3.591   0.351 -0.5139 -0.1633  0.7061
   72MOL0     H 9716   7.344   3.574   0.709 -1.8680 -3.2505 -1.5305
   72MOL0     H 9717   8.196   3.731   0.473 -0.7505 -3.0455 -0.3476
   72MOL0     H 9718   8.523   3.730   0.542  0.7038  0.6550  1.1399
   72MOL0     H 9719   8.483   3.905   0.500 -1.1833 -0.6494 -2.9111
   72MOL0     H 9720   8.364   3.800   0.579 -3.4535 -2.1519 -2.8164
   73MOL0     O 9721   1.768  10.343   2.033 -0.1585 -0.0620  0.0359
   73MOL0     C 9722   1.793  10.306   1.918  0.1533  0.0933  0.5159
   73MOL0     O 9723   1.925  10.289   1.863  0.3234 -0.0585  0.3456
   73MOL0     C 9724   2.023  10.309   1.958  0.5761 -0.2280 -0.0734
   73MOL0     C 9725   2.071  10.197   2.028  0.7135  0.5839  0.5300
   73MOL0     C 9726   2.182  10.212   2.116  0.7731  0.8913  0.6417
   73MOL0     C 9727   2.243  10.332   2.135 -0.2436  0.7737  0.0569
   73MOL0     O 9728   2.356  10.332   2.214 -0.1849 -0.4773  0.6730
   73MOL0     C 9729   2.445  10.447   2.208 -0.7853 -0.6380 -0.9421
   73MOL0     C 9730   2.554  10.417   2.308 -0.8858 -0.0029 -0.0860
   73MOL0     C 9731   2.659  10.521   2.321 -0.0196 -0.5179  0.4872
   73MOL0     C 9732   2.769  10.492   2.423  0.9435  0.1432 -0.9455
   73MOL0     C 9733   2.895  10.573   2.404  0.0234  0.4855  0.9506
   73MOL0     C 9734   2.983  10.554   2.532 -0.2201  0.9828  0.3820
   73MOL0     C 9735   3.115  10.633   2.506 -0.6691  0.2258 -0.1358
   73MOL0     C 9736   3.191  10.641   2.640  0.5956  0.2706 -0.2202
   73MOL0     N 9737   3.224  10.508   2.687 -0.9457 -0.1660 -0.6561
   73MOL0     C 9738   3.186  10.447   2.803  0.7165 -0.0718 -1.2036
   73MOL0     C 9739   3.255  10.329   2.813  0.3313  0.4002 -0.5121
   73MOL0     C 9740   3.266  10.236   2.930 -0.2139 -0.6919  0.4934
   73MOL0     C 9741   3.197  10.094   2.913 -0.2701 -0.0007 -0.0725
   73MOL0     C 9742   3.249  10.009   2.805 -0.3238  0.1914  0.5894
   73MOL0     C 9743   3.401   9.993   2.792  0.2811  0.2119  0.3582
   73MOL0     O 9744   3.408   9.872   2.719  1.1751  0.2727 -0.2533
   73MOL0     C 9745   3.523   9.842   2.650 -0.1959 -0.2325  0.6447
   73MOL0     C 9746   3.517   9.743   2.550 -0.5512 -0.5564  0.2463
   73MOL0     C 9747   3.621   9.721   2.469  0.3908  0.1459 -0.8506
   73MOL0     C 9748   3.748   9.778   2.489 -0.1482  0.1484  0.3588
   73MOL0     C 9749   3.868   9.742   2.420  0.8154 -0.1570 -0.1004
   73MOL0     O 9750   3.969   9.838   2.415  0.5533  0.0665  0.3277
   73MOL0     C 9751   4.083   9.804   2.339 -0.6137 -0.3146 -0.2912
   73MOL0     C 9752   4.142   9.676   2.314 -0.0854  0.5491 -0.1056
   73MOL0     C 9753   4.258   9.669   2.237 -0.6654  0.2936 -1.1490
   73MOL0     C 9754   4.306   9.777   2.164 -0.8921 -0.0377 -0.3403
   73MOL0     O 9755   4.400   9.747   2.072 -0.3525 -0.7121  1.3063
   73MOL0     C 9756   4.415   9.842   1.970  0.4006  0.0024 -0.2382
   73MOL0     C 9757   4.466   9.767   1.851  0.2317 -0.1625  0.1581
   73MOL0     C 9758   4.619   9.729   1.873 -0.4270 -0.1829 -0.0607
   73MOL0     C 9759   4.720   9.846   1.896  0.0777 -0.5249 -0.3883
   73MOL0     C 9760   4.853   9.782   1.851  0.0790 -0.0177 -0.3280
   73MOL0     C 9761   4.969   9.863   1.903 -0.8530 -0.0351 -0.2734
   73MOL0     C 9762   5.083   9.892   1.804 -0.5722 -0.4075  0.3375
   73MOL0     C 9763   5.199   9.980   1.854 -0.2584 -0.3461 -0.6310
   73MOL0    Cl 9764   5.267   9.902   2.001  0.0274  0.0754  0.1255
   73MOL0     C 9765   4.239   9.898   2.183 -0.0593 -0.0499 -0.4076
   73MOL0     C 9766   4.140   9.911   2.272  0.2963  0.5971  0.0763
   73MOL0     O 9767   3.869   9.632   2.363  0.3156  0.5138 -0.1192
   73MOL0     C 9768   3.761   9.880   2.589  0.2651  0.6372 -0.0916
   73MOL0     C 9769   3.642   9.915   2.660 -1.0359 -0.0152 -0.4058
   73MOL0     N 9770   3.349  10.327   2.709  0.3894  0.2028 -0.2707
   73MOL0     N 9771   3.318  10.430   2.630  0.2877 -0.3276  0.2995
   73MOL0     C 9772   2.194  10.448   2.064  0.5411  0.3536  0.5677
   73MOL0     C 9773   2.092  10.435   1.975  0.6515  0.2998  0.7962
   73MOL0     C 9774   1.672  10.289   1.826 -0.4974  0.2746  0.0634
   73MOL0     C 9775   1.696  10.259   1.695 -0.5535 -0.2542 -0.6306
   73MOL0     C 9776   1.594  10.250   1.607 -0.1161  0.3549 -0.4735
   73MOL0     C 9777   1.462  10.268   1.641 -0.0705 -0.1295  0.7454
   73MOL0     O 9778   1.355  10.262   1.556  0.3280  1.2340 -0.4085
   73MOL0     C 9779   1.370  10.308   1.420  0.3575 -0.5168 -0.7431
   73MOL0     C 9780   1.252  10.393   1.365  1.0874  0.2236  0.9100
   73MOL0     C 9781   1.276  10.436   1.223  0.3084  0.9764  0.0849
   73MOL0     C 9782   1.140  10.452   1.156 -0.7846 -0.5312 -0.6432
   73MOL0     C 9783   1.075  10.577   1.196 -0.7232  0.2971 -0.1455
   73MOL0     C 9784   1.017  10.678   1.238  0.0457  1.2987 -0.2182
   73MOL0     C 9785   1.432  10.291   1.774 -0.0379  0.0810  0.4766
   73MOL0     C 9786   1.537  10.310   1.870  0.5901 -0.1323 -0.6634
   73MOL0     C 9787   1.506  10.363   2.011 -0.2672 -1.0745  0.9638
   73MOL0     H 9788   2.031  10.100   2.000  2.4370  0.1121 -0.4358
   73MOL0     H 9789   2.212  10.123   2.171 -1.6427 -0.7807 -0.5560
   73MOL0     H 9790   2.496  10.453   2.111  0.5283 -1.2358 -0.3200
   73MOL0     H 9791   2.395  10.537   2.246  2.7454  0.9714  0.3412
   73MOL0     H 9792   2.610  10.326   2.282 -0.4806 -0.3814  1.9165
   73MOL0     H 9793   2.511  10.394   2.407  0.8217  0.2259  0.7486
   73MOL0     H 9794   2.611  10.615   2.349 -1.8121 -0.3873 -2.5543
   73MOL0     H 9795   2.716  10.538   2.229 -2.0393  1.7845 -0.4393
   73MOL0     H 9796   2.738  10.528   2.521  0.5271  0.2788 -1.1271
   73MOL0     H 9797   2.789  10.385   2.436  1.2849  0.4848  1.7162
   73MOL0     H 9798   2.948  10.527   2.320 -0.8222  2.4608 -0.7481
   73MOL0     H 9799   2.875  10.678   2.381  0.5057  0.4368  0.3019
   73MOL0     H 9800   2.935  10.592   2.623 -1.5472  1.4023 -0.4509
   73MOL0     H 9801   3.009  10.450   2.555  1.4200  1.8305  2.6877
   73MOL0     H 9802   3.091  10.733   2.469  2.2741  1.2809  0.5052
   73MOL0     H 9803   3.160  10.579   2.423  0.8826  1.6745 -0.2814
   73MOL0     H 9804   3.282  10.701   2.628  2.1161 -1.2846  2.5242
   73MOL0     H 9805   3.125  10.696   2.708  3.5032  2.4810  1.0254
   73MOL0     H 9806   3.133  10.499   2.882 -0.0356 -4.1862  1.3302
   73MOL0     H 9807   3.370  10.223   2.962  0.0969 -0.0541 -0.2170
   73MOL0     H 9808   3.216  10.282   3.016  0.3079  1.7868 -0.4198
   73MOL0     H 9809   3.215  10.046   3.009  0.3129 -1.1953 -0.7550
   73MOL0     H 9810   3.090  10.113   2.903 -0.2807  0.9262  1.4961
   73MOL0     H 9811   3.196  10.044   2.715 -0.5733  3.1096  1.7433
   73MOL0     H 9812   3.207   9.909   2.819  1.0276 -0.4939 -0.0937
   73MOL0     H 9813   3.447   9.980   2.890 -1.6013  1.9396  1.5510
   73MOL0     H 9814   3.441  10.075   2.732 -0.0621  2.7308  3.3322
   73MOL0     H 9815   3.426   9.684   2.544 -0.4283 -0.8090  0.7632
   73MOL0     H 9816   3.608   9.641   2.397  2.4164 -2.6105  1.6474
   73MOL0     H 9817   4.099   9.586   2.355 -0.4015  0.4050 -0.7368
   73MOL0     H 9818   4.302   9.574   2.205  0.4516  0.6910 -0.8502
   73MOL0     H 9819   4.326   9.897   1.938 -0.1136 -0.7338 -0.0966
   73MOL0     H 9820   4.480   9.920   2.011  2.0426 -0.3637 -1.9753
   73MOL0     H 9821   4.402   9.681   1.826  0.6053  0.6704 -4.6592
   73MOL0     H 9822   4.468   9.827   1.760  2.2227 -0.2335  0.1031
   73MOL0     H 9823   4.621   9.660   1.958 -0.5068  2.7249  2.4805
   73MOL0     H 9824   4.654   9.674   1.785 -1.5036  1.5161 -1.6294
   73MOL0     H 9825   4.720   9.887   1.998  1.2333  0.5943 -0.8171
   73MOL0     H 9826   4.710   9.939   1.840 -1.5534 -0.6053 -0.2831
   73MOL0     H 9827   4.858   9.783   1.741 -0.6422  3.3737 -0.4345
   73MOL0     H 9828   4.872   9.680   1.887  0.2038 -0.1372 -0.7175
   73MOL0     H 9829   4.921   9.954   1.941 -4.1009 -0.3229 -3.1554
   73MOL0     H 9830   4.989   9.796   1.987 -3.8407 -1.2351 -0.3866
   73MOL0     H 9831   5.032   9.948   1.725 -0.7038 -0.6673  0.2353
   73MOL0     H 9832   5.128   9.799   1.767  5.2141  0.7796  3.2631
   73MOL0     H 9833   5.274   9.997   1.776 -0.1414  0.2280 -0.3946
   73MOL0     H 9834   5.156  10.074   1.888  1.1129  0.2700 -0.5331
   73MOL0     H 9835   4.282   9.982   2.129  1.4347 -0.7689 -0.3928
   73MOL0     H 9836   4.112  10.013   2.298  0.3919  0.5421  0.3936
   73MOL0     H 9837   3.859   9.922   2.611  1.2726  0.3365 -3.4910
   73MOL0     H 9838   3.636  10.003   2.722  0.1119  0.1532 -0.5153
   73MOL0     H 9839   2.248  10.543   2.059  0.3877  0.4192  0.0966
   73MOL0     H 9840   2.072  10.516   1.905 -3.0944 -1.0196  0.0917
   73MOL0     H 9841   1.796  10.243   1.657 -0.7885  0.2990 -1.5181
   73MOL0     H 9842   1.607  10.218   1.504 -3.2784  0.2501 -0.9349
   73MOL0     H 9843   1.397  10.222   1.357  1.8125 -2.7870  2.6577
   73MOL0     H 9844   1.455  10.376   1.418  1.0509 -1.3717 -0.9986
   73MOL0     H 9845   1.226  10.479   1.427  2.2571 -0.7730  2.8822
   73MOL0     H 9846   1.168  10.324   1.369  1.3852 -0.1518  0.7737
   73MOL0     H 9847   1.334  10.360   1.169  1.0185  1.6375 -0.0966
   73MOL0     H 9848   1.340  10.524   1.230  0.0352  1.3137 -1.3712
   73MOL0     H 9849   1.156  10.474   1.050 -0.7415  0.4476 -0.4389
   73MOL0     H 9850   1.073  10.369   1.177  0.4780 -0.8235  3.1501
   73MOL0     H 9851   0.984  10.771   1.281  3.2892  1.6869  1.7498
   73MOL0     H 9852   1.326  10.294   1.796  0.1570 -0.7000  1.5649
   73MOL0     H 9853   1.550  10.462   2.025  0.2394 -1.4769  2.4713
   73MOL0     H 9854   1.400  10.386   2.021  0.0029  0.7650 -0.0630
   73MOL0     H 9855   1.535  10.295   2.092  1.3718 -1.9014 -0.2433
   74MOL0     O 9856   7.628   1.068   2.088 -0.5830  0.9707 -0.1907
   74MOL0     C 9857   7.733   1.013   2.121 -0.6143  0.3297 -0.7755
   74MOL0     O 9858   7.825   0.958   2.041  0.2250  0.4881 -0.6910
   74MOL0     C 9859   7.778   0.932   1.913 -0.1474  1.3513 -0.9823
   74MOL0     C 9860   7.677   0.832   1.897  0.5624 -0.1113 -0.2059
   74MOL0     C 9861   7.630   0.808   1.762 -0.2832  0.2762  0.0546
   74MOL0     C 9862   7.673   0.886   1.651  0.3596  0.2191  0.2112
   74MOL0     O 9863   7.627   0.867   1.524 -0.0628 -0.5492  0.2727
   74MOL0     C 9864   7.513   0.789   1.495  0.0128  0.2141  0.0967
   74MOL0     C 9865   7.488   0.771   1.347  0.3619  0.5112 -1.0161
   74MOL0     C 9866   7.497   0.901   1.277 -0.3191 -0.0597 -0.0027
   74MOL0     C 9867   7.481   0.882   1.126 -0.4747  0.6076 -0.0588
   74MOL0     C 9868   7.337   0.876   1.067 -0.1529  0.1133  0.3318
   74MOL0     C 9869   7.323   0.931   0.920 -0.7103 -0.8045 -0.4246
   74MOL0     C 9870   7.184   0.882   0.854  0.3536 -0.8298 -0.1488
   74MOL0     C 9871   7.060   0.932   0.925  0.4276 -0.0309  0.1426
   74MOL0     N 9872   6.940   0.941   0.833  0.6054  0.7596 -0.9745
   74MOL0     C 9873   6.837   0.848   0.834 -0.2614 -0.2172  0.6547
   74MOL0     C 9874   6.733   0.904   0.761 -0.8714 -0.6350 -0.2153
   74MOL0     C 9875   6.602   0.851   0.717  0.0051  0.5386  0.0465
   74MOL0     C 9876   6.480   0.925   0.761  1.1427 -0.5588  0.0147
   74MOL0     C 9877   6.349   0.864   0.698  0.1092  0.1757  0.2645
   74MOL0     C 9878   6.215   0.904   0.772  0.5724 -0.2677 -0.5771
   74MOL0     O 9879   6.102   0.860   0.699 -0.6010 -0.7561 -0.7556
   74MOL0     C 9880   5.982   0.875   0.757 -0.0996  0.0629 -0.5574
   74MOL0     C 9881   5.894   0.945   0.679  0.2202  0.3937 -1.2316
   74MOL0     C 9882   5.757   0.945   0.722  1.2303 -0.7744  0.9663
   74MOL0     C 9883   5.714   0.865   0.828  0.7426 -0.3885 -0.2544
   74MOL0     C 9884   5.574   0.862   0.862  0.5213  0.1212  0.3210
   74MOL0     O 9885   5.485   0.881   0.759  0.1736  0.4795 -0.1715
   74MOL0     C 9886   5.353   0.886   0.792  0.2148  0.7455  0.7802
   74MOL0     C 9887   5.306   0.974   0.892  0.0490 -0.0251  0.2357
   74MOL0     C 9888   5.168   0.977   0.912  0.0111 -0.2297 -0.2291
   74MOL0     C 9889   5.080   0.888   0.856 -0.5138 -0.9765 -0.2700
   74MOL0     O 9890   4.946   0.889   0.890 -0.4119  0.2635 -0.1200
   74MOL0     C 9891   4.867   1.000   0.844 -0.6795  0.6579  0.1508
   74MOL0     C 9892   4.806   0.975   0.712  0.4514 -0.1832  0.8343
   74MOL0     C 9893   4.741   0.834   0.702  0.4644  0.7222 -0.4363
   74MOL0     C 9894   4.679   0.810   0.560  0.5377 -0.0357  0.2581
   74MOL0     C 9895   4.770   0.825   0.435 -0.5969  0.3385  0.1599
   74MOL0     C 9896   4.748   0.961   0.372 -0.3183  0.0040 -0.7789
   74MOL0     C 9897   4.824   0.962   0.236 -0.0036  0.2435 -0.0128
   74MOL0     C 9898   4.796   1.075   0.142 -0.2059 -0.2715  0.9944
   74MOL0    Cl 9899   4.914   1.052   0.011  0.2052 -0.2505 -0.1796
   74MOL0     C 9900   5.122   0.801   0.753 -0.2622  0.4532  0.1948
   74MOL0     C 9901   5.264   0.793   0.724  0.1248 -0.0507 -0.5584
   74MOL0     O 9902   5.537   0.829   0.975 -0.5025 -0.3476  0.5255
   74MOL0     C 9903   5.806   0.796   0.901 -0.9020  0.4110  0.1699
   74MOL0     C 9904   5.939   0.798   0.860  0.2095  0.1454 -0.1617
   74MOL0     N 9905   6.781   1.028   0.725  0.8709  0.1581 -0.2627
   74MOL0     N 9906   6.902   1.050   0.765  1.1569 -0.0995  0.0923
   74MOL0     C 9907   7.769   0.984   1.671  0.1296  0.3798 -0.0629
   74MOL0     C 9908   7.817   1.006   1.802 -0.0943  0.1126 -1.1640
   74MOL0     C 9909   7.757   0.989   2.272 -0.0546 -0.7700  0.4178
   74MOL0     C 9910   7.889   0.944   2.305 -0.2505 -0.5400  0.2185
   74MOL0     C 9911   7.921   0.916   2.439  0.6795  0.2212  0.6045
   74MOL0     C 9912   7.823   0.925   2.533  0.4648  0.8707 -1.2338
   74MOL0     O 9913   7.861   0.903   2.662 -0.0571  0.0469 -0.6353
   74MOL0     C 9914   7.767   0.909   2.767 -0.0959  0.0109  0.2629
   74MOL0     C 9915   7.836   0.840   2.881 -0.6302  0.3837  0.2013
   74MOL0     C 9916   7.757   0.859   3.017  0.1690 -1.0473 -0.1567
   74MOL0     C 9917   7.683   0.734   3.044  0.2027 -0.1205 -0.8179
   74MOL0     C 9918   7.758   0.628   3.111  0.3933 -0.4946 -0.5641
   74MOL0     C 9919   7.813   0.538   3.161 -0.8731 -0.2124  0.2308
   74MOL0     C 9920   7.695   0.955   2.499  0.8508  0.0696 -0.6548
   74MOL0     C 9921   7.656   1.004   2.370 -0.2792  0.1004  0.1012
   74MOL0     C 9922   7.527   1.077   2.349  0.9326 -0.3342  0.1695
   74MOL0     H 9923   7.622   0.787   1.979 -0.7951  3.1972  0.8315
   74MOL0     H 9924   7.561   0.727   1.742  0.6475 -0.5049 -0.0927
   74MOL0     H 9925   7.530   0.686   1.529 -0.3550  0.1209 -0.0026
   74MOL0     H 9926   7.428   0.839   1.543  0.7115  1.0332  0.5100
   74MOL0     H 9927   7.387   0.733   1.326 -0.0934  1.1010  0.0193
   74MOL0     H 9928   7.560   0.693   1.324  0.2916 -0.4523  1.6427
   74MOL0     H 9929   7.593   0.947   1.303 -0.2446  1.3339 -2.3899
   74MOL0     H 9930   7.419   0.969   1.312  0.7897  1.2840 -0.0557
   74MOL0     H 9931   7.531   0.964   1.075  0.7076 -0.7595 -1.1553
   74MOL0     H 9932   7.532   0.793   1.088  1.0916  1.3048  0.3230
   74MOL0     H 9933   7.309   0.770   1.066  0.6008 -0.0869  0.0045
   74MOL0     H 9934   7.269   0.923   1.138 -0.2065 -1.0905  1.1122
   74MOL0     H 9935   7.344   1.039   0.928  1.1212 -1.2090  1.0707
   74MOL0     H 9936   7.407   0.901   0.856  0.2059 -0.4089  0.5451
   74MOL0     H 9937   7.176   0.774   0.850 -0.9686 -0.7876  0.9028
   74MOL0     H 9938   7.173   0.907   0.748  1.5490  0.5277  0.0100
   74MOL0     H 9939   7.031   0.869   1.010  0.7994 -0.2394  0.1199
   74MOL0     H 9940   7.073   1.029   0.974  0.0357 -0.2056  0.6008
   74MOL0     H 9941   6.845   0.752   0.884  4.3881 -0.2793  0.2424
   74MOL0     H 9942   6.611   0.844   0.608  0.3834  0.9192  0.0523
   74MOL0     H 9943   6.596   0.748   0.752  1.6028 -0.6737 -2.8854
   74MOL0     H 9944   6.467   0.920   0.870  2.2149 -0.4210  0.1619
   74MOL0     H 9945   6.479   1.032   0.738 -0.4166  0.4302  3.7810
   74MOL0     H 9946   6.355   0.755   0.688 -0.6830 -0.0795  2.1722
   74MOL0     H 9947   6.348   0.903   0.596  3.1740 -0.6898 -0.1888
   74MOL0     H 9948   6.214   1.013   0.776 -3.0954 -0.2250  0.7491
   74MOL0     H 9949   6.214   0.867   0.875 -0.3103  3.0110  0.7023
   74MOL0     H 9950   5.928   0.984   0.584  0.6784  2.1700 -0.3712
   74MOL0     H 9951   5.677   0.986   0.661  1.9177 -2.2666 -1.0846
   74MOL0     H 9952   5.368   1.041   0.951 -0.9809  2.1230 -1.0280
   74MOL0     H 9953   5.133   1.053   0.981  3.3956  0.4995  0.8680
   74MOL0     H 9954   4.792   1.017   0.922  1.9665 -0.0649  3.0705
   74MOL0     H 9955   4.924   1.093   0.845 -1.6422  1.2769  2.2222
   74MOL0     H 9956   4.729   1.050   0.690  0.6055 -0.9147 -2.6619
   74MOL0     H 9957   4.880   0.980   0.631 -2.5038  0.1828 -2.0144
   74MOL0     H 9958   4.808   0.750   0.720  1.9636  2.5510  3.5973
   74MOL0     H 9959   4.668   0.829   0.783  0.4441  2.8335 -0.2742
   74MOL0     H 9960   4.593   0.875   0.541  2.1727  1.6626 -1.8004
   74MOL0     H 9961   4.649   0.705   0.554  1.5293 -0.3803  0.9897
   74MOL0     H 9962   4.735   0.751   0.362 -2.0886  1.9970 -0.8748
   74MOL0     H 9963   4.877   0.808   0.453 -0.9602  1.2535  3.9757
   74MOL0     H 9964   4.642   0.976   0.350 -1.2969 -3.0340  1.2711
   74MOL0     H 9965   4.790   1.045   0.427  3.2318 -0.3481 -2.6113
   74MOL0     H 9966   4.799   0.866   0.190  0.0270  0.6740 -0.9486
   74MOL0     H 9967   4.929   0.958   0.263 -0.0100  1.1831  0.2001
   74MOL0     H 9968   4.693   1.083   0.107  0.4393  4.6767 -0.5331
   74MOL0     H 9969   4.818   1.167   0.196  3.0682 -1.5863  2.1763
   74MOL0     H 9970   5.052   0.736   0.702  0.2758  1.0941 -1.4110
   74MOL0     H 9971   5.303   0.731   0.644  1.5211 -0.5333  0.4539
   74MOL0     H 9972   5.785   0.740   0.992  2.6708 -0.4125  0.6271
   74MOL0     H 9973   6.012   0.739   0.913 -2.1348 -2.4493  0.4113
   74MOL0     H 9974   7.793   1.056   1.593  1.8630 -2.3558 -2.2727
   74MOL0     H 9975   7.886   1.084   1.828  2.3849 -1.7950 -1.6433
   74MOL0     H 9976   7.974   0.954   2.238 -2.0111  1.9365 -1.8533
   74MOL0     H 9977   8.022   0.886   2.463  0.8213 -2.2155 -2.3526
   74MOL0     H 9978   7.676   0.854   2.746  0.6287 -0.4528 -1.8961
   74MOL0     H 9979   7.740   1.013   2.790  0.3016 -0.2862  2.2962
   74MOL0     H 9980   7.932   0.889   2.902  0.1171  0.5544 -3.1393
   74MOL0     H 9981   7.853   0.734   2.860 -0.8388  0.2757  0.5577
   74MOL0     H 9982   7.696   0.950   3.011  3.0978  1.1405  0.3904
   74MOL0     H 9983   7.834   0.860   3.096  0.1225  1.2209 -0.0708
   74MOL0     H 9984   7.593   0.751   3.104 -1.4493 -0.8892 -2.9426
   74MOL0     H 9985   7.640   0.703   2.949 -1.3705 -1.3280  0.2421
   74MOL0     H 9986   7.857   0.448   3.200 -3.4157 -1.0674  1.3423
   74MOL0     H 9987   7.628   0.984   2.579  0.1516  0.9847 -1.5478
   74MOL0     H 9988   7.475   1.076   2.445  0.6389 -4.5106  0.1230
   74MOL0     H 9989   7.551   1.170   2.296  0.8356 -1.7851 -2.5960
   74MOL0     H 9990   7.460   1.025   2.280  1.1286 -0.8039  0.3305
   75MOL0     O 9991   0.476   8.491   8.113 -0.0381  0.2955  0.1856
   75MOL0     C 9992   0.526   8.488   8.001 -0.3751  1.0694  0.0405
   75MOL0     O 9993   0.601   8.378   7.945 -0.1616 -0.2561  0.1734
   75MOL0     C 9994   0.616   8.267   8.020 -0.7941 -0.6492 -0.2414
   75MOL0     C 9995   0.739   8.206   8.048  0.6082  0.2086  1.1882
   75MOL0     C 9996   0.746   8.090   8.127  0.5808  0.8878 -0.8845
   75MOL0     C 9997   0.625   8.030   8.173 -0.8115  0.4015 -0.1867
   75MOL0     O 9998   0.624   7.915   8.249 -0.1495  0.1153 -0.2611
   75MOL0     C 9999   0.704   7.813   8.193  0.4165 -0.2516  0.5411
   75MOL0     C10000   0.708   7.681   8.278  0.8608  0.2234  0.6380
   75MOL0     C10001   0.757   7.707   8.418 -0.1699 -0.4064  0.8826
   75MOL0     C10002   0.801   7.592   8.496 -0.2744  0.2556  1.0549
   75MOL0     C10003   0.852   7.632   8.633  0.4253  0.0348 -0.1343
   75MOL0     C10004   0.880   7.523   8.736 -0.0547  0.0539  0.3976
   75MOL0     C10005   0.978   7.421   8.686  0.2125 -0.2366 -0.6665
   75MOL0     C10006   1.067   7.363   8.792  0.1896  0.3786 -0.2735
   75MOL0     N10007   1.162   7.466   8.835 -0.5859  0.4948 -0.3129
   75MOL0     C10008   1.283   7.505   8.777  0.2442  0.4093  0.0520
   75MOL0     C10009   1.349   7.559   8.880 -0.2336  0.3004 -0.2300
   75MOL0     C10010   1.491   7.612   8.883  0.2325 -0.7067  0.6491
   75MOL0     C10011   1.595   7.500   8.874  0.0477  0.1058  0.4193
   75MOL0     C10012   1.686   7.508   9.001  0.4093  0.5522  0.1512
   75MOL0     C10013   1.809   7.412   9.004  0.3316 -0.1979  0.4691
   75MOL0     O10014   1.907   7.453   9.102  0.1572 -0.0282  0.7470
   75MOL0     C10015   2.023   7.381   9.099  1.2405 -0.9156  0.1484
   75MOL0     C10016   2.099   7.346   8.981  0.0846 -0.2507  0.0485
   75MOL0     C10017   2.215   7.268   8.987 -0.5403 -0.0923 -0.9594
   75MOL0     C10018   2.269   7.250   9.116 -0.0514 -0.6770 -0.0007
   75MOL0     C10019   2.405   7.189   9.131  0.5304  0.5369 -0.4862
   75MOL0     O10020   2.483   7.161   9.021  0.0391 -0.5994  0.2180
   75MOL0     C10021   2.596   7.095   9.062 -0.4958  1.0874  0.2052
   75MOL0     C10022   2.613   6.959   9.050  0.3279 -0.2834  0.1661
   75MOL0     C10023   2.735   6.901   9.081 -0.4717  0.4940  0.2378
   75MOL0     C10024   2.840   6.976   9.149 -0.6217 -0.0319  0.4630
   75MOL0     O10025   2.945   6.913   9.209  0.2950  0.3251  0.3910
   75MOL0     C10026   3.059   6.988   9.243 -1.0407  0.9646  0.6254
   75MOL0     C10027   3.173   6.885   9.271 -0.9628  0.1202 -0.8275
   75MOL0     C10028   3.308   6.938   9.275 -0.7178  0.4981 -0.1417
   75MOL0     C10029   3.335   6.996   9.128 -0.0452  0.1964 -0.0400
   75MOL0     C10030   3.481   6.967   9.090 -0.8376  0.0657  0.7090
   75MOL0     C10031   3.582   7.031   9.180 -0.2119  0.8332 -0.6423
   75MOL0     C10032   3.722   7.057   9.114  0.4676  0.2054 -0.0284
   75MOL0     C10033   3.786   6.938   9.054  0.1583  0.1995  0.3088
   75MOL0    Cl10034   3.952   6.977   9.037  0.2744  0.7928 -0.4351
   75MOL0     C10035   2.821   7.118   9.161  0.3188 -0.0638 -0.4758
   75MOL0     C10036   2.701   7.168   9.115 -0.2112  0.0414  0.2941
   75MOL0     O10037   2.441   7.168   9.247 -0.2659 -0.0017  0.4602
   75MOL0     C10038   2.195   7.277   9.227  0.0159 -0.2847 -0.0279
   75MOL0     C10039   2.081   7.351   9.217  0.0252  0.3275 -1.0331
   75MOL0     N10040   1.282   7.547   8.993 -0.7076 -0.5387  0.3391
   75MOL0     N10041   1.171   7.496   8.972 -1.0362  0.1160  0.1477
   75MOL0     C10042   0.501   8.084   8.138 -1.0705 -1.1219 -0.7203
   75MOL0     C10043   0.496   8.206   8.072 -0.7879  0.2211  0.5718
   75MOL0     C10044   0.491   8.609   7.921  0.0748 -0.1576 -0.0607
   75MOL0     C10045   0.456   8.725   7.992 -0.5325  0.2340  0.0495
   75MOL0     C10046   0.422   8.844   7.936  0.5108  0.1285  0.7587
   75MOL0     C10047   0.416   8.852   7.798 -0.0378 -0.3283 -0.3902
   75MOL0     O10048   0.375   8.976   7.749 -0.2995  0.0491 -0.1292
   75MOL0     C10049   0.398   9.011   7.610  0.1271 -0.6415 -0.9659
   75MOL0     C10050   0.546   9.061   7.605  0.4013  0.6564 -0.6801
   75MOL0     C10051   0.566   9.184   7.689 -0.7619 -0.4787 -1.0118
   75MOL0     C10052   0.725   9.202   7.704  0.7142 -0.2396 -0.1775
   75MOL0     C10053   0.780   9.276   7.602 -0.9960 -0.8238  0.9770
   75MOL0     C10054   0.824   9.330   7.497  0.1130 -0.5289 -0.1531
   75MOL0     C10055   0.455   8.738   7.720 -0.8689  0.2708 -0.1765
   75MOL0     C10056   0.487   8.619   7.782  0.2294  0.7118 -0.9949
   75MOL0     C10057   0.519   8.510   7.695 -0.2768  0.4610  0.1461
   75MOL0     H10058   0.824   8.258   8.005 -1.0069  0.6142 -1.8416
   75MOL0     H10059   0.838   8.036   8.147 -1.0442 -1.8739 -0.3522
   75MOL0     H10060   0.659   7.794   8.096  0.3734 -0.4116  0.5904
   75MOL0     H10061   0.807   7.843   8.172 -0.1476  1.1557 -0.3419
   75MOL0     H10062   0.780   7.615   8.228 -0.3908 -0.6064 -0.1416
   75MOL0     H10063   0.604   7.647   8.283  0.8150 -1.3232 -4.8905
   75MOL0     H10064   0.668   7.744   8.469 -1.0245 -1.5109  0.2397
   75MOL0     H10065   0.822   7.795   8.414 -3.0297  1.8061 -1.4424
   75MOL0     H10066   0.717   7.522   8.501  1.0555 -1.4313  0.7471
   75MOL0     H10067   0.880   7.538   8.442 -0.4269 -0.4696  1.5356
   75MOL0     H10068   0.947   7.686   8.620  0.3296  0.4290  0.7622
   75MOL0     H10069   0.780   7.701   8.677 -0.0348 -0.4031 -0.1973
   75MOL0     H10070   0.911   7.563   8.833  0.8602  0.2663  0.0289
   75MOL0     H10071   0.779   7.481   8.747 -1.0363  1.1530 -3.0111
   75MOL0     H10072   1.047   7.458   8.610  0.9521 -1.8609 -0.8303
   75MOL0     H10073   0.922   7.339   8.639  3.0116 -2.6983  0.0502
   75MOL0     H10074   1.018   7.332   8.885  1.5619  0.6001  0.5531
   75MOL0     H10075   1.120   7.274   8.755 -1.0750 -0.8508  0.7843
   75MOL0     H10076   1.299   7.502   8.670  0.6236  0.9144  0.0926
   75MOL0     H10077   1.499   7.668   8.790 -3.7540 -2.6865 -1.1345
   75MOL0     H10078   1.511   7.686   8.961 -0.5154  0.7813 -0.5159
   75MOL0     H10079   1.534   7.410   8.878 -1.5659  1.1266 -0.1847
   75MOL0     H10080   1.646   7.494   8.777 -1.1510  3.1995 -0.5430
   75MOL0     H10081   1.633   7.465   9.086 -0.9426 -0.4485 -1.1355
   75MOL0     H10082   1.732   7.606   9.015  0.0690  0.5367  1.4845
   75MOL0     H10083   1.853   7.397   8.905  0.0314 -1.0719  0.4638
   75MOL0     H10084   1.783   7.309   9.029 -1.5070  0.6557  2.4007
   75MOL0     H10085   2.067   7.384   8.885  1.5213 -1.5245 -0.9903
   75MOL0     H10086   2.275   7.241   8.901  0.7399 -0.4918  0.0261
   75MOL0     H10087   2.538   6.902   8.996  1.4895 -0.7556 -1.0439
   75MOL0     H10088   2.735   6.793   9.064  1.8123  0.2085  1.6204
   75MOL0     H10089   3.096   7.047   9.159  2.9071 -1.5160  0.3832
   75MOL0     H10090   3.041   7.047   9.334  0.2255  0.0244  1.5285
   75MOL0     H10091   3.158   6.847   9.373  1.6581  0.0397 -0.4078
   75MOL0     H10092   3.172   6.806   9.196  1.5730  0.2460 -1.0795
   75MOL0     H10093   3.328   7.007   9.357  1.3101 -0.4329  0.2266
   75MOL0     H10094   3.381   6.857   9.291  0.2727  1.0613 -1.6692
   75MOL0     H10095   3.310   7.101   9.113  1.3490  0.7517  1.2972
   75MOL0     H10096   3.270   6.947   9.054 -2.4129  2.0972  0.6476
   75MOL0     H10097   3.502   6.999   8.987  1.8569  1.0208  1.4479
   75MOL0     H10098   3.514   6.863   9.093 -0.4157  0.1905  0.5750
   75MOL0     H10099   3.546   7.124   9.224  4.0812  1.5005  2.0891
   75MOL0     H10100   3.590   6.962   9.264 -4.7627  1.7808  0.8043
   75MOL0     H10101   3.780   7.097   9.197 -1.2651  0.6741  1.0150
   75MOL0     H10102   3.714   7.141   9.044  3.3640  0.1045 -0.5746
   75MOL0     H10103   3.782   6.852   9.121 -0.8108  0.0971  0.1367
   75MOL0     H10104   3.735   6.902   8.964 -0.1243 -0.2942  0.6608
   75MOL0     H10105   2.894   7.194   9.188  1.1582 -1.1001  0.2846
   75MOL0     H10106   2.692   7.276   9.103 -1.6361 -0.0440  0.4282
   75MOL0     H10107   2.246   7.253   9.320  2.7446 -1.5978 -1.7477
   75MOL0     H10108   2.023   7.373   9.306  1.6812 -1.1173  0.4842
   75MOL0     H10109   0.409   8.027   8.145 -2.3303  0.9556  1.7728
   75MOL0     H10110   0.396   8.247   8.057 -1.8894 -2.1388  0.9379
   75MOL0     H10111   0.471   8.720   8.099  1.3050 -3.6194 -0.2252
   75MOL0     H10112   0.395   8.919   8.009 -1.1551 -0.9902  1.3497
   75MOL0     H10113   0.330   9.091   7.581  2.7794  2.9427  1.6932
   75MOL0     H10114   0.370   8.928   7.545 -1.4686 -2.2191  1.5483
   75MOL0     H10115   0.557   9.071   7.496 -2.3931  1.3355 -0.9672
   75MOL0     H10116   0.606   8.974   7.636  0.5403  2.0180  3.3734
   75MOL0     H10117   0.543   9.163   7.793  2.0468  0.5065 -0.0901
   75MOL0     H10118   0.526   9.273   7.639  3.6120  0.5538 -3.2699
   75MOL0     H10119   0.746   9.254   7.798 -1.5521 -3.0593  2.0932
   75MOL0     H10120   0.778   9.106   7.710  0.9737 -0.2717 -2.3451
   75MOL0     H10121   0.874   9.362   7.407  1.4924  1.7930  1.3163
   75MOL0     H10122   0.471   8.766   7.616  2.5676  3.0197  0.8927
   75MOL0     H10123   0.452   8.423   7.703  0.9055 -0.3960  1.2103
   75MOL0     H10124   0.524   8.543   7.591  0.1721  1.2605  0.4108
   75MOL0     H10125   0.621   8.477   7.715  0.4527  2.8318  0.6409
   76MOL0     O10126   7.449  10.742   4.152  1.0123 -0.1792  0.9502
   76MOL0     C10127   7.450  10.625   4.112 -0.0435  0.8994 -0.1817
   76MOL0     O10128   7.559  10.543   4.105  0.3803  0.4443  0.8052
   76MOL0     C10129   7.681  10.604   4.110  0.4974  0.6642  1.0519
   76MOL0     C10130   7.775  10.537   4.187  0.4048  0.5921  0.8760
   76MOL0     C10131   7.910  10.586   4.184  0.8626  0.8360  0.8532
   76MOL0     C10132   7.937  10.704   4.113  0.5851  0.0372  1.0818
   76MOL0     O10133   8.071  10.735   4.122  0.5360  0.4857  0.0884
   76MOL0     C10134   8.123  10.825   4.024  0.2223  0.3454  0.3621
   76MOL0     C10135   8.259  10.869   4.072  0.4113  0.0148 -0.4554
   76MOL0     C10136   8.306  10.993   4.018 -0.1412 -0.8483  0.2135
   76MOL0     C10137   8.360  10.961   3.877 -0.0458  0.2729  0.5242
   76MOL0     C10138   8.391  11.090   3.793 -0.6917  0.6539 -0.2765
   76MOL0     C10139   8.530  11.136   3.816  0.1997  1.0032 -0.8087
   76MOL0     C10140   8.572  11.252   3.732 -0.1450 -0.6694  0.3386
   76MOL0     C10141   8.629  11.194   3.601 -0.3244 -0.2869 -0.0866
   76MOL0     N10142   8.657  11.300   3.511  0.0486 -0.1576 -0.1303
   76MOL0     C10143   8.558  11.372   3.441  0.0175  0.3150 -0.1952
   76MOL0     C10144   8.628  11.473   3.379  0.3280  0.9012  0.0863
   76MOL0     C10145   8.558  11.579   3.293  0.8917  0.5603 -0.2662
   76MOL0     C10146   8.474  11.672   3.394  1.0201  0.9756 -0.4832
   76MOL0     C10147   8.362  11.775   3.342  0.7180 -0.1957 -0.3323
   76MOL0     C10148   8.259  11.693   3.259  0.5536  0.1974 -0.3235
   76MOL0     O10149   8.157  11.780   3.204  0.2303  0.0950 -0.3709
   76MOL0     C10150   8.187  11.849   3.089  0.5200  0.4921  0.3434
   76MOL0     C10151   8.188  11.989   3.095 -0.4513 -0.5956  0.4933
   76MOL0     C10152   8.221  12.065   2.985  0.6971 -0.4155  1.2842
   76MOL0     C10153   8.246  12.000   2.863 -0.6472 -0.4997  0.6152
   76MOL0     C10154   8.274  12.083   2.744 -0.6784  0.1162  0.4552
   76MOL0     O10155   8.300  12.218   2.750 -0.2875  0.8550 -0.3893
   76MOL0     C10156   8.279  12.291   2.640  0.1095  0.3394 -0.0073
   76MOL0     C10157   8.183  12.397   2.650  0.0668  0.0699  0.5969
   76MOL0     C10158   8.158  12.474   2.537  0.4911  0.6995 -0.6208
   76MOL0     C10159   8.226  12.455   2.417  0.1525 -0.3459 -0.0116
   76MOL0     O10160   8.168  12.518   2.315 -0.2434  0.4836 -0.6056
   76MOL0     C10161   8.218  12.499   2.181  0.5182  0.1270 -0.0733
   76MOL0     C10162   8.114  12.541   2.078 -0.7611  0.1291  0.4016
   76MOL0     C10163   8.090  12.694   2.062  0.2829 -0.5690  0.1052
   76MOL0     C10164   7.968  12.729   2.145 -0.6471 -0.5547 -0.5771
   76MOL0     C10165   7.952  12.876   2.136 -0.4195  0.1769 -0.8093
   76MOL0     C10166   7.819  12.921   2.210 -0.4166  0.0043 -0.2375
   76MOL0     C10167   7.697  12.903   2.120 -0.2401 -0.5010  0.2327
   76MOL0     C10168   7.568  12.943   2.185  0.6950  0.0717 -0.2833
   76MOL0    Cl10169   7.545  12.835   2.326  0.0137  0.2425  0.1021
   76MOL0     C10170   8.325  12.352   2.417 -0.5024  0.0677  0.9326
   76MOL0     C10171   8.358  12.271   2.524  0.3393  0.1781 -0.2753
   76MOL0     O10172   8.271  12.024   2.641 -0.0478  0.1901  0.2532
   76MOL0     C10173   8.228  11.860   2.853  0.8428  0.1074  0.2256
   76MOL0     C10174   8.200  11.787   2.964  0.2506 -0.3536 -0.1332
   76MOL0     N10175   8.761  11.457   3.420 -0.3942 -0.3660 -0.1482
   76MOL0     N10176   8.782  11.356   3.492 -0.4339 -0.2572  0.4569
   76MOL0     C10177   7.832  10.769   4.042 -0.1833  0.0870 -0.5935
   76MOL0     C10178   7.709  10.714   4.031 -0.2307  0.4789  0.6241
   76MOL0     C10179   7.327  10.561   4.077 -0.4477  0.2753 -0.1730
   76MOL0     C10180   7.321  10.414   4.074 -0.6325 -0.3151  0.3703
   76MOL0     C10181   7.207  10.345   4.046 -0.0844 -1.5492 -0.5329
   76MOL0     C10182   7.093  10.411   4.012 -0.3176 -0.3603  0.0337
   76MOL0     O10183   6.985  10.329   3.995  0.2606  0.2888 -0.6320
   76MOL0     C10184   6.859  10.392   3.978  0.0914  0.0405  0.6002
   76MOL0     C10185   6.744  10.286   3.990  0.3685  0.2691  0.4213
   76MOL0     C10186   6.757  10.205   4.114  0.6811 -0.1741  0.0147
   76MOL0     C10187   6.664  10.081   4.119  0.2570 -0.0433 -0.5948
   76MOL0     C10188   6.520  10.126   4.124 -0.1254 -0.6573 -0.1528
   76MOL0     C10189   6.406  10.166   4.137 -0.4241 -0.9383 -0.0692
   76MOL0     C10190   7.093  10.560   4.007  0.6761  0.5399  0.3338
   76MOL0     C10191   7.211  10.629   4.034 -0.6844 -0.0242 -0.1252
   76MOL0     C10192   7.211  10.774   4.002  0.0306  0.1959  0.4119
   76MOL0     H10193   7.750  10.446   4.241 -2.7623  1.3840  0.9467
   76MOL0     H10194   7.973  10.531   4.253 -0.5090  0.2834  1.6987
   76MOL0     H10195   8.130  10.776   3.926 -0.9792 -0.8021  0.8232
   76MOL0     H10196   8.054  10.910   4.030 -0.3630 -0.1244  0.3472
   76MOL0     H10197   8.335  10.791   4.060 -2.3294 -2.7995 -0.6927
   76MOL0     H10198   8.242  10.886   4.179 -0.8817  3.8139 -1.1202
   76MOL0     H10199   8.371  11.041   4.092 -1.8805  0.0362  1.2317
   76MOL0     H10200   8.223  11.062   4.003 -0.9612 -1.4752  1.5858
   76MOL0     H10201   8.446  10.898   3.902 -0.8621 -0.9154  0.4168
   76MOL0     H10202   8.290  10.897   3.823  2.5994 -2.3700 -0.0586
   76MOL0     H10203   8.392  11.074   3.684 -0.3752  0.8979 -0.3117
   76MOL0     H10204   8.323  11.173   3.811 -0.1160  1.8534 -3.0374
   76MOL0     H10205   8.538  11.163   3.922  0.0415 -1.3339 -0.1385
   76MOL0     H10206   8.597  11.050   3.810 -2.3938 -1.0570 -1.8651
   76MOL0     H10207   8.659  11.304   3.774  0.1356  1.6453 -2.7803
   76MOL0     H10208   8.493  11.327   3.721  1.0528  0.4887 -0.6372
   76MOL0     H10209   8.718  11.135   3.621  1.1362  1.4903 -1.0435
   76MOL0     H10210   8.552  11.124   3.567 -1.5113  1.2658 -0.7766
   76MOL0     H10211   8.452  11.349   3.432 -0.3519  0.9905  1.9800
   76MOL0     H10212   8.626  11.642   3.235  0.8036  2.3048  1.4631
   76MOL0     H10213   8.496  11.525   3.220  2.4649  0.0205 -1.2757
   76MOL0     H10214   8.421  11.602   3.459  1.4965  1.1979  0.1510
   76MOL0     H10215   8.546  11.731   3.451  3.0060 -0.1881 -1.6481
   76MOL0     H10216   8.406  11.855   3.282  1.0177  1.7771  2.3395
   76MOL0     H10217   8.316  11.822   3.430  0.5993 -0.8994 -0.0107
   76MOL0     H10218   8.191  11.625   3.311 -3.0730  2.3393 -1.8579
   76MOL0     H10219   8.308  11.636   3.179  0.7613  0.2692 -0.2489
   76MOL0     H10220   8.157  12.039   3.186 -1.5415  2.4971 -1.4455
   76MOL0     H10221   8.230  12.173   2.992 -0.5495  0.4843 -4.8708
   76MOL0     H10222   8.127  12.421   2.740  1.5691  0.6609  1.4114
   76MOL0     H10223   8.083  12.550   2.555  0.0760  0.4898 -1.3786
   76MOL0     H10224   8.315  12.545   2.164  1.3796 -2.1531 -1.9048
   76MOL0     H10225   8.224  12.393   2.154 -1.1942  0.2740 -1.2425
   76MOL0     H10226   8.146  12.501   1.981 -0.6574  0.9132  0.1047
   76MOL0     H10227   8.021  12.487   2.097 -0.8247  0.3291  0.6517
   76MOL0     H10228   8.186  12.743   2.078  0.6939 -1.0537 -0.7766
   76MOL0     H10229   8.059  12.712   1.958  3.1081 -1.4943 -0.9847
   76MOL0     H10230   7.987  12.681   2.242 -2.4175 -2.2780 -1.0066
   76MOL0     H10231   7.878  12.678   2.111 -1.2900  0.7558 -0.8848
   76MOL0     H10232   7.955  12.908   2.031  1.6046  1.6662 -0.3580
   76MOL0     H10233   8.038  12.923   2.184 -2.9895  2.8200  1.5892
   76MOL0     H10234   7.821  12.860   2.302  1.4712 -2.2693 -1.6655
   76MOL0     H10235   7.820  13.026   2.239 -0.7993 -0.5023  1.7977
   76MOL0     H10236   7.685  12.796   2.101 -0.2688 -0.9659  2.6096
   76MOL0     H10237   7.703  12.958   2.025  1.1900 -1.7939 -0.4787
   76MOL0     H10238   7.561  13.051   2.205 -0.4118 -0.0017 -0.1807
   76MOL0     H10239   7.484  12.926   2.117  2.2587 -0.0939 -2.2522
   76MOL0     H10240   8.389  12.350   2.330  0.9516 -0.5686  1.9656
   76MOL0     H10241   8.437  12.197   2.517 -0.3401 -0.4735 -1.3166
   76MOL0     H10242   8.231  11.824   2.751  0.6645 -1.2242  0.6662
   76MOL0     H10243   8.182  11.680   2.952 -1.4639 -0.0041 -0.8991
   76MOL0     H10244   7.840  10.866   3.994 -0.3868 -0.2797 -1.3715
   76MOL0     H10245   7.630  10.753   3.967 -2.1110 -4.6458 -0.7544
   76MOL0     H10246   7.413  10.355   4.074  1.5115  2.7478 -0.6433
   76MOL0     H10247   7.215  10.237   4.046  0.5412 -1.5141 -1.3238
   76MOL0     H10248   6.859  10.446   3.884 -3.4472 -0.8308 -0.0275
   76MOL0     H10249   6.843  10.471   4.052 -1.4568 -2.2324  2.8639
   76MOL0     H10250   6.775  10.218   3.910 -0.9498 -1.8031  1.6004
   76MOL0     H10251   6.645  10.330   3.973  0.2840  0.7955  2.0517
   76MOL0     H10252   6.740  10.260   4.207 -0.7787  1.3462 -1.0963
   76MOL0     H10253   6.860  10.168   4.115  0.5769 -0.4712  0.0359
   76MOL0     H10254   6.683  10.025   4.027  0.7505  2.4299 -2.1097
   76MOL0     H10255   6.684  10.021   4.208 -2.6131 -2.5778 -1.4846
   76MOL0     H10256   6.307  10.207   4.138  0.1795  0.5910  1.0011
   76MOL0     H10257   7.001  10.614   3.986  0.3376 -0.0243  0.3414
   76MOL0     H10258   7.123  10.818   3.953  0.2220  2.0883  1.6824
   76MOL0     H10259   7.221  10.822   4.099 -1.2512 -3.0920  2.3351
   76MOL0     H10260   7.299  10.802   3.943 -1.9514  4.6298 -0.8294
   77MOL0     O10261   2.123   9.628   2.124  0.1404  0.7944  0.8174
   77MOL0     C10262   2.161   9.549   2.040  1.0400  0.1862  0.2498
   77MOL0     O10263   2.286   9.535   2.000 -0.3202 -0.4665 -0.1761
   77MOL0     C10264   2.381   9.640   1.983  1.2820  0.6382  0.2484
   77MOL0     C10265   2.358   9.768   2.031  0.2707 -0.4480 -1.2328
   77MOL0     C10266   2.459   9.858   2.014 -0.5052 -0.4466 -0.3378
   77MOL0     C10267   2.577   9.830   1.940 -0.5753 -0.6039 -0.0069
   77MOL0     O10268   2.686   9.918   1.926  0.8620 -0.0166 -0.7392
   77MOL0     C10269   2.700  10.027   2.022  0.1008  1.0155 -0.8306
   77MOL0     C10270   2.827  10.120   1.996  0.8655 -0.2856  0.0402
   77MOL0     C10271   2.819  10.262   2.068  0.3003  0.0126  0.1713
   77MOL0     C10272   2.950  10.334   2.059  0.1051 -0.1123  0.2003
   77MOL0     C10273   3.054  10.270   2.154 -0.2137 -0.7468 -0.8384
   77MOL0     C10274   3.184  10.353   2.147  0.0947 -0.2307  0.6080
   77MOL0     C10275   3.290  10.298   2.244 -0.7567 -0.8934  0.4781
   77MOL0     C10276   3.420  10.382   2.220  0.1983  0.2963 -0.1890
   77MOL0     N10277   3.545  10.340   2.289 -0.2218  0.4804  0.1497
   77MOL0     C10278   3.568  10.305   2.421  0.0532 -0.5325 -0.8426
   77MOL0     C10279   3.702  10.315   2.440 -1.1458  0.3175  0.3190
   77MOL0     C10280   3.780  10.285   2.564 -1.0579  0.4351  0.4335
   77MOL0     C10281   3.826  10.409   2.637 -0.0962 -0.3196 -0.1564
   77MOL0     C10282   3.931  10.372   2.746  0.3634  0.0048 -0.3553
   77MOL0     C10283   4.072  10.363   2.697 -0.4018 -0.3557 -0.0587
   77MOL0     O10284   4.143  10.277   2.787 -0.4702 -0.7992  0.1171
   77MOL0     C10285   4.281  10.261   2.761  0.9219 -0.3951 -0.4464
   77MOL0     C10286   4.344  10.150   2.819  0.3904 -0.1897 -0.2775
   77MOL0     C10287   4.477  10.124   2.805  0.2139  0.0217  0.2609
   77MOL0     C10288   4.555  10.198   2.722 -0.3140 -0.5176 -0.2385
   77MOL0     C10289   4.697  10.161   2.687  0.0695 -0.2672 -0.2646
   77MOL0     O10290   4.775  10.243   2.607 -0.7511  0.2589  0.1482
   77MOL0     C10291   4.904  10.200   2.569  0.7548  0.0209  0.1306
   77MOL0     C10292   4.908  10.117   2.457  0.1766  0.3201 -0.3875
   77MOL0     C10293   5.031  10.057   2.423 -0.1441 -0.9837  1.0793
   77MOL0     C10294   5.149  10.082   2.495 -0.4237 -0.0878 -0.8598
   77MOL0     O10295   5.261  10.005   2.477 -0.9665 -0.0682  0.5886
   77MOL0     C10296   5.282   9.923   2.358  1.2756 -0.3621  0.5372
   77MOL0     C10297   5.422   9.890   2.314 -0.8247 -0.3087  0.1597
   77MOL0     C10298   5.489  10.009   2.241 -0.4105  0.2301 -0.2003
   77MOL0     C10299   5.593   9.974   2.140  0.1241 -0.4241  0.3338
   77MOL0     C10300   5.681  10.088   2.100 -0.7791 -0.2097 -0.2606
   77MOL0     C10301   5.790  10.049   1.999 -0.3619 -0.0137  0.1940
   77MOL0     C10302   5.852  10.171   1.940  0.3831 -0.5623  0.2965
   77MOL0     C10303   5.975  10.154   1.853 -0.0995 -0.0760 -0.4023
   77MOL0    Cl10304   6.130  10.113   1.939  0.2572 -0.1807 -0.0914
   77MOL0     C10305   5.139  10.169   2.607  1.3402 -0.0055 -0.7564
   77MOL0     C10306   5.017  10.223   2.646  0.7067  0.3262  0.5509
   77MOL0     O10307   4.735  10.054   2.734  0.2563 -0.2807  0.9387
   77MOL0     C10308   4.499  10.310   2.657 -0.2038 -0.1755  0.1873
   77MOL0     C10309   4.357  10.333   2.671 -0.5305 -0.1260 -0.4005
   77MOL0     N10310   3.761  10.356   2.322  0.0973  0.2144 -0.1574
   77MOL0     N10311   3.670  10.364   2.235 -1.1846 -0.2674  0.1010
   77MOL0     C10312   2.596   9.695   1.895 -0.0131  1.1266 -0.9960
   77MOL0     C10313   2.492   9.602   1.912 -0.4503 -0.1561 -0.7379
   77MOL0     C10314   2.062   9.453   1.984 -0.7208  0.3308 -0.4663
   77MOL0     C10315   2.103   9.378   1.869  0.4350  0.1834  0.0516
   77MOL0     C10316   2.030   9.270   1.818  0.3243  0.3734 -0.8672
   77MOL0     C10317   1.902   9.243   1.871 -0.2615  0.3584  0.0622
   77MOL0     O10318   1.850   9.129   1.822  0.1485  1.2187 -0.6915
   77MOL0     C10319   1.746   9.073   1.907 -0.0421  0.0548 -0.4080
   77MOL0     C10320   1.616   9.117   1.842 -1.0960 -0.3063  0.5770
   77MOL0     C10321   1.513   9.034   1.914  0.7011 -0.4260  0.5207
   77MOL0     C10322   1.485   8.896   1.839  0.0994  0.0014 -0.0666
   77MOL0     C10323   1.393   8.823   1.925 -0.3837  0.0538 -0.7723
   77MOL0     C10324   1.333   8.767   2.012 -0.0126 -0.4766  0.9502
   77MOL0     C10325   1.855   9.329   1.975 -0.0804  0.7399 -0.6844
   77MOL0     C10326   1.931   9.432   2.035  1.0111 -0.1991 -0.4108
   77MOL0     C10327   1.873   9.508   2.143 -0.2127  0.1468 -0.0929
   77MOL0     H10328   2.269   9.803   2.082  0.4453  0.6093 -1.6343
   77MOL0     H10329   2.444   9.962   2.042 -1.6839 -1.1167  1.7452
   77MOL0     H10330   2.610  10.090   2.020 -1.3504 -0.9800 -2.1233
   77MOL0     H10331   2.724   9.980   2.118 -0.1815  0.7796 -0.8760
   77MOL0     H10332   2.834  10.136   1.888 -1.5395 -0.8548 -0.2569
   77MOL0     H10333   2.914  10.067   2.036  0.0533 -1.3671  0.4033
   77MOL0     H10334   2.794  10.240   2.172  1.0347 -2.2365 -0.0693
   77MOL0     H10335   2.737  10.323   2.030 -1.7342 -2.4101  0.4292
   77MOL0     H10336   2.998  10.320   1.962  1.3825 -0.0756  0.8097
   77MOL0     H10337   2.938  10.440   2.082 -0.3176 -0.1053 -0.0425
   77MOL0     H10338   3.032  10.263   2.261  0.9317  0.5348 -0.4898
   77MOL0     H10339   3.082  10.174   2.109 -0.2483  1.2003 -5.6579
   77MOL0     H10340   3.214  10.350   2.042 -2.1424  1.9589 -0.1906
   77MOL0     H10341   3.163  10.457   2.172  1.3576  0.9865 -2.9052
   77MOL0     H10342   3.306  10.191   2.229  0.5260 -0.4453 -1.7193
   77MOL0     H10343   3.255  10.324   2.344  2.6699  4.1683  0.7740
   77MOL0     H10344   3.453  10.386   2.115 -0.2190  3.3816 -0.2890
   77MOL0     H10345   3.394  10.485   2.245  1.8279  0.7809 -0.3325
   77MOL0     H10346   3.517  10.268   2.510  3.5873  0.3488  1.7854
   77MOL0     H10347   3.716  10.228   2.632 -0.4021 -2.2639 -1.0864
   77MOL0     H10348   3.864  10.220   2.539 -2.1582 -2.5759  3.6534
   77MOL0     H10349   3.857  10.490   2.571  0.7620  0.0242  0.6471
   77MOL0     H10350   3.740  10.444   2.694 -0.5332 -1.8745  0.2001
   77MOL0     H10351   3.905  10.288   2.810 -0.8920  1.7862  1.6340
   77MOL0     H10352   3.928  10.458   2.814 -3.3193 -0.2149 -0.0370
   77MOL0     H10353   4.120  10.460   2.708 -0.5682 -0.3716  0.8573
   77MOL0     H10354   4.075  10.317   2.597 -0.1344  1.8850 -1.1407
   77MOL0     H10355   4.289  10.088   2.889 -0.8919 -0.1719 -1.2428
   77MOL0     H10356   4.523  10.035   2.848 -1.3855 -1.7646 -1.4959
   77MOL0     H10357   4.817  10.100   2.400  1.3807 -1.1526 -2.0043
   77MOL0     H10358   5.031   9.981   2.346 -0.9457 -0.1793  0.2739
   77MOL0     H10359   5.231   9.828   2.376  0.9251 -0.7142 -1.9914
   77MOL0     H10360   5.229   9.962   2.271  0.4609 -1.8556  0.3199
   77MOL0     H10361   5.484   9.863   2.400 -1.6338  2.1973  1.6549
   77MOL0     H10362   5.418   9.799   2.254  1.7414 -3.9120  4.7860
   77MOL0     H10363   5.411  10.065   2.189 -0.3968 -0.9365 -1.5447
   77MOL0     H10364   5.535  10.077   2.313 -1.0629 -2.0997  2.5754
   77MOL0     H10365   5.547   9.930   2.051 -1.4960 -0.4743  1.1640
   77MOL0     H10366   5.656   9.891   2.171  0.4654 -1.3402 -2.4982
   77MOL0     H10367   5.738  10.120   2.187  0.7982 -0.1594 -1.2719
   77MOL0     H10368   5.617  10.166   2.057  0.4083  1.1148  0.3276
   77MOL0     H10369   5.862   9.987   2.054 -0.1752  0.5034  0.5280
   77MOL0     H10370   5.743   9.988   1.921 -2.4565  1.3558  0.3226
   77MOL0     H10371   5.881  10.226   2.030  0.0773 -2.9180  1.9352
   77MOL0     H10372   5.770  10.213   1.880 -0.2539 -1.7995  0.2614
   77MOL0     H10373   5.954  10.082   1.774 -0.3428  0.6480 -1.0096
   77MOL0     H10374   5.994  10.255   1.813 -0.3216  0.1087 -0.0457
   77MOL0     H10375   5.220  10.175   2.679 -1.1816 -1.7289  2.5493
   77MOL0     H10376   5.008  10.289   2.732  1.4740  1.5812 -0.3000
   77MOL0     H10377   4.552  10.372   2.585 -0.8685 -1.0384 -1.0909
   77MOL0     H10378   4.305  10.410   2.615 -0.6647 -0.7480 -1.1483
   77MOL0     H10379   2.684   9.646   1.856 -0.9394 -0.4929 -1.1380
   77MOL0     H10380   2.501   9.497   1.886  1.7681 -0.5231  1.1917
   77MOL0     H10381   2.200   9.391   1.821  2.3975 -0.2201  3.6131
   77MOL0     H10382   2.060   9.207   1.735  0.2633 -0.6194 -0.1496
   77MOL0     H10383   1.759   9.109   2.009  0.4848  0.8016 -0.7223
   77MOL0     H10384   1.751   8.964   1.909  1.8729  0.0663  2.9855
   77MOL0     H10385   1.609   9.099   1.734 -3.2772  0.7483  0.5002
   77MOL0     H10386   1.602   9.224   1.860  1.6255 -0.2986  3.7248
   77MOL0     H10387   1.425   9.097   1.926  1.6152  1.7595 -2.9444
   77MOL0     H10388   1.540   9.021   2.020 -0.5268  3.0763  1.3744
   77MOL0     H10389   1.451   8.903   1.736  0.8685 -1.2633 -0.4181
   77MOL0     H10390   1.580   8.844   1.826  0.0993  0.1030 -0.4757
   77MOL0     H10391   1.266   8.717   2.079  0.3837  0.6015  2.2009
   77MOL0     H10392   1.754   9.315   2.012  0.7871  2.1211  2.4552
   77MOL0     H10393   1.768   9.483   2.163  0.0870 -0.8878  0.2920
   77MOL0     H10394   1.932   9.498   2.234 -0.5663  0.4725  0.1769
   77MOL0     H10395   1.869   9.612   2.110  0.8336 -0.3281 -1.8260
   78MOL0     O10396   2.265   6.249   9.422 -0.0241  0.0898  0.0892
   78MOL0     C10397   2.219   6.349   9.479 -0.2953 -0.2840  1.5144
   78MOL0     O10398   2.279   6.422   9.574 -0.0923 -0.8129  0.0718
   78MOL0     C10399   2.409   6.391   9.609  0.0496  0.5390  0.1059
   78MOL0     C10400   2.501   6.494   9.602  0.7703 -0.0826 -0.1332
   78MOL0     C10401   2.619   6.485   9.677  0.3448  0.0276 -0.0892
   78MOL0     C10402   2.640   6.362   9.762  0.1381 -0.5500 -0.7354
   78MOL0     O10403   2.758   6.345   9.835  0.6761 -0.2974  0.0458
   78MOL0     C10404   2.874   6.363   9.756 -0.4516 -0.2157 -0.0653
   78MOL0     C10405   2.996   6.309   9.829  0.3738  0.7207  0.0427
   78MOL0     C10406   3.106   6.284   9.727 -0.3202  0.1208  0.2221
   78MOL0     C10407   3.227   6.229   9.807  0.4051 -0.3425  1.3290
   78MOL0     C10408   3.340   6.327   9.846 -0.3789  0.6459  0.3532
   78MOL0     C10409   3.307   6.442   9.944 -0.0434 -0.6473  0.1735
   78MOL0     C10410   3.409   6.552   9.953 -0.4182  0.1541 -1.0222
   78MOL0     C10411   3.539   6.502  10.014 -1.1027  0.2529 -0.4070
   78MOL0     N10412   3.644   6.600   9.992  0.0328 -0.3512  0.3156
   78MOL0     C10413   3.668   6.721  10.053 -0.0543  0.1786 -0.1878
   78MOL0     C10414   3.795   6.762  10.014 -0.9263  1.2299  0.3697
   78MOL0     C10415   3.873   6.875  10.067  0.5759 -0.1715  0.0994
   78MOL0     C10416   3.955   6.949   9.959 -0.6223  0.3922  0.1581
   78MOL0     C10417   4.069   6.863   9.906  0.0028  0.7146  0.0642
   78MOL0     C10418   4.159   6.798  10.007  0.3143  1.0941  0.7516
   78MOL0     O10419   4.281   6.741   9.954 -0.3558  0.4284  0.3317
   78MOL0     C10420   4.384   6.834   9.942  0.0806  0.0040 -0.4594
   78MOL0     C10421   4.386   6.976   9.935  0.4298 -0.9978 -1.1845
   78MOL0     C10422   4.505   7.050   9.916 -0.2830  0.4323 -0.5861
   78MOL0     C10423   4.629   6.977   9.888  0.9508 -1.0564 -0.0229
   78MOL0     C10424   4.742   7.054   9.860  0.2059 -0.4489  0.7950
   78MOL0     O10425   4.845   6.983   9.793 -0.2046  0.0070  0.2640
   78MOL0     C10426   4.974   7.034   9.792  0.2417 -0.8724  0.6563
   78MOL0     C10427   4.996   7.165   9.741 -0.2031  0.7211  0.1571
   78MOL0     C10428   5.120   7.207   9.726  0.4167  0.4875 -0.3649
   78MOL0     C10429   5.232   7.135   9.763  0.4602 -0.2196  0.7643
   78MOL0     O10430   5.355   7.195   9.757 -0.0286 -0.7493  0.7864
   78MOL0     C10431   5.460   7.111   9.713  0.8059  0.1732 -1.3542
   78MOL0     C10432   5.553   7.206   9.633 -0.4534 -0.4759 -0.7686
   78MOL0     C10433   5.711   7.188   9.663 -0.0348  0.3450  0.5652
   78MOL0     C10434   5.795   7.284   9.581 -0.7434 -0.2684 -0.0016
   78MOL0     C10435   5.947   7.263   9.601  0.1610  0.6331  0.5081
   78MOL0     C10436   6.035   7.358   9.528 -0.3611 -0.1782 -0.7391
   78MOL0     C10437   6.184   7.323   9.532  0.1626 -0.5758  0.3701
   78MOL0     C10438   6.213   7.204   9.443 -0.9362 -0.5647  0.3380
   78MOL0    Cl10439   6.349   7.237   9.341  0.0135  0.0906 -0.6995
   78MOL0     C10440   5.207   7.005   9.825 -0.0620 -0.3953  0.9234
   78MOL0     C10441   5.080   6.953   9.823  0.2197 -0.0127  0.2606
   78MOL0     O10442   4.747   7.176   9.882 -0.4480  0.7771 -0.8126
   78MOL0     C10443   4.623   6.838   9.895 -0.0086 -0.4296 -0.7885
   78MOL0     C10444   4.511   6.768   9.920 -0.1583 -0.6489 -0.3888
   78MOL0     N10445   3.844   6.660   9.944  0.1787 -0.7396  0.9592
   78MOL0     N10446   3.759   6.571   9.926 -0.4208 -0.3861  0.2858
   78MOL0     C10447   2.544   6.264   9.761  0.2845  0.5899  0.1688
   78MOL0     C10448   2.434   6.277   9.690  0.1273  0.4859 -0.0608
   78MOL0     C10449   2.080   6.382   9.446 -0.2431 -0.3700 -0.8161
   78MOL0     C10450   2.033   6.506   9.502 -0.3265 -0.0758  0.0950
   78MOL0     C10451   1.912   6.558   9.483 -0.5491  0.0326 -0.4643
   78MOL0     C10452   1.807   6.483   9.417 -0.3829 -0.5184  0.2374
   78MOL0     O10453   1.675   6.515   9.407 -0.3622 -0.2870  0.1880
   78MOL0     C10454   1.630   6.631   9.475 -0.1022  0.1523 -0.0260
   78MOL0     C10455   1.478   6.661   9.451 -0.5304  0.0864 -0.4570
   78MOL0     C10456   1.444   6.653   9.295  0.2372  0.4387 -0.2866
   78MOL0     C10457   1.377   6.783   9.243 -0.1985  0.4036 -0.0575
   78MOL0     C10458   1.408   6.784   9.097 -0.0059  0.1763  0.4195
   78MOL0     C10459   1.425   6.797   8.978 -0.1970  1.1568 -0.6757
   78MOL0     C10460   1.853   6.364   9.351  0.3392 -1.1672  0.0188
   78MOL0     C10461   1.983   6.306   9.367 -0.1264 -0.2027  0.5390
   78MOL0     C10462   2.008   6.166   9.308 -0.7446 -0.1636 -0.5420
   78MOL0     H10463   2.478   6.589   9.556 -1.2547  2.4062  5.1455
   78MOL0     H10464   2.696   6.560   9.663  0.4685 -0.0842 -0.0014
   78MOL0     H10465   2.863   6.300   9.667  1.0868 -0.8324  0.1604
   78MOL0     H10466   2.886   6.467   9.725  1.7385 -0.0501  1.1729
   78MOL0     H10467   2.966   6.214   9.874 -0.2532  1.8079  2.0280
   78MOL0     H10468   3.020   6.387   9.901 -4.8571  0.6371  2.3874
   78MOL0     H10469   3.141   6.375   9.676 -2.4753 -0.7318 -3.1426
   78MOL0     H10470   3.074   6.219   9.645  0.4049  0.6286 -0.4823
   78MOL0     H10471   3.188   6.169   9.889 -3.2025  0.4303  0.3873
   78MOL0     H10472   3.268   6.154   9.739 -1.1267 -1.3373  1.4500
   78MOL0     H10473   3.408   6.258   9.896 -0.5643 -0.5669 -0.9945
   78MOL0     H10474   3.380   6.370   9.753  1.1835 -0.1462  0.6268
   78MOL0     H10475   3.215   6.492   9.911  0.2146  2.0721  3.0221
   78MOL0     H10476   3.275   6.407  10.043 -1.3963 -0.4484 -0.1754
   78MOL0     H10477   3.379   6.631  10.021  0.8264 -0.9677  0.9433
   78MOL0     H10478   3.429   6.602   9.858  0.8029  1.8423  0.0729
   78MOL0     H10479   3.533   6.484  10.122  0.1981 -0.2627 -0.4022
   78MOL0     H10480   3.570   6.408   9.968 -1.1689 -0.8298  1.6311
   78MOL0     H10481   3.596   6.775  10.114  2.7682 -0.3592  4.0601
   78MOL0     H10482   3.796   6.941  10.105 -1.1326 -2.9303  1.7670
   78MOL0     H10483   3.943   6.847  10.146  1.1191  2.2196  0.5411
   78MOL0     H10484   3.897   6.973   9.870 -1.0277 -0.9147  0.0656
   78MOL0     H10485   4.004   7.039   9.999  1.0972 -0.3796 -0.1319
   78MOL0     H10486   4.131   6.933   9.848 -0.2716 -0.4629 -1.7417
   78MOL0     H10487   4.030   6.786   9.838 -0.2127  1.7121 -0.9612
   78MOL0     H10488   4.101   6.718  10.055 -0.4165  1.5058  0.5753
   78MOL0     H10489   4.170   6.869  10.088 -2.5754  1.7983  0.6356
   78MOL0     H10490   4.303   7.041   9.961  2.2615  1.1537 -0.4706
   78MOL0     H10491   4.491   7.157   9.926 -1.4268  0.0602  3.5497
   78MOL0     H10492   4.908   7.219   9.707 -0.0914  0.2148 -0.9635
   78MOL0     H10493   5.141   7.297   9.670 -0.3283  0.9375  0.0698
   78MOL0     H10494   5.516   7.066   9.795  2.9391  1.2435 -2.1304
   78MOL0     H10495   5.428   7.030   9.646 -0.2159  0.5292 -1.3158
   78MOL0     H10496   5.537   7.200   9.525  0.2949  0.0187 -0.9167
   78MOL0     H10497   5.532   7.309   9.663  1.3446 -0.3582  0.2625
   78MOL0     H10498   5.733   7.215   9.767 -0.6749  3.2848  0.0338
   78MOL0     H10499   5.734   7.082   9.655 -4.3368 -0.9383  2.2828
   78MOL0     H10500   5.766   7.381   9.622  0.2040  0.6356 -1.3756
   78MOL0     H10501   5.771   7.287   9.474 -2.5697 -1.9376  0.2963
   78MOL0     H10502   5.984   7.163   9.578  1.8648  1.1208  1.0533
   78MOL0     H10503   5.964   7.268   9.709  3.6308  3.9248  0.0433
   78MOL0     H10504   6.004   7.372   9.424 -0.6667  0.1636 -0.6065
   78MOL0     H10505   6.018   7.456   9.574 -1.5067 -0.7580  0.1213
   78MOL0     H10506   6.216   7.307   9.635 -0.4058 -1.1214  0.4663
   78MOL0     H10507   6.230   7.412   9.489  0.5031 -0.0186  1.8538
   78MOL0     H10508   6.235   7.114   9.501  1.6612 -0.0893  0.2247
   78MOL0     H10509   6.131   7.174   9.378 -1.2947  0.3695  0.3376
   78MOL0     H10510   5.293   6.947   9.856  0.3217  0.1334  0.8683
   78MOL0     H10511   5.063   6.851   9.854  1.0855  0.3654  2.1654
   78MOL0     H10512   4.707   6.778   9.860 -0.9681 -1.6939 -1.0277
   78MOL0     H10513   4.515   6.661   9.903 -0.5317 -0.6490 -0.4687
   78MOL0     H10514   2.559   6.174   9.820  0.5071  0.1441 -0.5621
   78MOL0     H10515   2.351   6.210   9.709 -0.1026  0.7714 -0.0488
   78MOL0     H10516   2.108   6.570   9.547 -0.1149  0.3268 -0.8143
   78MOL0     H10517   1.896   6.659   9.519  0.0120 -0.8455  2.4814
   78MOL0     H10518   1.696   6.714   9.446 -1.3414  1.7472  1.4892
   78MOL0     H10519   1.638   6.613   9.583 -0.8995 -0.2290 -0.0282
   78MOL0     H10520   1.455   6.760   9.492  2.1441  0.5572  0.1377
   78MOL0     H10521   1.415   6.590   9.505  1.0393 -2.2956 -1.5595
   78MOL0     H10522   1.370   6.576   9.272 -0.1608  0.6370  0.3118
   78MOL0     H10523   1.534   6.627   9.238  2.2466  0.7341  2.5175
   78MOL0     H10524   1.269   6.791   9.258  0.1144  2.8762  1.5070
   78MOL0     H10525   1.425   6.869   9.292  0.0575  1.7343 -2.4746
   78MOL0     H10526   1.452   6.808   8.875  1.3974 -1.2356 -0.6039
   78MOL0     H10527   1.783   6.300   9.298  1.0115 -1.2613 -0.7775
   78MOL0     H10528   2.041   6.098   9.387 -0.1922  0.4306 -0.2533
   78MOL0     H10529   1.927   6.119   9.251  0.2423  1.5621 -3.6278
   78MOL0     H10530   2.099   6.178   9.249  1.2473 -0.3634  2.2821
   79MOL0     O10531   3.293   7.384   7.570 -0.5132  0.1887  0.1699
   79MOL0     C10532   3.247   7.438   7.469 -0.5096  0.0641 -0.3674
   79MOL0     O10533   3.318   7.528   7.396 -0.0025 -0.2730  0.0299
   79MOL0     C10534   3.448   7.543   7.442  0.5536 -0.7484 -0.8693
   79MOL0     C10535   3.498   7.666   7.486 -0.5145 -0.2242  0.1487
   79MOL0     C10536   3.629   7.693   7.522  0.6309  0.9198 -0.3148
   79MOL0     C10537   3.726   7.589   7.509 -0.4521 -1.6413  0.1891
   79MOL0     O10538   3.855   7.618   7.551  0.1002 -0.1705  0.9467
   79MOL0     C10539   3.863   7.652   7.689  0.3626  0.2761  0.0744
   79MOL0     C10540   3.986   7.585   7.737  0.5047  0.1307  0.2893
   79MOL0     C10541   4.046   7.625   7.873  0.4080  0.4298 -0.3805
   79MOL0     C10542   4.112   7.763   7.865  0.6554 -0.3443 -0.2313
   79MOL0     C10543   4.172   7.808   8.002 -0.5432 -0.2856 -0.0644
   79MOL0     C10544   4.253   7.939   8.004 -0.0332 -0.1798 -0.0495
   79MOL0     C10545   4.183   8.068   7.967 -0.2887  0.8079 -0.7845
   79MOL0     C10546   4.257   8.196   8.013  0.2387 -0.4596  0.8943
   79MOL0     N10547   4.392   8.202   7.940  0.3750  0.1160 -0.3441
   79MOL0     C10548   4.513   8.195   8.009 -0.0154 -0.3321 -0.4059
   79MOL0     C10549   4.603   8.260   7.929 -0.4065 -0.2693 -0.1068
   79MOL0     C10550   4.747   8.290   7.932 -0.2036 -0.8871 -0.0896
   79MOL0     C10551   4.785   8.413   8.022  0.5141 -1.4078  0.9794
   79MOL0     C10552   4.937   8.440   7.998 -0.0233 -0.0755  0.2910
   79MOL0     C10553   4.999   8.558   8.060 -0.3370 -0.8480  1.1198
   79MOL0     O10554   5.125   8.571   8.005 -0.6988  0.2780  1.1469
   79MOL0     C10555   5.214   8.663   8.049  0.8524 -0.0417 -0.7720
   79MOL0     C10556   5.186   8.768   8.142  0.0059  0.3987 -0.6268
   79MOL0     C10557   5.280   8.861   8.188 -0.8863 -0.1794 -0.2273
   79MOL0     C10558   5.404   8.860   8.120  0.0045  0.2389  0.1649
   79MOL0     C10559   5.508   8.953   8.155 -1.1557 -0.0836 -0.8088
   79MOL0     O10560   5.637   8.932   8.105  0.2157 -0.3837  0.1376
   79MOL0     C10561   5.750   9.013   8.144  0.2501  0.2329  0.6400
   79MOL0     C10562   5.771   9.084   8.261  0.3831 -0.1498 -0.1090
   79MOL0     C10563   5.890   9.156   8.285  0.1544 -0.8066  0.5805
   79MOL0     C10564   5.994   9.153   8.195 -0.3752  0.4067  0.4722
   79MOL0     O10565   6.126   9.199   8.220 -0.1597 -0.1197  0.5545
   79MOL0     C10566   6.175   9.161   8.346 -0.4136  0.7336 -0.3782
   79MOL0     C10567   6.227   9.018   8.346  0.0650 -0.2304 -0.0376
   79MOL0     C10568   6.308   8.967   8.232  0.3632 -0.1444 -0.1257
   79MOL0     C10569   6.433   9.056   8.230 -0.0833  0.6167 -0.0679
   79MOL0     C10570   6.533   9.001   8.133  0.5664 -0.5872  0.8643
   79MOL0     C10571   6.670   9.074   8.154  0.8316  0.4626  0.3505
   79MOL0     C10572   6.768   9.016   8.056  0.0179  0.0890 -0.1912
   79MOL0     C10573   6.909   9.088   8.083  0.0686 -0.5137 -0.1452
   79MOL0    Cl10574   7.000   9.000   8.210  0.0053 -0.0947 -0.5947
   79MOL0     C10575   5.973   9.086   8.074 -1.2026  0.1183  0.5301
   79MOL0     C10576   5.855   9.022   8.048  0.4160  0.5992 -0.3588
   79MOL0     O10577   5.476   9.047   8.228 -0.2755  0.4345  0.1805
   79MOL0     C10578   5.429   8.760   8.022  0.8657  0.3054 -0.6618
   79MOL0     C10579   5.338   8.662   7.989  0.8211 -0.0010 -0.2451
   79MOL0     N10580   4.530   8.306   7.820 -0.2123 -1.5526 -0.1671
   79MOL0     N10581   4.408   8.264   7.824 -0.3229  0.1856  0.8760
   79MOL0     C10582   3.684   7.471   7.451 -0.3319 -0.3066  0.2383
   79MOL0     C10583   3.550   7.449   7.420 -0.1033  0.3472  0.0890
   79MOL0     C10584   3.106   7.414   7.433  0.3359 -0.2686 -0.7016
   79MOL0     C10585   3.060   7.477   7.313 -0.1566 -0.8204 -0.3636
   79MOL0     C10586   2.924   7.471   7.275  0.4934 -0.5978 -0.6600
   79MOL0     C10587   2.837   7.404   7.349  0.0433  0.5307 -0.1902
   79MOL0     O10588   2.709   7.409   7.324  0.9744  0.7297  0.0952
   79MOL0     C10589   2.616   7.298   7.338  0.6047 -0.0421  0.3287
   79MOL0     C10590   2.649   7.182   7.233  0.4751 -0.0163  0.4792
   79MOL0     C10591   2.602   7.214   7.087  0.9224 -0.6582 -0.2794
   79MOL0     C10592   2.626   7.110   6.980 -0.2897 -0.5913 -0.1363
   79MOL0     C10593   2.574   6.975   7.015 -0.7947  0.4314 -0.1007
   79MOL0     C10594   2.533   6.858   7.039 -0.1474  0.1019 -0.4455
   79MOL0     C10595   2.876   7.333   7.468 -0.1666 -0.3199 -0.1613
   79MOL0     C10596   3.006   7.349   7.518  0.3341  0.2146 -0.0505
   79MOL0     C10597   3.039   7.305   7.658  0.0318 -0.1664  0.3207
   79MOL0     H10598   3.430   7.750   7.485  1.2502  1.2862  0.6311
   79MOL0     H10599   3.665   7.792   7.551  1.6834  1.6626 -3.7185
   79MOL0     H10600   3.880   7.759   7.699 -0.1919  0.2507  1.4952
   79MOL0     H10601   3.783   7.613   7.753  1.5990 -2.2414  0.2493
   79MOL0     H10602   4.061   7.592   7.657  0.1415 -0.9497 -0.1626
   79MOL0     H10603   3.962   7.479   7.732  1.2765 -0.0281 -0.3383
   79MOL0     H10604   4.111   7.541   7.897 -3.1167 -3.6019 -3.4918
   79MOL0     H10605   3.977   7.636   7.958  0.7637  1.3930 -0.1936
   79MOL0     H10606   4.189   7.778   7.789  1.3838 -1.0552  0.3522
   79MOL0     H10607   4.035   7.835   7.835  1.7947  0.3596 -1.5788
   79MOL0     H10608   4.083   7.815   8.066  0.8621 -0.8413  2.0622
   79MOL0     H10609   4.235   7.731   8.048 -1.2115 -0.5016  0.5162
   79MOL0     H10610   4.293   7.938   8.105  0.4582 -2.6134 -0.2127
   79MOL0     H10611   4.335   7.942   7.931  1.2434 -0.5336  1.3343
   79MOL0     H10612   4.087   8.073   8.020 -0.4407 -0.8753 -0.8399
   79MOL0     H10613   4.156   8.063   7.861  1.8802  0.7748 -1.3811
   79MOL0     H10614   4.204   8.290   7.999 -1.0519 -0.9263  2.3964
   79MOL0     H10615   4.273   8.187   8.121  0.1214  0.3766  0.9836
   79MOL0     H10616   4.522   8.162   8.112  0.5505  1.2482  0.0878
   79MOL0     H10617   4.795   8.202   7.977 -2.2078 -2.6901 -1.2626
   79MOL0     H10618   4.781   8.304   7.829  0.4249 -1.7193 -0.0109
   79MOL0     H10619   4.733   8.501   7.982  2.9398 -0.8445 -1.1884
   79MOL0     H10620   4.751   8.387   8.122 -1.5061 -1.2611  0.3743
   79MOL0     H10621   4.961   8.438   7.892 -4.1669 -0.3288 -0.8119
   79MOL0     H10622   4.982   8.349   8.040  2.7528  0.4185 -1.3688
   79MOL0     H10623   4.985   8.553   8.168 -2.9220 -1.1534  0.8386
   79MOL0     H10624   4.931   8.640   8.032  0.1837 -0.0602  2.1091
   79MOL0     H10625   5.091   8.780   8.193  0.7157 -2.0819  1.5154
   79MOL0     H10626   5.259   8.918   8.278 -0.6248 -3.4800  2.1145
   79MOL0     H10627   5.706   9.081   8.347  0.2256  2.6422 -0.0338
   79MOL0     H10628   5.905   9.199   8.384  2.6110 -0.6619  0.2084
   79MOL0     H10629   6.267   9.214   8.368  1.6984 -2.6829 -0.2485
   79MOL0     H10630   6.103   9.184   8.425  0.5784  1.6109  0.2905
   79MOL0     H10631   6.274   9.002   8.444  1.7039 -0.0636 -0.7628
   79MOL0     H10632   6.134   8.960   8.340 -0.0560  0.0809 -1.6718
   79MOL0     H10633   6.332   8.861   8.240  3.1402  0.5580  3.5085
   79MOL0     H10634   6.244   8.977   8.144  1.1240 -1.4751 -0.8606
   79MOL0     H10635   6.482   9.065   8.327 -0.0101  1.1357 -0.1453
   79MOL0     H10636   6.411   9.160   8.201 -0.8530 -0.1619 -2.5094
   79MOL0     H10637   6.499   9.022   8.032  1.0033 -1.2123  0.5836
   79MOL0     H10638   6.549   8.894   8.152  0.3802 -0.1868  3.7635
   79MOL0     H10639   6.672   9.183   8.167 -1.8662  0.6604 -0.3521
   79MOL0     H10640   6.713   9.039   8.248  1.6743  3.4108  1.1912
   79MOL0     H10641   6.726   9.030   7.956 -0.7826  2.7305  0.4172
   79MOL0     H10642   6.786   8.909   8.065  4.2711  0.4404 -2.2976
   79MOL0     H10643   6.972   9.074   7.994  0.2045 -0.2062 -0.1002
   79MOL0     H10644   6.895   9.195   8.102 -1.4338 -0.6368 -0.4619
   79MOL0     H10645   6.053   9.081   8.000 -1.0974 -5.0347  0.6332
   79MOL0     H10646   5.852   8.965   7.955 -0.7560  0.6270 -0.3559
   79MOL0     H10647   5.524   8.756   7.971  0.3821  0.7417 -1.6320
   79MOL0     H10648   5.373   8.590   7.915  0.6549 -1.1841  0.7841
   79MOL0     H10649   3.755   7.394   7.423 -1.3114 -0.8606 -0.8285
   79MOL0     H10650   3.528   7.353   7.376 -2.6205  0.9270 -0.1022
   79MOL0     H10651   3.139   7.534   7.265  2.5366 -2.7403  1.5215
   79MOL0     H10652   2.897   7.520   7.182  1.5669  2.4216  0.5124
   79MOL0     H10653   2.519   7.339   7.308  2.3820  3.1253 -1.5781
   79MOL0     H10654   2.613   7.263   7.441 -0.7155 -1.4433 -0.1450
   79MOL0     H10655   2.596   7.091   7.265 -0.6480  0.4025 -0.1431
   79MOL0     H10656   2.755   7.154   7.232  0.6743  0.3371  3.0647
   79MOL0     H10657   2.654   7.308   7.070  2.6311 -1.6491 -0.7747
   79MOL0     H10658   2.494   7.231   7.087  1.1910  1.3611  0.7473
   79MOL0     H10659   2.586   7.144   6.884 -1.5991  2.5105  1.3896
   79MOL0     H10660   2.735   7.108   6.975 -0.2100  0.4597  0.8536
   79MOL0     H10661   2.490   6.769   7.079 -0.8648  1.5300  2.2006
   79MOL0     H10662   2.805   7.275   7.526 -0.6159 -0.8757 -1.2260
   79MOL0     H10663   3.074   7.394   7.711  0.7649  0.4233 -1.0992
   79MOL0     H10664   2.954   7.254   7.704  0.9989  0.1014  2.5456
   79MOL0     H10665   3.111   7.222   7.655  2.6796  1.4327  6.0729
   80MOL0     O10666   8.993   2.105   7.482  0.3993 -0.2023  0.2926
   80MOL0     C10667   8.906   2.069   7.561 -0.7600  0.1560  0.0984
   80MOL0     O10668   8.926   2.063   7.699  0.4010  0.8012 -0.6469
   80MOL0     C10669   9.040   2.019   7.753 -0.0897  0.0572  0.2722
   80MOL0     C10670   9.139   1.934   7.686 -0.3861 -0.9998 -0.5328
   80MOL0     C10671   9.260   1.898   7.751 -1.2613  0.3795  0.2471
   80MOL0     C10672   9.284   1.938   7.883 -1.5655  0.3614  0.5577
   80MOL0     O10673   9.395   1.902   7.956 -0.5876  0.3710 -0.3325
   80MOL0     C10674   9.521   1.902   7.887 -0.1923  0.0635  0.1560
   80MOL0     C10675   9.616   1.894   8.001 -0.2363  0.1889  0.0832
   80MOL0     C10676   9.759   1.932   7.958  0.6270 -0.4140  0.5940
   80MOL0     C10677   9.845   1.981   8.080  0.6449 -0.0128 -0.2794
   80MOL0     C10678   9.994   1.970   8.043  0.3316  0.1011  0.7801
   80MOL0     C10679  10.094   1.980   8.164 -0.2127  0.4905 -0.2657
   80MOL0     C10680  10.240   1.983   8.120 -0.1950 -0.9001  0.7067
   80MOL0     C10681  10.286   1.848   8.071 -0.2011  0.1803  0.7825
   80MOL0     N10682  10.430   1.827   8.050 -0.1180 -0.7408  0.5190
   80MOL0     C10683  10.497   1.837   7.931 -0.1776 -0.3424 -0.0551
   80MOL0     C10684  10.627   1.810   7.958  0.0187 -0.2196 -0.4371
   80MOL0     C10685  10.743   1.807   7.854 -0.1216 -0.4274  0.1904
   80MOL0     C10686  10.763   1.677   7.784  0.5997  0.8180 -0.1097
   80MOL0     C10687  10.860   1.673   7.665  0.7085 -0.7578 -0.5002
   80MOL0     C10688  11.004   1.681   7.691 -0.1957 -0.0387 -0.7010
   80MOL0     O10689  11.043   1.567   7.765  0.2588 -0.2634 -0.0638
   80MOL0     C10690  11.176   1.546   7.783  0.1436  0.0216 -1.2025
   80MOL0     C10691  11.282   1.632   7.749  0.4348 -0.2709  0.1797
   80MOL0     C10692  11.413   1.607   7.777  1.0802  0.0769  0.3823
   80MOL0     C10693  11.448   1.492   7.851 -0.4456 -0.5209 -0.2330
   80MOL0     C10694  11.589   1.466   7.897  0.6792 -0.0953  0.6925
   80MOL0     O10695  11.613   1.374   7.990  0.5811 -0.0060 -0.2225
   80MOL0     C10696  11.743   1.348   8.036 -0.0126 -0.1847  0.0710
   80MOL0     C10697  11.743   1.257   8.138  0.1423  0.4567  0.5989
   80MOL0     C10698  11.864   1.206   8.186  0.0282  0.4993  0.3071
   80MOL0     C10699  11.988   1.251   8.150  0.4899  0.5969  0.5757
   80MOL0     O10700  12.106   1.217   8.219  0.5193  0.2706  0.1442
   80MOL0     C10701  12.218   1.306   8.181  0.1326 -0.1193 -0.2620
   80MOL0     C10702  12.335   1.285   8.273 -0.5496 -0.5993 -0.3562
   80MOL0     C10703  12.449   1.221   8.196  0.6278  0.1821 -0.2719
   80MOL0     C10704  12.585   1.247   8.254  0.5329  0.2331  0.4249
   80MOL0     C10705  12.689   1.144   8.227  0.1823 -0.2634 -0.1737
   80MOL0     C10706  12.735   1.128   8.090  0.4530  0.0761 -0.6378
   80MOL0     C10707  12.782   0.985   8.051  0.3112 -0.2192 -0.6249
   80MOL0     C10708  12.729   0.952   7.906  0.0536 -0.7334 -0.5305
   80MOL0    Cl10709  12.746   0.784   7.842  0.4492 -0.1663 -0.2252
   80MOL0     C10710  11.987   1.345   8.041  0.1125  0.3959 -0.3666
   80MOL0     C10711  11.869   1.386   7.977  0.1415 -0.4182 -0.0650
   80MOL0     O10712  11.671   1.537   7.838 -0.0478 -0.2793  0.3751
   80MOL0     C10713  11.345   1.405   7.887 -1.1471 -0.1852 -0.1457
   80MOL0     C10714  11.216   1.429   7.850  0.1042 -0.3450  0.5116
   80MOL0     N10715  10.638   1.768   8.087  0.1160 -0.8258 -0.4173
   80MOL0     N10716  10.516   1.772   8.137  0.0495  0.1661 -0.1343
   80MOL0     C10717   9.183   2.003   7.949  0.8994 -0.2827 -0.2452
   80MOL0     C10718   9.058   2.043   7.890  0.1651 -0.1527  0.4834
   80MOL0     C10719   8.770   2.045   7.510 -0.1525 -0.2307 -0.6195
   80MOL0     C10720   8.677   1.999   7.608 -0.3249 -0.1521  0.1472
   80MOL0     C10721   8.551   1.955   7.575 -0.4824  0.6751  0.0697
   80MOL0     C10722   8.507   1.956   7.445  0.3836 -0.1497 -0.3377
   80MOL0     O10723   8.372   1.913   7.426  0.1656 -0.3272 -0.0844
   80MOL0     C10724   8.317   1.948   7.293 -0.2368 -0.8387 -0.1965
   80MOL0     C10725   8.165   1.958   7.316 -0.0124 -0.1563  0.7056
   80MOL0     C10726   8.116   1.809   7.326 -0.3066 -0.0626 -0.0983
   80MOL0     C10727   7.982   1.779   7.249  0.5799  0.1829 -0.0612
   80MOL0     C10728   7.874   1.871   7.291  0.1669  0.1940  1.0268
   80MOL0     C10729   7.802   1.962   7.326  0.0442  0.0237  0.3388
   80MOL0     C10730   8.594   2.010   7.345 -0.6931 -0.4169 -0.4313
   80MOL0     C10731   8.724   2.048   7.377  0.8045  0.0701  0.3708
   80MOL0     C10732   8.808   2.098   7.257  0.6614  0.2236 -0.9258
   80MOL0     H10733   9.122   1.921   7.580 -0.7000  3.0006 -1.1222
   80MOL0     H10734   9.335   1.844   7.694 -1.1914  0.3210  0.3941
   80MOL0     H10735   9.535   1.816   7.820  1.4234  0.0008  0.5264
   80MOL0     H10736   9.541   1.996   7.833  0.2544 -1.9398 -3.5232
   80MOL0     H10737   9.618   1.794   8.045  0.9539 -1.1258 -2.6972
   80MOL0     H10738   9.583   1.962   8.080  0.9178 -0.5330  1.2285
   80MOL0     H10739   9.766   2.018   7.891 -0.1555 -0.5607  0.3147
   80MOL0     H10740   9.808   1.846   7.910 -0.3317  0.1483 -1.4967
   80MOL0     H10741   9.815   2.078   8.119  2.5929 -0.4297  2.6030
   80MOL0     H10742   9.827   1.909   8.161 -0.7507  0.4119 -0.1944
   80MOL0     H10743  10.009   1.870   8.001 -0.5818  0.2816 -0.0174
   80MOL0     H10744  10.023   2.047   7.972 -0.7453 -0.2076 -0.0182
   80MOL0     H10745  10.066   2.066   8.226  1.4238 -1.7756  4.0020
   80MOL0     H10746  10.074   1.904   8.240 -1.5594  0.8795 -0.2046
   80MOL0     H10747  10.296   2.017   8.208  0.9275  2.0154 -0.9932
   80MOL0     H10748  10.262   2.054   8.040  0.0980 -0.3357  1.2811
   80MOL0     H10749  10.264   1.774   8.149  2.9111  0.2434  1.8710
   80MOL0     H10750  10.235   1.815   7.980  1.4393  2.3523 -1.0256
   80MOL0     H10751  10.461   1.871   7.834  1.1383  1.4484  0.0287
   80MOL0     H10752  10.723   1.891   7.787  0.3534 -1.1273 -0.8575
   80MOL0     H10753  10.836   1.823   7.910 -0.1480  1.9031 -0.3341
   80MOL0     H10754  10.812   1.610   7.855  1.3961  1.5214  0.0186
   80MOL0     H10755  10.670   1.629   7.753  0.5581 -0.4574  1.8596
   80MOL0     H10756  10.847   1.747   7.586  0.8777 -1.2426 -0.9896
   80MOL0     H10757  10.828   1.580   7.617  1.9436 -1.2761 -0.3657
   80MOL0     H10758  11.012   1.775   7.746 -0.0133 -1.1637  1.2895
   80MOL0     H10759  11.053   1.680   7.593 -1.3685 -0.8969 -1.2895
   80MOL0     H10760  11.264   1.726   7.696  2.1879  1.0977  1.8897
   80MOL0     H10761  11.495   1.677   7.762 -0.9775  3.7764  4.3298
   80MOL0     H10762  11.660   1.201   8.182  0.3212 -1.5154 -1.3971
   80MOL0     H10763  11.852   1.126   8.259 -0.7344 -1.1826 -1.5481
   80MOL0     H10764  12.250   1.281   8.079 -0.4547  0.0839 -0.4997
   80MOL0     H10765  12.188   1.411   8.189 -0.5917 -0.2715 -0.9027
   80MOL0     H10766  12.372   1.383   8.303 -0.8882 -1.1432  2.0167
   80MOL0     H10767  12.317   1.231   8.366  2.4918 -0.0533  0.6336
   80MOL0     H10768  12.424   1.115   8.192 -2.0052  0.7244 -0.0795
   80MOL0     H10769  12.468   1.255   8.094  1.0317 -0.6822 -0.4861
   80MOL0     H10770  12.577   1.245   8.363  1.5773 -0.3051  0.5023
   80MOL0     H10771  12.622   1.346   8.226  0.6108  0.5156  1.4705
   80MOL0     H10772  12.648   1.051   8.269 -0.6765  1.3873  2.9157
   80MOL0     H10773  12.772   1.173   8.291 -0.2499  0.4250  0.0809
   80MOL0     H10774  12.647   1.142   8.027 -0.7137 -2.2970  0.3637
   80MOL0     H10775  12.817   1.199   8.076  2.0477 -0.5947  3.6599
   80MOL0     H10776  12.742   0.912   8.122 -0.3867  0.4385 -0.3249
   80MOL0     H10777  12.890   0.977   8.065  0.4920  2.5972  0.3749
   80MOL0     H10778  12.620   0.957   7.913  0.2449  0.7224  2.9948
   80MOL0     H10779  12.761   1.032   7.839 -2.5952 -0.2424 -1.3149
   80MOL0     H10780  12.076   1.383   7.991  1.6532 -1.0107  1.2024
   80MOL0     H10781  11.877   1.452   7.891  1.5887 -3.1581 -2.1592
   80MOL0     H10782  11.355   1.318   7.951  3.0390 -0.4783 -0.9043
   80MOL0     H10783  11.133   1.363   7.870 -3.8943  2.6172 -4.0104
   80MOL0     H10784   9.200   2.041   8.050 -1.3177 -0.2225  0.1598
   80MOL0     H10785   8.982   2.109   7.929  0.5426 -0.1709  1.2702
   80MOL0     H10786   8.697   1.979   7.713 -0.7930  0.9312  0.4507
   80MOL0     H10787   8.494   1.913   7.657  1.2767  0.5585  1.3023
   80MOL0     H10788   8.340   1.869   7.221 -0.0501 -1.6728  0.7607
   80MOL0     H10789   8.361   2.042   7.257  0.5609 -0.7269  1.0143
   80MOL0     H10790   8.115   2.008   7.233 -0.3744 -2.2830 -0.4257
   80MOL0     H10791   8.145   1.998   7.416 -1.2078  0.0925  0.3731
   80MOL0     H10792   8.104   1.786   7.432  1.7431  1.4753  0.5276
   80MOL0     H10793   8.184   1.730   7.293 -0.1732  0.2466 -0.5717
   80MOL0     H10794   7.999   1.776   7.141  0.2930  2.1063 -0.2051
   80MOL0     H10795   7.952   1.678   7.278  0.4851  0.3082  0.2824
   80MOL0     H10796   7.733   2.042   7.345 -0.2997  0.5749 -2.7174
   80MOL0     H10797   8.567   2.012   7.239 -0.8817 -2.2904 -0.4516
   80MOL0     H10798   8.892   2.032   7.236 -0.1963 -1.2455  0.0838
   80MOL0     H10799   8.739   2.122   7.176 -3.7063 -3.1861  1.3481
   80MOL0     H10800   8.842   2.198   7.286 -0.4803  0.3208  0.1881
   81MOL0     O10801   1.493  10.666  10.342  0.4020  0.4996  0.5527
   81MOL0     C10802   1.393  10.731  10.351 -0.0907  0.9792 -0.0487
   81MOL0     O10803   1.393  10.871  10.349  0.2759 -0.2278  0.0294
   81MOL0     C10804   1.495  10.941  10.294 -0.1268 -0.5762  0.5360
   81MOL0     C10805   1.631  10.945  10.343 -0.2510  0.1239  0.3490
   81MOL0     C10806   1.719  11.040  10.293 -0.2037 -0.5376 -0.5949
   81MOL0     C10807   1.675  11.136  10.197  0.1401  0.6603  0.6739
   81MOL0     O10808   1.749  11.235  10.146 -0.2361  0.4975  0.2388
   81MOL0     C10809   1.830  11.184  10.039 -0.9704  0.0067  0.4702
   81MOL0     C10810   1.903  11.298   9.980 -0.6171 -0.0202  0.3456
   81MOL0     C10811   2.027  11.269   9.888 -0.8573 -0.1568  0.3982
   81MOL0     C10812   2.156  11.235   9.971  0.8895 -0.1276 -0.8865
   81MOL0     C10813   2.272  11.234   9.873 -0.7027  0.2258  0.0927
   81MOL0     C10814   2.401  11.182   9.957  0.4057 -0.4557  0.1863
   81MOL0     C10815   2.536  11.168   9.876 -0.2853 -0.2284 -0.2357
   81MOL0     C10816   2.599  11.305   9.864 -0.0927 -0.1284 -0.0107
   81MOL0     N10817   2.710  11.296   9.775  0.4863 -0.0119 -0.3355
   81MOL0     C10818   2.724  11.310   9.637  0.1580  0.2324 -0.3678
   81MOL0     C10819   2.861  11.301   9.626 -0.1168  0.2878  0.8559
   81MOL0     C10820   2.929  11.322   9.489 -0.3080  1.0286  0.5967
   81MOL0     C10821   2.907  11.212   9.388 -0.2687 -0.1583  0.0951
   81MOL0     C10822   2.917  11.272   9.249  0.0485 -0.1412 -0.0265
   81MOL0     C10823   3.058  11.308   9.215  0.0563  0.0591 -0.2466
   81MOL0     O10824   3.068  11.365   9.085  0.6530 -0.2112 -0.3551
   81MOL0     C10825   3.187  11.368   9.029 -0.1525  0.2967 -0.0816
   81MOL0     C10826   3.311  11.400   9.086 -0.0588  0.9982  0.0646
   81MOL0     C10827   3.426  11.399   9.002 -0.1075  0.3424 -1.0454
   81MOL0     C10828   3.426  11.379   8.861  0.4033 -0.9702 -0.5157
   81MOL0     C10829   3.551  11.372   8.772  0.4014 -1.8101  0.7970
   81MOL0     O10830   3.525  11.390   8.642 -0.6052  0.5442  0.6736
   81MOL0     C10831   3.627  11.383   8.532  0.9369  0.0236  0.2454
   81MOL0     C10832   3.732  11.292   8.533 -0.6137  0.2961  0.2313
   81MOL0     C10833   3.803  11.268   8.414 -0.2307  0.6348  0.4387
   81MOL0     C10834   3.779  11.334   8.288  0.3650 -0.3369 -0.1735
   81MOL0     O10835   3.829  11.306   8.168 -0.8879  0.5027  0.2509
   81MOL0     C10836   3.821  11.165   8.140  0.2452 -0.0565  0.2361
   81MOL0     C10837   3.832  11.116   7.990  0.1630  0.4605 -1.0663
   81MOL0     C10838   3.957  11.163   7.918  0.4857 -0.6467 -0.8005
   81MOL0     C10839   4.005  11.081   7.804  0.1329 -0.1437 -0.2567
   81MOL0     C10840   4.061  10.948   7.843  0.5514  0.4269  0.0089
   81MOL0     C10841   4.195  10.958   7.919 -0.0983  0.1784  0.7067
   81MOL0     C10842   4.271  10.821   7.900 -1.0419  0.5068  0.8527
   81MOL0     C10843   4.410  10.836   7.959 -1.1638  0.3520  0.9254
   81MOL0    Cl10844   4.523  10.926   7.856  0.0666  0.1294  0.6141
   81MOL0     C10845   3.689  11.438   8.302  0.0385  0.3878  0.3822
   81MOL0     C10846   3.612  11.470   8.417  0.6329  0.3197 -0.0827
   81MOL0     O10847   3.664  11.373   8.818  0.1385 -0.3037 -0.4334
   81MOL0     C10848   3.294  11.375   8.809 -0.0369 -0.2005  0.4905
   81MOL0     C10849   3.182  11.364   8.888 -0.0119 -0.1868 -0.0212
   81MOL0     N10850   2.918  11.261   9.740  0.6196 -0.4249  0.3884
   81MOL0     N10851   2.829  11.258   9.823 -0.0555  0.5206  1.3047
   81MOL0     C10852   1.545  11.137  10.154 -0.3140 -1.0681 -0.6391
   81MOL0     C10853   1.456  11.036  10.192 -0.5600 -0.8029  0.2388
   81MOL0     C10854   1.256  10.667  10.355 -0.2827 -0.1202 -0.2682
   81MOL0     C10855   1.150  10.737  10.404  0.3747 -0.0623  0.9226
   81MOL0     C10856   1.022  10.685  10.412 -1.0271 -0.5905  0.8418
   81MOL0     C10857   1.004  10.552  10.375  1.9775  0.1401  0.0921
   81MOL0     O10858   0.876  10.487  10.387 -0.2259 -0.1741 -0.0288
   81MOL0     C10859   0.763  10.565  10.418  0.8000 -0.2927  0.1781
   81MOL0     C10860   0.627  10.490  10.407 -0.5703 -1.0615  0.6625
   81MOL0     C10861   0.515  10.596  10.422 -0.2667 -0.0401 -0.8247
   81MOL0     C10862   0.468  10.611  10.568 -0.1965 -0.0892  0.1703
   81MOL0     C10863   0.380  10.724  10.570 -0.4599 -0.1423 -0.0016
   81MOL0     C10864   0.304  10.816  10.582 -0.7598 -0.0823 -0.5460
   81MOL0     C10865   1.109  10.472  10.344 -0.2240  0.3436  0.4072
   81MOL0     C10866   1.235  10.532  10.329  0.2244  0.4911 -0.1699
   81MOL0     C10867   1.338  10.445  10.279 -0.2004  0.2353  0.2359
   81MOL0     H10868   1.661  10.867  10.413  2.3328  1.6732  1.0842
   81MOL0     H10869   1.816  11.041  10.341 -0.2673  0.1093 -0.4606
   81MOL0     H10870   1.893  11.103  10.077 -1.5786 -1.2883 -1.1836
   81MOL0     H10871   1.769  11.130   9.966  2.1154 -0.4733 -1.9400
   81MOL0     H10872   1.936  11.361  10.063  2.5146 -1.1795  0.0999
   81MOL0     H10873   1.829  11.353   9.919  1.2606  0.5230 -1.5673
   81MOL0     H10874   2.051  11.359   9.831 -0.4691 -0.5051  0.0103
   81MOL0     H10875   1.999  11.189   9.819 -2.3245 -0.5793  1.4324
   81MOL0     H10876   2.176  11.307  10.051  1.6760  3.0397 -3.7042
   81MOL0     H10877   2.139  11.139  10.021  1.6064  0.3414  0.2970
   81MOL0     H10878   2.261  11.158   9.795 -0.0456 -1.0694  1.2342
   81MOL0     H10879   2.289  11.335   9.834  0.6767  2.2557  5.1925
   81MOL0     H10880   2.422  11.262  10.028  0.1524  0.3229 -0.6020
   81MOL0     H10881   2.381  11.090  10.012  1.1177 -0.2433  0.8201
   81MOL0     H10882   2.524  11.130   9.774 -0.1671 -1.8192  0.3173
   81MOL0     H10883   2.602  11.095   9.924  0.3045 -1.0464 -2.1729
   81MOL0     H10884   2.542  11.393   9.831  1.4388  0.8791 -0.0586
   81MOL0     H10885   2.631  11.347   9.960 -1.9314  3.8017 -0.8997
   81MOL0     H10886   2.653  11.326   9.557  0.8399 -0.2820 -1.0900
   81MOL0     H10887   2.887  11.419   9.461  0.5401  1.2419  0.0476
   81MOL0     H10888   3.036  11.318   9.509  0.1495 -0.4086 -1.7815
   81MOL0     H10889   2.982  11.133   9.393 -0.8267 -0.7213 -0.1919
   81MOL0     H10890   2.811  11.163   9.412 -0.7347 -2.3262 -4.8356
   81MOL0     H10891   2.844  11.354   9.253 -2.6803 -2.4336  0.7061
   81MOL0     H10892   2.882  11.204   9.170 -3.5794  2.3859 -0.8449
   81MOL0     H10893   3.125  11.222   9.208  1.8848  1.4828 -1.4088
   81MOL0     H10894   3.083  11.377   9.296 -5.4763  1.7562  0.4759
   81MOL0     H10895   3.324  11.414   9.193 -0.9701 -0.1243  0.3433
   81MOL0     H10896   3.524  11.407   9.049 -0.8998 -0.9236  0.9463
   81MOL0     H10897   3.770  11.227   8.611  3.8678  1.7409 -0.5080
   81MOL0     H10898   3.880  11.192   8.404 -1.1121 -0.0453 -1.8751
   81MOL0     H10899   3.907  11.126   8.195  0.1691 -1.0832 -0.3439
   81MOL0     H10900   3.728  11.118   8.172  0.0666 -1.1295 -1.6897
   81MOL0     H10901   3.831  11.007   7.996  0.8746  0.5139  0.2770
   81MOL0     H10902   3.751  11.160   7.931  0.6451  0.6170 -1.6267
   81MOL0     H10903   3.927  11.256   7.870  0.6538  1.2472  2.4483
   81MOL0     H10904   4.031  11.191   7.994 -2.7054 -0.0074  2.3114
   81MOL0     H10905   4.085  11.133   7.750 -0.5354  2.2732  0.9284
   81MOL0     H10906   3.922  11.065   7.735  1.4277  1.0598 -2.1794
   81MOL0     H10907   4.075  10.885   7.754  1.0274 -1.2140  1.1819
   81MOL0     H10908   3.988  10.895   7.905 -0.5222  2.2509  0.3556
   81MOL0     H10909   4.257  11.035   7.873  0.0576  0.0308  0.6732
   81MOL0     H10910   4.176  10.982   8.024 -0.8427  1.1358  0.3781
   81MOL0     H10911   4.282  10.800   7.793  1.4667  3.4724  0.3708
   81MOL0     H10912   4.217  10.739   7.947 -0.9125 -0.8734 -1.2979
   81MOL0     H10913   4.401  10.880   8.059 -0.4064  0.4611  0.9577
   81MOL0     H10914   4.445  10.733   7.971 -0.3740  0.2989 -1.3743
   81MOL0     H10915   3.666  11.499   8.214  0.5961 -1.7687 -1.3480
   81MOL0     H10916   3.530  11.541   8.426 -0.6231 -0.7808 -2.1144
   81MOL0     H10917   3.268  11.381   8.704 -1.3481 -0.0383  0.8057
   81MOL0     H10918   3.089  11.349   8.834 -0.5199  2.0290  0.1242
   81MOL0     H10919   1.517  11.224  10.095  2.2163  1.3377  1.5204
   81MOL0     H10920   1.351  11.042  10.166 -0.2972 -1.6324 -1.1278
   81MOL0     H10921   1.168  10.841  10.430  2.6920 -0.1371 -0.1392
   81MOL0     H10922   0.948  10.758  10.443  1.1395  3.3167 -2.2651
   81MOL0     H10923   0.762  10.661  10.366  0.5278  0.8649  2.2061
   81MOL0     H10924   0.771  10.601  10.521  0.0100  0.7003 -0.0853
   81MOL0     H10925   0.636  10.424  10.495  1.5764  2.1021  3.0384
   81MOL0     H10926   0.622  10.443  10.309 -1.2519 -1.6676  0.9786
   81MOL0     H10927   0.429  10.568  10.360  2.4642 -2.2211 -3.9158
   81MOL0     H10928   0.546  10.694  10.384  0.5197 -0.7421 -2.0706
   81MOL0     H10929   0.413  10.519  10.588  2.0711 -1.1809  1.7148
   81MOL0     H10930   0.550  10.634  10.636 -1.1014  0.7359  1.0147
   81MOL0     H10931   0.230  10.889  10.607 -0.2617  0.0164  0.6893
   81MOL0     H10932   1.086  10.369  10.316 -0.6811  0.7153 -0.6363
   81MOL0     H10933   1.376  10.472  10.180 -1.7480 -1.0797 -0.7693
   81MOL0     H10934   1.408  10.431  10.362 -0.4264  0.7010  0.5073
   81MOL0     H10935   1.294  10.348  10.253  0.4963  0.6572 -2.9695
   82MOL0     O10936   8.951   1.458  10.032  0.4692  0.1438 -0.1689
   82MOL0     C10937   8.939   1.502  10.147 -0.1761  1.0056 -0.1008
   82MOL0     O10938   9.050   1.535  10.229 -0.3364  0.5288 -0.6809
   82MOL0     C10939   9.177   1.505  10.192 -0.5464  0.4105  0.5413
   82MOL0     C10940   9.268   1.452  10.282 -0.4743 -0.0588  0.6412
   82MOL0     C10941   9.404   1.424  10.239  0.4261 -0.0960  0.0773
   82MOL0     C10942   9.463   1.465  10.122  0.4626  0.3958  0.8109
   82MOL0     O10943   9.598   1.446  10.098  0.1203 -0.6665  0.6364
   82MOL0     C10944   9.656   1.498   9.972  0.0988 -0.2162 -0.4670
   82MOL0     C10945   9.806   1.533   9.996  0.6285 -0.0388 -0.7215
   82MOL0     C10946   9.827   1.655  10.078  0.5719 -0.6216 -0.2088
   82MOL0     C10947   9.758   1.661  10.222  0.3608 -1.0609  0.6590
   82MOL0     C10948   9.841   1.756  10.317 -0.4396  0.5877  1.3622
   82MOL0     C10949   9.862   1.898  10.265  0.2053  0.8324  0.1973
   82MOL0     C10950   9.939   1.975  10.365  0.1095 -0.8645 -0.1974
   82MOL0     C10951   9.914   2.123  10.369  0.0587  0.6465  0.4262
   82MOL0     N10952   9.779   2.165  10.408  0.3744  0.2263 -0.0387
   82MOL0     C10953   9.700   2.099  10.505  0.1947  0.2561 -0.1375
   82MOL0     C10954   9.579   2.152  10.485 -0.3190  0.1138 -0.2929
   82MOL0     C10955   9.458   2.138  10.575  0.2521 -0.4641  0.1186
   82MOL0     C10956   9.493   2.205  10.713 -0.1132  0.3306 -0.2429
   82MOL0     C10957   9.383   2.179  10.828 -0.0154  0.3723  0.8472
   82MOL0     C10958   9.238   2.209  10.781  0.1635 -0.4159 -0.8128
   82MOL0     O10959   9.149   2.200  10.894  0.0238  0.6191  0.0200
   82MOL0     C10960   9.023   2.245  10.887  0.3281  1.0575 -0.0031
   82MOL0     C10961   8.934   2.265  10.996  0.4157  0.3604 -0.1540
   82MOL0     C10962   8.800   2.303  10.983  0.0234 -0.3989 -0.3572
   82MOL0     C10963   8.746   2.334  10.858  0.0425 -0.2796 -0.8876
   82MOL0     C10964   8.611   2.381  10.845  0.0711  0.8723  0.2457
   82MOL0     O10965   8.521   2.388  10.955 -0.3369  0.3238 -0.2174
   82MOL0     C10966   8.389   2.424  10.943 -0.0216 -1.0900  0.0279
   82MOL0     C10967   8.358   2.554  10.907 -0.3132  0.3176 -0.1006
   82MOL0     C10968   8.225   2.588  10.881 -0.1058  0.6460 -0.5686
   82MOL0     C10969   8.126   2.483  10.885 -0.0696 -0.6015  1.4177
   82MOL0     O10970   8.005   2.488  10.832  0.7540  0.3475 -0.0429
   82MOL0     C10971   7.962   2.597  10.755  0.1547 -0.4500 -0.4258
   82MOL0     C10972   7.813   2.609  10.717 -0.3231 -0.3609  1.4354
   82MOL0     C10973   7.733   2.610  10.839 -0.8868 -0.5706  0.0586
   82MOL0     C10974   7.591   2.640  10.802  0.1886  0.4232  0.1566
   82MOL0     C10975   7.537   2.752  10.893 -0.6090 -0.7886 -0.1001
   82MOL0     C10976   7.407   2.805  10.824 -0.6700  0.0365  0.9475
   82MOL0     C10977   7.328   2.916  10.901 -0.2109  0.6491  0.1405
   82MOL0     C10978   7.220   2.985  10.809 -0.0130 -0.1396  0.2015
   82MOL0    Cl10979   7.097   2.872  10.739  0.2521 -0.1937 -0.3104
   82MOL0     C10980   8.154   2.359  10.922 -0.0676 -0.0516 -0.9132
   82MOL0     C10981   8.285   2.336  10.962  0.2935 -0.2884  0.0120
   82MOL0     O10982   8.581   2.423  10.733  0.5717  1.0165 -0.5553
   82MOL0     C10983   8.832   2.332  10.745 -0.3047  0.3836 -0.0983
   82MOL0     C10984   8.966   2.284  10.763  0.2168 -0.8681  0.2217
   82MOL0     N10985   9.580   2.241  10.380 -0.4923 -0.3426  0.0477
   82MOL0     N10986   9.704   2.261  10.343 -0.0885 -0.2137 -0.4912
   82MOL0     C10987   9.371   1.522  10.036  0.0400  0.8361  0.7241
   82MOL0     C10988   9.238   1.530  10.059 -0.3922  0.0665 -0.1703
   82MOL0     C10989   8.806   1.539  10.195  0.4962 -0.1826 -0.0061
   82MOL0     C10990   8.800   1.604  10.318 -0.1383  0.5179 -0.5763
   82MOL0     C10991   8.676   1.638  10.374  0.4801 -0.2944 -0.5140
   82MOL0     C10992   8.551   1.603  10.317  0.1272  0.0975  0.1420
   82MOL0     O10993   8.428   1.648  10.358  0.0971 -0.1100 -0.1133
   82MOL0     C10994   8.417   1.759  10.442 -0.8498  0.6545 -0.1940
   82MOL0     C10995   8.417   1.722  10.597 -0.8123  0.4474 -0.3440
   82MOL0     C10996   8.299   1.630  10.616  0.0751 -0.0098 -0.6042
   82MOL0     C10997   8.309   1.574  10.763  0.4742 -0.1768  0.1115
   82MOL0     C10998   8.235   1.447  10.780  0.1894 -0.2098  0.7545
   82MOL0     C10999   8.172   1.354  10.815  0.1164  0.4875  0.8897
   82MOL0     C11000   8.560   1.529  10.200 -0.0528 -0.1970 -0.4937
   82MOL0     C11001   8.682   1.496  10.138  0.2687  0.1332 -0.1831
   82MOL0     C11002   8.658   1.420  10.014  0.0273 -0.1286  0.7340
   82MOL0     H11003   9.230   1.415  10.376  0.2162 -0.6271  0.7024
   82MOL0     H11004   9.459   1.363  10.310  1.0859 -0.5751 -0.8374
   82MOL0     H11005   9.642   1.412   9.906 -2.6541 -0.6728  0.5914
   82MOL0     H11006   9.616   1.591   9.929 -2.6408 -0.3777  1.4602
   82MOL0     H11007   9.869   1.545   9.907 -0.6569  0.2059 -1.6359
   82MOL0     H11008   9.852   1.448  10.048 -0.2605 -0.2105 -0.1935
   82MOL0     H11009   9.797   1.744  10.022 -0.4638 -1.3785 -0.8702
   82MOL0     H11010   9.931   1.667  10.109 -0.4292 -0.0383  3.4348
   82MOL0     H11011   9.658   1.701  10.206 -0.0476 -1.9319  0.9294
   82MOL0     H11012   9.763   1.572  10.286 -0.2436  0.6403  3.2002
   82MOL0     H11013   9.783   1.753  10.410 -0.1197 -3.4004  1.6338
   82MOL0     H11014   9.934   1.706  10.346 -0.7473 -1.0111 -0.2350
   82MOL0     H11015   9.922   1.900  10.173  1.4835  1.1974  1.0068
   82MOL0     H11016   9.764   1.940  10.242 -0.9349 -0.4598  2.4247
   82MOL0     H11017  10.039   1.980  10.322 -0.2954 -0.1225 -1.0706
   82MOL0     H11018   9.936   1.941  10.469 -1.7840 -3.2698 -0.9481
   82MOL0     H11019   9.987   2.168  10.437  0.3436  1.9875 -0.7247
   82MOL0     H11020   9.933   2.158  10.267 -1.1067  0.8962  0.2725
   82MOL0     H11021   9.734   2.034  10.585  0.2675  2.9420  2.1691
   82MOL0     H11022   9.366   2.171  10.526 -0.7525 -0.5773  1.8500
   82MOL0     H11023   9.449   2.029  10.587  1.6881 -0.6899 -0.5357
   82MOL0     H11024   9.588   2.182  10.761 -0.3185 -0.1588 -0.0716
   82MOL0     H11025   9.493   2.312  10.691 -2.3531 -0.2869 -4.2213
   82MOL0     H11026   9.415   2.236  10.916 -0.3053  0.3514  0.9674
   82MOL0     H11027   9.382   2.073  10.854  2.2584 -0.1589 -0.9121
   82MOL0     H11028   9.213   2.132  10.708 -0.9259 -1.7433  0.8844
   82MOL0     H11029   9.246   2.310  10.740 -1.8512 -0.2009 -0.7641
   82MOL0     H11030   8.974   2.252  11.096 -0.8147  0.5325  0.3791
   82MOL0     H11031   8.740   2.326  11.070  0.7273 -1.8122  0.5427
   82MOL0     H11032   8.438   2.628  10.910 -2.5710  2.9347  1.7854
   82MOL0     H11033   8.206   2.688  10.844 -2.9878  0.4575  0.1580
   82MOL0     H11034   7.991   2.690  10.806  0.7892 -0.4867 -0.7016
   82MOL0     H11035   8.009   2.585  10.657  2.7072 -1.6138  0.8427
   82MOL0     H11036   7.807   2.704  10.662 -1.3194 -2.0080 -1.5686
   82MOL0     H11037   7.792   2.523  10.654  1.4312 -1.6492  2.5302
   82MOL0     H11038   7.735   2.506  10.873  1.8266 -2.1238 -4.0511
   82MOL0     H11039   7.771   2.676  10.918 -0.0691  0.4038 -1.1203
   82MOL0     H11040   7.523   2.558  10.829  1.9099 -0.7669  1.0516
   82MOL0     H11041   7.588   2.648  10.693  0.6799 -0.8779  0.0383
   82MOL0     H11042   7.617   2.826  10.887 -0.7822 -0.6511 -0.8117
   82MOL0     H11043   7.513   2.717  10.994 -0.2036  2.1319  1.1127
   82MOL0     H11044   7.436   2.843  10.726 -1.1986  1.1734  1.2149
   82MOL0     H11045   7.342   2.718  10.806  0.2090 -0.1775 -1.6053
   82MOL0     H11046   7.399   2.985  10.946 -2.3206  2.3478  1.0773
   82MOL0     H11047   7.277   2.868  10.986 -0.1129  0.9383  0.3647
   82MOL0     H11048   7.163   3.057  10.869  0.2617  0.1492  0.1203
   82MOL0     H11049   7.273   3.038  10.729  2.5379  0.5674  2.2039
   82MOL0     H11050   8.079   2.281  10.922  0.7737 -0.8937 -0.3979
   82MOL0     H11051   8.307   2.233  10.989 -4.3541 -1.7743 -0.7878
   82MOL0     H11052   8.801   2.375  10.650 -1.8378 -0.6827 -0.1148
   82MOL0     H11053   9.034   2.277  10.680  0.5527 -1.0982  0.5144
   82MOL0     H11054   9.406   1.553   9.938 -2.1024  1.5311  0.1404
   82MOL0     H11055   9.178   1.562   9.974 -0.7347  0.6275  0.2812
   82MOL0     H11056   8.888   1.626  10.377 -2.8168 -1.6031  4.8338
   82MOL0     H11057   8.687   1.685  10.471 -4.1822 -1.6453  0.9295
   82MOL0     H11058   8.316   1.795  10.422 -1.1763 -0.7659 -1.2629
   82MOL0     H11059   8.500   1.826  10.418  2.1353 -3.3658 -2.4075
   82MOL0     H11060   8.409   1.809  10.663 -0.8509  0.6954 -0.6737
   82MOL0     H11061   8.509   1.682  10.641 -1.2478  2.2465  2.4807
   82MOL0     H11062   8.291   1.545  10.548  0.4120  0.2852 -1.0188
   82MOL0     H11063   8.203   1.679  10.601  0.7763  1.8540  0.5983
   82MOL0     H11064   8.410   1.570  10.804 -0.2220  1.4411  2.1320
   82MOL0     H11065   8.255   1.638  10.833  0.3498 -2.1230  1.8742
   82MOL0     H11066   8.111   1.270  10.839  0.6692  0.2925  1.6561
   82MOL0     H11067   8.463   1.492  10.167 -2.1150  1.0227  3.4607
   82MOL0     H11068   8.694   1.482   9.931  0.4307 -0.7588  0.4374
   82MOL0     H11069   8.719   1.329  10.014 -0.3283 -0.5506 -3.1951
   82MOL0     H11070   8.551   1.399  10.011 -1.2709  5.1198 -0.9976
   83MOL0     O11071   7.845   7.562   3.197 -0.3520 -1.4550  0.5713
   83MOL0     C11072   7.739   7.622   3.159 -0.4228 -1.1396  0.3859
   83MOL0     O11073   7.742   7.733   3.073 -0.3826  0.6294  0.0013
   83MOL0     C11074   7.869   7.773   3.032 -0.2206 -0.9270 -0.2595
   83MOL0     C11075   7.912   7.760   2.903  0.4179 -0.3567 -0.7079
   83MOL0     C11076   8.043   7.784   2.857 -0.0480 -0.2060  0.2902
   83MOL0     C11077   8.138   7.831   2.951 -0.0270 -0.2160  0.8274
   83MOL0     O11078   8.268   7.870   2.917 -0.3117 -0.0868 -1.0434
   83MOL0     C11079   8.293   7.888   2.777  0.2928 -0.2234  0.9817
   83MOL0     C11080   8.443   7.932   2.755 -0.0382 -0.3665  0.1719
   83MOL0     C11081   8.529   7.818   2.819 -0.3300 -0.6925 -0.8672
   83MOL0     C11082   8.674   7.863   2.806 -1.3093  0.9271 -0.0741
   83MOL0     C11083   8.761   7.743   2.827  0.0881 -0.0863 -0.2925
   83MOL0     C11084   8.915   7.781   2.819 -0.0552 -0.4913 -0.8212
   83MOL0     C11085   9.011   7.658   2.806 -0.0406 -0.1513  0.5976
   83MOL0     C11086   9.152   7.700   2.868 -0.6013 -0.2267  0.1130
   83MOL0     N11087   9.223   7.800   2.791  0.0682  0.0891  0.1533
   83MOL0     C11088   9.303   7.885   2.858 -0.3194  0.7076  0.5786
   83MOL0     C11089   9.399   7.908   2.760  0.5703  0.5538  0.0116
   83MOL0     C11090   9.503   8.013   2.795  0.3192 -0.2655  1.0534
   83MOL0     C11091   9.641   7.987   2.727  0.0714  0.6688  0.9662
   83MOL0     C11092   9.743   8.085   2.766  0.1865  0.3683 -0.4533
   83MOL0     C11093   9.882   8.037   2.708 -0.4896  0.1993  0.1125
   83MOL0     O11094   9.976   8.145   2.703 -0.2030 -0.2090 -0.4258
   83MOL0     C11095  10.108   8.120   2.730 -0.4688  0.1326  0.2361
   83MOL0     C11096  10.155   8.059   2.850  0.4893  0.1060  0.4611
   83MOL0     C11097  10.293   8.064   2.880  0.8604  0.7368  0.5395
   83MOL0     C11098  10.387   8.112   2.786 -1.0374 -0.2573  0.4019
   83MOL0     C11099  10.535   8.104   2.822 -0.1923 -0.2743  0.4100
   83MOL0     O11100  10.561   8.049   2.943 -0.4766  0.3014 -0.2704
   83MOL0     C11101  10.694   8.066   2.987  0.0300 -0.6815  0.2752
   83MOL0     C11102  10.711   8.163   3.082 -0.1872  0.1595  0.5146
   83MOL0     C11103  10.844   8.179   3.145  0.4526  0.3000  0.1310
   83MOL0     C11104  10.953   8.101   3.103 -0.1965  0.4067 -0.5117
   83MOL0     O11105  11.080   8.097   3.162  0.5058  0.5635  0.7250
   83MOL0     C11106  11.084   8.086   3.304 -0.7433 -0.1869 -0.5011
   83MOL0     C11107  11.225   8.122   3.350 -0.2474  0.1648 -0.0580
   83MOL0     C11108  11.329   8.030   3.276  0.5225 -0.6211  0.2485
   83MOL0     C11109  11.472   8.079   3.295  1.0185 -0.4857  0.4561
   83MOL0     C11110  11.568   8.030   3.182 -0.4897 -0.7652  0.4519
   83MOL0     C11111  11.642   7.904   3.229 -0.0401 -0.0094 -0.3607
   83MOL0     C11112  11.738   7.872   3.108  0.0490 -0.0249  0.7403
   83MOL0     C11113  11.845   7.774   3.157  0.3417 -1.0038 -0.3408
   83MOL0    Cl11114  11.964   7.737   3.018  0.4981  0.1337 -0.6779
   83MOL0     C11115  10.930   8.008   3.000  0.1996 -0.1443  0.0737
   83MOL0     C11116  10.804   7.991   2.946 -0.2095 -0.1293 -0.0995
   83MOL0     O11117  10.608   8.162   2.740 -0.0673  0.1433  0.1330
   83MOL0     C11118  10.338   8.157   2.659  0.1812  0.7537  1.0627
   83MOL0     C11119  10.200   8.168   2.639 -1.0298 -0.2657 -0.3390
   83MOL0     N11120   9.372   7.836   2.646 -0.5317  0.8443  0.5961
   83MOL0     N11121   9.263   7.782   2.663  0.0943  0.4490  0.4527
   83MOL0     C11122   8.096   7.833   3.083  0.5033 -0.5592 -0.3152
   83MOL0     C11123   7.965   7.819   3.125  0.2792 -0.7339 -0.0490
   83MOL0     C11124   7.601   7.579   3.191  0.1289  0.0241 -0.2656
   83MOL0     C11125   7.499   7.581   3.091 -0.0055 -0.2168 -0.5195
   83MOL0     C11126   7.367   7.552   3.121 -0.4884 -0.2439  1.0920
   83MOL0     C11127   7.321   7.519   3.254  0.3526  0.1175  0.8410
   83MOL0     O11128   7.191   7.503   3.306  0.6755 -0.1154 -0.7258
   83MOL0     C11129   7.086   7.499   3.212  0.8499 -0.2865 -0.2456
   83MOL0     C11130   6.947   7.482   3.277 -0.6658 -0.3968  0.8529
   83MOL0     C11131   6.849   7.410   3.185 -0.9570 -0.3453  0.1055
   83MOL0     C11132   6.711   7.395   3.246  0.1691  0.9219 -1.2019
   83MOL0     C11133   6.715   7.320   3.375  0.3769 -0.8576  0.0294
   83MOL0     C11134   6.696   7.249   3.468 -0.2116  0.9969 -0.8131
   83MOL0     C11135   7.428   7.492   3.341  0.4478  1.0141  0.8805
   83MOL0     C11136   7.562   7.532   3.316 -0.4886 -0.3288 -0.2390
   83MOL0     C11137   7.666   7.523   3.424 -0.2433  0.1465 -0.1836
   83MOL0     H11138   7.847   7.700   2.840  1.0074 -1.8618  0.0698
   83MOL0     H11139   8.059   7.756   2.754  1.1782  0.5920  0.2496
   83MOL0     H11140   8.279   7.794   2.723 -0.1977 -0.3834  1.3718
   83MOL0     H11141   8.220   7.954   2.731 -0.9622 -1.2965  1.3414
   83MOL0     H11142   8.466   8.033   2.792 -1.3265 -0.9370  2.8367
   83MOL0     H11143   8.457   7.938   2.647  0.5509  0.3792  0.2821
   83MOL0     H11144   8.510   7.722   2.770  1.8759 -1.8511  0.3960
   83MOL0     H11145   8.494   7.807   2.922  0.7701  1.2235 -0.2300
   83MOL0     H11146   8.689   7.916   2.711 -1.3328 -1.2338 -1.3613
   83MOL0     H11147   8.699   7.924   2.893 -1.0563 -0.7019  1.0389
   83MOL0     H11148   8.739   7.700   2.925 -0.9987  2.9356  0.9240
   83MOL0     H11149   8.739   7.668   2.750  4.4785 -1.1316 -0.7930
   83MOL0     H11150   8.937   7.853   2.739  1.4640  0.0283  0.0022
   83MOL0     H11151   8.926   7.834   2.914  0.5111  1.3255 -1.8368
   83MOL0     H11152   9.015   7.624   2.702  1.0941  3.2046 -0.5796
   83MOL0     H11153   8.969   7.576   2.865  0.0036  0.3877  1.3936
   83MOL0     H11154   9.142   7.738   2.970 -1.4830  2.3320 -0.8336
   83MOL0     H11155   9.211   7.608   2.873  0.4850  0.4505  0.0358
   83MOL0     H11156   9.300   7.924   2.959  0.4988 -1.1994  1.3846
   83MOL0     H11157   9.475   8.111   2.755  1.5721 -0.1050  0.5132
   83MOL0     H11158   9.512   8.031   2.902 -2.3116  1.8459  1.0301
   83MOL0     H11159   9.677   7.886   2.748  1.8853  0.0574 -3.9053
   83MOL0     H11160   9.621   7.991   2.620 -1.6453 -0.9007  1.1862
   83MOL0     H11161   9.758   8.092   2.875  0.9698 -1.4101 -0.4049
   83MOL0     H11162   9.710   8.185   2.737 -3.9147 -0.3593  1.0410
   83MOL0     H11163   9.882   7.985   2.612  0.3355 -1.5700  1.0098
   83MOL0     H11164   9.932   7.966   2.776 -0.2894  1.4627  1.3315
   83MOL0     H11165  10.072   8.030   2.913 -0.1514  0.7720 -0.0511
   83MOL0     H11166  10.316   8.022   2.977  0.8134 -0.1749  0.1749
   83MOL0     H11167  10.619   8.203   3.121 -0.6412  0.1029 -0.4695
   83MOL0     H11168  10.853   8.261   3.216  1.2738  0.5671 -0.2693
   83MOL0     H11169  11.020   8.154   3.361 -1.7846  0.1852 -2.0343
   83MOL0     H11170  11.064   7.984   3.339  1.6256 -0.3317  0.6086
   83MOL0     H11171  11.241   8.224   3.314  1.6968 -0.7218 -1.9102
   83MOL0     H11172  11.230   8.113   3.459  1.3736  3.0194  0.1974
   83MOL0     H11173  11.328   7.929   3.320  2.7652 -0.5775  0.4817
   83MOL0     H11174  11.309   8.021   3.169 -2.3233  0.3566  0.6067
   83MOL0     H11175  11.508   8.044   3.392 -0.6995 -4.5743 -0.1665
   83MOL0     H11176  11.469   8.188   3.284  0.5425 -0.6904 -2.2389
   83MOL0     H11177  11.638   8.112   3.164  0.3712 -1.7930 -1.1510
   83MOL0     H11178  11.522   8.005   3.086 -1.3852  0.6145  0.4989
   83MOL0     H11179  11.710   7.926   3.312  2.1394 -1.1008 -1.7453
   83MOL0     H11180  11.571   7.824   3.252 -0.8194  0.5461 -0.8175
   83MOL0     H11181  11.786   7.960   3.064  0.2776 -1.0749 -1.1918
   83MOL0     H11182  11.673   7.829   3.032  0.7605 -0.1491  0.1836
   83MOL0     H11183  11.902   7.825   3.236  0.7737 -1.1793 -0.5355
   83MOL0     H11184  11.806   7.684   3.206 -2.6175  0.9348  1.1637
   83MOL0     H11185  11.012   7.942   2.970 -1.6835 -2.1823 -0.8831
   83MOL0     H11186  10.786   7.930   2.859 -1.4457  1.6279 -1.1397
   83MOL0     H11187  10.409   8.176   2.579 -0.9303 -0.3767 -0.2485
   83MOL0     H11188  10.162   8.218   2.550 -1.5345  1.4172  0.7625
   83MOL0     H11189   8.172   7.862   3.155 -1.3602  2.0374  0.7352
   83MOL0     H11190   7.932   7.843   3.225 -0.4377  1.7837 -0.8042
   83MOL0     H11191   7.524   7.605   2.988 -0.7405 -0.3367 -0.7289
   83MOL0     H11192   7.295   7.574   3.043  1.9009  1.3351 -0.7729
   83MOL0     H11193   7.109   7.413   3.149 -0.3871  0.5350 -1.8825
   83MOL0     H11194   7.080   7.592   3.155  0.7160 -1.0269 -1.4710
   83MOL0     H11195   6.900   7.580   3.290 -3.5283 -1.8355  2.2777
   83MOL0     H11196   6.956   7.427   3.371  3.0962 -1.9226 -0.1956
   83MOL0     H11197   6.885   7.315   3.145  0.0221  0.7416 -1.7462
   83MOL0     H11198   6.842   7.473   3.096  2.2965 -1.1189 -0.8233
   83MOL0     H11199   6.670   7.490   3.280 -2.9318 -1.1632  1.5786
   83MOL0     H11200   6.638   7.349   3.179  0.4808 -0.8221 -0.4145
   83MOL0     H11201   6.674   7.181   3.548 -1.8508 -0.2292 -2.2049
   83MOL0     H11202   7.405   7.455   3.440 -1.5247  0.0725  0.1375
   83MOL0     H11203   7.723   7.616   3.410 -0.1452 -0.1378 -1.9367
   83MOL0     H11204   7.625   7.514   3.525  4.1336  1.4493  1.9796
   83MOL0     H11205   7.736   7.440   3.407 -2.7601 -1.7867 -1.7918
   84MOL0     O11206   9.754   8.976   2.948  0.2981 -0.1197  0.1143
   84MOL0     C11207   9.736   9.096   2.939 -0.9112 -0.6903 -0.8106
   84MOL0     O11208   9.840   9.186   2.934  0.0357 -0.8689  0.1554
   84MOL0     C11209   9.961   9.143   2.910 -0.0230  0.6060 -0.2790
   84MOL0     C11210  10.020   9.124   2.780 -0.3762  0.3494  0.1285
   84MOL0     C11211  10.157   9.083   2.773  0.0240  0.2978 -0.2353
   84MOL0     C11212  10.230   9.051   2.887  0.7378  0.6452  0.9625
   84MOL0     O11213  10.355   9.010   2.881 -0.5232  0.2270 -0.9064
   84MOL0     C11214  10.441   9.025   2.762 -0.1341 -0.0847 -0.1059
   84MOL0     C11215  10.585   8.985   2.807  0.5098 -0.0614  0.2423
   84MOL0     C11216  10.676   8.926   2.705  0.0879 -0.0205 -0.2184
   84MOL0     C11217  10.682   9.007   2.574  0.5693 -0.3704 -0.1670
   84MOL0     C11218  10.784   8.953   2.465  0.4188  0.4550  0.7489
   84MOL0     C11219  10.925   8.988   2.513 -0.2964 -0.1048 -0.2681
   84MOL0     C11220  11.026   8.959   2.403 -0.4639  0.1788 -0.2740
   84MOL0     C11221  11.028   9.058   2.284  0.2154 -1.1454  0.3037
   84MOL0     N11222  11.159   9.056   2.217 -0.6144 -0.5175 -0.0404
   84MOL0     C11223  11.185   8.967   2.120  0.1560 -1.0621 -0.6527
   84MOL0     C11224  11.311   8.988   2.082  1.1711 -0.0722 -0.1617
   84MOL0     C11225  11.399   8.904   1.985 -0.1715  0.5270 -0.5928
   84MOL0     C11226  11.452   8.773   2.048  0.2369 -0.3415  0.0587
   84MOL0     C11227  11.533   8.800   2.176  0.0289 -0.0071 -0.4660
   84MOL0     C11228  11.596   8.675   2.225 -0.0299 -0.7545 -1.0254
   84MOL0     O11229  11.706   8.657   2.136 -0.1943  0.5006  0.2074
   84MOL0     C11230  11.755   8.537   2.098  0.2500 -0.4652  0.0475
   84MOL0     C11231  11.815   8.530   1.970  0.6195  0.5347  0.1277
   84MOL0     C11232  11.877   8.416   1.924  0.7679  0.2930 -0.1420
   84MOL0     C11233  11.871   8.298   2.000  0.0397 -0.0427  0.5336
   84MOL0     C11234  11.923   8.174   1.940 -0.0313  0.1024  0.3319
   84MOL0     O11235  12.014   8.192   1.834 -0.2798 -0.0346  0.6567
   84MOL0     C11236  12.116   8.098   1.824  0.2094 -0.1947  0.9060
   84MOL0     C11237  12.240   8.134   1.872  1.0027 -0.3115  0.4832
   84MOL0     C11238  12.355   8.049   1.848 -0.0359 -0.9120 -0.2766
   84MOL0     C11239  12.338   7.928   1.790  0.1063 -0.0936  0.1673
   84MOL0     O11240  12.455   7.857   1.767  0.1366 -0.9801 -0.4794
   84MOL0     C11241  12.443   7.729   1.714 -0.1210  0.2308  0.6185
   84MOL0     C11242  12.578   7.676   1.686  0.3069 -0.3107 -0.2395
   84MOL0     C11243  12.649   7.659   1.820 -0.3526  0.2158 -0.5967
   84MOL0     C11244  12.771   7.558   1.808 -0.2097  0.2431 -0.3149
   84MOL0     C11245  12.834   7.524   1.945 -0.2974  0.5555  0.0670
   84MOL0     C11246  12.887   7.375   1.954  0.3906  0.1681 -0.1067
   84MOL0     C11247  12.926   7.333   2.095  1.3806  0.2429  0.4393
   84MOL0     C11248  13.074   7.337   2.122  0.4617 -0.3965  0.9178
   84MOL0    Cl11249  13.144   7.501   2.114  0.0064 -0.0626 -0.0088
   84MOL0     C11250  12.215   7.891   1.745  0.6490  0.0854 -0.4357
   84MOL0     C11251  12.100   7.973   1.765 -0.0884  0.3868 -0.6660
   84MOL0     O11252  11.894   8.073   1.998 -0.0812 -0.1745  0.5313
   84MOL0     C11253  11.825   8.301   2.129 -0.5232 -0.0457 -0.1846
   84MOL0     C11254  11.768   8.421   2.174  0.2464  0.0617 -0.3944
   84MOL0     N11255  11.371   9.089   2.158  0.5216  0.2182 -0.9524
   84MOL0     N11256  11.280   9.130   2.251 -0.1980  1.1701  0.7892
   84MOL0     C11257  10.174   9.072   3.012 -1.5374  0.3378  0.0037
   84MOL0     C11258  10.040   9.108   3.024 -0.9587 -0.2693 -0.1268
   84MOL0     C11259   9.594   9.150   2.940  0.2806  0.6952  0.3342
   84MOL0     C11260   9.481   9.056   2.931 -0.1123 -0.1084  0.0680
   84MOL0     C11261   9.344   9.093   2.935 -0.2028 -0.2364  0.4685
   84MOL0     C11262   9.304   9.225   2.939 -0.8499  0.0925 -0.3695
   84MOL0     O11263   9.170   9.269   2.936  0.5626 -0.4980 -0.2336
   84MOL0     C11264   9.068   9.164   2.941 -0.4852 -0.8432 -0.4474
   84MOL0     C11265   8.926   9.222   2.916  0.0232  0.9252  0.0309
   84MOL0     C11266   8.922   9.323   2.794 -0.0828  1.0829 -0.0069
   84MOL0     C11267   8.776   9.350   2.747  0.2114 -0.6038  0.8613
   84MOL0     C11268   8.695   9.372   2.865  0.0479 -0.1854  0.0637
   84MOL0     C11269   8.607   9.383   2.951 -0.3078  0.7325  0.0620
   84MOL0     C11270   9.408   9.326   2.942 -0.5642  0.0877 -0.1239
   84MOL0     C11271   9.555   9.285   2.940  0.1950 -0.5546 -0.4447
   84MOL0     C11272   9.658   9.394   2.955 -0.6848 -0.2794  1.4089
   84MOL0     H11273   9.971   9.158   2.689  0.7208  3.0745  0.4673
   84MOL0     H11274  10.203   9.076   2.675  4.8037 -1.3329  1.8271
   84MOL0     H11275  10.408   8.952   2.688 -1.4862  2.3465 -2.0796
   84MOL0     H11276  10.445   9.128   2.724  0.8790  0.2475  0.8243
   84MOL0     H11277  10.581   8.908   2.885  0.8982  0.9519  1.3036
   84MOL0     H11278  10.643   9.070   2.844  2.2196  0.4598 -3.1957
   84MOL0     H11279  10.636   8.827   2.678  2.9806 -0.9808 -1.3995
   84MOL0     H11280  10.775   8.909   2.748 -0.3649 -2.5343 -0.0049
   84MOL0     H11281  10.582   9.005   2.531 -0.4606  3.8063  1.5743
   84MOL0     H11282  10.701   9.111   2.600 -2.5825  0.3651 -0.4332
   84MOL0     H11283  10.764   8.846   2.451  0.7877  0.5373 -0.4771
   84MOL0     H11284  10.772   9.010   2.372 -0.0526  1.6264  1.5011
   84MOL0     H11285  10.933   9.092   2.547 -0.1383  0.6693 -2.5091
   84MOL0     H11286  10.964   8.932   2.598  2.4708  2.9295  0.7021
   84MOL0     H11287  11.021   8.855   2.370 -0.5855  0.4448 -1.1092
   84MOL0     H11288  11.124   8.980   2.447 -0.9037  1.7731  0.0069
   84MOL0     H11289  10.951   9.028   2.212 -1.5493 -1.4054  2.1718
   84MOL0     H11290  10.995   9.157   2.318 -2.0847 -0.8791 -2.2998
   84MOL0     H11291  11.115   8.893   2.083 -2.4469  0.1142  1.5601
   84MOL0     H11292  11.339   8.886   1.895 -3.1493  2.3435  0.8784
   84MOL0     H11293  11.496   8.953   1.972  0.4834 -0.0465  1.7031
   84MOL0     H11294  11.367   8.715   2.086 -2.0985  2.3613 -0.6459
   84MOL0     H11295  11.511   8.716   1.976  0.7041  0.1196  0.0679
   84MOL0     H11296  11.465   8.839   2.253  0.8438 -0.7934  0.6921
   84MOL0     H11297  11.610   8.877   2.170 -0.3091  0.5441  1.5027
   84MOL0     H11298  11.522   8.594   2.216 -0.1721 -0.6745 -0.5921
   84MOL0     H11299  11.637   8.675   2.326  1.8281  1.9481 -1.6927
   84MOL0     H11300  11.825   8.620   1.909  0.1968  0.1362 -0.5467
   84MOL0     H11301  11.906   8.416   1.819  0.5624 -0.0342 -0.1986
   84MOL0     H11302  12.236   8.224   1.932 -1.7039  0.4678 -0.7186
   84MOL0     H11303  12.456   8.072   1.880  0.2247  0.4006 -1.9286
   84MOL0     H11304  12.380   7.663   1.774  1.1986 -0.0882  1.7146
   84MOL0     H11305  12.405   7.731   1.611  0.9801 -1.7449  0.1071
   84MOL0     H11306  12.568   7.579   1.636 -0.1047 -0.9448  1.0328
   84MOL0     H11307  12.625   7.750   1.621  0.9511 -0.8259 -0.3820
   84MOL0     H11308  12.692   7.757   1.843 -0.1254 -0.1806  0.7520
   84MOL0     H11309  12.585   7.627   1.902  0.4595 -0.5769 -0.2498
   84MOL0     H11310  12.851   7.601   1.748 -0.1420  0.1643 -0.2817
   84MOL0     H11311  12.729   7.471   1.757  0.6961 -0.2025 -0.3158
   84MOL0     H11312  12.771   7.553   2.030 -0.1375 -0.9261  0.7347
   84MOL0     H11313  12.917   7.594   1.954 -0.2288  0.3453  1.3532
   84MOL0     H11314  12.812   7.303   1.920  2.5807 -1.4967 -1.7313
   84MOL0     H11315  12.971   7.358   1.886  1.7796  3.5490  0.5662
   84MOL0     H11316  12.896   7.231   2.123  0.4341 -0.1124 -1.6884
   84MOL0     H11317  12.867   7.400   2.158  0.1782 -0.6509  0.3100
   84MOL0     H11318  13.077   7.300   2.225 -2.3844  2.0510  2.0116
   84MOL0     H11319  13.122   7.265   2.055 -0.1076  0.2113 -0.1695
   84MOL0     H11320  12.204   7.801   1.685 -0.9006  1.1346 -1.7862
   84MOL0     H11321  12.006   7.939   1.722  0.6845 -1.4710 -1.0009
   84MOL0     H11322  11.829   8.213   2.193  1.0350  0.4377  0.4332
   84MOL0     H11323  11.723   8.425   2.272 -0.4823 -2.2608 -0.5829
   84MOL0     H11324  10.227   9.052   3.105  0.2857 -1.3509 -1.3337
   84MOL0     H11325  10.008   9.126   3.126 -1.7140 -2.2003  0.0124
   84MOL0     H11326   9.500   8.950   2.913  0.2123 -0.4069  1.9002
   84MOL0     H11327   9.271   9.017   2.912  1.1722 -1.8738  1.2897
   84MOL0     H11328   9.086   9.118   3.038  0.7255  2.7659  1.2246
   84MOL0     H11329   9.082   9.098   2.855 -1.7291  0.2462 -1.5299
   84MOL0     H11330   8.883   9.264   3.007 -2.3573 -0.1242 -0.5451
   84MOL0     H11331   8.854   9.145   2.890 -2.1753  2.4993  1.1802
   84MOL0     H11332   8.986   9.281   2.715 -0.8989  1.3739 -0.8353
   84MOL0     H11333   8.952   9.425   2.820 -1.3860  1.5217 -0.1625
   84MOL0     H11334   8.763   9.433   2.676  0.1347 -0.5142  0.9794
   84MOL0     H11335   8.742   9.260   2.695  2.3214 -1.2548  0.5350
   84MOL0     H11336   8.534   9.386   3.029 -1.4212 -0.5601 -0.8832
   84MOL0     H11337   9.378   9.431   2.945 -0.6145  0.0893 -0.6244
   84MOL0     H11338   9.608   9.492   2.958 -0.3561 -0.0452 -0.0352
   84MOL0     H11339   9.707   9.383   3.052 -2.6057  1.8479  2.7394
   84MOL0     H11340   9.722   9.400   2.867 -2.3725 -1.4095  0.0247
   85MOL0     O11341   5.723   3.949   7.309  0.6672 -0.1392 -0.3512
   85MOL0     C11342   5.702   3.829   7.310 -0.0285 -0.3452  0.4378
   85MOL0     O11343   5.777   3.741   7.384  0.2907  0.3211 -0.3898
   85MOL0     C11344   5.849   3.780   7.491 -0.2299 -0.7593 -0.3117
   85MOL0     C11345   5.832   3.722   7.620  0.0898 -0.6997 -0.7561
   85MOL0     C11346   5.911   3.754   7.728 -1.3027  0.5044  0.0189
   85MOL0     C11347   6.021   3.845   7.707  0.5849 -0.2720 -0.4097
   85MOL0     O11348   6.096   3.893   7.812  0.9625 -0.0928 -0.4082
   85MOL0     C11349   6.153   3.794   7.897 -0.2228  0.3790 -0.5845
   85MOL0     C11350   6.308   3.800   7.877  1.2817  0.3558 -0.1488
   85MOL0     C11351   6.367   3.906   7.961  0.4372 -0.2764 -0.2175
   85MOL0     C11352   6.391   3.872   8.108  0.1917 -0.1251  0.1374
   85MOL0     C11353   6.428   4.002   8.182  0.5073  0.1293  0.1965
   85MOL0     C11354   6.417   3.984   8.331 -0.3117 -0.1983  0.1457
   85MOL0     C11355   6.486   3.870   8.398  0.3539  0.1078 -0.6067
   85MOL0     C11356   6.498   3.905   8.553 -0.5166 -0.1586  0.1754
   85MOL0     N11357   6.578   3.810   8.637 -0.6527 -0.2538  0.3453
   85MOL0     C11358   6.708   3.830   8.682  0.4716 -0.9226  0.6847
   85MOL0     C11359   6.753   3.719   8.739 -0.4490 -0.5083 -0.5087
   85MOL0     C11360   6.899   3.712   8.786 -0.0427  0.2953  0.2393
   85MOL0     C11361   6.917   3.794   8.918  0.6043 -0.8978  1.0060
   85MOL0     C11362   7.062   3.778   8.956 -0.1771  0.3249 -0.5082
   85MOL0     C11363   7.104   3.868   9.077 -0.4780 -0.7860  0.0300
   85MOL0     O11364   7.250   3.840   9.111 -0.0365  0.4054 -0.1846
   85MOL0     C11365   7.344   3.897   9.033  0.2445 -1.0332 -0.1002
   85MOL0     C11366   7.450   3.813   8.992  0.5643 -0.0768 -0.6918
   85MOL0     C11367   7.544   3.863   8.907 -0.5674  0.3313 -0.1448
   85MOL0     C11368   7.544   3.996   8.865 -0.5715  0.6911 -0.1875
   85MOL0     C11369   7.652   4.041   8.772 -0.3638  0.2374  0.1306
   85MOL0     O11370   7.737   3.959   8.734 -0.6013  0.1335  0.3130
   85MOL0     C11371   7.863   4.011   8.713  0.6018  0.3991 -0.4021
   85MOL0     C11372   7.943   4.048   8.822  0.0152 -0.3593  0.2202
   85MOL0     C11373   8.069   4.094   8.790 -0.6380  0.4614  0.9405
   85MOL0     C11374   8.115   4.119   8.655 -0.1276 -0.5091 -0.8058
   85MOL0     O11375   8.243   4.160   8.628 -0.2570 -0.0892 -0.3572
   85MOL0     C11376   8.333   4.187   8.736 -0.5941 -0.6718 -1.3239
   85MOL0     C11377   8.471   4.229   8.674  0.5518  0.4209  0.2244
   85MOL0     C11378   8.583   4.222   8.779  0.3196 -1.5075 -0.1471
   85MOL0     C11379   8.717   4.248   8.712 -1.2960 -0.2670 -0.2246
   85MOL0     C11380   8.826   4.237   8.814  0.0478 -0.5000  0.8015
   85MOL0     C11381   8.829   4.106   8.896 -0.0758 -0.4271  0.1751
   85MOL0     C11382   8.926   4.131   9.015 -0.4440  0.1397 -0.1391
   85MOL0     C11383   9.004   4.008   9.059 -0.2065 -0.8151 -0.0849
   85MOL0    Cl11384   9.071   3.922   8.931 -0.1734 -0.0013  0.3596
   85MOL0     C11385   8.030   4.083   8.558 -0.6245 -0.1095 -0.1157
   85MOL0     C11386   7.899   4.028   8.582  0.0719 -0.6819  0.8166
   85MOL0     O11387   7.651   4.163   8.747 -0.4421  0.6489  0.1668
   85MOL0     C11388   7.443   4.082   8.917 -0.4813  0.7973  0.3102
   85MOL0     C11389   7.343   4.036   8.998  0.1674 -1.2039 -1.1284
   85MOL0     N11390   6.654   3.626   8.726  0.3441  0.0302 -0.1323
   85MOL0     N11391   6.560   3.676   8.663  0.6853 -0.1079 -0.3402
   85MOL0     C11392   6.041   3.901   7.583 -0.4157 -0.4202  0.9544
   85MOL0     C11393   5.960   3.866   7.472 -0.0076 -1.0336 -0.3601
   85MOL0     C11394   5.594   3.777   7.229 -0.3745  0.3501 -0.4052
   85MOL0     C11395   5.497   3.702   7.290  0.8681 -0.3311 -0.0860
   85MOL0     C11396   5.406   3.622   7.215 -0.5621  0.2901 -0.9582
   85MOL0     C11397   5.424   3.624   7.073 -0.6061  0.2140  0.1999
   85MOL0     O11398   5.342   3.557   6.978 -1.1943  0.5636 -0.4686
   85MOL0     C11399   5.270   3.449   7.024 -0.4037 -0.0577  0.2447
   85MOL0     C11400   5.352   3.322   7.030  1.0501  0.0049 -0.2259
   85MOL0     C11401   5.376   3.259   6.891 -0.8703 -0.2772  0.1989
   85MOL0     C11402   5.278   3.264   6.778 -0.0994  0.0211  0.1706
   85MOL0     C11403   5.158   3.208   6.844  1.0985  0.3756  0.1465
   85MOL0     C11404   5.054   3.161   6.888 -0.0010 -0.8029 -0.0211
   85MOL0     C11405   5.522   3.698   7.018  0.1306  0.0622  0.9214
   85MOL0     C11406   5.615   3.776   7.096  0.6121 -0.1442 -0.2396
   85MOL0     C11407   5.729   3.851   7.025 -0.1605  0.4981  0.1580
   85MOL0     H11408   5.752   3.654   7.648 -0.4677  0.1550 -0.2638
   85MOL0     H11409   5.915   3.713   7.829  0.1825  3.8453  1.4637
   85MOL0     H11410   6.135   3.823   8.001 -1.0495  0.4837 -0.7557
   85MOL0     H11411   6.110   3.695   7.880  2.3371 -0.8533 -0.3408
   85MOL0     H11412   6.325   3.814   7.770  1.6681  1.2043  0.0161
   85MOL0     H11413   6.352   3.699   7.883  1.4423  0.2495 -2.3274
   85MOL0     H11414   6.295   3.988   7.964 -0.5244 -1.1405  1.7542
   85MOL0     H11415   6.455   3.945   7.908  0.0636  1.4789  0.3986
   85MOL0     H11416   6.292   3.837   8.138 -0.2089 -0.1833 -1.1777
   85MOL0     H11417   6.466   3.795   8.129 -0.0886 -0.8580 -1.3835
   85MOL0     H11418   6.530   4.029   8.154  0.3844 -0.1366 -0.5145
   85MOL0     H11419   6.354   4.075   8.148 -0.8516 -2.5515 -3.2071
   85MOL0     H11420   6.449   4.079   8.375  0.7052  0.0229 -1.0597
   85MOL0     H11421   6.310   3.973   8.352 -0.5712  0.0939 -0.9988
   85MOL0     H11422   6.588   3.869   8.358 -0.2379 -0.0739 -2.1811
   85MOL0     H11423   6.430   3.777   8.384  1.8899 -0.9331 -0.0892
   85MOL0     H11424   6.544   4.004   8.560 -1.5782  0.3550  0.1640
   85MOL0     H11425   6.398   3.909   8.599 -0.2773 -1.8584  0.9043
   85MOL0     H11426   6.752   3.927   8.659  1.4693 -1.2056  1.3383
   85MOL0     H11427   6.928   3.608   8.802 -0.3895  0.0486 -0.6872
   85MOL0     H11428   6.967   3.748   8.708  1.4008  0.8266  1.6894
   85MOL0     H11429   6.901   3.901   8.905 -0.4377 -1.3686 -2.7579
   85MOL0     H11430   6.847   3.747   8.988 -3.8077  0.3644 -2.1057
   85MOL0     H11431   7.137   3.806   8.882  0.9857 -1.3194 -0.0026
   85MOL0     H11432   7.076   3.673   8.982 -3.1272 -0.8811 -3.1499
   85MOL0     H11433   7.043   3.841   9.164  0.1991 -0.6556  0.5473
   85MOL0     H11434   7.083   3.971   9.046 -1.1399 -0.4526  1.4686
   85MOL0     H11435   7.455   3.710   9.024  4.9237 -0.6923 -2.6485
   85MOL0     H11436   7.614   3.790   8.867 -0.7162 -0.3353  0.7961
   85MOL0     H11437   7.923   4.038   8.928 -1.1974  1.3481  0.1838
   85MOL0     H11438   8.140   4.107   8.871  0.2947 -0.9473  0.3856
   85MOL0     H11439   8.295   4.277   8.786 -1.5874 -2.3943  1.2532
   85MOL0     H11440   8.352   4.117   8.818  3.1024  0.9237 -0.6138
   85MOL0     H11441   8.489   4.166   8.586 -3.6931  0.2565 -0.7828
   85MOL0     H11442   8.455   4.329   8.633 -0.3011  0.5694  0.8944
   85MOL0     H11443   8.552   4.296   8.854 -0.4459 -2.5081  0.5417
   85MOL0     H11444   8.576   4.120   8.818 -1.6746 -1.4581 -0.2861
   85MOL0     H11445   8.709   4.349   8.670  0.4456 -1.0417 -2.6425
   85MOL0     H11446   8.734   4.183   8.626  0.0531  2.1328 -1.9088
   85MOL0     H11447   8.825   4.322   8.881 -0.4978 -0.2242  0.4473
   85MOL0     H11448   8.918   4.236   8.755 -2.8619  0.0334 -4.3490
   85MOL0     H11449   8.727   4.090   8.934 -0.7130  1.7401 -0.4763
   85MOL0     H11450   8.872   4.030   8.830 -2.1167  0.4008 -2.2478
   85MOL0     H11451   8.871   4.150   9.108 -0.1731  2.0534 -0.3438
   85MOL0     H11452   8.995   4.214   8.997 -2.7968  2.2458 -0.0638
   85MOL0     H11453   9.083   4.037   9.129  0.7997 -0.3863 -1.3598
   85MOL0     H11454   8.934   3.946   9.117  0.3838 -0.8593  0.5899
   85MOL0     H11455   8.052   4.101   8.453  1.0584 -0.3884  0.1771
   85MOL0     H11456   7.830   4.010   8.500  0.3611 -1.2841  0.6997
   85MOL0     H11457   7.443   4.189   8.903 -0.6461  1.0295  1.9617
   85MOL0     H11458   7.265   4.110   9.015  3.4765  2.3390  0.0018
   85MOL0     H11459   6.124   3.969   7.566  0.1998 -1.4954 -0.5471
   85MOL0     H11460   5.977   3.897   7.370  0.8362 -2.1315 -0.5825
   85MOL0     H11461   5.490   3.702   7.398 -1.9957  0.0860 -0.2002
   85MOL0     H11462   5.330   3.562   7.264  1.2399 -2.3784 -1.2390
   85MOL0     H11463   5.188   3.439   6.952 -0.1652 -1.0837  0.0933
   85MOL0     H11464   5.199   3.472   7.105 -0.3144 -1.2159  0.6701
   85MOL0     H11465   5.282   3.259   7.086  0.5559  2.0281  1.5492
   85MOL0     H11466   5.439   3.350   7.090 -0.8709  0.3968  2.5699
   85MOL0     H11467   5.405   3.154   6.897  2.7137  0.3571 -2.5117
   85MOL0     H11468   5.467   3.307   6.854 -1.4256 -1.2350 -2.6399
   85MOL0     H11469   5.251   3.365   6.745  0.7709  0.8275  1.7987
   85MOL0     H11470   5.313   3.200   6.697 -0.0284 -1.6625  1.4710
   85MOL0     H11471   4.962   3.125   6.931 -0.0082 -2.8713 -1.6148
   85MOL0     H11472   5.542   3.693   6.912 -1.8841  0.7944  0.4767
   85MOL0     H11473   5.716   3.958   7.046  0.4727  0.6839 -0.3488
   85MOL0     H11474   5.825   3.809   7.057 -1.0401 -1.5456  0.2264
   85MOL0     H11475   5.729   3.832   6.917 -3.5842  2.4934 -0.3524
   86MOL0     O11476   0.719   3.414   9.861 -0.5190 -0.2922  0.1259
   86MOL0     C11477   0.668   3.310   9.836  0.2011 -0.3537 -0.1969
   86MOL0     O11478   0.736   3.204   9.798  0.1898  0.4734  0.3612
   86MOL0     C11479   0.867   3.207   9.753  0.1758 -0.3720 -0.4646
   86MOL0     C11480   0.942   3.315   9.696  0.2850  0.3827  0.1178
   86MOL0     C11481   1.071   3.303   9.644 -0.1141 -0.6534 -0.3106
   86MOL0     C11482   1.139   3.184   9.659  0.2414  0.2661 -0.8321
   86MOL0     O11483   1.272   3.160   9.629  0.1057 -0.4433 -1.0504
   86MOL0     C11484   1.357   3.263   9.579  0.3274  0.2495 -0.4341
   86MOL0     C11485   1.482   3.203   9.541 -0.1294  0.6189  0.4340
   86MOL0     C11486   1.584   3.297   9.477  0.7631 -0.3807 -0.7337
   86MOL0     C11487   1.624   3.418   9.576 -0.0471  0.2696  0.1634
   86MOL0     C11488   1.739   3.497   9.506  0.0255 -0.6482  0.4434
   86MOL0     C11489   1.790   3.599   9.606 -0.1369  0.5749 -0.3610
   86MOL0     C11490   1.914   3.676   9.539  0.8127  0.5133 -0.3329
   86MOL0     C11491   1.970   3.765   9.649 -0.2644  0.1615 -0.5983
   86MOL0     N11492   2.054   3.876   9.602  0.1563 -0.3404  0.8112
   86MOL0     C11493   2.105   3.890   9.469  0.5969  0.8116 -0.7811
   86MOL0     C11494   2.182   4.000   9.476 -0.2725  0.0338 -0.9323
   86MOL0     C11495   2.279   4.053   9.372  0.2685  0.3442  0.4863
   86MOL0     C11496   2.353   3.945   9.293  0.4705  0.6341  0.0146
   86MOL0     C11497   2.448   4.003   9.186 -0.4508 -0.0910 -0.0240
   86MOL0     C11498   2.474   3.896   9.095  1.2125  0.5694  0.5751
   86MOL0     O11499   2.550   3.786   9.134 -0.4653  0.3853 -0.1427
   86MOL0     C11500   2.690   3.789   9.121 -0.0735  0.7931 -0.2130
   86MOL0     C11501   2.747   3.671   9.140 -0.8758  0.4024  0.1200
   86MOL0     C11502   2.888   3.649   9.108  0.0900  0.3029 -0.3939
   86MOL0     C11503   2.968   3.763   9.082 -0.0691 -0.1210 -0.4368
   86MOL0     C11504   3.117   3.749   9.074  0.6173 -0.4266 -0.2108
   86MOL0     O11505   3.188   3.869   9.056 -0.3579  0.3989  0.8079
   86MOL0     C11506   3.326   3.885   9.042  0.2954  0.1225  0.2785
   86MOL0     C11507   3.386   3.984   9.110  0.3426 -0.1461  0.4621
   86MOL0     C11508   3.524   4.007   9.109  0.7668 -0.1257 -0.0445
   86MOL0     C11509   3.603   3.926   9.020 -0.3681 -0.0745 -0.5913
   86MOL0     O11510   3.736   3.939   9.006  0.3975  0.5084 -0.1985
   86MOL0     C11511   3.806   3.918   8.882  0.6891  0.4843  0.0477
   86MOL0     C11512   3.898   4.040   8.862  1.1837 -0.0957 -0.4249
   86MOL0     C11513   4.002   4.025   8.753 -0.8023 -0.0396 -0.4530
   86MOL0     C11514   4.090   4.152   8.756 -0.0509  0.6087  0.1435
   86MOL0     C11515   4.197   4.143   8.648 -0.4343 -0.1593 -0.3809
   86MOL0     C11516   4.263   4.288   8.640  0.6202  0.9202 -0.3908
   86MOL0     C11517   4.346   4.325   8.767  0.1541  0.7300  0.2290
   86MOL0     C11518   4.471   4.233   8.783 -1.1981  0.7120 -0.7394
   86MOL0    Cl11519   4.601   4.273   8.658 -0.6719  0.3128  0.1508
   86MOL0     C11520   3.538   3.819   8.951 -0.4273 -0.2501  0.1863
   86MOL0     C11521   3.398   3.797   8.965 -0.1559 -0.1636  0.4102
   86MOL0     O11522   3.166   3.641   9.078 -0.2622 -0.0242 -1.1184
   86MOL0     C11523   2.901   3.886   9.074  0.0727 -0.4364  0.2826
   86MOL0     C11524   2.767   3.902   9.094 -0.5315 -0.2405  0.0625
   86MOL0     N11525   2.183   4.050   9.611  0.6490  0.6555  1.1883
   86MOL0     N11526   2.102   3.970   9.686 -0.3348  0.3322  0.2646
   86MOL0     C11527   1.075   3.080   9.718 -0.2802  1.2481  0.2571
   86MOL0     C11528   0.936   3.080   9.755  0.7548  0.4371 -0.1568
   86MOL0     C11529   0.526   3.296   9.871 -1.0390 -0.4886  0.1610
   86MOL0     C11530   0.442   3.400   9.834 -0.1261  0.7911 -0.2204
   86MOL0     C11531   0.308   3.397   9.857 -0.7178  0.6689 -0.4088
   86MOL0     C11532   0.241   3.294   9.929 -1.2410  0.9121  0.0594
   86MOL0     O11533   0.109   3.299   9.971  0.4473  0.2060  0.0523
   86MOL0     C11534   0.044   3.424   9.959 -0.2135 -0.0785 -0.2658
   86MOL0     C11535  -0.085   3.415  10.048 -0.5826  0.1320  1.1124
   86MOL0     C11536  -0.144   3.558  10.054  0.3058  0.0531  0.0188
   86MOL0     C11537  -0.278   3.573  10.134  0.2054 -0.8928  0.4439
   86MOL0     C11538  -0.385   3.494  10.057 -0.1910 -0.5987  0.6182
   86MOL0     C11539  -0.478   3.446  10.001  0.4910  0.5870 -0.0904
   86MOL0     C11540   0.330   3.189   9.970  0.0321  0.2519 -1.1683
   86MOL0     C11541   0.468   3.187   9.942 -1.2319  0.4728  0.0315
   86MOL0     C11542   0.542   3.065  10.000  0.1903 -0.2732  0.4186
   86MOL0     H11543   0.889   3.410   9.693 -2.6600 -1.1468 -0.0488
   86MOL0     H11544   1.108   3.392   9.594 -2.0897  0.2407 -0.2578
   86MOL0     H11545   1.310   3.317   9.495  0.0066 -1.2517 -1.2513
   86MOL0     H11546   1.380   3.327   9.665  2.2081 -0.3972 -0.4101
   86MOL0     H11547   1.459   3.126   9.468  2.8813  0.3730 -0.4066
   86MOL0     H11548   1.535   3.142   9.615 -0.8352 -1.9863 -1.0874
   86MOL0     H11549   1.544   3.335   9.382 -0.0299  1.0611  0.1382
   86MOL0     H11550   1.674   3.241   9.448  0.6554 -1.0515  0.1791
   86MOL0     H11551   1.534   3.480   9.584  0.0016  0.5737 -1.3561
   86MOL0     H11552   1.655   3.386   9.676 -0.2768  0.4125  0.2819
   86MOL0     H11553   1.821   3.441   9.459 -0.0834  1.0601 -1.9916
   86MOL0     H11554   1.695   3.546   9.419  0.8463 -3.2759 -1.6194
   86MOL0     H11555   1.709   3.669   9.629 -1.1543 -0.8284  0.5110
   86MOL0     H11556   1.822   3.552   9.700  0.2448 -0.6274 -1.0673
   86MOL0     H11557   1.865   3.730   9.458 -0.7589  0.3570  0.4849
   86MOL0     H11558   1.994   3.610   9.504 -1.0645 -0.3981 -3.2297
   86MOL0     H11559   1.881   3.800   9.703  0.0336  0.8993 -0.5780
   86MOL0     H11560   2.025   3.697   9.714 -1.5846  0.4027  0.8542
   86MOL0     H11561   2.090   3.822   9.386 -2.4598 -1.9670  1.7497
   86MOL0     H11562   2.225   4.121   9.306  2.6943 -0.3860 -2.5066
   86MOL0     H11563   2.360   4.108   9.422 -0.8124 -0.5081  3.3927
   86MOL0     H11564   2.406   3.900   9.377 -0.7521 -0.0023  0.4676
   86MOL0     H11565   2.276   3.877   9.254 -1.1049  2.2283  0.2156
   86MOL0     H11566   2.541   4.034   9.236 -1.2322 -0.0092  1.4188
   86MOL0     H11567   2.410   4.091   9.133  1.4334 -0.1006 -1.5308
   86MOL0     H11568   2.512   3.928   8.998  1.7944  3.0139  1.5523
   86MOL0     H11569   2.373   3.864   9.066  0.4723  0.9736  2.5168
   86MOL0     H11570   2.678   3.589   9.160 -0.1713 -0.4977 -1.0402
   86MOL0     H11571   2.929   3.550   9.092  0.3779  0.5309 -1.0779
   86MOL0     H11572   3.309   4.049   9.150  0.5640  1.2802 -1.2919
   86MOL0     H11573   3.556   4.095   9.163 -0.4639  0.5090 -0.3356
   86MOL0     H11574   3.865   3.826   8.882 -1.1904 -0.7744  0.2999
   86MOL0     H11575   3.728   3.919   8.806  1.0324  1.5521 -0.3078
   86MOL0     H11576   3.833   4.125   8.839  0.0453 -0.2413  1.9686
   86MOL0     H11577   3.941   4.053   8.962 -1.4206  1.2894  0.6258
   86MOL0     H11578   4.053   3.931   8.777  0.5776  0.6060 -0.7389
   86MOL0     H11579   3.948   4.020   8.658 -4.1201  1.8767  1.1680
   86MOL0     H11580   4.137   4.160   8.854  0.4998  2.8977 -0.2651
   86MOL0     H11581   4.030   4.242   8.743 -3.2199 -1.3471 -0.0705
   86MOL0     H11582   4.156   4.122   8.549  0.8695 -2.4398 -0.4914
   86MOL0     H11583   4.273   4.075   8.687 -2.6960 -1.2753  2.4825
   86MOL0     H11584   4.335   4.285   8.558  2.6392 -0.8398  1.3315
   86MOL0     H11585   4.187   4.363   8.616 -1.5607 -1.2040 -0.5499
   86MOL0     H11586   4.288   4.318   8.860  0.9173  1.9405  0.8195
   86MOL0     H11587   4.386   4.427   8.760  0.9018  0.4848  0.8167
   86MOL0     H11588   4.518   4.260   8.879  1.7823  0.9804 -2.1491
   86MOL0     H11589   4.444   4.128   8.779  2.0020 -0.1759 -1.4263
   86MOL0     H11590   3.594   3.754   8.885 -2.6173 -2.7312  0.5945
   86MOL0     H11591   3.352   3.716   8.909 -3.5201  1.6511  0.3086
   86MOL0     H11592   2.962   3.976   9.067  0.3611 -0.6603 -0.1545
   86MOL0     H11593   2.708   3.990   9.072 -0.4876 -0.9551 -3.5598
   86MOL0     H11594   1.130   2.987   9.715 -2.3581 -0.1031  1.2924
   86MOL0     H11595   0.867   3.002   9.785 -1.1876  1.6149 -1.3764
   86MOL0     H11596   0.473   3.494   9.791 -2.1146  1.4793 -0.2589
   86MOL0     H11597   0.260   3.488   9.821 -0.1265  2.0808  2.0936
   86MOL0     H11598   0.023   3.452   9.855 -0.0758 -0.1798 -0.3211
   86MOL0     H11599   0.099   3.507  10.004 -2.2553  0.8034  0.7519
   86MOL0     H11600  -0.054   3.379  10.146  0.2119 -1.3704  0.3482
   86MOL0     H11601  -0.152   3.339  10.006  0.5774 -0.2627 -0.1175
   86MOL0     H11602  -0.150   3.597   9.952  0.4374 -1.6122 -0.6542
   86MOL0     H11603  -0.060   3.604  10.107  1.5958  0.7738 -2.5227
   86MOL0     H11604  -0.269   3.535  10.236  2.0313  1.3201  1.1807
   86MOL0     H11605  -0.300   3.679  10.151 -0.5161 -0.5770 -2.0757
   86MOL0     H11606  -0.564   3.409   9.950  0.1306 -0.5426  1.2911
   86MOL0     H11607   0.293   3.116  10.042 -0.5210  2.9468  1.5001
   86MOL0     H11608   0.646   3.086  10.026  0.1990  1.0410 -0.5749
   86MOL0     H11609   0.503   3.037  10.098 -3.8907  1.6518 -0.4397
   86MOL0     H11610   0.546   2.978   9.933  0.6102 -1.0169  1.3972
   87MOL0     O11611   0.825   9.155   7.164 -0.0281 -0.0901  1.0100
   87MOL0     C11612   0.773   9.041   7.162  0.3692  0.0986  0.4875
   87MOL0     O11613   0.841   8.921   7.197  0.0435 -0.3751  0.1847
   87MOL0     C11614   0.947   8.934   7.277 -0.0162 -0.2361 -0.3061
   87MOL0     C11615   0.924   8.933   7.411  0.6227  0.0641  0.2659
   87MOL0     C11616   1.028   8.937   7.503  0.1047  0.2515 -0.5988
   87MOL0     C11617   1.155   8.955   7.459 -0.4109 -0.3540 -0.5605
   87MOL0     O11618   1.237   8.971   7.564 -0.3181 -0.5206  0.8418
   87MOL0     C11619   1.381   8.998   7.554  0.6181 -0.2581 -0.4805
   87MOL0     C11620   1.459   8.879   7.615  0.3448  0.9234 -0.5524
   87MOL0     C11621   1.604   8.871   7.570  0.0317  1.8229 -0.1879
   87MOL0     C11622   1.687   9.000   7.595  0.2033 -0.1750 -0.6158
   87MOL0     C11623   1.828   8.998   7.538  0.2947 -0.1107  0.4233
   87MOL0     C11624   1.911   9.115   7.587  0.4434 -0.4516 -0.0648
   87MOL0     C11625   2.061   9.106   7.558  0.4625  0.7464 -0.4255
   87MOL0     C11626   2.136   9.205   7.642 -0.0605  0.2480 -0.7882
   87MOL0     N11627   2.265   9.147   7.700  0.2355  0.2321 -0.6980
   87MOL0     C11628   2.375   9.098   7.630 -0.0837 -0.5917 -0.0123
   87MOL0     C11629   2.428   8.998   7.710  0.0985  1.0013  0.6045
   87MOL0     C11630   2.537   8.900   7.675 -0.1289  0.0539 -0.3117
   87MOL0     C11631   2.661   8.922   7.772  0.3674  0.8934 -0.2297
   87MOL0     C11632   2.783   8.847   7.720 -0.0058  0.3461 -0.4336
   87MOL0     C11633   2.916   8.881   7.776 -0.6650  0.2213 -0.7790
   87MOL0     O11634   2.939   9.016   7.744 -0.1143  0.7454  0.4999
   87MOL0     C11635   3.061   9.075   7.754 -0.3210  0.1207  0.1098
   87MOL0     C11636   3.087   9.190   7.686 -0.6278 -0.9826  0.6842
   87MOL0     C11637   3.224   9.236   7.670  2.2504  0.4811  0.6489
   87MOL0     C11638   3.331   9.169   7.729 -0.6737 -0.3595 -0.0864
   87MOL0     C11639   3.458   9.231   7.738 -1.0653 -0.6487 -0.0814
   87MOL0     O11640   3.492   9.341   7.663  0.2670 -0.0103  0.1782
   87MOL0     C11641   3.626   9.373   7.661  0.4994  0.5206 -0.0534
   87MOL0     C11642   3.671   9.494   7.705  0.9377  0.0219  0.4664
   87MOL0     C11643   3.805   9.529   7.695 -1.3530 -0.0769 -0.4349
   87MOL0     C11644   3.900   9.440   7.640 -0.6344 -0.8069 -0.4860
   87MOL0     O11645   4.037   9.461   7.617  0.2087  0.1851 -0.0641
   87MOL0     C11646   4.088   9.574   7.699  0.2585  0.6725  0.4814
   87MOL0     C11647   4.246   9.579   7.688  0.0156 -0.6316 -0.0208
   87MOL0     C11648   4.303   9.715   7.721  0.3259 -0.2064 -0.4431
   87MOL0     C11649   4.459   9.724   7.735 -0.7925  0.0500  0.3045
   87MOL0     C11650   4.509   9.859   7.794  0.1730 -0.2895 -0.4773
   87MOL0     C11651   4.662   9.860   7.837  0.5418  0.2038  0.5051
   87MOL0     C11652   4.687   9.921   7.975 -0.0293 -0.1392 -0.0812
   87MOL0     C11653   4.839   9.930   7.983  0.5623 -0.9188  0.3769
   87MOL0    Cl11654   4.862   9.995   8.148 -0.0480 -0.0692  0.3133
   87MOL0     C11655   3.856   9.316   7.598  0.0157 -0.9649 -0.0451
   87MOL0     C11656   3.719   9.285   7.607  0.3726 -0.9295  0.7190
   87MOL0     O11657   3.528   9.184   7.829 -0.2825 -1.0122  0.4091
   87MOL0     C11658   3.299   9.051   7.801 -0.3360  0.8227  0.4241
   87MOL0     C11659   3.170   9.003   7.806 -0.0041  0.4411  0.0915
   87MOL0     N11660   2.370   9.011   7.826 -0.4761  0.1822 -1.6101
   87MOL0     N11661   2.273   9.092   7.825 -0.4654  0.4737  0.2200
   87MOL0     C11662   1.183   8.966   7.325  0.3877 -0.1269  0.4712
   87MOL0     C11663   1.084   8.954   7.228  0.0721 -0.1526  0.4214
   87MOL0     C11664   0.621   9.037   7.146 -0.3351  0.3973 -0.0628
   87MOL0     C11665   0.555   9.156   7.110 -0.7388 -0.6670 -0.2883
   87MOL0     C11666   0.418   9.160   7.083  0.0095  0.0845  0.0881
   87MOL0     C11667   0.339   9.051   7.095  0.3634  0.0714  0.0239
   87MOL0     O11668   0.199   9.052   7.072 -0.9824 -0.5941  0.2395
   87MOL0     C11669   0.123   9.169   7.097  0.9502  0.2105 -0.1530
   87MOL0     C11670  -0.012   9.164   7.018  1.0357 -0.0120 -0.6790
   87MOL0     C11671  -0.101   9.284   7.056 -0.3823  0.1373 -0.0554
   87MOL0     C11672  -0.247   9.262   7.042 -0.0688  0.7325  0.6707
   87MOL0     C11673  -0.313   9.376   7.088 -0.2867  0.0122 -0.0247
   87MOL0     C11674  -0.368   9.483   7.118 -0.8642  0.0176 -0.4602
   87MOL0     C11675   0.391   8.931   7.135 -0.6575 -0.7703 -0.7335
   87MOL0     C11676   0.536   8.916   7.164 -0.1532 -0.0764  0.6410
   87MOL0     C11677   0.603   8.779   7.176  0.8007 -0.1940  0.0753
   87MOL0     H11678   0.819   8.918   7.437  0.3251  1.1442 -0.2757
   87MOL0     H11679   1.000   8.921   7.607 -0.9913 -1.3670 -1.1038
   87MOL0     H11680   1.409   9.009   7.449 -0.1374 -4.0983 -1.2406
   87MOL0     H11681   1.389   9.086   7.618 -1.5171 -0.0972 -0.3376
   87MOL0     H11682   1.410   8.788   7.580  3.2243 -0.9848 -0.0166
   87MOL0     H11683   1.446   8.878   7.724 -0.2247 -1.0189 -0.6023
   87MOL0     H11684   1.587   8.854   7.463 -4.1369 -3.0051  0.8568
   87MOL0     H11685   1.648   8.785   7.620 -0.5551  2.9443  2.4191
   87MOL0     H11686   1.637   9.090   7.555  0.9195 -0.2085 -1.6168
   87MOL0     H11687   1.682   9.010   7.704  2.6347 -0.9484 -0.3726
   87MOL0     H11688   1.873   8.905   7.573 -0.4263 -0.6348  0.0064
   87MOL0     H11689   1.830   8.988   7.429 -0.7745 -0.9054  0.4591
   87MOL0     H11690   1.877   9.203   7.532 -0.6705 -0.8869 -0.0956
   87MOL0     H11691   1.905   9.115   7.696  1.6404  1.1499  0.0212
   87MOL0     H11692   2.075   9.127   7.452  0.9465 -0.8677 -0.7088
   87MOL0     H11693   2.097   9.005   7.578 -0.7245  0.7279  1.9905
   87MOL0     H11694   2.169   9.292   7.584 -0.1560 -0.3989 -1.8285
   87MOL0     H11695   2.082   9.235   7.733  0.3957 -0.5975 -0.2318
   87MOL0     H11696   2.396   9.116   7.525  1.5177 -0.0468  0.3673
   87MOL0     H11697   2.495   8.801   7.695  1.8393 -0.7552  0.0442
   87MOL0     H11698   2.564   8.886   7.570 -0.4737 -1.5372 -0.2097
   87MOL0     H11699   2.683   9.029   7.773 -0.7556  1.1726 -1.8687
   87MOL0     H11700   2.624   8.893   7.871  3.1359  2.7484  1.5000
   87MOL0     H11701   2.804   8.861   7.614  0.6734 -1.4934 -0.5715
   87MOL0     H11702   2.762   8.741   7.737 -1.0463  0.2371 -2.1549
   87MOL0     H11703   2.989   8.812   7.735  0.1017  0.9068 -0.5981
   87MOL0     H11704   2.914   8.871   7.885 -1.2336  1.1488 -0.6897
   87MOL0     H11705   2.998   9.238   7.648  0.5116  1.4041  0.8437
   87MOL0     H11706   3.228   9.327   7.612 -2.4621 -0.0321 -0.9516
   87MOL0     H11707   3.605   9.570   7.745 -0.6078 -1.2561  0.4543
   87MOL0     H11708   3.844   9.623   7.732 -2.1635  0.4599 -0.9165
   87MOL0     H11709   4.038   9.667   7.670 -0.2019  0.1549 -0.4711
   87MOL0     H11710   4.064   9.545   7.801 -0.0951 -1.2023 -0.0917
   87MOL0     H11711   4.279   9.504   7.760  1.4995 -0.9741 -0.9977
   87MOL0     H11712   4.276   9.550   7.587 -1.6812 -0.5984 -0.5643
   87MOL0     H11713   4.270   9.780   7.640 -1.4887  0.6290  0.9096
   87MOL0     H11714   4.260   9.746   7.816  2.2988  0.6778  0.2135
   87MOL0     H11715   4.509   9.711   7.638  0.0472  1.3890  0.5439
   87MOL0     H11716   4.492   9.635   7.790  1.0949 -0.8753 -2.1240
   87MOL0     H11717   4.459   9.874   7.891  1.6959 -1.5575  0.5597
   87MOL0     H11718   4.489   9.944   7.728  1.2414 -0.2021 -0.7099
   87MOL0     H11719   4.700   9.759   7.818 -0.5061 -0.1744  0.3885
   87MOL0     H11720   4.718   9.921   7.765  0.5576 -2.0188 -1.5106
   87MOL0     H11721   4.638   9.860   8.051  0.9867 -1.1150 -0.1830
   87MOL0     H11722   4.645  10.021   7.987 -0.2184 -0.2408  0.1065
   87MOL0     H11723   4.896   9.837   7.973  2.0819  0.1797 -2.3161
   87MOL0     H11724   4.874   9.996   7.903  1.1027 -0.3136  1.1003
   87MOL0     H11725   3.925   9.244   7.556  0.3275 -0.5326 -0.2875
   87MOL0     H11726   3.686   9.196   7.555 -2.1747  2.1936 -3.6687
   87MOL0     H11727   3.374   8.997   7.857 -0.5910  0.6036  0.5567
   87MOL0     H11728   3.162   8.903   7.847 -0.1404  0.4249  0.0259
   87MOL0     H11729   1.286   8.972   7.289  0.6883 -3.1044  0.6204
   87MOL0     H11730   1.107   8.955   7.122  1.0185 -0.1857  0.6118
   87MOL0     H11731   0.603   9.253   7.096  1.3637 -1.8787 -2.3238
   87MOL0     H11732   0.374   9.251   7.044  1.4066 -0.3916 -2.8074
   87MOL0     H11733   0.169   9.267   7.085 -0.5340  0.9982  0.3581
   87MOL0     H11734   0.100   9.158   7.204  0.8107 -1.9516 -0.3684
   87MOL0     H11735  -0.069   9.076   7.048  1.2037  0.4650  1.1637
   87MOL0     H11736   0.012   9.154   6.912  0.3226  4.1487 -1.4234
   87MOL0     H11737  -0.067   9.363   6.988  3.1672 -0.4307  0.8773
   87MOL0     H11738  -0.074   9.304   7.160  4.1288 -0.7475 -0.8428
   87MOL0     H11739  -0.284   9.236   6.943 -3.0184 -0.5166  1.9695
   87MOL0     H11740  -0.278   9.170   7.092  3.1975 -1.0467 -0.2959
   87MOL0     H11741  -0.429   9.566   7.150 -2.4992 -1.4890  0.5217
   87MOL0     H11742   0.336   8.837   7.142  0.6303 -1.5602 -0.7913
   87MOL0     H11743   0.653   8.769   7.273 -0.5523  0.6327  0.8966
   87MOL0     H11744   0.524   8.705   7.162  0.5384  0.2401 -0.8068
   87MOL0     H11745   0.671   8.766   7.091  0.1714 -0.6664 -0.3594
   88MOL0     O11746   3.605   1.195   7.610  0.7950  0.3487 -0.3030
   88MOL0     C11747   3.589   1.199   7.731 -0.1008  0.5160  0.7422
   88MOL0     O11748   3.683   1.235   7.823 -0.0851 -0.3932 -0.7060
   88MOL0     C11749   3.816   1.218   7.794  0.6481  0.1785  0.1619
   88MOL0     C11750   3.881   1.324   7.724 -0.0620 -0.5014  0.4430
   88MOL0     C11751   4.010   1.314   7.685 -0.1492  0.0404 -0.3904
   88MOL0     C11752   4.085   1.201   7.720 -0.1253 -0.0799  0.0086
   88MOL0     O11753   4.217   1.174   7.688 -0.0794 -0.1633  0.3428
   88MOL0     C11754   4.293   1.283   7.638 -0.8028  0.2713 -0.4159
   88MOL0     C11755   4.430   1.225   7.599  0.0920  0.4547  0.1540
   88MOL0     C11756   4.525   1.331   7.552 -0.2926 -0.8963 -0.2060
   88MOL0     C11757   4.663   1.275   7.501 -1.3959  0.4730 -1.0179
   88MOL0     C11758   4.754   1.394   7.450 -0.7720 -0.1580  0.2164
   88MOL0     C11759   4.837   1.352   7.318  0.2659  0.1363 -0.6446
   88MOL0     C11760   4.884   1.487   7.254  0.1785 -0.0114  0.0716
   88MOL0     C11761   4.987   1.476   7.144 -0.3694  0.8841 -1.0410
   88MOL0     N11762   5.124   1.448   7.202  0.4519  0.3492  0.2703
   88MOL0     C11763   5.223   1.547   7.219  0.7580  0.4817 -0.3409
   88MOL0     C11764   5.331   1.474   7.252  0.4598  0.1898  0.2771
   88MOL0     C11765   5.470   1.526   7.269 -0.6220  0.6631 -1.2511
   88MOL0     C11766   5.554   1.506   7.138 -0.8528 -0.4401 -0.3773
   88MOL0     C11767   5.647   1.637   7.130  1.1296  0.5396  0.2744
   88MOL0     C11768   5.749   1.653   7.248 -0.0475  0.0940  0.8736
   88MOL0     O11769   5.848   1.745   7.205 -0.1261  0.6894 -0.3408
   88MOL0     C11770   5.965   1.755   7.278  0.4250 -0.2916 -0.1040
   88MOL0     C11771   5.975   1.731   7.416 -0.2883 -0.3867  0.0819
   88MOL0     C11772   6.109   1.752   7.475 -0.0633 -0.7489 -0.8286
   88MOL0     C11773   6.220   1.785   7.402 -0.2264 -0.5887 -0.7037
   88MOL0     C11774   6.348   1.808   7.471  0.4085  0.2606 -0.9701
   88MOL0     O11775   6.354   1.776   7.603  0.4437  0.4031 -0.2946
   88MOL0     C11776   6.468   1.794   7.676 -0.2913 -0.9756 -0.9955
   88MOL0     C11777   6.450   1.851   7.806 -0.2956  0.4386 -0.0712
   88MOL0     C11778   6.554   1.876   7.890 -0.6082  0.5514 -0.2444
   88MOL0     C11779   6.683   1.829   7.862  0.0446  0.6585  0.0195
   88MOL0     O11780   6.795   1.842   7.945  0.5651 -0.3881 -0.3170
   88MOL0     C11781   6.758   1.882   8.077  0.7015 -0.6177  0.1227
   88MOL0     C11782   6.885   1.894   8.163 -0.0214 -0.3180 -0.2802
   88MOL0     C11783   6.965   1.767   8.162  0.9017  0.5547  1.2004
   88MOL0     C11784   7.085   1.765   8.263  0.3462 -0.7856  0.4386
   88MOL0     C11785   7.177   1.644   8.236  0.0470  1.1667  0.0621
   88MOL0     C11786   7.278   1.622   8.349 -0.5288 -0.6104 -0.4416
   88MOL0     C11787   7.402   1.549   8.300  0.2082 -0.2922 -0.2815
   88MOL0     C11788   7.382   1.395   8.288  0.1288 -0.6238 -0.6025
   88MOL0    Cl11789   7.321   1.369   8.133 -0.0823  0.1059 -0.3462
   88MOL0     C11790   6.703   1.782   7.727 -0.4015 -0.1890 -0.1613
   88MOL0     C11791   6.605   1.769   7.639 -0.6513 -0.7684  0.6218
   88MOL0     O11792   6.437   1.851   7.411  0.2406 -0.1734  0.5587
   88MOL0     C11793   6.205   1.810   7.263 -0.4460 -0.4992  0.0015
   88MOL0     C11794   6.073   1.800   7.208 -1.0571 -0.1235  0.2194
   88MOL0     N11795   5.302   1.334   7.262 -0.2171  0.1217  0.3508
   88MOL0     N11796   5.183   1.321   7.219  0.4186 -0.8749 -0.7365
   88MOL0     C11797   4.023   1.100   7.792 -0.5234 -1.7097 -0.4047
   88MOL0     C11798   3.889   1.106   7.823  0.4009 -0.0583 -0.0114
   88MOL0     C11799   3.446   1.185   7.779  1.3179 -0.6276 -0.6813
   88MOL0     C11800   3.421   1.251   7.905 -0.2265 -0.1866 -0.0662
   88MOL0     C11801   3.294   1.241   7.974 -0.1488 -0.0265  0.2442
   88MOL0     C11802   3.204   1.162   7.910  0.1192 -0.3624 -0.6466
   88MOL0     O11803   3.096   1.154   7.992  0.5366  0.0737  0.2442
   88MOL0     C11804   2.975   1.090   7.951  0.2865 -0.4140 -0.1024
   88MOL0     C11805   2.879   1.106   8.081  0.1153 -0.2035  0.8666
   88MOL0     C11806   2.760   1.198   8.076 -0.3083 -0.4795  0.1368
   88MOL0     C11807   2.657   1.180   8.184 -0.2144 -0.0076 -0.0634
   88MOL0     C11808   2.558   1.290   8.176  0.1285  0.4539 -0.5313
   88MOL0     C11809   2.463   1.366   8.155  1.0059  0.6110 -0.3147
   88MOL0     C11810   3.226   1.090   7.787 -0.4306 -0.3226 -0.3291
   88MOL0     C11811   3.346   1.102   7.722  0.4860  0.0114  0.2782
   88MOL0     C11812   3.360   1.016   7.595  0.8374  0.2244  0.3696
   88MOL0     H11813   3.825   1.412   7.692  0.1301 -0.0968  1.1993
   88MOL0     H11814   4.046   1.404   7.636  0.4657  1.0993  1.8696
   88MOL0     H11815   4.248   1.319   7.545 -2.0004 -1.2089 -0.4364
   88MOL0     H11816   4.299   1.358   7.717 -0.8166 -0.6404  0.4727
   88MOL0     H11817   4.426   1.150   7.519  1.8642 -0.9283  1.2808
   88MOL0     H11818   4.478   1.167   7.678 -1.5468 -3.3213 -1.3867
   88MOL0     H11819   4.537   1.400   7.636 -1.2704 -0.8301 -0.1079
   88MOL0     H11820   4.483   1.384   7.465  3.4061  0.4091 -1.4134
   88MOL0     H11821   4.714   1.232   7.587 -0.8897  0.9926 -1.0464
   88MOL0     H11822   4.638   1.206   7.420 -0.5312  1.7256 -2.4270
   88MOL0     H11823   4.692   1.483   7.433 -0.3660 -0.0194 -0.6176
   88MOL0     H11824   4.820   1.418   7.534  0.0943  1.0523 -0.7610
   88MOL0     H11825   4.917   1.288   7.355  0.2078  1.8860  3.0334
   88MOL0     H11826   4.775   1.298   7.246 -1.3875  0.1359  0.7176
   88MOL0     H11827   4.917   1.571   7.315 -3.5414  0.9676  1.0241
   88MOL0     H11828   4.796   1.533   7.207  1.1745  2.1811  0.2502
   88MOL0     H11829   4.959   1.394   7.077 -0.5260 -1.5887  1.8298
   88MOL0     H11830   4.981   1.570   7.089  0.7086  1.0361 -0.9235
   88MOL0     H11831   5.205   1.653   7.203  0.0618  0.4921  0.4725
   88MOL0     H11832   5.457   1.631   7.296 -0.7803  0.3652 -0.1018
   88MOL0     H11833   5.521   1.478   7.353 -3.8208  1.6507  1.4952
   88MOL0     H11834   5.613   1.415   7.156 -2.2405 -1.4344 -0.7235
   88MOL0     H11835   5.483   1.496   7.056 -0.4514 -1.9570 -0.5653
   88MOL0     H11836   5.576   1.721   7.127 -0.3288 -0.6434 -3.1358
   88MOL0     H11837   5.706   1.626   7.039  1.6279 -2.1915  0.8525
   88MOL0     H11838   5.798   1.556   7.261  1.5049  0.6869 -0.3328
   88MOL0     H11839   5.700   1.677   7.343  1.6013 -1.1236  2.0884
   88MOL0     H11840   5.898   1.701   7.486  0.4636 -3.5523 -0.2914
   88MOL0     H11841   6.114   1.737   7.583  0.9246 -1.1271 -0.9206
   88MOL0     H11842   6.354   1.862   7.855  0.3922  1.6223  1.1123
   88MOL0     H11843   6.526   1.912   7.988 -0.9028  0.4191 -0.2805
   88MOL0     H11844   6.714   1.981   8.064 -1.2045 -1.7166 -2.4556
   88MOL0     H11845   6.683   1.818   8.124  0.0563  0.7921  1.1117
   88MOL0     H11846   6.941   1.978   8.121  1.4954 -2.0678 -1.9477
   88MOL0     H11847   6.859   1.917   8.266  1.3730  1.5828 -0.3034
   88MOL0     H11848   6.897   1.685   8.188 -0.0712  1.2056  0.7593
   88MOL0     H11849   7.006   1.741   8.064 -2.1745  1.2869 -0.4122
   88MOL0     H11850   7.039   1.777   8.361 -2.6393 -1.5411 -0.7588
   88MOL0     H11851   7.143   1.853   8.233  0.4196 -1.0960 -0.3496
   88MOL0     H11852   7.224   1.652   8.138  0.5292  1.9257  0.3400
   88MOL0     H11853   7.112   1.558   8.223  0.6362  0.7708 -0.2879
   88MOL0     H11854   7.306   1.726   8.370 -0.1354 -0.6641 -0.7063
   88MOL0     H11855   7.224   1.585   8.437  0.3857 -1.2299 -0.1222
   88MOL0     H11856   7.475   1.568   8.380  2.2607 -0.0055 -2.1227
   88MOL0     H11857   7.454   1.590   8.213  1.8300 -0.0836  0.7354
   88MOL0     H11858   7.472   1.335   8.305 -1.0124 -2.4377 -0.6318
   88MOL0     H11859   7.307   1.355   8.357 -1.2557  1.9637 -0.4896
   88MOL0     H11860   6.805   1.759   7.698 -0.4522 -2.1013  0.9656
   88MOL0     H11861   6.646   1.753   7.539 -2.3811 -0.4060 -0.1897
   88MOL0     H11862   6.292   1.850   7.214 -0.3733  0.0756  0.5810
   88MOL0     H11863   6.074   1.818   7.101 -3.0904 -1.4012 -0.0717
   88MOL0     H11864   4.078   1.016   7.832 -0.9010 -1.0778  1.5756
   88MOL0     H11865   3.843   1.021   7.873  1.8218 -0.7840  0.1225
   88MOL0     H11866   3.488   1.332   7.931 -0.1202 -0.5708  0.8768
   88MOL0     H11867   3.282   1.301   8.064  2.8799 -2.3589  2.4013
   88MOL0     H11868   2.992   0.987   7.918 -2.1219 -0.9319  0.1154
   88MOL0     H11869   2.925   1.142   7.869 -0.3691 -0.2993  0.3691
   88MOL0     H11870   2.931   1.124   8.176 -1.0043 -0.0219  1.4652
   88MOL0     H11871   2.842   1.003   8.089  0.1936 -0.1457  2.1659
   88MOL0     H11872   2.700   1.183   7.985 -2.5304 -2.1243  1.7567
   88MOL0     H11873   2.792   1.302   8.085  0.9943 -0.7875 -0.6512
   88MOL0     H11874   2.609   1.082   8.175 -1.7817  0.6667  0.4431
   88MOL0     H11875   2.700   1.186   8.284 -3.2160 -0.2852  1.3529
   88MOL0     H11876   2.377   1.429   8.145  0.7249  0.2414 -0.2483
   88MOL0     H11877   3.154   1.020   7.746 -0.5024  0.8109 -2.3101
   88MOL0     H11878   3.285   0.937   7.596  1.3869 -0.3244  2.5670
   88MOL0     H11879   3.349   1.085   7.510 -0.3436 -3.1405 -2.4440
   88MOL0     H11880   3.459   0.973   7.611  0.4991 -0.2161  1.3339
   89MOL0     O11881   2.887   3.672  10.608  0.5738 -0.0676 -0.3761
   89MOL0     C11882   2.791   3.666  10.687 -0.3173 -0.2299  0.8971
   89MOL0     O11883   2.782   3.741  10.802  0.0460 -0.2413 -0.6670
   89MOL0     C11884   2.902   3.796  10.845 -0.0840 -0.3111  0.0019
   89MOL0     C11885   3.011   3.727  10.892 -0.6914  0.6062 -0.1628
   89MOL0     C11886   3.142   3.781  10.906 -0.8281 -0.6354 -0.0899
   89MOL0     C11887   3.159   3.913  10.863 -0.2265  0.7744 -0.2576
   89MOL0     O11888   3.293   3.942  10.859 -0.4017  0.2753  0.6145
   89MOL0     C11889   3.321   4.079  10.813  0.0614  0.0594  0.3036
   89MOL0     C11890   3.305   4.083  10.663 -0.1618 -0.4375  1.6121
   89MOL0     C11891   3.408   3.993  10.600  0.8297 -0.4114 -0.1181
   89MOL0     C11892   3.427   4.055  10.457  0.2254  0.3981 -0.9685
   89MOL0     C11893   3.543   3.996  10.384 -0.2407  0.0965  0.1181
   89MOL0     C11894   3.675   4.060  10.433 -0.7498  0.2581  0.0612
   89MOL0     C11895   3.794   3.967  10.377  0.4873 -0.5904  0.0312
   89MOL0     C11896   3.930   4.009  10.437  0.0070 -0.0619  0.9455
   89MOL0     N11897   3.958   4.150  10.401  0.3140  0.1205 -0.2830
   89MOL0     C11898   4.015   4.182  10.276 -0.4099 -0.5690 -0.7048
   89MOL0     C11899   4.038   4.316  10.286 -0.7405 -0.0251  0.6564
   89MOL0     C11900   4.081   4.403  10.164  0.0502  1.4421 -0.2953
   89MOL0     C11901   4.232   4.418  10.161  1.6071  0.6625 -0.3018
   89MOL0     C11902   4.264   4.489  10.033  0.7117  0.3952 -0.2061
   89MOL0     C11903   4.217   4.628  10.012 -0.1098 -0.5117 -0.1131
   89MOL0     O11904   4.293   4.705   9.912 -0.6445 -0.4725  0.3655
   89MOL0     C11905   4.428   4.717   9.947  0.5657  0.0273 -0.5842
   89MOL0     C11906   4.478   4.792  10.060 -0.2748  0.6630 -0.3530
   89MOL0     C11907   4.617   4.817  10.080 -0.3809 -0.3058 -1.1526
   89MOL0     C11908   4.706   4.782   9.972 -0.2653  0.6502 -1.0221
   89MOL0     C11909   4.850   4.804   9.984 -0.2714  0.0019 -1.0222
   89MOL0     O11910   4.901   4.870  10.098 -0.3073 -0.0583 -0.3000
   89MOL0     C11911   5.040   4.882  10.106 -0.1435  0.7776 -0.4097
   89MOL0     C11912   5.105   4.980  10.027  0.1492  0.1770 -0.3836
   89MOL0     C11913   5.241   4.999  10.036 -0.4602 -0.2015 -1.0456
   89MOL0     C11914   5.317   4.917  10.122 -0.4811 -0.0238 -0.7527
   89MOL0     O11915   5.452   4.948  10.129 -0.0774  0.0770  0.2304
   89MOL0     C11916   5.547   4.845  10.127 -0.5498 -0.6599  0.5408
   89MOL0     C11917   5.679   4.913  10.134 -0.1064 -0.4766  0.5095
   89MOL0     C11918   5.781   4.800  10.118 -0.1245  0.5998 -1.1003
   89MOL0     C11919   5.919   4.847  10.158  0.0518  0.4880  0.6399
   89MOL0     C11920   6.020   4.734  10.137  0.1668 -0.8331 -0.2048
   89MOL0     C11921   6.154   4.763  10.189 -0.0284  0.2241 -0.5417
   89MOL0     C11922   6.250   4.651  10.164 -0.9443  1.2442  0.6596
   89MOL0     C11923   6.389   4.696  10.197 -0.4043  0.0104  0.2818
   89MOL0    Cl11924   6.421   4.727  10.366 -0.3530 -0.1889 -0.1357
   89MOL0     C11925   5.255   4.817  10.189  0.5735  1.0676 -0.0745
   89MOL0     C11926   5.113   4.790  10.184  0.0518 -0.5167 -0.2888
   89MOL0     O11927   4.912   4.744   9.899 -0.4680 -0.2191 -0.1938
   89MOL0     C11928   4.659   4.716   9.862  0.7719  0.5059  0.1352
   89MOL0     C11929   4.525   4.680   9.852  0.0834  0.0453  0.4343
   89MOL0     N11930   4.033   4.348  10.420  0.8163 -0.3052 -0.4130
   89MOL0     N11931   3.977   4.253  10.491 -0.4693 -0.7719 -0.0797
   89MOL0     C11932   3.044   3.987  10.827  0.9473 -0.8862 -0.0358
   89MOL0     C11933   2.919   3.927  10.815 -0.5518  0.3595  0.8225
   89MOL0     C11934   2.682   3.574  10.661  0.3664 -0.7905 -0.1028
   89MOL0     C11935   2.562   3.595  10.734 -1.4834  1.4382 -0.5681
   89MOL0     C11936   2.452   3.514  10.723 -0.2742 -0.3143  0.2586
   89MOL0     C11937   2.466   3.390  10.650  0.2008  0.6017 -1.1625
   89MOL0     O11938   2.364   3.299  10.651  0.0338 -0.5989  0.1420
   89MOL0     C11939   2.326   3.227  10.536 -0.3669  0.0209 -0.0018
   89MOL0     C11940   2.279   3.322  10.420  1.1614  0.2784 -0.0819
   89MOL0     C11941   2.141   3.395  10.450  0.0321 -0.1891 -0.3388
   89MOL0     C11942   2.101   3.489  10.341 -0.0571  0.1064 -0.0569
   89MOL0     C11943   1.981   3.569  10.371  0.2023  0.7636 -0.7220
   89MOL0     C11944   1.885   3.639  10.403  0.0973 -0.0519 -0.2876
   89MOL0     C11945   2.583   3.370  10.579  0.3376  0.9519  0.0364
   89MOL0     C11946   2.691   3.459  10.576  1.4685  0.1274 -0.4961
   89MOL0     C11947   2.801   3.433  10.472 -0.1567  0.3943 -0.3134
   89MOL0     H11948   3.017   3.624  10.926  3.6123  0.9575  0.8175
   89MOL0     H11949   3.237   3.740  10.941 -1.8265 -0.3482  3.3872
   89MOL0     H11950   3.252   4.149  10.862 -2.0730 -0.2611 -2.0493
   89MOL0     H11951   3.422   4.119  10.823 -0.3235  2.5006 -3.6774
   89MOL0     H11952   3.328   4.187  10.637  1.4782 -0.3559  3.1591
   89MOL0     H11953   3.205   4.069  10.621 -1.1533  1.5995  3.0843
   89MOL0     H11954   3.357   3.896  10.592  0.5845 -0.2262 -0.8613
   89MOL0     H11955   3.497   3.993  10.665  0.1744  1.6223  0.8465
   89MOL0     H11956   3.333   4.035  10.406  0.9575 -2.7962 -1.3255
   89MOL0     H11957   3.441   4.163  10.454 -1.0978  0.5520 -2.3172
   89MOL0     H11958   3.546   3.889  10.404  1.6583  0.3053  1.1745
   89MOL0     H11959   3.528   4.007  10.277 -2.8383 -2.9272  0.0397
   89MOL0     H11960   3.675   4.156  10.381 -5.0323  0.4355  0.0721
   89MOL0     H11961   3.687   4.068  10.542 -0.4422  0.1980  0.0335
   89MOL0     H11962   3.807   3.977  10.269 -0.2016 -2.2376 -0.2355
   89MOL0     H11963   3.769   3.866  10.412 -2.8808  0.5861  1.4509
   89MOL0     H11964   3.930   4.005  10.546 -1.7181  2.3652  1.1230
   89MOL0     H11965   4.002   3.936  10.400 -2.0888 -2.7957  1.9465
   89MOL0     H11966   4.028   4.125  10.184  0.2535 -2.9769  0.7823
   89MOL0     H11967   4.054   4.364  10.066  1.8391  0.7487 -0.5529
   89MOL0     H11968   4.031   4.499  10.177 -2.5417  0.4119 -1.9605
   89MOL0     H11969   4.274   4.467  10.249 -0.5346 -1.2999  1.9759
   89MOL0     H11970   4.279   4.320  10.151 -1.9217 -1.2961  0.4744
   89MOL0     H11971   4.224   4.436   9.946 -1.8291  0.2524  0.9378
   89MOL0     H11972   4.373   4.488  10.036  0.6961 -0.6396  1.7948
   89MOL0     H11973   4.220   4.681  10.108  0.3328 -1.6192  0.5065
   89MOL0     H11974   4.115   4.619   9.973 -0.5992  0.9416  0.7580
   89MOL0     H11975   4.411   4.813  10.143 -0.7029  2.4913 -1.1158
   89MOL0     H11976   4.637   4.867  10.174 -1.9705 -1.3987 -0.2023
   89MOL0     H11977   5.044   5.037   9.958 -1.6838 -1.1903  0.0367
   89MOL0     H11978   5.296   5.069   9.975 -1.2266  1.1226 -0.2609
   89MOL0     H11979   5.539   4.777  10.212 -1.8256 -0.9492  0.2131
   89MOL0     H11980   5.541   4.788  10.034  2.0645  0.4469 -0.4157
   89MOL0     H11981   5.682   4.991  10.057 -4.8570 -0.2400  0.2429
   89MOL0     H11982   5.688   4.967  10.228  0.1196  0.4582 -0.0298
   89MOL0     H11983   5.757   4.715  10.183  1.7587 -0.1033 -1.2591
   89MOL0     H11984   5.774   4.758  10.017 -2.5822  1.8719 -1.5579
   89MOL0     H11985   5.915   4.878  10.263  1.5798 -1.1802  1.2406
   89MOL0     H11986   5.936   4.930  10.088 -0.7333 -0.4430 -0.7123
   89MOL0     H11987   6.023   4.723  10.028 -0.5727  2.7195 -0.7061
   89MOL0     H11988   5.990   4.637  10.177 -0.8714  0.2274  1.7149
   89MOL0     H11989   6.177   4.864  10.154  0.0496  0.7043  0.8256
   89MOL0     H11990   6.144   4.772  10.297  0.0643  2.8864 -0.6891
   89MOL0     H11991   6.248   4.621  10.059  0.9251 -0.8837  1.1551
   89MOL0     H11992   6.216   4.562  10.218  0.5704  0.9362  1.1561
   89MOL0     H11993   6.452   4.617  10.155 -0.6290 -0.1149  0.1826
   89MOL0     H11994   6.402   4.783  10.132 -1.5141  0.9600  1.2874
   89MOL0     H11995   5.305   4.735  10.240  0.3439  0.5765 -0.6260
   89MOL0     H11996   5.068   4.702  10.228 -2.3166  0.6411 -0.2551
   89MOL0     H11997   4.724   4.696   9.778  0.0247 -2.6019  0.1672
   89MOL0     H11998   4.492   4.629   9.762  1.6054 -0.5150  0.1683
   89MOL0     H11999   3.050   4.092  10.798  2.2377 -0.8932  0.1526
   89MOL0     H12000   2.833   3.976  10.770 -0.1150  0.4927  0.1124
   89MOL0     H12001   2.550   3.676  10.805 -2.8848  1.0551 -0.3400
   89MOL0     H12002   2.361   3.545  10.774  0.8217 -0.7895  2.6069
   89MOL0     H12003   2.246   3.159  10.567  1.0845 -1.1908  1.2123
   89MOL0     H12004   2.410   3.167  10.499  0.7713  0.7189  1.3680
   89MOL0     H12005   2.280   3.268  10.325  0.5967  0.4965 -0.2192
   89MOL0     H12006   2.356   3.397  10.401  1.1889  0.2231 -0.1904
   89MOL0     H12007   2.145   3.448  10.546 -2.4407 -1.7790  0.7452
   89MOL0     H12008   2.069   3.314  10.464  0.5495 -0.7468 -0.8714
   89MOL0     H12009   2.191   3.551  10.332  0.6774 -1.0985 -1.3998
   89MOL0     H12010   2.084   3.450  10.241  2.4983 -0.2175 -0.4181
   89MOL0     H12011   1.803   3.697  10.440  0.9372 -0.4587  2.4357
   89MOL0     H12012   2.604   3.284  10.516  0.9412  1.4877 -0.5023
   89MOL0     H12013   2.804   3.325  10.458 -1.2970  0.0817  1.5340
   89MOL0     H12014   2.798   3.486  10.376  3.4128 -2.1116 -2.0165
   89MOL0     H12015   2.892   3.459  10.528 -2.3704 -1.0496  4.5525
   90MOL0     O12016   2.573   7.466   6.821 -0.6574  1.1700 -0.3947
   90MOL0     C12017   2.487   7.553   6.850 -0.0139 -0.4830 -0.3341
   90MOL0     O12018   2.518   7.682   6.897 -0.6129  0.6604  0.5224
   90MOL0     C12019   2.649   7.711   6.912  0.7077  0.4108  0.2661
   90MOL0     C12020   2.734   7.732   6.801 -1.4218  0.1782  0.3767
   90MOL0     C12021   2.865   7.784   6.824 -0.2497  1.2107 -0.6044
   90MOL0     C12022   2.923   7.788   6.950  0.3392  0.1375 -0.2001
   90MOL0     O12023   3.055   7.825   6.953 -0.7580 -0.0721 -0.1250
   90MOL0     C12024   3.140   7.754   7.045  0.4326 -0.1471  0.4795
   90MOL0     C12025   3.281   7.778   6.998  0.1391  0.7697  0.9726
   90MOL0     C12026   3.394   7.679   7.046  0.1864 -0.5508 -0.3266
   90MOL0     C12027   3.525   7.730   7.009 -1.0460 -0.0383 -0.0212
   90MOL0     C12028   3.632   7.676   7.095 -0.4448  0.4162 -0.2815
   90MOL0     C12029   3.764   7.741   7.072 -0.4163  0.0515  0.5995
   90MOL0     C12030   3.886   7.677   7.152  0.2065  0.0222  0.0208
   90MOL0     C12031   4.009   7.737   7.088  0.3307  0.8991 -1.3268
   90MOL0     N12032   4.135   7.703   7.162  0.1756 -0.3779 -0.1078
   90MOL0     C12033   4.163   7.618   7.265 -0.5966 -0.0016 -0.7845
   90MOL0     C12034   4.299   7.625   7.269 -0.9231  0.3397 -0.4774
   90MOL0     C12035   4.394   7.552   7.371 -0.0781 -0.0882 -0.0022
   90MOL0     C12036   4.386   7.610   7.511 -0.4530  0.1301  0.4098
   90MOL0     C12037   4.486   7.543   7.604 -0.3324 -0.5726  0.5804
   90MOL0     C12038   4.465   7.591   7.745  0.1679 -0.0348 -0.0924
   90MOL0     O12039   4.467   7.732   7.747 -1.0256 -0.2005  0.4677
   90MOL0     C12040   4.598   7.788   7.756  0.1604 -0.4922 -1.2692
   90MOL0     C12041   4.604   7.924   7.726 -1.0269 -0.6011  0.2301
   90MOL0     C12042   4.729   7.991   7.728 -0.6315  0.1603  0.0606
   90MOL0     C12043   4.847   7.922   7.777  0.0095  0.0898  0.4397
   90MOL0     C12044   4.970   7.995   7.765 -0.2944 -0.2596 -0.3157
   90MOL0     O12045   5.067   7.975   7.855 -0.4938 -0.1602  0.2667
   90MOL0     C12046   5.188   8.036   7.826 -0.0989 -0.1117 -0.5412
   90MOL0     C12047   5.207   8.173   7.834 -0.4518  0.5700  0.1118
   90MOL0     C12048   5.333   8.231   7.818 -0.2275 -0.8396  0.1729
   90MOL0     C12049   5.442   8.140   7.780  0.6317 -0.0361 -0.1260
   90MOL0     O12050   5.570   8.177   7.758 -0.3648  0.5851  0.2649
   90MOL0     C12051   5.613   8.304   7.812 -0.2552  1.1058  0.4688
   90MOL0     C12052   5.755   8.333   7.756  0.2288  0.1146 -0.1527
   90MOL0     C12053   5.867   8.227   7.784 -0.6281 -0.2155 -0.1332
   90MOL0     C12054   6.006   8.271   7.730  0.1207  0.1383  1.0282
   90MOL0     C12055   6.086   8.382   7.794 -0.1706  0.0925  0.2418
   90MOL0     C12056   6.228   8.398   7.722 -0.2969 -0.1063 -0.1137
   90MOL0     C12057   6.319   8.508   7.783 -0.0174 -0.0598  0.0419
   90MOL0     C12058   6.364   8.482   7.931  0.5072 -0.1441 -0.4105
   90MOL0    Cl12059   6.392   8.652   8.008 -0.0786 -0.0633  0.4552
   90MOL0     C12060   5.415   8.003   7.756  0.0146  0.3049 -1.2687
   90MOL0     C12061   5.295   7.948   7.797 -0.3360 -0.1251 -0.1058
   90MOL0     O12062   4.982   8.073   7.670 -0.2764  0.4444  0.3114
   90MOL0     C12063   4.842   7.792   7.809 -0.6314 -0.4989 -0.7336
   90MOL0     C12064   4.717   7.731   7.792  0.1311 -0.3587 -1.1650
   90MOL0     N12065   4.348   7.719   7.186 -0.5683 -0.6247  0.3683
   90MOL0     N12066   4.250   7.761   7.114 -0.1784 -0.0871 -0.0517
   90MOL0     C12067   2.833   7.768   7.060  0.6869 -1.2031  0.0209
   90MOL0     C12068   2.699   7.737   7.031  0.3724  0.1594 -0.4336
   90MOL0     C12069   2.346   7.507   6.838 -1.3038 -0.2157  0.1547
   90MOL0     C12070   2.320   7.385   6.776 -0.4706  0.1216 -0.8018
   90MOL0     C12071   2.184   7.338   6.776 -0.3740  0.0076  0.3261
   90MOL0     C12072   2.082   7.417   6.819  1.1920 -0.0622  0.4259
   90MOL0     O12073   1.951   7.367   6.817 -0.8992 -0.5182  0.4136
   90MOL0     C12074   1.837   7.455   6.815 -0.3777 -0.0529 -0.2902
   90MOL0     C12075   1.716   7.364   6.785  0.2146  0.5408  0.4469
   90MOL0     C12076   1.699   7.302   6.638 -0.7410  0.0128 -0.8073
   90MOL0     C12077   1.789   7.181   6.615 -0.1981  0.3027 -0.5019
   90MOL0     C12078   1.749   7.110   6.494  1.0105  0.4198 -1.0642
   90MOL0     C12079   1.741   7.040   6.393 -0.7717 -0.6372 -0.8176
   90MOL0     C12080   2.105   7.540   6.875  0.3425 -0.0243  0.2171
   90MOL0     C12081   2.237   7.584   6.895  0.2325  0.2780 -0.0269
   90MOL0     C12082   2.251   7.702   6.972  0.1342 -1.4624 -0.4147
   90MOL0     H12083   2.705   7.710   6.699  1.3663 -0.3263 -0.3866
   90MOL0     H12084   2.935   7.818   6.749  1.6215 -5.7032 -2.7773
   90MOL0     H12085   3.133   7.788   7.149  4.9843 -1.2345  1.3510
   90MOL0     H12086   3.110   7.649   7.038  1.4945 -0.3741 -1.3149
   90MOL0     H12087   3.300   7.883   7.023  4.4503 -0.0408  1.9571
   90MOL0     H12088   3.285   7.765   6.889  1.0210 -2.4757  1.2858
   90MOL0     H12089   3.376   7.581   7.003 -2.2806 -1.0574  1.6416
   90MOL0     H12090   3.381   7.653   7.152  2.1587  2.3606  0.7673
   90MOL0     H12091   3.554   7.697   6.909  2.8272  0.2390  0.8555
   90MOL0     H12092   3.531   7.839   7.013  2.0661 -0.1625  1.2858
   90MOL0     H12093   3.600   7.708   7.195 -0.3398 -0.3491  0.0093
   90MOL0     H12094   3.644   7.569   7.077  0.3890  0.5742 -0.6648
   90MOL0     H12095   3.792   7.730   6.967  1.2537 -0.9492  1.1032
   90MOL0     H12096   3.767   7.849   7.090 -0.5829  0.4523 -1.5159
   90MOL0     H12097   3.893   7.569   7.133 -1.0599  0.1524 -1.4553
   90MOL0     H12098   3.878   7.696   7.259  0.2226 -0.0439  0.0338
   90MOL0     H12099   4.027   7.698   6.987  4.0697 -3.7534  0.7271
   90MOL0     H12100   3.993   7.845   7.090 -2.3082  0.5854 -1.5399
   90MOL0     H12101   4.099   7.557   7.328  1.5811 -3.4085 -1.6481
   90MOL0     H12102   4.363   7.447   7.378 -1.5561  0.2771 -0.5732
   90MOL0     H12103   4.499   7.554   7.340 -0.0707 -1.1414 -0.0858
   90MOL0     H12104   4.407   7.717   7.500  2.2191 -0.1290  2.0608
   90MOL0     H12105   4.284   7.600   7.550 -0.3672 -1.3024  0.2962
   90MOL0     H12106   4.592   7.556   7.581 -0.8628 -0.7751 -2.4549
   90MOL0     H12107   4.471   7.435   7.619  0.1999 -0.3664  3.0253
   90MOL0     H12108   4.532   7.541   7.815  1.4981  1.7956  0.0216
   90MOL0     H12109   4.373   7.557   7.792  0.7022  1.2654  2.0560
   90MOL0     H12110   4.504   7.956   7.698 -1.1175 -2.0776 -1.2617
   90MOL0     H12111   4.734   8.095   7.698 -0.6317 -0.1407 -1.0124
   90MOL0     H12112   5.123   8.239   7.856  0.0665  0.9638  0.9371
   90MOL0     H12113   5.353   8.336   7.838  1.9792 -0.8098 -1.7310
   90MOL0     H12114   5.548   8.385   7.780 -0.6842  0.5771 -0.0058
   90MOL0     H12115   5.622   8.301   7.921  0.5040  2.8207  0.4877
   90MOL0     H12116   5.730   8.347   7.651 -2.5617 -4.6660 -0.4115
   90MOL0     H12117   5.801   8.425   7.794  0.4740  0.2272 -0.7106
   90MOL0     H12118   5.888   8.209   7.890 -1.1044 -1.2592 -0.2006
   90MOL0     H12119   5.831   8.131   7.745  0.2869 -1.5477  2.0722
   90MOL0     H12120   5.998   8.294   7.624 -0.7235 -1.3748  0.7406
   90MOL0     H12121   6.060   8.176   7.735 -1.9181 -1.0439  1.8508
   90MOL0     H12122   6.113   8.343   7.892  3.0462  0.2238 -0.4880
   90MOL0     H12123   6.028   8.474   7.793  0.5608  0.6403 -2.8434
   90MOL0     H12124   6.279   8.302   7.717 -1.8975 -0.9376 -1.4060
   90MOL0     H12125   6.201   8.435   7.623 -2.8555  0.4133  0.6966
   90MOL0     H12126   6.268   8.604   7.789 -0.1993 -0.1877  0.5358
   90MOL0     H12127   6.404   8.530   7.717  0.9381 -0.7314  1.0165
   90MOL0     H12128   6.279   8.435   7.980  1.7650 -1.0824  0.9431
   90MOL0     H12129   6.453   8.419   7.936 -0.7262 -2.2726 -2.8379
   90MOL0     H12130   5.487   7.934   7.713  2.2740  0.5379  1.7622
   90MOL0     H12131   5.269   7.843   7.786  1.7005 -0.8509  1.4184
   90MOL0     H12132   4.934   7.746   7.845 -0.5400 -1.7501 -2.4044
   90MOL0     H12133   4.717   7.629   7.828  0.7271  0.0736  0.1195
   90MOL0     H12134   2.879   7.780   7.157  3.3689  0.6417 -1.3478
   90MOL0     H12135   2.619   7.736   7.104  0.6171  1.2326 -0.1250
   90MOL0     H12136   2.387   7.307   6.741 -3.5143 -3.8971  1.3533
   90MOL0     H12137   2.168   7.238   6.738  2.0138 -1.4368  2.7416
   90MOL0     H12138   1.850   7.534   6.741  0.6859  1.0405  1.0004
   90MOL0     H12139   1.824   7.503   6.913  0.0484  2.6256 -1.4702
   90MOL0     H12140   1.630   7.430   6.801 -0.4624 -0.5346  1.3915
   90MOL0     H12141   1.708   7.290   6.866  2.0158  0.2268  0.3819
   90MOL0     H12142   1.714   7.382   6.565 -1.2978  2.9408  2.0669
   90MOL0     H12143   1.594   7.271   6.637 -1.1400  0.5444  3.6163
   90MOL0     H12144   1.894   7.210   6.624  0.6584 -1.3202 -3.7371
   90MOL0     H12145   1.781   7.106   6.695 -0.4237  0.0880 -0.7222
   90MOL0     H12146   1.728   6.982   6.305 -1.8868 -0.7709 -0.5823
   90MOL0     H12147   2.023   7.606   6.905  1.2792  1.3594 -0.1530
   90MOL0     H12148   2.322   7.683   7.053  0.4829 -1.1873 -0.6511
   90MOL0     H12149   2.290   7.781   6.908  1.9034 -2.1461 -0.2494
   90MOL0     H12150   2.165   7.752   7.017 -0.1223 -0.6543 -1.7484
   91MOL0     O12151   9.310  10.335   1.537 -0.3396 -0.0091  0.1378
   91MOL0     C12152   9.287  10.237   1.469  0.6167  0.4522  0.3842
   91MOL0     O12153   9.380  10.151   1.415  0.3666  0.3361 -0.7058
   91MOL0     C12154   9.512  10.169   1.454  0.2555 -0.7146  0.0844
   91MOL0     C12155   9.603  10.178   1.349 -0.5492 -0.0027 -0.0552
   91MOL0     C12156   9.737  10.196   1.394  0.2899 -0.1521 -0.2483
   91MOL0     C12157   9.772  10.196   1.532 -0.1369 -0.2078  0.0728
   91MOL0     O12158   9.903  10.204   1.581 -0.9106 -0.0467  0.5352
   91MOL0     C12159  10.017  10.245   1.499 -0.8157  0.4600  0.4152
   91MOL0     C12160  10.125  10.306   1.592  0.6204 -0.3956  0.0677
   91MOL0     C12161  10.222  10.373   1.498 -0.0696  0.3085  0.0079
   91MOL0     C12162  10.362  10.409   1.564  0.4137  0.3634 -1.1311
   91MOL0     C12163  10.481  10.442   1.473  0.2769  0.7275 -0.3500
   91MOL0     C12164  10.602  10.471   1.559 -0.2335  0.5331 -0.0190
   91MOL0     C12165  10.727  10.486   1.473 -0.1919  0.1507  0.6850
   91MOL0     C12166  10.844  10.533   1.561 -0.1396  0.0629 -0.2178
   91MOL0     N12167  10.970  10.545   1.485  0.6050  1.1696 -0.4044
   91MOL0     C12168  10.981  10.601   1.353 -0.4789 -0.3265  0.3207
   91MOL0     C12169  11.113  10.600   1.336 -0.6495  0.6530  0.2407
   91MOL0     C12170  11.166  10.644   1.208 -0.2185 -0.3382  0.2956
   91MOL0     C12171  11.317  10.672   1.236  0.0871 -0.9949  0.2902
   91MOL0     C12172  11.391  10.720   1.113  0.2700 -0.3137 -1.7566
   91MOL0     C12173  11.535  10.771   1.146 -0.2496 -0.2594 -0.0286
   91MOL0     O12174  11.578  10.849   1.036 -0.1748  0.3918 -0.1064
   91MOL0     C12175  11.712  10.892   1.045  0.7270 -0.3677 -0.1736
   91MOL0     C12176  11.815  10.818   1.094 -0.5571  0.1664 -0.2661
   91MOL0     C12177  11.953  10.852   1.087  0.6606  0.7126 -0.3974
   91MOL0     C12178  11.984  10.985   1.038  0.0287  0.3275 -0.2162
   91MOL0     C12179  12.124  11.033   1.025 -0.4156 -0.2414  0.8094
   91MOL0     O12180  12.208  10.995   1.124 -0.5188 -0.8894  0.0242
   91MOL0     C12181  12.335  11.055   1.117 -0.6245 -0.0863 -0.9227
   91MOL0     C12182  12.349  11.171   1.189  0.0733 -0.4093 -0.1791
   91MOL0     C12183  12.479  11.235   1.195  0.7189 -0.3966 -1.3344
   91MOL0     C12184  12.593  11.180   1.139  0.6899  0.0642  0.5050
   91MOL0     O12185  12.715  11.246   1.144 -0.6151 -1.3226 -0.3384
   91MOL0     C12186  12.731  11.342   1.247  0.8590  0.0190 -0.1883
   91MOL0     C12187  12.870  11.378   1.278  0.4230  0.5694  1.0012
   91MOL0     C12188  12.959  11.251   1.307  0.5150  0.5091 -0.7482
   91MOL0     C12189  12.958  11.211   1.457 -0.6905  0.5318 -0.4608
   91MOL0     C12190  13.030  11.067   1.478  0.8330 -0.0364 -0.0448
   91MOL0     C12191  13.184  11.071   1.486 -0.0296  0.6592  0.6965
   91MOL0     C12192  13.258  10.939   1.495  0.1595 -0.1129 -0.5454
   91MOL0     C12193  13.411  10.947   1.510 -0.2576 -0.3909  0.7506
   91MOL0    Cl12194  13.449  11.031   1.650  0.1290  0.0704  0.3342
   91MOL0     C12195  12.575  11.065   1.055 -0.0139 -0.0148  0.4594
   91MOL0     C12196  12.442  11.010   1.043 -0.2338 -0.1311  0.0266
   91MOL0     O12197  12.148  11.113   0.930 -0.0448 -0.5083 -0.5236
   91MOL0     C12198  11.877  11.061   0.988 -0.7668  0.9462  0.8100
   91MOL0     C12199  11.744  11.012   0.986  0.2554 -0.3140 -0.1876
   91MOL0     N12200  11.186  10.537   1.440  0.1039  0.4568  0.0156
   91MOL0     N12201  11.098  10.512   1.527  0.2173 -0.5076 -0.5280
   91MOL0     C12202   9.674  10.190   1.631 -0.5312  0.6730 -0.1499
   91MOL0     C12203   9.543  10.165   1.589 -0.6523  0.2788 -0.0811
   91MOL0     C12204   9.144  10.202   1.442 -0.0919 -0.5473  0.5602
   91MOL0     C12205   9.116  10.065   1.414  0.9709  0.4549  0.0571
   91MOL0     C12206   8.984  10.013   1.398 -0.3336 -0.7154  0.2008
   91MOL0     C12207   8.874  10.102   1.431  0.1149 -0.0670 -0.2194
   91MOL0     O12208   8.742  10.058   1.434  0.7940 -0.2413 -0.3663
   91MOL0     C12209   8.714   9.927   1.445 -0.3438  0.4610 -0.9710
   91MOL0     C12210   8.562   9.905   1.441  0.0413 -0.0244 -0.6100
   91MOL0     C12211   8.498   9.979   1.563 -0.3307 -0.0778 -0.0249
   91MOL0     C12212   8.364   9.920   1.610  0.3291  1.0451  0.9917
   91MOL0     C12213   8.247   9.955   1.520 -0.2210 -0.9859 -0.3443
   91MOL0     C12214   8.142   9.990   1.472 -0.2435 -0.1832 -0.5201
   91MOL0     C12215   8.899  10.237   1.437  0.1256 -0.1324  0.3931
   91MOL0     C12216   9.033  10.287   1.444  0.7605  0.3816 -0.0716
   91MOL0     C12217   9.049  10.434   1.479  0.6172  0.1885  0.0764
   91MOL0     H12218   9.572  10.161   1.247 -0.2122 -2.1615  0.1667
   91MOL0     H12219   9.816  10.211   1.321  0.1816 -3.7869 -1.3006
   91MOL0     H12220  10.061  10.157   1.450 -2.7071 -1.2527  1.6061
   91MOL0     H12221   9.982  10.315   1.423 -2.2669 -1.2936 -0.6192
   91MOL0     H12222  10.170  10.218   1.639  0.7163  0.0042  0.7378
   91MOL0     H12223  10.094  10.383   1.663  2.2439  3.1858 -2.8163
   91MOL0     H12224  10.186  10.455   1.434 -0.9546 -0.1913 -0.1464
   91MOL0     H12225  10.244  10.300   1.420 -0.1136 -0.1136  0.3929
   91MOL0     H12226  10.353  10.485   1.643 -0.6027 -1.4015  0.5722
   91MOL0     H12227  10.395  10.324   1.625 -0.5852  0.6240 -0.1917
   91MOL0     H12228  10.505  10.363   1.402 -0.3045 -1.4377  1.7505
   91MOL0     H12229  10.461  10.538   1.424  3.5069  0.9542 -1.4784
   91MOL0     H12230  10.577  10.561   1.617 -3.6610 -0.8244  0.8576
   91MOL0     H12231  10.611  10.385   1.625 -1.7493  1.0805  0.9484
   91MOL0     H12232  10.718  10.559   1.392 -0.8272 -0.8706 -0.1996
   91MOL0     H12233  10.728  10.387   1.425 -4.0013 -0.3814  1.3876
   91MOL0     H12234  10.826  10.630   1.609 -0.1852 -0.4845  0.9190
   91MOL0     H12235  10.871  10.446   1.622  2.4328 -0.0718 -1.4283
   91MOL0     H12236  10.912  10.632   1.275 -0.7912 -0.5096  0.5232
   91MOL0     H12237  11.167  10.568   1.129 -0.7995  0.5902 -0.6327
   91MOL0     H12238  11.109  10.733   1.179  2.1199  1.4608  0.9824
   91MOL0     H12239  11.325  10.753   1.310  0.3897 -0.4768 -0.2976
   91MOL0     H12240  11.365  10.580   1.269  1.5657 -0.0057  1.0546
   91MOL0     H12241  11.342  10.805   1.065  1.1009  1.6908  0.7210
   91MOL0     H12242  11.393  10.637   1.042 -1.2300 -3.6422  1.7134
   91MOL0     H12243  11.594  10.678   1.152  0.9962  0.5496  0.7006
   91MOL0     H12244  11.541  10.829   1.238 -0.9997 -0.7200  0.3275
   91MOL0     H12245  11.790  10.721   1.136 -2.7187  0.1063 -1.5370
   91MOL0     H12246  12.030  10.789   1.129 -0.1688 -0.4137 -0.5205
   91MOL0     H12247  12.266  11.214   1.243 -2.3854 -1.2685 -2.9959
   91MOL0     H12248  12.491  11.319   1.263 -0.0069  0.3402 -2.0854
   91MOL0     H12249  12.668  11.431   1.247 -0.2421 -0.7071  1.3078
   91MOL0     H12250  12.695  11.288   1.336  0.0047 -0.5089 -0.8370
   91MOL0     H12251  12.919  11.437   1.199 -1.0326  3.4871  2.1424
   91MOL0     H12252  12.866  11.449   1.361  1.3239  1.4527  0.3166
   91MOL0     H12253  12.930  11.170   1.239  0.7006  0.1653 -0.4241
   91MOL0     H12254  13.064  11.265   1.281  1.2860 -0.7116  1.4772
   91MOL0     H12255  12.856  11.224   1.495  0.3962  2.9982  2.0241
   91MOL0     H12256  13.014  11.280   1.522 -0.9552  0.9812 -0.7023
   91MOL0     H12257  12.988  10.998   1.404 -2.5373  0.0286  1.6184
   91MOL0     H12258  12.999  11.024   1.573  0.1778  2.9249  1.1953
   91MOL0     H12259  13.213  11.132   1.400 -2.6335  1.0194 -0.0079
   91MOL0     H12260  13.209  11.129   1.576 -1.4846 -0.0525  1.5869
   91MOL0     H12261  13.235  10.890   1.399  1.2463  0.0465 -0.8943
   91MOL0     H12262  13.211  10.873   1.568 -1.3257 -2.2072 -3.1651
   91MOL0     H12263  13.453  10.846   1.515 -1.0442 -0.7505  0.3766
   91MOL0     H12264  13.446  11.003   1.423 -0.0449  0.3579  1.3074
   91MOL0     H12265  12.663  11.024   1.006 -0.0600 -1.1010  1.2582
   91MOL0     H12266  12.442  10.918   0.985  0.8360 -1.3083  1.7862
   91MOL0     H12267  11.910  11.152   0.938 -2.2521  0.6024 -0.9316
   91MOL0     H12268  11.669  11.075   0.939  1.5364  1.7710  0.3838
   91MOL0     H12269   9.705  10.193   1.735  0.3030  0.8226 -0.3938
   91MOL0     H12270   9.475  10.153   1.673 -2.2115  2.0277 -1.0148
   91MOL0     H12271   9.195   9.991   1.414  1.0719  0.5634  0.2661
   91MOL0     H12272   8.983   9.907   1.376  1.8412 -0.7180 -0.1419
   91MOL0     H12273   8.755   9.888   1.538 -1.7920  0.4819 -0.2982
   91MOL0     H12274   8.751   9.865   1.362 -2.4826 -1.7340 -0.4041
   91MOL0     H12275   8.547   9.797   1.454 -1.2682 -0.2524 -3.3154
   91MOL0     H12276   8.520   9.932   1.344 -1.0429 -0.7323 -0.3520
   91MOL0     H12277   8.485  10.086   1.546  1.2345  0.6288  2.6524
   91MOL0     H12278   8.565   9.977   1.650 -2.2483  0.2755  1.5293
   91MOL0     H12279   8.362   9.811   1.616 -1.4657  1.1317  4.4216
   91MOL0     H12280   8.351   9.935   1.717  1.2859 -1.2067  1.4815
   91MOL0     H12281   8.050  10.033   1.438  0.3580  1.5667 -0.0592
   91MOL0     H12282   8.808  10.295   1.441 -0.6926 -1.4496  3.0293
   91MOL0     H12283   9.134  10.475   1.424  1.8273  0.1373  1.8265
   91MOL0     H12284   8.959  10.491   1.456 -0.6338 -1.2047  1.2482
   91MOL0     H12285   9.086  10.445   1.581  0.8221 -0.5679  0.0932
   92MOL0     O12286   8.340   2.698   5.818  0.2136  0.7227 -0.3712
   92MOL0     C12287   8.320   2.675   5.938 -0.4210 -0.4028  0.7396
   92MOL0     O12288   8.413   2.704   6.036 -0.1179 -1.2037 -0.9260
   92MOL0     C12289   8.524   2.789   6.019  0.6916  0.4163 -0.4381
   92MOL0     C12290   8.528   2.892   5.915 -0.4888  0.0188  0.1004
   92MOL0     C12291   8.645   2.955   5.883  0.1788 -0.0602 -0.1158
   92MOL0     C12292   8.759   2.935   5.970  0.1537  0.8531  0.4041
   92MOL0     O12293   8.878   2.997   5.953  0.1120 -0.1504  0.0240
   92MOL0     C12294   8.951   2.985   5.830 -0.1490  0.0726  0.3380
   92MOL0     C12295   9.077   3.061   5.843  0.7011 -0.3536 -0.8538
   92MOL0     C12296   9.174   3.058   5.731  0.8891  0.1351 -0.4610
   92MOL0     C12297   9.295   3.139   5.758  0.1981 -0.0514 -0.6859
   92MOL0     C12298   9.387   3.143   5.637 -1.0537 -0.3066 -0.0576
   92MOL0     C12299   9.498   3.251   5.676  0.2065  0.7549 -0.6103
   92MOL0     C12300   9.596   3.284   5.554  0.4565 -0.0242 -1.4440
   92MOL0     C12301   9.721   3.367   5.586 -0.3655 -0.1766  0.4630
   92MOL0     N12302   9.681   3.508   5.611 -0.1392  0.4683  0.0632
   92MOL0     C12303   9.620   3.591   5.521 -0.2253 -0.6337  0.0903
   92MOL0     C12304   9.582   3.701   5.596  0.5920 -0.0488  0.4238
   92MOL0     C12305   9.512   3.833   5.557 -0.2993 -0.0326  0.7664
   92MOL0     C12306   9.608   3.936   5.502  0.2542 -0.1050 -0.7948
   92MOL0     C12307   9.679   3.907   5.366 -0.3074  0.5574 -0.0300
   92MOL0     C12308   9.794   4.003   5.329 -0.0087 -0.0852 -0.2494
   92MOL0     O12309   9.902   3.979   5.423  0.3261 -0.1738 -0.4652
   92MOL0     C12310  10.016   4.040   5.396  0.5882 -0.3471 -0.1011
   92MOL0     C12311  10.124   3.965   5.424 -0.5740 -0.3630 -0.3348
   92MOL0     C12312  10.253   4.012   5.404 -0.2365  0.4758  0.8395
   92MOL0     C12313  10.271   4.138   5.343  0.1079 -0.3207  0.5747
   92MOL0     C12314  10.410   4.183   5.308  0.5883 -0.3107  0.1064
   92MOL0     O12315  10.505   4.092   5.343  0.5628 -0.0737 -0.3972
   92MOL0     C12316  10.643   4.106   5.309 -0.1355  0.3269  0.1615
   92MOL0     C12317  10.738   4.063   5.391 -0.4712  0.6104  0.5292
   92MOL0     C12318  10.873   4.083   5.356  0.2711 -0.2718 -0.2369
   92MOL0     C12319  10.912   4.130   5.231  0.1536 -0.3125 -0.1396
   92MOL0     O12320  11.033   4.148   5.178  0.2686 -0.5830 -0.1963
   92MOL0     C12321  11.144   4.137   5.262 -0.2505  0.4095 -0.6390
   92MOL0     C12322  11.281   4.167   5.192  0.6937  0.5529  0.0303
   92MOL0     C12323  11.403   4.155   5.287  0.5818 -0.8212 -0.4382
   92MOL0     C12324  11.528   4.189   5.206 -0.8261  0.5058 -0.7356
   92MOL0     C12325  11.657   4.195   5.284  0.4139  0.4674 -0.4953
   92MOL0     C12326  11.715   4.066   5.326 -0.2890  0.5405 -0.0735
   92MOL0     C12327  11.733   3.947   5.234  0.3341 -0.0131  0.9672
   92MOL0     C12328  11.842   3.963   5.129 -0.8264 -0.0546 -0.0793
   92MOL0    Cl12329  12.005   4.010   5.201 -0.4314 -0.1869 -0.0591
   92MOL0     C12330  10.813   4.170   5.144  0.6494 -1.1571 -0.2331
   92MOL0     C12331  10.675   4.155   5.181 -0.7129  0.4339 -0.3879
   92MOL0     O12332  10.426   4.307   5.290 -0.1450 -0.3888  0.3897
   92MOL0     C12333  10.157   4.223   5.317 -0.4420 -0.3287 -0.7290
   92MOL0     C12334  10.021   4.171   5.347 -0.2152  0.6563  1.3518
   92MOL0     N12335   9.614   3.671   5.732 -0.1649 -0.4437  0.2330
   92MOL0     N12336   9.684   3.557   5.733  0.5019 -0.4852  0.5957
   92MOL0     C12337   8.757   2.843   6.076 -0.4213 -0.9449  0.5906
   92MOL0     C12338   8.643   2.766   6.097  0.6518  0.1317 -0.0636
   92MOL0     C12339   8.200   2.590   5.963 -0.3366 -0.2163 -0.5866
   92MOL0     C12340   8.087   2.598   5.880  0.4760 -0.9158 -0.8204
   92MOL0     C12341   7.978   2.520   5.904  0.0147  0.4143  0.1002
   92MOL0     C12342   7.981   2.419   6.011  0.5820 -0.6495  0.1418
   92MOL0     O12343   7.866   2.343   6.031  0.0120 -0.2416  0.4640
   92MOL0     C12344   7.849   2.248   6.135 -0.8795 -0.3425  0.3189
   92MOL0     C12345   7.732   2.164   6.102 -0.5135  1.2435 -1.2336
   92MOL0     C12346   7.609   2.245   6.115 -0.0588  1.4658  0.5312
   92MOL0     C12347   7.499   2.167   6.040 -0.0917  0.6603  0.0179
   92MOL0     C12348   7.370   2.207   6.098  0.0243 -0.3502 -0.5004
   92MOL0     C12349   7.258   2.234   6.137  0.4205 -0.2639  0.1816
   92MOL0     C12350   8.081   2.417   6.100 -0.8768 -0.1057  0.1363
   92MOL0     C12351   8.189   2.511   6.081  0.8362  0.6575 -0.1799
   92MOL0     C12352   8.294   2.499   6.186 -0.1588 -0.5849 -1.0169
   92MOL0     H12353   8.444   2.908   5.848 -0.1613  0.4825 -0.1995
   92MOL0     H12354   8.650   3.023   5.800  1.4638  1.6685  1.2962
   92MOL0     H12355   8.979   2.880   5.819  2.7870  0.6498  1.3721
   92MOL0     H12356   8.890   3.025   5.749 -1.7327  2.4847  2.5803
   92MOL0     H12357   9.131   3.023   5.930  1.8952  4.4613  0.8114
   92MOL0     H12358   9.058   3.167   5.860  0.5738 -0.3204 -1.1967
   92MOL0     H12359   9.121   3.110   5.651 -1.0325 -1.8124 -0.5331
   92MOL0     H12360   9.192   2.953   5.705  0.2674 -0.6572  1.9995
   92MOL0     H12361   9.267   3.239   5.793  2.3046  0.7806 -1.1756
   92MOL0     H12362   9.358   3.094   5.835  2.3081 -0.1783 -2.3790
   92MOL0     H12363   9.440   3.052   5.608  0.2987  0.4386 -0.0477
   92MOL0     H12364   9.321   3.184   5.560  1.2521  1.8835 -1.0373
   92MOL0     H12365   9.441   3.335   5.717 -2.0705 -0.2657 -1.4679
   92MOL0     H12366   9.555   3.210   5.760 -0.7796  0.6883  0.0473
   92MOL0     H12367   9.539   3.331   5.474 -0.9304  2.2201  0.7098
   92MOL0     H12368   9.638   3.185   5.532  2.9132  0.1651  1.6857
   92MOL0     H12369   9.764   3.318   5.674 -1.3076  0.0484  1.0660
   92MOL0     H12370   9.797   3.376   5.508  0.7756 -0.7883  1.4718
   92MOL0     H12371   9.609   3.577   5.414 -0.7552  2.5809 -0.3633
   92MOL0     H12372   9.428   3.817   5.489 -1.3497  2.6266  1.3267
   92MOL0     H12373   9.460   3.880   5.641 -2.5411 -0.9434 -0.0388
   92MOL0     H12374   9.552   4.029   5.487  0.1993 -0.5142 -3.6021
   92MOL0     H12375   9.688   3.956   5.575  0.3100  3.3697 -1.6011
   92MOL0     H12376   9.607   3.924   5.287 -0.6644 -0.9559 -0.0634
   92MOL0     H12377   9.720   3.805   5.365 -0.1892  0.6097 -1.5121
   92MOL0     H12378   9.760   4.107   5.322  0.1567  0.0200  0.4247
   92MOL0     H12379   9.826   3.979   5.227  0.1379 -1.3634  0.0790
   92MOL0     H12380  10.118   3.866   5.468 -1.4731 -0.7883 -1.3707
   92MOL0     H12381  10.330   3.942   5.436 -2.8863 -3.9438 -1.4572
   92MOL0     H12382  10.729   3.994   5.474  2.0532 -3.1661 -2.0179
   92MOL0     H12383  10.952   4.052   5.424 -1.0487 -3.7876 -0.1302
   92MOL0     H12384  11.143   4.207   5.347  0.4015 -1.8550  1.3556
   92MOL0     H12385  11.131   4.039   5.308 -0.2130  0.1297 -1.2187
   92MOL0     H12386  11.282   4.107   5.100 -0.3318  0.1946  0.2437
   92MOL0     H12387  11.283   4.272   5.162  0.0999 -0.3408 -3.7448
   92MOL0     H12388  11.391   4.222   5.373 -0.5092  2.6020 -3.0515
   92MOL0     H12389  11.397   4.056   5.333  0.7874 -0.5899  0.0977
   92MOL0     H12390  11.514   4.284   5.153  2.0331  2.2130  1.3201
   92MOL0     H12391  11.543   4.121   5.121  0.9860  0.8028 -0.6878
   92MOL0     H12392  11.646   4.250   5.378 -1.6136 -0.2587 -0.2646
   92MOL0     H12393  11.732   4.243   5.221 -0.2025 -0.0783 -1.6543
   92MOL0     H12394  11.817   4.092   5.354  0.5419 -1.4191 -1.0357
   92MOL0     H12395  11.668   4.037   5.421  0.6551  2.3940  0.9962
   92MOL0     H12396  11.638   3.926   5.184  1.1498 -0.7935 -0.3007
   92MOL0     H12397  11.759   3.861   5.297  1.6736  0.0402  0.5117
   92MOL0     H12398  11.855   3.866   5.080 -0.3505  0.8286 -1.7976
   92MOL0     H12399  11.810   4.042   5.060 -1.0460 -0.0557  0.0213
   92MOL0     H12400  10.843   4.207   5.046 -1.0825  0.6273 -0.1366
   92MOL0     H12401  10.594   4.189   5.116 -0.9097 -1.6489 -1.3023
   92MOL0     H12402  10.169   4.322   5.273 -0.7864 -0.2450 -0.6371
   92MOL0     H12403   9.927   4.223   5.334  0.4590  1.7672  0.6993
   92MOL0     H12404   8.838   2.838   6.148 -0.4656  0.0011  0.7085
   92MOL0     H12405   8.642   2.700   6.184  2.5641 -1.2936 -1.0420
   92MOL0     H12406   8.087   2.676   5.804 -0.4542 -0.8446 -0.7691
   92MOL0     H12407   7.894   2.530   5.836 -1.0118 -3.5847  0.5283
   92MOL0     H12408   7.838   2.284   6.238 -0.2384 -1.0668  0.6472
   92MOL0     H12409   7.943   2.193   6.133 -0.9437 -0.4428 -1.6146
   92MOL0     H12410   7.722   2.071   6.158 -1.6194  0.1767 -3.0913
   92MOL0     H12411   7.730   2.129   5.998 -2.7472  0.0157 -0.8557
   92MOL0     H12412   7.627   2.347   6.079  3.0692  0.1717 -2.1475
   92MOL0     H12413   7.581   2.253   6.220 -3.3160  0.4700 -0.1586
   92MOL0     H12414   7.504   2.184   5.932  0.5376  1.0826  0.1071
   92MOL0     H12415   7.517   2.061   6.063  0.0414  0.4624 -0.9334
   92MOL0     H12416   7.154   2.242   6.159 -0.8285 -0.3341 -4.6966
   92MOL0     H12417   8.078   2.345   6.181 -0.2577 -1.6189 -1.1386
   92MOL0     H12418   8.275   2.412   6.250  2.2522 -0.9195 -0.6650
   92MOL0     H12419   8.394   2.474   6.149 -0.0267 -2.4819  0.4480
   92MOL0     H12420   8.305   2.592   6.242 -2.5677  0.0296 -1.4488
   93MOL0     O12421  10.287   5.703   5.114  0.0179 -0.5954  0.5346
   93MOL0     C12422  10.174   5.696   5.069 -0.3252  0.0693 -0.2586
   93MOL0     O12423  10.078   5.606   5.115  0.0613  0.1092  0.0582
   93MOL0     C12424  10.117   5.514   5.203 -0.0169  0.4148  0.0092
   93MOL0     C12425  10.195   5.405   5.158 -0.5982  0.6325 -0.2227
   93MOL0     C12426  10.239   5.303   5.249  0.6331 -0.0874  0.0237
   93MOL0     C12427  10.205   5.317   5.386  0.6749  0.2438 -0.6674
   93MOL0     O12428  10.230   5.217   5.472  0.4899  0.8942  0.0546
   93MOL0     C12429  10.340   5.124   5.444 -0.0393 -0.0674  0.3237
   93MOL0     C12430  10.388   5.067   5.576  0.6602  0.1530 -0.1158
   93MOL0     C12431  10.530   5.005   5.585  1.5244  0.4972  0.4905
   93MOL0     C12432  10.642   5.100   5.551  0.4969 -0.3148 -0.1948
   93MOL0     C12433  10.777   5.034   5.586  0.2709  0.2284  0.4259
   93MOL0     C12434  10.893   5.101   5.509 -0.3879  0.5644  0.1851
   93MOL0     C12435  11.021   5.020   5.529 -1.0940  0.7041 -0.0770
   93MOL0     C12436  11.129   5.081   5.446  0.2187  0.0127 -0.7061
   93MOL0     N12437  11.257   5.007   5.458 -0.2941 -0.2771  0.3103
   93MOL0     C12438  11.361   5.025   5.545  0.2842  0.0426  0.6736
   93MOL0     C12439  11.446   4.921   5.519  0.0111 -0.3649 -0.2122
   93MOL0     C12440  11.578   4.903   5.595 -0.7770  0.0269  0.7533
   93MOL0     C12441  11.561   4.905   5.741 -0.2747 -0.1680  0.4316
   93MOL0     C12442  11.696   4.890   5.821 -0.1455 -0.8321  1.1892
   93MOL0     C12443  11.811   4.968   5.767  0.0954 -0.0592 -0.2694
   93MOL0     O12444  11.857   4.935   5.632  0.2246 -0.2270 -0.1225
   93MOL0     C12445  11.977   4.978   5.587 -0.6742  0.5593  0.0403
   93MOL0     C12446  12.038   4.920   5.475  0.2902  0.3410 -0.5241
   93MOL0     C12447  12.155   4.963   5.420  0.3013  0.2172 -0.2296
   93MOL0     C12448  12.195   5.090   5.467  0.7459 -0.4528  0.1668
   93MOL0     C12449  12.319   5.149   5.408 -0.6501 -0.2875 -0.1053
   93MOL0     O12450  12.357   5.259   5.470 -0.3009  1.2128 -0.3323
   93MOL0     C12451  12.476   5.323   5.435  0.2728  0.5126 -0.2221
   93MOL0     C12452  12.578   5.343   5.532  0.1978  0.2087  0.2956
   93MOL0     C12453  12.696   5.400   5.490  0.2244  0.8171  0.1240
   93MOL0     C12454  12.716   5.453   5.356  0.1790 -0.2123 -0.2311
   93MOL0     O12455  12.843   5.491   5.311  0.0048 -0.2911 -0.6195
   93MOL0     C12456  12.910   5.580   5.399 -1.1246 -0.5685 -0.5533
   93MOL0     C12457  12.850   5.721   5.376 -0.1948  0.3899 -0.7051
   93MOL0     C12458  12.866   5.783   5.240  0.4707  0.3563 -0.3834
   93MOL0     C12459  12.809   5.926   5.233 -0.1506  0.9635 -0.1112
   93MOL0     C12460  12.821   5.980   5.087  0.3077 -0.3961 -0.0463
   93MOL0     C12461  12.792   6.129   5.092  0.1837  0.4319  0.0619
   93MOL0     C12462  12.638   6.162   5.098  0.0829  0.5768 -0.1787
   93MOL0     C12463  12.560   6.146   4.965 -1.1747 -0.1527  0.9370
   93MOL0    Cl12464  12.573   6.292   4.851 -0.0076  0.4494  0.4308
   93MOL0     C12465  12.608   5.439   5.267 -0.0115 -0.5852  0.1957
   93MOL0     C12466  12.490   5.384   5.312  0.3321  0.2097  0.2774
   93MOL0     O12467  12.378   5.095   5.312  0.0540  0.2950 -0.6667
   93MOL0     C12468  12.134   5.154   5.571 -0.8482 -0.5809 -0.9067
   93MOL0     C12469  12.022   5.103   5.628  0.7158 -0.1163 -0.1303
   93MOL0     N12470  11.397   4.850   5.410  0.3157  0.3722  0.8917
   93MOL0     N12471  11.292   4.912   5.364  0.4586 -0.1435 -0.1360
   93MOL0     C12472  10.137   5.431   5.431 -0.5288  0.1216  0.3057
   93MOL0     C12473  10.095   5.529   5.334 -0.2699 -0.3872 -0.7490
   93MOL0     C12474  10.138   5.765   4.943 -0.6766 -0.1183  0.2015
   93MOL0     C12475  10.015   5.741   4.880 -0.1549 -0.1613  0.1637
   93MOL0     C12476   9.976   5.811   4.766  0.4023  0.6099 -0.4111
   93MOL0     C12477  10.044   5.923   4.723 -0.5693  0.3733  0.2824
   93MOL0     O12478  10.009   6.013   4.623  0.3413 -0.1928 -1.3238
   93MOL0     C12479   9.910   5.960   4.534  0.1071  0.5052  0.8428
   93MOL0     C12480   9.903   6.047   4.410 -0.5712  0.0584 -0.2474
   93MOL0     C12481   9.794   5.999   4.305 -0.3378  0.4301 -0.1800
   93MOL0     C12482   9.788   6.087   4.185  0.8469 -0.2807 -0.0220
   93MOL0     C12483   9.727   6.030   4.063 -0.1969  0.3486  0.3971
   93MOL0     C12484   9.680   5.979   3.959  0.1227 -0.0599 -0.4046
   93MOL0     C12485  10.165   5.947   4.784 -0.2752  0.7151  0.5150
   93MOL0     C12486  10.215   5.874   4.890  0.7163 -0.0070 -0.2400
   93MOL0     C12487  10.359   5.913   4.930  0.4312  0.4342  0.8296
   93MOL0     H12488  10.193   5.396   5.050 -2.3175 -1.1276 -0.0883
   93MOL0     H12489  10.279   5.216   5.198 -1.0363  0.1958 -1.9000
   93MOL0     H12490  10.302   5.036   5.391  0.6464 -1.0972  1.4922
   93MOL0     H12491  10.421   5.166   5.385 -0.3134  1.4609  0.9826
   93MOL0     H12492  10.315   4.988   5.599  0.4352  0.5860  0.7083
   93MOL0     H12493  10.384   5.149   5.648  0.6187 -1.5760  1.9438
   93MOL0     H12494  10.531   4.929   5.506 -1.3487  1.7388 -0.8863
   93MOL0     H12495  10.540   4.972   5.689 -2.0077  3.4870  2.0148
   93MOL0     H12496  10.638   5.122   5.444 -3.7567 -2.2134 -0.6636
   93MOL0     H12497  10.631   5.186   5.618  1.5085 -2.0545  2.3920
   93MOL0     H12498  10.791   5.020   5.694  0.3684 -0.8211  0.2832
   93MOL0     H12499  10.773   4.931   5.551 -1.7079  0.2568  0.4518
   93MOL0     H12500  10.868   5.096   5.402  0.3612  0.1855  0.0134
   93MOL0     H12501  10.897   5.205   5.543 -2.4343  0.1996  1.6966
   93MOL0     H12502  11.009   4.919   5.489  0.0152  0.0966  1.0544
   93MOL0     H12503  11.050   5.014   5.634  3.0440  0.5643 -1.0514
   93MOL0     H12504  11.102   5.095   5.341 -1.4763 -2.4168 -0.6887
   93MOL0     H12505  11.135   5.177   5.497 -1.4425  0.1753 -0.7315
   93MOL0     H12506  11.366   5.103   5.620  0.7826  1.2207 -0.5564
   93MOL0     H12507  11.615   4.808   5.556 -0.1715  0.3246  0.5867
   93MOL0     H12508  11.644   4.980   5.554 -0.2280 -1.8976 -2.3165
   93MOL0     H12509  11.512   4.996   5.775 -0.7356  0.2091 -1.1529
   93MOL0     H12510  11.496   4.820   5.767 -1.3782 -0.7112 -3.4578
   93MOL0     H12511  11.713   4.782   5.830 -0.8481 -1.1399 -0.5940
   93MOL0     H12512  11.669   4.916   5.923  0.6893  1.9256  0.7981
   93MOL0     H12513  11.889   4.959   5.843  0.6966 -0.6364 -0.9425
   93MOL0     H12514  11.787   5.075   5.772  1.7959  0.2902  1.6246
   93MOL0     H12515  12.008   4.830   5.423 -0.1497  0.9282 -1.3129
   93MOL0     H12516  12.218   4.911   5.349 -0.2426  0.5381 -0.9609
   93MOL0     H12517  12.566   5.307   5.634 -2.1483  3.2415  1.2416
   93MOL0     H12518  12.777   5.398   5.562 -1.7764 -0.8264  2.5021
   93MOL0     H12519  12.883   5.559   5.502 -0.1704 -2.1529 -0.5822
   93MOL0     H12520  13.019   5.585   5.388 -1.1226 -3.0097 -2.6946
   93MOL0     H12521  12.747   5.706   5.411  0.1373  0.3543  0.2748
   93MOL0     H12522  12.896   5.791   5.446 -0.5379  1.0848 -1.1694
   93MOL0     H12523  12.974   5.793   5.223  0.3274  5.0909  0.2593
   93MOL0     H12524  12.829   5.726   5.154  0.9635  2.8708 -2.3928
   93MOL0     H12525  12.855   5.994   5.304 -2.4179  1.2290  1.1850
   93MOL0     H12526  12.705   5.925   5.266 -0.1971  2.8505 -0.1257
   93MOL0     H12527  12.752   5.926   5.021  0.7088 -0.1747 -0.6547
   93MOL0     H12528  12.920   5.952   5.049  0.4742 -0.1152  0.1810
   93MOL0     H12529  12.840   6.176   5.178 -0.3065 -0.6384  0.9527
   93MOL0     H12530  12.831   6.165   4.996  1.0790  0.2387  0.3478
   93MOL0     H12531  12.625   6.261   5.142 -0.6347  0.5100 -0.2341
   93MOL0     H12532  12.599   6.093   5.173  0.4332 -0.1043 -0.6040
   93MOL0     H12533  12.603   6.067   4.902 -1.2314 -1.8272  2.8590
   93MOL0     H12534  12.455   6.125   4.986 -1.3573  0.2932  0.4593
   93MOL0     H12535  12.612   5.478   5.166 -0.3110  2.0854  1.1166
   93MOL0     H12536  12.411   5.374   5.238  0.3311 -2.7652  0.5572
   93MOL0     H12537  12.154   5.255   5.607 -0.9015 -0.0558 -2.2989
   93MOL0     H12538  11.959   5.170   5.685  2.1184 -1.0067  2.7020
   93MOL0     H12539  10.109   5.443   5.535  0.7877  2.5801  0.4414
   93MOL0     H12540  10.035   5.617   5.356 -0.5306  0.2245 -3.5199
   93MOL0     H12541   9.944   5.663   4.903 -0.8709 -0.1636 -1.8122
   93MOL0     H12542   9.878   5.774   4.734  0.8030 -3.4295  2.3511
   93MOL0     H12543   9.809   5.965   4.577 -0.9455  0.4759 -1.4733
   93MOL0     H12544   9.934   5.857   4.507 -1.4760  0.5115 -0.7047
   93MOL0     H12545  10.004   6.049   4.368  0.1917  2.7174  1.4168
   93MOL0     H12546   9.891   6.152   4.439  2.4482  0.3616  0.2547
   93MOL0     H12547   9.694   5.994   4.348  0.0970 -0.5257  0.7574
   93MOL0     H12548   9.821   5.898   4.275 -0.1149  0.7281 -0.9877
   93MOL0     H12549   9.734   6.176   4.217 -1.1603 -1.3908 -0.1480
   93MOL0     H12550   9.887   6.129   4.167  0.9331 -0.1545  0.7504
   93MOL0     H12551   9.656   5.916   3.876 -2.2052 -0.0365  0.1760
   93MOL0     H12552  10.216   6.035   4.746 -2.4643  2.0628  0.4788
   93MOL0     H12553  10.404   5.990   4.867  1.4850 -1.0496 -0.2864
   93MOL0     H12554  10.353   5.941   5.036  2.5633  0.5776  0.9550
   93MOL0     H12555  10.421   5.824   4.930  1.4959  1.1559  0.9538
   94MOL0     O12556   8.973   2.068   3.763  0.4193 -0.2842  0.5410
   94MOL0     C12557   8.915   2.176   3.758 -0.1357  0.6301 -0.1687
   94MOL0     O12558   8.973   2.290   3.701  0.3903  0.3943  0.4064
   94MOL0     C12559   9.095   2.288   3.640 -0.4766  0.2562  0.5237
   94MOL0     C12560   9.112   2.238   3.510  0.2056  0.4502 -0.0293
   94MOL0     C12561   9.243   2.229   3.460 -0.3942  0.0118  0.7755
   94MOL0     C12562   9.360   2.267   3.532  0.2517  0.2625 -0.3465
   94MOL0     O12563   9.490   2.257   3.486  0.1589  0.1704 -0.2095
   94MOL0     C12564   9.509   2.265   3.341 -0.9086 -0.6325 -0.2897
   94MOL0     C12565   9.659   2.296   3.315 -0.4138 -0.0460  0.4857
   94MOL0     C12566   9.760   2.185   3.363  0.2863  0.5324 -0.1548
   94MOL0     C12567   9.903   2.242   3.340  0.4927 -0.6987  0.5116
   94MOL0     C12568  10.013   2.138   3.340 -0.3546 -0.0074 -0.3428
   94MOL0     C12569  10.052   2.087   3.486  0.2769  0.1271  0.3212
   94MOL0     C12570  10.129   1.959   3.479  0.3531  0.5227  1.3311
   94MOL0     C12571  10.144   1.892   3.606 -0.3085  0.1183  0.1687
   94MOL0     N12572  10.232   1.958   3.711  0.2594 -0.1477  0.7377
   94MOL0     C12573  10.368   1.918   3.728  0.5600 -0.0292  1.1537
   94MOL0     C12574  10.421   2.000   3.827  0.2470 -0.1161  0.8354
   94MOL0     C12575  10.569   1.989   3.871  0.3635 -0.0062  0.3421
   94MOL0     C12576  10.580   1.968   4.027  0.2564  1.0796 -0.7648
   94MOL0     C12577  10.571   1.810   4.062 -0.3723 -1.3473  0.1107
   94MOL0     C12578  10.631   1.782   4.202  0.2886  0.4448  0.5373
   94MOL0     O12579  10.771   1.806   4.198  0.0073 -0.2467  0.3213
   94MOL0     C12580  10.844   1.771   4.301  1.1642  0.5574 -0.4704
   94MOL0     C12581  10.975   1.787   4.274 -0.0612  0.4530 -0.3535
   94MOL0     C12582  11.065   1.732   4.366 -0.3932 -0.3844 -0.1925
   94MOL0     C12583  11.022   1.671   4.488 -0.1761  0.0772 -0.5629
   94MOL0     C12584  11.125   1.599   4.574 -1.0201  0.1655 -0.8583
   94MOL0     O12585  11.259   1.609   4.524 -0.1623 -0.2956 -0.3604
   94MOL0     C12586  11.350   1.556   4.607  0.2293  0.6255 -0.2933
   94MOL0     C12587  11.453   1.648   4.656  0.2393  0.4346 -0.4039
   94MOL0     C12588  11.557   1.599   4.739 -0.1561 -0.6150  0.3874
   94MOL0     C12589  11.562   1.461   4.769 -0.5155 -0.0057 -0.2618
   94MOL0     O12590  11.649   1.396   4.854 -0.0760  0.4575 -0.1803
   94MOL0     C12591  11.768   1.445   4.906 -0.3667 -0.6146 -0.4694
   94MOL0     C12592  11.885   1.429   4.806 -0.1151  0.0715 -0.1271
   94MOL0     C12593  12.022   1.478   4.864 -0.2431  0.3871 -0.4333
   94MOL0     C12594  12.074   1.398   4.980 -0.4054  0.0720  0.1048
   94MOL0     C12595  12.210   1.456   5.018 -0.3132  0.0436  0.2721
   94MOL0     C12596  12.278   1.369   5.113 -0.3514  0.5906  0.8482
   94MOL0     C12597  12.391   1.450   5.177  0.2411  0.7308  0.4024
   94MOL0     C12598  12.476   1.379   5.291 -0.7810  0.1348  0.9513
   94MOL0    Cl12599  12.588   1.250   5.232  0.0246 -0.2589  0.1411
   94MOL0     C12600  11.461   1.379   4.722  0.3700  0.4342 -0.0596
   94MOL0     C12601  11.362   1.420   4.641 -0.2432 -0.4721 -0.0890
   94MOL0     O12602  11.095   1.553   4.682  0.4282  0.1412  0.1604
   94MOL0     C12603  10.886   1.654   4.503 -0.3554 -0.3091  0.0098
   94MOL0     C12604  10.798   1.701   4.415 -0.3117  1.0929  0.2774
   94MOL0     N12605  10.316   2.086   3.867  0.7258  0.7859 -0.2033
   94MOL0     N12606  10.209   2.059   3.798 -0.0501 -0.5709  0.1377
   94MOL0     C12607   9.333   2.315   3.661  0.0419 -0.3312  0.0176
   94MOL0     C12608   9.206   2.338   3.712  0.2586  0.1962  0.3740
   94MOL0     C12609   8.771   2.187   3.807 -1.2009  0.7637  0.8731
   94MOL0     C12610   8.687   2.269   3.732  0.4289  0.4252  0.7070
   94MOL0     C12611   8.559   2.285   3.759  0.5614 -0.6213 -0.0227
   94MOL0     C12612   8.486   2.211   3.845  0.5935  1.0654 -0.5392
   94MOL0     O12613   8.348   2.219   3.849  0.3311 -0.3833 -0.8895
   94MOL0     C12614   8.269   2.124   3.917 -0.0643  0.5910 -1.1037
   94MOL0     C12615   8.271   2.154   4.071 -0.5914  0.4892  0.5389
   94MOL0     C12616   8.204   2.293   4.095  0.0936 -0.2915  0.3947
   94MOL0     C12617   8.225   2.346   4.237 -0.7741  0.7219 -0.1724
   94MOL0     C12618   8.125   2.426   4.301  1.5291  0.6348  0.7247
   94MOL0     C12619   8.051   2.487   4.373 -0.3398 -0.0859 -0.0819
   94MOL0     C12620   8.562   2.119   3.921 -0.2270  0.8671 -0.7847
   94MOL0     C12621   8.705   2.109   3.904  0.0756 -0.3614  0.6880
   94MOL0     C12622   8.770   2.000   3.988  0.7864  0.1232  0.6429
   94MOL0     H12623   9.025   2.208   3.452 -1.0610 -2.4672  3.0055
   94MOL0     H12624   9.249   2.191   3.358  0.3098  2.7960 -0.3068
   94MOL0     H12625   9.484   2.171   3.291 -0.2905 -0.6761 -0.5319
   94MOL0     H12626   9.443   2.340   3.296 -2.0348 -1.0465  0.6439
   94MOL0     H12627   9.665   2.394   3.362 -2.0179  0.2188  0.1936
   94MOL0     H12628   9.667   2.298   3.206  0.9596 -0.6334  0.5556
   94MOL0     H12629   9.753   2.092   3.306 -0.8456  0.3467  0.2582
   94MOL0     H12630   9.737   2.169   3.468  2.3101 -2.0889 -0.0129
   94MOL0     H12631   9.901   2.285   3.240  1.8968  2.6805  1.8100
   94MOL0     H12632   9.927   2.318   3.414 -0.6494  0.8872 -0.6940
   94MOL0     H12633   9.983   2.055   3.276  1.3719 -0.9045 -0.0581
   94MOL0     H12634  10.106   2.175   3.294  1.1480  1.2360  3.2768
   94MOL0     H12635  10.121   2.159   3.529 -0.9423  0.7432  1.3272
   94MOL0     H12636   9.965   2.081   3.552  0.9214  3.5658  1.6913
   94MOL0     H12637  10.225   1.980   3.431 -0.7301  1.9661 -0.3172
   94MOL0     H12638  10.069   1.897   3.412  0.6249  1.2998  0.3421
   94MOL0     H12639  10.052   1.870   3.662  1.9476 -2.3692  3.3093
   94MOL0     H12640  10.182   1.790   3.593  2.1703  0.5621  2.8156
   94MOL0     H12641  10.416   1.829   3.688  0.0089 -0.2078  0.8803
   94MOL0     H12642  10.615   1.909   3.812  1.7939 -0.2225  1.6939
   94MOL0     H12643  10.638   2.068   3.841  3.6992 -2.0204  2.2118
   94MOL0     H12644  10.682   2.003   4.047 -0.3634  1.9161  1.1023
   94MOL0     H12645  10.506   2.024   4.085 -0.4980 -2.3708  1.9821
   94MOL0     H12646  10.642   1.756   3.998  3.0820  0.4847  2.0768
   94MOL0     H12647  10.474   1.763   4.045  0.3484 -2.1930 -1.9873
   94MOL0     H12648  10.611   1.678   4.229 -3.9634  0.8448 -0.3753
   94MOL0     H12649  10.576   1.845   4.272 -3.3865 -1.8235 -0.0118
   94MOL0     H12650  11.015   1.830   4.182 -1.0598 -0.0408 -1.0410
   94MOL0     H12651  11.172   1.735   4.346  0.1679  0.5349  2.4521
   94MOL0     H12652  11.428   1.753   4.642 -1.2072 -0.0487 -1.8488
   94MOL0     H12653  11.631   1.672   4.772  0.9416 -0.4089 -2.2448
   94MOL0     H12654  11.760   1.552   4.927  1.5089 -0.0990 -2.0955
   94MOL0     H12655  11.788   1.395   5.001 -2.6961  2.7166  2.0239
   94MOL0     H12656  11.882   1.322   4.784  0.8508  0.2121 -0.9814
   94MOL0     H12657  11.860   1.483   4.715 -2.6774  1.5949  1.3517
   94MOL0     H12658  12.098   1.476   4.785  2.1565 -0.0466  1.7539
   94MOL0     H12659  12.017   1.583   4.896  0.0972  0.2946 -0.0712
   94MOL0     H12660  12.082   1.291   4.960  0.1180  0.2422 -0.6805
   94MOL0     H12661  12.022   1.405   5.075  1.6992  1.7708  1.2365
   94MOL0     H12662  12.196   1.555   5.063  0.2694  0.0073  0.5410
   94MOL0     H12663  12.286   1.464   4.939  1.0504  1.0098  1.6327
   94MOL0     H12664  12.210   1.330   5.188 -1.2762  1.9979  0.7736
   94MOL0     H12665  12.321   1.288   5.052  0.4257  1.9054 -0.4288
   94MOL0     H12666  12.349   1.540   5.222  0.3875  1.4077 -0.7607
   94MOL0     H12667  12.446   1.485   5.089 -0.1997  1.4198  0.3881
   94MOL0     H12668  12.549   1.453   5.325  1.3976 -2.0587  1.2951
   94MOL0     H12669  12.427   1.347   5.383 -1.9318 -1.1636 -0.0497
   94MOL0     H12670  11.462   1.272   4.740 -1.4615  0.4788  0.5207
   94MOL0     H12671  11.302   1.336   4.605 -0.9163 -0.0425  0.0085
   94MOL0     H12672  10.856   1.593   4.588  0.6039  1.7112  1.9067
   94MOL0     H12673  10.694   1.675   4.433 -0.2903  0.9312  0.1668
   94MOL0     H12674   9.413   2.353   3.724 -1.3743 -0.3727  1.9349
   94MOL0     H12675   9.210   2.387   3.809  0.5092 -2.4769  1.8108
   94MOL0     H12676   8.719   2.318   3.641 -1.4147  1.4222  0.5524
   94MOL0     H12677   8.505   2.348   3.689  3.7953  1.4454 -0.9064
   94MOL0     H12678   8.298   2.022   3.891 -1.3849  0.6225 -2.8117
   94MOL0     H12679   8.170   2.153   3.882  0.1541  1.1946 -1.2449
   94MOL0     H12680   8.373   2.159   4.112  0.3262  1.2506 -1.6772
   94MOL0     H12681   8.209   2.074   4.112 -1.8258  0.1122 -1.9122
   94MOL0     H12682   8.097   2.292   4.071 -0.0324 -0.5206  0.9370
   94MOL0     H12683   8.234   2.371   4.024 -3.0983  0.4939 -0.2404
   94MOL0     H12684   8.238   2.259   4.303  0.4492 -0.2198 -1.5987
   94MOL0     H12685   8.312   2.411   4.238  0.1508 -0.4519  1.0560
   94MOL0     H12686   7.979   2.537   4.435 -1.5598 -1.0303 -0.6937
   94MOL0     H12687   8.519   2.042   3.984 -0.0246 -0.7071 -2.4746
   94MOL0     H12688   8.873   2.029   4.009  1.8567 -1.9115 -1.3390
   94MOL0     H12689   8.719   1.985   4.084  0.5576 -3.6998  0.0925
   94MOL0     H12690   8.762   1.905   3.935  1.3462 -0.5557  1.7332
   95MOL0     O12691   2.259   9.586   8.571  0.2709  0.5873 -0.0176
   95MOL0     C12692   2.218   9.560   8.682 -0.2125 -0.4292 -0.4741
   95MOL0     O12693   2.281   9.585   8.800 -0.5714  0.0273 -0.1828
   95MOL0     C12694   2.383   9.675   8.810  0.1505 -1.0189 -0.1100
   95MOL0     C12695   2.502   9.623   8.863  0.3540 -0.1743 -0.0361
   95MOL0     C12696   2.611   9.695   8.898 -0.1229  0.1650  0.4361
   95MOL0     C12697   2.601   9.835   8.878  0.3487 -0.1487 -0.2764
   95MOL0     O12698   2.709   9.918   8.895  0.3603 -0.8336  0.8109
   95MOL0     C12699   2.841   9.866   8.865 -1.0999 -0.4337  0.1498
   95MOL0     C12700   2.930   9.981   8.910 -0.2656 -0.2427 -0.8267
   95MOL0     C12701   3.076   9.926   8.898 -0.2562 -1.0036  0.2306
   95MOL0     C12702   3.175  10.027   8.955  0.5900 -0.6479  1.1358
   95MOL0     C12703   3.323   9.982   8.928  0.2386 -0.0419  0.6718
   95MOL0     C12704   3.362   9.976   8.780  0.4566  0.5823 -0.3070
   95MOL0     C12705   3.364  10.125   8.730 -0.4565 -0.3693  0.2801
   95MOL0     C12706   3.373  10.113   8.572  0.3462 -0.3226  0.1692
   95MOL0     N12707   3.510  10.056   8.542 -0.0924  0.5613 -0.2178
   95MOL0     C12708   3.516   9.934   8.478  0.1110  0.7859  0.6412
   95MOL0     C12709   3.647   9.892   8.478  0.3486 -0.0238 -0.1252
   95MOL0     C12710   3.699   9.753   8.433  0.1809  0.6284 -0.3929
   95MOL0     C12711   3.767   9.754   8.303 -0.3918 -0.0251  0.0447
   95MOL0     C12712   3.685   9.756   8.179 -0.6176  0.0992  0.0598
   95MOL0     C12713   3.774   9.754   8.057  0.7006 -0.2847 -0.4157
   95MOL0     O12714   3.841   9.886   8.047  0.3352  0.1004 -0.3209
   95MOL0     C12715   3.967   9.914   8.085 -0.3056  0.5802  0.2679
   95MOL0     C12716   3.988  10.052   8.115 -0.6319  0.5854 -0.2133
   95MOL0     C12717   4.115  10.102   8.156  0.2056  0.4981  0.4949
   95MOL0     C12718   4.225  10.011   8.170  0.6017  0.6813 -0.4961
   95MOL0     C12719   4.348  10.062   8.227 -0.8507 -0.0863 -0.1860
   95MOL0     O12720   4.341  10.183   8.286  0.9712  0.2261  0.0390
   95MOL0     C12721   4.457  10.265   8.310  0.0259  0.1946  0.1020
   95MOL0     C12722   4.591  10.236   8.291 -0.5956 -0.0288  0.4318
   95MOL0     C12723   4.698  10.333   8.310 -0.1451  0.7213 -0.2045
   95MOL0     C12724   4.669  10.458   8.346  0.7436  0.1447 -1.0382
   95MOL0     O12725   4.763  10.552   8.372 -0.9155  0.3286 -0.3712
   95MOL0     C12726   4.738  10.636   8.483 -0.3438  0.1499  0.4401
   95MOL0     C12727   4.867  10.692   8.548 -0.6103  0.4261 -0.4069
   95MOL0     C12728   4.937  10.573   8.609  0.9135  0.2820 -0.0534
   95MOL0     C12729   5.057  10.612   8.698 -0.4014  0.6004  0.5631
   95MOL0     C12730   5.171  10.499   8.721  0.9828 -0.3323 -0.1301
   95MOL0     C12731   5.283  10.546   8.813 -0.1206 -0.2229  0.4643
   95MOL0     C12732   5.400  10.452   8.859  0.8817 -0.4367 -0.4629
   95MOL0     C12733   5.532  10.522   8.849 -0.4501  0.4377  0.4801
   95MOL0    Cl12734   5.560  10.639   8.975 -0.3270  0.1740  0.3384
   95MOL0     C12735   4.534  10.489   8.366  0.0026  0.3623 -0.3279
   95MOL0     C12736   4.432  10.394   8.355  0.6735  0.1023  0.2513
   95MOL0     O12737   4.450   9.989   8.228 -0.4144 -0.1073  0.2510
   95MOL0     C12738   4.205   9.874   8.130  0.0292  0.1662 -0.4786
   95MOL0     C12739   4.077   9.824   8.103 -0.6257 -0.1310 -0.0758
   95MOL0     N12740   3.715   9.982   8.553  0.6635  0.3259  0.1934
   95MOL0     N12741   3.632  10.082   8.592 -0.0682  0.8596 -0.0397
   95MOL0     C12742   2.480   9.895   8.826 -0.7298 -0.0309  0.1599
   95MOL0     C12743   2.371   9.813   8.796 -0.0766 -0.3437  0.2657
   95MOL0     C12744   2.081   9.503   8.688 -0.3044 -0.2660  0.0883
   95MOL0     C12745   2.058   9.370   8.680  0.3483  1.0980  0.0157
   95MOL0     C12746   1.926   9.320   8.706  0.4916 -0.2916  1.0035
   95MOL0     C12747   1.814   9.399   8.718 -0.6488 -0.2470 -0.6456
   95MOL0     O12748   1.685   9.334   8.714 -0.2629 -0.3443  0.0441
   95MOL0     C12749   1.573   9.424   8.739 -0.1702  0.4115 -0.4909
   95MOL0     C12750   1.438   9.359   8.708 -0.3016  0.8869 -0.0272
   95MOL0     C12751   1.322   9.443   8.771  0.3540  0.0563 -0.2864
   95MOL0     C12752   1.182   9.393   8.735  0.8449 -0.3094 -0.3497
   95MOL0     C12753   1.164   9.245   8.764 -0.0695 -0.1608 -0.5958
   95MOL0     C12754   1.138   9.136   8.789 -0.4980  0.2463 -0.3522
   95MOL0     C12755   1.840   9.536   8.720  0.4530  0.4491  0.2912
   95MOL0     C12756   1.967   9.586   8.702 -0.5871 -0.4512 -1.1441
   95MOL0     C12757   1.982   9.737   8.700  0.0221 -0.1626 -0.2594
   95MOL0     H12758   2.506   9.519   8.890 -3.6380 -0.8384 -1.3205
   95MOL0     H12759   2.709   9.655   8.921  0.1899  0.5387 -0.2440
   95MOL0     H12760   2.857   9.770   8.915 -0.5322 -1.0369 -1.1461
   95MOL0     H12761   2.856   9.843   8.760 -1.7854 -1.9124  0.3408
   95MOL0     H12762   2.920  10.011   9.015  0.7377  0.2036 -0.8496
   95MOL0     H12763   2.914  10.074   8.854  0.6117  0.0005 -0.6838
   95MOL0     H12764   3.095   9.898   8.794 -2.7416 -0.4198 -0.4292
   95MOL0     H12765   3.076   9.834   8.957  0.0359 -0.2142  1.4820
   95MOL0     H12766   3.168  10.129   8.918  2.2360 -1.3905 -1.5106
   95MOL0     H12767   3.143  10.035   9.060 -0.0112 -1.2701  1.0060
   95MOL0     H12768   3.406  10.030   8.980 -0.2175  1.1832  0.3076
   95MOL0     H12769   3.325   9.877   8.958 -0.5647 -0.0712  0.6660
   95MOL0     H12770   3.462   9.932   8.774  0.5781  0.8534 -0.2524
   95MOL0     H12771   3.281   9.921   8.730 -1.4613  2.8302  0.1460
   95MOL0     H12772   3.442  10.186   8.777 -2.1479  1.7435  0.4591
   95MOL0     H12773   3.275  10.178   8.763 -1.0348  1.4705 -3.7292
   95MOL0     H12774   3.292  10.064   8.517 -0.5966  1.1013  0.2402
   95MOL0     H12775   3.364  10.215   8.533 -0.0632 -0.2123  0.5487
   95MOL0     H12776   3.425   9.882   8.451  2.1107 -3.1759  0.8634
   95MOL0     H12777   3.750   9.700   8.514  0.1457 -2.2834 -2.1125
   95MOL0     H12778   3.611   9.689   8.420 -0.3239  1.4015 -0.8929
   95MOL0     H12779   3.828   9.845   8.298 -0.4473  0.0631  0.8753
   95MOL0     H12780   3.838   9.671   8.303  0.0307  0.2771 -2.0150
   95MOL0     H12781   3.629   9.850   8.180  0.1768  0.5916  0.1051
   95MOL0     H12782   3.625   9.666   8.169  2.3274 -2.2267  1.5988
   95MOL0     H12783   3.713   9.726   7.970 -0.4398 -2.5028  1.0107
   95MOL0     H12784   3.843   9.671   8.071 -0.1237 -0.8390  0.4913
   95MOL0     H12785   3.909  10.126   8.103 -1.0416  0.3046  0.6797
   95MOL0     H12786   4.133  10.205   8.185  0.2772  0.6295 -0.0054
   95MOL0     H12787   4.625  10.142   8.247  1.7626  1.7122 -1.7700
   95MOL0     H12788   4.799  10.292   8.313 -0.5987 -0.4363  2.6517
   95MOL0     H12789   4.677  10.719   8.447 -0.3610 -0.6491 -1.4745
   95MOL0     H12790   4.684  10.589   8.566  0.3461  0.0389  0.8352
   95MOL0     H12791   4.932  10.731   8.468 -0.1868  0.1174 -0.2126
   95MOL0     H12792   4.850  10.780   8.611 -1.5398 -0.0423  0.0117
   95MOL0     H12793   4.869  10.512   8.669  0.4003  1.5679  0.6907
   95MOL0     H12794   4.969  10.506   8.528 -1.1137  1.3795 -1.8542
   95MOL0     H12795   5.012  10.645   8.792 -1.1277  0.8591  0.1341
   95MOL0     H12796   5.103  10.702   8.657 -1.8271  0.2155 -2.0721
   95MOL0     H12797   5.215  10.478   8.623  1.8005  2.8124 -0.5685
   95MOL0     H12798   5.115  10.412   8.756 -3.2216  2.1289 -0.0430
   95MOL0     H12799   5.327  10.636   8.771  0.5309 -0.8638 -0.2510
   95MOL0     H12800   5.230  10.580   8.903  1.0687  3.8790 -0.1929
   95MOL0     H12801   5.391  10.364   8.795  0.5470  0.2896 -1.4342
   95MOL0     H12802   5.365  10.428   8.960 -0.1396  3.3895  0.2525
   95MOL0     H12803   5.606  10.442   8.841  0.3720  1.1609  0.6823
   95MOL0     H12804   5.531  10.574   8.752  3.1761  0.0684  0.1212
   95MOL0     H12805   4.513  10.595   8.378 -1.1172  0.2961 -1.4059
   95MOL0     H12806   4.330  10.427   8.372  1.0298  0.9429  0.8265
   95MOL0     H12807   4.286   9.803   8.148  0.5706  0.2708 -2.3084
   95MOL0     H12808   4.067   9.716   8.099  0.5202 -0.3279  1.4222
   95MOL0     H12809   2.478  10.003   8.826  1.2279  0.0737  1.6342
   95MOL0     H12810   2.284   9.855   8.746 -1.1074 -0.4519  1.9060
   95MOL0     H12811   2.141   9.300   8.680 -1.0347 -0.6028 -0.6843
   95MOL0     H12812   1.915   9.212   8.704  2.1311 -0.4874  0.9853
   95MOL0     H12813   1.572   9.511   8.672 -0.3127  0.0828 -0.9247
   95MOL0     H12814   1.569   9.457   8.843 -1.1912 -2.2412  0.3969
   95MOL0     H12815   1.438   9.256   8.745 -0.0289  1.1576  0.7567
   95MOL0     H12816   1.440   9.355   8.599  2.3084 -0.5268 -0.0063
   95MOL0     H12817   1.335   9.544   8.731 -0.3200 -0.3274 -1.5130
   95MOL0     H12818   1.323   9.440   8.880 -1.4775  0.9248 -0.2208
   95MOL0     H12819   1.110   9.457   8.787  1.9890  1.1528 -0.5115
   95MOL0     H12820   1.155   9.408   8.630 -1.5503 -1.0999  0.0822
   95MOL0     H12821   1.097   9.037   8.789 -1.0313  0.4293 -2.1222
   95MOL0     H12822   1.754   9.594   8.752 -0.3417 -0.5950  0.0739
   95MOL0     H12823   2.022   9.768   8.797  3.9949  1.5124 -2.2233
   95MOL0     H12824   2.060   9.772   8.632  2.9285 -1.0061  2.3887
   95MOL0     H12825   1.882   9.775   8.676  0.3134 -0.6298 -2.3970
   96MOL0     O12826  10.540   3.670   0.508 -0.4551 -0.4349  0.4276
   96MOL0     C12827  10.570   3.698   0.623 -0.0720  0.8479 -0.5869
   96MOL0     O12828  10.670   3.637   0.696 -0.0626 -0.5055 -0.1747
   96MOL0     C12829  10.762   3.565   0.621  0.5631 -0.5386 -0.6176
   96MOL0     C12830  10.892   3.605   0.644 -0.3726  0.4483 -0.6273
   96MOL0     C12831  10.996   3.532   0.584 -0.7160  0.3135  0.2660
   96MOL0     C12832  10.973   3.421   0.503  0.0613  0.0080 -0.3865
   96MOL0     O12833  11.068   3.358   0.439 -0.6769 -0.4178  0.3059
   96MOL0     C12834  11.185   3.313   0.511 -0.9085 -0.8758 -0.5063
   96MOL0     C12835  11.271   3.224   0.429 -0.5322  0.9525  0.0613
   96MOL0     C12836  11.399   3.189   0.504 -0.4800  0.1673 -0.1030
   96MOL0     C12837  11.480   3.084   0.414  0.1650  0.6251 -0.4284
   96MOL0     C12838  11.626   3.060   0.469  0.3262  0.5091 -0.4546
   96MOL0     C12839  11.698   2.964   0.380 -0.5525  0.4257 -0.2260
   96MOL0     C12840  11.842   2.940   0.436  0.0020  0.2049 -0.9627
   96MOL0     C12841  11.935   3.049   0.394  0.1533  1.1730 -0.3870
   96MOL0     N12842  12.071   2.997   0.411  0.5308 -0.0200  0.8258
   96MOL0     C12843  12.181   3.022   0.333  0.4501  0.1413 -0.1803
   96MOL0     C12844  12.291   2.981   0.406 -0.3042  0.8943 -0.0125
   96MOL0     C12845  12.433   2.980   0.367  0.0298 -0.0772  0.1542
   96MOL0     C12846  12.504   3.116   0.341 -0.1697  0.4317 -0.9387
   96MOL0     C12847  12.519   3.199   0.469  0.2876 -0.6276  0.2819
   96MOL0     C12848  12.553   3.124   0.604 -0.1469  0.4576  0.6799
   96MOL0     O12849  12.671   3.033   0.609 -0.0477 -0.3467 -0.2930
   96MOL0     C12850  12.795   3.083   0.587  1.2395  0.4662  0.0838
   96MOL0     C12851  12.834   3.217   0.601  0.0317  0.1696 -0.1388
   96MOL0     C12852  12.971   3.251   0.582  0.0603 -0.4111 -0.0549
   96MOL0     C12853  13.067   3.156   0.542  0.3184 -0.8888 -1.6024
   96MOL0     C12854  13.209   3.200   0.508  0.4962 -0.6356 -0.2108
   96MOL0     O12855  13.295   3.093   0.502  0.1801  0.4783 -0.2870
   96MOL0     C12856  13.428   3.093   0.458 -0.1061 -0.5477  0.0298
   96MOL0     C12857  13.510   3.207   0.442  0.1155 -0.0044  0.8107
   96MOL0     C12858  13.646   3.185   0.399 -0.0186  0.3088 -0.1024
   96MOL0     C12859  13.706   3.060   0.382  0.2561  0.1912  0.3383
   96MOL0     O12860  13.843   3.039   0.350  0.3623  0.1939 -0.7350
   96MOL0     C12861  13.901   3.127   0.250 -0.4224  0.9320  0.7913
   96MOL0     C12862  14.045   3.092   0.229 -1.2737 -0.0979  0.6523
   96MOL0     C12863  14.067   2.985   0.120  0.3846  0.9723  0.0441
   96MOL0     C12864  14.217   2.959   0.088 -0.6607  0.2694 -0.3692
   96MOL0     C12865  14.312   2.923   0.204  0.0648 -0.2951 -0.2177
   96MOL0     C12866  14.270   2.797   0.289 -0.6899 -0.6160  0.2756
   96MOL0     C12867  14.267   2.665   0.212  0.0920 -0.6504  0.0272
   96MOL0     C12868  14.220   2.540   0.290  1.0007 -0.0450 -0.1702
   96MOL0    Cl12869  14.346   2.487   0.397  0.1178  0.0577  0.5592
   96MOL0     C12870  13.618   2.956   0.395 -0.8454 -0.3899 -0.7015
   96MOL0     C12871  13.490   2.971   0.436 -0.5144 -0.8698 -1.1664
   96MOL0     O12872  13.238   3.315   0.479 -0.8671 -0.2475  0.2671
   96MOL0     C12873  13.026   3.024   0.537 -0.3309 -0.5100 -0.5824
   96MOL0     C12874  12.892   2.994   0.555 -0.6752  0.2456  0.8728
   96MOL0     N12875  12.246   2.941   0.531  0.7410  0.0063  0.0661
   96MOL0     N12876  12.116   2.961   0.536 -0.2474  0.4591  0.0936
   96MOL0     C12877  10.847   3.389   0.473  0.3553 -0.3059 -0.1680
   96MOL0     C12878  10.745   3.454   0.538  0.3106 -0.0567 -0.1110
   96MOL0     C12879  10.482   3.801   0.696 -0.0668  0.1399  0.7672
   96MOL0     C12880  10.511   3.818   0.829  0.6089 -0.2705  0.5263
   96MOL0     C12881  10.425   3.895   0.913  0.9544  0.0121 -0.2206
   96MOL0     C12882  10.317   3.969   0.851  0.1832  0.3583 -0.1374
   96MOL0     O12883  10.243   4.064   0.921 -0.5990 -0.3049  0.0231
   96MOL0     C12884  10.330   4.154   0.989  0.6805 -0.1473 -0.0307
   96MOL0     C12885  10.230   4.244   1.059 -0.3540 -0.2708 -0.4650
   96MOL0     C12886  10.128   4.171   1.135  0.1526 -0.1838 -0.4971
   96MOL0     C12887  10.041   4.260   1.225  0.5817 -0.6665  0.5952
   96MOL0     C12888   9.965   4.365   1.151  0.5613  0.1373  0.5567
   96MOL0     C12889   9.905   4.447   1.079  1.0145 -0.3876 -0.2898
   96MOL0     C12890  10.277   3.939   0.724 -0.6149  0.1690  0.3719
   96MOL0     C12891  10.364   3.863   0.644 -0.5362  0.7348 -0.0076
   96MOL0     C12892  10.315   3.845   0.500  0.4818 -0.4423 -0.0785
   96MOL0     H12893  10.897   3.681   0.721 -2.2687 -0.7145  0.7418
   96MOL0     H12894  11.092   3.572   0.615 -1.1326  1.1503  0.5137
   96MOL0     H12895  11.255   3.393   0.538  0.0769 -1.7388 -0.4245
   96MOL0     H12896  11.154   3.274   0.608  3.8291  0.2027  1.7263
   96MOL0     H12897  11.296   3.275   0.335  3.1952  1.4410  1.1357
   96MOL0     H12898  11.215   3.133   0.409  0.1908  0.6769 -0.7372
   96MOL0     H12899  11.377   3.143   0.601 -0.6427 -2.8430 -1.4498
   96MOL0     H12900  11.461   3.276   0.527 -0.1822  0.5162 -2.0292
   96MOL0     H12901  11.420   2.992   0.417 -1.5175  1.6796 -0.2457
   96MOL0     H12902  11.496   3.126   0.314 -2.9357 -2.0477 -2.2468
   96MOL0     H12903  11.672   3.159   0.465  0.0550  0.7711  1.7639
   96MOL0     H12904  11.626   3.026   0.573  1.3935 -0.5519 -0.7710
   96MOL0     H12905  11.644   2.870   0.368 -0.4115  0.4123 -0.7865
   96MOL0     H12906  11.707   3.008   0.280 -0.5737 -1.7086 -1.2268
   96MOL0     H12907  11.872   2.850   0.381  2.9059  1.0889 -1.0191
   96MOL0     H12908  11.842   2.926   0.545  0.4564  0.8504 -0.8725
   96MOL0     H12909  11.928   3.084   0.291  0.3587  1.2844 -0.3633
   96MOL0     H12910  11.920   3.139   0.454  2.3811  1.2247  0.1891
   96MOL0     H12911  12.188   3.060   0.232 -1.4186  2.9362  0.6072
   96MOL0     H12912  12.489   2.929   0.446  2.0385  2.0548  0.2331
   96MOL0     H12913  12.449   2.918   0.277  1.4213 -0.2814  0.5122
   96MOL0     H12914  12.603   3.085   0.305  0.3295 -0.2288  0.9049
   96MOL0     H12915  12.447   3.175   0.268  0.0541 -0.4114 -1.8173
   96MOL0     H12916  12.426   3.253   0.490  1.4834  0.3512  3.5227
   96MOL0     H12917  12.602   3.269   0.456  0.7042 -1.0276  0.7525
   96MOL0     H12918  12.460   3.070   0.623 -0.2649  0.1465 -0.6934
   96MOL0     H12919  12.570   3.199   0.681  0.8674  0.9230  0.0199
   96MOL0     H12920  12.761   3.287   0.642 -1.7747 -1.8314  0.2475
   96MOL0     H12921  13.012   3.349   0.604  0.0348 -0.4079 -0.0208
   96MOL0     H12922  13.471   3.308   0.455 -0.9759 -0.3487  0.3848
   96MOL0     H12923  13.705   3.275   0.386 -2.0719  1.4430 -2.2275
   96MOL0     H12924  13.840   3.120   0.159  0.8447 -0.4175 -0.0004
   96MOL0     H12925  13.895   3.234   0.270  1.9241  1.2017  0.3511
   96MOL0     H12926  14.094   3.177   0.180 -0.7997 -0.3852  0.6234
   96MOL0     H12927  14.102   3.072   0.320 -0.9852  0.8155  0.6844
   96MOL0     H12928  14.026   2.889   0.154  1.4087  0.3341 -0.4696
   96MOL0     H12929  14.027   3.002   0.020 -1.2126 -1.0407  0.2783
   96MOL0     H12930  14.252   3.051   0.040 -0.3118 -0.2153 -1.0831
   96MOL0     H12931  14.225   2.884   0.008 -0.0202  1.0971 -1.0981
   96MOL0     H12932  14.310   3.008   0.272 -1.2079 -0.1714 -0.3829
   96MOL0     H12933  14.413   2.910   0.165 -0.6049 -2.1337 -1.5163
   96MOL0     H12934  14.337   2.797   0.375  0.3238  2.3987 -0.3676
   96MOL0     H12935  14.169   2.806   0.330 -0.5455 -1.1879  0.7644
   96MOL0     H12936  14.372   2.654   0.184  0.4722 -0.1707  1.1795
   96MOL0     H12937  14.206   2.669   0.121 -0.1375  0.2791  0.2100
   96MOL0     H12938  14.132   2.565   0.350  0.9830 -0.1970 -0.1302
   96MOL0     H12939  14.194   2.458   0.222  0.5540 -0.0820  0.0386
   96MOL0     H12940  13.659   2.856   0.396  0.4410  0.0324  2.3224
   96MOL0     H12941  13.421   2.888   0.453  1.2982 -2.2824 -0.3110
   96MOL0     H12942  13.102   2.953   0.506  1.5807  1.7896 -1.5411
   96MOL0     H12943  12.860   2.890   0.552 -2.1734  0.6829  0.7203
   96MOL0     H12944  10.822   3.299   0.418 -0.8775  0.8568 -1.5905
   96MOL0     H12945  10.640   3.430   0.523 -1.1299  3.9437  2.0428
   96MOL0     H12946  10.590   3.756   0.868  1.0309 -0.0832 -0.0131
   96MOL0     H12947  10.426   3.900   1.021 -0.2957 -1.4709 -0.1059
   96MOL0     H12948  10.383   4.217   0.916  1.2485  0.1622  0.6327
   96MOL0     H12949  10.396   4.099   1.057  0.2138 -1.6758 -0.7740
   96MOL0     H12950  10.178   4.300   0.981  1.2227 -0.3840 -1.6384
   96MOL0     H12951  10.287   4.305   1.130  1.7724 -3.5384  0.9132
   96MOL0     H12952  10.173   4.095   1.200  0.1422  0.3011  0.0900
   96MOL0     H12953  10.061   4.121   1.066 -2.7943  1.7327  0.7507
   96MOL0     H12954   9.968   4.207   1.287 -1.9486  0.5918 -1.1311
   96MOL0     H12955  10.104   4.305   1.303  0.2971  0.0754  0.4089
   96MOL0     H12956   9.876   4.511   0.999 -2.4875 -3.9217 -2.2176
   96MOL0     H12957  10.189   3.982   0.677 -0.2407 -1.6127 -2.1572
   96MOL0     H12958  10.392   3.871   0.427  1.4260  0.1973  1.0970
   96MOL0     H12959  10.284   3.742   0.477 -0.8605  0.1016 -0.7911
   96MOL0     H12960  10.236   3.919   0.489 -3.1575 -3.5168  2.3864
   97MOL0     O12961   0.195   7.641   7.677 -0.2361  0.9357  0.2095
   97MOL0     C12962   0.138   7.596   7.578  0.0349  0.0095 -0.3447
   97MOL0     O12963   0.190   7.589   7.456 -0.0996  0.6063  0.2279
   97MOL0     C12964   0.318   7.642   7.448  0.5016  0.2109 -0.6051
   97MOL0     C12965   0.424   7.556   7.466 -0.2309  0.0664  0.1745
   97MOL0     C12966   0.541   7.588   7.405  0.5889  0.2485  0.5214
   97MOL0     C12967   0.574   7.703   7.347 -0.0626  0.5418 -0.7424
   97MOL0     O12968   0.705   7.730   7.310  0.1267 -0.0257 -0.2670
   97MOL0     C12969   0.721   7.795   7.185 -0.5736  0.9138  0.1303
   97MOL0     C12970   0.850   7.878   7.201 -0.0898 -0.1588 -0.9103
   97MOL0     C12971   0.973   7.790   7.216  0.2868 -0.4735  0.1015
   97MOL0     C12972   1.040   7.798   7.361 -0.1062 -0.4190  0.7787
   97MOL0     C12973   1.189   7.784   7.351 -0.5952 -0.4799  0.4185
   97MOL0     C12974   1.254   7.770   7.490 -0.3201  0.1649 -0.0217
   97MOL0     C12975   1.396   7.728   7.473 -0.1750 -0.3407 -0.4360
   97MOL0     C12976   1.466   7.707   7.608 -0.0719 -1.0130  0.8347
   97MOL0     N12977   1.616   7.718   7.588 -1.3434 -0.1467  0.0367
   97MOL0     C12978   1.708   7.622   7.618 -0.1542  0.0760 -1.1447
   97MOL0     C12979   1.830   7.677   7.594  0.1333 -0.2346 -0.2475
   97MOL0     C12980   1.954   7.602   7.612  0.1892  0.4232 -0.8155
   97MOL0     C12981   2.075   7.690   7.581 -0.9411 -0.4734  0.8520
   97MOL0     C12982   2.208   7.597   7.574 -0.1063  0.1576 -0.0537
   97MOL0     C12983   2.272   7.570   7.712 -0.4250 -0.1625 -0.1829
   97MOL0     O12984   2.413   7.544   7.681  0.1693  0.1607  0.2009
   97MOL0     C12985   2.513   7.536   7.777 -0.0598 -0.3316 -0.1288
   97MOL0     C12986   2.634   7.480   7.733 -0.1840 -0.5663 -0.3546
   97MOL0     C12987   2.743   7.470   7.823 -0.8661 -0.1081  0.6473
   97MOL0     C12988   2.727   7.507   7.959  0.5142  0.2406 -0.2906
   97MOL0     C12989   2.836   7.513   8.053  0.3657  0.1709  0.7172
   97MOL0     O12990   2.942   7.458   8.005 -0.5663  0.7917  0.1921
   97MOL0     C12991   3.058   7.455   8.073  0.4802  1.0722 -0.2200
   97MOL0     C12992   3.073   7.353   8.166  0.0911 -0.6149  0.2975
   97MOL0     C12993   3.198   7.343   8.233  0.3736 -0.8507 -0.3476
   97MOL0     C12994   3.307   7.428   8.207  0.7261 -0.6255 -0.6151
   97MOL0     O12995   3.423   7.414   8.285  1.4495 -0.1093 -0.1839
   97MOL0     C12996   3.524   7.518   8.272  0.2864  0.3746 -0.7688
   97MOL0     C12997   3.663   7.446   8.300  0.4887  0.5626  0.3407
   97MOL0     C12998   3.781   7.540   8.281  0.0054  0.6277 -0.2423
   97MOL0     C12999   3.914   7.479   8.328 -0.3448 -0.5707  0.3521
   97MOL0     C13000   4.041   7.551   8.288 -0.0738 -0.0404  0.8882
   97MOL0     C13001   4.160   7.498   8.367  0.2213  0.1516 -0.6616
   97MOL0     C13002   4.292   7.540   8.300 -0.0181  0.2971 -1.3932
   97MOL0     C13003   4.410   7.459   8.354 -0.0694 -0.1910  0.6904
   97MOL0    Cl13004   4.567   7.528   8.333 -0.1183 -0.1029 -0.3136
   97MOL0     C13005   3.283   7.525   8.108 -0.5899  0.3418  0.7037
   97MOL0     C13006   3.164   7.537   8.035 -0.1087  0.5969  0.0900
   97MOL0     O13007   2.826   7.561   8.164 -0.0857  0.3916  0.6929
   97MOL0     C13008   2.602   7.560   8.000 -0.1416  0.1259 -0.8719
   97MOL0     C13009   2.494   7.573   7.917 -0.1639 -1.1104 -0.4361
   97MOL0     N13010   1.799   7.816   7.564 -0.8741 -0.5985  0.3781
   97MOL0     N13011   1.679   7.833   7.550  0.5591 -0.5190  0.2428
   97MOL0     C13012   0.469   7.796   7.331  0.1091  0.4037 -0.4536
   97MOL0     C13013   0.338   7.762   7.375 -0.5229  0.1276  0.2113
   97MOL0     C13014  -0.003   7.544   7.598 -0.1892 -0.2595  0.1166
   97MOL0     C13015  -0.085   7.557   7.484  0.0086  0.4564  0.3434
   97MOL0     C13016  -0.227   7.530   7.494 -0.6511 -0.6155  0.1595
   97MOL0     C13017  -0.283   7.479   7.613 -0.2946 -1.9338 -0.5108
   97MOL0     O13018  -0.420   7.458   7.635 -0.2565 -0.6155 -0.3235
   97MOL0     C13019  -0.519   7.486   7.527  0.4458 -0.3680  0.0533
   97MOL0     C13020  -0.516   7.379   7.421 -0.0115 -0.4442 -0.3102
   97MOL0     C13021  -0.632   7.405   7.331 -0.1814 -0.3006  0.0958
   97MOL0     C13022  -0.646   7.304   7.220 -0.1077 -1.0951  0.8019
   97MOL0     C13023  -0.764   7.324   7.141  0.7533 -0.3997 -0.0776
   97MOL0     C13024  -0.865   7.332   7.078  0.6372  0.2086 -0.5419
   97MOL0     C13025  -0.199   7.475   7.729 -0.0373  0.1106 -0.2390
   97MOL0     C13026  -0.062   7.508   7.722  0.0653 -0.5504 -0.8715
   97MOL0     C13027   0.021   7.503   7.849 -1.1509  0.5644 -0.2694
   97MOL0     H13028   0.407   7.460   7.513  0.2320 -0.0197  0.1716
   97MOL0     H13029   0.622   7.516   7.408  0.7159  0.3065 -0.9212
   97MOL0     H13030   0.753   7.719   7.113  0.1926 -1.7231  3.0840
   97MOL0     H13031   0.635   7.858   7.160 -0.9764  0.2779 -0.0872
   97MOL0     H13032   0.832   7.947   7.284 -3.6906 -0.8791 -0.9134
   97MOL0     H13033   0.871   7.938   7.112  0.3155  1.0849 -0.0134
   97MOL0     H13034   1.046   7.825   7.142  0.2490 -1.2769 -0.3310
   97MOL0     H13035   0.945   7.686   7.195 -1.8893  0.4184 -1.9277
   97MOL0     H13036   1.009   7.890   7.412 -0.2258  0.5772 -1.0278
   97MOL0     H13037   1.011   7.710   7.419  1.2798 -0.9068  0.7474
   97MOL0     H13038   1.210   7.697   7.288 -0.1000  1.3054 -2.0464
   97MOL0     H13039   1.239   7.862   7.293 -0.7449 -0.1328  0.7520
   97MOL0     H13040   1.237   7.868   7.536 -2.5000 -0.2592  0.1672
   97MOL0     H13041   1.208   7.690   7.548  4.3153 -2.5217  0.4658
   97MOL0     H13042   1.451   7.798   7.410  0.0952  2.2016  2.3977
   97MOL0     H13043   1.406   7.634   7.418  4.3106 -0.1539 -0.3368
   97MOL0     H13044   1.425   7.783   7.675 -1.3912  0.8316 -1.8909
   97MOL0     H13045   1.441   7.608   7.648  0.2777 -1.3368  0.2615
   97MOL0     H13046   1.680   7.524   7.655 -1.1540  0.3202 -1.2165
   97MOL0     H13047   1.960   7.568   7.716  0.9889  4.6865  0.7186
   97MOL0     H13048   1.962   7.520   7.540  1.8688  0.3203 -0.5468
   97MOL0     H13049   2.070   7.722   7.477  0.6692 -1.3468  0.4617
   97MOL0     H13050   2.080   7.769   7.656  1.0372 -1.1566  1.5199
   97MOL0     H13051   2.282   7.651   7.515 -0.4439  1.9595  1.0958
   97MOL0     H13052   2.182   7.498   7.535 -0.2513 -0.6088  1.8629
   97MOL0     H13053   2.229   7.491   7.774  0.4379 -0.4108  0.1160
   97MOL0     H13054   2.260   7.667   7.761  2.3769  0.7587 -1.1384
   97MOL0     H13055   2.633   7.453   7.628 -2.0449  2.9999 -1.4407
   97MOL0     H13056   2.843   7.444   7.791  0.6979  0.7145  4.3148
   97MOL0     H13057   2.996   7.277   8.178  0.6211 -1.0188  1.2739
   97MOL0     H13058   3.215   7.263   8.305 -1.2933  0.5179  1.7118
   97MOL0     H13059   3.536   7.572   8.178  0.7544 -1.2013 -1.6459
   97MOL0     H13060   3.512   7.603   8.340  1.7906  1.8943 -2.3240
   97MOL0     H13061   3.657   7.398   8.398  0.8388 -0.1847 -0.0001
   97MOL0     H13062   3.677   7.366   8.227  1.7482  0.2984  0.8549
   97MOL0     H13063   3.782   7.577   8.178 -0.5197 -1.5488 -1.0845
   97MOL0     H13064   3.757   7.627   8.342  1.6531  0.8920  0.0670
   97MOL0     H13065   3.919   7.380   8.281  1.0776  0.0903 -0.9952
   97MOL0     H13066   3.916   7.468   8.437 -1.6513  3.3232  0.9250
   97MOL0     H13067   4.022   7.658   8.305 -2.1684  0.1273 -1.7254
   97MOL0     H13068   4.052   7.546   8.179 -0.9529  1.4588  0.6883
   97MOL0     H13069   4.152   7.545   8.465 -0.1495  2.5413 -1.7770
   97MOL0     H13070   4.149   7.389   8.376 -0.7524  0.3124  0.1170
   97MOL0     H13071   4.305   7.646   8.321 -1.6035  0.5698 -1.6449
   97MOL0     H13072   4.289   7.526   8.191  1.5038 -1.4640 -1.2491
   97MOL0     H13073   4.401   7.454   8.463  1.5586  1.8406  0.9843
   97MOL0     H13074   4.403   7.360   8.308  1.6033  0.0841 -0.2148
   97MOL0     H13075   3.364   7.584   8.065 -1.9247 -0.0655 -2.6669
   97MOL0     H13076   3.157   7.604   7.949 -0.5960  0.9993  0.4324
   97MOL0     H13077   2.596   7.584   8.106  2.3653  0.4692 -0.7415
   97MOL0     H13078   2.403   7.617   7.954 -0.8820 -0.8425 -2.3745
   97MOL0     H13079   0.483   7.900   7.304  1.2576  0.3755 -0.0139
   97MOL0     H13080   0.262   7.839   7.361 -1.5001 -0.6988  0.7777
   97MOL0     H13081  -0.042   7.598   7.394 -2.2136 -0.4215 -1.1981
   97MOL0     H13082  -0.279   7.555   7.402  0.7483  0.6345 -0.3379
   97MOL0     H13083  -0.508   7.588   7.490  0.1996  0.8966  3.1546
   97MOL0     H13084  -0.621   7.477   7.566  0.0783  1.1941 -0.4603
   97MOL0     H13085  -0.526   7.278   7.464  0.4614 -0.8254 -1.0785
   97MOL0     H13086  -0.419   7.376   7.372  0.7448 -1.5924  1.1813
   97MOL0     H13087  -0.610   7.501   7.282 -0.7986 -0.5121 -0.6024
   97MOL0     H13088  -0.724   7.419   7.388 -1.3648 -2.0649 -1.2864
   97MOL0     H13089  -0.558   7.326   7.158 -0.3187 -2.1875  0.0887
   97MOL0     H13090  -0.642   7.201   7.255  1.2391 -0.6312  2.1075
   97MOL0     H13091  -0.953   7.351   7.020  0.9958 -0.0195 -1.1659
   97MOL0     H13092  -0.239   7.456   7.828  0.2842  0.5918 -0.0111
   97MOL0     H13093   0.107   7.435   7.842  1.4044  3.2562  2.2794
   97MOL0     H13094   0.065   7.599   7.876 -0.7838  0.2593  0.2382
   97MOL0     H13095  -0.039   7.464   7.932 -0.9169 -1.1537 -0.8571
   98MOL0     O13096   9.621   1.090   2.124 -1.1009  0.5700  0.1042
   98MOL0     C13097   9.569   1.130   2.228  0.1312 -0.5663  0.1891
   98MOL0     O13098   9.632   1.206   2.327 -0.1242 -0.0335  0.2403
   98MOL0     C13099   9.771   1.230   2.310  0.1885 -0.1329 -0.1998
   98MOL0     C13100   9.865   1.132   2.278 -0.0420  0.6146  0.1710
   98MOL0     C13101  10.008   1.160   2.264  0.4054 -0.7440  1.0736
   98MOL0     C13102  10.053   1.296   2.290 -0.0033  0.1232 -0.5849
   98MOL0     O13103  10.187   1.338   2.286 -0.3587  0.1596 -0.1220
   98MOL0     C13104  10.290   1.253   2.239 -0.8440 -0.0723 -0.2462
   98MOL0     C13105  10.416   1.330   2.187 -1.0448 -0.2657  0.0245
   98MOL0     C13106  10.462   1.441   2.284 -0.1172  0.2644  0.5443
   98MOL0     C13107  10.596   1.509   2.239  0.3276 -0.4070  0.3622
   98MOL0     C13108  10.637   1.623   2.338 -0.3370  0.1204 -0.7215
   98MOL0     C13109  10.785   1.673   2.329  0.3153  0.3372  0.3988
   98MOL0     C13110  10.900   1.568   2.342 -0.1508  0.4904 -0.0941
   98MOL0     C13111  11.035   1.641   2.338 -0.1788  0.2025 -0.1916
   98MOL0     N13112  11.082   1.704   2.215  0.2921 -0.2684 -0.1786
   98MOL0     C13113  11.112   1.835   2.204  0.3211  0.2811 -0.1213
   98MOL0     C13114  11.126   1.858   2.067  1.0114 -0.0449 -0.8910
   98MOL0     C13115  11.161   1.993   1.995  0.3263 -0.1530  0.2787
   98MOL0     C13116  11.299   2.043   2.023 -0.8179 -0.2176  0.6534
   98MOL0     C13117  11.337   2.156   1.921 -0.2821  0.5336  0.3956
   98MOL0     C13118  11.460   2.235   1.973 -0.6667  0.3502 -0.3865
   98MOL0     O13119  11.585   2.164   1.962  0.1064  0.2856 -0.4982
   98MOL0     C13120  11.696   2.226   2.001  1.2825 -0.3484  0.0699
   98MOL0     C13121  11.707   2.358   2.040 -0.5382  0.3245  0.2243
   98MOL0     C13122  11.832   2.414   2.080 -0.3961  0.1828  0.3072
   98MOL0     C13123  11.945   2.325   2.098 -0.3582 -0.1960  0.2111
   98MOL0     C13124  12.079   2.372   2.125 -0.4168 -1.1433 -0.5236
   98MOL0     O13125  12.184   2.281   2.141 -0.6831  0.1998  1.0159
   98MOL0     C13126  12.308   2.335   2.163  0.2794 -0.5068  0.2397
   98MOL0     C13127  12.394   2.351   2.052 -0.1340 -0.2617 -0.3609
   98MOL0     C13128  12.529   2.388   2.069  0.7557  0.0518 -0.2302
   98MOL0     C13129  12.576   2.411   2.196 -1.4593  0.7841  0.1870
   98MOL0     O13130  12.719   2.422   2.226  0.0125  0.3161 -0.2140
   98MOL0     C13131  12.797   2.462   2.113  0.2108  0.2393 -0.0504
   98MOL0     C13132  12.878   2.583   2.152 -0.5841  0.0842 -0.4644
   98MOL0     C13133  12.993   2.539   2.251  0.0838  0.1141 -0.2939
   98MOL0     C13134  13.080   2.661   2.289  0.2667 -0.3091 -0.0950
   98MOL0     C13135  13.194   2.623   2.382 -0.9290 -0.1568  0.5865
   98MOL0     C13136  13.334   2.608   2.317  0.1014  0.9610 -0.4676
   98MOL0     C13137  13.425   2.536   2.413 -0.1645 -0.3802  0.4975
   98MOL0     C13138  13.544   2.479   2.331 -0.5366  0.1043 -0.3356
   98MOL0    Cl13139  13.483   2.363   2.203  0.6271  0.0429 -0.2606
   98MOL0     C13140  12.490   2.393   2.305  0.5852  0.5917  0.9212
   98MOL0     C13141  12.358   2.346   2.289 -0.3428  0.0025 -0.0503
   98MOL0     O13142  12.093   2.494   2.131  0.4222 -0.0310 -0.0676
   98MOL0     C13143  11.937   2.191   2.054  1.7508  0.3498 -0.2747
   98MOL0     C13144  11.804   2.148   2.023 -0.3802  0.4056  0.8521
   98MOL0     N13145  11.114   1.733   2.006 -0.6097  0.7299 -0.5575
   98MOL0     N13146  11.101   1.645   2.094 -0.0996 -0.1906 -0.1540
   98MOL0     C13147   9.960   1.393   2.338  0.4128  0.2570  0.3772
   98MOL0     C13148   9.824   1.363   2.338 -0.9077  0.7317  0.1278
   98MOL0     C13149   9.424   1.110   2.249  0.0404  0.6725 -0.2119
   98MOL0     C13150   9.381   1.070   2.379 -0.1715 -0.6484  0.3858
   98MOL0     C13151   9.242   1.061   2.403  0.8393 -0.0131  0.1950
   98MOL0     C13152   9.147   1.090   2.307  0.8588  0.3823 -0.3782
   98MOL0     O13153   9.015   1.082   2.355  0.0659  0.0885  0.4251
   98MOL0     C13154   8.922   1.072   2.242 -0.0569  1.1822 -0.8058
   98MOL0     C13155   8.792   1.022   2.303 -0.2468 -0.0417 -0.5648
   98MOL0     C13156   8.650   1.033   2.232  0.0094 -0.5776  0.6055
   98MOL0     C13157   8.657   1.018   2.075  0.4786 -0.5724 -0.5897
   98MOL0     C13158   8.529   1.038   2.005 -0.3822  0.7419 -0.0941
   98MOL0     C13159   8.433   1.052   1.932 -0.0408  0.3215 -0.0098
   98MOL0     C13160   9.195   1.117   2.177 -0.5096  1.5041  0.9197
   98MOL0     C13161   9.336   1.123   2.140  0.3706  0.1688  0.4987
   98MOL0     C13162   9.375   1.135   1.996  0.2443  0.1247  0.5457
   98MOL0     H13163   9.831   1.035   2.244  0.3077  0.1000  1.2510
   98MOL0     H13164  10.067   1.074   2.234 -1.1607 -2.0144  1.4449
   98MOL0     H13165  10.325   1.175   2.307  0.0792 -0.3519 -1.0204
   98MOL0     H13166  10.260   1.200   2.148  0.6859 -0.6957 -0.4219
   98MOL0     H13167  10.392   1.391   2.099 -0.2988 -1.8733 -1.3557
   98MOL0     H13168  10.494   1.260   2.155 -1.6740 -1.8624  1.8229
   98MOL0     H13169  10.469   1.399   2.384 -3.6360  0.3443  0.9402
   98MOL0     H13170  10.376   1.509   2.287 -1.5700 -1.4326 -0.5794
   98MOL0     H13171  10.681   1.440   2.235  1.8812  1.4659 -0.8074
   98MOL0     H13172  10.586   1.548   2.137  2.2172 -1.2373 -0.1865
   98MOL0     H13173  10.572   1.705   2.306 -0.9786 -0.1741 -0.2049
   98MOL0     H13174  10.621   1.585   2.439  3.9086 -2.0450 -0.6372
   98MOL0     H13175  10.784   1.722   2.231  0.3204 -0.6284 -0.0904
   98MOL0     H13176  10.795   1.756   2.400  0.6390  0.1031  0.6322
   98MOL0     H13177  10.903   1.501   2.255  0.2033  1.0359 -0.5088
   98MOL0     H13178  10.886   1.526   2.442  0.9019  0.9011  0.2334
   98MOL0     H13179  11.029   1.718   2.415 -1.6109 -1.0925  1.0605
   98MOL0     H13180  11.115   1.572   2.368 -1.0935 -0.0958  1.7328
   98MOL0     H13181  11.104   1.909   2.284 -0.6873  0.5481 -0.4487
   98MOL0     H13182  11.148   1.968   1.890  0.6649 -3.3009  0.8773
   98MOL0     H13183  11.077   2.057   2.023 -2.0260 -1.3689 -3.3931
   98MOL0     H13184  11.312   2.077   2.126  3.0850  0.8766 -0.0589
   98MOL0     H13185  11.369   1.960   2.006  0.3649  0.6938  0.9581
   98MOL0     H13186  11.257   2.230   1.921 -2.0494 -1.2650 -0.7796
   98MOL0     H13187  11.350   2.107   1.824  2.2422 -0.9844  1.4157
   98MOL0     H13188  11.445   2.261   2.079  2.2825 -1.1753  0.5166
   98MOL0     H13189  11.469   2.322   1.909  1.2977  0.2352 -0.3230
   98MOL0     H13190  11.622   2.425   2.036 -1.8275 -1.2913 -1.6180
   98MOL0     H13191  11.839   2.518   2.109 -2.1226  0.1492  0.9357
   98MOL0     H13192  12.356   2.345   1.951 -1.7374  1.9274  0.0278
   98MOL0     H13193  12.587   2.389   1.977 -0.0134  3.2576 -0.8184
   98MOL0     H13194  12.864   2.378   2.090  0.7713 -0.1023  2.4782
   98MOL0     H13195  12.742   2.489   2.023 -0.8755  2.5345  1.2291
   98MOL0     H13196  12.933   2.616   2.063  0.7019 -5.1650 -1.9796
   98MOL0     H13197  12.818   2.660   2.201 -1.9510 -2.5831  2.3883
   98MOL0     H13198  12.957   2.495   2.344  0.7459  0.0720 -0.0470
   98MOL0     H13199  13.061   2.467   2.203  2.0514  0.4670  1.7732
   98MOL0     H13200  13.020   2.736   2.341 -0.1478 -0.0152 -0.9645
   98MOL0     H13201  13.104   2.704   2.191  4.4222 -0.7004  0.5670
   98MOL0     H13202  13.170   2.537   2.446 -2.0079  0.2970  0.8024
   98MOL0     H13203  13.203   2.709   2.449 -1.3352  0.0426  0.3834
   98MOL0     H13204  13.319   2.570   2.216 -0.2088  1.1591 -0.4987
   98MOL0     H13205  13.374   2.710   2.308 -1.6181  1.6963 -0.1917
   98MOL0     H13206  13.360   2.464   2.465 -2.8382  0.9577 -0.7686
   98MOL0     H13207  13.474   2.604   2.484  1.2218 -2.0552  1.2247
   98MOL0     H13208  13.597   2.561   2.282 -1.0004  0.2463 -0.6066
   98MOL0     H13209  13.615   2.439   2.404 -2.8584 -0.3262  1.8231
   98MOL0     H13210  12.533   2.399   2.404  4.1981  1.6390 -0.5700
   98MOL0     H13211  12.294   2.317   2.371  1.0654 -1.0030  0.7388
   98MOL0     H13212  12.012   2.113   2.050  1.2059 -0.1628 -0.6974
   98MOL0     H13213  11.794   2.040   2.011 -0.7620  0.3300  1.7746
   98MOL0     H13214   9.983   1.499   2.338 -0.4286  0.4417  0.0962
   98MOL0     H13215   9.743   1.435   2.341 -2.6665 -1.1862  1.8446
   98MOL0     H13216   9.461   1.062   2.452  0.4058 -3.0434 -0.4128
   98MOL0     H13217   9.203   1.046   2.503 -0.7106 -0.5682 -0.4734
   98MOL0     H13218   8.949   0.995   2.169 -0.0733  0.7987 -0.4105
   98MOL0     H13219   8.902   1.165   2.188  1.9240  1.8956 -0.3639
   98MOL0     H13220   8.784   1.059   2.406  0.7684  0.7474 -0.7532
   98MOL0     H13221   8.810   0.915   2.313 -0.5046  0.0926  2.1602
   98MOL0     H13222   8.598   1.120   2.273  0.8881 -1.6623  4.3601
   98MOL0     H13223   8.583   0.951   2.258  0.4553 -0.9503  0.5690
   98MOL0     H13224   8.733   1.088   2.038 -1.2054  0.6491 -1.9220
   98MOL0     H13225   8.700   0.919   2.060 -0.1569 -0.7421 -1.3605
   98MOL0     H13226   8.348   1.068   1.867  0.8773  1.0442 -1.0764
   98MOL0     H13227   9.124   1.137   2.096  0.1840  0.9706  0.1623
   98MOL0     H13228   9.284   1.135   1.936  2.2907 -0.8970 -2.7948
   98MOL0     H13229   9.435   1.225   1.978  2.0256 -0.8792  1.1582
   98MOL0     H13230   9.428   1.048   1.957  1.2822  0.6867  0.6541
   99MOL0     O13231   4.038   2.286   9.176  0.3700  0.3322 -1.1580
   99MOL0     C13232   3.938   2.252   9.123 -0.0550  0.3650  0.8320
   99MOL0     O13233   3.938   2.148   9.047 -0.3041 -0.0053  0.3556
   99MOL0     C13234   4.053   2.101   8.989  0.7334 -0.0694 -0.2196
   99MOL0     C13235   4.160   2.182   8.954 -0.9392 -0.0489 -0.6687
   99MOL0     C13236   4.272   2.131   8.892  0.8955  0.5763  0.6864
   99MOL0     C13237   4.272   1.996   8.852 -0.3078  0.5684  0.1067
   99MOL0     O13238   4.364   1.932   8.769  0.0422  0.4565  0.1323
   99MOL0     C13239   4.500   1.955   8.795 -0.5911  0.3297 -0.8924
   99MOL0     C13240   4.575   1.828   8.838 -0.6580  0.2795 -0.4336
   99MOL0     C13241   4.609   1.735   8.733  0.3274  0.0318  0.0359
   99MOL0     C13242   4.622   1.592   8.797 -0.3970  0.0783  0.1855
   99MOL0     C13243   4.771   1.533   8.782 -0.1820  0.6915 -0.0989
   99MOL0     C13244   4.877   1.604   8.881 -0.2129 -0.6537  0.7520
   99MOL0     C13245   5.016   1.546   8.886 -0.3981  0.3814  0.4397
   99MOL0     C13246   5.099   1.586   8.768 -0.2329  0.5238  0.0964
   99MOL0     N13247   5.240   1.542   8.789  0.1068  0.2272  0.3547
   99MOL0     C13248   5.344   1.627   8.770 -0.6108 -0.7907  0.3718
   99MOL0     C13249   5.455   1.557   8.811 -0.0499  0.0997  0.4374
   99MOL0     C13250   5.592   1.617   8.822  0.3571  0.3793 -0.0985
   99MOL0     C13251   5.677   1.572   8.700  0.3903  0.7151  0.5018
   99MOL0     C13252   5.801   1.660   8.695  0.6406  0.2553 -0.2595
   99MOL0     C13253   5.905   1.588   8.626  0.2090  0.3449  0.4153
   99MOL0     O13254   6.015   1.685   8.627  0.2479  0.9749  0.5073
   99MOL0     C13255   6.111   1.659   8.529 -0.6927 -0.0490 -1.0840
   99MOL0     C13256   6.155   1.536   8.491  0.6385 -0.3583 -0.2367
   99MOL0     C13257   6.255   1.517   8.398 -0.8108  1.1520  0.9238
   99MOL0     C13258   6.319   1.624   8.346 -0.3936  0.0613 -0.0232
   99MOL0     C13259   6.434   1.606   8.256 -0.1610 -0.3082  0.5922
   99MOL0     O13260   6.441   1.488   8.187  0.8440  0.3363 -0.1168
   99MOL0     C13261   6.562   1.458   8.126 -0.0369  0.2013 -0.3319
   99MOL0     C13262   6.618   1.529   8.020 -0.8020  0.0205  0.4303
   99MOL0     C13263   6.747   1.509   7.973  0.0793 -0.0072  0.1817
   99MOL0     C13264   6.824   1.404   8.029 -0.0303  0.5182  0.5309
   99MOL0     O13265   6.945   1.376   7.978 -0.0625  0.5827  0.3586
   99MOL0     C13266   6.966   1.415   7.844 -0.0677 -0.3966  0.6521
   99MOL0     C13267   7.104   1.365   7.807 -0.2035 -1.2141 -0.0179
   99MOL0     C13268   7.125   1.215   7.826  0.2447 -0.0976  0.6547
   99MOL0     C13269   7.266   1.178   7.809 -1.1369 -0.2197 -0.3283
   99MOL0     C13270   7.305   1.029   7.841 -0.3922 -0.1386 -0.0548
   99MOL0     C13271   7.455   1.008   7.811  0.8177  0.0495 -0.2933
   99MOL0     C13272   7.530   1.057   7.929 -0.1641 -0.6278  0.4710
   99MOL0     C13273   7.672   1.019   7.918 -0.4596  0.1908 -0.4606
   99MOL0    Cl13274   7.753   1.147   7.829  0.0673 -0.0699 -0.0568
   99MOL0     C13275   6.761   1.316   8.122  0.3766 -1.2815  0.2093
   99MOL0     C13276   6.633   1.351   8.178 -0.4229  0.3014  0.1288
   99MOL0     O13277   6.510   1.702   8.239  0.6666  0.4795  0.3934
   99MOL0     C13278   6.267   1.744   8.374  0.8837 -0.0860 -0.6657
   99MOL0     C13279   6.164   1.771   8.467 -0.6429  0.4872 -0.0522
   99MOL0     N13280   5.411   1.425   8.847  0.6476 -0.2460  0.0207
   99MOL0     N13281   5.281   1.427   8.844  0.5432  0.1453 -0.4013
   99MOL0     C13282   4.151   1.922   8.873 -0.1549  0.0927 -0.2066
   99MOL0     C13283   4.042   1.975   8.938 -0.1435  0.0365  0.0126
   99MOL0     C13284   3.804   2.298   9.172 -0.8828  0.3336 -0.9135
   99MOL0     C13285   3.687   2.217   9.177 -0.3213 -0.3570 -0.0479
   99MOL0     C13286   3.559   2.264   9.208  0.1393  0.9779  0.2979
   99MOL0     C13287   3.548   2.396   9.254  0.1605 -0.0989  0.7348
   99MOL0     O13288   3.417   2.436   9.287 -0.1116 -0.4114 -0.2509
   99MOL0     C13289   3.393   2.560   9.364 -0.5213 -0.0902  0.0697
   99MOL0     C13290   3.246   2.566   9.409 -0.1519  0.3250 -0.2437
   99MOL0     C13291   3.146   2.544   9.290  0.1445 -0.7545  0.4287
   99MOL0     C13292   3.106   2.395   9.264 -0.4775  0.1680 -0.2680
   99MOL0     C13293   3.004   2.359   9.361 -0.3642  0.0926  0.6878
   99MOL0     C13294   2.929   2.319   9.440  0.7239  0.4559  0.5182
   99MOL0     C13295   3.658   2.480   9.242  0.7642 -0.7636 -0.1393
   99MOL0     C13296   3.780   2.436   9.190 -0.8747 -0.4452  1.0139
   99MOL0     C13297   3.894   2.546   9.162  0.5751 -0.0824 -0.7511
   99MOL0     H13298   4.181   2.285   8.982  1.5387 -0.6651 -0.0082
   99MOL0     H13299   4.367   2.181   8.877  1.2935 -0.7076 -1.3761
   99MOL0     H13300   4.545   1.995   8.704  2.3825 -1.2913 -0.2466
   99MOL0     H13301   4.513   2.022   8.880  3.1577 -1.4420  0.1047
   99MOL0     H13302   4.502   1.787   8.909 -0.8988  2.0117  0.3602
   99MOL0     H13303   4.665   1.853   8.894 -0.9872 -0.2681  0.3565
   99MOL0     H13304   4.699   1.763   8.677 -0.9560  0.0042 -2.1780
   99MOL0     H13305   4.533   1.741   8.655  1.4177 -0.0824 -1.0640
   99MOL0     H13306   4.598   1.601   8.903 -0.3980  0.7335  0.1375
   99MOL0     H13307   4.540   1.540   8.746 -2.8488  2.7511  1.1176
   99MOL0     H13308   4.767   1.428   8.814 -1.2164  0.5182 -0.7086
   99MOL0     H13309   4.804   1.529   8.678 -1.3798  0.1925 -0.4871
   99MOL0     H13310   4.871   1.709   8.853 -0.4569 -0.7568  0.4086
   99MOL0     H13311   4.829   1.603   8.979 -1.2092 -1.6393  0.2831
   99MOL0     H13312   5.014   1.437   8.898 -0.4042  0.3976  0.5953
   99MOL0     H13313   5.061   1.588   8.976 -2.9221  3.1020  0.5564
   99MOL0     H13314   5.056   1.552   8.674  0.1346  0.2424  0.0290
   99MOL0     H13315   5.101   1.696   8.765 -0.3924  0.5026 -1.5944
   99MOL0     H13316   5.350   1.729   8.733  4.3623 -0.7410  0.6589
   99MOL0     H13317   5.596   1.725   8.835 -0.4280  0.5372 -1.0381
   99MOL0     H13318   5.637   1.589   8.917  3.4243  1.3263 -1.1666
   99MOL0     H13319   5.685   1.463   8.706  0.1913  0.5878 -1.0885
   99MOL0     H13320   5.622   1.595   8.608  1.4839  0.0835 -0.3356
   99MOL0     H13321   5.836   1.661   8.799 -1.6945  2.7624  0.6148
   99MOL0     H13322   5.785   1.756   8.647  0.7086 -0.4415 -1.7413
   99MOL0     H13323   5.864   1.582   8.524 -0.5041  2.0166  0.5779
   99MOL0     H13324   5.928   1.497   8.683  2.4405  1.9713  2.2753
   99MOL0     H13325   6.105   1.446   8.525 -2.6524  1.4674  0.1449
   99MOL0     H13326   6.302   1.421   8.386  1.6361  2.3591  0.2019
   99MOL0     H13327   6.556   1.603   7.969  0.6865  1.5871  0.8017
   99MOL0     H13328   6.793   1.572   7.898 -1.5568 -0.3083 -1.1350
   99MOL0     H13329   6.891   1.385   7.770 -0.8328 -0.4648  1.4346
   99MOL0     H13330   6.975   1.523   7.834  4.4098 -0.1943  3.7860
   99MOL0     H13331   7.120   1.396   7.704  0.0535  3.5299  1.2342
   99MOL0     H13332   7.175   1.417   7.872 -2.0672  1.2978  0.1346
   99MOL0     H13333   7.088   1.182   7.924  1.5138 -0.5489  0.9960
   99MOL0     H13334   7.068   1.164   7.748  2.5166 -0.4489 -0.8789
   99MOL0     H13335   7.322   1.244   7.877 -0.5376  0.6588 -1.6360
   99MOL0     H13336   7.302   1.201   7.708  0.0429 -0.1501  0.0920
   99MOL0     H13337   7.243   0.969   7.773 -0.1128 -1.9900  1.2462
   99MOL0     H13338   7.275   0.986   7.937 -1.8011 -0.1478 -0.4743
   99MOL0     H13339   7.482   0.903   7.797  0.9365  0.2302 -1.4904
   99MOL0     H13340   7.498   1.050   7.719  2.3422 -3.6114 -1.4278
   99MOL0     H13341   7.484   1.030   8.024 -3.7164  0.5511 -0.7292
   99MOL0     H13342   7.518   1.165   7.923 -1.5267 -0.8331 -1.5905
   99MOL0     H13343   7.713   1.019   8.020 -0.7815 -0.2391 -0.3236
   99MOL0     H13344   7.703   0.925   7.871 -0.4459 -0.0011 -0.0751
   99MOL0     H13345   6.825   1.235   8.154  1.3316 -1.3013 -1.6638
   99MOL0     H13346   6.575   1.295   8.251 -1.2653 -0.5067 -1.1211
   99MOL0     H13347   6.307   1.832   8.326 -1.1014  0.5885 -1.1815
   99MOL0     H13348   6.136   1.875   8.485  1.4642  0.9621  0.7846
   99MOL0     H13349   4.156   1.820   8.836  0.3454  0.3961 -1.0011
   99MOL0     H13350   3.953   1.914   8.948  0.0268 -0.5689 -1.7455
   99MOL0     H13351   3.698   2.114   9.147 -1.2379 -0.0478 -1.5357
   99MOL0     H13352   3.480   2.190   9.209  2.9739 -2.3260 -1.1615
   99MOL0     H13353   3.418   2.649   9.306 -0.7437 -0.4396 -0.5752
   99MOL0     H13354   3.453   2.563   9.455 -1.0820 -0.0375  0.4434
   99MOL0     H13355   3.236   2.662   9.460 -0.8025 -0.9047  2.1292
   99MOL0     H13356   3.228   2.493   9.489  4.5198  0.2631  1.0363
   99MOL0     H13357   3.186   2.597   9.203  1.8089  0.0796  1.6379
   99MOL0     H13358   3.053   2.602   9.301  2.0066  2.8827 -1.2643
   99MOL0     H13359   3.071   2.378   9.162  1.8949 -0.3394 -1.0626
   99MOL0     H13360   3.199   2.337   9.270 -0.4834 -0.2758 -3.1142
   99MOL0     H13361   2.861   2.289   9.518 -0.7390 -1.3709 -1.3425
   99MOL0     H13362   3.646   2.586   9.262 -0.2579 -0.6028 -1.4693
   99MOL0     H13363   3.950   2.511   9.075  2.2736 -1.5517  0.8173
   99MOL0     H13364   3.857   2.645   9.135  0.4694 -0.2995 -1.4192
   99MOL0     H13365   3.966   2.550   9.245  0.9591 -0.8032 -1.0328
  100MOL0     O13366   0.090  10.255   7.124 -0.6596  0.6971  0.4323
  100MOL0     C13367   0.002  10.162   7.117 -0.3358  0.3980  0.5799
  100MOL0     O13368   0.024  10.029   7.106  0.1512  0.1274 -0.0208
  100MOL0     C13369   0.157   9.998   7.096  0.1249  0.1706 -0.5606
  100MOL0     C13370   0.217   9.970   6.973  0.1787 -0.2113  0.2719
  100MOL0     C13371   0.346   9.921   6.965 -0.4274  0.4582  0.4308
  100MOL0     C13372   0.427   9.916   7.074  0.8706 -0.3852  0.9316
  100MOL0     O13373   0.557   9.870   7.066  0.4145  0.1311 -0.8013
  100MOL0     C13374   0.662   9.960   7.081  0.4590  0.1143 -0.1283
  100MOL0     C13375   0.795   9.905   7.009  0.2638  0.2033  0.3776
  100MOL0     C13376   0.937   9.971   7.036  1.2196 -0.0556 -0.1451
  100MOL0     C13377   1.056   9.886   6.991 -0.1019 -0.2769  0.4223
  100MOL0     C13378   1.188   9.967   7.027  0.0031  0.2337 -0.2366
  100MOL0     C13379   1.203  10.090   6.947 -0.0656  0.1729  0.2339
  100MOL0     C13380   1.341  10.154   6.975  0.3252 -0.1293  0.1245
  100MOL0     C13381   1.359  10.284   6.893  0.0363  0.1165  0.2186
  100MOL0     N13382   1.482  10.353   6.918  0.6928 -0.1038 -0.2170
  100MOL0     C13383   1.515  10.426   7.029  0.3961  0.3563 -0.1583
  100MOL0     C13384   1.646  10.453   7.007  0.6586  0.6526 -0.1589
  100MOL0     C13385   1.728  10.534   7.112 -0.3410  1.0469  0.2062
  100MOL0     C13386   1.835  10.445   7.182  0.0120 -0.6568  0.0980
  100MOL0     C13387   1.968  10.494   7.137 -0.4197  0.3915  0.1801
  100MOL0     C13388   2.092  10.438   7.210  0.2065  0.3030 -0.2832
  100MOL0     O13389   2.113  10.307   7.149 -0.1707  0.5983 -0.0813
  100MOL0     C13390   2.235  10.247   7.167 -0.0375  0.6179  0.8139
  100MOL0     C13391   2.331  10.304   7.241 -0.3886 -0.0336 -0.7128
  100MOL0     C13392   2.465  10.256   7.240  0.4756 -0.7303  0.8560
  100MOL0     C13393   2.485  10.140   7.163 -1.0737  0.5956  0.5040
  100MOL0     C13394   2.621  10.093   7.138  0.2325 -0.6051 -0.6877
  100MOL0     O13395   2.723  10.154   7.205 -0.1213 -0.6820  0.0750
  100MOL0     C13396   2.852  10.109   7.178  0.5762  0.1999 -0.4626
  100MOL0     C13397   2.942  10.090   7.284 -0.3068  0.5543 -0.1662
  100MOL0     C13398   3.067  10.029   7.265 -0.2344 -0.0354  0.6026
  100MOL0     C13399   3.109   9.993   7.138  0.3806 -0.4707  0.3615
  100MOL0     O13400   3.244   9.960   7.121 -0.7383 -0.1922 -0.4177
  100MOL0     C13401   3.300   9.971   6.985  0.2966  1.0221 -0.1907
  100MOL0     C13402   3.418   9.892   6.974 -0.5718  1.0786 -0.0638
  100MOL0     C13403   3.472   9.880   6.834  0.8176  0.2129  0.0939
  100MOL0     C13404   3.524  10.002   6.778 -0.3545 -0.2056  0.5376
  100MOL0     C13405   3.616  10.089   6.858 -0.4736  0.4895 -0.3137
  100MOL0     C13406   3.754  10.030   6.876 -0.1289 -0.2291  0.2062
  100MOL0     C13407   3.842  10.124   6.964  0.3673  0.2120  0.7507
  100MOL0     C13408   3.979  10.060   6.955  0.2578 -0.4530  0.5183
  100MOL0    Cl13409   4.063  10.171   6.835 -0.2632  0.2785 -0.0818
  100MOL0     C13410   3.025  10.017   7.028  0.0078 -0.7987  0.8153
  100MOL0     C13411   2.896  10.073   7.050  0.0045 -0.2706 -0.0135
  100MOL0     O13412   2.633   9.994   7.068 -0.4025  0.3996  0.4936
  100MOL0     C13413   2.380  10.076   7.097  0.4877  0.0467 -0.2681
  100MOL0     C13414   2.256  10.129   7.102 -0.9752 -0.1651  0.2486
  100MOL0     N13415   1.690  10.406   6.889  0.5819  0.1586 -0.0551
  100MOL0     N13416   1.591  10.334   6.839  0.2296 -0.6022 -0.1344
  100MOL0     C13417   0.365   9.955   7.201  0.3063 -0.3240  0.0215
  100MOL0     C13418   0.233   9.994   7.214  0.2669  0.3542 -0.0055
  100MOL0     C13419  -0.134  10.202   7.160  0.2160  0.0800 -0.2656
  100MOL0     C13420  -0.190  10.140   7.275 -0.5284 -0.2124  0.5012
  100MOL0     C13421  -0.312  10.187   7.317 -0.6057  0.0566 -0.6385
  100MOL0     C13422  -0.380  10.289   7.254  0.3576 -0.0274 -0.5837
  100MOL0     O13423  -0.504  10.336   7.299 -0.4668  0.5238  0.0200
  100MOL0     C13424  -0.551  10.298   7.429 -0.5586 -0.7940 -0.0622
  100MOL0     C13425  -0.672  10.381   7.487 -0.1577  0.6852  0.9066
  100MOL0     C13426  -0.641  10.531   7.469 -0.1408  0.1467  0.0962
  100MOL0     C13427  -0.738  10.617   7.540 -0.0173 -0.0980  0.1022
  100MOL0     C13428  -0.732  10.600   7.684 -0.0161  0.2443  0.0643
  100MOL0     C13429  -0.724  10.588   7.804  1.3379  0.3335 -0.3437
  100MOL0     C13430  -0.327  10.343   7.139  0.6086 -0.3879  0.1810
  100MOL0     C13431  -0.204  10.299   7.085  0.0829 -0.4430  0.5163
  100MOL0     C13432  -0.148  10.360   6.962 -0.4224  1.2297 -0.6473
  100MOL0     H13433   0.141   9.971   6.896  0.2090 -0.9624  0.2293
  100MOL0     H13434   0.400   9.887   6.877  0.9312 -0.6730  1.6423
  100MOL0     H13435   0.632  10.061   7.050 -3.0444 -0.1939  1.7479
  100MOL0     H13436   0.686   9.964   7.188  2.0387  0.1184 -0.4641
  100MOL0     H13437   0.781   9.907   6.901 -0.9337  1.8071  0.5190
  100MOL0     H13438   0.814   9.801   7.034 -0.6258  0.1254  0.7693
  100MOL0     H13439   0.943   9.989   7.143 -0.4517 -4.1651  0.8147
  100MOL0     H13440   0.948  10.070   6.990 -2.0826  0.0879 -0.9013
  100MOL0     H13441   1.055   9.787   7.037 -2.5768 -0.7088 -0.4380
  100MOL0     H13442   1.053   9.865   6.884  0.5150 -1.9963  0.7079
  100MOL0     H13443   1.164   9.997   7.130 -0.9867 -0.7818 -0.1481
  100MOL0     H13444   1.274   9.900   7.024 -0.8959 -0.9397 -0.6278
  100MOL0     H13445   1.196  10.056   6.843 -0.6364  0.9220  0.0207
  100MOL0     H13446   1.124  10.158   6.977 -0.1594 -1.3246  3.8016
  100MOL0     H13447   1.414  10.077   6.950 -0.3527 -1.0093  0.8011
  100MOL0     H13448   1.348  10.179   7.081  0.5666 -0.7436  0.2593
  100MOL0     H13449   1.344  10.278   6.785  1.0915 -2.2902  0.1480
  100MOL0     H13450   1.272  10.346   6.915 -0.5868 -0.7970  0.3847
  100MOL0     H13451   1.456  10.449   7.117 -1.2846  0.8581 -1.3531
  100MOL0     H13452   1.769  10.630   7.080  0.2437 -0.0115 -2.4192
  100MOL0     H13453   1.657  10.554   7.194  1.1827 -2.4543  2.6139
  100MOL0     H13454   1.816  10.442   7.290 -0.7197 -0.3271 -0.0132
  100MOL0     H13455   1.827  10.340   7.153 -1.1150 -0.5934  0.1111
  100MOL0     H13456   1.966  10.602   7.158  0.9181  0.7812 -1.5003
  100MOL0     H13457   1.988  10.475   7.032  1.9249 -0.6367  0.7543
  100MOL0     H13458   2.083  10.451   7.318  1.8600  0.5118 -0.1454
  100MOL0     H13459   2.179  10.493   7.174  1.1315  0.8490  2.5559
  100MOL0     H13460   2.322  10.389   7.308  0.5918 -0.3810 -0.1174
  100MOL0     H13461   2.553  10.293   7.292  1.0699  0.3487 -0.8417
  100MOL0     H13462   2.910  10.105   7.387  0.6661 -1.0362  0.4117
  100MOL0     H13463   3.128  10.023   7.355  0.4772 -1.6573  0.0458
  100MOL0     H13464   3.234   9.922   6.912 -1.5432  1.6279  0.9857
  100MOL0     H13465   3.322  10.074   6.958 -0.6245  1.2970  0.0666
  100MOL0     H13466   3.494   9.931   7.042 -0.4811  1.3591 -0.3202
  100MOL0     H13467   3.392   9.792   7.009  2.6394 -0.5833 -1.8827
  100MOL0     H13468   3.556   9.811   6.843  2.1618  1.1508 -3.5239
  100MOL0     H13469   3.399   9.828   6.771 -1.4459  0.1492  2.5872
  100MOL0     H13470   3.438  10.062   6.748  1.4540  2.9841  1.2344
  100MOL0     H13471   3.576   9.977   6.685 -2.6336  1.3013 -1.2399
  100MOL0     H13472   3.573  10.109   6.956  0.1559  0.3577 -0.0081
  100MOL0     H13473   3.633  10.177   6.795  0.5068 -0.0938 -0.9041
  100MOL0     H13474   3.747   9.934   6.927  1.3966  0.0231  0.9560
  100MOL0     H13475   3.801  10.024   6.776 -1.2446 -0.8382 -0.2972
  100MOL0     H13476   3.801  10.110   7.065  0.9944 -2.1950  0.7198
  100MOL0     H13477   3.843  10.230   6.939 -0.4065 -0.2280 -1.3076
  100MOL0     H13478   4.044  10.071   7.042 -1.0796  0.7614  1.4030
  100MOL0     H13479   3.982   9.954   6.929  1.0849 -0.5664  1.0299
  100MOL0     H13480   3.046  10.002   6.922 -2.4941 -0.8382  0.2593
  100MOL0     H13481   2.834  10.113   6.970 -0.1685  0.4192  0.4596
  100MOL0     H13482   2.393   9.992   7.030  0.1085  0.3690 -0.7578
  100MOL0     H13483   2.168  10.088   7.053  0.5912 -2.0349 -1.1597
  100MOL0     H13484   0.431   9.949   7.288 -0.6811 -1.2635  0.7243
  100MOL0     H13485   0.177  10.011   7.306 -1.1646 -0.5434 -0.6843
  100MOL0     H13486  -0.147  10.058   7.331  3.4133  0.9473 -0.5249
  100MOL0     H13487  -0.355  10.137   7.403  2.2981 -1.5336  0.0208
  100MOL0     H13488  -0.470  10.322   7.498 -1.1766 -0.3789  0.5331
  100MOL0     H13489  -0.571  10.190   7.424  1.4169 -1.3114  1.6095
  100MOL0     H13490  -0.688  10.359   7.593 -2.3612 -2.5978  0.0272
  100MOL0     H13491  -0.765  10.358   7.435  1.7481 -1.7949 -1.6803
  100MOL0     H13492  -0.632  10.556   7.362 -0.0209 -1.5036 -0.3050
  100MOL0     H13493  -0.543  10.548   7.515 -1.0268  0.5778  1.9100
  100MOL0     H13494  -0.721  10.722   7.513  0.7875  0.0453  1.0874
  100MOL0     H13495  -0.834  10.585   7.499  1.4373 -0.8207 -3.0443
  100MOL0     H13496  -0.734  10.576   7.910  0.8688  1.6442 -0.2090
  100MOL0     H13497  -0.393  10.416   7.093  0.1053 -2.0423 -1.8668
  100MOL0     H13498  -0.098  10.279   6.907  0.7855  1.3144  0.2715
  100MOL0     H13499  -0.234  10.405   6.911 -0.6568  0.8832 -0.5577
  100MOL0     H13500  -0.071  10.437   6.976 -1.8920  2.5949  0.2053
  101MOL0     O13501   7.993   4.046   9.594 -0.4312 -0.1995  0.5840
  101MOL0     C13502   7.979   4.164   9.590  0.2428  0.0628 -0.5854
  101MOL0     O13503   8.081   4.255   9.598  0.8389 -0.4382 -0.1614
  101MOL0     C13504   8.204   4.209   9.630  0.3030 -0.4054 -0.4538
  101MOL0     C13505   8.266   4.093   9.579  0.9802 -0.3629 -0.1446
  101MOL0     C13506   8.395   4.057   9.614 -0.5348 -0.2878  1.1371
  101MOL0     C13507   8.468   4.140   9.717 -0.2797  0.5043  0.2320
  101MOL0     O13508   8.578   4.095   9.781  0.1911  0.8630 -0.1579
  101MOL0     C13509   8.574   3.954   9.797  0.0797 -0.9418 -0.1462
  101MOL0     C13510   8.675   3.910   9.899  1.1173 -0.5267  0.6375
  101MOL0     C13511   8.816   3.932   9.840  0.0599  0.0793 -0.2738
  101MOL0     C13512   8.922   3.897   9.945  0.2044  1.2896  1.0288
  101MOL0     C13513   9.068   3.912   9.890 -0.7806  0.4547 -0.1878
  101MOL0     C13514   9.108   4.066   9.873  0.4396  0.4977  0.0599
  101MOL0     C13515   9.220   4.091   9.780 -0.3615 -0.6543 -0.2510
  101MOL0     C13516   9.355   4.027   9.829 -0.4978 -0.2468  0.5107
  101MOL0     N13517   9.459   4.078   9.735  0.9031  0.6376 -0.0737
  101MOL0     C13518   9.534   4.197   9.748  0.5437  0.7668  0.9785
  101MOL0     C13519   9.631   4.186   9.654  0.6750 -0.0320  0.7553
  101MOL0     C13520   9.731   4.289   9.626  0.3816 -0.2259  0.4707
  101MOL0     C13521   9.829   4.253   9.506  0.4095 -0.1930  0.2439
  101MOL0     C13522   9.931   4.165   9.560  0.0611  0.1495 -0.6975
  101MOL0     C13523  10.037   4.125   9.463 -0.0666 -0.1386 -0.3207
  101MOL0     O13524  10.150   4.059   9.526 -0.4795 -0.1693 -1.0129
  101MOL0     C13525  10.269   4.069   9.466 -0.2201  0.3121  0.2286
  101MOL0     C13526  10.373   4.017   9.542  0.0848  0.5905 -0.1850
  101MOL0     C13527  10.499   4.017   9.496  0.3148 -0.7923 -0.2477
  101MOL0     C13528  10.530   4.068   9.366  1.1983 -0.4874  0.1421
  101MOL0     C13529  10.672   4.083   9.326  0.6511  0.0557 -0.0969
  101MOL0     O13530  10.767   4.043   9.416  0.2431 -0.0298 -0.0357
  101MOL0     C13531  10.897   4.052   9.374 -0.8733 -0.2511 -0.0638
  101MOL0     C13532  10.951   4.172   9.323  0.5912  0.8955 -0.0886
  101MOL0     C13533  11.087   4.168   9.284 -0.1018 -0.6088 -0.3676
  101MOL0     C13534  11.165   4.053   9.290  0.3510  0.5184 -0.2360
  101MOL0     O13535  11.299   4.050   9.265  0.1315  0.7773  0.0308
  101MOL0     C13536  11.373   4.161   9.213  0.4139 -0.8083 -1.5972
  101MOL0     C13537  11.482   4.104   9.141 -1.0238  0.9466 -0.2278
  101MOL0     C13538  11.596   4.070   9.242  0.3495 -0.0797 -0.1326
  101MOL0     C13539  11.707   3.988   9.166  0.1117  0.4331  0.4565
  101MOL0     C13540  11.822   3.960   9.271  0.1427  0.6005 -0.3302
  101MOL0     C13541  11.771   3.872   9.381 -0.8025  0.0400 -0.1002
  101MOL0     C13542  11.896   3.813   9.452 -0.0879  0.1453  0.8189
  101MOL0     C13543  11.993   3.723   9.367 -0.0691  0.4811  0.0236
  101MOL0    Cl13544  12.110   3.646   9.481 -0.0663 -0.3730 -0.2257
  101MOL0     C13545  11.102   3.936   9.335 -0.0588 -0.5222 -0.1105
  101MOL0     C13546  10.974   3.936   9.370  0.0973  0.4029 -0.1617
  101MOL0     O13547  10.690   4.134   9.214  0.1570 -0.0342 -0.9930
  101MOL0     C13548  10.428   4.119   9.288  0.4615 -0.4588 -0.5724
  101MOL0     C13549  10.296   4.108   9.338  0.2738 -0.0880  0.1517
  101MOL0     N13550   9.628   4.060   9.592 -0.0762  0.6043 -0.3904
  101MOL0     N13551   9.525   4.004   9.642  0.6129 -0.5937  0.7467
  101MOL0     C13552   8.410   4.265   9.753 -0.2010 -0.4308  0.0478
  101MOL0     C13553   8.286   4.301   9.703  0.1534 -0.3217  0.1611
  101MOL0     C13554   7.842   4.221   9.571 -0.4314  0.3799  0.8831
  101MOL0     C13555   7.832   4.355   9.528  0.0807  0.1905  0.2148
  101MOL0     C13556   7.713   4.427   9.528 -0.6118  0.0591 -0.1299
  101MOL0     C13557   7.591   4.352   9.551  0.9392 -0.4064  0.6538
  101MOL0     O13558   7.464   4.414   9.542  0.7074  0.4134 -0.7277
  101MOL0     C13559   7.427   4.499   9.645 -0.1902  0.1675 -0.8805
  101MOL0     C13560   7.339   4.419   9.735  0.4846  0.2129 -0.0031
  101MOL0     C13561   7.217   4.364   9.660 -0.5371  0.1187  0.9889
  101MOL0     C13562   7.140   4.267   9.748 -0.2983 -1.0734 -1.3158
  101MOL0     C13563   7.089   4.331   9.874 -0.3464  0.2002 -0.2301
  101MOL0     C13564   7.049   4.387   9.969  0.1568 -0.8131 -0.5565
  101MOL0     C13565   7.602   4.229   9.606 -0.8411  0.2226  0.3515
  101MOL0     C13566   7.722   4.160   9.618 -0.5093  0.1720 -0.5604
  101MOL0     C13567   7.720   4.028   9.696 -0.6288  0.0891  0.4640
  101MOL0     H13568   8.214   4.026   9.511  1.8018 -1.8934  0.6890
  101MOL0     H13569   8.433   3.965   9.572 -0.2557  1.6103 -3.3131
  101MOL0     H13570   8.472   3.922   9.821 -0.6098 -0.3454 -2.0897
  101MOL0     H13571   8.601   3.902   9.704  0.7419 -1.7489  0.4813
  101MOL0     H13572   8.669   3.801   9.909 -1.1637 -0.4025  1.1762
  101MOL0     H13573   8.665   3.968   9.991 -1.1315 -2.2173  1.5574
  101MOL0     H13574   8.827   4.039   9.821  0.2745  0.4877  1.9104
  101MOL0     H13575   8.828   3.878   9.746  1.9761 -2.3993  1.2653
  101MOL0     H13576   8.907   3.963  10.031  1.6209 -0.7347  2.9331
  101MOL0     H13577   8.915   3.793   9.976  3.3087  0.5584 -0.3177
  101MOL0     H13578   9.139   3.860   9.955 -1.5389 -1.0442 -0.5072
  101MOL0     H13579   9.073   3.862   9.793  1.1066 -1.7608  0.9440
  101MOL0     H13580   9.021   4.126   9.845  2.4904  3.8031  0.1745
  101MOL0     H13581   9.139   4.094   9.974 -1.5455 -2.3323  1.5797
  101MOL0     H13582   9.238   4.199   9.772  0.6250 -0.8675 -1.1606
  101MOL0     H13583   9.192   4.052   9.682 -1.6808 -1.5518  0.4514
  101MOL0     H13584   9.379   4.058   9.931 -1.9792 -0.0072  0.8093
  101MOL0     H13585   9.351   3.918   9.827 -1.0493 -0.2224 -0.1098
  101MOL0     H13586   9.506   4.290   9.796 -0.0756  1.2372 -0.2453
  101MOL0     H13587   9.677   4.383   9.609  0.5646 -0.1688  0.1909
  101MOL0     H13588   9.790   4.303   9.716 -1.4595 -3.4579  2.3817
  101MOL0     H13589   9.781   4.213   9.416 -1.3520 -1.8782  1.8379
  101MOL0     H13590   9.874   4.348   9.477 -1.1825  1.5255  2.9266
  101MOL0     H13591   9.891   4.078   9.613  1.3420  1.0751  1.9736
  101MOL0     H13592   9.981   4.216   9.642  0.6711 -0.4542 -0.6856
  101MOL0     H13593  10.067   4.219   9.416  1.2084 -0.3485  0.0363
  101MOL0     H13594   9.994   4.052   9.394  0.7310 -1.3979  0.4769
  101MOL0     H13595  10.360   3.986   9.645 -0.1039  1.2002 -0.0176
  101MOL0     H13596  10.580   4.003   9.567  0.2626 -2.3860 -0.4787
  101MOL0     H13597  10.894   4.264   9.310  1.2110  1.2633 -0.2631
  101MOL0     H13598  11.130   4.264   9.257  1.3947 -0.6426  1.6776
  101MOL0     H13599  11.310   4.212   9.139 -0.0734 -0.7828 -1.1696
  101MOL0     H13600  11.409   4.225   9.293  1.0118 -0.4396 -2.1540
  101MOL0     H13601  11.441   4.019   9.084 -0.2830  0.7217 -0.4401
  101MOL0     H13602  11.516   4.176   9.066  2.8802  1.7003  2.0266
  101MOL0     H13603  11.627   4.168   9.277 -1.7168  0.0644  1.4375
  101MOL0     H13604  11.555   4.017   9.328 -0.6267 -1.3971 -1.3468
  101MOL0     H13605  11.748   4.045   9.082 -0.0468 -2.6107 -1.8563
  101MOL0     H13606  11.665   3.902   9.113 -0.0269  0.5493  0.3774
  101MOL0     H13607  11.871   4.049   9.310 -1.8898  0.7034  2.2383
  101MOL0     H13608  11.903   3.905   9.221  0.9887  0.2140  1.3740
  101MOL0     H13609  11.717   3.924   9.461 -1.4850 -3.4046  1.8837
  101MOL0     H13610  11.711   3.787   9.348 -2.5232  0.4137  1.8500
  101MOL0     H13611  11.866   3.753   9.539  0.7010  1.0712  1.7637
  101MOL0     H13612  11.967   3.891   9.479  0.5552  0.4151 -1.4528
  101MOL0     H13613  11.956   3.641   9.304  0.9203  2.4883 -3.4590
  101MOL0     H13614  12.042   3.788   9.294 -1.6213  2.2414  0.4913
  101MOL0     H13615  11.171   3.852   9.337 -0.8672 -1.3313  4.8832
  101MOL0     H13616  10.936   3.841   9.406 -0.3436  0.9868  0.9493
  101MOL0     H13617  10.442   4.156   9.187  1.5864 -1.3086 -0.7495
  101MOL0     H13618  10.214   4.122   9.268 -1.2196  0.9561  2.0135
  101MOL0     H13619   8.473   4.340   9.800  4.4367 -2.8798 -1.6635
  101MOL0     H13620   8.240   4.394   9.732  0.9566  0.5144 -1.1542
  101MOL0     H13621   7.921   4.400   9.484 -1.2183  1.5984 -1.0503
  101MOL0     H13622   7.709   4.532   9.499  2.8286 -0.4495 -3.1506
  101MOL0     H13623   7.375   4.584   9.602  3.1233  3.1837  0.5537
  101MOL0     H13624   7.510   4.542   9.703  0.1797 -3.3273  1.5221
  101MOL0     H13625   7.304   4.495   9.806 -1.3283  1.4136 -2.0530
  101MOL0     H13626   7.390   4.344   9.796 -2.3680 -0.9409  1.1280
  101MOL0     H13627   7.256   4.316   9.570 -0.1218 -1.8413  2.1522
  101MOL0     H13628   7.152   4.446   9.629 -0.5195  0.5696  2.1140
  101MOL0     H13629   7.068   4.204   9.694 -2.4409 -2.4738  2.7306
  101MOL0     H13630   7.220   4.206   9.790 -0.5764  1.3727  3.4660
  101MOL0     H13631   7.020   4.429  10.063  0.7531  0.0790 -0.7571
  101MOL0     H13632   7.506   4.188   9.635 -1.0025 -1.2489 -2.0058
  101MOL0     H13633   7.783   4.049   9.782 -2.5681  0.2757  1.8924
  101MOL0     H13634   7.623   3.988   9.725  0.0913 -3.8105 -1.7233
  101MOL0     H13635   7.759   3.947   9.633 -0.9012 -0.2869  0.7730
  102MOL0     O13636  10.348   7.812  10.844 -0.5770 -0.1040  0.5369
  102MOL0     C13637  10.301   7.922  10.833  1.0016  0.3193  1.1255
  102MOL0     O13638  10.342   8.040  10.895  0.0088  0.2673  0.8494
  102MOL0     C13639  10.444   8.037  10.984  0.0582  0.1426 -0.3156
  102MOL0     C13640  10.458   7.938  11.083 -0.3027  0.1465 -0.0710
  102MOL0     C13641  10.577   7.929  11.161 -0.2737 -0.3810 -0.0752
  102MOL0     C13642  10.671   8.022  11.158  0.7127  0.0149 -0.1827
  102MOL0     O13643  10.772   7.998  11.252 -0.1176  0.3144  0.7438
  102MOL0     C13644  10.902   8.040  11.208  0.3724  0.8262 -0.6286
  102MOL0     C13645  10.993   7.987  11.317  0.6264 -0.3324  0.4649
  102MOL0     C13646  11.116   8.056  11.354  0.5490  0.4366 -0.1353
  102MOL0     C13647  11.223   8.048  11.247  0.1931 -0.1483 -0.3657
  102MOL0     C13648  11.346   8.119  11.305  0.2264 -0.5066  0.5008
  102MOL0     C13649  11.445   8.132  11.184  0.7232 -0.0298  0.4730
  102MOL0     C13650  11.566   8.217  11.221  0.5036  0.2341  0.1269
  102MOL0     C13651  11.645   8.280  11.108  0.0803  0.8511 -0.3295
  102MOL0     N13652  11.757   8.362  11.150 -0.6668 -0.0365  0.1082
  102MOL0     C13653  11.768   8.499  11.126 -0.3843 -0.0832 -1.5429
  102MOL0     C13654  11.902   8.525  11.121  0.1998 -0.1883  0.5363
  102MOL0     C13655  11.964   8.655  11.072 -0.9852  0.1583  0.1961
  102MOL0     C13656  12.086   8.615  10.981  0.4516 -0.0530 -0.1793
  102MOL0     C13657  12.150   8.744  10.927 -0.3774 -0.8433  0.8077
  102MOL0     C13658  12.257   8.725  10.814  0.6887 -0.6084  1.1880
  102MOL0     O13659  12.347   8.617  10.851  0.7403  0.3638 -0.3621
  102MOL0     C13660  12.469   8.616  10.789 -0.0670 -0.2765 -0.6563
  102MOL0     C13661  12.568   8.537  10.847  0.5313  0.2792 -0.2172
  102MOL0     C13662  12.710   8.554  10.813  0.3063  0.2447 -0.4421
  102MOL0     C13663  12.733   8.644  10.705  0.0107 -1.5552  0.1862
  102MOL0     C13664  12.864   8.658  10.639  0.2931  0.1359 -0.0706
  102MOL0     O13665  12.963   8.609  10.716  0.0167  0.5419  0.0375
  102MOL0     C13666  13.088   8.604  10.666  0.2261  0.7772 -0.8191
  102MOL0     C13667  13.116   8.518  10.557 -0.4295 -0.7748  0.2359
  102MOL0     C13668  13.249   8.500  10.521 -0.3270  0.4663  0.4226
  102MOL0     C13669  13.355   8.569  10.579  0.6081 -1.0871 -0.1113
  102MOL0     O13670  13.481   8.551  10.531 -0.1448 -0.3419  0.6546
  102MOL0     C13671  13.581   8.645  10.582 -0.2050 -0.5917  0.5465
  102MOL0     C13672  13.707   8.621  10.497 -1.3243  0.4464 -1.0454
  102MOL0     C13673  13.793   8.504  10.549 -0.1089  0.2331  0.6112
  102MOL0     C13674  13.895   8.466  10.437  0.0607  0.1497 -0.5103
  102MOL0     C13675  13.987   8.351  10.468 -0.0241  0.0021 -0.1020
  102MOL0     C13676  14.140   8.396  10.486  0.7275  0.3213 -0.3886
  102MOL0     C13677  14.142   8.492  10.601 -0.0854  0.4950  0.6713
  102MOL0     C13678  14.285   8.526  10.644 -0.1664 -0.4805  0.0217
  102MOL0    Cl13679  14.325   8.407  10.785 -0.2637  0.0863  0.0839
  102MOL0     C13680  13.322   8.654  10.684 -0.1337 -0.3290 -0.5409
  102MOL0     C13681  13.193   8.666  10.725 -0.2262  0.6759  0.6785
  102MOL0     O13682  12.878   8.714  10.530 -1.0149 -0.2277 -0.1392
  102MOL0     C13683  12.634   8.712  10.643  0.3039 -0.6367 -0.2052
  102MOL0     C13684  12.500   8.699  10.688  0.0373 -1.2529  0.9256
  102MOL0     N13685  11.962   8.408  11.164 -0.1158  0.9386  0.5072
  102MOL0     N13686  11.882   8.311  11.175  0.4683  0.0106  0.7982
  102MOL0     C13687  10.641   8.138  11.082  0.0791  0.0162  0.7387
  102MOL0     C13688  10.535   8.144  10.992  0.4267  0.2922 -1.2920
  102MOL0     C13689  10.186   7.939  10.734  0.2534  0.4093  0.5666
  102MOL0     C13690  10.166   8.076  10.682 -0.2326  0.4514  0.2061
  102MOL0     C13691  10.064   8.105  10.585 -0.3188  0.5790 -0.4633
  102MOL0     C13692   9.963   8.009  10.565  0.6210 -0.3781  0.5027
  102MOL0     O13693   9.849   8.065  10.503 -0.2354  0.9092  0.0652
  102MOL0     C13694   9.723   7.996  10.516 -1.1480 -0.2622 -0.3474
  102MOL0     C13695   9.702   7.919  10.396  0.7162  0.0234  0.5718
  102MOL0     C13696   9.580   7.827  10.409  1.0930 -0.2011  0.0943
  102MOL0     C13697   9.448   7.897  10.400 -0.1432 -1.2860 -0.3090
  102MOL0     C13698   9.343   7.799  10.404  0.7616 -0.1965 -0.4850
  102MOL0     C13699   9.260   7.708  10.392 -0.2262 -0.1038 -0.4773
  102MOL0     C13700   9.986   7.880  10.614 -0.8079 -0.4166  0.5544
  102MOL0     C13701  10.095   7.844  10.692 -0.2248 -0.4006 -0.3085
  102MOL0     C13702  10.090   7.703  10.742  0.2798  0.4633  0.3998
  102MOL0     H13703  10.382   7.861  11.086 -0.8676  0.7104  0.3280
  102MOL0     H13704  10.598   7.840  11.221  3.3080  0.5108  0.2170
  102MOL0     H13705  10.919   7.987  11.114 -1.8546  1.1930 -1.2943
  102MOL0     H13706  10.909   8.149  11.204 -1.9444  1.0399 -0.3493
  102MOL0     H13707  11.012   7.886  11.282 -0.4801  0.2635 -2.0747
  102MOL0     H13708  10.931   7.994  11.407 -0.8421  1.2858 -0.5951
  102MOL0     H13709  11.153   8.009  11.446 -0.8793  2.8049  1.7660
  102MOL0     H13710  11.093   8.161  11.370  5.4258  1.5818  0.9325
  102MOL0     H13711  11.258   7.950  11.214  4.0651  1.3629 -1.2866
  102MOL0     H13712  11.192   8.091  11.151  3.6070 -0.6672 -1.8354
  102MOL0     H13713  11.321   8.222  11.331  0.2357  0.1845 -1.9337
  102MOL0     H13714  11.386   8.057  11.385 -0.2833 -0.7729  0.5526
  102MOL0     H13715  11.473   8.030  11.155  0.5621  0.5073 -1.8143
  102MOL0     H13716  11.395   8.182  11.101 -1.3627 -2.4720  0.1041
  102MOL0     H13717  11.629   8.157  11.287 -2.1564 -2.7185  0.2198
  102MOL0     H13718  11.521   8.291  11.289 -0.5447 -1.0372  0.8524
  102MOL0     H13719  11.675   8.201  11.039 -0.2197  0.1844  0.2944
  102MOL0     H13720  11.585   8.352  11.051  1.0274  0.6389 -1.6492
  102MOL0     H13721  11.693   8.568  11.088 -1.3250 -0.0325  0.2874
  102MOL0     H13722  11.897   8.720  11.015 -0.3665 -0.2637 -1.0439
  102MOL0     H13723  11.998   8.715  11.157 -0.9944 -1.3014  1.2719
  102MOL0     H13724  12.160   8.562  11.040 -0.9744 -1.3271  0.5101
  102MOL0     H13725  12.053   8.552  10.898 -0.7434 -0.7110  0.7801
  102MOL0     H13726  12.193   8.794  11.014 -1.2683 -0.3724  0.9847
  102MOL0     H13727  12.078   8.811  10.879  2.4595  1.1884 -0.9151
  102MOL0     H13728  12.308   8.820  10.794 -0.2492 -0.4432 -0.5790
  102MOL0     H13729  12.205   8.701  10.721 -1.6518  4.1921  0.9762
  102MOL0     H13730  12.546   8.475  10.933  2.6364 -2.0227 -1.1950
  102MOL0     H13731  12.787   8.501  10.868  0.6930  1.6469  0.4336
  102MOL0     H13732  13.032   8.478  10.501 -0.3362 -0.9157  0.1947
  102MOL0     H13733  13.277   8.448  10.430  1.7860  2.3196 -0.0736
  102MOL0     H13734  13.549   8.749  10.569  1.3839 -0.1859 -0.3500
  102MOL0     H13735  13.603   8.631  10.688  0.1160  1.8568  0.8576
  102MOL0     H13736  13.695   8.608  10.389  1.7009 -0.9286 -1.3182
  102MOL0     H13737  13.760   8.716  10.510  1.2890 -1.1508  1.0078
  102MOL0     H13738  13.852   8.524  10.639  1.1031 -0.2390 -0.0546
  102MOL0     H13739  13.724   8.421  10.564 -1.8746  1.8057  1.7272
  102MOL0     H13740  13.946   8.557  10.405  1.9419 -0.6858 -0.0211
  102MOL0     H13741  13.847   8.435  10.344  0.1797  1.9155 -1.2020
  102MOL0     H13742  13.990   8.296  10.374  1.3300 -0.0728 -0.0399
  102MOL0     H13743  13.959   8.285  10.551  2.5167 -2.0533 -0.7252
  102MOL0     H13744  14.204   8.309  10.506  1.7338  1.1382 -0.0031
  102MOL0     H13745  14.173   8.437  10.391  1.3257 -1.5349 -1.0334
  102MOL0     H13746  14.082   8.467  10.689  0.5054  2.3815  1.6629
  102MOL0     H13747  14.093   8.581  10.560  0.0058  0.3159  0.1598
  102MOL0     H13748  14.356   8.521  10.560  2.0252  1.9062  1.5864
  102MOL0     H13749  14.294   8.624  10.690 -2.2474 -0.8083  1.2568
  102MOL0     H13750  13.400   8.700  10.744 -2.0037 -1.9295  3.4508
  102MOL0     H13751  13.178   8.730  10.811 -2.0507 -0.6117  1.3987
  102MOL0     H13752  12.657   8.784  10.565  0.2140 -1.1277 -0.6896
  102MOL0     H13753  12.427   8.758  10.633 -0.8874 -2.9737  0.2142
  102MOL0     H13754  10.715   8.217  11.084 -0.2261  0.3150  3.2421
  102MOL0     H13755  10.515   8.226  10.924 -0.8098  1.6829  0.6183
  102MOL0     H13756  10.237   8.153  10.711  1.3400 -0.8956  0.0304
  102MOL0     H13757  10.049   8.206  10.549  0.2924  1.5403  1.7565
  102MOL0     H13758   9.651   8.073  10.547  0.6166  0.7299  1.5941
  102MOL0     H13759   9.736   7.933  10.605  4.0089  2.0523  0.8988
  102MOL0     H13760   9.781   7.844  10.388  0.4419 -0.6011  2.9708
  102MOL0     H13761   9.702   7.980  10.305 -1.7526 -2.3667 -1.2223
  102MOL0     H13762   9.588   7.791  10.512 -0.3480  0.2544  0.3786
  102MOL0     H13763   9.578   7.745  10.337  1.1004  0.2125 -0.3817
  102MOL0     H13764   9.440   7.969  10.482  0.8830  2.6740 -3.3649
  102MOL0     H13765   9.455   7.956  10.309 -2.2367 -1.3173 -0.5414
  102MOL0     H13766   9.189   7.628  10.394  0.9238 -1.2064 -2.0029
  102MOL0     H13767   9.903   7.811  10.601 -0.5221 -0.8276  0.8575
  102MOL0     H13768  10.014   7.644  10.691  0.4521  0.5054  0.0893
  102MOL0     H13769  10.184   7.656  10.711 -1.4709 -2.2268 -1.2586
  102MOL0     H13770  10.079   7.696  10.851 -0.8394  0.5469  0.3018
  103MOL0     O13771   7.454   4.368   1.771 -0.6586 -0.4131  1.2113
  103MOL0     C13772   7.394   4.348   1.878  0.3926  0.1449  0.2358
  103MOL0     O13773   7.438   4.403   1.992 -0.5278  0.4433 -1.2607
  103MOL0     C13774   7.552   4.482   2.005  0.4430  0.2740 -0.4618
  103MOL0     C13775   7.535   4.588   2.097  0.1567 -0.1147 -0.5637
  103MOL0     C13776   7.643   4.683   2.121  0.8696  0.0356  0.7321
  103MOL0     C13777   7.766   4.663   2.066  0.9608 -0.3633  0.6108
  103MOL0     O13778   7.860   4.752   2.104 -0.7660  0.2388  0.6043
  103MOL0     C13779   8.001   4.702   2.106 -0.9356  0.2320 -0.1731
  103MOL0     C13780   8.078   4.810   2.198  0.0367 -0.9708  0.9284
  103MOL0     C13781   8.214   4.841   2.139 -0.1427 -0.0647  0.1642
  103MOL0     C13782   8.298   4.935   2.229  0.3988  0.5421 -0.4753
  103MOL0     C13783   8.435   4.955   2.169  0.2080  0.2312 -0.3801
  103MOL0     C13784   8.508   5.050   2.261  0.1954  0.4193  0.4680
  103MOL0     C13785   8.663   5.063   2.239 -0.1601  0.6220 -0.3114
  103MOL0     C13786   8.748   4.951   2.314 -0.1987 -0.2893 -0.4103
  103MOL0     N13787   8.894   4.978   2.319  0.2116 -0.2925  0.2152
  103MOL0     C13788   8.947   5.069   2.408  0.3700 -0.1230 -0.3924
  103MOL0     C13789   9.078   5.046   2.388  0.2176 -0.8012 -1.0477
  103MOL0     C13790   9.185   5.136   2.450 -0.1108  1.0351 -0.4999
  103MOL0     C13791   9.289   5.074   2.549 -0.6019 -1.1933 -0.9589
  103MOL0     C13792   9.375   4.972   2.477  0.3834 -0.1263 -0.1926
  103MOL0     C13793   9.475   4.896   2.569  0.4881  0.0784 -0.9357
  103MOL0     O13794   9.566   4.822   2.487  0.4189 -0.4806  0.0886
  103MOL0     C13795   9.683   4.783   2.545 -0.5136 -0.8758  0.1494
  103MOL0     C13796   9.810   4.787   2.482  0.1433  0.6026  0.3633
  103MOL0     C13797   9.926   4.717   2.532 -0.0159  0.6325  0.8573
  103MOL0     C13798   9.924   4.661   2.653 -1.1997 -0.0862  0.2504
  103MOL0     C13799  10.038   4.581   2.701 -0.3979 -0.0168  0.0331
  103MOL0     O13800  10.151   4.575   2.618  0.0942  0.3168 -0.2912
  103MOL0     C13801  10.266   4.508   2.664 -0.3442 -0.1498  1.1006
  103MOL0     C13802  10.330   4.544   2.777 -0.3175  1.0869 -0.4366
  103MOL0     C13803  10.451   4.481   2.809  0.4650 -0.7075  1.2644
  103MOL0     C13804  10.512   4.387   2.728  0.6283 -0.4469  0.4639
  103MOL0     O13805  10.633   4.334   2.764 -0.6089  0.2828 -0.2111
  103MOL0     C13806  10.678   4.218   2.693 -0.3398  0.1118 -0.3841
  103MOL0     C13807  10.822   4.188   2.735  0.0029  0.0542 -0.5593
  103MOL0     C13808  10.887   4.062   2.676  0.4496 -0.2812  0.1201
  103MOL0     C13809  11.033   4.073   2.706  0.1015  0.3005  0.0559
  103MOL0     C13810  11.116   3.974   2.612 -0.3982  0.4711  0.3661
  103MOL0     C13811  11.269   3.983   2.642 -0.0585  0.7378  0.1701
  103MOL0     C13812  11.347   3.875   2.557  0.2701 -0.8387  0.1339
  103MOL0     C13813  11.496   3.876   2.575  0.0077 -0.5737  0.4872
  103MOL0    Cl13814  11.583   4.022   2.502 -0.5071  0.1615 -0.2411
  103MOL0     C13815  10.453   4.358   2.604  1.3538  0.0663  0.7392
  103MOL0     C13816  10.324   4.416   2.578  0.5588  0.2796 -0.1404
  103MOL0     O13817  10.024   4.533   2.813 -0.3333  0.9489 -0.4963
  103MOL0     C13818   9.804   4.663   2.727  0.0934 -0.4489 -0.1388
  103MOL0     C13819   9.689   4.725   2.672 -0.0379  0.0151  0.1256
  103MOL0     N13820   9.103   4.948   2.298  0.0760  0.0739 -0.0280
  103MOL0     N13821   8.990   4.910   2.251  0.4242  0.9031 -0.6164
  103MOL0     C13822   7.783   4.548   1.988 -0.4143  1.0007 -0.2206
  103MOL0     C13823   7.678   4.458   1.962  0.0805  0.2139 -0.5861
  103MOL0     C13824   7.269   4.289   1.880  0.3356  0.6152  0.3116
  103MOL0     C13825   7.178   4.299   1.985 -0.1828 -0.5226  0.4027
  103MOL0     C13826   7.056   4.230   1.999 -0.5519 -0.2104  0.5163
  103MOL0     C13827   7.017   4.149   1.888 -0.4348 -0.0194  0.2621
  103MOL0     O13828   6.900   4.070   1.890  0.1060 -0.1852 -0.1696
  103MOL0     C13829   6.816   4.061   2.007 -0.3563  0.7167 -0.2980
  103MOL0     C13830   6.683   3.999   1.966 -0.3305 -0.2516 -0.3619
  103MOL0     C13831   6.603   3.955   2.080  0.6882  0.5551 -0.6076
  103MOL0     C13832   6.455   3.918   2.045 -0.8787  0.3085 -0.3311
  103MOL0     C13833   6.456   3.801   1.950  0.0867 -0.4449 -0.1974
  103MOL0     C13834   6.460   3.711   1.866  0.3166 -0.2158 -0.3816
  103MOL0     C13835   7.103   4.135   1.781  0.3857 -1.0994 -0.4557
  103MOL0     C13836   7.228   4.195   1.775 -0.4995  0.1784 -0.6463
  103MOL0     C13837   7.306   4.146   1.656  0.4522  0.1342 -0.3592
  103MOL0     H13838   7.441   4.615   2.144  0.5740  0.9725 -0.3287
  103MOL0     H13839   7.620   4.769   2.183  1.0825 -0.6873  1.8342
  103MOL0     H13840   8.008   4.599   2.142 -0.8322  0.1468 -0.4308
  103MOL0     H13841   8.043   4.695   2.005  0.7910  0.7074  0.4742
  103MOL0     H13842   8.093   4.768   2.298  2.8120  0.8991  1.3965
  103MOL0     H13843   8.016   4.900   2.202 -0.0639 -0.8845 -1.1266
  103MOL0     H13844   8.200   4.889   2.041 -0.2592  1.2009  0.7838
  103MOL0     H13845   8.272   4.750   2.120 -0.8335 -0.4179 -0.3420
  103MOL0     H13846   8.240   5.027   2.240  1.2703  1.1432 -0.7589
  103MOL0     H13847   8.321   4.885   2.323 -2.0560 -1.6660 -0.9391
  103MOL0     H13848   8.493   4.864   2.187 -0.4272  0.0805  1.0331
  103MOL0     H13849   8.438   4.986   2.065 -1.5712  0.3276 -0.4184
  103MOL0     H13850   8.460   5.144   2.233 -1.0914 -0.9854 -2.4118
  103MOL0     H13851   8.485   5.032   2.367  2.6248  2.0018  1.3525
  103MOL0     H13852   8.708   5.159   2.267 -0.9146  0.5953  1.0899
  103MOL0     H13853   8.677   5.039   2.133  0.9531 -0.9074  0.1628
  103MOL0     H13854   8.709   4.935   2.415  0.5655 -3.9251 -0.5388
  103MOL0     H13855   8.744   4.856   2.259  1.6641  0.0771 -1.2527
  103MOL0     H13856   8.908   5.143   2.477  4.1616 -1.1283  3.2420
  103MOL0     H13857   9.250   5.179   2.373  0.4819  0.2019 -0.4783
  103MOL0     H13858   9.132   5.210   2.511  0.0480 -0.2989  1.3299
  103MOL0     H13859   9.354   5.153   2.587 -2.5116  1.9282 -3.7361
  103MOL0     H13860   9.230   5.028   2.630 -1.8737  0.5589 -0.8153
  103MOL0     H13861   9.428   5.015   2.391 -0.9690  1.7207 -0.1600
  103MOL0     H13862   9.300   4.906   2.435 -0.3402  1.3076 -1.2489
  103MOL0     H13863   9.414   4.838   2.638 -3.1708  4.6995  0.1956
  103MOL0     H13864   9.532   4.971   2.624  1.9792  2.2723 -5.0384
  103MOL0     H13865   9.821   4.823   2.380  1.8780 -1.5685 -0.3235
  103MOL0     H13866  10.019   4.712   2.477  1.3701  0.5814  3.0504
  103MOL0     H13867  10.273   4.615   2.837 -3.6254 -0.7945 -1.0678
  103MOL0     H13868  10.506   4.519   2.895  0.7086  1.7644  0.1083
  103MOL0     H13869  10.623   4.129   2.724  0.5583  0.6444  3.2587
  103MOL0     H13870  10.683   4.235   2.585 -1.0418  0.1846 -0.4092
  103MOL0     H13871  10.879   4.275   2.703  0.6484  0.2479  1.0106
  103MOL0     H13872  10.836   4.174   2.843 -0.1013 -2.0166 -0.7566
  103MOL0     H13873  10.847   3.971   2.722 -1.8903 -0.4114 -1.9639
  103MOL0     H13874  10.869   4.064   2.568 -0.9781  0.9314  0.3513
  103MOL0     H13875  11.050   4.032   2.807  0.7691  2.4984  0.8924
  103MOL0     H13876  11.057   4.179   2.702 -1.7068  0.7284  0.0928
  103MOL0     H13877  11.094   3.991   2.506  1.1669  2.7776  0.3300
  103MOL0     H13878  11.093   3.868   2.622  2.6210 -0.2529  0.7022
  103MOL0     H13879  11.315   4.076   2.606 -0.8660  1.3789  0.7700
  103MOL0     H13880  11.297   3.963   2.746  1.7386 -0.1645 -0.4328
  103MOL0     H13881  11.323   3.882   2.451  1.5881  0.4203 -0.1237
  103MOL0     H13882  11.319   3.776   2.595  2.4551 -1.3551  0.5748
  103MOL0     H13883  11.510   3.876   2.684 -2.8425  1.5998  0.9773
  103MOL0     H13884  11.540   3.781   2.543 -1.2482 -0.6706 -1.0853
  103MOL0     H13885  10.494   4.295   2.526 -2.4332  0.3144 -1.7315
  103MOL0     H13886  10.268   4.386   2.491 -0.7249 -0.3574  0.8742
  103MOL0     H13887   9.805   4.620   2.827  0.3624  0.6667  0.3555
  103MOL0     H13888   9.596   4.701   2.722  1.3415 -1.3932  2.1601
  103MOL0     H13889   7.881   4.519   1.949  0.1250  1.1717  0.9672
  103MOL0     H13890   7.691   4.366   1.905 -2.2033 -1.2716  1.1307
  103MOL0     H13891   7.208   4.360   2.069  2.8709  1.4052 -1.8681
  103MOL0     H13892   7.002   4.242   2.092 -1.4852 -1.2568  0.1446
  103MOL0     H13893   6.793   4.150   2.067  0.2501 -0.3466  1.6153
  103MOL0     H13894   6.862   3.986   2.072 -0.1181  1.7123  0.7063
  103MOL0     H13895   6.680   3.914   1.898 -0.1409  0.5532 -1.4046
  103MOL0     H13896   6.628   4.081   1.919 -0.5682  0.4816  1.1343
  103MOL0     H13897   6.594   4.037   2.152 -1.3005 -0.9434  0.9936
  103MOL0     H13898   6.645   3.864   2.125 -0.0035 -0.0084 -1.0840
  103MOL0     H13899   6.393   3.898   2.133  0.6748  0.6588  0.8975
  103MOL0     H13900   6.404   3.998   1.991 -2.8434  1.2217  2.6379
  103MOL0     H13901   6.470   3.628   1.799  0.6651 -1.9198  1.6602
  103MOL0     H13902   7.057   4.067   1.710 -0.6725 -2.8435  1.7799
  103MOL0     H13903   7.248   4.076   1.596  1.1363 -2.7436  2.0766
  103MOL0     H13904   7.334   4.225   1.585  2.0939  0.3354  0.4554
  103MOL0     H13905   7.397   4.098   1.694 -1.0709  0.5820  4.5543
  104MOL0     O13906   1.895   4.339   8.761  0.2272  0.2189 -0.0071
  104MOL0     C13907   1.854   4.318   8.644 -0.3682 -0.4084 -0.4213
  104MOL0     O13908   1.916   4.365   8.534  0.9082 -0.5024 -0.2526
  104MOL0     C13909   2.055   4.393   8.527  0.7399 -0.2993  0.6659
  104MOL0     C13910   2.093   4.517   8.478  0.4596  0.3265 -0.5773
  104MOL0     C13911   2.231   4.560   8.489  0.4596 -0.0734 -0.5570
  104MOL0     C13912   2.336   4.474   8.532  0.3719 -0.2897  0.4774
  104MOL0     O13913   2.458   4.534   8.526 -0.2142 -0.6287 -0.6554
  104MOL0     C13914   2.570   4.451   8.530 -0.4510  0.2769 -1.0334
  104MOL0     C13915   2.670   4.528   8.617  0.7216  0.6707  0.0994
  104MOL0     C13916   2.727   4.646   8.538  0.8179  0.3023  0.6438
  104MOL0     C13917   2.877   4.620   8.490 -0.0445 -0.0864  1.2498
  104MOL0     C13918   2.934   4.720   8.387  0.5956 -0.1049  0.3166
  104MOL0     C13919   2.905   4.698   8.243  0.2828  0.8539 -0.2602
  104MOL0     C13920   2.928   4.827   8.160  0.3332  0.0283  0.0666
  104MOL0     C13921   3.068   4.891   8.156  0.9233 -0.6311  0.4626
  104MOL0     N13922   3.051   5.028   8.097  0.5964  0.1968 -0.2268
  104MOL0     C13923   3.075   5.040   7.969 -0.3860  0.1394  0.2406
  104MOL0     C13924   3.109   5.169   7.953 -0.0696 -0.3763  0.2873
  104MOL0     C13925   3.153   5.241   7.828 -0.4725  0.3177  0.2466
  104MOL0     C13926   3.305   5.262   7.829  0.2160 -0.1178 -0.6351
  104MOL0     C13927   3.390   5.146   7.785  0.6873  0.1969 -0.1100
  104MOL0     C13928   3.523   5.190   7.704 -0.3136  0.1882 -0.4291
  104MOL0     O13929   3.606   5.267   7.784 -0.7850 -0.6623 -0.0252
  104MOL0     C13930   3.733   5.219   7.767  0.0492 -0.8143  0.1048
  104MOL0     C13931   3.780   5.129   7.865 -0.4292 -0.1929  0.0221
  104MOL0     C13932   3.916   5.084   7.871  0.3977  0.8072  0.1904
  104MOL0     C13933   4.004   5.129   7.771  0.1751  0.8133  0.0584
  104MOL0     C13934   4.145   5.094   7.781  0.6901 -0.7079  0.4144
  104MOL0     O13935   4.240   5.149   7.684  0.0757 -0.0929  0.1237
  104MOL0     C13936   4.370   5.129   7.716  0.0815  0.2451 -0.1111
  104MOL0     C13937   4.419   4.996   7.728 -0.5556  0.6163 -0.1221
  104MOL0     C13938   4.555   4.970   7.755 -0.3499 -0.4086  0.2337
  104MOL0     C13939   4.648   5.074   7.757  0.0644 -0.7564  0.4050
  104MOL0     O13940   4.788   5.048   7.759 -0.6879 -0.3062 -0.8923
  104MOL0     C13941   4.865   5.117   7.665 -0.1946  0.3677  0.2297
  104MOL0     C13942   4.991   5.026   7.633  0.7051  0.0687  0.2111
  104MOL0     C13943   5.122   5.095   7.646  0.8427 -0.2175  0.5411
  104MOL0     C13944   5.249   5.002   7.645  0.1703 -0.6631  0.1214
  104MOL0     C13945   5.372   5.091   7.644  0.1190  0.1400  0.0636
  104MOL0     C13946   5.511   5.030   7.658 -0.0540 -0.0854 -0.6331
  104MOL0     C13947   5.631   5.120   7.644  0.0148 -0.2194 -0.3954
  104MOL0     C13948   5.763   5.052   7.687  0.1461  0.9708 -1.7138
  104MOL0    Cl13949   5.897   5.178   7.673 -0.7771 -0.0630 -0.4997
  104MOL0     C13950   4.598   5.202   7.730 -0.0850 -0.3572  0.8033
  104MOL0     C13951   4.462   5.230   7.722  0.0087 -0.4121 -0.7245
  104MOL0     O13952   4.170   5.033   7.879 -0.0107  0.3654  0.0308
  104MOL0     C13953   3.957   5.206   7.671 -0.0498  0.0569  0.2576
  104MOL0     C13954   3.819   5.251   7.661 -0.1835 -0.4053  0.2158
  104MOL0     N13955   3.101   5.236   8.073  0.7064 -1.2338  0.1622
  104MOL0     N13956   3.070   5.149   8.157  1.0469  0.4476 -0.0667
  104MOL0     C13957   2.297   4.343   8.573  0.0313 -0.1174  0.3528
  104MOL0     C13958   2.159   4.307   8.578 -0.4872 -0.7104 -0.0425
  104MOL0     C13959   1.734   4.258   8.607  0.6953 -0.1427 -0.5802
  104MOL0     C13960   1.712   4.190   8.488 -0.4410  0.4071  0.3817
  104MOL0     C13961   1.587   4.128   8.450  0.0892  0.4587  0.3265
  104MOL0     C13962   1.481   4.134   8.530  0.3843  0.0162  0.1941
  104MOL0     O13963   1.353   4.091   8.500 -0.0723  0.1060 -0.7131
  104MOL0     C13964   1.334   4.011   8.380  0.2851 -0.1404  0.0334
  104MOL0     C13965   1.175   3.985   8.380  0.0374 -0.6576 -0.0173
  104MOL0     C13966   1.116   3.969   8.241 -0.4588 -0.2102 -0.7637
  104MOL0     C13967   1.095   4.093   8.156  0.2415 -0.1098  0.3630
  104MOL0     C13968   1.050   4.057   8.014 -0.0561  0.6268 -0.2764
  104MOL0     C13969   1.010   4.022   7.903 -0.3463 -0.2454  0.3926
  104MOL0     C13970   1.497   4.196   8.650 -0.1809  0.0801  0.6752
  104MOL0     C13971   1.616   4.253   8.692  0.1437  0.4470  0.2507
  104MOL0     C13972   1.622   4.313   8.836  0.5638  0.0709 -0.3816
  104MOL0     H13973   2.027   4.597   8.448  0.8527  0.9779  0.2566
  104MOL0     H13974   2.261   4.656   8.449 -0.6896 -1.0805 -4.2876
  104MOL0     H13975   2.556   4.355   8.581  0.0596 -0.2599 -1.8832
  104MOL0     H13976   2.604   4.429   8.429 -0.7034 -2.4575 -0.5990
  104MOL0     H13977   2.752   4.460   8.642  2.4417  2.8289  0.6817
  104MOL0     H13978   2.614   4.554   8.708 -3.0026 -2.0574 -1.1703
  104MOL0     H13979   2.706   4.731   8.604  0.3360 -0.3635  1.3655
  104MOL0     H13980   2.668   4.648   8.445  0.3809  1.9477  0.9195
  104MOL0     H13981   2.934   4.633   8.582 -1.0193 -3.8539  2.5774
  104MOL0     H13982   2.891   4.517   8.457 -1.8398 -0.3769  1.2927
  104MOL0     H13983   2.904   4.818   8.427 -0.0480  0.2287 -0.9073
  104MOL0     H13984   3.042   4.719   8.400  0.8928  2.1815 -1.3418
  104MOL0     H13985   2.953   4.606   8.208 -1.7271 -1.2158  2.0106
  104MOL0     H13986   2.800   4.669   8.231  0.6371  0.4355 -3.1641
  104MOL0     H13987   2.860   4.898   8.209  0.2048 -0.9986  1.4248
  104MOL0     H13988   2.892   4.801   8.060  0.5783  2.0834 -0.6069
  104MOL0     H13989   3.117   4.901   8.254  0.0910  2.6227  0.6639
  104MOL0     H13990   3.137   4.835   8.092  2.6103  1.3492  0.4500
  104MOL0     H13991   3.058   4.964   7.894 -0.0746  0.4430 -0.1417
  104MOL0     H13992   3.127   5.194   7.732  2.4653  0.0043 -0.4926
  104MOL0     H13993   3.110   5.341   7.838  0.9928  0.7967  2.1953
  104MOL0     H13994   3.323   5.350   7.767  0.8755  0.9680  1.0108
  104MOL0     H13995   3.341   5.300   7.925  2.0778 -0.5430 -1.1100
  104MOL0     H13996   3.325   5.085   7.721  1.3742 -0.8060  0.1256
  104MOL0     H13997   3.422   5.087   7.871 -3.2214  0.3908  1.7308
  104MOL0     H13998   3.489   5.247   7.617  2.5095 -1.7725 -2.9778
  104MOL0     H13999   3.567   5.098   7.666  0.8332  0.9208 -0.9232
  104MOL0     H14000   3.711   5.105   7.945 -2.1969 -1.0370 -1.6769
  104MOL0     H14001   3.930   5.011   7.950 -3.7937  1.8150  2.1530
  104MOL0     H14002   4.359   4.906   7.722  0.5622 -0.1585 -0.1140
  104MOL0     H14003   4.595   4.873   7.781  0.1765 -0.5512 -1.0470
  104MOL0     H14004   4.810   5.136   7.573  0.0526  0.0342  0.0135
  104MOL0     H14005   4.893   5.212   7.712 -1.3377 -0.4411  2.7611
  104MOL0     H14006   4.986   4.944   7.706 -1.3186  0.7369  0.8942
  104MOL0     H14007   4.968   4.986   7.534  0.0511  0.9532 -0.0040
  104MOL0     H14008   5.141   5.156   7.557  0.1714 -2.9705 -1.6045
  104MOL0     H14009   5.127   5.150   7.741  1.0973 -1.7114  1.4242
  104MOL0     H14010   5.235   4.933   7.561  1.2477  0.2037 -0.7904
  104MOL0     H14011   5.258   4.935   7.731 -1.8145  0.5908  1.3720
  104MOL0     H14012   5.351   5.169   7.718 -0.1612  0.2320 -0.1101
  104MOL0     H14013   5.379   5.143   7.547  1.8506 -2.3580 -1.2540
  104MOL0     H14014   5.513   4.995   7.761  0.5948  1.7982  0.0433
  104MOL0     H14015   5.520   4.952   7.582  0.6013 -0.1453 -0.4972
  104MOL0     H14016   5.617   5.212   7.701 -2.6100  0.2396 -1.6449
  104MOL0     H14017   5.642   5.144   7.537 -0.9078  0.3299 -0.3857
  104MOL0     H14018   5.746   5.005   7.785 -3.5227 -0.5808 -2.8918
  104MOL0     H14019   5.773   4.967   7.619  0.7283  0.2752 -0.7967
  104MOL0     H14020   4.666   5.287   7.736 -1.3421  0.6171  1.9195
  104MOL0     H14021   4.436   5.335   7.715 -0.2317 -0.4974 -1.1006
  104MOL0     H14022   4.026   5.257   7.604  0.7225  1.7168  2.2124
  104MOL0     H14023   3.779   5.309   7.578 -1.6835 -1.8228 -0.1208
  104MOL0     H14024   2.361   4.268   8.616 -0.2229 -0.6708 -0.2129
  104MOL0     H14025   2.137   4.210   8.622  0.1439 -2.1293 -2.6884
  104MOL0     H14026   1.797   4.183   8.421 -0.9140 -1.8821 -0.0469
  104MOL0     H14027   1.576   4.076   8.355 -2.4427 -1.3248  1.4635
  104MOL0     H14028   1.383   3.914   8.393  2.2141  0.7775 -0.0817
  104MOL0     H14029   1.367   4.057   8.286 -2.4992 -2.1276 -2.0848
  104MOL0     H14030   1.129   4.070   8.432  1.1539  0.2948 -0.5184
  104MOL0     H14031   1.164   3.898   8.445  0.9233 -0.8007 -0.0454
  104MOL0     H14032   1.023   3.911   8.252  1.0512 -2.7338 -0.4632
  104MOL0     H14033   1.175   3.901   8.179 -1.3311 -1.4897 -0.2495
  104MOL0     H14034   1.022   4.161   8.201 -0.6609 -0.4744 -0.5085
  104MOL0     H14035   1.193   4.140   8.148  0.8755 -1.2104  1.3217
  104MOL0     H14036   0.988   3.989   7.804  1.8569  0.9409 -0.5949
  104MOL0     H14037   1.411   4.206   8.716  1.3771 -0.5468  2.9276
  104MOL0     H14038   1.525   4.311   8.888  2.4864  1.5859  3.6750
  104MOL0     H14039   1.689   4.253   8.898 -2.1744 -3.6996 -0.6981
  104MOL0     H14040   1.646   4.420   8.838 -2.0798  0.7336  1.0031
  105MOL0     O14041   5.487   3.874   2.189  0.3532 -0.8606  0.2976
  105MOL0     C14042   5.390   3.916   2.126 -0.1413  0.1637  0.7945
  105MOL0     O14043   5.386   3.960   1.998  0.0493  0.1500  0.5620
  105MOL0     C14044   5.493   3.941   1.907  0.0228  0.3207  0.2768
  105MOL0     C14045   5.454   3.909   1.777 -0.4474 -0.0125  0.0285
  105MOL0     C14046   5.550   3.895   1.670  1.1729 -0.5126 -0.6449
  105MOL0     C14047   5.684   3.915   1.700  0.4128  0.4754 -0.2288
  105MOL0     O14048   5.776   3.906   1.599 -0.2561 -0.2243 -0.0389
  105MOL0     C14049   5.898   3.832   1.624 -0.0579 -0.0200 -0.5607
  105MOL0     C14050   5.988   3.895   1.521 -0.0184 -1.0927 -1.0284
  105MOL0     C14051   6.012   4.058   1.554  0.4706  1.4340  1.2910
  105MOL0     C14052   6.112   4.105   1.456 -0.3510  0.5763 -0.3205
  105MOL0     C14053   6.126   4.261   1.458 -0.1613 -0.4585  0.9482
  105MOL0     C14054   6.238   4.312   1.367  0.6580  0.3843 -1.0231
  105MOL0     C14055   6.243   4.471   1.369  0.0648  0.7930  0.5920
  105MOL0     C14056   6.379   4.528   1.413 -0.2764  0.2923 -0.7441
  105MOL0     N14057   6.475   4.508   1.306  0.2404  0.5841 -0.2480
  105MOL0     C14058   6.478   4.573   1.186  0.3926 -0.1147  0.1471
  105MOL0     C14059   6.603   4.556   1.134 -0.5692 -0.3487  0.6938
  105MOL0     C14060   6.645   4.619   1.003 -0.5701 -0.5914  0.3137
  105MOL0     C14061   6.608   4.772   0.997  0.0824  0.6203  0.0052
  105MOL0     C14062   6.682   4.847   0.893  0.1398  0.1063 -0.0706
  105MOL0     C14063   6.834   4.843   0.883 -0.2579  0.2363 -0.1431
  105MOL0     O14064   6.884   4.931   0.980  0.1477 -0.5173 -0.2621
  105MOL0     C14065   7.016   4.949   0.982 -0.4550  0.1051  0.5114
  105MOL0     C14066   7.119   4.884   0.901 -0.2666 -0.0448 -0.5701
  105MOL0     C14067   7.257   4.924   0.911 -0.1578  0.6904 -0.4624
  105MOL0     C14068   7.299   5.020   1.001  0.2046  0.5688  0.2704
  105MOL0     C14069   7.444   5.053   1.007 -0.1921 -0.4395  0.1557
  105MOL0     O14070   7.517   5.021   0.893  0.1484  0.6670  0.3479
  105MOL0     C14071   7.653   5.050   0.880 -0.1280  0.2487  0.4520
  105MOL0     C14072   7.750   5.049   0.984 -0.0228 -0.0701  0.3951
  105MOL0     C14073   7.887   5.071   0.947  0.6683 -0.4441 -0.9509
  105MOL0     C14074   7.930   5.087   0.814 -0.2458  0.0037  0.3616
  105MOL0     O14075   8.068   5.090   0.789 -0.1244 -0.8809  0.7377
  105MOL0     C14076   8.117   5.112   0.652 -0.6488 -0.2786  0.5199
  105MOL0     C14077   8.259   5.067   0.645  0.6879 -0.8817  0.9056
  105MOL0     C14078   8.350   5.171   0.701 -1.2560 -0.2157  0.4720
  105MOL0     C14079   8.491   5.121   0.722 -0.4371 -0.2074  0.6473
  105MOL0     C14080   8.591   5.224   0.768  0.1078  0.4807  0.0041
  105MOL0     C14081   8.737   5.190   0.799  0.0405  0.3208 -0.8934
  105MOL0     C14082   8.797   5.305   0.885 -0.2612  0.3785  0.9685
  105MOL0     C14083   8.796   5.436   0.801  0.3623 -0.5455  0.8420
  105MOL0    Cl14084   8.872   5.570   0.886 -0.3734  0.1105 -0.3787
  105MOL0     C14085   7.832   5.075   0.713 -0.7778  0.2626 -0.2307
  105MOL0     C14086   7.699   5.064   0.745  0.0793  0.1469  0.5204
  105MOL0     O14087   7.485   5.129   1.101  0.0215 -0.2280 -0.0525
  105MOL0     C14088   7.196   5.088   1.065 -0.0177 -0.8259  0.5998
  105MOL0     C14089   7.062   5.061   1.060 -0.6807 -0.1835 -0.0749
  105MOL0     N14090   6.674   4.481   1.229  0.4513  0.1809  0.1762
  105MOL0     N14091   6.596   4.454   1.333 -0.6653 -0.3489  0.3620
  105MOL0     C14092   5.719   3.942   1.833  0.0269 -0.0281  0.0081
  105MOL0     C14093   5.628   3.968   1.936 -0.2842  1.1377  0.5422
  105MOL0     C14094   5.265   3.923   2.201  0.1733 -0.7118  0.5843
  105MOL0     C14095   5.275   3.963   2.336  0.0630  0.4741 -0.5613
  105MOL0     C14096   5.151   3.987   2.407 -0.2005 -0.2637 -0.1600
  105MOL0     C14097   5.024   3.965   2.355 -0.2033 -0.4340 -0.3972
  105MOL0     O14098   4.919   4.001   2.440 -0.2760 -0.2072  0.4413
  105MOL0     C14099   4.780   3.975   2.396  0.7932  0.1615  0.8396
  105MOL0     C14100   4.672   3.999   2.500  0.1745  0.2177 -0.2066
  105MOL0     C14101   4.529   4.043   2.435 -0.4857  0.5133  0.8295
  105MOL0     C14102   4.416   4.062   2.538 -0.9375  0.6405  0.0951
  105MOL0     C14103   4.307   4.131   2.475  0.2357 -0.7254  0.1375
  105MOL0     C14104   4.214   4.193   2.420  0.0907  0.2576 -0.0793
  105MOL0     C14105   5.017   3.919   2.228  0.0608 -0.0524 -0.4712
  105MOL0     C14106   5.133   3.901   2.146 -0.8505  0.5269 -1.0339
  105MOL0     C14107   5.110   3.858   2.006  0.5722  0.2365 -0.3592
  105MOL0     H14108   5.349   3.887   1.758 -1.3010  0.6779  3.2970
  105MOL0     H14109   5.507   3.869   1.574  0.7637  3.7961 -1.8278
  105MOL0     H14110   5.931   3.860   1.724 -0.2418  0.8877 -0.7466
  105MOL0     H14111   5.892   3.723   1.619 -0.8383 -0.1814  2.2699
  105MOL0     H14112   5.946   3.890   1.420 -1.2791 -1.0279 -0.5299
  105MOL0     H14113   6.088   3.850   1.521  0.1424 -0.8165  1.2757
  105MOL0     H14114   6.050   4.066   1.656  1.0635 -0.4699  1.2594
  105MOL0     H14115   5.915   4.107   1.544 -1.0501 -1.5497  0.2908
  105MOL0     H14116   6.212   4.064   1.467 -1.8477 -3.8829 -1.3876
  105MOL0     H14117   6.070   4.071   1.361 -1.3689 -1.0045  0.6530
  105MOL0     H14118   6.039   4.303   1.406 -0.0721  0.2718  1.3914
  105MOL0     H14119   6.132   4.303   1.558 -1.4049  0.7572  0.5464
  105MOL0     H14120   6.330   4.270   1.411  0.6320 -0.3889 -1.6932
  105MOL0     H14121   6.235   4.280   1.263 -1.5378  0.4440 -1.0051
  105MOL0     H14122   6.164   4.504   1.435  0.0782 -1.9065  2.1035
  105MOL0     H14123   6.217   4.494   1.265  0.7256  0.4199  0.3376
  105MOL0     H14124   6.362   4.636   1.408 -2.7337  0.0993  1.3178
  105MOL0     H14125   6.424   4.501   1.509  1.1734 -0.0897 -1.4881
  105MOL0     H14126   6.400   4.631   1.138  2.1372 -0.3946 -3.2607
  105MOL0     H14127   6.752   4.601   0.994 -0.7183 -2.1367  1.3549
  105MOL0     H14128   6.590   4.574   0.920 -0.2434 -0.5922  0.0980
  105MOL0     H14129   6.500   4.778   0.976 -0.8492 -1.9436  3.1083
  105MOL0     H14130   6.618   4.819   1.096  1.5118  1.5022 -0.5421
  105MOL0     H14131   6.644   4.949   0.903 -1.7047 -0.2516 -2.5650
  105MOL0     H14132   6.649   4.820   0.793 -0.7012 -0.5892  0.3898
  105MOL0     H14133   6.860   4.880   0.783  2.6508  0.9659  0.7942
  105MOL0     H14134   6.876   4.742   0.889 -1.5875 -0.5528 -2.7445
  105MOL0     H14135   7.091   4.798   0.842 -0.9220 -0.3301  0.1471
  105MOL0     H14136   7.336   4.878   0.852 -0.2911 -0.3935  0.1898
  105MOL0     H14137   7.723   5.030   1.088  2.0230 -0.1861  0.9577
  105MOL0     H14138   7.957   5.089   1.028 -1.4968 -1.8915  1.3907
  105MOL0     H14139   8.064   5.051   0.579 -2.1157  1.7148 -0.1734
  105MOL0     H14140   8.109   5.215   0.615  0.2643 -0.6914 -0.8984
  105MOL0     H14141   8.267   4.976   0.705  2.5859  0.1016  2.2220
  105MOL0     H14142   8.277   5.044   0.540  2.3573 -1.8829  1.3857
  105MOL0     H14143   8.352   5.261   0.639 -1.4378 -0.6970 -0.2476
  105MOL0     H14144   8.313   5.204   0.798  1.9380  2.8336  0.8677
  105MOL0     H14145   8.532   5.075   0.632  1.6469 -2.0142  2.3918
  105MOL0     H14146   8.482   5.036   0.791 -1.6347  0.3063  1.1405
  105MOL0     H14147   8.546   5.277   0.852 -0.1477  1.0622 -0.4940
  105MOL0     H14148   8.602   5.293   0.684 -1.5833  0.8977  0.0969
  105MOL0     H14149   8.739   5.100   0.862  0.7631  0.0318 -1.3180
  105MOL0     H14150   8.802   5.174   0.712 -0.6465 -1.7753 -1.0989
  105MOL0     H14151   8.901   5.285   0.911  0.3004 -0.4373 -1.6041
  105MOL0     H14152   8.742   5.322   0.978 -3.3667  3.0720 -1.1425
  105MOL0     H14153   8.851   5.424   0.707 -0.3509  1.4685  0.0934
  105MOL0     H14154   8.693   5.456   0.769  0.9675  1.0356 -0.2863
  105MOL0     H14155   7.858   5.048   0.611 -0.7608 -1.3582  0.1766
  105MOL0     H14156   7.625   5.045   0.669  0.3678  0.3292  0.1888
  105MOL0     H14157   7.221   5.180   1.117  0.9464 -1.6965  1.7237
  105MOL0     H14158   6.992   5.126   1.111  0.4971  1.4894 -0.5306
  105MOL0     H14159   5.825   3.965   1.846 -0.2277  0.4292  1.5300
  105MOL0     H14160   5.662   4.026   2.021  0.7115 -0.3352  1.2000
  105MOL0     H14161   5.366   3.985   2.392  0.0329 -0.6635 -0.0480
  105MOL0     H14162   5.149   4.031   2.506 -1.3408  2.0764 -1.1321
  105MOL0     H14163   4.773   3.866   2.385 -2.1926  0.2803  0.6148
  105MOL0     H14164   4.759   4.026   2.301 -0.3083  0.0441  1.0095
  105MOL0     H14165   4.710   4.075   2.569  1.6914  0.0476 -0.8237
  105MOL0     H14166   4.650   3.910   2.560 -4.7787 -0.9108 -3.1629
  105MOL0     H14167   4.491   3.965   2.369  1.5650  0.3729 -0.2629
  105MOL0     H14168   4.551   4.138   2.385  3.0827  0.0644  1.2269
  105MOL0     H14169   4.377   3.968   2.577  1.4150  0.0455  1.1738
  105MOL0     H14170   4.460   4.118   2.621  0.0517 -1.8034  1.3288
  105MOL0     H14171   4.143   4.234   2.351 -0.6963  2.2018  1.8063
  105MOL0     H14172   4.925   3.880   2.184  0.4328  0.7850 -2.0726
  105MOL0     H14173   5.116   3.949   1.945 -0.7988  0.2116 -0.5622
  105MOL0     H14174   5.192   3.787   1.992 -0.4050 -1.1568  0.7166
  105MOL0     H14175   5.016   3.808   1.982 -2.7632  3.7634  3.6498
  106MOL0     O14176   0.466  10.322   1.234  0.7112  0.0206 -0.9336
  106MOL0     C14177   0.462  10.262   1.126 -0.0627 -0.1526 -0.2165
  106MOL0     O14178   0.362  10.180   1.085  0.4554 -0.6356 -0.5921
  106MOL0     C14179   0.240  10.172   1.156 -0.2594 -0.9702 -0.1173
  106MOL0     C14180   0.180  10.046   1.172  0.0693 -0.5880 -0.0031
  106MOL0     C14181   0.052  10.044   1.226  0.4157  0.1004 -0.8002
  106MOL0     C14182  -0.030  10.152   1.253 -1.0326  0.5260 -0.1292
  106MOL0     O14183  -0.160  10.138   1.303 -0.9654 -0.2758  0.2210
  106MOL0     C14184  -0.248  10.227   1.249 -0.3945 -0.1458 -0.3835
  106MOL0     C14185  -0.387  10.203   1.293  0.7982 -0.3864 -0.2337
  106MOL0     C14186  -0.440  10.063   1.258 -0.1900  0.1233 -0.6284
  106MOL0     C14187  -0.583  10.063   1.300  0.0857  0.1521  0.6661
  106MOL0     C14188  -0.663   9.952   1.230 -0.3273 -0.9941  0.2357
  106MOL0     C14189  -0.618   9.822   1.283 -0.2086 -0.1670  0.5497
  106MOL0     C14190  -0.704   9.711   1.228  0.2081  1.3580 -0.8762
  106MOL0     C14191  -0.698   9.569   1.300 -0.3636  0.5457  0.3585
  106MOL0     N14192  -0.559   9.515   1.304 -0.5720  0.2163  0.3172
  106MOL0     C14193  -0.463   9.539   1.405  0.7987 -0.1022  0.0473
  106MOL0     C14194  -0.371   9.449   1.376 -0.4447 -0.2930 -1.0006
  106MOL0     C14195  -0.254   9.400   1.458  0.7187 -0.4224 -0.0956
  106MOL0     C14196  -0.131   9.490   1.436 -0.5729 -0.3886  0.1653
  106MOL0     C14197  -0.046   9.455   1.312  0.5822  0.7358  0.5791
  106MOL0     C14198   0.075   9.551   1.314  0.4607 -0.1308 -0.5096
  106MOL0     O14199   0.149   9.528   1.195 -0.1603 -0.4987 -0.1373
  106MOL0     C14200   0.249   9.614   1.176  0.8692  0.4387 -0.2623
  106MOL0     C14201   0.341   9.652   1.278 -0.0179  0.3505 -0.1844
  106MOL0     C14202   0.455   9.716   1.249  0.3026  0.4028 -0.0385
  106MOL0     C14203   0.485   9.770   1.126  1.2752 -0.4506  0.3083
  106MOL0     C14204   0.622   9.840   1.106  0.7232  0.3967  0.9790
  106MOL0     O14205   0.720   9.811   1.201 -0.2991  0.3949 -0.1560
  106MOL0     C14206   0.843   9.854   1.178  0.0782  0.0561 -0.3481
  106MOL0     C14207   0.868   9.989   1.178  0.4480  1.0491 -0.1579
  106MOL0     C14208   0.991  10.046   1.158  0.5719 -0.4841  0.4874
  106MOL0     C14209   1.101   9.968   1.130 -0.6797  0.7667  0.0430
  106MOL0     O14210   1.219  10.027   1.127 -0.2692 -0.9065 -0.0249
  106MOL0     C14211   1.328   9.957   1.068 -0.7226 -0.3175  0.7143
  106MOL0     C14212   1.444  10.060   1.078  0.5845 -0.2761  0.6267
  106MOL0     C14213   1.572   9.985   1.028 -0.0026 -0.9597  0.6497
  106MOL0     C14214   1.591   9.994   0.878  0.9457 -0.0948 -0.2364
  106MOL0     C14215   1.722   9.934   0.838 -0.4033  0.0462 -0.3795
  106MOL0     C14216   1.765   9.975   0.698 -0.0167 -1.0891  0.0769
  106MOL0     C14217   1.907   9.917   0.654 -0.3666  0.3604 -0.0639
  106MOL0     C14218   1.932   9.960   0.509  0.1997  0.8051 -0.2145
  106MOL0    Cl14219   2.107  10.014   0.509 -0.1829  0.0862 -0.2249
  106MOL0     C14220   1.078   9.822   1.124 -0.2106 -0.2145 -0.5860
  106MOL0     C14221   0.949   9.773   1.146  0.3400  0.3626  0.3408
  106MOL0     O14222   0.636   9.911   1.007 -0.2803  0.8177  0.5368
  106MOL0     C14223   0.397   9.732   1.016 -0.1968  0.5636  0.1660
  106MOL0     C14224   0.285   9.655   1.044 -0.0855 -0.6923 -0.2024
  106MOL0     N14225  -0.401   9.376   1.264  0.0260 -0.4781  0.3458
  106MOL0     N14226  -0.514   9.416   1.223 -0.5711  0.4628 -0.1142
  106MOL0     C14227   0.030  10.280   1.235 -0.2485  0.3688 -0.0417
  106MOL0     C14228   0.157  10.286   1.177 -0.4579  0.4663 -0.0415
  106MOL0     C14229   0.591  10.279   1.041 -1.0277 -0.2669  0.4685
  106MOL0     C14230   0.605  10.198   0.928 -0.3773 -0.5584  0.7262
  106MOL0     C14231   0.716  10.211   0.839  0.3406  0.1886  0.1218
  106MOL0     C14232   0.811  10.305   0.852  0.5397 -0.3802 -0.6601
  106MOL0     O14233   0.918  10.327   0.766  0.0135  0.1196 -0.1209
  106MOL0     C14234   0.990  10.216   0.722 -0.7682  0.2045 -1.0271
  106MOL0     C14235   1.098  10.166   0.822  0.2417  0.2606  0.5503
  106MOL0     C14236   1.213  10.272   0.824  0.4783  0.2711  0.1601
  106MOL0     C14237   1.305  10.256   0.705  0.1701 -0.4049 -0.3613
  106MOL0     C14238   1.440  10.311   0.729  1.0943 -0.4810  0.0196
  106MOL0     C14239   1.553  10.340   0.738 -0.3640 -0.0240  0.0440
  106MOL0     C14240   0.809  10.382   0.965  0.1048  0.2332  0.0438
  106MOL0     C14241   0.704  10.368   1.069  0.2940  0.3597 -0.4104
  106MOL0     C14242   0.720  10.460   1.186 -0.3726 -0.3818  0.1814
  106MOL0     H14243   0.233   9.953   1.151 -0.4293 -0.4755 -1.9665
  106MOL0     H14244   0.019   9.947   1.263 -0.5425 -0.4312 -2.8864
  106MOL0     H14245  -0.223  10.331   1.272 -1.3808 -0.1369  0.7688
  106MOL0     H14246  -0.246  10.230   1.140 -0.3718  0.1198 -0.3763
  106MOL0     H14247  -0.452  10.288   1.270 -0.4922 -0.3938  2.9034
  106MOL0     H14248  -0.393  10.223   1.401 -0.3353  1.1356 -0.5451
  106MOL0     H14249  -0.389   9.983   1.313 -1.4082 -0.2151  0.0441
  106MOL0     H14250  -0.419  10.043   1.153  2.7630  0.3283 -0.1559
  106MOL0     H14251  -0.596  10.053   1.408 -1.9389 -1.9147  0.2883
  106MOL0     H14252  -0.628  10.157   1.265 -1.5631 -1.4196 -1.7626
  106MOL0     H14253  -0.768   9.977   1.247 -0.1689  1.3665 -1.7969
  106MOL0     H14254  -0.651   9.952   1.121 -0.8475 -2.8886  0.1310
  106MOL0     H14255  -0.511   9.800   1.271 -0.2958 -0.2289 -0.1536
  106MOL0     H14256  -0.628   9.828   1.391  2.1006  0.1269  0.7990
  106MOL0     H14257  -0.673   9.689   1.125  0.3192 -0.3341 -0.5063
  106MOL0     H14258  -0.811   9.730   1.229  0.3566  2.2982  1.4312
  106MOL0     H14259  -0.742   9.578   1.400  0.3639  2.6527  0.5457
  106MOL0     H14260  -0.754   9.493   1.246 -0.0846  0.9477 -0.5171
  106MOL0     H14261  -0.464   9.595   1.498  1.7752  0.6446 -0.3681
  106MOL0     H14262  -0.278   9.405   1.565  1.0704 -0.6143 -0.0053
  106MOL0     H14263  -0.233   9.296   1.430  0.9961  0.2380 -2.5806
  106MOL0     H14264  -0.163   9.595   1.437  0.8598  0.1696  3.7777
  106MOL0     H14265  -0.074   9.482   1.529 -2.3645 -1.8041  1.2182
  106MOL0     H14266  -0.104   9.476   1.221 -0.6116  1.0251  1.3719
  106MOL0     H14267  -0.015   9.350   1.315 -0.1491  0.4185 -1.3162
  106MOL0     H14268   0.129   9.530   1.406 -2.8710  0.6264  1.8077
  106MOL0     H14269   0.039   9.654   1.325 -1.1696 -0.5431 -1.5556
  106MOL0     H14270   0.339   9.610   1.378 -2.3319 -1.8971 -1.0672
  106MOL0     H14271   0.536   9.736   1.318  0.0318 -2.6245  1.2872
  106MOL0     H14272   0.790  10.057   1.209  0.3736  1.4869 -1.2638
  106MOL0     H14273   1.011  10.152   1.167  2.6745 -0.7390 -0.6018
  106MOL0     H14274   1.363   9.867   1.120  0.7315 -0.5228 -0.5545
  106MOL0     H14275   1.291   9.922   0.971  0.5001 -1.1027  0.5125
  106MOL0     H14276   1.415  10.156   1.036 -1.5295 -0.8850  0.5545
  106MOL0     H14277   1.463  10.081   1.184  2.6195  1.5451 -0.0311
  106MOL0     H14278   1.663  10.025   1.074 -1.4937  1.6405  1.5530
  106MOL0     H14279   1.550   9.884   1.064 -1.6257 -0.4198  1.2541
  106MOL0     H14280   1.578  10.100   0.856  1.2924 -0.1855 -0.9282
  106MOL0     H14281   1.507   9.929   0.848 -2.3028  1.8730  3.5997
  106MOL0     H14282   1.698   9.828   0.823 -4.7720  1.0153 -1.5073
  106MOL0     H14283   1.804   9.943   0.911  0.4554  1.1550 -1.4362
  106MOL0     H14284   1.691   9.944   0.624 -0.9299 -1.1095  0.9885
  106MOL0     H14285   1.777  10.084   0.701 -2.4290 -0.7922  1.6463
  106MOL0     H14286   1.907   9.807   0.659 -3.1196  0.3075  0.4668
  106MOL0     H14287   1.993   9.949   0.713  0.4895 -0.6105 -0.7420
  106MOL0     H14288   1.916   9.884   0.432 -0.6686  1.9331 -1.1812
  106MOL0     H14289   1.872  10.046   0.479 -0.1810  0.0804 -1.6517
  106MOL0     H14290   1.156   9.747   1.114  2.7258  1.9989  3.0450
  106MOL0     H14291   0.931   9.666   1.152 -1.1365  0.6512  1.6020
  106MOL0     H14292   0.432   9.747   0.914 -0.2498 -0.5881 -0.0361
  106MOL0     H14293   0.223   9.617   0.964 -2.4185 -0.1600  1.2460
  106MOL0     H14294  -0.010  10.378   1.259 -2.4812 -1.2567  3.9785
  106MOL0     H14295   0.204  10.384   1.171  2.3020 -0.8380 -1.4553
  106MOL0     H14296   0.522  10.137   0.894 -0.2376 -0.9885  1.1522
  106MOL0     H14297   0.720  10.153   0.747  0.8655 -0.1619  0.3596
  106MOL0     H14298   1.047  10.247   0.634  1.1763 -1.2603 -0.3487
  106MOL0     H14299   0.939  10.122   0.698 -0.5173  0.2780 -1.8778
  106MOL0     H14300   1.139  10.065   0.812 -0.8211 -0.3497  1.9601
  106MOL0     H14301   1.053  10.163   0.922  0.8043 -0.7718  0.7911
  106MOL0     H14302   1.270  10.271   0.917  1.6130  1.6004 -0.4742
  106MOL0     H14303   1.164  10.370   0.816 -0.7006 -0.1155  2.0437
  106MOL0     H14304   1.322  10.148   0.702  1.5570 -0.2823  1.3987
  106MOL0     H14305   1.252  10.304   0.622 -0.1183  0.5090  0.3420
  106MOL0     H14306   1.657  10.365   0.742  0.0866 -1.7075 -0.6294
  106MOL0     H14307   0.883  10.460   0.983  2.8687 -1.9094 -1.2601
  106MOL0     H14308   0.766  10.551   1.147  0.8433 -1.8555 -2.0853
  106MOL0     H14309   0.625  10.481   1.235 -0.7084 -0.5852 -0.3674
  106MOL0     H14310   0.783  10.412   1.261  0.4383  0.3407 -0.0288
  107MOL0     O14311   7.062   1.405   0.219 -0.4068  0.2089 -0.0834
  107MOL0     C14312   6.949   1.395   0.269  0.4603  0.2792  1.1678
  107MOL0     O14313   6.922   1.455   0.394  0.1282  0.1215 -0.2510
  107MOL0     C14314   7.026   1.442   0.489 -0.0179 -0.1942  0.3772
  107MOL0     C14315   7.106   1.553   0.511 -0.1789  0.2107 -0.3215
  107MOL0     C14316   7.215   1.535   0.597  0.4466  0.0995  0.0562
  107MOL0     C14317   7.232   1.420   0.671 -0.5360  0.1532 -0.7950
  107MOL0     O14318   7.329   1.417   0.766  0.6543  0.7274 -0.4264
  107MOL0     C14319   7.437   1.335   0.725  0.0905 -0.4583 -0.0347
  107MOL0     C14320   7.553   1.348   0.831  0.7589  0.6272  0.4383
  107MOL0     C14321   7.678   1.263   0.807 -0.0942 -0.7337 -0.2470
  107MOL0     C14322   7.650   1.116   0.812  0.6182 -1.0319 -0.5685
  107MOL0     C14323   7.777   1.041   0.842 -0.1551  0.8156  0.0211
  107MOL0     C14324   7.752   0.881   0.833  0.2176 -0.3489 -0.3968
  107MOL0     C14325   7.874   0.789   0.864  0.0116 -0.0138  0.2288
  107MOL0     C14326   7.933   0.826   1.002 -0.2030  0.8402  0.0996
  107MOL0     N14327   8.035   0.725   1.043  0.2337 -0.1908 -0.1888
  107MOL0     C14328   8.012   0.595   1.100  0.5176 -0.0239 -0.7564
  107MOL0     C14329   8.130   0.536   1.114 -0.9203  0.0026  0.4705
  107MOL0     C14330   8.150   0.397   1.169 -0.3652  0.7975 -0.8693
  107MOL0     C14331   8.195   0.399   1.326  1.0071 -1.1416 -0.3085
  107MOL0     C14332   8.216   0.256   1.375  0.7339 -0.1729  0.6291
  107MOL0     C14333   8.093   0.202   1.441 -0.4726  0.1791 -0.3280
  107MOL0     O14334   8.113   0.062   1.482  0.3025  0.5421  0.8427
  107MOL0     C14335   8.010   0.004   1.554  0.2516 -0.4311  0.1280
  107MOL0     C14336   7.888   0.063   1.576  0.8009  0.2007 -0.2595
  107MOL0     C14337   7.784  -0.013   1.633  0.0278 -0.1880 -0.6547
  107MOL0     C14338   7.811  -0.135   1.699 -0.7204  0.0373  0.0813
  107MOL0     C14339   7.695  -0.207   1.754 -0.6511  0.5226 -0.2809
  107MOL0     O14340   7.568  -0.163   1.726  0.2591  0.0024  0.2354
  107MOL0     C14341   7.458  -0.235   1.779  0.5547 -0.3111 -0.0769
  107MOL0     C14342   7.349  -0.149   1.793  0.0234  0.7394 -0.0623
  107MOL0     C14343   7.231  -0.190   1.859 -0.2784  0.2651  0.8311
  107MOL0     C14344   7.216  -0.326   1.899 -0.6652  0.1550 -0.0102
  107MOL0     O14345   7.109  -0.385   1.954  0.1933  0.1561  0.0939
  107MOL0     C14346   6.987  -0.309   1.964 -0.2923 -0.4018 -0.4585
  107MOL0     C14347   6.884  -0.412   2.017 -0.2301 -0.0465  0.1080
  107MOL0     C14348   6.849  -0.526   1.919  0.3188  0.0644 -0.0192
  107MOL0     C14349   6.835  -0.477   1.771 -0.3068  0.1584 -0.1108
  107MOL0     C14350   6.825  -0.604   1.688  0.2628 -0.2241 -0.4141
  107MOL0     C14351   6.961  -0.674   1.654  0.5449  0.4558  0.2817
  107MOL0     C14352   7.076  -0.585   1.608  0.0049 -0.2676 -0.6916
  107MOL0     C14353   7.209  -0.654   1.567  0.8000 -0.2009  0.1708
  107MOL0    Cl14354   7.329  -0.528   1.537  0.1328 -0.3273 -0.0720
  107MOL0     C14355   7.320  -0.416   1.874 -0.4234  0.0229 -0.1743
  107MOL0     C14356   7.439  -0.371   1.812 -0.5190  0.5922  0.0762
  107MOL0     O14357   7.728  -0.316   1.799  0.5731  0.7171 -0.4738
  107MOL0     C14358   7.943  -0.184   1.690 -1.0523  0.3124  0.5298
  107MOL0     C14359   8.040  -0.122   1.616  0.9196 -0.4827  0.5736
  107MOL0     N14360   8.226   0.630   1.070 -0.5760  0.0851 -0.9129
  107MOL0     N14361   8.166   0.727   1.013 -0.7469  0.1144  0.0905
  107MOL0     C14362   7.141   1.314   0.658  0.3979  0.1504  0.5372
  107MOL0     C14363   7.045   1.320   0.555  0.4187  0.2063  0.3324
  107MOL0     C14364   6.834   1.348   0.182 -0.5915 -0.5363 -0.7872
  107MOL0     C14365   6.703   1.388   0.230  0.1006 -1.3864 -0.1082
  107MOL0     C14366   6.585   1.361   0.158  0.1535 -0.5112  0.4074
  107MOL0     C14367   6.604   1.275   0.039  0.2523 -0.5554  0.2116
  107MOL0     O14368   6.491   1.242  -0.034 -0.5290 -0.0984 -0.6524
  107MOL0     C14369   6.384   1.342  -0.062 -0.9824  0.3553 -0.3333
  107MOL0     C14370   6.408   1.405  -0.198 -0.2424 -0.1722 -0.7935
  107MOL0     C14371   6.316   1.518  -0.223  0.5356 -0.3471  0.5466
  107MOL0     C14372   6.358   1.638  -0.132  0.0262 -0.1479 -0.1322
  107MOL0     C14373   6.284   1.758  -0.169 -0.2831 -0.1826  0.6123
  107MOL0     C14374   6.223   1.850  -0.224  0.0221 -0.7222 -0.5442
  107MOL0     C14375   6.729   1.227   0.005 -0.5599 -0.1932  0.3365
  107MOL0     C14376   6.848   1.260   0.074  0.4333  0.3671 -0.0246
  107MOL0     C14377   6.978   1.189   0.017  0.0512  0.3691  0.2308
  107MOL0     H14378   7.093   1.636   0.442 -2.5692  1.3338  1.3496
  107MOL0     H14379   7.283   1.617   0.619 -0.6102  1.6699 -2.1173
  107MOL0     H14380   7.393   1.235   0.735 -0.4416 -0.3342 -0.9573
  107MOL0     H14381   7.458   1.371   0.624 -0.1063  0.9700  0.4144
  107MOL0     H14382   7.505   1.323   0.926 -0.7927 -0.8866 -0.6822
  107MOL0     H14383   7.582   1.454   0.832 -2.5711  1.6474  0.0163
  107MOL0     H14384   7.751   1.293   0.882 -0.7136  1.1923 -0.3702
  107MOL0     H14385   7.728   1.290   0.714  1.9516 -0.3080  0.9181
  107MOL0     H14386   7.572   1.094   0.886 -1.3392  1.1675 -1.8259
  107MOL0     H14387   7.613   1.087   0.713  3.5238 -2.1314 -1.4156
  107MOL0     H14388   7.850   1.065   0.765  0.7102 -1.2105  0.1435
  107MOL0     H14389   7.810   1.072   0.942  0.0183  2.1082 -0.4249
  107MOL0     H14390   7.668   0.851   0.896 -1.9763 -3.1038 -4.2237
  107MOL0     H14391   7.726   0.854   0.730  2.7381 -2.0619 -0.6982
  107MOL0     H14392   7.944   0.803   0.782 -1.8272  1.2508 -1.2045
  107MOL0     H14393   7.848   0.682   0.863 -0.7317  0.1045  1.9781
  107MOL0     H14394   7.975   0.927   1.010  1.5297  0.1233  0.5177
  107MOL0     H14395   7.857   0.834   1.080  1.2272 -2.5345  2.0526
  107MOL0     H14396   7.917   0.558   1.138  2.5095 -2.0770  2.7923
  107MOL0     H14397   8.058   0.340   1.158  0.0913  0.2049 -1.8233
  107MOL0     H14398   8.231   0.354   1.109  0.3042  2.2700 -1.0763
  107MOL0     H14399   8.292   0.450   1.334  0.4792 -0.3878  2.3105
  107MOL0     H14400   8.125   0.450   1.393  1.3556 -1.5588  0.3926
  107MOL0     H14401   8.300   0.247   1.445  0.6711 -1.1569  0.5858
  107MOL0     H14402   8.245   0.196   1.289  2.3337  1.2671  0.0941
  107MOL0     H14403   8.009   0.210   1.372 -2.2942  1.6491  1.9326
  107MOL0     H14404   8.070   0.257   1.533 -0.8012  0.7287 -0.7406
  107MOL0     H14405   7.874   0.158   1.525  0.4932 -0.5583 -1.6400
  107MOL0     H14406   7.686   0.035   1.634 -0.1536 -0.3160  3.2418
  107MOL0     H14407   7.362  -0.047   1.760 -2.2154  1.3886  0.8955
  107MOL0     H14408   7.148  -0.121   1.865 -0.0782  0.9582 -2.2911
  107MOL0     H14409   6.995  -0.236   2.045 -0.9397 -2.7832  1.9068
  107MOL0     H14410   6.973  -0.259   1.868  0.8841 -2.0425 -1.5581
  107MOL0     H14411   6.916  -0.450   2.114  1.4980 -0.9192 -0.7547
  107MOL0     H14412   6.791  -0.353   2.020 -0.5731 -0.1535 -3.6068
  107MOL0     H14413   6.935  -0.594   1.919  0.3774  0.0176 -2.7878
  107MOL0     H14414   6.757  -0.579   1.944  0.3159  0.6084  1.1691
  107MOL0     H14415   6.909  -0.409   1.729  0.4454 -0.2464  0.5360
  107MOL0     H14416   6.736  -0.431   1.762 -1.3357 -2.2619 -3.0644
  107MOL0     H14417   6.786  -0.566   1.593  2.2617 -0.5876 -1.4264
  107MOL0     H14418   6.754  -0.671   1.737 -1.0817  0.0149 -1.9426
  107MOL0     H14419   6.998  -0.735   1.738 -0.2433  3.9013  3.3930
  107MOL0     H14420   6.941  -0.748   1.576 -0.7794 -0.0992  1.1169
  107MOL0     H14421   7.096  -0.524   1.696 -0.9176  0.1595 -0.7680
  107MOL0     H14422   7.041  -0.529   1.521 -2.2275 -0.8147 -0.1960
  107MOL0     H14423   7.251  -0.718   1.645  2.0028 -1.7533 -1.6465
  107MOL0     H14424   7.183  -0.716   1.480  0.9284  1.0477 -0.7904
  107MOL0     H14425   7.313  -0.521   1.900 -0.9228 -0.8638 -3.5199
  107MOL0     H14426   7.522  -0.441   1.806 -0.0323  1.1881 -0.2192
  107MOL0     H14427   7.973  -0.279   1.733  1.5929 -0.5925 -2.8837
  107MOL0     H14428   8.134  -0.175   1.606  0.9107 -0.6216  1.1974
  107MOL0     H14429   7.134   1.237   0.735 -1.7726  0.5028  0.7422
  107MOL0     H14430   6.979   1.235   0.544 -0.3077  0.5434  1.9102
  107MOL0     H14431   6.691   1.458   0.311  1.3942  0.1110 -1.1663
  107MOL0     H14432   6.486   1.392   0.187  0.3509  0.6499 -0.1168
  107MOL0     H14433   6.381   1.418   0.016  0.0004  0.6650 -0.5862
  107MOL0     H14434   6.289   1.289  -0.056 -2.3427  2.8517  4.0468
  107MOL0     H14435   6.403   1.328  -0.276  0.2440 -0.5240 -0.4823
  107MOL0     H14436   6.509   1.445  -0.208  0.2932 -0.5966  1.9940
  107MOL0     H14437   6.209   1.495  -0.217  0.9475 -3.6605 -2.0302
  107MOL0     H14438   6.326   1.546  -0.328 -1.3586  1.1444  0.7052
  107MOL0     H14439   6.342   1.611  -0.028  1.6303 -1.8698 -0.2659
  107MOL0     H14440   6.467   1.648  -0.140 -0.1216  1.7933 -0.0191
  107MOL0     H14441   6.175   1.933  -0.271 -0.2354 -0.3524  0.3515
  107MOL0     H14442   6.735   1.159  -0.079  1.6235 -3.3353  2.7684
  107MOL0     H14443   7.040   1.157   0.101  2.8413  2.5420 -0.8512
  107MOL0     H14444   6.955   1.107  -0.051  1.6031 -0.3378  0.5214
  107MOL0     H14445   7.023   1.276  -0.031 -0.6002 -0.0850 -1.2474
  108MOL0     O14446  10.510   6.483   0.871  0.3943  0.7503 -0.1610
  108MOL0     C14447  10.473   6.370   0.843 -0.4673 -0.0177 -1.0805
  108MOL0     O14448  10.557   6.269   0.823 -0.1121  0.0406  0.5327
  108MOL0     C14449  10.690   6.274   0.866 -0.7904 -0.2193  0.6013
  108MOL0     C14450  10.772   6.187   0.792  0.0142  0.2710  0.3142
  108MOL0     C14451  10.911   6.175   0.806  1.0673 -0.9306 -0.1065
  108MOL0     C14452  10.972   6.273   0.896 -0.0590  0.6778  0.0144
  108MOL0     O14453  11.110   6.284   0.922 -0.3685  0.8848 -0.1180
  108MOL0     C14454  11.204   6.186   0.879  0.4939 -0.3889 -0.3827
  108MOL0     C14455  11.341   6.259   0.882 -0.0308  0.9460 -0.3250
  108MOL0     C14456  11.456   6.163   0.851 -0.2855  0.3914 -0.3459
  108MOL0     C14457  11.591   6.238   0.821  0.7374 -0.0643 -0.3960
  108MOL0     C14458  11.695   6.130   0.789  1.2609  0.0902  0.6483
  108MOL0     C14459  11.821   6.191   0.718  0.7139 -0.0845 -0.7894
  108MOL0     C14460  11.903   6.291   0.798  0.2066 -0.7115  0.4504
  108MOL0     C14461  12.033   6.325   0.721  1.2060 -0.8024 -0.0026
  108MOL0     N14462  12.125   6.220   0.726 -0.4611  0.7692 -0.0883
  108MOL0     C14463  12.205   6.195   0.833 -0.0177  0.0726  0.0968
  108MOL0     C14464  12.285   6.096   0.798  0.7131  0.1870  0.0916
  108MOL0     C14465  12.374   6.022   0.899 -1.1193 -0.3458  0.5463
  108MOL0     C14466  12.359   5.869   0.892 -0.1489  0.0359 -1.1331
  108MOL0     C14467  12.417   5.787   1.014 -0.3317  0.8767  0.4856
  108MOL0     C14468  12.578   5.789   1.018  0.3978 -0.1129 -0.0332
  108MOL0     O14469  12.617   5.685   1.108  0.4152 -0.3503 -0.8566
  108MOL0     C14470  12.746   5.684   1.154  0.2296  0.4578  0.3268
  108MOL0     C14471  12.779   5.581   1.234 -0.1399 -0.0994  0.0379
  108MOL0     C14472  12.899   5.571   1.306  0.4403  0.2901  0.1581
  108MOL0     C14473  12.992   5.672   1.293  0.3929  0.3740  0.5950
  108MOL0     C14474  13.119   5.666   1.362  0.1444 -0.1168  0.2470
  108MOL0     O14475  13.207   5.762   1.337 -0.8098  0.1731  0.3572
  108MOL0     C14476  13.335   5.766   1.391  0.4188 -0.0253  1.3310
  108MOL0     C14477  13.407   5.658   1.421  0.5210  0.0178 -0.4548
  108MOL0     C14478  13.539   5.661   1.476 -0.6507  1.0688 -0.1651
  108MOL0     C14479  13.599   5.788   1.505  0.4205  1.3400  0.0068
  108MOL0     O14480  13.723   5.790   1.556 -1.2995 -0.4587  0.2461
  108MOL0     C14481  13.781   5.920   1.582 -1.0057 -0.3257  1.2196
  108MOL0     C14482  13.933   5.906   1.578  0.3036  0.3355  0.0775
  108MOL0     C14483  14.000   5.843   1.450  0.7932  0.4219 -0.1044
  108MOL0     C14484  14.140   5.786   1.472 -0.1457  0.5564  0.0128
  108MOL0     C14485  14.146   5.690   1.589 -0.1954  1.0318  0.5870
  108MOL0     C14486  14.276   5.616   1.591 -0.1941 -0.4479  0.3142
  108MOL0     C14487  14.283   5.485   1.509 -0.1971  0.4205  0.5498
  108MOL0     C14488  14.434   5.428   1.498 -0.1021  0.1637 -0.2580
  108MOL0    Cl14489  14.532   5.426   1.654 -0.6456  0.4054 -0.0516
  108MOL0     C14490  13.511   5.898   1.483 -0.0561 -0.3336  0.0824
  108MOL0     C14491  13.391   5.886   1.425  0.0615  0.0552  0.8114
  108MOL0     O14492  13.138   5.570   1.434  0.0912 -0.3636  0.1696
  108MOL0     C14493  12.965   5.773   1.201  1.1122 -0.6111  0.6630
  108MOL0     C14494  12.843   5.777   1.126  1.2636 -0.1736  0.2448
  108MOL0     N14495  12.245   6.050   0.674 -0.0548  0.5867 -0.4711
  108MOL0     N14496  12.153   6.126   0.631 -0.0993  0.4019 -0.2068
  108MOL0     C14497  10.887   6.341   0.984  0.3973 -0.1857  0.0722
  108MOL0     C14498  10.748   6.349   0.970 -0.0176  0.1936  0.3032
  108MOL0     C14499  10.329   6.352   0.828  0.6268  0.5794  0.8325
  108MOL0     C14500  10.277   6.238   0.894 -0.3123 -0.3548 -0.6078
  108MOL0     C14501  10.153   6.195   0.876 -0.1361 -0.9458 -0.6844
  108MOL0     C14502  10.066   6.273   0.796 -0.1606  0.6536  0.0664
  108MOL0     O14503   9.940   6.220   0.791  0.3928 -0.3648  0.2278
  108MOL0     C14504   9.852   6.271   0.695  1.1154  1.2152  0.6060
  108MOL0     C14505   9.708   6.209   0.716  0.0864 -0.0174  0.1206
  108MOL0     C14506   9.718   6.052   0.736 -0.2027 -0.1306 -1.0430
  108MOL0     C14507   9.621   5.953   0.660 -0.6899 -0.0323  0.6407
  108MOL0     C14508   9.481   5.992   0.671  0.4718  0.5786 -0.3269
  108MOL0     C14509   9.364   6.022   0.672  0.0972 -0.3673 -0.9138
  108MOL0     C14510  10.114   6.389   0.732 -0.1137 -0.6809  1.2118
  108MOL0     C14511  10.243   6.425   0.744  0.4197  0.0300 -0.0912
  108MOL0     C14512  10.304   6.540   0.658  0.0281  0.4325  0.2352
  108MOL0     H14513  10.721   6.114   0.729  0.3353 -0.4756  0.9085
  108MOL0     H14514  10.962   6.098   0.748  1.9818 -0.3099 -0.1471
  108MOL0     H14515  11.212   6.092   0.935  2.5576  0.0485  0.1293
  108MOL0     H14516  11.182   6.169   0.773 -0.3010  1.6533 -0.5830
  108MOL0     H14517  11.357   6.299   0.983  2.8342 -1.1298  0.1681
  108MOL0     H14518  11.339   6.346   0.816 -0.0746  1.1008 -0.1197
  108MOL0     H14519  11.433   6.093   0.771 -0.1222  0.7401 -0.7026
  108MOL0     H14520  11.472   6.087   0.928  2.7052 -1.3138 -2.4523
  108MOL0     H14521  11.575   6.305   0.736  2.1593  0.9786  0.1139
  108MOL0     H14522  11.618   6.289   0.914  0.3883 -0.5263 -0.0378
  108MOL0     H14523  11.719   6.078   0.883 -0.8163 -3.5092 -0.6121
  108MOL0     H14524  11.646   6.057   0.725  0.4201  0.5862  0.7084
  108MOL0     H14525  11.890   6.111   0.688  1.6297  1.1844 -2.2216
  108MOL0     H14526  11.793   6.240   0.624  1.1968  3.8224  0.9007
  108MOL0     H14527  11.927   6.252   0.897  0.7192 -0.8996  0.2518
  108MOL0     H14528  11.843   6.382   0.812 -2.6322 -2.7023  2.2299
  108MOL0     H14529  11.997   6.356   0.623 -1.2774  2.6264  1.7820
  108MOL0     H14530  12.073   6.416   0.766  0.3288  0.9457 -2.5457
  108MOL0     H14531  12.206   6.252   0.925 -1.4429  1.6828 -0.8315
  108MOL0     H14532  12.476   6.048   0.870 -0.5734 -1.7694  1.0987
  108MOL0     H14533  12.346   6.064   0.996  1.5496  4.4202 -0.3953
  108MOL0     H14534  12.252   5.848   0.885 -0.2246 -1.7216  2.5355
  108MOL0     H14535  12.410   5.835   0.801 -0.2867  3.6767 -2.7372
  108MOL0     H14536  12.382   5.685   0.997  0.2197  0.8897 -0.8138
  108MOL0     H14537  12.369   5.817   1.108 -0.7444  1.0210  0.2297
  108MOL0     H14538  12.613   5.888   1.048  3.7652 -0.8470 -1.1629
  108MOL0     H14539  12.620   5.765   0.920  1.2276  0.0698  0.2707
  108MOL0     H14540  12.701   5.506   1.245  0.9152 -1.0724  1.1294
  108MOL0     H14541  12.924   5.480   1.359  0.2035 -1.4453 -2.5423
  108MOL0     H14542  13.355   5.567   1.394 -0.4647  0.3401  0.3313
  108MOL0     H14543  13.590   5.571   1.509 -0.8567  0.8443 -0.4587
  108MOL0     H14544  13.741   6.001   1.520 -1.2525 -0.2616  1.4597
  108MOL0     H14545  13.755   5.949   1.684 -1.0647 -0.0528  1.1259
  108MOL0     H14546  13.974   6.004   1.602 -1.7656  1.3161 -0.1365
  108MOL0     H14547  13.959   5.834   1.657 -0.4821  0.8535  0.8279
  108MOL0     H14548  13.939   5.758   1.418 -0.9249  0.9705  1.5444
  108MOL0     H14549  13.995   5.916   1.368  0.2288  1.5709  0.9255
  108MOL0     H14550  14.201   5.875   1.492 -0.8047  1.0688 -0.2281
  108MOL0     H14551  14.175   5.734   1.383 -0.5129  3.9704 -2.3364
  108MOL0     H14552  14.066   5.616   1.582  0.1388  0.5176  1.8844
  108MOL0     H14553  14.130   5.745   1.682 -1.3203  1.4671  0.1432
  108MOL0     H14554  14.357   5.684   1.562  1.3833 -1.5219  1.9152
  108MOL0     H14555  14.293   5.589   1.696  4.8360 -0.5273 -0.2613
  108MOL0     H14556  14.246   5.500   1.408  1.9968 -2.8409 -0.9276
  108MOL0     H14557  14.224   5.404   1.552 -0.7075  0.2997 -0.3716
  108MOL0     H14558  14.449   5.342   1.433  1.0419  1.3467 -1.6459
  108MOL0     H14559  14.494   5.505   1.448  0.1066  0.1965  0.0378
  108MOL0     H14560  13.550   5.998   1.503  4.7929 -1.9031 -0.2722
  108MOL0     H14561  13.324   5.968   1.401  1.8268  0.9333 -1.5481
  108MOL0     H14562  13.037   5.853   1.192  0.0621  0.1434 -1.6926
  108MOL0     H14563  12.834   5.852   1.048  2.3542 -0.2930 -0.0146
  108MOL0     H14564  10.934   6.401   1.061  1.5162 -0.3601 -0.4391
  108MOL0     H14565  10.684   6.410   1.032 -1.1785  1.0769 -1.6879
  108MOL0     H14566  10.345   6.187   0.962 -0.8042 -0.3427 -0.1009
  108MOL0     H14567  10.122   6.112   0.938  1.0312  0.2067  1.5612
  108MOL0     H14568   9.880   6.250   0.591  0.6777  0.9740  0.5349
  108MOL0     H14569   9.852   6.380   0.706  0.7043  1.0332  2.8036
  108MOL0     H14570   9.654   6.233   0.624  0.5141  0.3708 -0.0350
  108MOL0     H14571   9.653   6.252   0.800  4.1747 -0.9149  3.6281
  108MOL0     H14572   9.706   6.027   0.842 -2.3741  1.5277 -0.8164
  108MOL0     H14573   9.820   6.032   0.704  0.1725 -0.8552  0.5005
  108MOL0     H14574   9.643   5.958   0.553  1.3013 -1.9565  0.8968
  108MOL0     H14575   9.648   5.851   0.689  1.5044  0.4913  0.5983
  108MOL0     H14576   9.260   6.050   0.671 -0.3614 -1.5230  2.3950
  108MOL0     H14577  10.059   6.459   0.669 -0.8505 -0.8965  1.6082
  108MOL0     H14578  10.262   6.556   0.558  2.3789  1.3431 -0.6731
  108MOL0     H14579  10.302   6.630   0.720 -0.7042  1.1771 -0.8392
  108MOL0     H14580  10.409   6.515   0.642 -0.5926 -1.3213 -1.4652
  109MOL0     O14581   1.340   9.720   9.813  0.7068  0.1409 -0.4244
  109MOL0     C14582   1.383   9.836   9.838  0.4647 -0.2620 -0.0338
  109MOL0     O14583   1.512   9.869   9.860 -1.3853 -0.1417 -0.2083
  109MOL0     C14584   1.618   9.798   9.812 -0.3679  0.0220  0.0686
  109MOL0     C14585   1.738   9.803   9.870 -0.7222 -0.2535  0.3374
  109MOL0     C14586   1.850   9.734   9.816  0.2521 -0.2405 -0.2238
  109MOL0     C14587   1.832   9.645   9.705 -0.4056 -0.2417 -0.0023
  109MOL0     O14588   1.943   9.568   9.658 -0.0445 -0.4328  0.5500
  109MOL0     C14589   1.926   9.462   9.569  0.6374  0.7878  0.1789
  109MOL0     C14590   2.044   9.368   9.569  0.1533  0.1465  0.2274
  109MOL0     C14591   2.163   9.436   9.515  0.3522 -0.9396  0.7925
  109MOL0     C14592   2.266   9.341   9.463 -0.8038  0.1705  0.2873
  109MOL0     C14593   2.393   9.409   9.410  0.3916  0.3647  0.7511
  109MOL0     C14594   2.472   9.300   9.326  0.5634  0.2672  0.9211
  109MOL0     C14595   2.590   9.352   9.241 -0.8093  0.0950 -1.7149
  109MOL0     C14596   2.688   9.441   9.316 -0.3406  0.5677  0.2672
  109MOL0     N14597   2.817   9.427   9.250  0.1548  0.2506  0.4273
  109MOL0     C14598   2.890   9.316   9.269  0.4550 -0.4266 -0.0587
  109MOL0     C14599   3.018   9.355   9.251  0.2631  1.1051 -0.4025
  109MOL0     C14600   3.137   9.273   9.288 -0.1868  0.1039  0.0715
  109MOL0     C14601   3.172   9.278   9.435 -0.5623  0.0173  0.7667
  109MOL0     C14602   3.282   9.177   9.468  0.3277 -0.5639  0.6976
  109MOL0     C14603   3.416   9.209   9.406  0.1626 -0.4597 -0.3028
  109MOL0     O14604   3.498   9.092   9.427 -0.1605  0.1796 -0.4694
  109MOL0     C14605   3.624   9.075   9.370  0.9033 -0.9914 -0.7374
  109MOL0     C14606   3.707   8.967   9.409  0.1710 -0.6452 -0.6966
  109MOL0     C14607   3.830   8.938   9.363 -0.0198  1.5962  1.0164
  109MOL0     C14608   3.883   9.024   9.265  0.4914  0.4038 -0.1229
  109MOL0     C14609   4.017   9.002   9.199 -0.1184  0.8731 -0.9120
  109MOL0     O14610   4.079   8.888   9.224  0.5908  0.1769 -0.4383
  109MOL0     C14611   4.209   8.881   9.179  0.4023  0.1656 -0.3942
  109MOL0     C14612   4.239   8.846   9.048 -0.4942  0.6803  0.5710
  109MOL0     C14613   4.371   8.841   9.006 -0.5926  0.3963  0.1644
  109MOL0     C14614   4.478   8.861   9.098  0.1491  0.2868  0.3642
  109MOL0     O14615   4.606   8.858   9.037  0.5414 -0.3568 -0.3305
  109MOL0     C14616   4.725   8.900   9.102 -0.8675 -0.0715  0.1168
  109MOL0     C14617   4.846   8.886   9.003  0.1007 -0.1455 -0.7116
  109MOL0     C14618   4.978   8.966   9.033 -0.1578  0.6544  0.0508
  109MOL0     C14619   5.117   8.894   9.000 -0.3262  0.4363  0.6285
  109MOL0     C14620   5.234   8.999   8.999  0.4658 -0.1718  0.0939
  109MOL0     C14621   5.373   8.946   8.979  0.1228  0.4202  0.3029
  109MOL0     C14622   5.464   9.063   8.954 -0.6033  0.4936 -0.1214
  109MOL0     C14623   5.605   9.017   8.916  0.0849  0.2577 -0.6489
  109MOL0    Cl14624   5.710   9.156   8.917  0.4590 -0.5754 -0.4237
  109MOL0     C14625   4.444   8.905   9.228 -0.1373 -0.2086 -0.3775
  109MOL0     C14626   4.307   8.909   9.267 -0.7151 -0.6673  0.4894
  109MOL0     O14627   4.062   9.095   9.135 -0.8854  0.3415  0.0621
  109MOL0     C14628   3.809   9.140   9.226  0.1708  0.1910 -0.3012
  109MOL0     C14629   3.683   9.172   9.283 -0.0367 -0.5114  0.6373
  109MOL0     N14630   3.021   9.484   9.214  0.4424 -0.4204  0.3271
  109MOL0     N14631   2.901   9.528   9.220 -0.4392 -0.4143 -0.1282
  109MOL0     C14632   1.708   9.644   9.648 -0.7044 -0.6387 -0.2915
  109MOL0     C14633   1.602   9.714   9.700  0.3065  0.2658 -0.0534
  109MOL0     C14634   1.283   9.955   9.839 -0.7116  0.4359 -0.2325
  109MOL0     C14635   1.152   9.916   9.834 -0.4276  0.1707 -0.2859
  109MOL0     C14636   1.041   9.994   9.856 -0.1718 -0.0105  0.3251
  109MOL0     C14637   1.063  10.124   9.906 -0.1139 -0.7908 -0.3503
  109MOL0     O14638   0.948  10.203   9.934 -0.1313 -0.4089 -0.7688
  109MOL0     C14639   0.956  10.345   9.967 -0.0104 -0.7003 -0.0123
  109MOL0     C14640   0.811  10.410   9.977 -0.4690 -0.3888 -0.3417
  109MOL0     C14641   0.746  10.393   9.841  0.6346 -0.1914 -0.2055
  109MOL0     C14642   0.619  10.307   9.863  0.6116 -0.2291  0.5800
  109MOL0     C14643   0.529  10.336   9.748 -0.5928 -0.2455 -0.0684
  109MOL0     C14644   0.458  10.350   9.652  0.3583  0.1902  0.5449
  109MOL0     C14645   1.198  10.176   9.923  0.3049 -0.0940  0.6818
  109MOL0     C14646   1.306  10.092   9.884 -0.8610  0.0513  0.3790
  109MOL0     C14647   1.448  10.148   9.876  0.7670 -0.3472  0.8532
  109MOL0     H14648   1.730   9.866   9.958 -0.7066  0.9582 -0.4929
  109MOL0     H14649   1.949   9.747   9.859  0.0903  1.8315 -0.3957
  109MOL0     H14650   1.841   9.400   9.603  2.1210 -1.4272  0.0667
  109MOL0     H14651   1.912   9.513   9.473  0.7848  3.1357  1.3485
  109MOL0     H14652   2.025   9.286   9.499  0.6247 -0.0673  0.3508
  109MOL0     H14653   2.065   9.323   9.666 -4.0454 -3.2813 -0.1685
  109MOL0     H14654   2.202   9.501   9.594 -3.0418  2.6690 -0.1797
  109MOL0     H14655   2.130   9.510   9.442  1.4482  2.2185  3.2891
  109MOL0     H14656   2.279   9.278   9.552 -0.5493 -3.0582 -1.8834
  109MOL0     H14657   2.226   9.279   9.383 -1.2956  0.7531  0.0785
  109MOL0     H14658   2.371   9.488   9.337 -1.7681 -0.5380  0.3455
  109MOL0     H14659   2.451   9.452   9.492 -1.4614  0.1439  2.2632
  109MOL0     H14660   2.513   9.216   9.383  2.0835 -0.9557 -1.8208
  109MOL0     H14661   2.403   9.241   9.265 -0.0654  2.5626 -0.7236
  109MOL0     H14662   2.548   9.415   9.161 -2.0321  2.7585  0.8218
  109MOL0     H14663   2.641   9.269   9.192 -1.7303 -3.1741  2.3574
  109MOL0     H14664   2.651   9.543   9.307 -2.2495 -0.1835 -1.0630
  109MOL0     H14665   2.692   9.415   9.422  0.9220  1.9038  0.5832
  109MOL0     H14666   2.858   9.221   9.310  1.5898  0.0181  2.0250
  109MOL0     H14667   3.137   9.174   9.242 -0.6470  1.4060 -2.9848
  109MOL0     H14668   3.215   9.331   9.237 -0.6921 -0.5366 -1.4750
  109MOL0     H14669   3.208   9.376   9.465 -1.3876  0.4121  0.4912
  109MOL0     H14670   3.091   9.241   9.500 -0.5880 -0.6890  0.3395
  109MOL0     H14671   3.251   9.077   9.436 -0.0952  0.2208 -1.4831
  109MOL0     H14672   3.302   9.175   9.576 -0.3104 -1.1181  0.8071
  109MOL0     H14673   3.457   9.289   9.468 -0.1861 -0.3485 -0.2088
  109MOL0     H14674   3.406   9.235   9.301 -1.2011 -1.0702 -0.3483
  109MOL0     H14675   3.657   8.902   9.480  4.2115 -1.4928  1.6355
  109MOL0     H14676   3.880   8.847   9.394 -0.7559  0.5243 -0.7930
  109MOL0     H14677   4.166   8.816   8.973 -1.5652  0.1174  1.8001
  109MOL0     H14678   4.406   8.821   8.905  0.5348 -3.6352  1.1632
  109MOL0     H14679   4.720   9.004   9.137 -2.4911  0.0994 -0.5714
  109MOL0     H14680   4.747   8.845   9.194  0.1341 -0.3097 -0.2463
  109MOL0     H14681   4.861   8.777   9.003  1.2309 -0.0053 -0.4154
  109MOL0     H14682   4.804   8.917   8.907 -1.2056  0.9127  0.1610
  109MOL0     H14683   4.967   9.065   8.987  3.8741  0.8784 -0.7811
  109MOL0     H14684   4.976   8.987   9.141  1.3031 -2.3379  0.7523
  109MOL0     H14685   5.107   8.844   8.903  2.5332 -1.1774  1.0375
  109MOL0     H14686   5.142   8.821   9.078  0.2874 -0.7478 -0.6238
  109MOL0     H14687   5.229   9.062   9.089 -0.8625  1.3960 -1.0219
  109MOL0     H14688   5.207   9.060   8.913  0.6544 -0.7242 -0.3614
  109MOL0     H14689   5.399   8.903   9.076  1.7413  0.4755 -0.0787
  109MOL0     H14690   5.390   8.859   8.915 -1.8382 -0.3041  0.6971
  109MOL0     H14691   5.470   9.130   9.040  1.6664 -0.0182  0.1722
  109MOL0     H14692   5.413   9.119   8.875 -0.4400  3.4056  1.7010
  109MOL0     H14693   5.644   8.950   8.993 -0.0295  0.2884 -0.5625
  109MOL0     H14694   5.597   8.964   8.821 -1.0596 -1.1202  0.1751
  109MOL0     H14695   4.529   8.925   9.292  0.9682 -1.5157 -1.3806
  109MOL0     H14696   4.279   8.944   9.367 -0.5775  1.6700 -0.2172
  109MOL0     H14697   3.855   9.200   9.148 -0.6119 -0.2516 -1.1227
  109MOL0     H14698   3.633   9.261   9.248 -1.0158 -1.7643 -1.3587
  109MOL0     H14699   1.677   9.586   9.562 -4.8643 -1.8208  1.7538
  109MOL0     H14700   1.502   9.698   9.662  0.2948  0.1073  0.0447
  109MOL0     H14701   1.128   9.816   9.801 -0.6193  0.3538 -0.7080
  109MOL0     H14702   0.935   9.972   9.850 -0.3264  0.9241 -0.5162
  109MOL0     H14703   1.004  10.420   9.904 -0.0959  0.2512  1.0142
  109MOL0     H14704   1.003  10.362  10.064 -3.2382 -0.7210  1.7183
  109MOL0     H14705   0.837  10.514   9.998  2.0377 -0.8910 -0.7034
  109MOL0     H14706   0.768  10.354  10.060  2.0287 -0.6792  0.8506
  109MOL0     H14707   0.819  10.350   9.771 -0.1594  0.5369 -1.5216
  109MOL0     H14708   0.727  10.491   9.797  0.6341  0.1341  0.5182
  109MOL0     H14709   0.643  10.201   9.860  2.5887  0.1822  0.9028
  109MOL0     H14710   0.562  10.327   9.954 -0.7664  0.9063 -0.4658
  109MOL0     H14711   0.383  10.355   9.576  0.5134 -3.1326  0.0420
  109MOL0     H14712   1.216  10.276   9.962  0.6527  0.4517 -0.8377
  109MOL0     H14713   1.495  10.141   9.975 -2.0671 -1.0487  2.2348
  109MOL0     H14714   1.508  10.098   9.799 -1.0321 -1.1330 -0.0757
  109MOL0     H14715   1.440  10.254   9.849 -2.7190 -1.1584 -1.9174
  110MOL0     O14716   3.946   0.776   2.997 -0.5515 -0.6085  0.2075
  110MOL0     C14717   3.907   0.872   3.058  0.1079 -0.2114  0.0876
  110MOL0     O14718   3.990   0.970   3.106 -0.2607  0.2918  0.1851
  110MOL0     C14719   4.128   0.981   3.077 -0.7732  0.3152 -0.1437
  110MOL0     C14720   4.188   1.096   3.124 -0.0821 -0.0407 -0.0389
  110MOL0     C14721   4.331   1.114   3.102  0.4012  0.0379  0.5557
  110MOL0     C14722   4.415   1.026   3.033  0.1909  0.8067  0.0350
  110MOL0     O14723   4.544   1.040   3.014  0.4760 -0.4770 -0.4440
  110MOL0     C14724   4.625   1.118   3.113  0.2427 -0.1512 -0.3233
  110MOL0     C14725   4.771   1.108   3.083  0.7794  1.2120 -0.0942
  110MOL0     C14726   4.866   1.197   3.158  0.5230  0.4488  0.7605
  110MOL0     C14727   5.008   1.136   3.141 -0.3987  0.0901 -0.4714
  110MOL0     C14728   5.114   1.223   3.210 -0.3297 -0.6664  0.5406
  110MOL0     C14729   5.254   1.169   3.203  0.6906  0.5126 -0.6221
  110MOL0     C14730   5.329   1.198   3.079 -0.4229 -1.2092  0.2610
  110MOL0     C14731   5.470   1.129   3.078  0.0145  0.1525  0.2182
  110MOL0     N14732   5.569   1.185   3.164  0.0953 -0.0065 -0.1617
  110MOL0     C14733   5.686   1.239   3.115 -0.2077  0.2607  0.4196
  110MOL0     C14734   5.757   1.271   3.223 -0.5033 -0.4258  0.1375
  110MOL0     C14735   5.900   1.314   3.208 -0.0191 -1.5168  0.4749
  110MOL0     C14736   5.996   1.209   3.256  0.4550  0.8557  0.5341
  110MOL0     C14737   6.144   1.251   3.261 -0.6528 -0.7714  0.3589
  110MOL0     C14738   6.237   1.171   3.164  0.2430 -0.5025  0.2450
  110MOL0     O14739   6.263   1.037   3.206  0.0933 -0.3038 -0.0143
  110MOL0     C14740   6.363   1.015   3.300 -0.5456  0.1116 -0.2292
  110MOL0     C14741   6.397   0.878   3.312  0.1433  0.9639 -0.9035
  110MOL0     C14742   6.508   0.835   3.379 -0.3432  0.7013  0.1296
  110MOL0     C14743   6.586   0.927   3.453  0.1330  0.2485  0.2618
  110MOL0     C14744   6.708   0.886   3.519  0.7017 -0.0661 -0.3847
  110MOL0     O14745   6.746   0.753   3.526  0.3345  0.0622 -0.2775
  110MOL0     C14746   6.872   0.723   3.568  0.1335 -0.1604 -1.1310
  110MOL0     C14747   6.944   0.754   3.692  0.1966  0.5579 -0.1180
  110MOL0     C14748   7.077   0.703   3.706  0.3209  0.9998  0.5465
  110MOL0     C14749   7.143   0.636   3.597  0.7405  0.2374  0.9476
  110MOL0     O14750   7.271   0.596   3.605 -0.8047 -0.0069 -0.1132
  110MOL0     C14751   7.294   0.502   3.715  0.3982  0.4270 -0.1927
  110MOL0     C14752   7.393   0.396   3.678 -0.0281  0.0403 -0.0118
  110MOL0     C14753   7.532   0.437   3.662 -0.7035 -0.2349 -1.2979
  110MOL0     C14754   7.628   0.323   3.689 -0.0943 -0.7034 -0.0814
  110MOL0     C14755   7.779   0.362   3.663 -0.0383  0.1725 -0.1543
  110MOL0     C14756   7.873   0.240   3.688 -0.0196  0.0027  0.2353
  110MOL0     C14757   8.010   0.269   3.636  0.0897 -0.9882  0.6227
  110MOL0     C14758   8.119   0.166   3.657  0.5565  0.1132 -0.6374
  110MOL0    Cl14759   8.099   0.025   3.558 -0.0486  0.3171  0.1933
  110MOL0     C14760   7.068   0.621   3.471  0.7235  0.6549  0.4083
  110MOL0     C14761   6.935   0.659   3.461 -0.5082  1.3162 -1.1368
  110MOL0     O14762   6.774   0.977   3.558 -0.7393  0.3233 -0.6010
  110MOL0     C14763   6.542   1.062   3.456 -0.3970 -0.1995 -1.0034
  110MOL0     C14764   6.435   1.112   3.378 -0.2775  0.6679 -0.6689
  110MOL0     N14765   5.693   1.222   3.330  0.0981  0.0698 -0.1479
  110MOL0     N14766   5.584   1.166   3.297  0.4013 -0.2005 -0.1402
  110MOL0     C14767   4.353   0.912   2.983  0.7909  0.4209 -0.1483
  110MOL0     C14768   4.214   0.894   2.999  0.7885 -0.5982 -0.1360
  110MOL0     C14769   3.768   0.873   3.088 -0.2871  0.7076  0.0695
  110MOL0     C14770   3.743   0.900   3.225  0.9110 -0.7585  0.0022
  110MOL0     C14771   3.614   0.908   3.267 -0.2917 -0.5307  0.5105
  110MOL0     C14772   3.501   0.877   3.187 -0.0666 -0.8336  0.4062
  110MOL0     O14773   3.366   0.885   3.218  1.0809  0.1196 -0.3987
  110MOL0     C14774   3.335   0.918   3.350 -0.3729 -0.0075  0.0039
  110MOL0     C14775   3.182   0.929   3.354  0.3895 -0.3518  0.7352
  110MOL0     C14776   3.116   0.968   3.484 -0.0772 -0.6862 -0.0565
  110MOL0     C14777   3.007   1.066   3.461 -0.1295 -0.2239 -0.0655
  110MOL0     C14778   2.901   1.007   3.382  0.6051  1.3408 -0.2607
  110MOL0     C14779   2.820   0.964   3.296  0.2215 -0.8594  0.1021
  110MOL0     C14780   3.531   0.842   3.052  0.0506  0.2154  0.2807
  110MOL0     C14781   3.662   0.841   2.997  0.8804  0.5313 -0.2490
  110MOL0     C14782   3.678   0.817   2.852 -0.3009 -0.5058 -0.5287
  110MOL0     H14783   4.132   1.170   3.180 -1.0680  0.4585 -1.6088
  110MOL0     H14784   4.367   1.205   3.149  1.8717  0.0584 -0.5479
  110MOL0     H14785   4.603   1.225   3.119 -2.7170 -0.5257 -2.4210
  110MOL0     H14786   4.608   1.071   3.211  4.4588 -1.3649  0.0024
  110MOL0     H14787   4.772   1.138   2.978 -0.9882  0.8062 -0.2651
  110MOL0     H14788   4.805   1.005   3.097  0.1180  0.8964 -0.7248
  110MOL0     H14789   4.839   1.227   3.260 -0.0851  2.0169  0.1689
  110MOL0     H14790   4.864   1.291   3.103 -0.6315  0.6330  1.0905
  110MOL0     H14791   5.006   1.035   3.183 -1.9585  0.8446  1.4291
  110MOL0     H14792   5.027   1.131   3.033  2.2722  1.8523 -0.1862
  110MOL0     H14793   5.107   1.325   3.171  1.5452 -1.4127 -1.9848
  110MOL0     H14794   5.093   1.217   3.317 -4.0544  1.1215  0.0739
  110MOL0     H14795   5.316   1.198   3.288  0.9912 -1.6442 -0.0416
  110MOL0     H14796   5.238   1.061   3.211  2.0666  0.2025 -1.6573
  110MOL0     H14797   5.355   1.303   3.064  0.1470 -1.2024  1.2388
  110MOL0     H14798   5.265   1.160   2.999 -1.0459 -0.7051  0.5097
  110MOL0     H14799   5.440   1.026   3.098  1.7883  0.0114  2.4204
  110MOL0     H14800   5.516   1.139   2.979 -2.1269  1.9026 -0.7117
  110MOL0     H14801   5.703   1.250   3.008 -2.3254  0.9361  0.0893
  110MOL0     H14802   5.921   1.345   3.105 -0.4999  0.2897  0.8900
  110MOL0     H14803   5.909   1.398   3.277  0.1501 -0.8661 -0.3194
  110MOL0     H14804   5.971   1.183   3.360  2.1355 -0.0929  0.7318
  110MOL0     H14805   5.987   1.120   3.194 -1.8695  0.5333  1.2289
  110MOL0     H14806   6.180   1.240   3.363 -0.9778  1.8856  0.8292
  110MOL0     H14807   6.148   1.358   3.239  0.0461 -0.4004  2.1146
  110MOL0     H14808   6.326   1.232   3.144 -0.6814  0.7007 -0.3990
  110MOL0     H14809   6.184   1.163   3.068 -1.6821  1.5300  1.0444
  110MOL0     H14810   6.341   0.806   3.255  1.0925 -1.1462  0.6896
  110MOL0     H14811   6.551   0.740   3.349  0.7142  1.1513  0.1935
  110MOL0     H14812   6.897   0.801   3.778 -1.3918  0.4296 -0.8876
  110MOL0     H14813   7.136   0.718   3.796  2.7004  3.1188 -1.2252
  110MOL0     H14814   7.335   0.550   3.805 -0.2182 -0.9504  0.8641
  110MOL0     H14815   7.202   0.450   3.746  1.2392 -0.1515  1.4540
  110MOL0     H14816   7.392   0.326   3.762  1.4700  1.5037  1.2936
  110MOL0     H14817   7.365   0.339   3.589  2.2992 -3.1807  1.1377
  110MOL0     H14818   7.549   0.474   3.561 -3.2746  2.4380 -0.8742
  110MOL0     H14819   7.556   0.509   3.741 -0.4809 -2.2557  0.5639
  110MOL0     H14820   7.606   0.238   3.623  3.9660 -0.7391 -1.7218
  110MOL0     H14821   7.622   0.283   3.791  2.9651 -0.4514  0.2939
  110MOL0     H14822   7.809   0.447   3.725 -2.6722  0.8466  0.3400
  110MOL0     H14823   7.783   0.393   3.559 -4.2323 -0.1550 -0.5784
  110MOL0     H14824   7.883   0.224   3.796 -1.2630 -0.5933  0.2842
  110MOL0     H14825   7.827   0.152   3.643  0.6374 -0.5425  0.6120
  110MOL0     H14826   8.046   0.365   3.673 -0.6838 -0.6223  0.4387
  110MOL0     H14827   8.000   0.282   3.528  3.9217 -1.2787  0.0745
  110MOL0     H14828   8.213   0.215   3.630 -1.5944  3.1681 -3.3838
  110MOL0     H14829   8.114   0.132   3.761 -0.5700 -0.3671 -0.8370
  110MOL0     H14830   7.121   0.570   3.391  0.7909  1.9137 -0.3736
  110MOL0     H14831   6.884   0.622   3.373 -1.9549  1.5533 -0.4214
  110MOL0     H14832   6.604   1.140   3.498 -0.5136 -0.0598 -1.0901
  110MOL0     H14833   6.402   1.215   3.366 -0.4603  0.6565 -0.3047
  110MOL0     H14834   4.415   0.829   2.951  0.0132 -1.0120  1.8062
  110MOL0     H14835   4.163   0.800   2.979  1.2489 -1.0484  0.7386
  110MOL0     H14836   3.822   0.935   3.290  1.1072  1.0443 -1.1243
  110MOL0     H14837   3.604   0.939   3.371 -2.8907 -1.6398  0.6762
  110MOL0     H14838   3.386   1.005   3.394  1.1834 -0.0041 -1.7173
  110MOL0     H14839   3.368   0.833   3.410  0.4927 -0.4580 -1.0757
  110MOL0     H14840   3.128   0.835   3.340 -3.2327  1.7394 -0.6732
  110MOL0     H14841   3.149   0.995   3.273  1.4043  0.7797  1.2093
  110MOL0     H14842   3.196   1.017   3.539  0.1965  1.2796 -2.0638
  110MOL0     H14843   3.077   0.887   3.546 -1.9677  0.1176 -0.1061
  110MOL0     H14844   2.953   1.094   3.552 -2.2802 -3.7533 -0.0446
  110MOL0     H14845   3.033   1.148   3.394 -0.8938  1.2501  1.3716
  110MOL0     H14846   2.743   0.940   3.225  2.3017  0.0963 -2.6467
  110MOL0     H14847   3.438   0.824   2.999  0.2365  1.3181 -0.4269
  110MOL0     H14848   3.759   0.744   2.841  3.8702  3.1749  2.0475
  110MOL0     H14849   3.579   0.804   2.807  0.3251 -0.9099 -1.8402
  110MOL0     H14850   3.708   0.915   2.813 -0.8554  1.4070  3.3668
  111MOL0     O14851   4.501   0.891  10.702 -0.4091  0.4070 -0.1086
  111MOL0     C14852   4.457   0.795  10.638 -0.3469  0.2079  0.1092
  111MOL0     O14853   4.537   0.695  10.587 -0.0017  0.4737  0.1722
  111MOL0     C14854   4.668   0.696  10.609  0.5468  0.1176 -0.5018
  111MOL0     C14855   4.726   0.602  10.692  0.8338  0.5696  0.0079
  111MOL0     C14856   4.860   0.606  10.719 -0.1002  0.8420 -0.1225
  111MOL0     C14857   4.946   0.704  10.654  0.9664  0.8331 -0.8685
  111MOL0     O14858   5.078   0.699  10.683  0.4664 -0.2422  0.1274
  111MOL0     C14859   5.160   0.777  10.593 -0.1829 -0.4595 -0.4544
  111MOL0     C14860   5.310   0.732  10.609  0.2001  0.0663  0.3843
  111MOL0     C14861   5.385   0.759  10.746 -0.0540  0.5760 -0.3331
  111MOL0     C14862   5.498   0.662  10.768 -0.1334 -0.1497  1.1370
  111MOL0     C14863   5.582   0.673  10.897 -0.2720  0.1592  0.5661
  111MOL0     C14864   5.659   0.803  10.930 -0.3997 -0.2895 -0.1182
  111MOL0     C14865   5.762   0.831  10.822  0.8221  0.2965  0.4476
  111MOL0     C14866   5.883   0.731  10.831 -0.0912 -0.6191 -0.0543
  111MOL0     N14867   5.961   0.755  10.948  0.0141 -0.7432  0.4745
  111MOL0     C14868   6.080   0.823  10.948  0.3468  0.0176  0.0492
  111MOL0     C14869   6.113   0.842  11.085  0.8443  0.5460  0.1233
  111MOL0     C14870   6.216   0.924  11.149  0.0190  0.4595  0.9243
  111MOL0     C14871   6.334   0.839  11.149  0.2826  0.0252 -0.3862
  111MOL0     C14872   6.423   0.866  11.272  1.5748 -0.8868 -0.3015
  111MOL0     C14873   6.561   0.812  11.253  0.3509 -0.4280  0.4360
  111MOL0     O14874   6.644   0.894  11.166  0.1992 -0.3048 -0.1725
  111MOL0     C14875   6.779   0.860  11.156  0.8533 -1.0886 -0.8305
  111MOL0     C14876   6.838   0.770  11.239 -0.0388 -1.1533  0.8605
  111MOL0     C14877   6.975   0.752  11.231  1.3706 -0.3510  0.4332
  111MOL0     C14878   7.059   0.809  11.130  0.3031  0.3493  0.9427
  111MOL0     C14879   7.198   0.763  11.118 -0.6650 -0.8844  0.1293
  111MOL0     O14880   7.275   0.807  11.011  0.0427 -0.8820 -0.2356
  111MOL0     C14881   7.375   0.726  10.969 -0.9381  0.5385 -0.9285
  111MOL0     C14882   7.372   0.580  10.976 -0.1088 -0.0023  1.2547
  111MOL0     C14883   7.488   0.510  10.942 -0.0925 -0.5605 -0.4022
  111MOL0     C14884   7.612   0.575  10.917  0.0867  0.2854 -0.1759
  111MOL0     O14885   7.731   0.516  10.890  0.5612  0.2600 -0.0548
  111MOL0     C14886   7.717   0.379  10.840  0.3225 -0.1161 -0.8387
  111MOL0     C14887   7.857   0.323  10.808  0.9666 -0.2248 -0.2367
  111MOL0     C14888   7.859   0.182  10.741 -0.3908  0.6114 -0.9110
  111MOL0     C14889   7.792   0.167  10.603 -0.7471 -0.4051 -0.2792
  111MOL0     C14890   7.828   0.028  10.546  0.2753 -0.5600  0.2662
  111MOL0     C14891   7.777   0.009  10.402 -0.1220 -0.2356 -0.1975
  111MOL0     C14892   7.874   0.069  10.298  0.9651 -0.3425 -0.1226
  111MOL0     C14893   7.808   0.091  10.163 -0.2159  0.0703 -1.1519
  111MOL0    Cl14894   7.908   0.220  10.083  0.3937  0.3515  0.5493
  111MOL0     C14895   7.609   0.714  10.915 -0.6583  0.2436  0.1935
  111MOL0     C14896   7.498   0.794  10.939 -0.3151  0.3137 -0.6612
  111MOL0     O14897   7.240   0.698  11.212 -0.1686  0.2150 -0.2647
  111MOL0     C14898   6.995   0.897  11.040 -0.9474 -0.3260 -0.3685
  111MOL0     C14899   6.860   0.918  11.051 -0.4354  0.4137 -0.2929
  111MOL0     N14900   6.008   0.778  11.156  0.0270  0.7537 -0.4937
  111MOL0     N14901   5.928   0.727  11.072 -0.4684 -0.0616  0.0560
  111MOL0     C14902   4.884   0.801  10.581 -0.2276 -0.2671  0.0855
  111MOL0     C14903   4.748   0.793  10.555 -0.7614 -0.3947 -0.2871
  111MOL0     C14904   4.310   0.783  10.609  0.0008  0.3465 -0.7056
  111MOL0     C14905   4.275   0.684  10.515  0.6254  0.6265 -0.4498
  111MOL0     C14906   4.140   0.659  10.490  0.3682  0.7449  1.2081
  111MOL0     C14907   4.041   0.744  10.530 -0.5519  0.6342 -0.9423
  111MOL0     O14908   3.909   0.740  10.496  0.0343 -0.0529  0.1293
  111MOL0     C14909   3.855   0.618  10.445  0.5635 -0.4459  0.5013
  111MOL0     C14910   3.875   0.625  10.286 -0.3106  0.3051 -0.3163
  111MOL0     C14911   3.804   0.750  10.235 -0.1805 -0.3654  0.5037
  111MOL0     C14912   3.778   0.737  10.083 -0.6501 -0.0186 -0.2680
  111MOL0     C14913   3.678   0.833  10.033  0.1119  0.5506  0.5999
  111MOL0     C14914   3.595   0.899   9.984  0.2637 -0.1943 -0.1280
  111MOL0     C14915   4.083   0.854  10.609 -0.5799 -1.4175  0.6848
  111MOL0     C14916   4.214   0.876  10.650 -0.5005 -0.1208 -0.1497
  111MOL0     C14917   4.243   1.005  10.720  0.3335 -0.0470 -0.2877
  111MOL0     H14918   4.666   0.521  10.733  0.6681 -0.5776 -2.3159
  111MOL0     H14919   4.914   0.535  10.782  2.4728  1.5643 -1.3566
  111MOL0     H14920   5.132   0.763  10.488  2.7464  1.5638 -1.6243
  111MOL0     H14921   5.149   0.884  10.611 -0.4377 -0.6964  0.8886
  111MOL0     H14922   5.367   0.774  10.525  1.3502 -2.4825 -0.2171
  111MOL0     H14923   5.315   0.625  10.586 -0.5002 -0.1560  1.2082
  111MOL0     H14924   5.326   0.749  10.838  3.2415 -0.7962  1.8157
  111MOL0     H14925   5.427   0.860  10.740  1.1199  0.2569  1.5652
  111MOL0     H14926   5.450   0.564  10.773 -0.8147 -0.0003 -1.1784
  111MOL0     H14927   5.565   0.660  10.682 -0.1308  1.3673  1.0803
  111MOL0     H14928   5.517   0.646  10.980 -1.1798  1.2061  0.2288
  111MOL0     H14929   5.646   0.586  10.886 -0.1146  0.4659 -1.2368
  111MOL0     H14930   5.589   0.887  10.929 -1.6979 -1.2443  2.2621
  111MOL0     H14931   5.703   0.792  11.029 -2.2578  2.2264  1.0958
  111MOL0     H14932   5.793   0.933  10.847  1.4566 -0.0858  1.2576
  111MOL0     H14933   5.710   0.833  10.725  1.1128  0.6373  0.2941
  111MOL0     H14934   5.852   0.626  10.831  0.9604 -0.9385 -0.4286
  111MOL0     H14935   5.948   0.733  10.743  0.8259  0.7422  0.6101
  111MOL0     H14936   6.129   0.869  10.863  1.6146  1.5244  1.5200
  111MOL0     H14937   6.232   1.009  11.083 -0.6501  0.6286  0.9733
  111MOL0     H14938   6.195   0.963  11.249  2.9986  3.7859  0.4512
  111MOL0     H14939   6.291   0.739  11.163  0.3008  0.1947  1.0087
  111MOL0     H14940   6.387   0.833  11.053 -0.4761 -3.1811 -0.7370
  111MOL0     H14941   6.380   0.823  11.362 -0.1782  0.6309 -0.3696
  111MOL0     H14942   6.427   0.974  11.284 -1.2018 -0.9166  1.7296
  111MOL0     H14943   6.556   0.709  11.215  3.4696 -0.5702  0.1690
  111MOL0     H14944   6.611   0.810  11.350  0.1235  2.8478  0.7073
  111MOL0     H14945   6.789   0.721  11.322 -4.9040  0.6760 -0.5933
  111MOL0     H14946   7.012   0.683  11.306 -1.3565  0.3196  2.5508
  111MOL0     H14947   7.283   0.524  11.002 -1.0154  0.2206 -1.1631
  111MOL0     H14948   7.487   0.402  10.944  2.6234 -0.7351 -2.5430
  111MOL0     H14949   7.685   0.315  10.923  1.1340 -2.6116 -2.3539
  111MOL0     H14950   7.649   0.383  10.755  0.1196  0.5342 -0.6493
  111MOL0     H14951   7.905   0.388  10.734  2.5646 -0.2746  0.6934
  111MOL0     H14952   7.923   0.315  10.895  0.8672 -1.8736 -0.2806
  111MOL0     H14953   7.961   0.154  10.714 -0.7450 -1.1106 -0.5922
  111MOL0     H14954   7.817   0.107  10.809  2.0590 -3.5002 -3.5477
  111MOL0     H14955   7.837   0.240  10.536 -1.1258  0.2653  0.1844
  111MOL0     H14956   7.685   0.176  10.624 -0.1871  2.1039  2.0273
  111MOL0     H14957   7.792  -0.050  10.614 -2.9129  0.8659  0.4012
  111MOL0     H14958   7.937   0.031  10.546  0.3179  0.7449  3.0911
  111MOL0     H14959   7.778  -0.097  10.376  0.8517 -0.5179  0.8957
  111MOL0     H14960   7.673   0.037  10.381  0.2268  0.5656 -0.9230
  111MOL0     H14961   7.963   0.007  10.302  2.5950  1.8249 -0.9716
  111MOL0     H14962   7.904   0.166  10.337 -1.2704 -0.1370  1.2950
  111MOL0     H14963   7.812   0.010  10.090  0.0999 -1.7041  0.7263
  111MOL0     H14964   7.707   0.129  10.182 -0.1925 -0.1184 -0.6207
  111MOL0     H14965   7.700   0.767  10.891  0.3576 -0.7705  1.6491
  111MOL0     H14966   7.498   0.902  10.948 -0.9682  0.4486 -2.0208
  111MOL0     H14967   7.047   0.956  10.965 -1.7062  3.0986  1.5695
  111MOL0     H14968   6.805   0.980  10.981  1.5587  2.6245  0.0111
  111MOL0     H14969   4.946   0.874  10.530  2.2337 -0.9785  1.9055
  111MOL0     H14970   4.718   0.877  10.493  0.9343  0.8885  0.5563
  111MOL0     H14971   4.348   0.628  10.459  2.2086  0.3394  1.7720
  111MOL0     H14972   4.125   0.587  10.410  2.8867  0.3081  1.0431
  111MOL0     H14973   3.749   0.613  10.471 -0.0886 -0.6505 -1.9843
  111MOL0     H14974   3.907   0.530  10.484  1.0627 -0.0762  0.6834
  111MOL0     H14975   3.830   0.536  10.239  0.1447 -0.6799  1.0498
  111MOL0     H14976   3.981   0.630  10.259  0.5125 -1.6901  2.1312
  111MOL0     H14977   3.862   0.842  10.250  2.0881 -1.4586 -1.1023
  111MOL0     H14978   3.710   0.770  10.289 -0.4153 -3.2218  1.3143
  111MOL0     H14979   3.871   0.745  10.026  0.3592  3.2544  1.5582
  111MOL0     H14980   3.758   0.632  10.060  1.5790 -0.1053 -2.1287
  111MOL0     H14981   3.531   0.952   9.916  1.7761 -0.4709 -1.8442
  111MOL0     H14982   4.020   0.936  10.642 -1.5495 -1.3517 -1.2111
  111MOL0     H14983   4.326   1.063  10.678  0.4860  0.8320  1.1547
  111MOL0     H14984   4.150   1.062  10.717 -0.2036 -0.9085 -0.3640
  111MOL0     H14985   4.262   0.992  10.827 -0.3737  0.4070 -0.1026
  112MOL0     O14986   1.535   9.214   2.798 -0.0851  0.1651 -0.3971
  112MOL0     C14987   1.537   9.108   2.862  0.6405 -0.5799 -0.3252
  112MOL0     O14988   1.639   9.062   2.932 -0.0452  0.4636 -0.0879
  112MOL0     C14989   1.760   9.122   2.915 -0.0728  0.2500 -0.7632
  112MOL0     C14990   1.813   9.165   2.790  0.5830 -0.0187 -0.6194
  112MOL0     C14991   1.931   9.227   2.769 -0.1066  0.4547 -1.2189
  112MOL0     C14992   2.020   9.240   2.883  0.4934  0.2925  0.2582
  112MOL0     O14993   2.143   9.295   2.887 -0.5321  0.3824 -0.1379
  112MOL0     C14994   2.189   9.370   2.767 -0.0528  0.4712 -1.1891
  112MOL0     C14995   2.310   9.459   2.798  0.5934 -0.1059  0.2569
  112MOL0     C14996   2.383   9.500   2.671  0.1660  0.1701  0.6303
  112MOL0     C14997   2.493   9.604   2.717  0.6147 -0.1876 -0.3102
  112MOL0     C14998   2.617   9.606   2.627  0.8010 -0.2294 -0.2883
  112MOL0     C14999   2.579   9.651   2.485  0.2201  0.1844  0.7375
  112MOL0     C15000   2.714   9.640   2.410 -0.2857 -0.4075  0.6427
  112MOL0     C15001   2.689   9.668   2.264  0.2954  0.1600 -0.6467
  112MOL0     N15002   2.808   9.641   2.189  0.5248  0.0178 -0.2211
  112MOL0     C15003   2.824   9.534   2.109  0.0409 -0.5150  0.2933
  112MOL0     C15004   2.947   9.549   2.055  0.1532  0.2531 -0.6206
  112MOL0     C15005   3.011   9.459   1.951  0.1801  0.2492 -1.0477
  112MOL0     C15006   3.166   9.457   1.950  0.2180 -0.3023 -0.4848
  112MOL0     C15007   3.214   9.370   1.843  0.3081  0.4889 -0.2714
  112MOL0     C15008   3.362   9.375   1.821  0.3185  0.2816 -0.8004
  112MOL0     O15009   3.379   9.490   1.736 -0.0508 -0.3280 -0.1321
  112MOL0     C15010   3.505   9.532   1.701 -0.4873  0.7995  0.0333
  112MOL0     C15011   3.532   9.664   1.716  0.6100 -0.5490 -0.8387
  112MOL0     C15012   3.666   9.715   1.672  1.4067 -0.0647  0.3744
  112MOL0     C15013   3.759   9.629   1.630 -0.5210 -0.2164 -0.0151
  112MOL0     C15014   3.905   9.682   1.600  0.4651  0.0217 -0.1661
  112MOL0     O15015   3.990   9.589   1.577  0.0180  0.1535  0.0720
  112MOL0     C15016   4.118   9.612   1.531  0.0990 -0.0525  0.2386
  112MOL0     C15017   4.172   9.735   1.492 -0.3008 -0.3066  0.5287
  112MOL0     C15018   4.308   9.745   1.452  0.8851 -0.2350 -0.2205
  112MOL0     C15019   4.390   9.630   1.464 -0.3071  0.4124  0.3521
  112MOL0     O15020   4.526   9.655   1.446  0.1351  0.4654 -0.3458
  112MOL0     C15021   4.614   9.541   1.446  0.4721 -0.3183 -0.5113
  112MOL0     C15022   4.752   9.593   1.443  0.7069  0.2864  0.3047
  112MOL0     C15023   4.861   9.486   1.457 -0.0367 -0.5544 -0.4946
  112MOL0     C15024   4.973   9.493   1.354  0.5250  0.1501 -0.7501
  112MOL0     C15025   5.077   9.381   1.379 -0.0663 -0.3030  0.0003
  112MOL0     C15026   5.197   9.410   1.291  0.1290  0.0501 -0.0902
  112MOL0     C15027   5.319   9.317   1.322  0.4646 -0.1240  0.5154
  112MOL0     C15028   5.460   9.372   1.265  0.6443  0.0050  0.8613
  112MOL0    Cl15029   5.530   9.516   1.348  0.4228 -0.5134 -0.1438
  112MOL0     C15030   4.332   9.504   1.490  0.1348 -0.3201 -0.2126
  112MOL0     C15031   4.197   9.501   1.519 -0.0415  0.0928 -0.0954
  112MOL0     O15032   3.928   9.805   1.610  0.2369 -0.4221 -0.3010
  112MOL0     C15033   3.733   9.498   1.609 -0.7352 -0.5911  0.1638
  112MOL0     C15034   3.608   9.454   1.638  0.0027  0.2936 -1.1148
  112MOL0     N15035   2.999   9.661   2.108  0.1992  0.0454  0.4874
  112MOL0     N15036   2.911   9.724   2.178 -0.0870 -0.5639  0.0531
  112MOL0     C15037   1.978   9.186   3.004  0.4787 -0.4054 -0.1881
  112MOL0     C15038   1.845   9.130   3.026 -0.6135 -0.3515 -0.6257
  112MOL0     C15039   1.423   9.024   2.836  0.2009 -0.4039 -0.1079
  112MOL0     C15040   1.321   9.021   2.932  0.2659  0.0989 -0.7656
  112MOL0     C15041   1.205   8.951   2.915  0.5625  0.0647  0.6202
  112MOL0     C15042   1.195   8.867   2.803 -0.4990 -0.4788 -0.0646
  112MOL0     O15043   1.079   8.788   2.804 -0.1972  0.1472 -0.3237
  112MOL0     C15044   1.076   8.663   2.732  0.1297 -1.1480  0.1718
  112MOL0     C15045   0.953   8.580   2.753  0.1488  1.1760 -0.1971
  112MOL0     C15046   0.829   8.653   2.720  0.5494  1.4654 -0.0671
  112MOL0     C15047   0.691   8.581   2.742  0.5581  0.0872 -0.5135
  112MOL0     C15048   0.651   8.570   2.887 -0.2592 -0.8534  0.8798
  112MOL0     C15049   0.606   8.558   2.999 -0.3677 -0.6152  0.3361
  112MOL0     C15050   1.291   8.866   2.702 -0.6902 -0.3850 -0.4209
  112MOL0     C15051   1.412   8.944   2.721 -0.4848  0.5604 -0.5571
  112MOL0     C15052   1.514   8.934   2.607  0.0228 -0.2753 -0.3687
  112MOL0     H15053   1.744   9.137   2.710  1.9689  0.4191 -2.0166
  112MOL0     H15054   1.970   9.258   2.672 -0.7827 -0.2029 -1.7127
  112MOL0     H15055   2.231   9.299   2.695  3.4494  1.2599 -0.0875
  112MOL0     H15056   2.103   9.431   2.736 -3.3460 -1.6739  2.7772
  112MOL0     H15057   2.381   9.402   2.858  3.6586  1.2477 -1.8288
  112MOL0     H15058   2.282   9.542   2.864  1.0216  1.6290 -1.6619
  112MOL0     H15059   2.321   9.523   2.584 -0.5279 -2.5036  0.3229
  112MOL0     H15060   2.441   9.420   2.623  1.0749  0.1608  1.6955
  112MOL0     H15061   2.441   9.700   2.727 -1.9714 -1.4303 -1.0487
  112MOL0     H15062   2.526   9.587   2.820 -1.2603  6.7483  2.0346
  112MOL0     H15063   2.694   9.663   2.680 -1.4125 -0.7374  3.8960
  112MOL0     H15064   2.635   9.498   2.620 -1.5489 -0.6349 -0.7964
  112MOL0     H15065   2.510   9.572   2.452  0.9882 -0.4327  0.5720
  112MOL0     H15066   2.533   9.749   2.471  1.1922  0.6512  0.7243
  112MOL0     H15067   2.763   9.545   2.431 -2.5993 -1.6602  0.6518
  112MOL0     H15068   2.788   9.716   2.437  0.4600  0.0570 -2.3556
  112MOL0     H15069   2.603   9.610   2.230  1.3068 -1.0920 -1.1190
  112MOL0     H15070   2.656   9.772   2.255 -2.0819 -0.5317 -0.6552
  112MOL0     H15071   2.746   9.461   2.088 -2.5561  1.9886  0.6178
  112MOL0     H15072   2.976   9.359   1.976 -1.3025  0.8488 -0.5954
  112MOL0     H15073   2.990   9.504   1.853  1.9857  4.1558  0.1524
  112MOL0     H15074   3.194   9.560   1.923 -1.2321  0.1283 -0.4661
  112MOL0     H15075   3.198   9.444   2.054 -0.0671  1.3000 -0.1585
  112MOL0     H15076   3.161   9.401   1.752 -0.0935 -0.4380 -0.3659
  112MOL0     H15077   3.184   9.270   1.876  0.0088  1.5728  3.0459
  112MOL0     H15078   3.393   9.286   1.766 -0.9664 -2.2449  2.2216
  112MOL0     H15079   3.416   9.379   1.917 -0.5405 -5.0705  0.2080
  112MOL0     H15080   3.452   9.725   1.757  0.9784  0.5142 -1.6670
  112MOL0     H15081   3.677   9.823   1.677 -0.1751  0.0882  1.1581
  112MOL0     H15082   4.120   9.829   1.478 -1.0489 -0.7425  0.2797
  112MOL0     H15083   4.346   9.845   1.432  1.2812 -0.2508  0.3976
  112MOL0     H15084   4.607   9.495   1.545  0.4196  0.3662 -0.1985
  112MOL0     H15085   4.589   9.471   1.365  1.0465  0.2727 -1.2188
  112MOL0     H15086   4.760   9.648   1.349 -0.9111  1.1011  0.6124
  112MOL0     H15087   4.768   9.665   1.523  4.4413 -0.0415  0.0329
  112MOL0     H15088   4.912   9.497   1.553  0.1305  0.7457 -0.7205
  112MOL0     H15089   4.821   9.384   1.456  1.1381 -1.0386 -1.8582
  112MOL0     H15090   5.031   9.586   1.362  4.6479 -2.2775  0.3413
  112MOL0     H15091   4.934   9.497   1.252 -0.7605  0.2587 -0.2670
  112MOL0     H15092   5.025   9.286   1.362 -3.9154  1.3077  1.5970
  112MOL0     H15093   5.101   9.389   1.485 -2.8103  0.9389  0.6254
  112MOL0     H15094   5.165   9.398   1.187 -1.2664  1.5134  0.1312
  112MOL0     H15095   5.228   9.514   1.304  2.5938 -0.8864  2.9015
  112MOL0     H15096   5.284   9.220   1.285 -0.8921  0.2426  0.8094
  112MOL0     H15097   5.333   9.312   1.430  2.1261 -0.4194  0.3220
  112MOL0     H15098   5.529   9.292   1.294 -0.1705 -0.6246  1.0732
  112MOL0     H15099   5.462   9.378   1.156  0.6741  0.0353  0.8634
  112MOL0     H15100   4.390   9.413   1.492 -0.4994 -0.7930 -1.7959
  112MOL0     H15101   4.143   9.410   1.543  0.0553  0.0972  0.1362
  112MOL0     H15102   3.801   9.428   1.562 -0.4427 -0.2169  0.0204
  112MOL0     H15103   3.583   9.350   1.623 -1.6555  0.7694 -1.8614
  112MOL0     H15104   2.063   9.182   3.073 -0.0426 -2.4478  0.4071
  112MOL0     H15105   1.816   9.088   3.121 -0.7201 -0.0481 -0.5245
  112MOL0     H15106   1.331   9.085   3.019 -2.3357  1.7215 -1.5296
  112MOL0     H15107   1.120   8.952   2.983 -0.5631  0.6016 -0.7215
  112MOL0     H15108   1.159   8.596   2.760  1.9948 -0.3759 -2.9988
  112MOL0     H15109   1.085   8.692   2.627 -0.6628 -0.5526  0.2622
  112MOL0     H15110   0.957   8.553   2.859 -1.4049 -1.3068 -0.6888
  112MOL0     H15111   0.960   8.492   2.689 -1.1085  1.8100 -1.2479
  112MOL0     H15112   0.838   8.667   2.612  0.3546  2.6664  0.0623
  112MOL0     H15113   0.826   8.749   2.772 -2.1046 -0.0767  3.0007
  112MOL0     H15114   0.619   8.650   2.699 -2.3397 -0.3161  3.2059
  112MOL0     H15115   0.683   8.484   2.692 -0.5931 -0.4749  0.7041
  112MOL0     H15116   0.558   8.572   3.094  3.1976  0.8623  2.1374
  112MOL0     H15117   1.291   8.803   2.614 -0.0522 -0.0795 -0.6411
  112MOL0     H15118   1.536   9.034   2.569  2.3731 -1.3013 -2.0122
  112MOL0     H15119   1.609   8.896   2.646  0.2211 -1.3801 -1.8323
  112MOL0     H15120   1.482   8.864   2.530  1.8580 -1.8205  0.1891
  113MOL0     O15121   2.656  10.096   9.469 -0.2448  0.0698  0.2302
  113MOL0     C15122   2.659  10.038   9.362  0.2373  0.5474 -0.4618
  113MOL0     O15123   2.770   9.981   9.298  0.4782  0.7105  0.0671
  113MOL0     C15124   2.898  10.008   9.326  0.4798  0.3340  0.3880
  113MOL0     C15125   2.996   9.911   9.303  0.1083  0.2168 -0.3978
  113MOL0     C15126   3.137   9.944   9.315  0.2839  0.1917 -0.3895
  113MOL0     C15127   3.183  10.059   9.378 -0.8594  0.1573 -0.3951
  113MOL0     O15128   3.316  10.082   9.402  0.1875 -0.7821 -0.3504
  113MOL0     C15129   3.405  10.034   9.297 -0.0356 -0.2268  0.0046
  113MOL0     C15130   3.551  10.059   9.334 -0.1026  0.1960  0.6900
  113MOL0     C15131   3.645   9.997   9.224  0.2137 -0.3487  0.3818
  113MOL0     C15132   3.688  10.103   9.120  0.3467 -0.3129 -0.3418
  113MOL0     C15133   3.808  10.053   9.041  0.3652  0.0532 -0.3044
  113MOL0     C15134   3.774   9.926   8.958 -0.1151  0.2614  0.2491
  113MOL0     C15135   3.879   9.895   8.849  0.2386 -0.2811 -0.6733
  113MOL0     C15136   3.854   9.752   8.794 -0.4682 -0.3184  0.4430
  113MOL0     N15137   3.952   9.699   8.697 -0.2501 -0.7991 -0.7940
  113MOL0     C15138   4.027   9.773   8.609 -0.0416  1.2232 -0.5955
  113MOL0     C15139   4.094   9.689   8.533  0.3229  0.8630  1.0004
  113MOL0     C15140   4.184   9.725   8.414 -0.6310 -0.4557 -0.3991
  113MOL0     C15141   4.326   9.701   8.459  0.3133 -0.2852 -0.6713
  113MOL0     C15142   4.393   9.828   8.523  0.1442 -0.1476 -0.9162
  113MOL0     C15143   4.544   9.815   8.525  0.4342  0.5594 -0.0971
  113MOL0     O15144   4.605   9.945   8.538 -0.6382 -0.0459  0.3718
  113MOL0     C15145   4.737   9.963   8.509 -0.7747 -0.1007 -0.0086
  113MOL0     C15146   4.827   9.850   8.504  0.0502 -0.7722  0.3091
  113MOL0     C15147   4.961   9.878   8.467  0.3200  0.5431  0.7067
  113MOL0     C15148   5.015  10.004   8.470  0.0722  0.0913  0.3669
  113MOL0     C15149   5.161  10.044   8.473  0.1447 -0.2168  0.8718
  113MOL0     O15150   5.254   9.934   8.483 -0.0455 -0.1023  0.1730
  113MOL0     C15151   5.386   9.959   8.497  0.3261 -0.1621  0.0564
  113MOL0     C15152   5.466   9.847   8.467  0.2029 -0.9929 -0.4183
  113MOL0     C15153   5.606   9.861   8.491 -0.1573 -0.2681 -0.5445
  113MOL0     C15154   5.665   9.978   8.551 -1.1789  0.4309  0.0143
  113MOL0     O15155   5.799   9.984   8.595 -1.2183  0.2141  0.3662
  113MOL0     C15156   5.858   9.852   8.623 -1.1082  0.3639  0.1932
  113MOL0     C15157   5.975   9.876   8.731  0.2574  0.2347  0.0233
  113MOL0     C15158   6.083   9.972   8.687 -0.0108 -0.4343 -0.2366
  113MOL0     C15159   6.172   9.992   8.805 -0.8048  0.0748 -0.2066
  113MOL0     C15160   6.293  10.081   8.782  0.4174  0.0189 -0.0392
  113MOL0     C15161   6.382  10.001   8.697 -0.3709 -0.7922 -0.0831
  113MOL0     C15162   6.497  10.088   8.652 -0.2251 -0.9621 -0.4288
  113MOL0     C15163   6.600  10.013   8.554  1.1480 -0.5945 -0.7676
  113MOL0    Cl15164   6.758  10.097   8.530 -0.2518 -0.1626  0.3564
  113MOL0     C15165   5.581  10.085   8.575  1.0324 -0.0878 -0.8066
  113MOL0     C15166   5.447  10.069   8.549 -0.3144 -0.5163 -0.0485
  113MOL0     O15167   5.192  10.164   8.478 -0.9207  0.4771  0.2131
  113MOL0     C15168   4.923  10.106   8.486 -0.2620  0.4224 -0.1300
  113MOL0     C15169   4.785  10.089   8.498  0.1982 -0.6141  0.8305
  113MOL0     N15170   4.059   9.561   8.571  0.0313 -0.4454 -1.0453
  113MOL0     N15171   3.976   9.565   8.672  0.3293 -0.2685 -0.1574
  113MOL0     C15172   3.085  10.151   9.402  0.0212  0.5349 -0.6780
  113MOL0     C15173   2.947  10.128   9.382  0.2985  0.1145 -0.1139
  113MOL0     C15174   2.527  10.013   9.293  0.1031 -0.0155  0.4243
  113MOL0     C15175   2.520   9.904   9.208  0.4947  0.3907  0.6832
  113MOL0     C15176   2.401   9.859   9.155  0.8577  0.7379  0.3973
  113MOL0     C15177   2.280   9.921   9.190 -0.2773  0.3670 -0.4796
  113MOL0     O15178   2.158   9.884   9.139 -1.0079  0.5658  0.0401
  113MOL0     C15179   2.142   9.739   9.149 -0.1009 -0.7572 -0.3921
  113MOL0     C15180   1.990   9.735   9.153  0.0138  1.1958 -0.1492
  113MOL0     C15181   1.946   9.806   9.282  0.0850 -0.0535  0.4188
  113MOL0     C15182   1.799   9.834   9.289  0.1172 -0.2411  0.0942
  113MOL0     C15183   1.709   9.726   9.274  0.4032  0.0830  1.0851
  113MOL0     C15184   1.641   9.632   9.277 -0.5364  1.0390 -0.5232
  113MOL0     C15185   2.284  10.036   9.270  0.0937 -0.2348 -0.3193
  113MOL0     C15186   2.405  10.082   9.317  0.0176  0.2581  0.3342
  113MOL0     C15187   2.406  10.221   9.389 -0.3575  0.4381  0.1954
  113MOL0     H15188   2.965   9.815   9.263 -1.2867  0.2457  0.5821
  113MOL0     H15189   3.198   9.864   9.275  0.5060 -0.0074  0.3211
  113MOL0     H15190   3.400   9.926   9.279  1.1974  0.0205 -2.1132
  113MOL0     H15191   3.387  10.094   9.208  0.1178 -0.0270  0.1083
  113MOL0     H15192   3.571  10.012   9.431 -2.1904 -0.1371  1.0075
  113MOL0     H15193   3.571  10.166   9.346 -1.7708  0.6381 -0.1816
  113MOL0     H15194   3.578   9.922   9.181 -1.3093 -0.8448  3.3587
  113MOL0     H15195   3.730   9.952   9.276 -0.5355 -0.6414  1.3868
  113MOL0     H15196   3.606  10.127   9.053  1.6055  2.0454 -1.1489
  113MOL0     H15197   3.714  10.195   9.174 -1.9471 -1.2320  2.6450
  113MOL0     H15198   3.839  10.138   8.980 -0.9087  0.7793  0.0179
  113MOL0     H15199   3.891  10.034   9.109  0.6040 -3.2207 -1.3838
  113MOL0     H15200   3.748   9.837   9.017  1.3846 -0.6379 -0.4071
  113MOL0     H15201   3.685   9.940   8.896  0.9931 -0.7006 -1.6211
  113MOL0     H15202   3.980   9.889   8.890 -0.3123  0.1066  0.7873
  113MOL0     H15203   3.876   9.978   8.778  1.6418  0.6002  0.2449
  113MOL0     H15204   3.851   9.686   8.882  1.4379  1.0482  1.6246
  113MOL0     H15205   3.754   9.741   8.752 -0.7398  2.8901  0.0267
  113MOL0     H15206   4.031   9.881   8.605 -1.7429  1.4408  1.3908
  113MOL0     H15207   4.150   9.664   8.330  1.2637 -3.6296  0.9888
  113MOL0     H15208   4.166   9.830   8.390  1.0119 -0.1534 -0.4124
  113MOL0     H15209   4.342   9.612   8.520 -3.0402 -0.0956  0.7069
  113MOL0     H15210   4.378   9.684   8.364  1.4522  1.3466 -0.3764
  113MOL0     H15211   4.361   9.842   8.627  1.5810 -1.2925 -0.2862
  113MOL0     H15212   4.370   9.917   8.463  3.5257  1.3963 -0.2022
  113MOL0     H15213   4.575   9.765   8.433  0.4554 -0.4160  0.4213
  113MOL0     H15214   4.562   9.752   8.613  0.9328 -0.3146 -0.8122
  113MOL0     H15215   4.797   9.746   8.511  2.5290 -1.8629 -2.7206
  113MOL0     H15216   5.024   9.790   8.463 -2.6223 -1.7592  1.2334
  113MOL0     H15217   5.416   9.758   8.431 -3.0730  1.0377 -1.4081
  113MOL0     H15218   5.668   9.775   8.467 -0.7577 -1.9226  3.0817
  113MOL0     H15219   5.783   9.784   8.664  0.2678 -1.9248 -0.9020
  113MOL0     H15220   5.900   9.807   8.533  4.0203  2.1341  1.3614
  113MOL0     H15221   5.936   9.907   8.828  2.5615 -1.6292  1.6687
  113MOL0     H15222   6.030   9.783   8.752 -0.6462 -0.3871 -0.3222
  113MOL0     H15223   6.126   9.920   8.600 -3.8414 -1.6505 -1.5932
  113MOL0     H15224   6.040  10.066   8.650 -0.8020 -0.8222 -0.3107
  113MOL0     H15225   6.208   9.898   8.847 -0.8248  0.8409  1.5815
  113MOL0     H15226   6.113  10.038   8.884 -1.6591  1.6113 -1.6770
  113MOL0     H15227   6.333  10.096   8.883 -3.0696 -2.5384  1.9290
  113MOL0     H15228   6.263  10.179   8.744 -1.4949 -0.1481  0.9037
  113MOL0     H15229   6.415   9.905   8.739  0.2738  0.1484  1.6667
  113MOL0     H15230   6.337   9.969   8.603  0.5055 -0.2268 -0.7065
  113MOL0     H15231   6.555  10.124   8.737  2.7914 -0.8148 -2.4015
  113MOL0     H15232   6.473  10.181   8.599  6.2887  1.2328 -0.4523
  113MOL0     H15233   6.614   9.910   8.587 -2.4132 -1.2263 -0.8516
  113MOL0     H15234   6.555   9.998   8.455  0.9403 -0.5789 -0.6763
  113MOL0     H15235   5.621  10.176   8.619 -0.7685  0.3176  0.1108
  113MOL0     H15236   5.399  10.163   8.574  2.4205  1.3915 -1.4225
  113MOL0     H15237   4.952  10.211   8.482 -1.8383  1.0105  2.0481
  113MOL0     H15238   4.712  10.169   8.507  0.0191 -0.4127 -1.6515
  113MOL0     H15239   3.113  10.247   9.442 -0.4927  0.0206  0.9675
  113MOL0     H15240   2.874  10.207   9.398  0.9484  0.8212 -0.5639
  113MOL0     H15241   2.606   9.839   9.195  0.0350 -0.0935  0.0108
  113MOL0     H15242   2.411   9.763   9.106  2.0498 -0.7206  3.2426
  113MOL0     H15243   2.173   9.694   9.243 -1.0143  1.3746  1.0168
  113MOL0     H15244   2.183   9.689   9.061  0.9413 -3.6316  1.5696
  113MOL0     H15245   1.950   9.634   9.139 -2.2141  2.1147 -0.9635
  113MOL0     H15246   1.956   9.799   9.071 -1.3442 -0.7490 -1.1706
  113MOL0     H15247   2.000   9.900   9.297 -0.1300  0.3655 -1.2586
  113MOL0     H15248   1.970   9.735   9.363 -2.4688 -0.5899  0.7903
  113MOL0     H15249   1.784   9.876   9.389 -1.8796 -0.9492  0.1338
  113MOL0     H15250   1.782   9.910   9.212  2.0365 -0.5325 -0.6792
  113MOL0     H15251   1.572   9.550   9.279 -0.9028  1.3463  0.4770
  113MOL0     H15252   2.193  10.092   9.290 -0.5540 -1.1307 -0.7181
  113MOL0     H15253   2.497  10.280   9.372 -1.5408  1.6710 -2.4350
  113MOL0     H15254   2.322  10.285   9.359  2.8277  4.3086 -1.3832
  113MOL0     H15255   2.388  10.196   9.494 -0.6409  1.0776  0.3031
  114MOL0     O15256   4.277   6.386   3.838 -0.1050  0.1745 -0.0790
  114MOL0     C15257   4.192   6.471   3.807  0.0063 -0.2953  0.5600
  114MOL0     O15258   4.227   6.595   3.756  0.0766  0.5540  0.1016
  114MOL0     C15259   4.360   6.619   3.749  1.3371  0.3580 -0.1738
  114MOL0     C15260   4.427   6.678   3.863 -0.4125  0.3722  0.6223
  114MOL0     C15261   4.565   6.704   3.851  0.3411  0.2389  0.6459
  114MOL0     C15262   4.632   6.699   3.725 -0.3582  0.5877 -0.5904
  114MOL0     O15263   4.762   6.731   3.692 -0.1686 -1.2773  0.1679
  114MOL0     C15264   4.842   6.717   3.809 -0.6615 -1.0234  0.5650
  114MOL0     C15265   4.904   6.585   3.841  0.5583  0.1437 -0.1083
  114MOL0     C15266   5.031   6.555   3.775  0.3263 -0.0928 -0.3389
  114MOL0     C15267   5.069   6.630   3.643  0.0468  0.8082  0.6895
  114MOL0     C15268   5.215   6.609   3.611 -0.3010 -0.1741  0.4932
  114MOL0     C15269   5.258   6.706   3.499  0.4646  0.1174  0.6207
  114MOL0     C15270   5.416   6.700   3.490 -0.6112 -0.6380  0.6197
  114MOL0     C15271   5.461   6.832   3.420 -0.3002 -0.0413  0.1769
  114MOL0     N15272   5.602   6.810   3.397 -0.7395  0.3075  0.1026
  114MOL0     C15273   5.675   6.759   3.289  0.2998  0.4377 -0.0113
  114MOL0     C15274   5.805   6.795   3.322 -0.0460 -0.7634  0.3431
  114MOL0     C15275   5.919   6.776   3.233  0.0615 -1.1423 -0.1056
  114MOL0     C15276   5.972   6.909   3.179 -0.3186  0.1245 -0.6730
  114MOL0     C15277   6.121   6.896   3.147 -0.4132 -0.4152  0.4566
  114MOL0     C15278   6.210   6.891   3.265  0.4434  0.5685  0.0933
  114MOL0     O15279   6.327   6.954   3.223  0.4114  0.4175 -0.2736
  114MOL0     C15280   6.443   6.931   3.295  0.4655 -0.2552  0.3941
  114MOL0     C15281   6.454   6.842   3.406  0.2535  0.1381 -0.0972
  114MOL0     C15282   6.588   6.824   3.469 -0.1100  0.2319  0.1910
  114MOL0     C15283   6.698   6.901   3.419 -0.7573  0.4574  0.0846
  114MOL0     C15284   6.829   6.898   3.495 -0.1517 -0.3139  0.1733
  114MOL0     O15285   6.939   6.939   3.436  0.2293 -0.2362  0.6467
  114MOL0     C15286   7.044   6.977   3.516 -1.3065 -0.4229  0.4271
  114MOL0     C15287   7.048   7.104   3.580  0.0013  0.6520 -0.1836
  114MOL0     C15288   7.149   7.136   3.670  0.0715  0.7851 -0.0584
  114MOL0     C15289   7.256   7.042   3.684 -0.6773 -0.0399  0.0476
  114MOL0     O15290   7.358   7.064   3.774 -0.0557 -0.8436  0.8896
  114MOL0     C15291   7.310   7.113   3.901  0.1786  0.3184 -0.1642
  114MOL0     C15292   7.431   7.103   3.990 -0.0900  1.2876  0.0227
  114MOL0     C15293   7.461   6.966   4.043  0.4250 -0.6726 -0.2342
  114MOL0     C15294   7.615   6.977   4.082 -0.4057 -0.0005 -0.5855
  114MOL0     C15295   7.689   6.843   4.108 -0.6193 -0.0518 -0.5270
  114MOL0     C15296   7.838   6.850   4.122  0.1635 -0.3153 -0.4584
  114MOL0     C15297   7.913   6.716   4.150  0.4630 -0.0102 -0.0099
  114MOL0     C15298   8.060   6.749   4.174 -0.0374  0.4509 -1.3422
  114MOL0    Cl15299   8.140   6.838   4.042 -0.6132  0.5962  0.6747
  114MOL0     C15300   7.268   6.925   3.610  0.0386  0.3726  0.8231
  114MOL0     C15301   7.156   6.891   3.524 -0.0361 -0.2796 -0.2027
  114MOL0     O15302   6.823   6.863   3.612  0.1151 -0.1376  0.5274
  114MOL0     C15303   6.682   6.987   3.310  0.1135 -0.1019 -0.6613
  114MOL0     C15304   6.551   7.008   3.251 -0.0391 -0.1435 -1.0140
  114MOL0     N15305   5.809   6.870   3.438  0.0090 -0.5374 -0.4413
  114MOL0     N15306   5.694   6.865   3.490 -1.0933 -0.2469  0.0223
  114MOL0     C15307   4.558   6.643   3.617 -0.1763 -0.1410 -0.3750
  114MOL0     C15308   4.427   6.607   3.631 -0.4845  0.4394 -0.5144
  114MOL0     C15309   4.048   6.431   3.817  0.2104  0.6306 -0.4443
  114MOL0     C15310   4.007   6.297   3.841  0.1200  0.2463 -0.1719
  114MOL0     C15311   3.874   6.253   3.872 -0.0775 -0.4182  0.6055
  114MOL0     C15312   3.766   6.344   3.866 -0.0140  0.6450  0.2514
  114MOL0     O15313   3.641   6.292   3.895  0.6131 -0.7616  0.5687
  114MOL0     C15314   3.528   6.384   3.909 -0.7804  1.1535  0.6804
  114MOL0     C15315   3.399   6.289   3.930  0.1991 -0.7070  0.4568
  114MOL0     C15316   3.407   6.211   4.062  0.7118 -0.6868 -0.6492
  114MOL0     C15317   3.283   6.115   4.086  0.0532  0.1167  0.1681
  114MOL0     C15318   3.156   6.187   4.090  0.7711  0.0990 -0.4080
  114MOL0     C15319   3.067   6.270   4.092  0.4757  0.1059  0.4161
  114MOL0     C15320   3.800   6.477   3.833 -0.6670 -0.5577 -0.0217
  114MOL0     C15321   3.942   6.525   3.817 -0.0089 -0.2312 -0.5495
  114MOL0     C15322   3.952   6.676   3.816 -0.3811 -0.7329 -0.4609
  114MOL0     H15323   4.358   6.696   3.945 -1.9130 -1.9854 -0.0275
  114MOL0     H15324   4.603   6.759   3.937 -1.5215 -0.2203  1.8315
  114MOL0     H15325   4.923   6.789   3.793 -1.6828 -0.0824 -0.6147
  114MOL0     H15326   4.796   6.766   3.896  0.0670 -1.5430  1.2605
  114MOL0     H15327   4.835   6.510   3.801  0.0330  0.0489  0.9426
  114MOL0     H15328   4.908   6.564   3.949  1.2814  2.4224  0.3579
  114MOL0     H15329   5.046   6.447   3.763 -1.3315 -0.1947 -1.9862
  114MOL0     H15330   5.113   6.591   3.837  1.4654 -0.6192 -1.4879
  114MOL0     H15331   5.005   6.601   3.559  0.3920 -0.8491  0.9639
  114MOL0     H15332   5.058   6.737   3.663  0.6352  1.1668 -0.7568
  114MOL0     H15333   5.279   6.630   3.697  2.2174  1.5583 -1.6487
  114MOL0     H15334   5.235   6.503   3.592 -1.7603 -1.4393  4.8754
  114MOL0     H15335   5.218   6.683   3.400 -0.0075  1.2953  0.5210
  114MOL0     H15336   5.229   6.805   3.534 -2.6870 -0.4709 -0.0520
  114MOL0     H15337   5.441   6.619   3.420 -0.8040 -0.5783  0.4806
  114MOL0     H15338   5.460   6.687   3.589 -1.6273  0.3330  1.2173
  114MOL0     H15339   5.396   6.858   3.335 -0.2913  2.2035  0.7889
  114MOL0     H15340   5.466   6.917   3.488  2.0861 -1.3791  1.8094
  114MOL0     H15341   5.642   6.697   3.206 -0.3134 -0.3798  0.8110
  114MOL0     H15342   5.994   6.716   3.284  2.6877 -0.8456 -3.2918
  114MOL0     H15343   5.887   6.717   3.147  2.1326 -3.3094  0.5249
  114MOL0     H15344   5.923   6.933   3.084  1.0912 -3.1911 -2.3777
  114MOL0     H15345   5.960   6.993   3.247  0.5884 -0.4976  0.2825
  114MOL0     H15346   6.149   6.983   3.087  0.5990  1.0680  2.9299
  114MOL0     H15347   6.125   6.809   3.081 -1.8220 -0.5700  0.5517
  114MOL0     H15348   6.222   6.787   3.297 -2.8567 -0.2510 -0.9930
  114MOL0     H15349   6.165   6.951   3.346  0.3286 -0.5255  0.8600
  114MOL0     H15350   6.373   6.794   3.460 -1.1208  2.6327  0.1788
  114MOL0     H15351   6.610   6.754   3.549 -0.1169  0.9358  0.8143
  114MOL0     H15352   6.969   7.177   3.564  2.7540  4.2659  1.4633
  114MOL0     H15353   7.131   7.230   3.722 -2.4227  0.3649 -0.0703
  114MOL0     H15354   7.280   7.217   3.911 -1.1185 -0.1788  1.4841
  114MOL0     H15355   7.233   7.051   3.948  2.3448 -0.5544  2.5078
  114MOL0     H15356   7.522   7.129   3.934  0.4595  1.0454  0.7759
  114MOL0     H15357   7.423   7.170   4.076 -1.3843 -0.7404  1.5434
  114MOL0     H15358   7.393   6.948   4.126  1.5410 -0.3136  0.7876
  114MOL0     H15359   7.463   6.886   3.968  2.1924 -1.6860  0.8270
  114MOL0     H15360   7.615   7.029   4.178  0.3921  1.5558 -1.3980
  114MOL0     H15361   7.669   7.031   4.005 -5.3379  1.4297 -3.5196
  114MOL0     H15362   7.667   6.792   4.013  0.2296  0.8224 -1.2126
  114MOL0     H15363   7.655   6.786   4.195 -0.4861  1.4359  0.5128
  114MOL0     H15364   7.878   6.900   4.034 -0.4298 -0.7624 -0.9946
  114MOL0     H15365   7.873   6.922   4.196 -0.4048  0.2717 -0.7503
  114MOL0     H15366   7.907   6.648   4.065 -0.6735  0.4736 -0.3356
  114MOL0     H15367   7.870   6.670   4.239 -0.5809 -2.0762 -1.5123
  114MOL0     H15368   8.061   6.812   4.264 -1.1292  0.3522 -1.2524
  114MOL0     H15369   8.113   6.655   4.195  0.7605  1.3551  0.9882
  114MOL0     H15370   7.356   6.864   3.629  0.1581  0.5983  1.0046
  114MOL0     H15371   7.153   6.801   3.464 -0.0786  1.0321 -2.2355
  114MOL0     H15372   6.761   7.055   3.280 -1.7233  1.9493 -1.1285
  114MOL0     H15373   6.535   7.082   3.174 -0.2663  1.9751  0.9641
  114MOL0     H15374   4.599   6.633   3.517  1.9164 -2.7678  0.6127
  114MOL0     H15375   4.372   6.556   3.553 -1.2570 -0.6405  0.6823
  114MOL0     H15376   4.080   6.218   3.857 -0.0204  0.4785  1.9165
  114MOL0     H15377   3.851   6.150   3.895 -0.3199 -0.5117 -0.0160
  114MOL0     H15378   3.513   6.443   3.818  1.7498  0.4067 -0.3071
  114MOL0     H15379   3.541   6.448   3.996 -1.2248 -0.4444  1.9791
  114MOL0     H15380   3.385   6.214   3.851 -0.0893  0.5053 -0.6856
  114MOL0     H15381   3.303   6.342   3.923 -0.2990 -1.7420 -0.9703
  114MOL0     H15382   3.417   6.279   4.147 -0.5449  0.2745 -1.2246
  114MOL0     H15383   3.499   6.152   4.062  1.5478  0.5590 -2.0607
  114MOL0     H15384   3.286   6.034   4.013  0.1493 -0.2621  0.5877
  114MOL0     H15385   3.299   6.068   4.183  0.9923 -1.6694 -0.8061
  114MOL0     H15386   2.987   6.341   4.085  1.3064  1.4994  3.5392
  114MOL0     H15387   3.726   6.556   3.825  1.9448  2.3548  1.9608
  114MOL0     H15388   3.966   6.705   3.712  3.2790 -0.5704 -0.0680
  114MOL0     H15389   3.873   6.729   3.870  0.4389  0.2957 -0.2399
  114MOL0     H15390   4.043   6.698   3.873 -1.5144 -0.2606  1.2515
  115MOL0     O15391   2.154   3.153   9.552  0.5267 -0.2723 -0.1170
  115MOL0     C15392   2.043   3.177   9.605 -0.1855  0.1218 -0.1441
  115MOL0     O15393   2.023   3.279   9.696 -0.4956 -0.1850 -0.2205
  115MOL0     C15394   2.132   3.362   9.715  0.2356  0.3794 -0.1577
  115MOL0     C15395   2.172   3.451   9.615  0.3896 -0.3617 -0.7949
  115MOL0     C15396   2.267   3.552   9.648 -0.1941 -0.5510  0.7895
  115MOL0     C15397   2.309   3.579   9.774  0.0021 -0.4487 -0.3161
  115MOL0     O15398   2.371   3.689   9.824 -0.2263  0.8531  0.3074
  115MOL0     C15399   2.419   3.795   9.739 -0.3477  0.0974 -0.3557
  115MOL0     C15400   2.513   3.869   9.827  0.1668 -0.8258 -0.4004
  115MOL0     C15401   2.590   3.984   9.744  0.0541 -0.3601 -0.0985
  115MOL0     C15402   2.698   4.057   9.835  0.5784  1.3534  0.8689
  115MOL0     C15403   2.837   4.001   9.841 -0.7613  0.7093  0.1044
  115MOL0     C15404   2.941   4.107   9.907  0.0455 -0.4525 -0.0576
  115MOL0     C15405   3.079   4.032   9.905 -0.3174 -0.2484 -0.2299
  115MOL0     C15406   3.176   4.106  10.002  0.5909  0.2795 -0.1150
  115MOL0     N15407   3.311   4.056   9.975 -0.6852  0.0912  0.1954
  115MOL0     C15408   3.369   3.935  10.010  0.4974  0.4003 -0.8988
  115MOL0     C15409   3.484   3.938   9.936  0.0451  0.2970  0.0793
  115MOL0     C15410   3.584   3.822   9.914 -0.2029 -0.3332 -0.1675
  115MOL0     C15411   3.530   3.712   9.828 -0.9031 -0.3497 -0.4874
  115MOL0     C15412   3.638   3.594   9.832  0.2066  0.1732 -1.0409
  115MOL0     C15413   3.596   3.473   9.750  0.8537 -0.9247 -0.6792
  115MOL0     O15414   3.652   3.352   9.799  0.5947 -0.7654  0.2153
  115MOL0     C15415   3.703   3.270   9.701 -0.6353 -0.9081  0.3631
  115MOL0     C15416   3.631   3.237   9.579  0.4091  0.1868 -0.8104
  115MOL0     C15417   3.683   3.154   9.483  0.6009 -0.9837  0.1832
  115MOL0     C15418   3.798   3.085   9.520 -0.5533 -0.2812 -0.7287
  115MOL0     C15419   3.841   2.980   9.431  0.1874  1.0472  0.1003
  115MOL0     O15420   3.962   2.925   9.450  0.5976  0.1291 -0.5566
  115MOL0     C15421   4.034   2.860   9.359  0.0289  0.7972  0.2436
  115MOL0     C15422   4.017   2.859   9.218 -0.4995  0.0643 -0.2124
  115MOL0     C15423   4.109   2.799   9.127 -0.3313 -0.1104  0.0182
  115MOL0     C15424   4.216   2.726   9.184  0.2081  0.3513 -0.4972
  115MOL0     O15425   4.295   2.654   9.097 -0.0818 -0.2613 -0.3747
  115MOL0     C15426   4.383   2.555   9.154  0.3509 -0.6663  0.3939
  115MOL0     C15427   4.444   2.476   9.049 -0.4047  1.1810  0.5795
  115MOL0     C15428   4.527   2.370   9.118  0.2640 -0.1789 -0.0620
  115MOL0     C15429   4.638   2.311   9.027  0.6140  0.7364 -1.0976
  115MOL0     C15430   4.724   2.198   9.100 -0.4013 -0.4023  0.1256
  115MOL0     C15431   4.797   2.120   8.994 -0.2692 -0.9828  0.0960
  115MOL0     C15432   4.873   1.992   9.040  0.7959  0.0341  0.6269
  115MOL0     C15433   4.996   1.956   8.953 -0.2366 -0.3621 -0.5332
  115MOL0    Cl15434   5.097   1.835   9.026 -0.0780 -1.0234  0.1220
  115MOL0     C15435   4.236   2.728   9.323  0.9816 -1.5221  0.2865
  115MOL0     C15436   4.143   2.792   9.411  0.3917  0.2646 -0.0214
  115MOL0     O15437   3.760   2.936   9.354  0.2918  0.1953 -0.2833
  115MOL0     C15438   3.859   3.094   9.643  1.0780 -0.4308  0.0612
  115MOL0     C15439   3.820   3.200   9.732 -0.2828 -0.5045 -0.8913
  115MOL0     N15440   3.497   4.053   9.870 -0.1238  0.0093  0.3778
  115MOL0     N15441   3.388   4.120   9.885 -0.7349 -0.6581 -0.5180
  115MOL0     C15442   2.258   3.491   9.871 -0.7507 -0.5997 -0.0800
  115MOL0     C15443   2.187   3.373   9.846 -0.4231 -0.6971 -0.1441
  115MOL0     C15444   1.931   3.086   9.579  0.2153  0.4903 -0.6651
  115MOL0     C15445   1.871   3.025   9.688 -0.1183 -1.1065  0.2075
  115MOL0     C15446   1.755   2.949   9.673 -0.5305 -0.2971 -0.6707
  115MOL0     C15447   1.701   2.918   9.546 -0.0739  0.2780 -0.3406
  115MOL0     O15448   1.594   2.841   9.526 -0.7598 -0.2879  0.4336
  115MOL0     C15449   1.533   2.792   9.645  0.3044  0.1749  0.5910
  115MOL0     C15450   1.385   2.768   9.612 -0.2244 -0.5951 -0.4012
  115MOL0     C15451   1.291   2.730   9.725  0.8160 -0.2629 -0.0743
  115MOL0     C15452   1.159   2.660   9.678 -0.4389  0.1509 -0.1435
  115MOL0     C15453   1.110   2.581   9.793  0.8168 -0.6197  0.0117
  115MOL0     C15454   1.037   2.526   9.876  0.4022  0.1997  0.3543
  115MOL0     C15455   1.771   2.969   9.438  0.1292 -0.6532  0.7690
  115MOL0     C15456   1.884   3.053   9.452 -0.0942 -0.2978  0.3861
  115MOL0     C15457   1.928   3.118   9.325  0.0767  0.2246 -0.5526
  115MOL0     H15458   2.145   3.446   9.510 -0.2433  1.1299 -0.7303
  115MOL0     H15459   2.294   3.621   9.569 -2.2635  2.9233  2.8314
  115MOL0     H15460   2.465   3.769   9.643 -1.8803  0.5500 -1.2543
  115MOL0     H15461   2.341   3.869   9.717 -0.0563  0.6218  0.3362
  115MOL0     H15462   2.583   3.803   9.879 -2.0364 -2.1000  1.1030
  115MOL0     H15463   2.454   3.911   9.908  2.2139  0.0457  0.7161
  115MOL0     H15464   2.507   4.054   9.732 -1.8251 -1.2778  4.8322
  115MOL0     H15465   2.615   3.942   9.646  0.4171  0.6504 -0.4552
  115MOL0     H15466   2.703   4.160   9.800 -2.8285  1.9024  1.6704
  115MOL0     H15467   2.656   4.049   9.935 -1.6613 -0.7319 -0.1290
  115MOL0     H15468   2.850   3.907   9.894 -2.0456  0.9116  0.8013
  115MOL0     H15469   2.866   3.991   9.736 -1.9813  0.6391 -0.2411
  115MOL0     H15470   2.936   4.203   9.856  0.0440  0.6646  1.9273
  115MOL0     H15471   2.917   4.125  10.013  2.7808 -1.6181  0.8551
  115MOL0     H15472   3.124   4.024   9.806  1.3711 -0.3387  0.4979
  115MOL0     H15473   3.072   3.928   9.938 -0.0054 -0.3259 -0.3992
  115MOL0     H15474   3.175   4.215   9.993  1.4051  0.3230  0.2521
  115MOL0     H15475   3.155   4.075  10.104 -1.5563 -1.0931 -0.9062
  115MOL0     H15476   3.330   3.857  10.074  1.3792  0.4819 -0.2552
  115MOL0     H15477   3.674   3.866   9.870 -0.5772  2.0675  1.2912
  115MOL0     H15478   3.610   3.781  10.012  1.3771 -2.5131 -1.3880
  115MOL0     H15479   3.429   3.691   9.866 -0.3653  0.8805  1.8032
  115MOL0     H15480   3.523   3.747   9.725 -1.3973 -0.7145 -0.5835
  115MOL0     H15481   3.650   3.566   9.937  1.3000 -0.3807 -1.2896
  115MOL0     H15482   3.735   3.628   9.795  1.0136 -1.9314 -0.9942
  115MOL0     H15483   3.646   3.500   9.657  2.5014 -0.3857  0.3309
  115MOL0     H15484   3.488   3.467   9.731  0.6317  1.9341 -0.8157
  115MOL0     H15485   3.531   3.279   9.570 -0.1127 -0.9409 -0.5359
  115MOL0     H15486   3.620   3.141   9.395  0.5092  2.0485 -0.2818
  115MOL0     H15487   3.937   2.915   9.170  0.1259  1.7406  0.6452
  115MOL0     H15488   4.097   2.810   9.020  0.4731  1.6774  0.0775
  115MOL0     H15489   4.458   2.612   9.210 -2.1711 -0.4528  3.8451
  115MOL0     H15490   4.325   2.493   9.223  0.0343  0.6108  1.3116
  115MOL0     H15491   4.367   2.436   8.982 -0.4368  0.4165  1.0662
  115MOL0     H15492   4.513   2.536   8.990  1.4678 -3.0207 -1.9580
  115MOL0     H15493   4.580   2.416   9.202  0.6249  0.7859 -0.7922
  115MOL0     H15494   4.466   2.287   9.154  0.5223  0.5423  2.1679
  115MOL0     H15495   4.699   2.399   9.003  1.5918  0.7024  0.9945
  115MOL0     H15496   4.591   2.262   8.941  1.1203 -1.2073 -0.3121
  115MOL0     H15497   4.652   2.134   9.152 -4.3323  2.7100 -0.9844
  115MOL0     H15498   4.791   2.238   9.177 -2.5353  0.8622  1.4152
  115MOL0     H15499   4.734   2.101   8.907 -1.1027  1.0362  0.2056
  115MOL0     H15500   4.872   2.196   8.967 -1.2475 -0.7827 -2.3163
  115MOL0     H15501   4.803   1.908   9.050 -0.6980  1.3363  1.4899
  115MOL0     H15502   4.900   2.010   9.144  2.3296  1.9540 -0.0465
  115MOL0     H15503   4.967   1.926   8.852 -2.8946 -3.1148  0.8443
  115MOL0     H15504   5.054   2.049   8.959 -0.7795 -0.0714  0.4717
  115MOL0     H15505   4.318   2.682   9.376 -0.0306 -1.5337  1.8952
  115MOL0     H15506   4.168   2.789   9.516  1.6255 -4.0814 -0.2407
  115MOL0     H15507   3.946   3.032   9.664  2.2053  0.3543 -1.9846
  115MOL0     H15508   3.877   3.227   9.820 -0.8530 -3.5913  0.5619
  115MOL0     H15509   2.288   3.517   9.972  0.6147 -0.3142 -0.5358
  115MOL0     H15510   2.147   3.304   9.919 -1.4195 -1.1352 -1.0827
  115MOL0     H15511   1.897   3.068   9.784  1.5479  3.6086 -2.0577
  115MOL0     H15512   1.724   2.895   9.762 -1.7639 -1.0438 -1.5156
  115MOL0     H15513   1.537   2.867   9.724 -0.3595  0.4198  0.3908
  115MOL0     H15514   1.588   2.705   9.685  1.9527  1.0789  0.4040
  115MOL0     H15515   1.391   2.691   9.534 -1.0285 -0.0248 -1.0455
  115MOL0     H15516   1.343   2.859   9.568 -2.0613 -0.9886  0.4560
  115MOL0     H15517   1.253   2.806   9.793 -0.3809 -1.3610  0.5254
  115MOL0     H15518   1.344   2.658   9.789 -0.7709 -2.0469 -0.6959
  115MOL0     H15519   1.085   2.724   9.630 -1.6746 -2.3767 -1.8631
  115MOL0     H15520   1.182   2.592   9.595 -1.9273 -2.1267  1.1868
  115MOL0     H15521   0.966   2.464   9.926  0.7456 -1.1929 -0.7982
  115MOL0     H15522   1.724   2.961   9.340  0.9268 -2.7202  0.5135
  115MOL0     H15523   1.946   3.041   9.248 -0.0777 -1.5769  1.1328
  115MOL0     H15524   1.844   3.175   9.285 -0.4997  0.0824  0.4405
  115MOL0     H15525   2.017   3.179   9.342  1.0269 -1.6569  1.8087
  116MOL0     O15526   7.677  10.255   4.964 -0.5071 -0.0582 -0.2297
  116MOL0     C15527   7.582  10.262   5.045  0.0524  0.2436 -0.2276
  116MOL0     O15528   7.589  10.294   5.174 -0.6592 -1.2552 -0.2159
  116MOL0     C15529   7.701  10.340   5.240  0.6066 -0.0780 -1.3486
  116MOL0     C15530   7.822  10.374   5.182 -0.5113 -0.8751  0.0219
  116MOL0     C15531   7.929  10.431   5.256 -0.3546 -0.1917 -0.6387
  116MOL0     C15532   7.915  10.448   5.393 -0.6797  0.2219  0.3890
  116MOL0     O15533   8.020  10.476   5.473  0.5477 -0.7797  0.1777
  116MOL0     C15534   8.118  10.572   5.425  0.5696 -0.1855 -0.1771
  116MOL0     C15535   8.216  10.598   5.538  0.1622  0.0648  0.5144
  116MOL0     C15536   8.353  10.631   5.487  0.3114  0.7066 -0.5661
  116MOL0     C15537   8.457  10.647   5.603 -0.0255 -0.0490 -0.3721
  116MOL0     C15538   8.598  10.702   5.556  0.2964 -0.0458  0.3061
  116MOL0     C15539   8.700  10.681   5.666  0.0131 -0.7789 -0.0883
  116MOL0     C15540   8.664  10.759   5.790 -0.4986  0.7543  0.6169
  116MOL0     C15541   8.744  10.733   5.912 -0.8166  0.2187  0.0102
  116MOL0     N15542   8.887  10.720   5.882 -0.0506  0.2305  0.0995
  116MOL0     C15543   8.981  10.823   5.869 -0.2612  0.1964  0.3016
  116MOL0     C15544   9.103  10.762   5.875 -0.3164 -0.3615  0.0538
  116MOL0     C15545   9.236  10.835   5.887 -0.3283 -0.6673 -0.2682
  116MOL0     C15546   9.351  10.748   5.841 -1.5533 -0.4658 -0.3310
  116MOL0     C15547   9.487  10.821   5.860 -0.1952 -0.0846 -0.5192
  116MOL0     C15548   9.612  10.747   5.807  0.8308  0.0213 -0.2159
  116MOL0     O15549   9.631  10.786   5.664  0.3848  0.0207 -0.8348
  116MOL0     C15550   9.733  10.737   5.596 -0.6245  0.9369  0.4329
  116MOL0     C15551   9.830  10.825   5.549  0.7357 -0.1668 -0.2028
  116MOL0     C15552   9.949  10.774   5.489  0.5291 -0.0564 -0.1426
  116MOL0     C15553   9.969  10.634   5.467 -0.6852  1.0583  0.2565
  116MOL0     C15554  10.098  10.585   5.410 -0.3366 -0.1041 -0.1469
  116MOL0     O15555  10.200  10.676   5.411  0.1369  0.4249  0.2839
  116MOL0     C15556  10.326  10.644   5.360 -0.5468 -0.1023 -0.2093
  116MOL0     C15557  10.401  10.744   5.301 -0.4156  0.5573 -0.7233
  116MOL0     C15558  10.545  10.719   5.260  0.4612  0.9708  0.5790
  116MOL0     C15559  10.599  10.588   5.275  0.6139 -0.6384  0.1592
  116MOL0     O15560  10.730  10.543   5.242 -0.0286 -0.0631  0.0475
  116MOL0     C15561  10.834  10.633   5.266 -0.1858 -0.7361 -0.6623
  116MOL0     C15562  10.834  10.670   5.417 -0.0572  0.0942  0.5668
  116MOL0     C15563  10.921  10.786   5.461  0.6173 -0.2993 -0.3891
  116MOL0     C15564  11.054  10.748   5.510 -0.6600  0.2262 -0.4403
  116MOL0     C15565  11.114  10.884   5.565 -0.5924 -0.8173  0.0137
  116MOL0     C15566  11.223  10.857   5.669 -0.2596  0.9344  0.1714
  116MOL0     C15567  11.360  10.821   5.615  0.1174 -0.0331 -0.0255
  116MOL0     C15568  11.459  10.790   5.739  0.1959  0.1874 -0.2348
  116MOL0    Cl15569  11.615  10.743   5.670  0.2860  0.4613  0.3646
  116MOL0     C15570  10.513  10.494   5.316 -0.4032 -0.1353 -0.7713
  116MOL0     C15571  10.386  10.517   5.360  0.4124  0.3677  0.5704
  116MOL0     O15572  10.102  10.464   5.374  0.4633 -0.4077 -0.7369
  116MOL0     C15573   9.862  10.554   5.503  0.6653  0.0557 -0.4011
  116MOL0     C15574   9.745  10.601   5.568 -0.0508 -0.4387  0.0293
  116MOL0     N15575   9.081  10.623   5.896  0.5958 -0.9786  0.3265
  116MOL0     N15576   8.957  10.604   5.907  0.3169 -0.2073  0.1617
  116MOL0     C15577   7.793  10.413   5.457 -1.0001  0.4110  0.0406
  116MOL0     C15578   7.688  10.361   5.381  0.0412 -0.1198 -0.1797
  116MOL0     C15579   7.455  10.228   4.986 -0.3711 -0.5261 -0.3366
  116MOL0     C15580   7.347  10.232   5.079  0.7055 -0.7448 -0.2013
  116MOL0     C15581   7.218  10.195   5.035 -0.1381  0.6218 -0.8715
  116MOL0     C15582   7.195  10.166   4.897 -0.3074 -0.3766 -1.0139
  116MOL0     O15583   7.063  10.138   4.874 -0.4001 -0.7339  0.1865
  116MOL0     C15584   7.028  10.077   4.753 -0.3776 -0.8129 -0.9246
  116MOL0     C15585   6.898   9.999   4.768  0.1290  0.3151  0.5164
  116MOL0     C15586   6.782  10.099   4.792 -0.0085 -0.7082 -0.2249
  116MOL0     C15587   6.646  10.027   4.772 -1.2552 -0.8675 -0.3644
  116MOL0     C15588   6.634  10.024   4.628 -0.1342  0.0665 -0.3042
  116MOL0     C15589   6.626  10.019   4.508 -0.0286 -0.6106  0.4284
  116MOL0     C15590   7.299  10.174   4.808  0.4989  0.3444 -0.4168
  116MOL0     C15591   7.434  10.191   4.849  0.0324  0.2788  0.3397
  116MOL0     C15592   7.526  10.175   4.734  0.3773 -0.7740  0.0828
  116MOL0     H15593   7.835  10.371   5.074  1.0989  3.6824 -0.1234
  116MOL0     H15594   8.026  10.436   5.207 -0.1574  2.1172 -0.1007
  116MOL0     H15595   8.169  10.533   5.336  0.8625  2.1745 -1.1180
  116MOL0     H15596   8.070  10.664   5.392 -3.6821 -2.8472 -2.2064
  116MOL0     H15597   8.212  10.507   5.598 -0.1420  0.6408  1.3878
  116MOL0     H15598   8.177  10.677   5.603  0.0387 -0.6497  1.3236
  116MOL0     H15599   8.356  10.729   5.437  2.2124  1.2144  0.4405
  116MOL0     H15600   8.380  10.559   5.410  0.8781 -0.5687  0.7838
  116MOL0     H15601   8.412  10.717   5.674 -1.5108 -0.1790 -1.1535
  116MOL0     H15602   8.462  10.552   5.657 -0.8669 -0.7751 -1.5350
  116MOL0     H15603   8.628  10.645   5.467 -1.7202  0.8131 -0.9943
  116MOL0     H15604   8.598  10.802   5.512  1.3225 -0.6672 -1.2250
  116MOL0     H15605   8.701  10.577   5.703  5.4871 -0.7683  0.5446
  116MOL0     H15606   8.803  10.693   5.634  0.0449 -1.6084 -0.3388
  116MOL0     H15607   8.563  10.731   5.820  0.1654 -0.3438  1.9813
  116MOL0     H15608   8.677  10.868   5.783  2.6945  0.4865  0.8886
  116MOL0     H15609   8.731  10.817   5.982 -0.5097  0.2958 -0.0219
  116MOL0     H15610   8.715  10.642   5.965  1.8123 -0.9274 -0.3984
  116MOL0     H15611   8.964  10.931   5.868 -0.5649  0.2014  2.3265
  116MOL0     H15612   9.222  10.932   5.839 -0.4695  0.1797  1.4036
  116MOL0     H15613   9.239  10.852   5.995 -0.4330  1.5088 -0.5617
  116MOL0     H15614   9.347  10.659   5.904 -0.0947 -0.5085 -0.2837
  116MOL0     H15615   9.332  10.725   5.735 -0.8364  0.0679 -0.5806
  116MOL0     H15616   9.500  10.839   5.967 -0.5366  1.8730 -0.7778
  116MOL0     H15617   9.485  10.919   5.812 -0.7118  1.4317  2.3883
  116MOL0     H15618   9.594  10.640   5.816 -0.2467  0.2809  1.0710
  116MOL0     H15619   9.703  10.777   5.860  2.0136 -2.0078 -1.0003
  116MOL0     H15620   9.812  10.931   5.568  3.3270  0.2962  0.0763
  116MOL0     H15621  10.024  10.849   5.470 -1.1450  1.5782 -0.5798
  116MOL0     H15622  10.363  10.846   5.300  0.7022  0.9890 -0.7255
  116MOL0     H15623  10.614  10.793   5.220  0.4304  0.5586 -0.2741
  116MOL0     H15624  10.928  10.587   5.232  0.0510 -2.4209  1.9783
  116MOL0     H15625  10.815  10.726   5.211 -0.1598 -0.7926 -0.7673
  116MOL0     H15626  10.733  10.687   5.454 -1.1604 -2.8600 -0.8004
  116MOL0     H15627  10.867  10.583   5.475  1.8591  0.9552  0.8725
  116MOL0     H15628  10.923  10.856   5.376 -0.6582 -0.8060 -0.8767
  116MOL0     H15629  10.863  10.837   5.538  0.6558  0.8354 -1.0799
  116MOL0     H15630  11.124  10.698   5.443  0.6036 -1.5359  2.0247
  116MOL0     H15631  11.035  10.676   5.591  1.7386 -1.2834 -1.1167
  116MOL0     H15632  11.041  10.939   5.624 -1.1914  1.0398 -2.3176
  116MOL0     H15633  11.156  10.944   5.483 -1.6529 -1.2731 -0.8786
  116MOL0     H15634  11.228  10.943   5.737 -1.9244 -0.1237  1.7241
  116MOL0     H15635  11.195  10.765   5.722  4.0779 -1.1290 -0.6681
  116MOL0     H15636  11.400  10.908   5.563  1.1849  1.2186  2.6612
  116MOL0     H15637  11.346  10.742   5.541  0.5277  0.0123 -0.1556
  116MOL0     H15638  11.472  10.877   5.803  1.8042 -0.6533  0.6386
  116MOL0     H15639  11.419  10.711   5.803  0.1859  1.5879  1.5605
  116MOL0     H15640  10.557  10.395   5.326 -0.4585 -0.1901 -1.0469
  116MOL0     H15641  10.331  10.425   5.377  2.3341 -0.9767 -0.1689
  116MOL0     H15642   9.867  10.446   5.506 -2.9654 -0.2351 -0.8499
  116MOL0     H15643   9.666  10.538   5.607 -2.6922  2.6583  0.0161
  116MOL0     H15644   7.787  10.424   5.565 -0.0331  0.8736  0.0544
  116MOL0     H15645   7.591  10.343   5.426  0.0999  0.1814  0.0659
  116MOL0     H15646   7.360  10.260   5.183  0.6175 -0.3337 -0.3003
  116MOL0     H15647   7.138  10.202   5.108  2.9022  1.9704  2.6273
  116MOL0     H15648   7.113  10.012   4.730  1.2236  0.7069  0.4519
  116MOL0     H15649   7.021  10.154   4.675 -0.7388  0.4874  0.3348
  116MOL0     H15650   6.896   9.926   4.849 -2.4914  0.0594  0.3027
  116MOL0     H15651   6.887   9.952   4.670  2.6634 -0.6268  0.6185
  116MOL0     H15652   6.791  10.180   4.719 -1.2634 -0.9516 -0.6809
  116MOL0     H15653   6.787  10.143   4.892 -0.1713 -2.1661  0.4531
  116MOL0     H15654   6.639   9.934   4.829 -1.1390 -0.4470  0.3585
  116MOL0     H15655   6.560  10.086   4.806 -0.6153  0.3707 -0.8332
  116MOL0     H15656   6.608   9.997   4.405 -3.8435 -1.8368  1.1810
  116MOL0     H15657   7.272  10.160   4.704  0.6169 -1.0355 -0.2745
  116MOL0     H15658   7.537  10.278   4.701  2.1513  0.2605  3.4201
  116MOL0     H15659   7.626  10.146   4.770  1.3001  1.5586 -0.4155
  116MOL0     H15660   7.501  10.104   4.655 -0.4715 -0.1216 -0.2354
  117MOL0     O15661  10.605   2.127   6.272 -0.1540  0.4356 -0.0204
  117MOL0     C15662  10.528   2.036   6.244  0.2631  0.1085  0.0345
  117MOL0     O15663  10.558   1.905   6.248  0.7160 -0.2143  0.4740
  117MOL0     C15664  10.683   1.865   6.296  0.8851 -0.6705  0.5407
  117MOL0     C15665  10.805   1.885   6.221  0.3181 -0.3831 -0.1211
  117MOL0     C15666  10.923   1.852   6.282 -0.3779 -0.8497 -0.1585
  117MOL0     C15667  10.935   1.799   6.413 -0.0339 -0.1548  0.1557
  117MOL0     O15668  11.064   1.782   6.455 -0.2009  0.4052 -0.0469
  117MOL0     C15669  11.087   1.712   6.578 -0.5817 -0.6294  0.2389
  117MOL0     C15670  11.232   1.680   6.590 -0.3786 -0.3457  0.3060
  117MOL0     C15671  11.258   1.585   6.707  0.6893 -0.5152  0.7559
  117MOL0     C15672  11.408   1.534   6.716  0.0349  0.3731  0.1929
  117MOL0     C15673  11.436   1.469   6.858 -0.0980  0.1386 -0.2245
  117MOL0     C15674  11.586   1.445   6.884 -0.8877  0.5689  0.0392
  117MOL0     C15675  11.628   1.370   7.018  0.7514  0.5991  0.6422
  117MOL0     C15676  11.760   1.289   7.021  0.4070 -0.5367 -0.1828
  117MOL0     N15677  11.868   1.354   6.941 -0.1523  0.4147  0.0385
  117MOL0     C15678  11.939   1.456   7.004  0.6150 -0.0287 -0.3948
  117MOL0     C15679  12.045   1.469   6.929  0.8399  0.0981  0.7882
  117MOL0     C15680  12.155   1.554   6.958 -0.6316  0.1307  0.5587
  117MOL0     C15681  12.284   1.466   6.988 -0.2711 -1.4211  0.2773
  117MOL0     C15682  12.258   1.378   7.109  0.8409 -1.0435 -0.4564
  117MOL0     C15683  12.395   1.342   7.170  0.4055 -0.5856 -0.2920
  117MOL0     O15684  12.470   1.277   7.072 -0.2149 -0.0234  0.0545
  117MOL0     C15685  12.602   1.302   7.086 -0.9781  0.2297 -0.0948
  117MOL0     C15686  12.665   1.374   6.984 -0.7775  0.0191  0.7027
  117MOL0     C15687  12.802   1.382   6.985 -0.4836  0.2527 -0.3656
  117MOL0     C15688  12.891   1.339   7.091  0.2488 -0.6956 -0.4902
  117MOL0     C15689  13.031   1.371   7.093  0.5032  0.2785 -0.6159
  117MOL0     O15690  13.085   1.469   7.016  0.3660  0.1529  0.2158
  117MOL0     C15691  13.209   1.512   7.037 -0.2189 -1.1359  0.0041
  117MOL0     C15692  13.231   1.640   7.088 -0.0981  0.9024 -0.3327
  117MOL0     C15693  13.357   1.665   7.127  0.9283 -0.3768  0.5705
  117MOL0     C15694  13.463   1.572   7.124 -0.2534 -0.0694 -0.0073
  117MOL0     O15695  13.583   1.600   7.186  0.2712  0.2689 -0.2511
  117MOL0     C15696  13.595   1.706   7.288  0.3518 -0.3466  1.4065
  117MOL0     C15697  13.738   1.704   7.336 -0.7727 -0.1309 -0.3887
  117MOL0     C15698  13.769   1.804   7.453  1.3819 -0.4226  0.3360
  117MOL0     C15699  13.692   1.941   7.440  0.6218  0.4222 -0.8203
  117MOL0     C15700  13.696   2.030   7.560 -0.0893 -0.5536 -0.9348
  117MOL0     C15701  13.831   2.054   7.625  0.7098 -0.8355 -0.0402
  117MOL0     C15702  13.935   2.122   7.531 -0.3862  0.3954 -1.7388
  117MOL0     C15703  14.065   2.148   7.592 -0.2885  0.0670 -0.5706
  117MOL0    Cl15704  14.049   2.278   7.726 -0.1899  0.0742  0.1190
  117MOL0     C15705  13.436   1.445   7.073  0.3148  0.2539  0.4011
  117MOL0     C15706  13.313   1.416   7.024  0.6126  0.0933 -0.1432
  117MOL0     O15707  13.091   1.303   7.181  0.7509 -0.4757 -0.1216
  117MOL0     C15708  12.824   1.268   7.202 -0.0028 -1.0834 -0.3665
  117MOL0     C15709  12.684   1.253   7.196 -0.1494  0.0391  0.5374
  117MOL0     N15710  12.042   1.370   6.826 -0.0546  0.3151 -0.8226
  117MOL0     N15711  11.936   1.298   6.839  0.1123  0.2017 -0.5009
  117MOL0     C15712  10.814   1.783   6.483  0.3558 -0.3517  0.3999
  117MOL0     C15713  10.690   1.816   6.425 -0.7005 -0.4505 -0.4765
  117MOL0     C15714  10.387   2.071   6.209  0.7826  0.8205 -0.3959
  117MOL0     C15715  10.287   1.967   6.237  0.2394  0.0963  0.2399
  117MOL0     C15716  10.157   1.999   6.208  0.4152 -0.8055 -1.6624
  117MOL0     C15717  10.112   2.124   6.163 -0.5805  0.6078 -0.3203
  117MOL0     O15718   9.984   2.135   6.123  0.4547 -0.1513 -0.3033
  117MOL0     C15719   9.916   2.265   6.088 -0.3404  1.3819  0.1037
  117MOL0     C15720   9.768   2.246   6.062  0.2785  0.3716  0.2047
  117MOL0     C15721   9.690   2.169   6.162 -0.2074  0.0839 -0.0093
  117MOL0     C15722   9.662   2.259   6.273  0.2932 -0.2748 -0.3931
  117MOL0     C15723   9.564   2.208   6.367  0.2658 -0.8226 -0.1234
  117MOL0     C15724   9.479   2.184   6.454 -0.4461 -0.0116  0.5894
  117MOL0     C15725  10.209   2.227   6.147  0.5506  0.8218  0.7646
  117MOL0     C15726  10.343   2.199   6.171 -0.3441 -0.3142  0.3303
  117MOL0     C15727  10.432   2.319   6.165  0.2774 -0.6018 -0.6276
  117MOL0     H15728  10.809   1.931   6.123 -1.0818 -0.5254 -0.2702
  117MOL0     H15729  11.015   1.866   6.226 -0.3543 -0.1261  0.0533
  117MOL0     H15730  11.065   1.775   6.666 -1.1177 -1.2972  0.5963
  117MOL0     H15731  11.029   1.621   6.597  0.2325 -1.7722 -2.2850
  117MOL0     H15732  11.284   1.774   6.610  1.5567 -1.0088 -1.2674
  117MOL0     H15733  11.274   1.646   6.495  1.8940 -1.0533  1.4782
  117MOL0     H15734  11.193   1.498   6.699 -2.4265  1.8355 -2.1892
  117MOL0     H15735  11.231   1.625   6.805  1.9285 -0.0587  0.9410
  117MOL0     H15736  11.433   1.465   6.634 -0.3649  0.2804  0.1441
  117MOL0     H15737  11.472   1.621   6.704 -0.7922  0.6978 -2.5491
  117MOL0     H15738  11.401   1.517   6.949 -0.5810  0.0723 -0.3707
  117MOL0     H15739  11.386   1.372   6.846 -0.0771 -0.0394  1.0499
  117MOL0     H15740  11.611   1.386   6.796 -1.2683 -0.4093  0.5662
  117MOL0     H15741  11.649   1.534   6.887 -0.4116  0.2182  1.3013
  117MOL0     H15742  11.549   1.298   7.039  0.1614  1.6148  2.0384
  117MOL0     H15743  11.638   1.432   7.108 -1.2870 -0.4591  1.6607
  117MOL0     H15744  11.801   1.274   7.121  0.4867  1.4816  0.1198
  117MOL0     H15745  11.737   1.192   6.974 -1.4818  0.1940 -0.8846
  117MOL0     H15746  11.908   1.510   7.093 -1.9521  0.8711 -1.7276
  117MOL0     H15747  12.183   1.635   6.890  0.6660  0.3010  1.2723
  117MOL0     H15748  12.145   1.613   7.050  1.2572 -1.4145  1.8191
  117MOL0     H15749  12.322   1.406   6.905  0.9717 -0.7066  0.2994
  117MOL0     H15750  12.366   1.533   7.016 -1.2903 -0.4236  1.0029
  117MOL0     H15751  12.194   1.296   7.076 -2.7729  0.8491  1.2069
  117MOL0     H15752  12.211   1.433   7.191  2.4463 -2.1554  1.2809
  117MOL0     H15753  12.381   1.270   7.251  0.4757  0.7445  0.9393
  117MOL0     H15754  12.431   1.435   7.215 -2.8949  0.7207 -0.0384
  117MOL0     H15755  12.615   1.414   6.897 -0.0160 -0.1415  0.1779
  117MOL0     H15756  12.849   1.430   6.900 -1.5708  2.2785  0.1032
  117MOL0     H15757  13.149   1.708   7.112 -0.0321  1.1891 -0.8939
  117MOL0     H15758  13.370   1.765   7.166 -1.3487 -0.7593  2.5181
  117MOL0     H15759  13.582   1.802   7.237  0.5508 -1.5855 -1.0910
  117MOL0     H15760  13.532   1.707   7.378 -0.2803  0.6382  0.9657
  117MOL0     H15761  13.768   1.603   7.366 -1.1450 -0.0192  0.3899
  117MOL0     H15762  13.793   1.747   7.252  2.0045 -2.4741  0.0863
  117MOL0     H15763  13.749   1.759   7.550  3.6127  1.3105  1.7007
  117MOL0     H15764  13.878   1.812   7.452  1.3939 -0.1553  1.6227
  117MOL0     H15765  13.585   1.934   7.418  0.3427  3.8000 -1.1532
  117MOL0     H15766  13.724   1.994   7.349 -1.2268  1.5708 -0.8536
  117MOL0     H15767  13.633   1.985   7.637  0.2374 -0.3542 -0.5469
  117MOL0     H15768  13.642   2.124   7.542 -5.0841 -2.6722  1.1390
  117MOL0     H15769  13.812   2.121   7.709 -1.6993 -0.1040 -1.0886
  117MOL0     H15770  13.867   1.958   7.662  3.7460 -0.3972 -1.5614
  117MOL0     H15771  13.894   2.211   7.482 -2.7552  0.7120  0.6312
  117MOL0     H15772  13.953   2.062   7.441 -0.0948 -1.7711 -0.3099
  117MOL0     H15773  14.108   2.061   7.642  1.3532  0.0220 -1.9559
  117MOL0     H15774  14.142   2.184   7.524  0.1814 -0.6300 -0.4216
  117MOL0     H15775  13.518   1.375   7.085 -1.2716 -1.5731  1.1147
  117MOL0     H15776  13.288   1.321   6.979  1.3775 -0.8038  1.2577
  117MOL0     H15777  12.885   1.239   7.287 -0.1588 -0.2125  0.0477
  117MOL0     H15778  12.632   1.192   7.269 -0.3781 -2.6881 -1.7280
  117MOL0     H15779  10.811   1.746   6.585 -1.9607 -1.3401  0.0360
  117MOL0     H15780  10.601   1.823   6.487 -1.2483  3.8447 -1.4178
  117MOL0     H15781  10.321   1.866   6.258 -0.1954 -0.4594 -1.5160
  117MOL0     H15782  10.083   1.923   6.231  0.9654 -0.1765  3.1542
  117MOL0     H15783   9.966   2.316   6.005 -2.6396  3.1584 -0.2883
  117MOL0     H15784   9.935   2.331   6.173  0.3165 -0.7245  1.6778
  117MOL0     H15785   9.754   2.202   5.963  3.1105  1.9122 -1.0073
  117MOL0     H15786   9.726   2.345   6.041 -1.2716 -0.7083 -2.2913
  117MOL0     H15787   9.740   2.084   6.208 -1.4819  0.5548  2.4676
  117MOL0     H15788   9.600   2.123   6.121 -0.1941 -1.9304  2.0159
  117MOL0     H15789   9.756   2.295   6.315  1.2151 -2.0610 -0.8278
  117MOL0     H15790   9.623   2.355   6.237  0.7589 -0.1669 -0.6138
  117MOL0     H15791   9.412   2.187   6.538  2.2095 -0.6549  2.8944
  117MOL0     H15792  10.170   2.324   6.120  0.7876  1.4694  2.6096
  117MOL0     H15793  10.473   2.341   6.263 -3.2159 -0.3769  0.9231
  117MOL0     H15794  10.507   2.289   6.090  0.9466 -1.4085  0.3454
  117MOL0     H15795  10.372   2.402   6.126 -4.4163 -3.3745 -0.0679
  118MOL0     O15796   6.586   3.028   0.098 -0.5305  0.5894 -0.2336
  118MOL0     C15797   6.560   3.037  -0.023  1.3206  0.5373  0.2593
  118MOL0     O15798   6.653   3.018  -0.133 -0.3072 -0.2482 -0.2202
  118MOL0     C15799   6.787   2.983  -0.112  0.2639 -0.7588  0.6118
  118MOL0     C15800   6.853   2.923  -0.216 -0.1691  0.4933 -0.2479
  118MOL0     C15801   6.993   2.895  -0.209  0.4783  0.9210  0.2781
  118MOL0     C15802   7.066   2.927  -0.097 -1.2535 -0.5096  0.1497
  118MOL0     O15803   7.205   2.894  -0.089 -0.4196  0.8511  0.3297
  118MOL0     C15804   7.279   2.956   0.011 -0.4916 -0.1867  0.3294
  118MOL0     C15805   7.439   2.934  -0.003 -0.2935  0.7999  0.2038
  118MOL0     C15806   7.475   2.786   0.042  0.1594  0.0415  0.2461
  118MOL0     C15807   7.618   2.738   0.017 -0.4377  0.0019 -0.9351
  118MOL0     C15808   7.625   2.590  -0.014 -0.0608  0.3726  0.5671
  118MOL0     C15809   7.772   2.560  -0.075 -0.4625  0.7838 -0.2397
  118MOL0     C15810   7.787   2.403  -0.100 -0.3713  0.0888  0.2972
  118MOL0     C15811   7.928   2.344  -0.127 -0.2466 -0.6735 -0.3185
  118MOL0     N15812   7.942   2.201  -0.106  0.5794  0.6851  0.2431
  118MOL0     C15813   7.946   2.106  -0.209 -0.4726 -0.1693  0.5772
  118MOL0     C15814   7.996   1.996  -0.155 -0.5675 -0.2751  0.3640
  118MOL0     C15815   8.023   1.873  -0.242  0.0260 -0.0370 -0.5120
  118MOL0     C15816   8.178   1.865  -0.274 -0.1605  0.8668 -0.3519
  118MOL0     C15817   8.277   1.897  -0.156 -0.4323  0.0984  0.4647
  118MOL0     C15818   8.423   1.905  -0.204  0.0803  0.6070  0.2883
  118MOL0     O15819   8.455   2.006  -0.306  0.6358  0.6630 -0.1991
  118MOL0     C15820   8.571   1.991  -0.377 -0.6043  0.9321 -0.2529
  118MOL0     C15821   8.574   2.007  -0.513 -0.8095 -0.4302  0.3835
  118MOL0     C15822   8.695   1.990  -0.584  0.9681  0.2839  0.3246
  118MOL0     C15823   8.813   1.946  -0.520 -0.4514 -0.0915 -0.0929
  118MOL0     C15824   8.933   1.918  -0.594  0.6597 -0.2510  0.4720
  118MOL0     O15825   8.924   1.900  -0.729  0.7353  0.3495  0.2562
  118MOL0     C15826   9.031   1.889  -0.816 -0.4784  0.6565  0.1783
  118MOL0     C15827   9.001   1.862  -0.950 -0.1401 -0.4048 -0.5049
  118MOL0     C15828   9.093   1.857  -1.050 -0.3004  0.3175 -0.7933
  118MOL0     C15829   9.232   1.868  -1.025  0.3153  0.2262 -0.3755
  118MOL0     O15830   9.324   1.851  -1.129  0.0213 -0.8318 -0.0086
  118MOL0     C15831   9.409   1.957  -1.139 -0.3624 -0.4321  1.0513
  118MOL0     C15832   9.345   2.083  -1.192 -0.1099 -0.3350  0.2212
  118MOL0     C15833   9.289   2.068  -1.333  0.1998  0.2849  0.6369
  118MOL0     C15834   9.203   2.188  -1.353 -0.0868  0.2606  0.3426
  118MOL0     C15835   9.154   2.184  -1.502  0.1564 -0.2936  0.2936
  118MOL0     C15836   9.038   2.281  -1.505 -0.0284 -0.3418 -0.1694
  118MOL0     C15837   9.066   2.432  -1.465  0.3535  0.2994 -1.5317
  118MOL0     C15838   8.994   2.516  -1.569  0.0431  0.1496  0.2892
  118MOL0    Cl15839   9.093   2.524  -1.720  0.2956 -0.2629  0.3124
  118MOL0     C15840   9.270   1.894  -0.893 -0.0214 -0.0005 -0.4518
  118MOL0     C15841   9.171   1.907  -0.784  0.1708 -0.5152  0.7267
  118MOL0     O15842   9.035   1.898  -0.532  0.7744  0.0634 -0.4381
  118MOL0     C15843   8.803   1.930  -0.383 -0.9551  0.2381 -0.1810
  118MOL0     C15844   8.685   1.951  -0.306  0.1971 -0.0720 -0.3039
  118MOL0     N15845   8.015   2.017  -0.015  0.0367 -0.0672 -0.1429
  118MOL0     N15846   7.972   2.134   0.012  0.2187 -0.3168  0.8052
  118MOL0     C15847   7.003   2.993   0.014  0.7008  0.3756  0.9897
  118MOL0     C15848   6.866   3.021   0.000  0.6437  0.5832  0.6037
  118MOL0     C15849   6.421   3.051  -0.063 -0.6411 -0.6468 -0.5468
  118MOL0     C15850   6.388   3.060  -0.201  0.2412 -0.0802  0.3536
  118MOL0     C15851   6.263   3.111  -0.243 -0.4527  0.3859  0.8062
  118MOL0     C15852   6.162   3.135  -0.156 -0.0227 -0.5832  0.5405
  118MOL0     O15853   6.052   3.200  -0.215 -0.1630 -0.5019 -0.3342
  118MOL0     C15854   5.935   3.206  -0.133 -1.2070  1.2072 -0.1453
  118MOL0     C15855   5.823   3.256  -0.225  0.7560  0.1305 -0.9378
  118MOL0     C15856   5.695   3.276  -0.152  0.3653  0.1825  0.0001
  118MOL0     C15857   5.582   3.319  -0.242 -0.2768  0.6903 -0.8297
  118MOL0     C15858   5.454   3.323  -0.175 -0.6777  0.6289  0.0139
  118MOL0     C15859   5.347   3.332  -0.116 -0.2553  0.8323 -1.1432
  118MOL0     C15860   6.179   3.111  -0.017 -1.2989  0.5938  0.5147
  118MOL0     C15861   6.314   3.079   0.024  0.8355  0.0786 -0.7355
  118MOL0     C15862   6.327   3.071   0.173 -0.0981 -0.1938  0.2644
  118MOL0     H15863   6.789   2.894  -0.298 -2.9388 -3.5121  2.9187
  118MOL0     H15864   7.027   2.851  -0.302 -4.8033 -0.1628 -1.4663
  118MOL0     H15865   7.264   3.060  -0.021 -2.1974 -0.9558 -1.5324
  118MOL0     H15866   7.249   2.921   0.111 -1.7019 -1.6607 -0.5205
  118MOL0     H15867   7.495   3.012   0.050 -3.9527  4.1810 -0.4448
  118MOL0     H15868   7.470   2.953  -0.106 -0.7156 -0.2240 -0.1197
  118MOL0     H15869   7.404   2.716  -0.003  1.1844  0.1299 -1.6230
  118MOL0     H15870   7.459   2.778   0.150  0.9270  0.5798  0.4069
  118MOL0     H15871   7.655   2.791  -0.071  3.0107 -0.1007  0.3184
  118MOL0     H15872   7.673   2.752   0.110  0.0899 -0.8674 -1.0981
  118MOL0     H15873   7.594   2.538   0.077 -1.0536  1.0331  0.6197
  118MOL0     H15874   7.556   2.567  -0.095 -0.9574 -0.0998  1.4446
  118MOL0     H15875   7.786   2.632  -0.157  1.6359  2.3214  1.3480
  118MOL0     H15876   7.840   2.583   0.008  0.0795 -3.9942  0.8978
  118MOL0     H15877   7.725   2.377  -0.187 -0.0226  1.1219 -0.2715
  118MOL0     H15878   7.762   2.353  -0.006  0.4921  0.4283  0.7132
  118MOL0     H15879   7.955   2.365  -0.231 -2.3497  0.4056 -0.6993
  118MOL0     H15880   8.001   2.397  -0.064 -0.0587 -1.1404 -0.1364
  118MOL0     H15881   7.938   2.116  -0.317 -0.8876 -0.5678  0.5642
  118MOL0     H15882   7.988   1.782  -0.191  1.3281 -1.4938 -2.1047
  118MOL0     H15883   7.964   1.880  -0.333 -1.4814  2.7948  0.5695
  118MOL0     H15884   8.186   1.763  -0.312 -3.6019  0.9676 -1.7388
  118MOL0     H15885   8.198   1.944  -0.348  2.3567  1.4050  0.7871
  118MOL0     H15886   8.269   1.821  -0.077 -0.1196  0.6520  1.0381
  118MOL0     H15887   8.257   1.996  -0.115 -1.7739 -0.3195  0.8759
  118MOL0     H15888   8.453   1.807  -0.240 -0.1315 -0.2413  2.3104
  118MOL0     H15889   8.494   1.927  -0.123  2.5495 -0.4934 -1.4656
  118MOL0     H15890   8.499   2.030  -0.587  1.5491  0.3683 -1.9345
  118MOL0     H15891   8.686   1.995  -0.692 -2.0830 -2.1358  0.3237
  118MOL0     H15892   8.894   1.854  -0.972  0.1332 -0.8590 -1.7799
  118MOL0     H15893   9.062   1.840  -1.152  1.0720  0.5251 -1.2661
  118MOL0     H15894   9.455   1.990  -1.045 -1.1714 -0.2860  1.4020
  118MOL0     H15895   9.493   1.925  -1.201 -1.3634  1.5286 -1.5093
  118MOL0     H15896   9.275   2.117  -1.115  1.8247  2.5514  0.8689
  118MOL0     H15897   9.432   2.149  -1.197 -1.4427  1.4284 -1.5494
  118MOL0     H15898   9.377   2.062  -1.398  0.7822  1.9547  1.2319
  118MOL0     H15899   9.232   1.977  -1.355  0.2516  0.6160 -0.9919
  118MOL0     H15900   9.259   2.282  -1.340 -0.5291  0.4399  1.0393
  118MOL0     H15901   9.126   2.195  -1.275 -0.9074  0.9529 -0.5146
  118MOL0     H15902   9.119   2.091  -1.546 -0.4601 -0.0379  0.2290
  118MOL0     H15903   9.234   2.227  -1.563 -0.5103  0.8120  0.1499
  118MOL0     H15904   9.011   2.260  -1.609  1.3257 -3.2401 -0.0436
  118MOL0     H15905   8.961   2.240  -1.439  0.5880 -1.6641 -0.2418
  118MOL0     H15906   9.171   2.464  -1.460 -0.0857  1.7503 -0.8657
  118MOL0     H15907   9.017   2.447  -1.368  0.3671 -4.6517 -0.5335
  118MOL0     H15908   8.897   2.474  -1.598  1.2857 -3.8800  1.3404
  118MOL0     H15909   8.990   2.612  -1.518  2.2957 -0.0507  0.9295
  118MOL0     H15910   9.374   1.879  -0.866 -0.9157 -1.2038  2.9241
  118MOL0     H15911   9.194   1.916  -0.678 -0.6441  1.2856  0.7883
  118MOL0     H15912   8.896   1.906  -0.331  1.5325  1.2139 -3.8457
  118MOL0     H15913   8.700   1.929  -0.201  4.5129 -1.3352 -0.9755
  118MOL0     H15914   7.052   3.029   0.104  3.5789 -0.2282 -0.2195
  118MOL0     H15915   6.818   3.073   0.083  0.6579  0.5411  0.6383
  118MOL0     H15916   6.458   3.028  -0.278 -0.2279  0.3887 -0.2747
  118MOL0     H15917   6.240   3.126  -0.348 -0.1888 -1.7417  0.3903
  118MOL0     H15918   5.950   3.273  -0.049  1.4421  0.6162 -0.0469
  118MOL0     H15919   5.910   3.106  -0.097  2.0390  0.7658  1.1893
  118MOL0     H15920   5.809   3.195  -0.314  1.9310 -5.2049  2.0808
  118MOL0     H15921   5.853   3.356  -0.257  5.1543 -0.5882  0.2208
  118MOL0     H15922   5.703   3.346  -0.068  1.1126  1.1893 -0.8762
  118MOL0     H15923   5.668   3.179  -0.110  3.4062 -1.9561 -2.4634
  118MOL0     H15924   5.605   3.416  -0.285 -0.7885  0.4719 -1.6146
  118MOL0     H15925   5.580   3.260  -0.334  1.5709 -1.1365  0.2192
  118MOL0     H15926   5.254   3.335  -0.063  1.0388 -0.6822  1.4597
  118MOL0     H15927   6.098   3.130   0.052 -0.0606 -0.3787  2.3432
  118MOL0     H15928   6.385   2.980   0.188  1.4347  0.7286  0.1026
  118MOL0     H15929   6.380   3.159   0.210 -0.8043  0.1987  0.3518
  118MOL0     H15930   6.240   3.073   0.240  0.9402  0.8144  1.6570
  119MOL0     O15931  10.401   1.613   2.743 -0.0512  0.2292 -0.2615
  119MOL0     C15932  10.423   1.732   2.754 -0.0810  0.1666 -1.0769
  119MOL0     O15933  10.531   1.786   2.815 -0.1631  0.1174  0.3200
  119MOL0     C15934  10.635   1.704   2.856  0.3982 -0.3283  0.7238
  119MOL0     C15935  10.671   1.722   2.988  0.0535  0.1932 -0.0889
  119MOL0     C15936  10.764   1.631   3.041 -0.1884  0.5800 -0.5338
  119MOL0     C15937  10.833   1.536   2.957 -0.2027  0.2733  0.3752
  119MOL0     O15938  10.924   1.441   2.997  0.4662  0.2074  0.0163
  119MOL0     C15939  10.951   1.416   3.134 -0.5068  0.9181 -0.3234
  119MOL0     C15940  11.054   1.493   3.214  0.4065  0.4756 -0.0023
  119MOL0     C15941  11.187   1.496   3.145 -0.4610 -0.3479 -0.0788
  119MOL0     C15942  11.274   1.603   3.225 -0.0948 -0.5005  0.1079
  119MOL0     C15943  11.433   1.586   3.204 -0.1893 -0.7252  0.3097
  119MOL0     C15944  11.481   1.605   3.052 -0.2490 -0.4666 -0.5793
  119MOL0     C15945  11.628   1.610   3.021 -0.2672 -0.2653 -0.0321
  119MOL0     C15946  11.716   1.711   3.095  0.8465  0.3527  1.0133
  119MOL0     N15947  11.827   1.743   2.998 -1.1552 -0.2988 -0.1461
  119MOL0     C15948  11.916   1.646   2.949  0.3790 -0.5465  0.1180
  119MOL0     C15949  12.011   1.715   2.890 -0.3874 -0.2652 -0.7087
  119MOL0     C15950  12.133   1.659   2.828  0.1477  0.6756  0.2691
  119MOL0     C15951  12.170   1.753   2.703 -0.0066  0.8836 -0.4433
  119MOL0     C15952  12.252   1.678   2.596 -0.3507  0.3035 -0.2565
  119MOL0     C15953  12.399   1.673   2.641 -0.0539  0.5284  0.3881
  119MOL0     O15954  12.408   1.590   2.753 -0.3511  0.6671  0.3061
  119MOL0     C15955  12.514   1.593   2.840 -0.1792 -0.8674 -0.1651
  119MOL0     C15956  12.632   1.671   2.819 -0.0570  0.4760  0.0567
  119MOL0     C15957  12.751   1.635   2.890  0.1752  0.8195  0.3093
  119MOL0     C15958  12.752   1.541   2.997 -0.2939  1.1379 -1.0553
  119MOL0     C15959  12.887   1.496   3.058  0.4806 -0.0029 -0.7291
  119MOL0     O15960  12.990   1.572   3.027 -0.0515 -0.7777  0.0646
  119MOL0     C15961  13.114   1.560   3.077  0.8905  0.5839  0.2397
  119MOL0     C15962  13.174   1.445   3.126  0.3115 -0.2147 -0.3236
  119MOL0     C15963  13.299   1.458   3.190  0.4040  0.2279 -0.5096
  119MOL0     C15964  13.364   1.577   3.182  0.2815  0.5118 -0.2735
  119MOL0     O15965  13.488   1.574   3.240  0.4807 -0.0470 -0.0762
  119MOL0     C15966  13.548   1.701   3.270  0.9014 -0.6477 -0.3230
  119MOL0     C15967  13.666   1.675   3.363  0.5130  0.2130  0.6644
  119MOL0     C15968  13.733   1.808   3.386 -0.3490  0.0505  0.3680
  119MOL0     C15969  13.869   1.785   3.451 -0.0051 -0.4157  0.1879
  119MOL0     C15970  13.964   1.910   3.432  0.5668  0.4362 -0.2740
  119MOL0     C15971  13.914   2.025   3.522 -0.2482  0.1152 -0.1415
  119MOL0     C15972  13.966   2.165   3.478  1.3547 -0.3046  0.3959
  119MOL0     C15973  14.098   2.168   3.415  0.6668  0.4013 -0.1920
  119MOL0    Cl15974  14.215   2.135   3.535  0.2804  0.0347 -0.0086
  119MOL0     C15975  13.308   1.686   3.120 -0.0056 -0.3811  0.3716
  119MOL0     C15976  13.183   1.680   3.063  0.3507  0.6939  0.1288
  119MOL0     O15977  12.889   1.399   3.135 -0.1411 -0.1172 -0.1293
  119MOL0     C15978  12.634   1.467   3.016  1.0093 -0.3731  0.0204
  119MOL0     C15979  12.521   1.492   2.934 -0.1264  0.2851  0.0465
  119MOL0     N15980  11.976   1.854   2.902 -0.0581  1.0225  0.4862
  119MOL0     N15981  11.858   1.863   2.955  0.0337 -0.9511  0.3335
  119MOL0     C15982  10.798   1.528   2.823 -0.5692 -0.7439  0.5293
  119MOL0     C15983  10.691   1.607   2.772 -0.1437  0.4163  0.4597
  119MOL0     C15984  10.324   1.828   2.699 -0.1595 -0.3799  0.0414
  119MOL0     C15985  10.330   1.964   2.737  0.0286 -1.4080  0.3412
  119MOL0     C15986  10.242   2.060   2.691 -0.1122 -0.2465  0.1218
  119MOL0     C15987  10.137   2.019   2.601  0.1286  0.4319 -0.6507
  119MOL0     O15988  10.069   2.121   2.546 -0.0068 -0.0128 -0.3271
  119MOL0     C15989   9.938   2.110   2.493 -0.5278 -0.6298  0.0251
  119MOL0     C15990   9.950   2.139   2.345 -0.0710  0.0097 -0.0052
  119MOL0     C15991   9.821   2.177   2.292  0.6961  0.0558 -0.4146
  119MOL0     C15992   9.836   2.215   2.139 -0.5331 -0.0058 -0.0345
  119MOL0     C15993   9.722   2.284   2.091  0.3489  0.0144  0.2539
  119MOL0     C15994   9.615   2.342   2.057 -0.0385  0.2744 -0.1062
  119MOL0     C15995  10.131   1.883   2.568 -0.0271 -0.5551 -0.5749
  119MOL0     C15996  10.227   1.790   2.609  0.3625 -0.3812 -0.2075
  119MOL0     C15997  10.224   1.657   2.540  0.0327  0.4578 -1.0578
  119MOL0     H15998  10.625   1.789   3.060 -2.8332  0.0232 -1.6214
  119MOL0     H15999  10.787   1.643   3.147  2.4043  2.5022 -1.2261
  119MOL0     H16000  10.866   1.415   3.202  1.4187 -0.2238  2.2304
  119MOL0     H16001  10.988   1.313   3.133 -3.7125 -0.5038  3.0317
  119MOL0     H16002  11.067   1.451   3.314  0.5680 -2.0430 -1.0076
  119MOL0     H16003  11.018   1.597   3.213  1.4422  0.8902  1.5890
  119MOL0     H16004  11.184   1.510   3.037  3.3398 -2.0726 -0.5791
  119MOL0     H16005  11.240   1.403   3.166 -1.3204 -0.5302  1.4423
  119MOL0     H16006  11.242   1.702   3.189 -0.8236 -0.8663 -0.2587
  119MOL0     H16007  11.263   1.596   3.333  1.5895  0.0628  0.3509
  119MOL0     H16008  11.482   1.657   3.271 -0.3229 -0.5709  0.2441
  119MOL0     H16009  11.461   1.483   3.231  0.6713 -0.2794  1.1765
  119MOL0     H16010  11.437   1.527   2.989  0.0194 -2.5554  1.6343
  119MOL0     H16011  11.446   1.703   3.018  1.7057  0.0156 -1.3005
  119MOL0     H16012  11.626   1.628   2.913  0.1134 -1.6617 -0.3020
  119MOL0     H16013  11.662   1.507   3.036  1.0500  0.0327 -0.7256
  119MOL0     H16014  11.669   1.809   3.112 -2.8853 -0.9690 -0.6561
  119MOL0     H16015  11.754   1.673   3.190 -1.4425 -1.1711  1.3845
  119MOL0     H16016  11.912   1.538   2.952  1.3047 -0.5856  0.2687
  119MOL0     H16017  12.212   1.648   2.904 -1.6011 -0.7124  2.0012
  119MOL0     H16018  12.119   1.555   2.797 -1.0352  0.3623  1.7606
  119MOL0     H16019  12.079   1.792   2.657  0.2615  2.5324  0.3365
  119MOL0     H16020  12.230   1.840   2.732  0.5823  0.8867 -1.6044
  119MOL0     H16021  12.249   1.731   2.500 -1.3475  1.4900  0.4100
  119MOL0     H16022  12.220   1.575   2.577 -2.8920  0.4538  2.5271
  119MOL0     H16023  12.423   1.776   2.667 -1.8431  0.9068  0.6483
  119MOL0     H16024  12.474   1.644   2.567 -1.6302 -0.2247 -0.9637
  119MOL0     H16025  12.644   1.747   2.741 -3.0009  0.7084 -0.2802
  119MOL0     H16026  12.838   1.697   2.871 -0.5775  2.4088  1.7233
  119MOL0     H16027  13.120   1.351   3.123 -0.7932  0.3841  0.0956
  119MOL0     H16028  13.352   1.371   3.228 -1.1502 -0.2228  0.7341
  119MOL0     H16029  13.565   1.760   3.179 -0.9445  1.7814  0.7844
  119MOL0     H16030  13.478   1.770   3.319  2.5195  0.8761 -0.0525
  119MOL0     H16031  13.642   1.621   3.455 -0.6696  1.4427  1.1148
  119MOL0     H16032  13.734   1.618   3.299  2.6443  0.9039  2.2157
  119MOL0     H16033  13.752   1.865   3.294  2.3008 -0.6523  0.4022
  119MOL0     H16034  13.660   1.857   3.451  2.1507 -0.8956  4.2258
  119MOL0     H16035  13.905   1.694   3.403 -5.0785 -1.0980 -3.0557
  119MOL0     H16036  13.847   1.770   3.557  1.5133  0.8167  0.7136
  119MOL0     H16037  13.953   1.938   3.326  0.9965 -0.7233 -0.6373
  119MOL0     H16038  14.069   1.893   3.455  0.1632 -1.1925  0.5304
  119MOL0     H16039  13.805   2.035   3.515 -0.0943  1.3576 -1.0838
  119MOL0     H16040  13.934   2.005   3.628 -1.2133  0.8367  0.1960
  119MOL0     H16041  13.960   2.231   3.565  1.8257  1.9052 -1.1590
  119MOL0     H16042  13.888   2.199   3.408 -0.0370  1.2764  2.5773
  119MOL0     H16043  14.110   2.102   3.328  2.1841 -0.2831  0.4902
  119MOL0     H16044  14.114   2.268   3.373  2.7821  0.5484  0.8207
  119MOL0     H16045  13.360   1.781   3.111 -1.0156  0.0805 -0.8429
  119MOL0     H16046  13.143   1.770   3.017  1.4940  1.8498  1.3078
  119MOL0     H16047  12.640   1.390   3.093  2.7327 -0.9195 -0.6121
  119MOL0     H16048  12.440   1.422   2.950 -1.1102  1.7425  1.7990
  119MOL0     H16049  10.849   1.459   2.755 -0.6676  0.7430 -1.1236
  119MOL0     H16050  10.654   1.590   2.672 -1.3208  0.7276  0.8228
  119MOL0     H16051  10.414   1.987   2.802 -0.9167  1.5969  0.6606
  119MOL0     H16052  10.253   2.165   2.715 -1.9778 -0.1363  0.6473
  119MOL0     H16053   9.887   2.186   2.552  1.7156  0.5515  0.5652
  119MOL0     H16054   9.894   2.012   2.511 -0.6291 -0.6726 -0.4401
  119MOL0     H16055   9.987   2.050   2.293 -0.8848 -0.8644  0.8773
  119MOL0     H16056  10.023   2.219   2.328  1.6845 -1.0565  1.9649
  119MOL0     H16057   9.785   2.270   2.337 -4.0593 -1.0013 -1.4233
  119MOL0     H16058   9.750   2.096   2.311  1.4643 -0.5838 -0.2301
  119MOL0     H16059   9.924   2.278   2.130  0.8464 -1.0301  4.0615
  119MOL0     H16060   9.849   2.121   2.085 -0.8287 -0.5867  0.8752
  119MOL0     H16061   9.527   2.396   2.026 -0.6734  0.0173  1.2082
  119MOL0     H16062  10.058   1.843   2.498 -0.7827 -0.3264  0.0696
  119MOL0     H16063  10.212   1.572   2.608 -1.1680  1.1656 -0.3454
  119MOL0     H16064  10.140   1.646   2.470  1.7492  0.5988 -3.2443
  119MOL0     H16065  10.317   1.630   2.489  1.4362  0.5522  1.2989
  120MOL0     O16066   1.166   2.997  10.222 -0.0118  0.1671 -0.0187
  120MOL0     C16067   1.131   2.946  10.118  0.1855 -0.7137 -0.1371
  120MOL0     O16068   1.208   2.932  10.009  0.2689  0.1451 -0.4498
  120MOL0     C16069   1.347   2.944  10.018 -0.4327  0.6025 -0.0792
  120MOL0     C16070   1.413   2.847  10.094 -0.0528 -0.0368  0.2741
  120MOL0     C16071   1.555   2.856  10.114  0.2888 -0.4938 -0.0867
  120MOL0     C16072   1.630   2.953  10.041 -0.3649 -0.0118  0.6330
  120MOL0     O16073   1.770   2.966  10.055 -0.7781  0.0003 -0.7777
  120MOL0     C16074   1.853   2.864  10.113 -0.0047  0.2668 -0.6098
  120MOL0     C16075   1.993   2.899  10.137 -0.5090 -0.0679  0.1438
  120MOL0     C16076   2.070   2.963  10.017 -0.0436 -0.1321  0.1763
  120MOL0     C16077   2.220   2.940  10.026  0.8740 -0.4908 -0.9051
  120MOL0     C16078   2.297   2.987   9.900  1.2693  0.4641  0.8642
  120MOL0     C16079   2.253   2.923   9.774 -0.3993  0.9316  0.3084
  120MOL0     C16080   2.372   2.946   9.676  0.0925  0.4325 -0.9174
  120MOL0     C16081   2.375   2.894   9.538 -0.2379 -0.8236 -0.1284
  120MOL0     N16082   2.497   2.936   9.472 -0.3939  0.8296  0.3689
  120MOL0     C16083   2.620   2.888   9.505 -0.1326  0.8088  0.9064
  120MOL0     C16084   2.714   2.958   9.434  0.0244 -0.2048 -0.7610
  120MOL0     C16085   2.859   2.945   9.441  0.0291  0.0728  0.4202
  120MOL0     C16086   2.930   2.904   9.304  1.1652  0.8891  0.2697
  120MOL0     C16087   3.085   2.914   9.299 -0.5735 -0.1037  0.5510
  120MOL0     C16088   3.144   2.873   9.158  0.0122 -0.1634  0.5507
  120MOL0     O16089   3.285   2.893   9.174  0.1538  0.3172 -0.5100
  120MOL0     C16090   3.373   2.847   9.079  0.4505  0.0617 -0.0704
  120MOL0     C16091   3.502   2.888   9.104  0.6118 -0.0982  0.1016
  120MOL0     C16092   3.609   2.848   9.021  0.0783  0.4712  0.4215
  120MOL0     C16093   3.585   2.761   8.911  0.2210 -0.1098 -0.0295
  120MOL0     C16094   3.696   2.684   8.839 -0.1949 -0.5229 -0.5018
  120MOL0     O16095   3.660   2.580   8.757  0.1386  0.1685 -0.1296
  120MOL0     C16096   3.759   2.532   8.671 -0.2036 -0.0372  0.1243
  120MOL0     C16097   3.760   2.540   8.534  0.0318  0.5610  0.4801
  120MOL0     C16098   3.860   2.475   8.461 -0.1521 -0.3647  0.2214
  120MOL0     C16099   3.967   2.411   8.527  0.8056  0.3922 -0.0353
  120MOL0     O16100   4.067   2.364   8.437  0.3406  0.2015 -0.5567
  120MOL0     C16101   4.179   2.291   8.486 -0.0346  0.1918  0.7839
  120MOL0     C16102   4.263   2.244   8.369 -0.2979 -0.1396  0.4874
  120MOL0     C16103   4.354   2.125   8.392 -0.5116  0.9390 -0.4047
  120MOL0     C16104   4.284   1.993   8.404  0.0133  0.0522  0.0862
  120MOL0     C16105   4.387   1.881   8.413  0.3593 -0.5345  0.5370
  120MOL0     C16106   4.467   1.853   8.278 -0.2792  0.3857  0.0102
  120MOL0     C16107   4.526   1.711   8.290  0.1256 -0.8620  0.6768
  120MOL0     C16108   4.630   1.680   8.183 -0.9251 -0.0506 -0.8722
  120MOL0    Cl16109   4.790   1.775   8.209  0.0746 -0.0086 -0.0248
  120MOL0     C16110   3.972   2.413   8.666  0.0262 -0.0952 -0.6106
  120MOL0     C16111   3.864   2.468   8.734 -0.0687  1.1918  0.4922
  120MOL0     O16112   3.807   2.732   8.853 -0.4085  0.1036  0.1629
  120MOL0     C16113   3.446   2.731   8.883 -0.2115  0.0700  0.1942
  120MOL0     C16114   3.342   2.762   8.973 -0.0864  0.3359  0.0016
  120MOL0     N16115   2.645   3.054   9.359 -0.0939 -0.4356 -0.0532
  120MOL0     N16116   2.515   3.041   9.384 -0.8763  0.7090  0.3309
  120MOL0     C16117   1.554   3.036   9.950  0.1033 -0.3420  0.1729
  120MOL0     C16118   1.420   3.036   9.944 -1.1402  0.6179 -0.4216
  120MOL0     C16119   0.983   2.918  10.111 -0.0626  0.5866 -0.5911
  120MOL0     C16120   0.935   2.841  10.000  1.1462  0.1474  0.1132
  120MOL0     C16121   0.808   2.773   9.995  0.6095 -0.2834  0.9777
  120MOL0     C16122   0.717   2.810  10.089 -0.3719 -0.7215 -0.6583
  120MOL0     O16123   0.592   2.768  10.073  0.5119 -0.7215 -0.2008
  120MOL0     C16124   0.552   2.632  10.102  0.0609 -0.3853  0.8389
  120MOL0     C16125   0.522   2.611  10.254 -0.5249 -0.0394  0.1479
  120MOL0     C16126   0.391   2.672  10.306  0.2593 -0.3695  0.4701
  120MOL0     C16127   0.369   2.669  10.455  0.3960 -0.2576 -0.1290
  120MOL0     C16128   0.481   2.746  10.508  0.4544  0.5203 -0.3299
  120MOL0     C16129   0.568   2.812  10.558 -0.7514 -0.2389 -0.6349
  120MOL0     C16130   0.759   2.894  10.200  0.1983 -0.1772  0.6134
  120MOL0     C16131   0.890   2.936  10.220  0.5981  0.9139  1.1729
  120MOL0     C16132   0.918   3.004  10.346  0.3219  0.3163 -0.5046
  120MOL0     H16133   1.364   2.769  10.151 -1.9209  0.8319 -0.0606
  120MOL0     H16134   1.605   2.805  10.196  0.5939 -0.2706 -0.1309
  120MOL0     H16135   1.818   2.838  10.213  2.7897  1.0415  0.6534
  120MOL0     H16136   1.851   2.772  10.054  2.1180 -1.9275  2.4664
  120MOL0     H16137   2.044   2.808  10.169  1.1959  1.2452  1.3136
  120MOL0     H16138   1.990   2.972  10.219  2.5774  0.2810  0.0521
  120MOL0     H16139   2.048   3.070  10.010  0.4168  0.0209  0.9021
  120MOL0     H16140   2.039   2.908   9.928  0.4035  0.1226 -0.1404
  120MOL0     H16141   2.262   2.999  10.108 -0.8968  1.2311 -1.1575
  120MOL0     H16142   2.249   2.838  10.053  2.6773  0.3512  0.5662
  120MOL0     H16143   2.283   3.095   9.887 -0.2145  0.0885 -1.2643
  120MOL0     H16144   2.405   2.975   9.916  1.5753  1.4390 -0.3436
  120MOL0     H16145   2.239   2.816   9.793  0.8262  0.8850  1.0447
  120MOL0     H16146   2.161   2.966   9.734 -1.7546 -0.1109  2.1144
  120MOL0     H16147   2.457   2.904   9.731  0.4291  2.1731 -0.0302
  120MOL0     H16148   2.372   3.055   9.684 -2.7978  0.4304  0.4471
  120MOL0     H16149   2.380   2.784   9.535 -1.1514 -0.8734 -0.1058
  120MOL0     H16150   2.286   2.927   9.484  1.0446  1.4827 -0.9695
  120MOL0     H16151   2.642   2.812   9.579 -2.2158  0.8747  1.6650
  120MOL0     H16152   2.900   3.043   9.469  1.4319 -0.5438  0.6040
  120MOL0     H16153   2.889   2.884   9.526 -1.1348 -0.5179  0.4138
  120MOL0     H16154   2.905   2.801   9.277  1.4673  1.0741 -0.7427
  120MOL0     H16155   2.900   2.974   9.226 -0.1585 -0.3669 -0.3801
  120MOL0     H16156   3.134   2.854   9.375 -0.6536 -0.4822  0.3037
  120MOL0     H16157   3.097   3.022   9.314  0.3811 -0.6117  4.4902
  120MOL0     H16158   3.106   2.937   9.077  1.0210  2.2980  1.9099
  120MOL0     H16159   3.111   2.773   9.131 -0.1406  0.2372 -0.8589
  120MOL0     H16160   3.527   2.932   9.200 -2.9577  0.5614  0.8439
  120MOL0     H16161   3.712   2.863   9.052  0.8831 -3.0932 -0.0662
  120MOL0     H16162   3.679   2.582   8.475  0.5755  0.0928 -0.6369
  120MOL0     H16163   3.857   2.488   8.353  0.6730  2.4732  0.4449
  120MOL0     H16164   4.235   2.359   8.551  1.9071  2.1687 -2.7108
  120MOL0     H16165   4.153   2.200   8.542 -0.4216 -0.8305 -0.9776
  120MOL0     H16166   4.200   2.208   8.287  1.3970 -2.3382  0.0588
  120MOL0     H16167   4.315   2.333   8.333 -1.4651  1.7837  3.2054
  120MOL0     H16168   4.418   2.118   8.303 -0.6639 -0.6960 -0.4132
  120MOL0     H16169   4.417   2.131   8.481 -0.0001 -1.9575 -0.4691
  120MOL0     H16170   4.220   1.959   8.322  0.8554  0.9379 -0.9649
  120MOL0     H16171   4.236   1.992   8.503  1.8669 -0.1546  1.0304
  120MOL0     H16172   4.323   1.798   8.446 -0.7558 -0.2327 -0.7733
  120MOL0     H16173   4.467   1.898   8.486 -0.2701 -1.3455  1.4485
  120MOL0     H16174   4.399   1.853   8.193 -1.4256  2.2773  0.8415
  120MOL0     H16175   4.538   1.935   8.265 -2.1021  2.2192  0.8995
  120MOL0     H16176   4.445   1.639   8.274 -0.1519 -0.2787 -0.6661
  120MOL0     H16177   4.568   1.699   8.390 -1.3817 -0.6370  1.3633
  120MOL0     H16178   4.650   1.573   8.192  0.3004  0.3141  1.7301
  120MOL0     H16179   4.590   1.698   8.083 -1.4171 -1.4692 -0.9517
  120MOL0     H16180   4.058   2.384   8.726  0.1942  0.4605 -0.5812
  120MOL0     H16181   3.858   2.453   8.841  0.2413  0.5775  0.4250
  120MOL0     H16182   3.418   2.691   8.786  0.8529 -1.1046  0.3533
  120MOL0     H16183   3.245   2.716   8.958  1.0821 -1.9093 -1.0861
  120MOL0     H16184   1.615   3.097   9.885  1.1835 -0.9546  0.5713
  120MOL0     H16185   1.355   3.094   9.879 -0.2934  0.9368 -1.0100
  120MOL0     H16186   1.010   2.831   9.922 -1.0770  2.0608 -2.4472
  120MOL0     H16187   0.793   2.715   9.904 -1.4605  1.7934 -0.1181
  120MOL0     H16188   0.637   2.569  10.076  0.2878 -0.6577  2.1319
  120MOL0     H16189   0.468   2.600  10.040 -0.6161 -0.1339  1.6004
  120MOL0     H16190   0.610   2.656  10.300 -0.2835  0.6288 -0.9419
  120MOL0     H16191   0.528   2.504  10.275  1.3063 -0.3598 -1.6942
  120MOL0     H16192   0.303   2.623  10.264 -0.7628  3.0078 -1.6810
  120MOL0     H16193   0.380   2.775  10.272  2.7904  0.6344  2.4060
  120MOL0     H16194   0.277   2.722  10.480  1.2207  0.8598  0.6731
  120MOL0     H16195   0.356   2.569  10.496  1.1850 -0.5149 -0.4761
  120MOL0     H16196   0.646   2.868  10.605 -1.4255 -2.1207  3.0715
  120MOL0     H16197   0.672   2.923  10.257 -1.3404 -0.5222 -1.4367
  120MOL0     H16198   0.950   3.103  10.313 -0.7149 -0.2309 -3.5301
  120MOL0     H16199   0.839   3.022  10.419  1.1647  3.1710 -0.1961
  120MOL0     H16200   1.006   2.955  10.390  0.1456 -0.2591 -0.7835
  121MOL0     O16201   4.491   3.074   1.259  0.8923  0.0700  0.1536
  121MOL0     C16202   4.490   3.171   1.333  0.0819 -0.6583 -0.6989
  121MOL0     O16203   4.601   3.247   1.359  0.6030  0.2853 -0.3460
  121MOL0     C16204   4.730   3.206   1.346  0.7811 -0.0149 -1.0263
  121MOL0     C16205   4.828   3.278   1.414  0.1871  0.1687 -0.1304
  121MOL0     C16206   4.966   3.260   1.394 -0.2355  0.8677  0.0588
  121MOL0     C16207   5.016   3.157   1.304  0.3770 -0.1506 -0.3107
  121MOL0     O16208   5.142   3.137   1.272  0.8291  0.0741 -0.5640
  121MOL0     C16209   5.234   3.215   1.339  0.1171 -0.6095 -0.0278
  121MOL0     C16210   5.374   3.171   1.295  0.7015  0.5447 -0.7527
  121MOL0     C16211   5.386   3.200   1.144  0.2804  0.6703 -0.0391
  121MOL0     C16212   5.539   3.181   1.097 -0.4530 -0.3106 -0.2134
  121MOL0     C16213   5.561   3.237   0.955  0.1255  0.5246 -0.1346
  121MOL0     C16214   5.708   3.217   0.921 -0.0632 -0.0610  0.1706
  121MOL0     C16215   5.736   3.270   0.777  0.3043 -0.0973 -0.0146
  121MOL0     C16216   5.882   3.256   0.729 -0.5680  0.1797 -0.1863
  121MOL0     N16217   5.979   3.221   0.834 -0.9807  0.2360  0.4060
  121MOL0     C16218   5.996   3.092   0.882  0.4428 -0.6909 -0.3861
  121MOL0     C16219   6.097   3.100   0.974 -0.2042  0.1439 -0.4521
  121MOL0     C16220   6.131   2.993   1.074 -0.1901 -0.1863  0.7844
  121MOL0     C16221   6.146   3.048   1.218  0.0451  0.6878 -0.1114
  121MOL0     C16222   6.282   3.122   1.247 -0.1698  0.3434  0.7341
  121MOL0     C16223   6.278   3.230   1.363  0.3230  0.3088  0.5186
  121MOL0     O16224   6.287   3.165   1.491  0.6053  0.4166 -0.0426
  121MOL0     C16225   6.412   3.182   1.552  0.3961 -0.2984 -0.0148
  121MOL0     C16226   6.476   3.068   1.597  0.2756  0.2787 -0.4014
  121MOL0     C16227   6.609   3.074   1.661  0.4518  0.4764 -0.0196
  121MOL0     C16228   6.669   3.196   1.685 -1.1473  0.4839  0.5249
  121MOL0     C16229   6.797   3.201   1.754  0.7460  0.2853  0.1437
  121MOL0     O16230   6.871   3.092   1.769  0.4303  0.5566 -0.0362
  121MOL0     C16231   7.009   3.105   1.780 -0.7319 -0.4792 -0.2198
  121MOL0     C16232   7.089   3.200   1.718  1.2022 -0.0223  0.2553
  121MOL0     C16233   7.224   3.197   1.728  0.0240 -0.2319 -0.4981
  121MOL0     C16234   7.289   3.088   1.780  0.1552  0.5767 -0.0081
  121MOL0     O16235   7.427   3.086   1.783 -0.5013 -0.0626  0.7061
  121MOL0     C16236   7.478   3.186   1.866 -1.1000  0.1472 -0.1046
  121MOL0     C16237   7.614   3.143   1.923  0.7754 -0.3655 -0.5242
  121MOL0     C16238   7.723   3.119   1.825  0.3040  0.1306 -0.0621
  121MOL0     C16239   7.857   3.079   1.891  0.8684  0.4641 -0.4293
  121MOL0     C16240   7.968   3.119   1.806  0.1355 -0.2073  0.4629
  121MOL0     C16241   8.099   3.082   1.874 -0.2140 -0.3295 -1.5923
  121MOL0     C16242   8.230   3.139   1.810 -0.7451 -0.3782  0.9676
  121MOL0     C16243   8.225   3.092   1.663 -0.7113 -0.0721  0.2589
  121MOL0    Cl16244   8.403   3.082   1.610  0.3110  0.0299 -0.2963
  121MOL0     C16245   7.213   2.989   1.847 -0.4183 -0.0885 -0.2522
  121MOL0     C16246   7.068   2.993   1.850  0.3216  0.7439  0.9310
  121MOL0     O16247   6.829   3.322   1.778 -0.1090 -0.0117  0.1377
  121MOL0     C16248   6.596   3.314   1.641 -0.9885  0.2820 -1.0270
  121MOL0     C16249   6.471   3.302   1.578 -0.2747 -0.6496  0.7999
  121MOL0     N16250   6.137   3.237   0.979 -0.0956  0.1997  0.9501
  121MOL0     N16251   6.069   3.309   0.893  0.0807  0.7679  0.2140
  121MOL0     C16252   4.915   3.088   1.239 -0.3724 -0.8395  0.0450
  121MOL0     C16253   4.781   3.105   1.268 -0.0958 -0.6993  0.0628
  121MOL0     C16254   4.354   3.208   1.388 -0.9403  0.4465 -0.6915
  121MOL0     C16255   4.367   3.297   1.500 -0.3532  0.2692 -0.6695
  121MOL0     C16256   4.250   3.344   1.548  0.1041 -0.7410 -0.4528
  121MOL0     C16257   4.126   3.318   1.495  0.0874  0.0412  0.0981
  121MOL0     O16258   4.022   3.389   1.555 -0.5422 -0.2329  0.1633
  121MOL0     C16259   3.892   3.382   1.504  0.2388 -0.1458  0.1984
  121MOL0     C16260   3.809   3.466   1.603  0.1862 -0.1195 -0.4985
  121MOL0     C16261   3.658   3.449   1.563 -0.7003 -0.4382 -0.5908
  121MOL0     C16262   3.580   3.319   1.591  0.0202 -0.4462 -0.0555
  121MOL0     C16263   3.443   3.348   1.641 -1.3295  0.0868  0.5717
  121MOL0     C16264   3.341   3.366   1.694 -0.0050 -0.7360 -0.3057
  121MOL0     C16265   4.110   3.224   1.396 -0.2830  0.3187  0.0324
  121MOL0     C16266   4.226   3.172   1.345 -0.3912 -0.0176  0.5687
  121MOL0     C16267   4.213   3.074   1.229  1.2249  0.6931  0.1542
  121MOL0     H16268   4.790   3.361   1.474  1.4699  1.3039 -0.8452
  121MOL0     H16269   5.029   3.328   1.450  0.4036  3.0319 -3.0424
  121MOL0     H16270   5.219   3.323   1.336  1.2625 -0.4294  0.2991
  121MOL0     H16271   5.231   3.190   1.445  1.7161  0.2223  0.2408
  121MOL0     H16272   5.392   3.064   1.313  0.3510  0.5820 -0.1935
  121MOL0     H16273   5.449   3.230   1.349 -2.1746  2.3108  1.5841
  121MOL0     H16274   5.349   3.302   1.132 -2.4412 -0.3932 -1.9876
  121MOL0     H16275   5.321   3.130   1.090 -0.7625  0.1756  1.7897
  121MOL0     H16276   5.604   3.242   1.160 -0.4083  1.8480 -2.2118
  121MOL0     H16277   5.563   3.075   1.098  0.2569 -0.3235  4.6419
  121MOL0     H16278   5.492   3.177   0.896 -1.4535 -0.3658  2.4652
  121MOL0     H16279   5.534   3.343   0.948  0.4960  0.5836 -0.7683
  121MOL0     H16280   5.774   3.274   0.987  0.3420 -0.4532  0.1122
  121MOL0     H16281   5.737   3.112   0.924 -1.6175 -0.5183 -0.1300
  121MOL0     H16282   5.701   3.373   0.782  1.8891  0.5700 -1.6156
  121MOL0     H16283   5.680   3.215   0.701  1.5694  0.5433 -1.4528
  121MOL0     H16284   5.892   3.175   0.656  3.3950  0.2003  0.1168
  121MOL0     H16285   5.909   3.354   0.686  0.7466 -0.1407 -0.1521
  121MOL0     H16286   5.922   3.013   0.874  0.6100 -0.9247  0.3304
  121MOL0     H16287   6.055   2.915   1.069  3.4777 -4.1157  0.6660
  121MOL0     H16288   6.217   2.932   1.046 -0.7209 -0.9652  0.8199
  121MOL0     H16289   6.055   3.102   1.243  0.5880  1.3394  0.4910
  121MOL0     H16290   6.151   2.958   1.280  1.7298  2.0025  1.8198
  121MOL0     H16291   6.296   3.182   1.158 -3.1826  0.4678  0.2367
  121MOL0     H16292   6.363   3.048   1.256 -2.0175 -1.6154  3.0279
  121MOL0     H16293   6.181   3.281   1.365  0.7137  1.3540 -2.2034
  121MOL0     H16294   6.359   3.303   1.354 -1.7727  2.9980  1.9563
  121MOL0     H16295   6.427   2.974   1.572  2.3353 -1.0047  0.1593
  121MOL0     H16296   6.653   2.981   1.695 -3.2151 -1.4461 -0.0154
  121MOL0     H16297   7.044   3.286   1.669 -1.0434 -1.7571 -0.9498
  121MOL0     H16298   7.285   3.283   1.698  0.5222 -0.7101 -0.8842
  121MOL0     H16299   7.502   3.281   1.816 -1.0100  0.9782  1.4399
  121MOL0     H16300   7.404   3.213   1.942 -0.4019  1.0378  0.2952
  121MOL0     H16301   7.652   3.211   2.000 -3.5909 -0.3399  1.9475
  121MOL0     H16302   7.597   3.055   1.985  1.8464  0.8353  1.5681
  121MOL0     H16303   7.680   3.045   1.757 -2.1365 -0.5611  2.1046
  121MOL0     H16304   7.740   3.206   1.761  2.2338 -0.5694 -0.5858
  121MOL0     H16305   7.844   2.972   1.911 -2.2603  0.7874 -0.2280
  121MOL0     H16306   7.864   3.135   1.985 -1.3284 -1.0393  0.7346
  121MOL0     H16307   7.958   3.226   1.785  0.0305 -0.1238  0.9392
  121MOL0     H16308   7.949   3.046   1.727 -0.2454 -1.0907  1.3605
  121MOL0     H16309   8.109   3.130   1.972 -0.5061  0.9673 -2.1789
  121MOL0     H16310   8.107   2.974   1.887  1.0061  0.0148  1.5742
  121MOL0     H16311   8.321   3.106   1.861  0.1777  0.1529 -0.2831
  121MOL0     H16312   8.210   3.245   1.823 -0.2612 -0.1741  0.1532
  121MOL0     H16313   8.186   2.992   1.641 -1.1465  0.4312 -1.3892
  121MOL0     H16314   8.180   3.167   1.597 -1.3590 -0.9244 -0.2971
  121MOL0     H16315   7.270   2.914   1.901 -1.3195 -0.5433  0.0710
  121MOL0     H16316   6.993   2.927   1.890  1.8494 -1.8014 -0.1651
  121MOL0     H16317   6.622   3.412   1.680 -0.1983 -0.7553  1.2119
  121MOL0     H16318   6.420   3.396   1.560  1.5743 -0.0305 -2.0282
  121MOL0     H16319   4.941   3.027   1.153 -1.7354 -1.7457  0.2490
  121MOL0     H16320   4.711   3.047   1.210  1.4434 -0.2929 -2.3404
  121MOL0     H16321   4.466   3.329   1.530 -0.9766  1.2860  0.3970
  121MOL0     H16322   4.256   3.413   1.631 -0.4378  0.7194 -1.5781
  121MOL0     H16323   3.853   3.280   1.491 -0.2227  0.0246  0.2386
  121MOL0     H16324   3.895   3.436   1.409  2.7917  1.1112  0.9201
  121MOL0     H16325   3.835   3.572   1.604  0.1671 -0.1042  1.4989
  121MOL0     H16326   3.811   3.419   1.701 -2.6592  3.6524  1.6054
  121MOL0     H16327   3.638   3.481   1.460  1.3461 -0.9272 -1.1815
  121MOL0     H16328   3.611   3.531   1.618 -0.2076 -0.7726  0.3533
  121MOL0     H16329   3.601   3.256   1.504 -0.0511 -0.4301 -0.0838
  121MOL0     H16330   3.627   3.273   1.679 -0.4207 -0.8728 -0.0387
  121MOL0     H16331   3.243   3.387   1.730  0.0528 -2.3468  0.9468
  121MOL0     H16332   4.009   3.199   1.367 -1.0686 -0.8324  3.3663
  121MOL0     H16333   4.278   3.100   1.145 -1.5234 -1.5631 -2.9172
  121MOL0     H16334   4.241   2.973   1.258 -0.4270 -0.4752 -2.0302
  121MOL0     H16335   4.112   3.067   1.188  0.4951  2.8408  1.4113
  122MOL0     O16336   9.221   0.176   7.642 -0.0997  0.9697 -0.4253
  122MOL0     C16337   9.226   0.067   7.584  0.0836 -0.3709 -0.1236
  122MOL0     O16338   9.337   0.023   7.520 -0.8377 -0.3296  0.1510
  122MOL0     C16339   9.429   0.131   7.502  0.2455  0.0194 -0.0245
  122MOL0     C16340   9.462   0.170   7.370 -0.1448  1.0609  0.0543
  122MOL0     C16341   9.554   0.274   7.356 -0.4906  0.7739 -0.9329
  122MOL0     C16342   9.627   0.320   7.466 -0.5710  0.7803 -0.5983
  122MOL0     O16343   9.725   0.414   7.458  0.3658  0.3029 -0.6497
  122MOL0     C16344   9.663   0.541   7.447 -0.2977 -0.4191  0.7629
  122MOL0     C16345   9.765   0.663   7.449 -0.0720 -0.0128  0.1355
  122MOL0     C16346   9.854   0.654   7.566 -0.2551 -0.4498 -0.2289
  122MOL0     C16347   9.770   0.667   7.691 -0.1923  0.2055  0.6695
  122MOL0     C16348   9.862   0.669   7.820  0.8072  0.2928 -0.3918
  122MOL0     C16349   9.790   0.704   7.948 -0.3512  0.4380  0.7251
  122MOL0     C16350   9.876   0.678   8.078 -0.6779 -0.5558 -0.2400
  122MOL0     C16351   9.783   0.715   8.198  0.9722 -0.4506  0.1949
  122MOL0     N16352   9.859   0.715   8.333  0.3126 -0.1772 -0.3011
  122MOL0     C16353   9.807   0.660   8.454  0.0564 -0.1042 -0.4067
  122MOL0     C16354   9.901   0.706   8.541  0.2546 -0.0487  0.4715
  122MOL0     C16355   9.891   0.672   8.687 -0.5106  0.4178 -0.2018
  122MOL0     C16356   9.984   0.560   8.741  0.2103  0.7226 -0.6960
  122MOL0     C16357   9.961   0.561   8.897 -0.1948  0.4407  0.2165
  122MOL0     C16358  10.011   0.422   8.958  0.0051 -0.5740  0.6578
  122MOL0     O16359  10.040   0.427   9.095 -0.5114  0.0847 -0.1134
  122MOL0     C16360  10.176   0.446   9.125  0.6881 -0.2028 -0.2481
  122MOL0     C16361  10.273   0.507   9.039  0.3206  0.2799 -0.4651
  122MOL0     C16362  10.402   0.519   9.081 -0.8256 -0.3586 -0.1067
  122MOL0     C16363  10.442   0.478   9.210 -1.0886 -0.6616  0.3115
  122MOL0     C16364  10.588   0.483   9.251  0.7510 -0.2211  0.5436
  122MOL0     O16365  10.679   0.550   9.172  0.1387  0.3575 -0.6014
  122MOL0     C16366  10.804   0.553   9.230 -0.0965 -0.2493 -0.0263
  122MOL0     C16367  10.837   0.641   9.333 -0.5711  0.1269  0.1030
  122MOL0     C16368  10.965   0.656   9.386  0.1936  0.0097 -0.5286
  122MOL0     C16369  11.066   0.577   9.324 -0.1774  0.4561  0.6202
  122MOL0     O16370  11.201   0.592   9.339 -0.3270 -0.2201  0.5426
  122MOL0     C16371  11.250   0.669   9.448 -0.0403  0.5944  0.1429
  122MOL0     C16372  11.402   0.675   9.424 -0.1007 -0.0517 -0.6653
  122MOL0     C16373  11.463   0.748   9.546 -0.7154  0.1603  0.2006
  122MOL0     C16374  11.583   0.829   9.502 -0.6796  0.0259 -0.6073
  122MOL0     C16375  11.699   0.735   9.489 -1.0461 -0.8212  0.0830
  122MOL0     C16376  11.762   0.724   9.629  0.7342  0.6854 -0.0758
  122MOL0     C16377  11.873   0.610   9.627  0.6295 -0.9787  0.0199
  122MOL0     C16378  11.934   0.638   9.765 -0.4335 -0.3421  0.8179
  122MOL0    Cl16379  12.088   0.550   9.771 -0.0174  0.5073  0.0700
  122MOL0     C16380  11.035   0.481   9.221  0.2276  0.5626  0.3479
  122MOL0     C16381  10.903   0.465   9.180  1.0999  0.1600  0.1780
  122MOL0     O16382  10.613   0.426   9.358 -0.3847 -0.6042  1.3232
  122MOL0     C16383  10.349   0.423   9.292  1.1947 -0.9578  0.7462
  122MOL0     C16384  10.217   0.407   9.246 -0.2683 -0.2762 -0.8606
  122MOL0     N16385   9.995   0.779   8.482  0.1387 -0.5106 -0.7290
  122MOL0     N16386   9.973   0.785   8.359 -0.3957 -0.0159 -0.1816
  122MOL0     C16387   9.602   0.270   7.593  0.3599 -1.6729 -0.5647
  122MOL0     C16388   9.508   0.170   7.613  0.1317  0.5480  0.2545
  122MOL0     C16389   9.101  -0.001   7.565  1.1485  0.3355 -0.4573
  122MOL0     C16390   9.110  -0.138   7.594  0.3538  0.4778  0.0851
  122MOL0     C16391   9.013  -0.231   7.554  0.1987  0.0027 -0.3365
  122MOL0     C16392   8.889  -0.182   7.519 -0.2053  0.4978  0.4221
  122MOL0     O16393   8.794  -0.280   7.502  0.2333  0.3489 -0.1741
  122MOL0     C16394   8.662  -0.248   7.465  0.4599 -0.3327 -0.3710
  122MOL0     C16395   8.563  -0.360   7.500 -0.7225 -0.0191 -0.2312
  122MOL0     C16396   8.547  -0.452   7.388 -0.3770  0.1591 -0.0831
  122MOL0     C16397   8.499  -0.595   7.442  1.0740 -0.5231  0.1102
  122MOL0     C16398   8.378  -0.593   7.526 -0.6600 -0.2942 -0.2457
  122MOL0     C16399   8.281  -0.591   7.591 -0.2232 -0.0688  0.2928
  122MOL0     C16400   8.871  -0.042   7.508 -0.1175 -0.5413  0.5313
  122MOL0     C16401   8.984   0.048   7.517  0.3373  0.1436  1.0614
  122MOL0     C16402   8.949   0.192   7.497  0.1123  0.9692  0.2423
  122MOL0     H16403   9.404   0.117   7.295 -0.1986  1.1369  0.0428
  122MOL0     H16404   9.581   0.309   7.256 -0.8736  1.2172 -0.8851
  122MOL0     H16405   9.605   0.534   7.355  0.0708  0.7452  0.4281
  122MOL0     H16406   9.590   0.560   7.527 -2.6745 -1.0766 -1.1377
  122MOL0     H16407   9.709   0.756   7.459  1.1746  0.8421 -0.5617
  122MOL0     H16408   9.826   0.659   7.358  0.5402 -1.2864  0.5654
  122MOL0     H16409   9.940   0.721   7.560 -0.3934 -0.1415  0.9738
  122MOL0     H16410   9.901   0.555   7.574  0.5566 -0.0859 -0.4171
  122MOL0     H16411   9.713   0.759   7.680 -0.7736 -0.2750 -0.5895
  122MOL0     H16412   9.693   0.590   7.708 -1.9331  1.5610 -0.7120
  122MOL0     H16413   9.906   0.570   7.835  1.2063  0.5906  0.4290
  122MOL0     H16414   9.953   0.727   7.799  1.1139 -0.2750 -0.6425
  122MOL0     H16415   9.761   0.808   7.930  1.1060  0.9287  1.0680
  122MOL0     H16416   9.700   0.643   7.955  1.2478 -2.2792 -0.5868
  122MOL0     H16417   9.968   0.736   8.080  1.9952 -4.3176 -2.1386
  122MOL0     H16418   9.906   0.573   8.085  0.6401 -0.1831 -0.1466
  122MOL0     H16419   9.748   0.817   8.178  0.1484 -0.9103 -0.8175
  122MOL0     H16420   9.697   0.648   8.200 -0.7856  1.6460 -0.2387
  122MOL0     H16421   9.725   0.592   8.474  1.6456 -1.7464  0.8572
  122MOL0     H16422   9.923   0.767   8.731  2.0262  0.6861 -2.3780
  122MOL0     H16423   9.788   0.645   8.710 -0.0975 -0.9718  0.1082
  122MOL0     H16424   9.947   0.466   8.700  0.8740 -0.5993  1.5781
  122MOL0     H16425  10.092   0.571   8.728  0.2513  1.9596  0.4816
  122MOL0     H16426   9.854   0.583   8.907 -0.8281 -1.0675 -2.2944
  122MOL0     H16427  10.018   0.634   8.955  0.1143 -1.1936  2.1087
  122MOL0     H16428  10.094   0.389   8.896  0.4956  0.8753  0.5028
  122MOL0     H16429   9.933   0.348   8.938  0.0254 -0.6708  0.9290
  122MOL0     H16430  10.254   0.554   8.943  0.0837 -0.3207 -0.7167
  122MOL0     H16431  10.485   0.559   9.024  0.4837 -4.5346 -1.5376
  122MOL0     H16432  10.766   0.715   9.370  0.6368  0.7779  1.2439
  122MOL0     H16433  10.989   0.727   9.463  0.6637 -0.4413 -0.2543
  122MOL0     H16434  11.212   0.771   9.443 -2.6806 -0.3014  0.0793
  122MOL0     H16435  11.235   0.616   9.543  1.1115  1.6404  0.9325
  122MOL0     H16436  11.443   0.574   9.416 -3.3703 -1.8409  2.1147
  122MOL0     H16437  11.414   0.732   9.332  1.0808  1.5104  0.3950
  122MOL0     H16438  11.385   0.814   9.584  0.4468  1.8232 -0.2030
  122MOL0     H16439  11.484   0.667   9.617  1.2277  1.0674  0.7320
  122MOL0     H16440  11.608   0.908   9.573  0.5571  1.5450 -2.6400
  122MOL0     H16441  11.557   0.867   9.403  2.0332  0.7509 -1.1164
  122MOL0     H16442  11.779   0.774   9.425 -1.4766 -0.3791 -0.1929
  122MOL0     H16443  11.671   0.639   9.443 -2.3959 -0.6045  0.3941
  122MOL0     H16444  11.796   0.824   9.659 -0.6609  1.1672 -0.0277
  122MOL0     H16445  11.685   0.692   9.699  2.4577 -0.5767  1.3228
  122MOL0     H16446  11.945   0.646   9.553  1.1599  1.3943  1.5541
  122MOL0     H16447  11.834   0.510   9.605 -1.6465 -0.5689  1.8310
  122MOL0     H16448  11.951   0.746   9.765 -1.8829  0.1097 -4.0090
  122MOL0     H16449  11.877   0.600   9.851 -0.8019  0.2292  0.8347
  122MOL0     H16450  11.108   0.424   9.165  1.5679  1.1324  1.4501
  122MOL0     H16451  10.866   0.408   9.095  2.1020  0.6516 -0.6014
  122MOL0     H16452  10.368   0.399   9.397  3.0680 -3.3994 -0.0597
  122MOL0     H16453  10.153   0.371   9.326  1.5166 -1.6309  0.0272
  122MOL0     H16454   9.658   0.313   7.675 -1.9651  0.0416  0.2273
  122MOL0     H16455   9.488   0.140   7.715  0.3040  0.0155  0.1377
  122MOL0     H16456   9.200  -0.179   7.639  1.1099 -0.4568 -2.1563
  122MOL0     H16457   9.036  -0.335   7.571  3.7793  1.0587  2.4743
  122MOL0     H16458   8.653  -0.216   7.360 -2.1099 -2.2887 -0.8377
  122MOL0     H16459   8.625  -0.169   7.531 -1.1353 -0.3352 -1.2069
  122MOL0     H16460   8.464  -0.313   7.510  1.0708  4.4471 -0.8293
  122MOL0     H16461   8.593  -0.421   7.586 -1.3486 -2.2352 -1.5097
  122MOL0     H16462   8.640  -0.464   7.331 -0.3618 -0.3046  0.0338
  122MOL0     H16463   8.469  -0.412   7.322  0.3658 -0.6659 -1.5114
  122MOL0     H16464   8.470  -0.657   7.356 -3.9702  2.0699 -0.4721
  122MOL0     H16465   8.579  -0.645   7.498  1.1517 -0.6929 -0.1519
  122MOL0     H16466   8.188  -0.569   7.640 -0.7447  2.6520 -1.6573
  122MOL0     H16467   8.774   0.005   7.494 -0.2189 -0.3378  1.8425
  122MOL0     H16468   8.909   0.237   7.589 -1.1781  0.0737  0.1498
  122MOL0     H16469   9.043   0.242   7.475  1.1342 -1.0513 -0.2008
  122MOL0     H16470   8.883   0.209   7.411  0.6383  0.0535 -0.3562
  123MOL0     O16471   8.998   9.527   9.178 -0.1099 -0.1107 -0.2950
  123MOL0     C16472   8.908   9.478   9.111 -0.2996  0.1636 -0.1769
  123MOL0     O16473   8.914   9.352   9.073  0.0219  0.4138 -0.3100
  123MOL0     C16474   9.024   9.278   9.106  0.0471  0.0352 -0.5154
  123MOL0     C16475   9.053   9.241   9.236  0.9244  0.1272 -0.5294
  123MOL0     C16476   9.157   9.153   9.263 -0.5715  0.8668 -0.4450
  123MOL0     C16477   9.245   9.110   9.161 -0.4737  0.3968 -0.4283
  123MOL0     O16478   9.332   9.001   9.185  0.3151  0.1557 -0.3431
  123MOL0     C16479   9.358   8.905   9.079 -1.0254  0.0082 -0.7354
  123MOL0     C16480   9.478   8.946   8.986  0.5089  0.5808 -0.0304
  123MOL0     C16481   9.609   8.961   9.061 -0.3798 -0.1676  0.4468
  123MOL0     C16482   9.697   9.070   9.012 -0.3515 -0.7082  0.1893
  123MOL0     C16483   9.808   9.098   9.118  0.1500 -0.4479 -0.1063
  123MOL0     C16484   9.921   9.175   9.061 -0.0718  0.0104 -0.6053
  123MOL0     C16485  10.001   9.237   9.178  0.4086  0.1202 -0.7921
  123MOL0     C16486  10.122   9.329   9.139  0.9349  0.0139 -0.3004
  123MOL0     N16487  10.213   9.367   9.248 -0.4518  0.0295  0.4841
  123MOL0     C16488  10.281   9.485   9.252 -0.1890  0.3935  0.4423
  123MOL0     C16489  10.363   9.462   9.354  0.2024 -0.0613 -1.9086
  123MOL0     C16490  10.460   9.561   9.413  0.4232 -0.2615 -0.5972
  123MOL0     C16491  10.595   9.515   9.361 -0.2860  0.3778  0.3735
  123MOL0     C16492  10.680   9.452   9.474  0.7163  0.2405  0.5756
  123MOL0     C16493  10.818   9.432   9.418  0.5214 -0.2199 -0.3779
  123MOL0     O16494  10.867   9.564   9.392  0.0074  0.2269  0.8138
  123MOL0     C16495  11.007   9.583   9.375  0.1607  0.7871  0.1182
  123MOL0     C16496  11.104   9.477   9.367 -0.1181 -0.1142  0.3340
  123MOL0     C16497  11.240   9.514   9.367 -0.0470 -0.1569  0.5650
  123MOL0     C16498  11.289   9.649   9.365 -0.3497 -0.1294 -0.7107
  123MOL0     C16499  11.432   9.672   9.346  0.6228  0.0440  0.4499
  123MOL0     O16500  11.516   9.571   9.368 -0.1042 -0.8525  1.0001
  123MOL0     C16501  11.650   9.596   9.352  0.6464 -0.3097 -0.3284
  123MOL0     C16502  11.721   9.669   9.450  0.0343 -0.2335  0.1409
  123MOL0     C16503  11.857   9.701   9.436  0.1579  0.3467 -0.0113
  123MOL0     C16504  11.927   9.640   9.329  0.2003 -0.7261  0.2915
  123MOL0     O16505  12.060   9.676   9.322 -0.5784 -0.1829  0.1716
  123MOL0     C16506  12.150   9.624   9.219  0.0974  0.2059 -0.0628
  123MOL0     C16507  12.277   9.694   9.223  0.3806 -0.6996 -0.4158
  123MOL0     C16508  12.359   9.660   9.100  0.8507  0.4636 -0.0695
  123MOL0     C16509  12.492   9.739   9.114  0.1472 -0.1512 -0.0126
  123MOL0     C16510  12.562   9.753   8.987 -0.7407 -0.0278  0.3501
  123MOL0     C16511  12.700   9.829   9.010  0.6703 -0.1412 -0.1932
  123MOL0     C16512  12.804   9.856   8.899  0.4316 -0.3888 -1.1128
  123MOL0     C16513  12.929   9.938   8.946 -0.4995  0.4715  0.4513
  123MOL0    Cl16514  13.060   9.935   8.821 -0.5351  0.2143 -0.3066
  123MOL0     C16515  11.854   9.568   9.232 -0.0089 -0.2956  0.7486
  123MOL0     C16516  11.716   9.550   9.242 -0.8240  0.7609 -0.3438
  123MOL0     O16517  11.462   9.790   9.324  0.2987 -0.5028 -0.3359
  123MOL0     C16518  11.186   9.744   9.359 -0.8167 -0.0142 -1.2709
  123MOL0     C16519  11.049   9.716   9.361 -1.0858 -0.3976 -0.2985
  123MOL0     N16520  10.353   9.331   9.400 -0.7890 -0.0126 -0.9019
  123MOL0     N16521  10.261   9.276   9.335  0.0856  0.6613 -0.3139
  123MOL0     C16522   9.224   9.165   9.034 -0.1510  0.2501 -0.1521
  123MOL0     C16523   9.105   9.236   9.005 -0.4870  0.1086 -0.4964
  123MOL0     C16524   8.787   9.557   9.068 -0.1697 -0.9159  0.0648
  123MOL0     C16525   8.759   9.671   9.140  0.1240  0.4448  0.4065
  123MOL0     C16526   8.658   9.754   9.111  0.2223  0.0896  0.9677
  123MOL0     C16527   8.577   9.725   9.008 -0.4863 -0.0693  0.3925
  123MOL0     O16528   8.462   9.792   8.973 -0.2606  0.8081  0.6853
  123MOL0     C16529   8.421   9.903   9.054  0.5045  0.4895 -0.1173
  123MOL0     C16530   8.316   9.843   9.156  0.3828 -0.5404  0.2306
  123MOL0     C16531   8.183   9.801   9.084 -0.0492 -0.5530 -0.0138
  123MOL0     C16532   8.059   9.835   9.169 -0.2764 -0.1287 -0.0418
  123MOL0     C16533   7.938   9.760   9.125 -0.2189 -0.4856  1.4029
  123MOL0     C16534   7.848   9.692   9.084 -0.5788 -0.2373  0.2869
  123MOL0     C16535   8.599   9.612   8.928  0.3294 -0.2250 -0.1208
  123MOL0     C16536   8.707   9.527   8.956  0.3861 -0.3176  0.6889
  123MOL0     C16537   8.727   9.410   8.855  0.3266 -0.7471 -0.0039
  123MOL0     H16538   8.982   9.279   9.309  0.1485  0.1915 -1.3044
  123MOL0     H16539   9.170   9.106   9.360  2.1461  0.8629 -0.7326
  123MOL0     H16540   9.378   8.811   9.130 -0.4839 -0.0812 -1.1123
  123MOL0     H16541   9.268   8.899   9.016 -1.7702 -0.8364  0.3679
  123MOL0     H16542   9.453   9.046   8.950 -1.8870 -0.4792 -1.5660
  123MOL0     H16543   9.477   8.871   8.907 -2.4051  0.8246 -0.3474
  123MOL0     H16544   9.656   8.862   9.056  0.8822  0.4863 -2.5708
  123MOL0     H16545   9.586   8.984   9.165 -0.0653 -0.0027  0.4798
  123MOL0     H16546   9.747   9.042   8.919 -1.1604  0.5298 -0.6647
  123MOL0     H16547   9.634   9.160   9.006 -1.5138 -1.4744  0.4825
  123MOL0     H16548   9.766   9.151   9.204  2.2897 -0.5295  1.0588
  123MOL0     H16549   9.854   9.004   9.150 -3.4202 -3.3843 -2.6624
  123MOL0     H16550   9.982   9.112   8.996 -0.4323 -1.1036  0.1088
  123MOL0     H16551   9.881   9.262   9.008 -0.9938 -1.3204 -2.1882
  123MOL0     H16552  10.047   9.162   9.242 -0.1685 -0.2960 -0.8635
  123MOL0     H16553   9.930   9.296   9.237 -2.0650 -2.4209 -1.0547
  123MOL0     H16554  10.175   9.276   9.059  1.3418  1.0191 -0.7063
  123MOL0     H16555  10.089   9.424   9.097 -1.3989  0.7806  2.9206
  123MOL0     H16556  10.285   9.574   9.189 -2.4592  1.1643  1.2563
  123MOL0     H16557  10.429   9.660   9.376  1.7702 -0.3837 -2.1432
  123MOL0     H16558  10.448   9.547   9.521  0.3406  0.1076 -0.5570
  123MOL0     H16559  10.584   9.453   9.271 -0.7692  0.9976 -0.0031
  123MOL0     H16560  10.634   9.609   9.320  1.7544 -0.2981  0.6693
  123MOL0     H16561  10.628   9.359   9.503  2.1483 -0.8718 -0.2729
  123MOL0     H16562  10.687   9.518   9.560  2.8249  0.2021  0.4782
  123MOL0     H16563  10.808   9.375   9.325 -0.0598  2.9882 -2.4617
  123MOL0     H16564  10.887   9.378   9.483  3.3125  2.5115 -0.8311
  123MOL0     H16565  11.079   9.372   9.374  1.2524 -0.6123 -1.6303
  123MOL0     H16566  11.321   9.441   9.366  0.7367  0.6746 -1.2789
  123MOL0     H16567  11.667   9.708   9.536 -0.1009  1.3245 -0.6299
  123MOL0     H16568  11.906   9.759   9.513  0.7231  0.4528 -0.4464
  123MOL0     H16569  12.169   9.516   9.227  1.2566  0.4511  0.6324
  123MOL0     H16570  12.098   9.637   9.123 -0.2579  0.7162  0.1949
  123MOL0     H16571  12.247   9.799   9.210 -0.3811 -1.2666 -4.4835
  123MOL0     H16572  12.330   9.678   9.317 -0.1292  0.3090  0.0607
  123MOL0     H16573  12.378   9.554   9.081 -2.5732 -0.4858  1.0631
  123MOL0     H16574  12.311   9.691   9.006 -1.0964 -1.0971  0.3293
  123MOL0     H16575  12.560   9.694   9.187  3.6710  2.2485 -1.5058
  123MOL0     H16576  12.456   9.837   9.148 -2.4404 -1.3566  0.9728
  123MOL0     H16577  12.513   9.821   8.916 -1.1052 -1.8334 -1.2172
  123MOL0     H16578  12.552   9.651   8.947 -0.6760 -1.4624  3.7016
  123MOL0     H16579  12.669   9.921   9.061 -1.2108 -1.0206  0.3575
  123MOL0     H16580  12.740   9.758   9.084  0.2096  1.8494  2.0935
  123MOL0     H16581  12.759   9.915   8.819 -1.4802 -0.0397  0.1644
  123MOL0     H16582  12.833   9.761   8.853 -0.3766 -1.9974  1.4547
  123MOL0     H16583  12.909  10.040   8.978 -0.4684  1.0520 -1.3071
  123MOL0     H16584  12.977   9.882   9.028  0.4590 -0.8826 -0.9595
  123MOL0     H16585  11.904   9.543   9.139  0.1759  2.7051 -0.0843
  123MOL0     H16586  11.654   9.501   9.167 -0.4178  0.2647 -0.3701
  123MOL0     H16587  11.213   9.849   9.358  0.1018 -0.1326  1.6701
  123MOL0     H16588  10.987   9.805   9.371 -1.2885 -0.5387 -0.3132
  123MOL0     H16589   9.282   9.137   8.947 -1.2839  0.6394 -1.0707
  123MOL0     H16590   9.073   9.274   8.909 -2.9977  0.0621  0.2681
  123MOL0     H16591   8.818   9.712   9.221  1.6619 -1.4150  0.3042
  123MOL0     H16592   8.653   9.841   9.175  1.0572  0.2225  0.8636
  123MOL0     H16593   8.372   9.970   8.983  3.2262  0.8489 -1.7970
  123MOL0     H16594   8.501   9.962   9.100  1.6031  0.9672 -2.5071
  123MOL0     H16595   8.294   9.921   9.230  1.7066 -0.8144  0.9370
  123MOL0     H16596   8.354   9.755   9.209 -2.1607 -1.7436  0.1852
  123MOL0     H16597   8.180   9.691   9.080  1.1122 -0.7766  3.0372
  123MOL0     H16598   8.167   9.857   8.991  2.4708 -1.5919 -1.1771
  123MOL0     H16599   8.077   9.811   9.274 -2.2120 -1.1151  0.1231
  123MOL0     H16600   8.051   9.944   9.163  1.3952  0.0971  1.2650
  123MOL0     H16601   7.778   9.618   9.052  1.0974 -0.3871 -3.5715
  123MOL0     H16602   8.529   9.586   8.848  0.9435 -1.4482 -0.2836
  123MOL0     H16603   8.635   9.351   8.850  0.2125 -0.7424  1.5558
  123MOL0     H16604   8.748   9.461   8.760 -0.2001 -0.2069  0.1665
  123MOL0     H16605   8.806   9.334   8.864  0.4284 -0.6033  0.3300
  124MOL0     O16606   5.537  10.914   5.148  0.0516 -0.0822 -0.0200
  124MOL0     C16607   5.518  10.901   5.269  0.1852  0.2720  0.2064
  124MOL0     O16608   5.615  10.874   5.365  0.5437 -0.5272  0.0268
  124MOL0     C16609   5.748  10.843   5.339  0.3942  0.5016 -0.8719
  124MOL0     C16610   5.795  10.798   5.216 -0.2039 -0.5473 -0.8831
  124MOL0     C16611   5.936  10.773   5.198 -0.8038  0.2896  0.4365
  124MOL0     C16612   6.022  10.785   5.312 -0.1922 -0.5457  0.1035
  124MOL0     O16613   6.157  10.756   5.314 -0.5610  0.3263  0.3580
  124MOL0     C16614   6.209  10.674   5.211  0.3758  0.8216  0.2200
  124MOL0     C16615   6.253  10.753   5.093  0.5585 -0.1694  1.7704
  124MOL0     C16616   6.401  10.792   5.094 -0.4292  0.5836 -0.5907
  124MOL0     C16617   6.428  10.885   4.979  0.7604  0.3715 -0.5539
  124MOL0     C16618   6.543  10.976   4.986 -0.6421 -0.0930 -0.1061
  124MOL0     C16619   6.670  10.884   4.974 -0.1686  0.1940 -0.5684
  124MOL0     C16620   6.689  10.812   4.839  0.4132  0.0288 -0.1684
  124MOL0     C16621   6.841  10.810   4.790  0.8896  0.6891 -0.9914
  124MOL0     N16622   6.922  10.734   4.881 -0.2487  0.3047  0.0948
  124MOL0     C16623   7.022  10.661   4.824  0.1134 -0.0075  0.6603
  124MOL0     C16624   7.112  10.640   4.919 -0.1345 -0.9440  0.9030
  124MOL0     C16625   7.228  10.555   4.898 -1.1939 -1.2329 -0.0195
  124MOL0     C16626   7.326  10.640   4.834 -0.5964  0.4971 -0.1159
  124MOL0     C16627   7.454  10.553   4.806 -0.2540  0.0702 -1.0658
  124MOL0     C16628   7.584  10.643   4.794  0.3676 -0.2602 -0.6727
  124MOL0     O16629   7.615  10.671   4.933  0.0483 -0.4201 -0.1535
  124MOL0     C16630   7.737  10.722   4.956  0.4220 -0.7747 -0.5216
  124MOL0     C16631   7.788  10.707   5.082 -0.8333 -0.1586  0.0880
  124MOL0     C16632   7.922  10.753   5.113 -0.4280  0.1914 -0.5136
  124MOL0     C16633   8.001  10.816   5.020  0.6915 -0.2138  0.2315
  124MOL0     C16634   8.125  10.883   5.055  0.2786 -0.3794 -0.2615
  124MOL0     O16635   8.170  10.872   5.180 -0.0081 -0.8748  0.0544
  124MOL0     C16636   8.296  10.922   5.204 -0.7460 -1.2766 -0.4289
  124MOL0     C16637   8.412  10.837   5.187  0.1871 -0.3827  0.1959
  124MOL0     C16638   8.542  10.890   5.213  0.7618  0.0108 -0.5707
  124MOL0     C16639   8.552  11.024   5.252 -0.5013  0.1170 -0.4047
  124MOL0     O16640   8.666  11.098   5.275  0.2203 -0.8320  0.4595
  124MOL0     C16641   8.777  11.041   5.212  0.4456  0.1716 -0.9298
  124MOL0     C16642   8.856  10.976   5.331  0.1849  0.0733  0.2927
  124MOL0     C16643   8.989  10.908   5.279  0.2428 -0.5906 -0.5113
  124MOL0     C16644   8.959  10.769   5.225 -0.4278  0.2424  0.3571
  124MOL0     C16645   9.072  10.730   5.124 -0.0177  0.0372 -0.6253
  124MOL0     C16646   9.039  10.599   5.041 -0.5475 -0.6804 -0.7047
  124MOL0     C16647   9.154  10.554   4.946 -0.2155 -0.6421 -0.0258
  124MOL0     C16648   9.120  10.468   4.828  0.5277 -0.1342 -0.1244
  124MOL0    Cl16649   9.271  10.442   4.728  0.1198  0.2072 -0.1130
  124MOL0     C16650   8.440  11.104   5.273 -0.5114 -0.1061 -0.5258
  124MOL0     C16651   8.314  11.047   5.252  0.2074  0.0994 -0.5845
  124MOL0     O16652   8.193  10.915   4.953 -0.1023  0.0050  0.0169
  124MOL0     C16653   7.942  10.830   4.894 -0.3220  0.0412 -0.1041
  124MOL0     C16654   7.814  10.786   4.862  0.2783 -0.1354 -0.0619
  124MOL0     N16655   7.072  10.715   5.027  0.0399  0.2283  0.2256
  124MOL0     N16656   6.963  10.772   4.999  0.3993  0.9572 -0.3065
  124MOL0     C16657   5.965  10.811   5.435 -1.0884 -0.3010 -0.2061
  124MOL0     C16658   5.832  10.840   5.450  0.1376  0.2173  0.2893
  124MOL0     C16659   5.375  10.909   5.331  0.2205  0.5013 -0.3295
  124MOL0     C16660   5.345  10.835   5.448 -0.3102  0.8346 -0.1021
  124MOL0     C16661   5.216  10.827   5.504 -0.2418  0.0725  0.6703
  124MOL0     C16662   5.110  10.890   5.434 -0.5438 -0.2761 -0.5308
  124MOL0     O16663   4.980  10.911   5.476 -0.2137  0.3275 -0.0946
  124MOL0     C16664   4.930  10.828   5.581  0.1910  0.1894 -0.5614
  124MOL0     C16665   4.774  10.821   5.585  0.3520 -0.1666  0.5094
  124MOL0     C16666   4.718  10.748   5.465 -0.0886 -0.1486 -0.5232
  124MOL0     C16667   4.568  10.768   5.436  0.2544  0.5299 -0.4529
  124MOL0     C16668   4.480  10.731   5.546 -0.8948 -0.1331  0.0371
  124MOL0     C16669   4.407  10.695   5.642 -0.1063  0.7060  0.3877
  124MOL0     C16670   5.137  10.964   5.323  0.1043 -0.3321 -0.6485
  124MOL0     C16671   5.272  10.969   5.262  0.2050 -0.4142  0.1256
  124MOL0     C16672   5.280  11.055   5.135 -0.8202  0.1738  0.4247
  124MOL0     H16673   5.730  10.785   5.131 -1.9505 -1.1531  0.4863
  124MOL0     H16674   5.961  10.737   5.099 -0.3879 -1.1862  1.0451
  124MOL0     H16675   6.295  10.623   5.254 -0.5723 -1.0645 -0.0114
  124MOL0     H16676   6.131  10.601   5.188  0.1898  1.3559 -0.8830
  124MOL0     H16677   6.192  10.845   5.095 -1.5266 -1.3197 -1.0889
  124MOL0     H16678   6.231  10.697   5.002  2.6048 -0.1170  1.1971
  124MOL0     H16679   6.472  10.709   5.105 -0.7783  0.2575 -0.7677
  124MOL0     H16680   6.405  10.860   5.179  4.0514  0.4811 -0.5025
  124MOL0     H16681   6.439  10.831   4.885  2.7446  0.9223 -0.6837
  124MOL0     H16682   6.337  10.946   4.973  1.5743  2.2673  3.2436
  124MOL0     H16683   6.553  11.044   4.900  1.2377  0.8107  0.7758
  124MOL0     H16684   6.538  11.027   5.082 -2.0931 -0.7451  0.2006
  124MOL0     H16685   6.752  10.955   4.989 -1.2093  1.5522 -1.1503
  124MOL0     H16686   6.680  10.808   5.052  2.8786 -0.6473 -1.6275
  124MOL0     H16687   6.622  10.860   4.768  0.4692 -1.1580 -1.0534
  124MOL0     H16688   6.646  10.712   4.852 -1.2070  0.6671 -0.4087
  124MOL0     H16689   6.844  10.779   4.685 -4.2446 -2.3745 -0.6132
  124MOL0     H16690   6.878  10.912   4.804  1.2585  0.5785 -1.1461
  124MOL0     H16691   7.024  10.623   4.723 -0.5669  1.2218  0.1746
  124MOL0     H16692   7.275  10.538   4.995  1.6068 -0.8493 -1.2126
  124MOL0     H16693   7.204  10.465   4.840 -3.2135  0.2427 -1.5978
  124MOL0     H16694   7.287  10.674   4.737 -1.6197 -0.3798 -0.0266
  124MOL0     H16695   7.357  10.714   4.908  0.2187 -1.3344  1.4412
  124MOL0     H16696   7.433  10.483   4.724  1.9857 -2.8211  0.6216
  124MOL0     H16697   7.467  10.485   4.891 -0.6319  0.2030 -0.8983
  124MOL0     H16698   7.546  10.731   4.742  0.3285  0.0859 -0.0594
  124MOL0     H16699   7.658  10.585   4.736 -0.6030 -1.9121 -0.3230
  124MOL0     H16700   7.723  10.662   5.156 -0.0397 -2.2344 -0.4046
  124MOL0     H16701   7.966  10.747   5.212  2.1106 -1.8297 -1.6632
  124MOL0     H16702   8.382  10.734   5.170 -1.9932 -0.0308  1.4923
  124MOL0     H16703   8.625  10.821   5.199  1.5752 -0.2926  4.0203
  124MOL0     H16704   8.763  10.974   5.127  0.3946 -0.4821 -0.4118
  124MOL0     H16705   8.847  11.113   5.169  2.8827 -1.5785 -0.0553
  124MOL0     H16706   8.884  11.051   5.405  1.6114  0.0637 -0.2079
  124MOL0     H16707   8.802  10.897   5.384  0.3840  0.5904  1.2880
  124MOL0     H16708   9.041  10.965   5.201 -1.7307 -1.0275 -2.2371
  124MOL0     H16709   9.062  10.903   5.361  0.2747 -1.1324 -0.5709
  124MOL0     H16710   8.868  10.773   5.166 -0.4340 -1.8444  0.1735
  124MOL0     H16711   8.955  10.692   5.303  1.1612 -0.1321  0.0993
  124MOL0     H16712   9.149  10.703   5.197 -2.1501 -0.0875  1.7353
  124MOL0     H16713   9.112  10.810   5.061  0.2618  0.1834 -0.2643
  124MOL0     H16714   8.996  10.523   5.107 -1.6129  1.1740  0.8422
  124MOL0     H16715   8.960  10.624   4.969  1.3396 -0.6598 -2.8796
  124MOL0     H16716   9.219  10.486   5.002  2.3388 -1.0773 -3.2160
  124MOL0     H16717   9.216  10.638   4.913 -2.7151  1.3660  0.0769
  124MOL0     H16718   9.093  10.366   4.856  3.2358 -0.9095 -0.0719
  124MOL0     H16719   9.042  10.520   4.773  0.7140  0.2395 -0.0361
  124MOL0     H16720   8.452  11.207   5.307 -0.3141  0.1281 -1.2855
  124MOL0     H16721   8.218  11.087   5.284 -0.2677 -1.6111  0.1989
  124MOL0     H16722   7.995  10.884   4.816 -1.3957 -0.3641 -1.1564
  124MOL0     H16723   7.781  10.819   4.764 -1.2295 -0.0947  0.4313
  124MOL0     H16724   6.033  10.825   5.518  0.8665  0.2712 -1.8260
  124MOL0     H16725   5.790  10.862   5.548 -1.3274 -1.9341  0.2400
  124MOL0     H16726   5.429  10.797   5.505 -1.0425  1.9236  1.7819
  124MOL0     H16727   5.201  10.798   5.607 -0.9328 -1.7978  0.0902
  124MOL0     H16728   4.965  10.873   5.674  0.3408  3.0118 -1.8750
  124MOL0     H16729   4.966  10.725   5.577 -4.4626 -1.9087  2.5779
  124MOL0     H16730   4.739  10.924   5.583 -1.0514 -0.5856 -2.3018
  124MOL0     H16731   4.740  10.777   5.679  1.1721  0.0377  0.9110
  124MOL0     H16732   4.734  10.640   5.471 -0.2527 -0.1181  0.7439
  124MOL0     H16733   4.779  10.780   5.380  1.5731 -0.9880  0.2896
  124MOL0     H16734   4.551  10.871   5.405 -0.7771 -0.3667 -3.1011
  124MOL0     H16735   4.543  10.703   5.352  1.6660 -0.1204 -0.3995
  124MOL0     H16736   4.359  10.670   5.734 -0.3328 -1.5445 -0.2794
  124MOL0     H16737   5.053  11.018   5.279  1.4654 -0.4185 -3.6136
  124MOL0     H16738   5.282  10.997   5.043 -0.7712  1.2224 -0.2510
  124MOL0     H16739   5.196  11.125   5.133  0.1156  1.4728  2.4885
  124MOL0     H16740   5.372  11.113   5.147  2.1198 -3.8184 -0.7587
  125MOL0     O16741   2.340   8.423   3.250 -0.0073  0.0399 -0.0994
  125MOL0     C16742   2.271   8.488   3.323 -0.7695 -0.5653 -0.6990
  125MOL0     O16743   2.313   8.553   3.436 -0.0280 -0.4357  0.4672
  125MOL0     C16744   2.453   8.558   3.452 -0.0862 -0.0670 -0.5986
  125MOL0     C16745   2.527   8.449   3.499  0.4370  0.3333  0.3674
  125MOL0     C16746   2.667   8.450   3.486 -0.3415  0.0142  0.0773
  125MOL0     C16747   2.740   8.557   3.423 -1.0425 -0.7214  0.1411
  125MOL0     O16748   2.881   8.573   3.402  0.1289  0.2013 -0.3893
  125MOL0     C16749   2.956   8.541   3.516  0.0606  0.4424  0.4527
  125MOL0     C16750   3.101   8.487   3.489  1.0431  0.4376  0.2475
  125MOL0     C16751   3.174   8.595   3.403 -0.6670 -0.5183  0.1663
  125MOL0     C16752   3.326   8.579   3.416 -0.2876 -0.2163  0.3327
  125MOL0     C16753   3.407   8.663   3.312 -0.4674  0.5213  0.7138
  125MOL0     C16754   3.559   8.634   3.331 -0.9575 -0.5277  0.6741
  125MOL0     C16755   3.635   8.740   3.250 -0.0811 -0.2825 -0.0124
  125MOL0     C16756   3.780   8.729   3.276  0.2595  0.1616  0.0801
  125MOL0     N16757   3.841   8.622   3.195  0.2768 -0.4311 -0.1115
  125MOL0     C16758   3.911   8.515   3.228  0.7707  0.2209 -1.1956
  125MOL0     C16759   3.941   8.461   3.109 -0.4039  0.4259  0.5464
  125MOL0     C16760   4.018   8.337   3.099  0.0812 -0.3651 -0.2418
  125MOL0     C16761   4.165   8.372   3.063  0.1161  0.6531 -0.6547
  125MOL0     C16762   4.168   8.412   2.909 -0.1648  0.1401 -0.2919
  125MOL0     C16763   4.305   8.438   2.852  0.0452 -0.3568 -0.2904
  125MOL0     O16764   4.298   8.473   2.709  0.2470 -0.2337 -0.2458
  125MOL0     C16765   4.415   8.479   2.637  0.1491  0.1430  0.0889
  125MOL0     C16766   4.411   8.555   2.520 -0.5462 -0.0288 -0.1980
  125MOL0     C16767   4.526   8.578   2.448  0.0978 -0.5697  0.2511
  125MOL0     C16768   4.653   8.525   2.485 -0.0563  0.0656 -0.7181
  125MOL0     C16769   4.769   8.547   2.404 -0.7966  0.3372 -0.2355
  125MOL0     O16770   4.886   8.481   2.445  0.4443 -0.0464  0.3758
  125MOL0     C16771   5.003   8.466   2.373  1.0464  0.6273 -0.0711
  125MOL0     C16772   5.112   8.416   2.449  0.1536  0.6853 -0.7081
  125MOL0     C16773   5.238   8.398   2.389 -0.2602  0.7019 -0.1779
  125MOL0     C16774   5.251   8.415   2.248  0.4141 -0.0532  0.2906
  125MOL0     O16775   5.362   8.380   2.168 -0.0330 -0.4648 -0.2417
  125MOL0     C16776   5.489   8.438   2.209 -0.1209 -0.1436  0.0298
  125MOL0     C16777   5.603   8.352   2.155  0.6307 -0.4621  0.3111
  125MOL0     C16778   5.727   8.351   2.250 -0.2584  0.5832 -0.5802
  125MOL0     C16779   5.837   8.265   2.185 -0.3023  0.3236  0.0924
  125MOL0     C16780   5.962   8.267   2.283  0.7653  0.3644 -0.3772
  125MOL0     C16781   6.092   8.187   2.249  0.3773  0.2179 -0.4452
  125MOL0     C16782   6.153   8.107   2.361  0.2908 -0.3757 -0.3620
  125MOL0     C16783   6.286   8.039   2.313  0.2262  0.7977  0.6351
  125MOL0    Cl16784   6.433   8.144   2.316 -0.0049 -0.1218  0.1779
  125MOL0     C16785   5.137   8.462   2.172  0.0753 -0.0008 -0.6596
  125MOL0     C16786   5.014   8.474   2.231 -0.2223 -0.2504 -0.0971
  125MOL0     O16787   4.759   8.623   2.308 -0.1060 -0.3026 -0.0005
  125MOL0     C16788   4.661   8.438   2.595 -0.4230 -0.6575 -0.0484
  125MOL0     C16789   4.543   8.420   2.673 -0.0272  0.0763  0.3353
  125MOL0     N16790   3.883   8.534   3.006  0.7008 -0.2155  0.1534
  125MOL0     N16791   3.830   8.636   3.058 -0.5075 -0.1512  0.1376
  125MOL0     C16792   2.665   8.660   3.382  0.7586 -0.0416  0.0341
  125MOL0     C16793   2.525   8.670   3.404 -0.0812 -0.9885 -0.5600
  125MOL0     C16794   2.127   8.479   3.308  0.4005 -0.5785 -0.2130
  125MOL0     C16795   2.034   8.520   3.411  0.2115 -0.8473 -0.1167
  125MOL0     C16796   1.896   8.519   3.404 -0.2483  0.0350 -0.0959
  125MOL0     C16797   1.849   8.477   3.280 -0.4223 -0.7544 -0.2781
  125MOL0     O16798   1.711   8.463   3.279  0.5133 -0.5174  0.2549
  125MOL0     C16799   1.654   8.366   3.188 -0.8860  0.2547 -0.4566
  125MOL0     C16800   1.687   8.220   3.232  0.1444 -0.0070  0.5587
  125MOL0     C16801   1.654   8.193   3.378 -0.0970 -0.2361  0.5641
  125MOL0     C16802   1.503   8.216   3.403 -0.3092  0.3173  0.7841
  125MOL0     C16803   1.455   8.181   3.527 -0.4760 -0.4260  0.4095
  125MOL0     C16804   1.390   8.153   3.627 -0.0082 -0.7869 -0.2595
  125MOL0     C16805   1.934   8.443   3.173  0.4158  0.3634 -0.3552
  125MOL0     C16806   2.072   8.452   3.181 -0.4561  0.6905  0.7940
  125MOL0     C16807   2.144   8.413   3.049  0.6231  0.1661 -0.0030
  125MOL0     H16808   2.478   8.374   3.559 -1.9425 -1.3609 -3.2966
  125MOL0     H16809   2.723   8.373   3.538 -1.9103 -1.1218  0.1334
  125MOL0     H16810   2.967   8.630   3.579 -1.6608 -0.0203  1.4753
  125MOL0     H16811   2.913   8.456   3.570 -1.8880 -0.1513 -1.8792
  125MOL0     H16812   3.085   8.399   3.426 -1.4706  0.6036  0.5543
  125MOL0     H16813   3.147   8.471   3.587  0.7849  0.0193  0.3039
  125MOL0     H16814   3.145   8.694   3.440 -1.4568  0.0872 -1.9093
  125MOL0     H16815   3.140   8.586   3.300  0.4675 -0.2251 -0.2474
  125MOL0     H16816   3.365   8.620   3.510  0.0496  0.9011 -0.2828
  125MOL0     H16817   3.348   8.473   3.398 -1.1543 -0.3008 -0.2511
  125MOL0     H16818   3.376   8.632   3.211  1.6050 -1.9097  0.7285
  125MOL0     H16819   3.387   8.767   3.340  0.0734  0.6093  0.7892
  125MOL0     H16820   3.584   8.639   3.438  0.2980  2.0039  0.3466
  125MOL0     H16821   3.578   8.533   3.293  0.5573 -1.1847  2.9657
  125MOL0     H16822   3.604   8.839   3.284  0.7355  0.2934 -0.8958
  125MOL0     H16823   3.618   8.737   3.141 -0.8632  3.7008 -0.1683
  125MOL0     H16824   3.832   8.820   3.247  2.0623 -0.5424  0.9661
  125MOL0     H16825   3.803   8.718   3.382  0.1372  1.6458  0.2761
  125MOL0     H16826   3.933   8.494   3.332  0.1653  5.7675  0.4067
  125MOL0     H16827   4.012   8.279   3.192 -2.4721 -0.9459 -0.6898
  125MOL0     H16828   3.973   8.273   3.022  0.1923 -0.9543  0.1686
  125MOL0     H16829   4.199   8.459   3.119 -2.8451  1.3144  0.3011
  125MOL0     H16830   4.222   8.279   3.076 -0.8371 -0.0736 -1.5072
  125MOL0     H16831   4.117   8.509   2.908 -3.0660 -1.2684  0.1415
  125MOL0     H16832   4.118   8.338   2.845  1.0250 -0.5927 -0.3944
  125MOL0     H16833   4.366   8.348   2.862  3.0873  1.6185  0.2910
  125MOL0     H16834   4.361   8.519   2.899 -2.0667  1.7818 -1.2515
  125MOL0     H16835   4.316   8.601   2.499 -0.0602  1.2447  0.2655
  125MOL0     H16836   4.517   8.642   2.361  1.0893 -1.7410 -0.7448
  125MOL0     H16837   5.100   8.399   2.555  0.2095 -1.8523 -1.0341
  125MOL0     H16838   5.328   8.379   2.446 -0.6248  0.3764  0.3014
  125MOL0     H16839   5.489   8.540   2.169  0.7183 -0.5524 -1.0615
  125MOL0     H16840   5.498   8.441   2.318 -0.2617 -2.8371  0.1813
  125MOL0     H16841   5.569   8.248   2.145  3.7481 -1.4357 -1.8378
  125MOL0     H16842   5.628   8.387   2.054 -0.2340  1.2634  0.6682
  125MOL0     H16843   5.765   8.451   2.275 -0.9417  1.0852 -1.4808
  125MOL0     H16844   5.697   8.299   2.342  2.4667  1.1958  0.7376
  125MOL0     H16845   5.866   8.310   2.089 -1.2727  1.0866  0.1408
  125MOL0     H16846   5.800   8.163   2.167  0.5668  0.4163 -2.6826
  125MOL0     H16847   5.910   8.210   2.362 -1.2916 -1.6232 -2.9671
  125MOL0     H16848   5.998   8.361   2.326 -0.7023  0.6540  0.3085
  125MOL0     H16849   6.080   8.116   2.166  0.6073  2.3751 -2.4329
  125MOL0     H16850   6.166   8.258   2.213  1.6789  0.3732  2.3342
  125MOL0     H16851   6.082   8.032   2.397 -0.9043  1.0618  0.4045
  125MOL0     H16852   6.174   8.171   2.448 -0.1812 -1.6485  0.7121
  125MOL0     H16853   6.302   7.951   2.377 -0.6465  0.9404  1.0622
  125MOL0     H16854   6.265   8.001   2.212  0.6873  0.9049  0.4958
  125MOL0     H16855   5.133   8.484   2.066 -1.4045 -0.9616 -0.8423
  125MOL0     H16856   4.924   8.494   2.173 -1.6564 -1.2215  1.6826
  125MOL0     H16857   4.748   8.383   2.629 -0.0092  0.1011  0.1558
  125MOL0     H16858   4.560   8.379   2.772  0.6821 -0.7115 -0.0993
  125MOL0     H16859   2.710   8.756   3.360 -0.3165  0.7671  1.2091
  125MOL0     H16860   2.485   8.769   3.382  3.5863  0.3672 -1.9204
  125MOL0     H16861   2.072   8.576   3.496  1.9768  0.6310 -1.8002
  125MOL0     H16862   1.836   8.532   3.493 -0.5609 -3.4730  0.3130
  125MOL0     H16863   1.687   8.393   3.087  0.7757 -0.9834 -0.2914
  125MOL0     H16864   1.546   8.379   3.189 -1.0466 -0.9364  1.0934
  125MOL0     H16865   1.793   8.208   3.207  0.1330 -1.0570  0.9711
  125MOL0     H16866   1.639   8.143   3.172 -0.5760  2.3156 -2.0787
  125MOL0     H16867   1.716   8.262   3.436 -3.0484  3.9751 -0.8103
  125MOL0     H16868   1.674   8.088   3.403 -0.7753  0.0824  2.6580
  125MOL0     H16869   1.499   8.326   3.403  5.5696  0.8765  0.8329
  125MOL0     H16870   1.443   8.176   3.322 -0.7127  1.0058  0.7321
  125MOL0     H16871   1.328   8.122   3.708 -0.5103 -2.6283 -1.3094
  125MOL0     H16872   1.887   8.392   3.090 -0.7442  2.3078 -0.9590
  125MOL0     H16873   2.196   8.506   3.024  2.9088 -0.0028  3.4618
  125MOL0     H16874   2.208   8.328   3.073  0.0552  0.1175  1.4295
  125MOL0     H16875   2.080   8.393   2.963  1.2487 -2.9933  0.1398
  126MOL0     O16876   9.132   3.488   3.727 -1.2682 -0.5045 -0.1548
  126MOL0     C16877   9.038   3.415   3.720 -1.0519  0.1436  0.9669
  126MOL0     O16878   9.041   3.300   3.647 -0.0570  0.1401 -0.1738
  126MOL0     C16879   9.167   3.273   3.595  0.3618  0.1737 -0.6176
  126MOL0     C16880   9.175   3.225   3.465 -0.2800  0.9165  1.0798
  126MOL0     C16881   9.304   3.199   3.412 -0.1378  0.2286  0.3997
  126MOL0     C16882   9.418   3.189   3.489 -0.5235  0.2247 -0.5995
  126MOL0     O16883   9.535   3.144   3.433 -0.4883 -0.3542 -0.7510
  126MOL0     C16884   9.660   3.155   3.503 -0.2275 -1.0908 -0.8595
  126MOL0     C16885   9.767   3.065   3.443 -0.5475  1.4772  0.0344
  126MOL0     C16886   9.893   3.062   3.525  0.4465  0.6852  0.0614
  126MOL0     C16887   9.975   2.946   3.471  0.0434  1.1033 -0.3872
  126MOL0     C16888  10.104   2.918   3.552 -1.3189 -0.8078  0.0135
  126MOL0     C16889  10.205   3.032   3.537  0.5437 -0.4996  0.5870
  126MOL0     C16890  10.331   3.018   3.618 -0.8737 -0.0120  0.4368
  126MOL0     C16891  10.403   2.895   3.569 -1.0520 -0.3935  0.5960
  126MOL0     N16892  10.544   2.906   3.612  0.5557 -0.5554 -0.0440
  126MOL0     C16893  10.583   2.920   3.740  0.1818 -0.2855  0.0583
  126MOL0     C16894  10.719   2.919   3.740  0.1476 -0.3277 -0.6947
  126MOL0     C16895  10.808   2.955   3.862  0.6989  0.1526  0.3396
  126MOL0     C16896  10.913   2.847   3.882  0.7339 -0.2642 -0.1737
  126MOL0     C16897  11.033   2.897   3.967  0.2215  0.0945  0.8457
  126MOL0     C16898  11.145   2.793   3.964  0.5064 -0.1795  0.0726
  126MOL0     O16899  11.226   2.788   3.838  0.1387  0.4201 -0.5587
  126MOL0     C16900  11.360   2.786   3.830  0.7316 -0.8105 -0.3331
  126MOL0     C16901  11.442   2.787   3.946 -0.5763  0.5700  0.1265
  126MOL0     C16902  11.585   2.788   3.919 -0.4198  0.7980 -1.2019
  126MOL0     C16903  11.637   2.798   3.787 -0.7990  0.7577 -0.2453
  126MOL0     C16904  11.785   2.811   3.775 -0.3865  0.9709  0.4484
  126MOL0     O16905  11.856   2.858   3.883  0.2154 -0.3535  0.7451
  126MOL0     C16906  11.989   2.906   3.865 -0.3626  0.3798 -0.5768
  126MOL0     C16907  12.038   2.957   3.744 -1.0253 -0.2906 -0.5258
  126MOL0     C16908  12.180   2.985   3.734 -0.6101 -0.2768  0.5101
  126MOL0     C16909  12.271   2.982   3.844  1.5572 -0.6349 -0.6746
  126MOL0     O16910  12.398   3.018   3.823 -0.0365 -0.8203  0.3431
  126MOL0     C16911  12.485   3.006   3.935  0.5956 -0.1539  0.3017
  126MOL0     C16912  12.621   3.074   3.902  0.4987 -0.0982  0.1198
  126MOL0     C16913  12.719   3.017   3.998 -0.1495 -0.0916  0.3593
  126MOL0     C16914  12.857   3.070   3.981  0.4740 -0.5429  0.1594
  126MOL0     C16915  12.925   3.001   3.852  0.2605 -0.3009 -0.3762
  126MOL0     C16916  13.065   3.065   3.816 -0.7174 -0.2269 -0.1689
  126MOL0     C16917  13.146   2.980   3.723  0.2471  0.1715  0.4330
  126MOL0     C16918  13.274   3.047   3.704 -0.5425  0.0988  0.3220
  126MOL0    Cl16919  13.374   3.038   3.856  0.1116 -0.1466  0.2752
  126MOL0     C16920  12.209   2.943   3.969 -0.6415  0.7709  0.3065
  126MOL0     C16921  12.071   2.913   3.979 -0.7366  0.2258  1.1432
  126MOL0     O16922  11.831   2.786   3.661  0.5531 -0.1730 -0.4530
  126MOL0     C16923  11.549   2.806   3.679 -0.0583  0.2988 -0.3800
  126MOL0     C16924  11.411   2.792   3.701 -0.5639 -0.2273 -0.0298
  126MOL0     N16925  10.758   2.902   3.602 -0.0549 -0.2669 -0.4234
  126MOL0     N16926  10.652   2.903   3.526  0.5985 -0.8260 -0.2389
  126MOL0     C16927   9.412   3.233   3.625  0.2756  0.7421  0.5994
  126MOL0     C16928   9.285   3.270   3.681  0.0910  0.4465 -0.1020
  126MOL0     C16929   8.911   3.443   3.792 -0.8765  0.8006  0.0406
  126MOL0     C16930   8.815   3.336   3.805 -0.2085  0.1057  0.2472
  126MOL0     C16931   8.681   3.357   3.839 -0.1015 -0.5488  0.4757
  126MOL0     C16932   8.647   3.480   3.891 -0.7124  0.1057 -0.3330
  126MOL0     O16933   8.525   3.517   3.941  0.8159  0.0041  0.2537
  126MOL0     C16934   8.439   3.410   4.002 -0.2097  0.0689 -0.0953
  126MOL0     C16935   8.286   3.434   3.975 -0.2303  0.1207  0.8655
  126MOL0     C16936   8.266   3.358   3.845  0.3792 -0.1754  0.5027
  126MOL0     C16937   8.130   3.392   3.780  0.1250  0.7023 -0.1861
  126MOL0     C16938   8.005   3.365   3.858 -0.0349  0.6786 -0.0310
  126MOL0     C16939   7.913   3.337   3.935  0.1080  0.4034  0.2983
  126MOL0     C16940   8.741   3.584   3.904 -0.1004 -0.1181 -0.1762
  126MOL0     C16941   8.875   3.564   3.853  0.9293  0.4855  0.5192
  126MOL0     C16942   8.970   3.683   3.870  1.3611 -0.0130 -0.3904
  126MOL0     H16943   9.086   3.207   3.406  0.6735 -0.5619  0.0290
  126MOL0     H16944   9.303   3.161   3.310 -0.1831  2.5043 -0.5168
  126MOL0     H16945   9.695   3.259   3.500 -0.8185 -0.8323  0.4796
  126MOL0     H16946   9.651   3.135   3.610 -0.8466  1.1488 -0.4240
  126MOL0     H16947   9.793   3.099   3.342  0.5374 -1.8964 -0.9734
  126MOL0     H16948   9.742   2.958   3.442  2.7494  0.3788 -5.2930
  126MOL0     H16949   9.869   3.057   3.631 -1.9134 -2.4349 -0.4795
  126MOL0     H16950   9.949   3.152   3.498 -0.3337  1.1332 -0.0857
  126MOL0     H16951   9.922   2.853   3.492  0.9082  0.6397 -0.1696
  126MOL0     H16952   9.992   2.959   3.364  0.3092 -1.5296 -0.7233
  126MOL0     H16953  10.089   2.900   3.659 -0.0313  2.7850  0.9260
  126MOL0     H16954  10.142   2.826   3.506 -0.6757 -1.6515  2.1057
  126MOL0     H16955  10.235   3.052   3.433 -1.3686 -1.4486 -0.1801
  126MOL0     H16956  10.152   3.118   3.579  2.0166  1.9185 -2.0689
  126MOL0     H16957  10.308   3.004   3.724  0.2084  2.8652  1.1387
  126MOL0     H16958  10.393   3.108   3.624  2.0509 -1.8610 -0.2291
  126MOL0     H16959  10.350   2.816   3.623 -0.1741 -0.3140  1.6133
  126MOL0     H16960  10.404   2.887   3.460 -0.7782  0.4463  0.5329
  126MOL0     H16961  10.528   2.923   3.833 -0.8697 -0.6015 -0.5368
  126MOL0     H16962  10.853   3.052   3.839  1.0401 -0.4016 -1.5427
  126MOL0     H16963  10.745   2.960   3.951 -1.2028 -2.6300 -0.7102
  126MOL0     H16964  10.878   2.760   3.938  1.6329 -1.3825 -1.2674
  126MOL0     H16965  10.952   2.803   3.789 -0.0039 -2.2047  0.3756
  126MOL0     H16966  10.996   2.911   4.069  0.4792 -0.6061  1.0408
  126MOL0     H16967  11.061   2.995   3.927 -1.5811  0.9305  1.5036
  126MOL0     H16968  11.103   2.693   3.975 -0.9121  0.5884  2.4712
  126MOL0     H16969  11.219   2.813   4.043  2.2004 -3.6700 -0.4335
  126MOL0     H16970  11.406   2.772   4.048  0.2434  0.3026  0.3785
  126MOL0     H16971  11.650   2.791   4.005  0.2148 -1.0231 -1.5649
  126MOL0     H16972  11.968   2.969   3.662 -0.9006  1.9311 -0.3589
  126MOL0     H16973  12.226   3.017   3.641  1.0960  2.4592  2.1417
  126MOL0     H16974  12.451   3.046   4.031  2.4565  1.0467  0.5162
  126MOL0     H16975  12.504   2.899   3.945 -2.0942 -0.7991 -0.6539
  126MOL0     H16976  12.647   3.039   3.801  0.2274  0.7330 -0.2430
  126MOL0     H16977  12.619   3.182   3.887 -1.9586  0.0287  1.0104
  126MOL0     H16978  12.684   3.041   4.098 -1.5518  3.7364 -0.8590
  126MOL0     H16979  12.718   2.908   4.004 -1.3291 -0.1710 -0.6672
  126MOL0     H16980  12.934   3.046   4.055  1.6960  0.9971 -0.5535
  126MOL0     H16981  12.847   3.177   3.961  0.4364 -0.8646 -1.6795
  126MOL0     H16982  12.863   3.006   3.762  1.2201  1.8020 -0.9793
  126MOL0     H16983  12.934   2.893   3.869  0.7737  0.0518  1.8851
  126MOL0     H16984  13.052   3.165   3.773 -2.8134 -2.0484 -4.4924
  126MOL0     H16985  13.114   3.077   3.913  0.2773  1.1462 -0.8101
  126MOL0     H16986  13.101   2.982   3.623 -3.3464  0.0238  1.9108
  126MOL0     H16987  13.162   2.877   3.755  0.5892 -0.0108 -0.3053
  126MOL0     H16988  13.332   2.981   3.638 -0.4562  0.7679 -0.2794
  126MOL0     H16989  13.273   3.146   3.658  1.6244  0.4579  0.9370
  126MOL0     H16990  12.266   2.924   4.060 -0.1166 -1.3673 -0.4211
  126MOL0     H16991  12.020   2.892   4.072 -0.9010  0.3169  1.0738
  126MOL0     H16992  11.596   2.829   3.584  1.8238 -0.1559  0.3994
  126MOL0     H16993  11.338   2.801   3.621 -0.5951  1.8231  0.1585
  126MOL0     H16994   9.502   3.236   3.684 -0.4438 -1.5410  1.9388
  126MOL0     H16995   9.290   3.301   3.785 -1.1219 -2.2474  0.8823
  126MOL0     H16996   8.855   3.240   3.775  1.1201  0.4973  0.6799
  126MOL0     H16997   8.601   3.286   3.821 -0.5097  0.2357 -0.9373
  126MOL0     H16998   8.447   3.424   4.110 -0.6805  0.7483 -0.1433
  126MOL0     H16999   8.459   3.304   3.985 -1.2023 -0.2803  0.7601
  126MOL0     H17000   8.259   3.540   3.961 -2.4951 -0.4571  0.3885
  126MOL0     H17001   8.219   3.383   4.044 -1.4556  2.0929  1.2264
  126MOL0     H17002   8.277   3.250   3.859  0.0417 -0.3398 -0.4239
  126MOL0     H17003   8.334   3.397   3.768 -0.7819 -1.4457 -1.2389
  126MOL0     H17004   8.123   3.498   3.757  0.5624  0.7778  0.0016
  126MOL0     H17005   8.117   3.339   3.686  1.2924  0.1757 -0.0699
  126MOL0     H17006   7.857   3.315   4.023  1.4069  0.3920  1.1545
  126MOL0     H17007   8.722   3.686   3.934 -2.3295 -1.3714  3.1680
  126MOL0     H17008   9.051   3.646   3.933  0.5288 -1.2265  0.0036
  126MOL0     H17009   9.017   3.725   3.781  2.2957  0.6572  0.3949
  126MOL0     H17010   8.921   3.765   3.922  1.5917 -0.5293  0.6634
  127MOL0     O17011   1.646   4.872   0.098  1.2647  0.8252  0.4171
  127MOL0     C17012   1.581   4.782   0.046 -0.1011  0.8800  0.0724
  127MOL0     O17013   1.629   4.652   0.046 -0.2782 -0.9548  0.0597
  127MOL0     C17014   1.758   4.630   0.077 -0.2243 -0.5273 -0.0534
  127MOL0     C17015   1.851   4.649  -0.026 -0.0984 -0.8408  1.0747
  127MOL0     C17016   1.979   4.624  -0.001  0.2874 -0.7153 -0.1725
  127MOL0     C17017   2.024   4.573   0.122 -1.0847  0.0000  0.3440
  127MOL0     O17018   2.161   4.544   0.133  0.2730  0.3901  0.4015
  127MOL0     C17019   2.244   4.626   0.219  0.6286 -0.0954  0.3084
  127MOL0     C17020   2.344   4.532   0.285  0.2501 -0.2798  0.3417
  127MOL0     C17021   2.383   4.579   0.430  0.0244 -0.9348  0.4626
  127MOL0     C17022   2.423   4.736   0.432  0.1936  1.4052  0.2763
  127MOL0     C17023   2.566   4.762   0.398  0.5285  0.1591 -1.1292
  127MOL0     C17024   2.671   4.677   0.481  0.2541 -0.5291 -0.4809
  127MOL0     C17025   2.820   4.711   0.436  0.3435  0.3555  0.0191
  127MOL0     C17026   2.864   4.647   0.300 -0.1135  0.5879 -0.2624
  127MOL0     N17027   2.960   4.529   0.315 -0.5977  0.2892 -0.0895
  127MOL0     C17028   3.082   4.515   0.245  0.5970 -0.7135 -0.6097
  127MOL0     C17029   3.115   4.390   0.269 -0.3101  1.2670  1.4134
  127MOL0     C17030   3.239   4.312   0.224  0.9463 -0.6096 -0.2495
  127MOL0     C17031   3.360   4.344   0.317 -0.0876  0.2374 -0.9277
  127MOL0     C17032   3.339   4.281   0.447 -0.6598 -1.2223  0.0666
  127MOL0     C17033   3.470   4.242   0.532 -0.1548  0.0081  0.3512
  127MOL0     O17034   3.535   4.130   0.470 -0.1293  0.5425  0.6154
  127MOL0     C17035   3.670   4.122   0.496  0.2890  0.5056 -0.5810
  127MOL0     C17036   3.714   3.993   0.475 -0.5806 -0.3184 -0.1237
  127MOL0     C17037   3.851   3.955   0.495  0.0259  0.2648  0.5506
  127MOL0     C17038   3.946   4.058   0.523 -0.1081  0.8412 -0.3482
  127MOL0     C17039   4.090   4.022   0.541 -0.0506  0.2346 -0.3772
  127MOL0     O17040   4.169   4.098   0.637  0.2982 -0.0828 -0.5554
  127MOL0     C17041   4.292   4.061   0.667 -0.2457  0.1152 -0.5155
  127MOL0     C17042   4.370   4.171   0.686 -0.2529 -0.5375 -0.6492
  127MOL0     C17043   4.503   4.160   0.711 -0.7854  0.2422 -0.0693
  127MOL0     C17044   4.569   4.029   0.707  0.8280 -0.2533 -0.7940
  127MOL0     O17045   4.705   4.018   0.717  0.1852 -0.0520 -1.2518
  127MOL0     C17046   4.765   3.922   0.807 -0.2715 -0.2717  0.1229
  127MOL0     C17047   4.910   3.937   0.841 -0.2281 -0.5289  0.3023
  127MOL0     C17048   5.001   3.891   0.733 -0.5957  0.7760  0.0115
  127MOL0     C17049   5.153   3.901   0.770  0.8844  0.4599  0.2383
  127MOL0     C17050   5.258   3.887   0.659 -0.4347  0.3080  0.2330
  127MOL0     C17051   5.252   3.729   0.628 -0.0316  0.0683  0.4768
  127MOL0     C17052   5.320   3.679   0.507 -0.6722  0.0593  0.6242
  127MOL0     C17053   5.468   3.655   0.510 -0.2876  0.1242  0.9087
  127MOL0    Cl17054   5.526   3.527   0.622 -0.2146  0.0092 -0.1449
  127MOL0     C17055   4.485   3.913   0.704  0.0887  0.1153  0.3821
  127MOL0     C17056   4.344   3.931   0.677  0.1363 -0.1821  0.3546
  127MOL0     O17057   4.130   3.934   0.464  0.9359  1.2068 -0.4012
  127MOL0     C17058   3.899   4.179   0.559  0.4993  0.0615  0.0581
  127MOL0     C17059   3.755   4.211   0.564  0.0222 -1.0315 -0.1438
  127MOL0     N17060   3.017   4.328   0.346  0.4676 -0.3058  0.0652
  127MOL0     N17061   2.935   4.413   0.377  0.5360 -0.1691 -0.4021
  127MOL0     C17062   1.938   4.555   0.224  0.3862  0.3428  0.2251
  127MOL0     C17063   1.801   4.588   0.201 -0.1079 -0.1945 -0.8808
  127MOL0     C17064   1.461   4.824  -0.017 -0.0749 -1.2261  0.6011
  127MOL0     C17065   1.473   4.904  -0.129  0.8763  0.8278 -0.0569
  127MOL0     C17066   1.361   4.950  -0.203  0.1109 -0.0997 -0.6542
  127MOL0     C17067   1.240   4.912  -0.171  0.5690  0.0308 -0.9008
  127MOL0     O17068   1.142   4.974  -0.245 -0.0099  0.1900 -0.0537
  127MOL0     C17069   1.006   4.925  -0.248  0.0568  0.3019 -0.3889
  127MOL0     C17070   0.900   4.975  -0.148 -0.2142  0.2557 -0.9530
  127MOL0     C17071   0.752   4.954  -0.182  0.4995  0.3601 -0.2882
  127MOL0     C17072   0.712   4.809  -0.166 -0.2458 -0.2247 -0.0226
  127MOL0     C17073   0.702   4.773  -0.024 -0.2998  0.7934 -0.3726
  127MOL0     C17074   0.686   4.752   0.095 -0.7680  0.3033 -0.5805
  127MOL0     C17075   1.225   4.824  -0.062 -0.0624  0.2068  0.2924
  127MOL0     C17076   1.333   4.783   0.020 -0.6133 -0.4996 -0.7043
  127MOL0     C17077   1.320   4.714   0.149  0.6097 -0.2293 -0.9166
  127MOL0     H17078   1.813   4.679  -0.124 -0.6287 -1.6405  1.0266
  127MOL0     H17079   2.049   4.643  -0.082  0.5376  0.8158  0.3695
  127MOL0     H17080   2.295   4.696   0.152  3.0605 -2.5005 -0.5483
  127MOL0     H17081   2.183   4.685   0.288  0.7786  0.7477 -0.2730
  127MOL0     H17082   2.431   4.523   0.220 -1.6289  1.3009 -2.6237
  127MOL0     H17083   2.299   4.433   0.294  2.1663 -1.1989  0.2009
  127MOL0     H17084   2.459   4.506   0.460  1.8318 -0.0813 -1.7686
  127MOL0     H17085   2.293   4.573   0.493  0.0087  1.3404  0.7337
  127MOL0     H17086   2.357   4.792   0.365 -0.6262 -2.3073 -2.3369
  127MOL0     H17087   2.414   4.757   0.539  1.7677 -2.9813  1.5185
  127MOL0     H17088   2.577   4.728   0.295  0.7454 -2.7855 -0.2349
  127MOL0     H17089   2.583   4.869   0.413 -0.0404 -0.0732  2.0088
  127MOL0     H17090   2.661   4.708   0.585 -0.3873 -0.1234 -0.6581
  127MOL0     H17091   2.662   4.569   0.465  1.9440 -1.2649  2.6906
  127MOL0     H17092   2.886   4.675   0.515 -0.8884 -1.3146  0.3384
  127MOL0     H17093   2.824   4.821   0.432 -2.6149  0.6104  1.4162
  127MOL0     H17094   2.771   4.613   0.253 -0.5933 -0.0396  1.0830
  127MOL0     H17095   2.916   4.722   0.239  0.6655 -0.2515 -0.6367
  127MOL0     H17096   3.142   4.596   0.203  1.0288 -0.3697  0.6309
  127MOL0     H17097   3.217   4.205   0.229 -2.3869 -0.0215 -0.4226
  127MOL0     H17098   3.260   4.336   0.119  0.3242 -3.4695 -1.1236
  127MOL0     H17099   3.446   4.309   0.260 -0.3304 -3.3218  0.6677
  127MOL0     H17100   3.378   4.452   0.329  1.8772 -0.0577 -0.9035
  127MOL0     H17101   3.275   4.193   0.434 -2.9256  0.3582 -0.1832
  127MOL0     H17102   3.290   4.358   0.507  1.7755  0.7173 -0.2695
  127MOL0     H17103   3.453   4.223   0.638  2.0695 -0.5324  0.6651
  127MOL0     H17104   3.531   4.333   0.532  0.7873 -0.5147  2.9527
  127MOL0     H17105   3.654   3.913   0.430 -1.6291 -1.0562  2.4118
  127MOL0     H17106   3.889   3.857   0.470  0.2622 -0.0420  2.0436
  127MOL0     H17107   4.326   4.270   0.681  0.6956 -0.1468 -1.8804
  127MOL0     H17108   4.572   4.241   0.730  0.2563 -0.9742  1.6724
  127MOL0     H17109   4.705   3.922   0.899 -0.0184  0.3466  0.2931
  127MOL0     H17110   4.748   3.831   0.748 -2.1195  2.2266 -3.6208
  127MOL0     H17111   4.927   4.042   0.864  3.5075 -0.9628  0.0594
  127MOL0     H17112   4.927   3.891   0.938 -1.6123 -0.8056  0.4385
  127MOL0     H17113   4.970   3.791   0.702  1.3635 -0.4395  1.7304
  127MOL0     H17114   4.987   3.952   0.643  1.0282 -1.2469 -1.7384
  127MOL0     H17115   5.175   3.818   0.838  1.6787  0.8478  0.4644
  127MOL0     H17116   5.167   3.996   0.822  1.5740  2.1118 -2.7525
  127MOL0     H17117   5.356   3.901   0.706 -1.1153 -0.5654  1.9742
  127MOL0     H17118   5.228   3.954   0.577  3.1211  1.6312 -0.1878
  127MOL0     H17119   5.290   3.671   0.713 -1.2377 -1.1493  0.2213
  127MOL0     H17120   5.151   3.690   0.609  0.9653 -1.2935 -2.6655
  127MOL0     H17121   5.295   3.740   0.419  1.8207  0.2755 -0.0332
  127MOL0     H17122   5.264   3.587   0.488 -2.6405  0.9791  1.6432
  127MOL0     H17123   5.491   3.625   0.407 -1.5838 -0.0383  0.6459
  127MOL0     H17124   5.522   3.749   0.528  0.5772  0.0339 -0.9652
  127MOL0     H17125   4.512   3.809   0.721 -1.0465 -0.4971 -1.2119
  127MOL0     H17126   4.285   3.841   0.667  1.5032 -0.9118 -2.0076
  127MOL0     H17127   3.962   4.260   0.595 -0.5587  0.1137  1.9171
  127MOL0     H17128   3.725   4.307   0.602 -1.2485 -1.7412  0.7094
  127MOL0     H17129   1.969   4.539   0.326  1.7303 -0.1172 -0.2351
  127MOL0     H17130   1.724   4.577   0.276  0.7014  1.4626  0.2588
  127MOL0     H17131   1.571   4.946  -0.151  1.0641 -0.1202 -1.1170
  127MOL0     H17132   1.375   5.021  -0.283  1.1754 -0.1672 -0.5449
  127MOL0     H17133   1.005   4.816  -0.245  1.0672  0.2581 -1.1417
  127MOL0     H17134   0.956   4.932  -0.344 -1.5413 -2.5964  0.1254
  127MOL0     H17135   0.926   5.079  -0.127  0.3336 -0.4514  2.3702
  127MOL0     H17136   0.913   4.920  -0.055 -1.0398 -1.2280 -1.6792
  127MOL0     H17137   0.753   4.980  -0.288  4.2550  0.5986 -0.3175
  127MOL0     H17138   0.682   5.021  -0.131 -0.6694 -1.2742  0.3630
  127MOL0     H17139   0.610   4.801  -0.206 -0.3676  0.0096  0.2341
  127MOL0     H17140   0.761   4.734  -0.228 -1.3631  0.2231 -1.5084
  127MOL0     H17141   0.665   4.743   0.200  1.1124 -4.0337 -0.3201
  127MOL0     H17142   1.124   4.790  -0.044 -1.2244  2.2817 -1.7319
  127MOL0     H17143   1.373   4.618   0.147 -0.0291 -0.5742 -2.2716
  127MOL0     H17144   1.358   4.776   0.231 -2.1624  1.4745 -0.7920
  127MOL0     H17145   1.215   4.696   0.175  0.4413 -0.1661 -1.5411
  128MOL0     O17146  11.229  10.988   1.851 -0.4431 -0.5587 -0.0644
  128MOL0     C17147  11.140  10.990   1.936  0.2943  0.4219  0.2974
  128MOL0     O17148  11.127  11.090   2.029  0.6212  0.2836  0.0610
  128MOL0     C17149  11.198  11.205   2.032 -1.0621  0.0722  0.4110
  128MOL0     C17150  11.146  11.306   2.110 -0.1482  0.1342 -0.4342
  128MOL0     C17151  11.204  11.430   2.120 -0.0372  0.1274 -0.2634
  128MOL0     C17152  11.322  11.462   2.047  0.2264 -0.5397  0.3773
  128MOL0     O17153  11.371  11.589   2.067  0.6154  0.0425  0.3928
  128MOL0     C17154  11.384  11.666   1.948  0.6555  0.2135 -0.0725
  128MOL0     C17155  11.369  11.821   1.993  0.7017 -0.2483 -0.3882
  128MOL0     C17156  11.503  11.880   2.038  0.0680 -0.2378  0.5417
  128MOL0     C17157  11.515  11.959   2.173  0.2409 -0.9503 -0.1325
  128MOL0     C17158  11.662  12.000   2.207 -0.2806 -0.3966  0.3480
  128MOL0     C17159  11.672  12.072   2.336  0.1368  0.0780 -0.6615
  128MOL0     C17160  11.809  12.136   2.370 -0.3746  0.4833 -0.3180
  128MOL0     C17161  11.908  12.021   2.405 -0.3219  0.3066 -0.0381
  128MOL0     N17162  12.038  12.084   2.458 -0.7599 -0.6397  0.3011
  128MOL0     C17163  12.061  12.135   2.581  0.7498  0.0281 -0.1351
  128MOL0     C17164  12.182  12.188   2.586  0.9767 -0.2241  0.1547
  128MOL0     C17165  12.247  12.241   2.706  0.0444 -0.6632 -0.4283
  128MOL0     C17166  12.370  12.162   2.744  0.3388  0.1283  0.4878
  128MOL0     C17167  12.503  12.209   2.678 -0.4658  0.0135  0.3823
  128MOL0     C17168  12.619  12.123   2.742 -0.8778  0.3874  0.0005
  128MOL0     O17169  12.748  12.176   2.717 -0.5962  0.6022 -0.4081
  128MOL0     C17170  12.851  12.129   2.788 -0.2459  0.4341 -0.3832
  128MOL0     C17171  12.847  12.056   2.909 -0.1849 -1.1036 -0.0571
  128MOL0     C17172  12.962  12.027   2.978  0.6301  0.5024 -0.6201
  128MOL0     C17173  13.085  12.065   2.925 -0.1159  0.2363 -0.0144
  128MOL0     C17174  13.214  12.031   2.992 -0.1503  0.4408 -0.1637
  128MOL0     O17175  13.315  12.116   2.970 -0.2426 -0.3444 -0.5526
  128MOL0     C17176  13.446  12.083   3.010 -0.3478 -0.3413 -0.5291
  128MOL0     C17177  13.516  11.961   2.989 -0.1750 -0.2954 -0.7307
  128MOL0     C17178  13.647  11.941   3.039 -0.8367  0.3943 -0.1633
  128MOL0     C17179  13.708  12.036   3.111 -0.3788 -0.5994  0.1569
  128MOL0     O17180  13.841  12.030   3.158  0.8211 -0.4224 -0.2612
  128MOL0     C17181  13.940  11.955   3.096 -0.7102 -0.3768  0.9057
  128MOL0     C17182  14.068  11.937   3.183  0.1901  1.2860 -0.1889
  128MOL0     C17183  14.174  11.863   3.115 -0.1350  0.2406  0.0788
  128MOL0     C17184  14.163  11.716   3.121  0.1875 -0.0074 -1.5879
  128MOL0     C17185  14.280  11.650   3.058  0.2580  0.7490 -1.2158
  128MOL0     C17186  14.248  11.601   2.914 -0.1124 -0.3444  0.1186
  128MOL0     C17187  14.370  11.537   2.853  0.2785  0.2619  0.4472
  128MOL0     C17188  14.366  11.561   2.705  0.3041  0.4522  0.2111
  128MOL0    Cl17189  14.497  11.466   2.626 -0.4995  0.0782  0.1689
  128MOL0     C17190  13.643  12.161   3.127 -0.3237 -0.4481  0.5885
  128MOL0     C17191  13.517  12.183   3.075 -0.5618  0.1794 -0.0809
  128MOL0     O17192  13.223  11.919   3.039  0.1458  0.6778 -0.3984
  128MOL0     C17193  13.090  12.145   2.816  0.9515  0.2298  0.6090
  128MOL0     C17194  12.977  12.187   2.741 -0.0706  0.2411  1.1486
  128MOL0     N17195  12.243  12.156   2.463 -0.0480 -0.1529  0.1478
  128MOL0     N17196  12.154  12.097   2.384  0.2136 -0.6794 -0.6953
  128MOL0     C17197  11.375  11.361   1.968 -0.1747  1.2029  0.5734
  128MOL0     C17198  11.316  11.233   1.967 -0.1692 -0.8699 -0.2164
  128MOL0     C17199  11.043  10.878   1.924  0.2212 -0.0471  0.2819
  128MOL0     C17200  10.909  10.917   1.955 -1.0702 -0.0501  0.0690
  128MOL0     C17201  10.806  10.824   1.973  0.6282  0.0438 -0.3321
  128MOL0     C17202  10.832  10.690   1.949  0.6397 -0.7525  0.1214
  128MOL0     O17203  10.735  10.600   1.940  0.4605  0.3044  0.2848
  128MOL0     C17204  10.594  10.637   1.917  0.1236  0.0319 -0.7641
  128MOL0     C17205  10.519  10.625   2.046 -0.4883  0.5156  0.1122
  128MOL0     C17206  10.488  10.482   2.077  0.7369 -0.4500 -0.2444
  128MOL0     C17207  10.403  10.399   1.978  0.8841  0.1835  0.6187
  128MOL0     C17208  10.283  10.475   1.947 -0.4740  0.6944  0.5444
  128MOL0     C17209  10.192  10.556   1.934  0.1940  0.5569  0.5314
  128MOL0     C17210  10.963  10.650   1.910 -0.4715 -0.8384 -0.1454
  128MOL0     C17211  11.069  10.749   1.890 -0.1096 -0.5199 -0.1703
  128MOL0     C17212  11.215  10.702   1.846  0.4157  0.4679  0.4178
  128MOL0     H17213  11.049  11.297   2.159  0.1780  1.3261  0.4784
  128MOL0     H17214  11.150  11.509   2.172  0.0664  0.3160 -0.4424
  128MOL0     H17215  11.479  11.645   1.896  1.5116 -0.7226  1.7943
  128MOL0     H17216  11.292  11.645   1.893 -1.0570  0.3485  2.5882
  128MOL0     H17217  11.294  11.838   2.071 -0.7260 -0.8197 -1.5840
  128MOL0     H17218  11.333  11.882   1.909  1.2049  1.2235  0.4188
  128MOL0     H17219  11.522  11.954   1.960 -0.1397 -1.4159 -0.6744
  128MOL0     H17220  11.578  11.800   2.031 -1.7542 -2.0370  0.8393
  128MOL0     H17221  11.439  12.038   2.165 -2.0559 -2.8659  1.1973
  128MOL0     H17222  11.484  11.893   2.255 -1.8767 -1.0218 -0.9033
  128MOL0     H17223  11.723  11.910   2.193  0.1150 -0.0915  0.0752
  128MOL0     H17224  11.695  12.063   2.123 -1.3770 -0.7640 -0.3859
  128MOL0     H17225  11.597  12.149   2.319  2.0951  2.5836  1.2742
  128MOL0     H17226  11.645  12.001   2.415  0.9344 -0.3789 -0.7790
  128MOL0     H17227  11.788  12.210   2.449 -2.7046 -1.4821  1.0613
  128MOL0     H17228  11.844  12.190   2.282 -2.2202  1.5862 -0.4432
  128MOL0     H17229  11.866  11.953   2.479  0.0722 -2.1110 -1.9056
  128MOL0     H17230  11.912  11.973   2.307 -1.3156 -0.4636  0.2810
  128MOL0     H17231  11.990  12.131   2.663 -0.0888  1.2023 -0.7668
  128MOL0     H17232  12.281  12.343   2.684  1.3215 -0.9803 -0.0236
  128MOL0     H17233  12.181  12.242   2.793  2.6317  1.1702  1.6756
  128MOL0     H17234  12.376  12.171   2.853 -2.8345 -0.4308  0.7999
  128MOL0     H17235  12.353  12.057   2.722 -0.0216  0.0523  1.1141
  128MOL0     H17236  12.527  12.314   2.696  0.5535 -0.5557  2.7203
  128MOL0     H17237  12.491  12.184   2.572 -0.7280  0.0058  0.4136
  128MOL0     H17238  12.615  12.022   2.702 -3.3767 -0.3852  1.9289
  128MOL0     H17239  12.589  12.102   2.845 -1.3485  1.6095  0.1330
  128MOL0     H17240  12.753  12.025   2.955 -0.6952 -1.2228 -1.1548
  128MOL0     H17241  12.965  11.955   3.059 -0.4834 -0.2882 -1.2481
  128MOL0     H17242  13.464  11.891   2.924  0.5563 -2.2097  0.6857
  128MOL0     H17243  13.696  11.849   3.010  0.1621  1.0798 -0.6941
  128MOL0     H17244  13.901  11.857   3.067 -4.2379  0.9369  0.6932
  128MOL0     H17245  13.961  12.011   3.005 -1.7105 -1.4999 -0.0632
  128MOL0     H17246  14.111  12.036   3.204  1.0328  0.5419  1.9224
  128MOL0     H17247  14.045  11.896   3.282  0.0100  1.7908 -0.0181
  128MOL0     H17248  14.179  11.883   3.008  1.6960 -0.2250  0.0511
  128MOL0     H17249  14.270  11.879   3.164  0.6901  1.2185 -1.7468
  128MOL0     H17250  14.070  11.670   3.087 -0.2311  0.4388 -1.0472
  128MOL0     H17251  14.175  11.683   3.224 -0.8027  0.5650 -1.2779
  128MOL0     H17252  14.302  11.556   3.111  1.1752  0.8100 -1.4761
  128MOL0     H17253  14.370  11.711   3.062  0.7728 -0.0510  0.9130
  128MOL0     H17254  14.166  11.529   2.913 -0.6173  0.1182 -3.4259
  128MOL0     H17255  14.214  11.683   2.849  0.8657 -0.2300 -0.2683
  128MOL0     H17256  14.368  11.429   2.866  2.1806 -0.2643 -2.5067
  128MOL0     H17257  14.468  11.571   2.889  0.6397 -2.3069  2.0966
  128MOL0     H17258  14.270  11.543   2.656  0.0989  3.4173 -0.7074
  128MOL0     H17259  14.373  11.668   2.683 -0.9033  0.4136 -0.4579
  128MOL0     H17260  13.697  12.240   3.177 -0.2117  0.1392 -0.4375
  128MOL0     H17261  13.482  12.280   3.108 -0.6955 -0.2603  1.1158
  128MOL0     H17262  13.184  12.183   2.777  0.8024 -0.4194 -0.4152
  128MOL0     H17263  12.992  12.233   2.644 -0.6737  2.1773  1.9440
  128MOL0     H17264  11.469  11.375   1.916  0.2435 -0.5030  0.8092
  128MOL0     H17265  11.365  11.157   1.907  1.2967  1.4635 -2.1778
  128MOL0     H17266  10.884  11.014   1.995 -1.0496  0.0005 -0.0410
  128MOL0     H17267  10.705  10.864   1.983 -0.1161 -2.3254  3.7021
  128MOL0     H17268  10.558  10.558   1.851 -1.5787  0.9784 -1.0144
  128MOL0     H17269  10.575  10.736   1.877 -1.4679  0.1235  0.1113
  128MOL0     H17270  10.422  10.677   2.049  0.6552  2.7334  1.3732
  128MOL0     H17271  10.578  10.672   2.125 -0.9586  0.6596  0.3845
  128MOL0     H17272  10.434  10.489   2.172  0.9179  1.2847 -0.2469
  128MOL0     H17273  10.580  10.424   2.091 -0.1124 -1.6225  0.6330
  128MOL0     H17274  10.462  10.367   1.891  1.7548  0.0441  1.2572
  128MOL0     H17275  10.371  10.303   2.020 -0.6692  1.4118  2.3973
  128MOL0     H17276  10.116  10.631   1.922  0.7196  1.3022  1.7045
  128MOL0     H17277  10.978  10.544   1.891 -0.6350 -1.1231  1.1844
  128MOL0     H17278  11.213  10.593   1.851 -0.6298  0.5231  2.1643
  128MOL0     H17279  11.231  10.729   1.741 -1.2357 -1.5335 -0.4186
  128MOL0     H17280  11.286  10.749   1.914  2.0968 -1.2663 -0.0567
  129MOL0     O17281   5.626   8.160   9.373 -0.4875  0.5852 -0.5946
  129MOL0     C17282   5.547   8.120   9.292 -0.3167 -0.6806 -0.3188
  129MOL0     O17283   5.579   8.071   9.170 -0.0509  0.2160 -0.5275
  129MOL0     C17284   5.704   8.100   9.122  0.1047 -0.4361  0.4742
  129MOL0     C17285   5.722   8.162   8.998 -0.5004  0.6101  0.1685
  129MOL0     C17286   5.844   8.179   8.942 -0.3602 -0.3215 -1.0394
  129MOL0     C17287   5.958   8.141   9.009  0.0806  0.0147  0.0650
  129MOL0     O17288   6.076   8.154   8.938 -0.7758 -0.6319  0.5527
  129MOL0     C17289   6.182   8.220   9.020 -0.1075 -0.0114 -0.1898
  129MOL0     C17290   6.251   8.326   8.940 -0.2786 -0.3914  0.3861
  129MOL0     C17291   6.172   8.460   8.927  0.6723 -0.3743  0.0039
  129MOL0     C17292   6.064   8.457   8.827  0.0630  1.0046 -0.2417
  129MOL0     C17293   6.014   8.604   8.808  0.3177 -0.2774  0.1628
  129MOL0     C17294   5.877   8.620   8.718 -0.2076  0.9962  1.0008
  129MOL0     C17295   5.827   8.765   8.708  1.0986  0.2334  0.6259
  129MOL0     C17296   5.857   8.841   8.580 -0.3451 -0.8372  0.2602
  129MOL0     N17297   5.967   8.931   8.608  0.4530 -0.3048 -0.3744
  129MOL0     C17298   5.944   9.066   8.637 -0.7757 -0.0541  0.4097
  129MOL0     C17299   6.063   9.104   8.691 -0.5091 -0.4960  0.5457
  129MOL0     C17300   6.093   9.238   8.745 -0.0283  1.2193 -0.5210
  129MOL0     C17301   6.125   9.241   8.904  0.2487 -1.1581 -0.5738
  129MOL0     C17302   6.147   9.392   8.950  0.6910  0.0663 -0.9038
  129MOL0     C17303   6.270   9.467   8.877  0.5896 -0.2442  0.2223
  129MOL0     O17304   6.392   9.405   8.916  0.4778 -0.3914 -0.0773
  129MOL0     C17305   6.506   9.459   8.866 -0.1282  0.4587 -0.1519
  129MOL0     C17306   6.540   9.596   8.880 -0.2446  0.4733  0.6349
  129MOL0     C17307   6.662   9.640   8.830 -0.6060 -0.4337 -0.2767
  129MOL0     C17308   6.751   9.554   8.758 -0.3932 -0.5208 -0.0355
  129MOL0     C17309   6.874   9.605   8.688 -1.3218  0.0077  0.2869
  129MOL0     O17310   6.897   9.735   8.705  0.2008  0.6683 -0.4114
  129MOL0     C17311   6.966   9.801   8.606  0.1009 -0.0954  0.0075
  129MOL0     C17312   7.039   9.917   8.652  1.0743 -0.0640  0.1686
  129MOL0     C17313   7.116   9.996   8.570 -0.0008  0.2967 -0.2937
  129MOL0     C17314   7.123   9.960   8.429 -1.0887  0.1089 -0.5553
  129MOL0     O17315   7.187  10.046   8.349 -0.7670 -0.4511  1.0566
  129MOL0     C17316   7.126  10.075   8.217  0.7785 -0.4916  0.2695
  129MOL0     C17317   7.193  10.029   8.083 -0.3810  0.4957  1.2557
  129MOL0     C17318   7.317  10.114   8.052 -0.6582 -0.7586  0.7365
  129MOL0     C17319   7.405  10.041   7.944  0.3189  0.0541 -0.2403
  129MOL0     C17320   7.518  10.133   7.884  0.4218 -0.2569  1.3362
  129MOL0     C17321   7.620  10.163   7.987 -0.1602 -0.8725 -0.0389
  129MOL0     C17322   7.744  10.222   7.923  1.0269 -0.2737  0.0768
  129MOL0     C17323   7.852  10.268   8.017  0.6073 -0.8881  0.7341
  129MOL0    Cl17324   7.986  10.341   7.933  0.1984 -0.4862  0.1700
  129MOL0     C17325   7.060   9.849   8.381 -0.7077  1.1526  0.1644
  129MOL0     C17326   6.973   9.774   8.464 -0.2284 -0.1237 -0.6056
  129MOL0     O17327   6.942   9.531   8.615 -0.1239  0.1085  0.3672
  129MOL0     C17328   6.716   9.423   8.754  0.3921  0.2606  0.3759
  129MOL0     C17329   6.599   9.373   8.811 -0.2461  0.0348 -0.0806
  129MOL0     N17330   6.153   9.003   8.689  0.1776  0.2060 -0.5722
  129MOL0     N17331   6.089   8.899   8.644  0.5504  0.9954  0.4221
  129MOL0     C17332   5.951   8.072   9.132 -0.2568  0.0889 -1.0466
  129MOL0     C17333   5.822   8.052   9.190  0.0186 -0.6429 -0.5005
  129MOL0     C17334   5.403   8.145   9.339 -0.0428  0.7425  0.8188
  129MOL0     C17335   5.369   8.229   9.439 -1.3169 -0.0963 -0.3095
  129MOL0     C17336   5.242   8.268   9.471 -0.7591 -0.3632 -0.4933
  129MOL0     C17337   5.129   8.222   9.404  0.2275  0.2632  0.0557
  129MOL0     O17338   5.009   8.275   9.446 -0.5594 -0.9651  0.7236
  129MOL0     C17339   4.887   8.204   9.423  0.0346  0.4745 -0.5361
  129MOL0     C17340   4.776   8.262   9.514  0.0772  0.3824 -0.3016
  129MOL0     C17341   4.641   8.184   9.476 -1.3877 -0.6691  0.2080
  129MOL0     C17342   4.533   8.210   9.583  0.1485  0.2075  0.5905
  129MOL0     C17343   4.402   8.184   9.529  0.3424  0.2049 -0.7050
  129MOL0     C17344   4.291   8.178   9.482 -0.0892  0.6702 -0.4893
  129MOL0     C17345   5.153   8.118   9.311  0.5015 -0.0756 -0.1525
  129MOL0     C17346   5.290   8.076   9.276 -0.5759 -0.5373 -0.3593
  129MOL0     C17347   5.314   7.962   9.182 -0.3947 -0.0722  0.0375
  129MOL0     H17348   5.633   8.193   8.944 -1.1669  1.8436  1.8801
  129MOL0     H17349   5.848   8.225   8.843 -2.9615 -2.1575 -2.1207
  129MOL0     H17350   6.156   8.258   9.119 -1.8184 -0.6180 -0.3696
  129MOL0     H17351   6.251   8.137   9.033  0.4209  0.1924 -1.5348
  129MOL0     H17352   6.284   8.284   8.845  1.6640  1.8987 -0.0316
  129MOL0     H17353   6.345   8.348   8.991  0.3776 -0.4830 -0.7610
  129MOL0     H17354   6.248   8.531   8.896 -0.1624  0.4034 -0.3133
  129MOL0     H17355   6.132   8.498   9.022 -2.9428  0.6811 -1.7303
  129MOL0     H17356   6.088   8.418   8.727  1.0372 -0.5998  0.5746
  129MOL0     H17357   5.986   8.395   8.873  1.2595  0.4828  1.1451
  129MOL0     H17358   6.001   8.663   8.899 -0.4771  4.6689 -2.7638
  129MOL0     H17359   6.095   8.660   8.761  0.8860  1.2967  2.8473
  129MOL0     H17360   5.897   8.573   8.621  2.8054  1.7166  1.1675
  129MOL0     H17361   5.798   8.554   8.755  0.2715  0.2666  0.7489
  129MOL0     H17362   5.866   8.826   8.790 -0.4092  3.6581 -0.9763
  129MOL0     H17363   5.718   8.756   8.713  0.9408 -0.5443 -2.3620
  129MOL0     H17364   5.876   8.770   8.499  0.0167 -1.6587  1.0489
  129MOL0     H17365   5.774   8.903   8.544 -1.2522 -1.8060  0.6410
  129MOL0     H17366   5.860   9.132   8.619 -0.5910  0.9115  2.6885
  129MOL0     H17367   6.187   9.267   8.697  0.8585 -0.4795  0.0950
  129MOL0     H17368   6.006   9.302   8.730 -2.0768 -0.9055  1.4153
  129MOL0     H17369   6.044   9.197   8.963  0.3615  0.2605  0.7137
  129MOL0     H17370   6.215   9.182   8.925  1.7179  1.0639 -0.2405
  129MOL0     H17371   6.175   9.400   9.055 -2.3890  1.8673 -0.0905
  129MOL0     H17372   6.054   9.449   8.939 -0.1443 -0.9624  0.4993
  129MOL0     H17373   6.256   9.566   8.921  0.9958 -0.5750  1.1365
  129MOL0     H17374   6.254   9.463   8.769  0.7428 -0.0112  0.1897
  129MOL0     H17375   6.486   9.676   8.929 -0.4109  2.1338 -2.0514
  129MOL0     H17376   6.690   9.743   8.849 -2.6351 -0.3130  2.8016
  129MOL0     H17377   7.037   9.944   8.757  1.8189  1.7884 -0.2544
  129MOL0     H17378   7.140  10.100   8.591 -0.7620  0.5970 -0.8555
  129MOL0     H17379   7.020  10.049   8.224  0.3647 -0.0049 -2.9286
  129MOL0     H17380   7.121  10.184   8.213  1.2791 -0.5043 -1.4877
  129MOL0     H17381   7.237   9.932   8.108 -0.3317  0.7318  2.1282
  129MOL0     H17382   7.129  10.035   7.994 -0.1767  0.5865  1.1153
  129MOL0     H17383   7.288  10.212   8.014  1.2884 -0.2105  0.5672
  129MOL0     H17384   7.368  10.132   8.147 -0.1152  1.0231  0.1456
  129MOL0     H17385   7.341   9.994   7.869 -0.9516  1.1607  0.1110
  129MOL0     H17386   7.464   9.960   7.987  0.1794 -1.1666 -2.2385
  129MOL0     H17387   7.473  10.222   7.837  1.3466  0.2406  1.3655
  129MOL0     H17388   7.560  10.071   7.804 -3.7350 -1.2769 -0.2859
  129MOL0     H17389   7.578  10.233   8.061  1.3489 -0.1472  0.1577
  129MOL0     H17390   7.637  10.068   8.037  2.0252 -1.7170 -2.2001
  129MOL0     H17391   7.701  10.308   7.872 -0.0944 -0.5596  0.5086
  129MOL0     H17392   7.798  10.152   7.859  1.0380 -1.2555  1.1206
  129MOL0     H17393   7.815  10.339   8.091  0.4378 -0.0724 -0.1061
  129MOL0     H17394   7.890  10.179   8.066 -3.5009 -2.0735  2.1222
  129MOL0     H17395   7.080   9.822   8.278  0.9275 -0.3664  0.8386
  129MOL0     H17396   6.910   9.702   8.413  0.7766 -3.1407  2.0667
  129MOL0     H17397   6.790   9.352   8.719  1.7553 -0.6005  4.4381
  129MOL0     H17398   6.576   9.269   8.834  0.0062  0.2724  1.3354
  129MOL0     H17399   6.041   8.022   9.165  0.5385  2.8920  1.3992
  129MOL0     H17400   5.806   7.982   9.271  0.1284 -3.1906 -2.5442
  129MOL0     H17401   5.445   8.262   9.509 -0.0584  0.8536 -2.0323
  129MOL0     H17402   5.225   8.341   9.549  0.4433  0.8749 -1.3561
  129MOL0     H17403   4.895   8.097   9.441  0.0231  0.6088  0.3226
  129MOL0     H17404   4.858   8.208   9.318 -1.1233 -6.4709 -0.9703
  129MOL0     H17405   4.749   8.365   9.490 -3.0613 -0.6029 -1.5557
  129MOL0     H17406   4.802   8.268   9.620 -0.0991 -0.4697 -0.2000
  129MOL0     H17407   4.659   8.076   9.473 -1.9117 -0.7445 -2.8036
  129MOL0     H17408   4.596   8.214   9.382 -2.0249 -2.3975 -0.0664
  129MOL0     H17409   4.570   8.140   9.659  0.6885 -1.3196 -1.0173
  129MOL0     H17410   4.516   8.313   9.616  0.4847 -0.0486  1.6104
  129MOL0     H17411   4.189   8.156   9.455  0.6343 -2.7054 -0.9617
  129MOL0     H17412   5.062   8.070   9.276 -2.5739  3.6395  1.9881
  129MOL0     H17413   5.375   7.888   9.234 -0.7300 -0.1366  0.3499
  129MOL0     H17414   5.220   7.917   9.146 -1.2637  0.5302  1.4825
  129MOL0     H17415   5.375   7.998   9.099  1.4142 -2.1223  0.3734
  130MOL0     O17416   8.115   1.890  10.694 -0.5397 -0.3731 -0.0200
  130MOL0     C17417   8.028   1.968  10.649  0.5455  0.1128 -0.0736
  130MOL0     O17418   8.047   2.083  10.582 -0.2175  0.0606 -0.0307
  130MOL0     C17419   8.173   2.100  10.528 -0.0718  0.4740  0.1554
  130MOL0     C17420   8.270   2.163  10.602 -0.3938  0.6814  0.0841
  130MOL0     C17421   8.398   2.193  10.552  0.8715  0.0454 -0.1302
  130MOL0     C17422   8.435   2.136  10.436 -1.0318  0.0011 -0.8458
  130MOL0     O17423   8.561   2.138  10.386  0.2766 -0.0531 -0.0412
  130MOL0     C17424   8.581   2.256  10.303 -0.7291 -0.7949  0.1712
  130MOL0     C17425   8.725   2.239  10.242 -0.0308  0.5665  0.7451
  130MOL0     C17426   8.826   2.284  10.347  0.2637 -0.1240 -0.4349
  130MOL0     C17427   8.957   2.324  10.279 -0.9303 -0.1529 -0.0275
  130MOL0     C17428   9.066   2.389  10.373  0.1147 -0.9865  0.4452
  130MOL0     C17429   9.180   2.460  10.298  0.6707  0.2544 -0.9713
  130MOL0     C17430   9.295   2.487  10.393 -0.4532  0.2047 -1.1038
  130MOL0     C17431   9.267   2.592  10.505 -0.1690  0.1133  0.1376
  130MOL0     N17432   9.392   2.640  10.565 -0.9043  0.5996 -0.7472
  130MOL0     C17433   9.501   2.692  10.502 -0.0326 -0.5460  0.1993
  130MOL0     C17434   9.606   2.665  10.583 -0.3207 -0.0266  0.9064
  130MOL0     C17435   9.754   2.702  10.570  0.4783 -0.2974  0.8547
  130MOL0     C17436   9.843   2.595  10.506  0.1479 -0.3401  0.2092
  130MOL0     C17437   9.969   2.664  10.453  0.5006  0.5747  1.0249
  130MOL0     C17438  10.048   2.565  10.359 -0.5268 -0.1363 -1.5425
  130MOL0     O17439  10.124   2.466  10.426  0.4197  0.4302 -0.4942
  130MOL0     C17440  10.252   2.489  10.463 -0.6310 -0.3358 -0.2295
  130MOL0     C17441  10.312   2.378  10.523 -0.7459  0.0589  0.9709
  130MOL0     C17442  10.439   2.384  10.586  0.6958  0.2251 -0.1228
  130MOL0     C17443  10.502   2.503  10.594 -0.5151  0.0936  0.7579
  130MOL0     C17444  10.633   2.517  10.654 -0.4265  0.0856  0.2871
  130MOL0     O17445  10.704   2.636  10.640 -0.2173 -0.2238  0.4380
  130MOL0     C17446  10.826   2.634  10.700  0.6876  0.0053  0.2348
  130MOL0     C17447  10.942   2.622  10.623  0.5577 -0.2126 -0.1343
  130MOL0     C17448  11.068   2.633  10.683 -0.3858 -0.6414  0.6031
  130MOL0     C17449  11.084   2.636  10.823 -0.4125 -0.2169 -0.6264
  130MOL0     O17450  11.204   2.640  10.890  0.5507  0.2378  0.1812
  130MOL0     C17451  11.317   2.701  10.827  0.3584  0.7048 -0.7540
  130MOL0     C17452  11.430   2.713  10.937  0.1529  0.0571 -0.5082
  130MOL0     C17453  11.570   2.722  10.883 -1.1754 -0.2410 -0.1657
  130MOL0     C17454  11.695   2.718  10.972 -0.2813 -0.9902  0.4043
  130MOL0     C17455  11.825   2.737  10.893  0.0702 -0.2422 -0.1893
  130MOL0     C17456  11.946   2.757  10.986  0.1362 -0.7043  0.1036
  130MOL0     C17457  12.067   2.812  10.899  1.2464 -0.1051 -0.6719
  130MOL0     C17458  12.169   2.857  10.997  0.3058  0.1424  0.2855
  130MOL0    Cl17459  12.317   2.902  10.896  0.3769  0.3603 -0.2279
  130MOL0     C17460  10.965   2.646  10.903  0.3607  0.3456  0.2066
  130MOL0     C17461  10.834   2.647  10.835 -1.1246  0.0715 -0.6997
  130MOL0     O17462  10.685   2.418  10.706 -0.2489  0.3540 -0.5361
  130MOL0     C17463  10.439   2.620  10.539  0.6021  0.1743  0.1434
  130MOL0     C17464  10.317   2.614  10.470 -0.0438  0.2423  1.0022
  130MOL0     N17465   9.556   2.600  10.695 -0.4628  0.1740  1.0761
  130MOL0     N17466   9.425   2.587  10.689  0.6026  0.8479  0.0257
  130MOL0     C17467   8.338   2.060  10.364  1.2495 -0.1367 -0.6209
  130MOL0     C17468   8.201   2.049  10.403  1.1622  0.5891 -0.8519
  130MOL0     C17469   7.892   1.969  10.722 -0.4708  0.9355 -0.1009
  130MOL0     C17470   7.832   2.094  10.758 -0.5981  0.5598 -0.5419
  130MOL0     C17471   7.721   2.099  10.840 -0.3441  0.1583 -0.0728
  130MOL0     C17472   7.658   1.980  10.887  0.9005  0.3430  0.2363
  130MOL0     O17473   7.536   1.977  10.953  0.0287  0.3994  0.1812
  130MOL0     C17474   7.446   2.089  10.943 -0.7629  0.7245  0.0338
  130MOL0     C17475   7.378   2.060  10.810 -0.0201 -0.2066 -0.1275
  130MOL0     C17476   7.252   2.150  10.794  1.0170  0.1505  0.1158
  130MOL0     C17477   7.279   2.304  10.767  0.8876  0.0719 -0.0939
  130MOL0     C17478   7.400   2.330  10.686 -0.7391  0.3900 -0.1610
  130MOL0     C17479   7.506   2.353  10.620  1.3381 -0.2536 -0.4514
  130MOL0     C17480   7.717   1.858  10.853  0.3902  0.1539 -0.1929
  130MOL0     C17481   7.833   1.852  10.772  0.8985 -0.8286 -0.2436
  130MOL0     C17482   7.878   1.705  10.744 -0.2242  0.2436  0.4130
  130MOL0     H17483   8.238   2.214  10.693 -3.5669 -0.0021 -0.5180
  130MOL0     H17484   8.472   2.260  10.596  1.7052 -3.0081  3.6126
  130MOL0     H17485   8.519   2.262  10.214  0.1349  0.5186 -0.3761
  130MOL0     H17486   8.576   2.352  10.354  1.7412 -0.8824  0.7224
  130MOL0     H17487   8.728   2.301  10.151 -0.0098 -2.3983 -1.4316
  130MOL0     H17488   8.741   2.138  10.205 -0.1253  2.2795 -5.0282
  130MOL0     H17489   8.849   2.206  10.421  0.8108  1.2522  0.8798
  130MOL0     H17490   8.791   2.364  10.413  0.7188  0.3871 -0.8132
  130MOL0     H17491   8.998   2.241  10.220 -0.3550  1.7702 -2.5205
  130MOL0     H17492   8.911   2.397  10.212 -3.4310  1.0710  2.7966
  130MOL0     H17493   9.012   2.456  10.439 -1.7629  0.3785 -2.2783
  130MOL0     H17494   9.101   2.307  10.437 -3.9847 -2.2985  1.2508
  130MOL0     H17495   9.213   2.393  10.217  0.6353  0.0790 -0.8416
  130MOL0     H17496   9.140   2.550  10.251 -1.6864 -0.9788 -1.4895
  130MOL0     H17497   9.372   2.531  10.328  1.1393  1.0435  1.2105
  130MOL0     H17498   9.335   2.397  10.441  1.9200  0.5252 -2.3140
  130MOL0     H17499   9.241   2.682  10.449  0.4714 -0.8819 -1.8784
  130MOL0     H17500   9.191   2.562  10.577  1.5291 -3.7024  0.5967
  130MOL0     H17501   9.508   2.734  10.403  1.1847 -1.4879 -0.1250
  130MOL0     H17502   9.753   2.795  10.511 -1.8215 -0.1833  0.9809
  130MOL0     H17503   9.794   2.736  10.666  0.5067  0.9052  0.4415
  130MOL0     H17504   9.877   2.526  10.584 -0.8975  0.9383  1.8547
  130MOL0     H17505   9.795   2.534  10.429 -0.4030 -0.1306  0.3853
  130MOL0     H17506  10.032   2.702  10.534 -0.5669 -1.5777  2.9782
  130MOL0     H17507   9.937   2.743  10.384  0.9316 -0.4158 -0.3509
  130MOL0     H17508  10.103   2.640  10.302  1.2848  0.4947  0.8406
  130MOL0     H17509   9.971   2.521  10.296  2.1107 -2.2505 -3.5523
  130MOL0     H17510  10.259   2.284  10.516 -0.2923 -0.1985  0.9440
  130MOL0     H17511  10.478   2.292  10.627  0.5256  1.0078  1.9158
  130MOL0     H17512  10.937   2.617  10.515  1.3681  0.1951 -0.1944
  130MOL0     H17513  11.153   2.634  10.617  1.6926 -1.5456  3.1002
  130MOL0     H17514  11.351   2.642  10.740 -0.1299 -0.8171  0.0506
  130MOL0     H17515  11.294   2.804  10.799  2.1697  1.1180 -0.8532
  130MOL0     H17516  11.409   2.806  10.990  1.1007 -1.1246  2.1240
  130MOL0     H17517  11.433   2.630  11.008 -1.5170 -1.0066 -1.6113
  130MOL0     H17518  11.589   2.636  10.819  3.0091  1.6630 -1.8378
  130MOL0     H17519  11.573   2.818  10.832 -0.7113 -0.6796 -0.9685
  130MOL0     H17520  11.700   2.621  11.021  2.5449 -1.4970 -0.7456
  130MOL0     H17521  11.684   2.796  11.049 -0.0278  0.9792 -1.4463
  130MOL0     H17522  11.811   2.826  10.832 -1.1637 -1.1292 -1.2777
  130MOL0     H17523  11.846   2.649  10.832  0.0509  0.4035 -1.1386
  130MOL0     H17524  11.929   2.822  11.072  0.9416  0.2408 -0.4331
  130MOL0     H17525  11.968   2.658  11.027  1.3244 -0.4559  0.0838
  130MOL0     H17526  12.045   2.905  10.847  1.3818  1.1715  1.4568
  130MOL0     H17527  12.110   2.736  10.833  1.2623  0.1577 -0.9675
  130MOL0     H17528  12.138   2.942  11.058 -1.3501 -2.0585  2.7185
  130MOL0     H17529  12.198   2.774  11.062 -0.9513 -0.9686 -0.5294
  130MOL0     H17530  10.978   2.635  11.010 -1.9232  1.1544  0.6391
  130MOL0     H17531  10.751   2.654  10.905  0.4283 -1.4037  1.3863
  130MOL0     H17532  10.472   2.724  10.538  0.9700  0.0649 -1.3981
  130MOL0     H17533  10.265   2.705  10.443 -1.2909  0.3155  3.3422
  130MOL0     H17534   8.364   2.005  10.274 -2.8472 -1.7495 -1.0372
  130MOL0     H17535   8.120   1.994  10.356 -1.0597  1.6163  1.5503
  130MOL0     H17536   7.877   2.187  10.724  0.2085  0.3658 -0.0332
  130MOL0     H17537   7.693   2.199  10.873  0.1396 -0.2143  1.5758
  130MOL0     H17538   7.487   2.190  10.949  0.9698  0.0931 -0.7838
  130MOL0     H17539   7.374   2.103  11.024  0.1289  2.0499  0.6382
  130MOL0     H17540   7.348   1.955  10.809 -2.0548  0.3204  0.0743
  130MOL0     H17541   7.449   2.074  10.729  0.9390 -2.7035  0.2044
  130MOL0     H17542   7.173   2.136  10.869 -1.4946  0.7585 -2.2423
  130MOL0     H17543   7.210   2.101  10.706 -1.1441 -0.5394  1.4372
  130MOL0     H17544   7.194   2.342  10.710  1.2242 -0.3116 -0.8714
  130MOL0     H17545   7.291   2.361  10.859 -0.9501  2.3500 -1.1782
  130MOL0     H17546   7.596   2.380  10.569  0.4793  1.7448 -1.0113
  130MOL0     H17547   7.672   1.769  10.895  1.3560  0.8170  2.4392
  130MOL0     H17548   7.793   1.635  10.742 -0.1727  0.1895  0.0800
  130MOL0     H17549   7.926   1.705  10.646  1.2935  0.7960  1.1317
  130MOL0     H17550   7.961   1.683  10.812  1.1135 -0.7090 -1.4389
  131MOL0     O17551   1.960   7.141   8.773 -0.4703 -0.1234  0.6176
  131MOL0     C17552   1.912   7.069   8.686  0.2117  0.4745 -0.5534
  131MOL0     O17553   1.976   6.975   8.610  0.1882 -0.7566 -0.4765
  131MOL0     C17554   2.105   6.948   8.643 -0.2125  0.2025 -0.0495
  131MOL0     C17555   2.176   6.956   8.768  1.2276  0.1034  0.1602
  131MOL0     C17556   2.313   6.932   8.771 -0.0010  0.1729  0.0004
  131MOL0     C17557   2.387   6.913   8.661 -0.0778  0.3343  0.1077
  131MOL0     O17558   2.524   6.917   8.662 -0.1206  0.6664 -0.5743
  131MOL0     C17559   2.578   6.792   8.639 -0.5813  0.0482  0.3437
  131MOL0     C17560   2.725   6.794   8.620 -0.6467  0.5942  0.2468
  131MOL0     C17561   2.804   6.794   8.748  1.2482 -0.0662  0.0075
  131MOL0     C17562   2.957   6.775   8.730  0.3673  0.6224  0.4587
  131MOL0     C17563   3.029   6.796   8.857  0.0486  0.7203 -0.8969
  131MOL0     C17564   3.171   6.733   8.859  0.0198  0.8404  0.1569
  131MOL0     C17565   3.265   6.806   8.764  0.6655 -0.2640  0.0181
  131MOL0     C17566   3.390   6.723   8.753 -0.7807 -0.1794  0.2630
  131MOL0     N17567   3.490   6.794   8.671  0.1036 -0.5589  0.1870
  131MOL0     C17568   3.466   6.910   8.591 -0.2008 -0.0285  0.8184
  131MOL0     C17569   3.580   6.969   8.569  0.0634 -0.7277  0.0835
  131MOL0     C17570   3.596   7.103   8.496  0.0247  0.0918  0.4041
  131MOL0     C17571   3.594   7.058   8.348 -0.7331 -0.9404 -0.3652
  131MOL0     C17572   3.734   7.027   8.297 -0.6022  0.0783  0.2025
  131MOL0     C17573   3.740   6.975   8.148 -0.1926 -0.0461  0.0500
  131MOL0     O17574   3.870   6.912   8.130  0.0573  0.9022 -0.0068
  131MOL0     C17575   3.971   6.987   8.080  0.0141 -0.1139  0.1586
  131MOL0     C17576   4.075   6.919   8.020  0.0071  0.5468  0.0841
  131MOL0     C17577   4.194   6.975   7.981  0.5284 -0.5110  0.2171
  131MOL0     C17578   4.218   7.111   8.002  0.0389  0.1838  0.1154
  131MOL0     C17579   4.339   7.180   7.963  0.1927 -0.1682  0.0332
  131MOL0     O17580   4.453   7.123   7.996  0.0190 -0.0487 -0.0263
  131MOL0     C17581   4.569   7.191   7.990 -0.3192  0.6004  0.2177
  131MOL0     C17582   4.683   7.134   7.918  0.7636 -0.0222 -0.4874
  131MOL0     C17583   4.797   7.216   7.897  0.0652 -0.0649 -0.4451
  131MOL0     C17584   4.808   7.343   7.950  0.0206 -0.8650 -0.0486
  131MOL0     O17585   4.918   7.415   7.922 -0.5631  0.2436  1.0058
  131MOL0     C17586   4.989   7.468   8.037 -0.5098  0.2777  0.2602
  131MOL0     C17587   5.140   7.457   8.010  1.7148  0.3025 -0.7707
  131MOL0     C17588   5.232   7.489   8.136  0.5918  0.0161  0.2362
  131MOL0     C17589   5.385   7.476   8.097 -0.1584  0.4035  0.2752
  131MOL0     C17590   5.474   7.527   8.220 -0.6923 -0.6545 -0.1214
  131MOL0     C17591   5.506   7.414   8.315 -0.1420  0.5186  0.2380
  131MOL0     C17592   5.607   7.441   8.417 -0.1771 -0.4725 -0.5907
  131MOL0     C17593   5.689   7.321   8.471 -0.4417  0.4486  0.7838
  131MOL0    Cl17594   5.767   7.214   8.352 -0.3564  0.3110 -0.0396
  131MOL0     C17595   4.705   7.406   8.024  0.6997 -0.3531  0.3196
  131MOL0     C17596   4.585   7.325   8.035 -0.1649  0.0641  0.3610
  131MOL0     O17597   4.326   7.289   7.906  0.0376 -0.8211 -0.4072
  131MOL0     C17598   4.114   7.184   8.057  0.0481  0.2618 -0.7245
  131MOL0     C17599   3.997   7.119   8.098 -0.1534 -0.4712  0.1793
  131MOL0     N17600   3.681   6.896   8.632  1.0313  0.0535  0.2753
  131MOL0     N17601   3.625   6.789   8.695  0.8890 -0.0884 -0.4110
  131MOL0     C17602   2.321   6.901   8.542 -0.0890  0.1849  0.1766
  131MOL0     C17603   2.181   6.918   8.529 -0.4339 -0.1021 -1.2917
  131MOL0     C17604   1.767   7.077   8.678 -0.9359 -0.8475  0.0297
  131MOL0     C17605   1.688   7.092   8.794  1.1311  0.5371  0.2304
  131MOL0     C17606   1.542   7.107   8.790  0.3689 -0.6135 -0.2452
  131MOL0     C17607   1.475   7.096   8.665 -0.3268 -0.7401  0.0485
  131MOL0     O17608   1.339   7.102   8.666  0.2860 -0.5098 -0.9316
  131MOL0     C17609   1.255   7.021   8.585  0.3889  0.1398  0.3398
  131MOL0     C17610   1.199   6.901   8.665 -0.8734 -0.0831  0.4570
  131MOL0     C17611   1.060   6.852   8.609  0.2933 -0.1205  0.0807
  131MOL0     C17612   0.981   6.768   8.702 -0.1117  0.3419 -0.9324
  131MOL0     C17613   0.848   6.819   8.730  0.7940 -0.6595  0.7987
  131MOL0     C17614   0.739   6.869   8.747 -0.1751  0.7539 -0.2801
  131MOL0     C17615   1.556   7.079   8.556 -0.9163  0.7312  0.5114
  131MOL0     C17616   1.696   7.071   8.557 -0.3081  0.0808 -0.0516
  131MOL0     C17617   1.762   7.047   8.420  0.0919  0.0531  0.0487
  131MOL0     H17618   2.124   6.969   8.863 -0.5482  0.9486 -0.8854
  131MOL0     H17619   2.376   6.940   8.859  2.1661  2.9011 -1.6076
  131MOL0     H17620   2.556   6.720   8.719 -0.2422  1.4769  1.7771
  131MOL0     H17621   2.542   6.755   8.542  1.5774 -1.3071 -0.0044
  131MOL0     H17622   2.759   6.875   8.554  2.2583 -0.2742  0.5210
  131MOL0     H17623   2.748   6.709   8.554 -1.2513 -2.7271  3.9494
  131MOL0     H17624   2.767   6.712   8.810 -0.3024  0.8473  0.3574
  131MOL0     H17625   2.776   6.887   8.798 -2.8839  0.0012 -1.9731
  131MOL0     H17626   2.958   6.675   8.684 -0.9625  0.9724 -0.3835
  131MOL0     H17627   2.982   6.855   8.660  0.6735 -0.4073 -0.6522
  131MOL0     H17628   3.032   6.902   8.886  0.9645  0.4996 -0.1467
  131MOL0     H17629   2.972   6.750   8.937 -0.3406  1.5086 -0.7061
  131MOL0     H17630   3.218   6.746   8.957  1.5576 -0.4573 -0.3729
  131MOL0     H17631   3.159   6.627   8.837  0.8649  0.2335  2.3547
  131MOL0     H17632   3.275   6.907   8.806 -1.7676  0.5407 -1.1517
  131MOL0     H17633   3.207   6.825   8.674 -0.7382 -0.7089  0.7922
  131MOL0     H17634   3.439   6.688   8.844 -0.5420 -0.3870  0.0568
  131MOL0     H17635   3.364   6.629   8.704 -1.0658 -0.3943  0.8176
  131MOL0     H17636   3.375   6.963   8.564  1.1289  1.0809 -1.8771
  131MOL0     H17637   3.514   7.172   8.516 -1.1270  0.5376 -4.4877
  131MOL0     H17638   3.689   7.152   8.527  0.9852 -0.0239 -2.0680
  131MOL0     H17639   3.527   6.974   8.326  1.9459 -2.9245 -1.5331
  131MOL0     H17640   3.559   7.142   8.288  2.4576  0.3863 -0.5121
  131MOL0     H17641   3.788   6.961   8.366  1.0515  1.5384  0.3575
  131MOL0     H17642   3.791   7.120   8.299 -1.3726  0.7575 -3.0784
  131MOL0     H17643   3.720   7.065   8.090  1.8470  1.0627  0.9456
  131MOL0     H17644   3.654   6.910   8.130 -0.4160  0.1886  0.2679
  131MOL0     H17645   4.053   6.815   7.996  1.4812 -0.3676  2.3136
  131MOL0     H17646   4.266   6.912   7.929  0.4630  0.6780 -1.3849
  131MOL0     H17647   4.688   7.030   7.887 -1.0867  0.0154 -1.0423
  131MOL0     H17648   4.876   7.189   7.827 -0.9162 -1.8148 -0.9377
  131MOL0     H17649   4.963   7.568   8.073  2.2848  0.8882  0.7884
  131MOL0     H17650   4.962   7.401   8.119 -1.9313 -0.7411 -0.9612
  131MOL0     H17651   5.155   7.352   7.985 -1.7683 -0.0212 -2.0584
  131MOL0     H17652   5.166   7.517   7.922 -1.2818 -1.8993 -3.4148
  131MOL0     H17653   5.213   7.590   8.174 -1.3292 -1.0894  2.4526
  131MOL0     H17654   5.212   7.414   8.213  1.7507 -1.2873 -0.6861
  131MOL0     H17655   5.402   7.540   8.010 -2.5616  1.0600  0.2213
  131MOL0     H17656   5.424   7.376   8.080  2.6194  1.0244  2.2436
  131MOL0     H17657   5.442   7.620   8.266 -2.5315 -1.4192  0.2602
  131MOL0     H17658   5.564   7.556   8.165  0.2337 -3.6204 -0.3512
  131MOL0     H17659   5.413   7.384   8.364 -0.3780  1.3216  0.3014
  131MOL0     H17660   5.550   7.332   8.258 -1.0605 -0.8530  1.4488
  131MOL0     H17661   5.561   7.503   8.494  0.8280 -1.5199  0.9029
  131MOL0     H17662   5.685   7.503   8.372  0.8756 -1.6582 -0.4351
  131MOL0     H17663   5.779   7.365   8.513  1.1997  1.1158 -3.0136
  131MOL0     H17664   5.640   7.254   8.543  0.1254  1.6699  2.3671
  131MOL0     H17665   4.706   7.507   8.062 -0.0303  0.3046 -1.3253
  131MOL0     H17666   4.498   7.364   8.086 -0.1565  1.2791 -0.5278
  131MOL0     H17667   4.128   7.290   8.074  1.8451 -0.3347  2.1624
  131MOL0     H17668   3.919   7.183   8.139  1.8905  1.4574  1.2755
  131MOL0     H17669   2.373   6.886   8.448 -1.4592 -0.5198 -0.5010
  131MOL0     H17670   2.140   6.904   8.430  2.9755 -4.3566 -2.3895
  131MOL0     H17671   1.721   7.094   8.898  1.1500 -5.4758  0.7026
  131MOL0     H17672   1.489   7.118   8.884  2.4946  0.4014  0.8964
  131MOL0     H17673   1.305   6.987   8.494 -0.7391  2.6169 -1.3312
  131MOL0     H17674   1.172   7.085   8.552 -2.4915 -3.4667 -0.0339
  131MOL0     H17675   1.182   6.931   8.768  2.3615 -0.5175  1.2170
  131MOL0     H17676   1.270   6.818   8.669  0.2606  0.8105 -0.4091
  131MOL0     H17677   1.070   6.800   8.513 -1.2294  2.6132 -1.6770
  131MOL0     H17678   1.006   6.945   8.586 -2.2214 -1.3239  0.7521
  131MOL0     H17679   0.961   6.669   8.661  0.0514 -0.8532  1.6738
  131MOL0     H17680   1.029   6.757   8.799 -0.3121 -1.7150 -1.0162
  131MOL0     H17681   0.647   6.915   8.776  0.9163  1.5084  2.1966
  131MOL0     H17682   1.502   7.052   8.466  2.2395 -2.8522 -0.5494
  131MOL0     H17683   1.803   6.946   8.414  1.8857  0.8280 -1.5092
  131MOL0     H17684   1.694   7.056   8.334 -0.1686 -2.9354 -0.1613
  131MOL0     H17685   1.850   7.110   8.407  1.6698 -2.1580 -0.5364
  132MOL0     O17686   7.282   1.339   9.026  0.7313  0.0318 -0.7725
  132MOL0     C17687   7.234   1.264   9.105  1.2756  0.2487  0.1572
  132MOL0     O17688   7.309   1.176   9.187  0.0802  0.6124 -0.0998
  132MOL0     C17689   7.451   1.176   9.172  0.6275 -0.7250  0.7755
  132MOL0     C17690   7.539   1.220   9.271  0.4445  1.0643  1.6448
  132MOL0     C17691   7.682   1.221   9.257 -0.0112  1.1874  0.4993
  132MOL0     C17692   7.737   1.169   9.140  0.1618  0.5391 -0.1965
  132MOL0     O17693   7.872   1.175   9.107  0.0341 -0.1612 -0.1153
  132MOL0     C17694   7.930   1.077   9.025  0.0666  0.1459  0.3356
  132MOL0     C17695   8.055   1.136   8.961 -0.1481  0.1936  0.0773
  132MOL0     C17696   8.179   1.155   9.049 -0.5141 -0.7283  0.4912
  132MOL0     C17697   8.293   1.221   8.971 -0.3952 -0.4868  0.5186
  132MOL0     C17698   8.412   1.256   9.056  0.0062 -0.0236 -0.5722
  132MOL0     C17699   8.512   1.348   8.970 -1.0358 -0.2864  0.3172
  132MOL0     C17700   8.635   1.380   9.064  0.4754 -0.5852 -0.2481
  132MOL0     C17701   8.732   1.487   9.002  0.0048 -0.6528  1.3472
  132MOL0     N17702   8.848   1.518   9.089 -0.6482  0.0225 -0.6630
  132MOL0     C17703   8.907   1.642   9.104 -0.8559  0.3693  0.8128
  132MOL0     C17704   9.011   1.619   9.196  0.6711  0.2643 -0.1929
  132MOL0     C17705   9.119   1.713   9.258  0.0669  0.1793  0.4610
  132MOL0     C17706   9.237   1.733   9.154 -0.6803  0.5597  0.2187
  132MOL0     C17707   9.348   1.828   9.202  0.0662  0.0126 -0.3398
  132MOL0     C17708   9.471   1.820   9.103 -0.0261 -0.4904 -0.3871
  132MOL0     O17709   9.572   1.914   9.144  0.0002  0.7420 -0.1471
  132MOL0     C17710   9.704   1.897   9.115  0.1354 -0.0210 -0.7672
  132MOL0     C17711   9.799   1.995   9.151  0.0289 -0.3595  0.1007
  132MOL0     C17712   9.936   1.990   9.107  0.3144 -0.0912 -0.5793
  132MOL0     C17713   9.975   1.884   9.026 -0.0073 -0.0180  0.1256
  132MOL0     C17714  10.114   1.854   8.997 -0.2873  0.1203  0.2280
  132MOL0     O17715  10.209   1.940   9.051  0.2076 -0.5556 -0.1796
  132MOL0     C17716  10.333   1.944   9.002 -0.3699  0.0021  0.0707
  132MOL0     C17717  10.430   1.976   9.097 -0.2479 -0.2520 -0.9339
  132MOL0     C17718  10.569   1.971   9.066  0.5327 -0.0772 -0.3609
  132MOL0     C17719  10.603   1.932   8.930  0.4592 -0.3332 -0.9329
  132MOL0     O17720  10.733   1.937   8.897  0.1520 -0.2992  0.1102
  132MOL0     C17721  10.781   1.804   8.861  0.5456  0.3851  0.3206
  132MOL0     C17722  10.932   1.803   8.879 -0.2993  0.0882 -0.6774
  132MOL0     C17723  11.011   1.866   8.766  0.9058  0.6097  0.1589
  132MOL0     C17724  11.149   1.806   8.775 -0.0043 -0.4601  0.3791
  132MOL0     C17725  11.260   1.900   8.720 -0.0900  0.8051 -0.6116
  132MOL0     C17726  11.396   1.858   8.774 -0.3161  0.1586  0.1282
  132MOL0     C17727  11.505   1.906   8.669  0.8652 -0.0733  0.3780
  132MOL0     C17728  11.488   2.061   8.648  1.0397 -0.2022  0.4039
  132MOL0    Cl17729  11.636   2.123   8.573  0.2736  0.2594  0.4103
  132MOL0     C17730  10.502   1.907   8.831  0.3916 -0.4828  0.2285
  132MOL0     C17731  10.368   1.915   8.866 -0.3770  0.3353 -0.8078
  132MOL0     O17732  10.138   1.761   8.911 -0.2343 -0.9374 -0.3854
  132MOL0     C17733   9.880   1.782   9.001  0.5922 -0.4984  0.5626
  132MOL0     C17734   9.743   1.789   9.033  0.3419 -0.1077  0.5982
  132MOL0     N17735   8.996   1.485   9.241  0.3903 -0.2085  0.1901
  132MOL0     N17736   8.900   1.424   9.175 -0.4949  0.2437  0.7544
  132MOL0     C17737   7.647   1.122   9.036  0.3753 -0.0915  0.0998
  132MOL0     C17738   7.506   1.114   9.064 -0.2271 -0.3316 -0.4720
  132MOL0     C17739   7.079   1.266   9.131  0.1025  0.4352  0.8823
  132MOL0     C17740   7.013   1.157   9.200 -0.0688 -0.1640  0.4113
  132MOL0     C17741   6.873   1.152   9.226 -0.0742  0.0937  0.2556
  132MOL0     C17742   6.794   1.262   9.195  0.3210 -0.4124  0.0574
  132MOL0     O17743   6.664   1.257   9.217  0.0564  0.0306  0.4139
  132MOL0     C17744   6.581   1.325   9.122 -0.7459 -0.7820  0.0620
  132MOL0     C17745   6.444   1.263   9.096 -0.5200 -0.2401 -1.3322
  132MOL0     C17746   6.360   1.243   9.224 -0.0080  0.2873  0.5800
  132MOL0     C17747   6.317   1.372   9.300  0.4043  0.5243 -0.2702
  132MOL0     C17748   6.210   1.442   9.230  0.5205  0.6092  0.0416
  132MOL0     C17749   6.117   1.503   9.180  0.0885 -0.6163  0.3987
  132MOL0     C17750   6.861   1.374   9.128 -0.3393 -0.2555 -0.0501
  132MOL0     C17751   6.994   1.372   9.087 -0.2876  0.5458 -0.6122
  132MOL0     C17752   7.050   1.506   9.045 -0.2887  0.0513  0.5757
  132MOL0     H17753   7.492   1.268   9.356 -1.3178  1.4610  0.4953
  132MOL0     H17754   7.742   1.257   9.340  3.0113 -0.7531 -0.6938
  132MOL0     H17755   7.952   0.981   9.075 -1.7161 -1.5222 -1.8847
  132MOL0     H17756   7.869   1.055   8.938  1.1518 -1.9918  0.0303
  132MOL0     H17757   8.019   1.231   8.920 -2.2675 -0.1062  1.1291
  132MOL0     H17758   8.090   1.071   8.880 -0.0410  0.5723 -0.1814
  132MOL0     H17759   8.214   1.058   9.086  2.0129  0.4579  1.4751
  132MOL0     H17760   8.147   1.223   9.128  0.3388 -0.2958  0.4764
  132MOL0     H17761   8.326   1.167   8.881  3.5183  3.1037 -0.5458
  132MOL0     H17762   8.254   1.312   8.925  1.4577 -1.9760 -4.7512
  132MOL0     H17763   8.368   1.321   9.133 -1.0446 -0.8447 -0.4600
  132MOL0     H17764   8.447   1.157   9.087 -1.1727 -2.1405 -5.2185
  132MOL0     H17765   8.554   1.287   8.889 -1.5767  0.0148 -0.2005
  132MOL0     H17766   8.467   1.442   8.937  1.2910  1.1969  1.0660
  132MOL0     H17767   8.695   1.291   9.085  0.6197 -0.0857  1.6639
  132MOL0     H17768   8.597   1.424   9.157  1.0048  1.7348 -1.0454
  132MOL0     H17769   8.770   1.441   8.911 -2.8895  0.8474 -0.7623
  132MOL0     H17770   8.685   1.582   8.976  1.8344  0.0607  0.3931
  132MOL0     H17771   8.888   1.736   9.054 -1.3763 -1.0196 -1.8216
  132MOL0     H17772   9.072   1.807   9.287 -0.1315  0.8855 -1.9523
  132MOL0     H17773   9.156   1.652   9.341 -0.5259 -1.7764 -0.6289
  132MOL0     H17774   9.269   1.630   9.135 -0.1765  0.4421  1.5707
  132MOL0     H17775   9.201   1.786   9.065  1.2436  1.6577  0.0282
  132MOL0     H17776   9.371   1.785   9.300 -2.4412  0.5645  0.5654
  132MOL0     H17777   9.310   1.931   9.206  2.3984  0.9650 -0.5303
  132MOL0     H17778   9.444   1.841   8.999 -2.7881  0.5707  0.4426
  132MOL0     H17779   9.509   1.719   9.119  4.5571  1.3887  2.8037
  132MOL0     H17780   9.759   2.071   9.217  3.4967  1.0423  0.8032
  132MOL0     H17781  10.005   2.061   9.150  1.7925 -2.0814  0.4945
  132MOL0     H17782  10.401   2.004   9.198 -1.8044 -2.1618 -0.8067
  132MOL0     H17783  10.645   2.000   9.139  0.0603  0.5686 -0.1223
  132MOL0     H17784  10.735   1.732   8.929 -0.0741  1.1725  0.7571
  132MOL0     H17785  10.761   1.769   8.760  1.7505  0.7956 -0.0772
  132MOL0     H17786  10.955   1.876   8.957  0.6188  3.0676 -3.5066
  132MOL0     H17787  10.964   1.701   8.904 -2.4448  0.1928  3.2098
  132MOL0     H17788  10.957   1.833   8.677 -0.0787 -1.2583  1.3649
  132MOL0     H17789  11.004   1.975   8.771 -0.3216  0.7780 -2.9701
  132MOL0     H17790  11.145   1.725   8.702 -2.4737  0.0190 -0.1059
  132MOL0     H17791  11.173   1.771   8.876  2.2762  3.0746  1.2600
  132MOL0     H17792  11.237   2.001   8.754 -0.4995  0.6082 -0.2913
  132MOL0     H17793  11.257   1.904   8.611  0.7411 -1.2496 -0.7646
  132MOL0     H17794  11.421   1.903   8.870  3.0242  1.5853 -1.2425
  132MOL0     H17795  11.402   1.749   8.786  1.4051  0.1328 -0.6025
  132MOL0     H17796  11.478   1.853   8.577  0.6524  1.2502 -0.3423
  132MOL0     H17797  11.608   1.876   8.693  0.8261  1.1210  2.1762
  132MOL0     H17798  11.396   2.082   8.592  2.5107  1.8613 -1.4315
  132MOL0     H17799  11.475   2.112   8.744 -0.9880  0.8247 -0.3565
  132MOL0     H17800  10.548   1.893   8.733  0.5224  0.2660  0.1810
  132MOL0     H17801  10.288   1.898   8.794  1.3990 -2.4541 -2.3344
  132MOL0     H17802   9.920   1.700   8.942  3.1071  1.3567 -0.5110
  132MOL0     H17803   9.675   1.708   9.008  1.0007 -0.1335 -1.2238
  132MOL0     H17804   7.665   1.092   8.933  0.6969 -0.8462  0.3731
  132MOL0     H17805   7.443   1.088   8.980  1.7042 -1.1686 -1.7475
  132MOL0     H17806   7.078   1.077   9.234  3.3492  1.9451 -0.5573
  132MOL0     H17807   6.835   1.058   9.265 -0.2670  0.4425  0.9206
  132MOL0     H17808   6.632   1.319   9.025 -2.2411  0.9338 -0.9132
  132MOL0     H17809   6.564   1.430   9.146 -2.5199 -0.6287 -1.5163
  132MOL0     H17810   6.459   1.162   9.057  0.3504  0.4513 -2.8761
  132MOL0     H17811   6.399   1.321   9.015  3.1895  1.1322 -2.6310
  132MOL0     H17812   6.414   1.176   9.292 -0.2366 -0.1906  0.2936
  132MOL0     H17813   6.273   1.181   9.199  2.2373 -3.3177  0.9093
  132MOL0     H17814   6.280   1.346   9.400 -1.4878  1.2502 -0.7374
  132MOL0     H17815   6.403   1.433   9.328 -1.4434  3.5071 -0.6783
  132MOL0     H17816   6.041   1.558   9.129  0.7318  1.9829  2.0961
  132MOL0     H17817   6.800   1.462   9.108 -2.1306 -1.3210  0.4516
  132MOL0     H17818   6.973   1.578   9.018 -0.3288 -0.1817  0.0570
  132MOL0     H17819   7.114   1.552   9.120 -1.4358  1.4082  0.7563
  132MOL0     H17820   7.112   1.491   8.956  1.0872  1.8148  1.1954
  133MOL0     O17821   3.272   2.510   6.512 -0.2856  0.0793 -0.0965
  133MOL0     C17822   3.166   2.494   6.568 -0.3872  0.1915 -0.3640
  133MOL0     O17823   3.142   2.480   6.705  0.3447  0.2362  0.7165
  133MOL0     C17824   3.245   2.472   6.789 -0.0087 -0.0276  0.9872
  133MOL0     C17825   3.222   2.403   6.908  0.3107 -0.7237 -0.0887
  133MOL0     C17826   3.313   2.412   7.017 -0.0649  0.4881 -0.3439
  133MOL0     C17827   3.442   2.460   6.992 -0.4074  0.0605  0.2283
  133MOL0     O17828   3.546   2.461   7.094 -0.0381 -0.3948 -0.2376
  133MOL0     C17829   3.496   2.436   7.232  0.8216  0.3009  0.8524
  133MOL0     C17830   3.617   2.436   7.326  0.9431  0.2561  0.8474
  133MOL0     C17831   3.578   2.362   7.455  0.0298  0.3360  0.8972
  133MOL0     C17832   3.690   2.321   7.551  0.4617 -0.6545  0.6468
  133MOL0     C17833   3.759   2.201   7.508 -0.3016  0.0879 -0.5508
  133MOL0     C17834   3.861   2.146   7.612  0.4726 -0.2617 -0.6639
  133MOL0     C17835   3.904   2.005   7.583 -0.3696  0.4886 -0.2609
  133MOL0     C17836   4.009   1.972   7.690  0.4084  0.4137 -1.5459
  133MOL0     N17837   4.062   1.832   7.677 -0.6272 -1.3233 -0.8050
  133MOL0     C17838   4.155   1.807   7.578  0.1280  0.6259 -0.6988
  133MOL0     C17839   4.232   1.704   7.629 -0.1494 -0.3183 -0.3682
  133MOL0     C17840   4.345   1.649   7.550 -0.1117 -0.3641  0.4850
  133MOL0     C17841   4.461   1.749   7.534  0.4428  0.8101  0.6625
  133MOL0     C17842   4.528   1.779   7.670  0.5831  0.1872  0.7525
  133MOL0     C17843   4.651   1.856   7.635  0.2119 -0.6682  0.3355
  133MOL0     O17844   4.762   1.761   7.596 -0.3838 -0.5946 -0.4437
  133MOL0     C17845   4.885   1.825   7.565  0.0242  0.5832 -0.0586
  133MOL0     C17846   4.989   1.733   7.547 -0.0429 -0.0931  0.3158
  133MOL0     C17847   5.109   1.783   7.487 -0.1284  0.0873  0.6318
  133MOL0     C17848   5.125   1.919   7.465  0.3020 -0.3152  0.2522
  133MOL0     C17849   5.248   1.968   7.397 -0.0384 -0.4722  0.3312
  133MOL0     O17850   5.239   2.099   7.345 -0.3092  0.6714  0.6212
  133MOL0     C17851   5.359   2.162   7.344 -0.6663  0.7673  0.2546
  133MOL0     C17852   5.414   2.225   7.454  0.8402 -0.3811 -0.1210
  133MOL0     C17853   5.535   2.286   7.459 -0.7944  0.7900  0.2839
  133MOL0     C17854   5.622   2.278   7.344  0.4463 -0.0328  0.7417
  133MOL0     O17855   5.748   2.332   7.348  0.0260  0.0896  0.2676
  133MOL0     C17856   5.852   2.274   7.269  0.3657 -0.3026  0.1923
  133MOL0     C17857   5.987   2.325   7.324 -0.3740 -0.5664 -0.7897
  133MOL0     C17858   6.103   2.278   7.232  0.4683  0.3444  0.0031
  133MOL0     C17859   6.232   2.278   7.309 -0.5334  0.8932  0.5435
  133MOL0     C17860   6.349   2.275   7.214 -0.0013 -0.6072  0.0705
  133MOL0     C17861   6.477   2.278   7.293 -0.5230  0.3435 -0.8370
  133MOL0     C17862   6.602   2.270   7.204  0.3725  1.3807 -0.0000
  133MOL0     C17863   6.704   2.165   7.244 -0.4871 -0.6133  0.0432
  133MOL0    Cl17864   6.852   2.188   7.139  0.3526  0.7243  0.1260
  133MOL0     C17865   5.580   2.193   7.238  0.3776  0.0004  0.6026
  133MOL0     C17866   5.446   2.148   7.236 -0.3786  0.6691 -0.4265
  133MOL0     O17867   5.351   1.902   7.407 -0.1744  1.2260  0.0822
  133MOL0     C17868   5.021   2.012   7.486 -1.0604 -0.1728 -0.0259
  133MOL0     C17869   4.898   1.964   7.546 -0.4344  1.0296  0.1867
  133MOL0     N17870   4.192   1.682   7.757 -0.1775  1.3729  0.3821
  133MOL0     N17871   4.100   1.753   7.780  0.4761  0.2234  0.3178
  133MOL0     C17872   3.462   2.523   6.869 -0.3789 -0.1372  0.3821
  133MOL0     C17873   3.364   2.542   6.774 -0.2857 -0.7903  0.1882
  133MOL0     C17874   3.037   2.508   6.494  0.0194 -0.1014 -0.0648
  133MOL0     C17875   2.918   2.548   6.568  0.2693  0.6107 -0.3615
  133MOL0     C17876   2.795   2.556   6.504  0.0713 -0.4084 -0.0244
  133MOL0     C17877   2.782   2.561   6.363  0.0396 -0.0037 -0.2558
  133MOL0     O17878   2.670   2.576   6.294 -0.1759 -0.1289  0.3193
  133MOL0     C17879   2.554   2.575   6.371 -0.4044 -0.0835 -0.2997
  133MOL0     C17880   2.517   2.714   6.433  0.3737  0.9046  0.4227
  133MOL0     C17881   2.486   2.817   6.322  0.3275  0.8182  0.1294
  133MOL0     C17882   2.449   2.952   6.391 -0.1693  0.5253  0.6698
  133MOL0     C17883   2.312   2.953   6.449 -0.2539  0.0393  0.1087
  133MOL0     C17884   2.200   2.949   6.499 -0.2063  0.2459  0.3653
  133MOL0     C17885   2.904   2.536   6.283 -0.4984  0.0529  0.1673
  133MOL0     C17886   3.027   2.503   6.353 -0.1185  0.9398 -0.5171
  133MOL0     C17887   3.137   2.464   6.265 -0.3051  0.3705 -0.3936
  133MOL0     H17888   3.138   2.335   6.917  0.5037 -1.1706 -1.3807
  133MOL0     H17889   3.297   2.368   7.115 -0.3484  3.3666  0.9864
  133MOL0     H17890   3.427   2.517   7.259  2.4608  0.8914  3.7098
  133MOL0     H17891   3.446   2.339   7.238  0.2684  0.5278  0.1040
  133MOL0     H17892   3.656   2.534   7.358  2.9090 -0.3211  0.3523
  133MOL0     H17893   3.701   2.395   7.269  0.1167 -0.2357 -0.0424
  133MOL0     H17894   3.519   2.273   7.428 -1.3602  0.8071  2.2401
  133MOL0     H17895   3.515   2.429   7.515  1.4207  0.4306  2.3187
  133MOL0     H17896   3.762   2.402   7.564  0.2049 -0.4856  1.0173
  133MOL0     H17897   3.644   2.308   7.649 -0.2005  1.7982  0.7082
  133MOL0     H17898   3.691   2.117   7.495 -0.4131  0.3635 -1.8860
  133MOL0     H17899   3.801   2.211   7.407 -1.9180 -0.3124 -1.2835
  133MOL0     H17900   3.941   2.218   7.634 -1.2321  1.4051  0.4162
  133MOL0     H17901   3.810   2.137   7.709 -2.1586  3.3975 -1.4700
  133MOL0     H17902   3.943   1.996   7.481 -0.3614  0.1565 -0.2286
  133MOL0     H17903   3.814   1.944   7.589 -2.3802  3.3772  1.2410
  133MOL0     H17904   4.089   2.046   7.703 -1.7398  2.9133 -1.7801
  133MOL0     H17905   3.955   1.964   7.784 -0.0675 -0.1930 -1.8597
  133MOL0     H17906   4.158   1.854   7.481  0.7214  0.1794 -0.9061
  133MOL0     H17907   4.385   1.560   7.599  2.4752 -0.6877 -1.9304
  133MOL0     H17908   4.309   1.630   7.448 -1.4315  0.2239  0.8159
  133MOL0     H17909   4.533   1.704   7.465 -1.9921 -1.6198 -0.5046
  133MOL0     H17910   4.420   1.833   7.478 -1.8170  0.8942  2.3000
  133MOL0     H17911   4.541   1.694   7.738  0.9108  0.6950  1.3430
  133MOL0     H17912   4.452   1.842   7.717  0.1817  0.6189 -0.4568
  133MOL0     H17913   4.673   1.924   7.718  1.1388 -0.9611  0.3390
  133MOL0     H17914   4.615   1.917   7.551  2.1724  0.8536  0.5286
  133MOL0     H17915   4.974   1.625   7.550 -2.6774  0.1848 -0.4624
  133MOL0     H17916   5.192   1.718   7.461  0.1006  1.2310 -1.7430
  133MOL0     H17917   5.366   2.228   7.552 -0.6056  2.5734 -0.8034
  133MOL0     H17918   5.579   2.333   7.547  0.3788  1.2989 -0.5531
  133MOL0     H17919   5.842   2.165   7.271 -1.5551 -0.1538 -0.0517
  133MOL0     H17920   5.839   2.302   7.164 -0.4644  0.8791  0.5855
  133MOL0     H17921   5.986   2.434   7.335 -0.9753 -0.2402 -3.3904
  133MOL0     H17922   6.002   2.277   7.421  1.2814  0.9503 -0.2427
  133MOL0     H17923   6.079   2.181   7.187 -1.7823  0.4265  0.9199
  133MOL0     H17924   6.115   2.356   7.155  0.7533  1.4782  1.1598
  133MOL0     H17925   6.234   2.192   7.376  1.1984  0.2681 -0.2444
  133MOL0     H17926   6.238   2.375   7.358  0.3412  2.2773 -2.1009
  133MOL0     H17927   6.347   2.366   7.152  0.6945  1.3482  2.7466
  133MOL0     H17928   6.366   2.186   7.152  2.3415 -0.8904  1.0304
  133MOL0     H17929   6.468   2.355   7.370 -1.5853 -1.2742  0.7514
  133MOL0     H17930   6.475   2.183   7.348 -4.6293  1.4100  1.1991
  133MOL0     H17931   6.644   2.368   7.180  0.0966  1.3860 -0.4647
  133MOL0     H17932   6.567   2.246   7.103 -3.7067  2.3676  0.9950
  133MOL0     H17933   6.735   2.180   7.347  2.7524 -0.7612 -0.8071
  133MOL0     H17934   6.668   2.065   7.221  2.5411 -1.2655 -2.4964
  133MOL0     H17935   5.643   2.178   7.151 -2.4899 -0.7082 -1.5001
  133MOL0     H17936   5.405   2.099   7.148 -1.0548  2.8478 -1.4110
  133MOL0     H17937   5.034   2.118   7.464 -0.2132 -0.1084  0.7441
  133MOL0     H17938   4.823   2.041   7.562 -0.8467  0.5570  0.5463
  133MOL0     H17939   3.561   2.564   6.849  0.7931 -2.7943  0.2859
  133MOL0     H17940   3.381   2.607   6.689  0.6239 -0.6886  0.4382
  133MOL0     H17941   2.931   2.556   6.676  0.2595 -2.5700 -0.0205
  133MOL0     H17942   2.707   2.588   6.560  0.2284 -0.8233  0.4670
  133MOL0     H17943   2.560   2.494   6.445  1.5963  0.1869 -0.1017
  133MOL0     H17944   2.469   2.554   6.306 -0.0735  1.3487 -1.2385
  133MOL0     H17945   2.601   2.759   6.485  2.3816 -0.9817 -0.9980
  133MOL0     H17946   2.433   2.699   6.502 -1.0935  0.5318 -1.3563
  133MOL0     H17947   2.395   2.777   6.277  0.7458 -0.7641  0.6199
  133MOL0     H17948   2.571   2.830   6.254 -0.0432  0.4241 -0.4230
  133MOL0     H17949   2.526   2.969   6.467  3.2836 -3.2387 -1.5742
  133MOL0     H17950   2.461   3.034   6.319  1.0946  0.4635  0.7853
  133MOL0     H17951   2.105   2.953   6.548 -0.1648  0.8819  0.3945
  133MOL0     H17952   2.876   2.530   6.179  1.4456  2.9175 -0.6396
  133MOL0     H17953   3.104   2.442   6.164 -2.3798  1.4226  0.0012
  133MOL0     H17954   3.218   2.538   6.264  0.2083  0.0285  3.0270
  133MOL0     H17955   3.183   2.369   6.295 -0.6890  0.0166 -0.9186
  134MOL0     O17956   3.547   0.340   9.313  0.7962 -0.0326 -0.6703
  134MOL0     C17957   3.477   0.425   9.262  0.0350  0.1819  0.4320
  134MOL0     O17958   3.526   0.522   9.185 -0.1672  0.7637  0.3867
  134MOL0     C17959   3.663   0.520   9.167 -0.1090 -0.3342 -0.2939
  134MOL0     C17960   3.757   0.549   9.268 -0.2036 -0.3990 -0.4901
  134MOL0     C17961   3.899   0.526   9.249  0.1617  0.2140  0.2918
  134MOL0     C17962   3.947   0.485   9.124  0.3789 -0.3223 -0.9817
  134MOL0     O17963   4.081   0.455   9.106 -0.0325  0.0729  0.0478
  134MOL0     C17964   4.181   0.473   9.206  0.4870 -0.8673  0.4574
  134MOL0     C17965   4.181   0.352   9.300 -1.3452 -0.5019  0.7447
  134MOL0     C17966   4.235   0.223   9.237  0.3851  0.2867 -0.0175
  134MOL0     C17967   4.230   0.108   9.339 -0.1700  0.4430 -0.2255
  134MOL0     C17968   4.302  -0.017   9.289 -0.0054 -0.4391  0.0145
  134MOL0     C17969   4.254  -0.081   9.156  0.7557  0.0243  0.3587
  134MOL0     C17970   4.330  -0.211   9.128 -0.1160  0.3785 -0.7417
  134MOL0     C17971   4.482  -0.196   9.114 -0.5480  0.0950  0.7510
  134MOL0     N17972   4.545  -0.099   9.012  1.2542 -0.2566  0.1648
  134MOL0     C17973   4.609   0.015   9.040  0.2908 -0.8088 -0.7746
  134MOL0     C17974   4.608   0.079   8.919  0.2941  0.0739 -0.3763
  134MOL0     C17975   4.650   0.217   8.881  0.1235 -0.3171 -0.3759
  134MOL0     C17976   4.795   0.231   8.833 -0.2374 -1.2395  0.6955
  134MOL0     C17977   4.909   0.182   8.916  0.3097  0.3247  0.2959
  134MOL0     C17978   5.048   0.205   8.857  0.4775  0.1733 -0.1114
  134MOL0     O17979   5.097   0.331   8.906 -0.6328 -0.2404  0.1309
  134MOL0     C17980   5.225   0.373   8.875  0.9883 -1.0261 -0.0460
  134MOL0     C17981   5.301   0.424   8.976  0.1319 -0.0426  0.0972
  134MOL0     C17982   5.435   0.444   8.966 -0.5337  0.2034 -0.4165
  134MOL0     C17983   5.492   0.439   8.839 -1.1627 -0.0092 -0.0502
  134MOL0     C17984   5.638   0.487   8.831  1.1327 -0.5474 -0.7494
  134MOL0     O17985   5.692   0.563   8.932 -0.2084  0.4307  0.2662
  134MOL0     C17986   5.824   0.609   8.928  0.5527 -0.0820 -0.3313
  134MOL0     C17987   5.843   0.745   8.896 -0.8775 -0.1964 -0.3642
  134MOL0     C17988   5.976   0.795   8.897  0.5305  0.4072  0.3916
  134MOL0     C17989   6.089   0.702   8.900  0.5952 -0.5808 -0.2823
  134MOL0     O17990   6.220   0.741   8.865  0.3792 -0.3026  0.4991
  134MOL0     C17991   6.248   0.891   8.860 -0.0146  0.7801  0.1525
  134MOL0     C17992   6.394   0.931   8.854 -0.0621  0.8305 -0.7826
  134MOL0     C17993   6.472   0.857   8.748 -0.1836  0.3305 -0.2170
  134MOL0     C17994   6.620   0.893   8.726 -0.4672 -0.5694 -0.4569
  134MOL0     C17995   6.699   0.883   8.857 -0.3474 -0.7846 -0.6052
  134MOL0     C17996   6.842   0.838   8.836 -0.5962 -0.2773  0.7278
  134MOL0     C17997   6.913   0.855   8.972 -0.0949 -0.1103  0.0378
  134MOL0     C17998   7.062   0.831   8.960 -0.3938  0.6931 -0.6074
  134MOL0    Cl17999   7.132   0.973   8.881 -0.4096  0.3453 -0.3121
  134MOL0     C18000   6.063   0.569   8.918  0.2282 -0.0579 -0.1962
  134MOL0     C18001   5.933   0.523   8.938 -0.3022 -0.0687  0.1359
  134MOL0     O18002   5.694   0.459   8.724  0.6539 -0.2341 -0.4589
  134MOL0     C18003   5.417   0.394   8.729 -0.1854 -0.1838  0.2577
  134MOL0     C18004   5.284   0.351   8.748  0.0073  0.1259  0.2674
  134MOL0     N18005   4.551   0.003   8.827 -0.4119 -0.3214  0.2134
  134MOL0     N18006   4.506  -0.102   8.880  0.1657 -0.1578  0.9914
  134MOL0     C18007   3.854   0.483   9.013  0.3318  0.5805  0.0513
  134MOL0     C18008   3.712   0.499   9.039 -1.7580  1.3002  0.6861
  134MOL0     C18009   3.336   0.428   9.292 -0.1899  0.4473  0.1832
  134MOL0     C18010   3.282   0.308   9.355  0.2908 -0.1293  1.0291
  134MOL0     C18011   3.148   0.305   9.400  0.1083  0.1532 -0.8317
  134MOL0     C18012   3.065   0.414   9.383 -0.0838 -0.0762  0.5782
  134MOL0     O18013   2.935   0.409   9.431  0.0746 -0.4944 -0.8734
  134MOL0     C18014   2.851   0.535   9.455  0.2686 -0.4192  0.2004
  134MOL0     C18015   2.750   0.505   9.571 -0.2469 -1.1337 -0.7429
  134MOL0     C18016   2.654   0.392   9.536 -0.1669 -0.1050 -0.3622
  134MOL0     C18017   2.540   0.379   9.643 -0.3158 -0.2210 -0.0564
  134MOL0     C18018   2.446   0.272   9.615  0.0949 -0.5767  0.2610
  134MOL0     C18019   2.376   0.180   9.576  0.1479  0.3158 -0.7511
  134MOL0     C18020   3.110   0.529   9.311 -0.4518  0.2955 -0.2768
  134MOL0     C18021   3.245   0.535   9.276  0.5466  0.2966  0.5129
  134MOL0     C18022   3.282   0.664   9.198  0.4249 -0.7179  0.9003
  134MOL0     H18023   3.714   0.573   9.365  1.9483 -0.7251  0.5975
  134MOL0     H18024   3.960   0.536   9.338 -1.4498  0.2956  1.4223
  134MOL0     H18025   4.281   0.472   9.161 -0.2581 -0.6016 -1.2628
  134MOL0     H18026   4.163   0.564   9.264 -3.2462 -0.3763 -1.1622
  134MOL0     H18027   4.082   0.341   9.344 -0.0414 -0.9616  3.8798
  134MOL0     H18028   4.249   0.386   9.379  0.3479 -1.5223 -0.2051
  134MOL0     H18029   4.337   0.240   9.202  0.5192 -1.3078 -0.4686
  134MOL0     H18030   4.168   0.198   9.153 -1.9825  0.4310  1.7142
  134MOL0     H18031   4.282   0.156   9.422  1.1053 -0.1248 -0.6681
  134MOL0     H18032   4.127   0.077   9.363  0.3025 -1.3985 -0.4209
  134MOL0     H18033   4.409   0.006   9.282  0.1256 -0.3498  1.8427
  134MOL0     H18034   4.292  -0.091   9.369 -3.5209 -0.9505 -0.7597
  134MOL0     H18035   4.147  -0.102   9.160  0.2718  2.3079  4.8589
  134MOL0     H18036   4.259  -0.015   9.069 -1.7091 -2.3691 -1.7803
  134MOL0     H18037   4.292  -0.270   9.045  0.7289 -3.5133  1.3931
  134MOL0     H18038   4.303  -0.268   9.217  2.4608 -0.6826 -0.5581
  134MOL0     H18039   4.517  -0.163   9.213 -2.8920  2.6045  0.8621
  134MOL0     H18040   4.521  -0.295   9.092  2.1269  1.1538  0.3323
  134MOL0     H18041   4.654   0.050   9.133  0.6879  0.7088 -1.4999
  134MOL0     H18042   4.577   0.256   8.809  0.5620  2.5242  0.5696
  134MOL0     H18043   4.635   0.279   8.971  2.3140 -1.5526  0.9089
  134MOL0     H18044   4.816   0.180   8.739  2.0584  0.2820  0.2913
  134MOL0     H18045   4.814   0.338   8.821 -0.3232 -1.1013  1.6799
  134MOL0     H18046   4.895   0.074   8.922  1.8317  0.0647 -0.3149
  134MOL0     H18047   4.906   0.224   9.017  1.5178 -1.9360  1.3532
  134MOL0     H18048   5.023   0.201   8.750  0.2981 -1.8851 -0.0283
  134MOL0     H18049   5.118   0.125   8.881  1.2015 -0.0261 -2.5431
  134MOL0     H18050   5.248   0.441   9.069 -0.2519 -0.5016 -0.0303
  134MOL0     H18051   5.483   0.496   9.048  3.3917  0.2718 -2.5246
  134MOL0     H18052   5.759   0.803   8.858 -1.0742  0.0072  0.3622
  134MOL0     H18053   5.989   0.891   8.848 -0.9077 -0.1822 -1.2559
  134MOL0     H18054   6.200   0.938   8.774 -0.6609  1.2487  0.7541
  134MOL0     H18055   6.208   0.933   8.953  0.4644 -0.6841  1.0655
  134MOL0     H18056   6.402   1.040   8.846 -2.2958  0.9428 -2.5661
  134MOL0     H18057   6.420   0.911   8.958 -3.0222  3.0495  0.5225
  134MOL0     H18058   6.475   0.753   8.782 -1.0751  0.7869  1.3790
  134MOL0     H18059   6.402   0.869   8.665  0.5327 -1.2384 -1.0916
  134MOL0     H18060   6.617   0.991   8.678  0.1067  0.3417  1.2913
  134MOL0     H18061   6.675   0.830   8.655  0.7759 -1.1873  1.0019
  134MOL0     H18062   6.661   0.811   8.930 -1.1442  4.2919  4.6389
  134MOL0     H18063   6.693   0.981   8.903 -1.4109  0.2065 -2.7057
  134MOL0     H18064   6.845   0.736   8.797  0.1700  0.1251 -0.3157
  134MOL0     H18065   6.878   0.909   8.760  0.2163 -0.6935  0.7100
  134MOL0     H18066   6.876   0.786   9.049  1.2290 -0.9574 -0.0495
  134MOL0     H18067   6.899   0.961   8.994  0.8838  0.2105 -0.7870
  134MOL0     H18068   7.101   0.828   9.062 -0.6925  3.4766 -0.3297
  134MOL0     H18069   7.083   0.734   8.913  2.4969 -0.6715  3.0559
  134MOL0     H18070   6.136   0.493   8.894  2.1419  1.7157 -0.2769
  134MOL0     H18071   5.904   0.420   8.956  4.0493 -2.1427 -2.8930
  134MOL0     H18072   5.465   0.385   8.632 -2.4177  0.7130 -1.0065
  134MOL0     H18073   5.229   0.323   8.659  0.8319 -1.5875  0.2610
  134MOL0     H18074   3.885   0.446   8.916 -0.2186 -1.9095  0.7584
  134MOL0     H18075   3.641   0.487   8.957 -1.0371 -0.9410  0.3304
  134MOL0     H18076   3.336   0.217   9.376  1.2160  0.2010  0.1458
  134MOL0     H18077   3.101   0.222   9.452 -2.2111  1.0963 -1.2947
  134MOL0     H18078   2.804   0.559   9.359  1.2612 -1.4317 -0.5558
  134MOL0     H18079   2.918   0.617   9.484  0.1119 -0.9397  2.1805
  134MOL0     H18080   2.705   0.604   9.584  0.1067 -1.2736  2.0669
  134MOL0     H18081   2.805   0.491   9.664 -0.8288  0.2304 -0.1666
  134MOL0     H18082   2.707   0.297   9.528 -1.4123 -0.6610 -2.8461
  134MOL0     H18083   2.614   0.415   9.437  1.1055 -0.9619 -1.0988
  134MOL0     H18084   2.578   0.354   9.743 -2.9561  2.0252  1.6395
  134MOL0     H18085   2.490   0.476   9.646 -1.3769 -0.7857  2.1109
  134MOL0     H18086   2.307   0.098   9.568 -1.4619  1.3519  1.3497
  134MOL0     H18087   3.045   0.616   9.300 -1.8549 -0.7436 -0.4017
  134MOL0     H18088   3.380   0.698   9.233  1.2454 -0.5345 -1.3797
  134MOL0     H18089   3.266   0.654   9.090 -1.0057  3.8491  0.4824
  134MOL0     H18090   3.206   0.741   9.213 -0.1559 -1.3605  1.3328
  135MOL0     O18091   1.637   1.799   7.004 -0.2435  0.2684  0.1496
  135MOL0     C18092   1.578   1.906   6.998  1.0099 -1.4138 -0.6175
  135MOL0     O18093   1.638   2.028   6.986 -0.4089  0.2967 -0.4403
  135MOL0     C18094   1.777   2.038   6.978 -0.0875 -0.1128  0.5576
  135MOL0     C18095   1.845   2.118   7.068 -0.0960  0.4970 -0.1749
  135MOL0     C18096   1.983   2.127   7.055 -0.5661  0.1038  0.2635
  135MOL0     C18097   2.051   2.072   6.946 -0.2980  0.2191 -0.0241
  135MOL0     O18098   2.187   2.100   6.921  0.5448 -0.8196  0.4563
  135MOL0     C18099   2.261   2.050   6.808  0.4660 -0.7447  0.1856
  135MOL0     C18100   2.406   2.106   6.812  0.2957  0.2864 -0.1759
  135MOL0     C18101   2.465   2.104   6.958 -0.5989  0.2370 -1.1530
  135MOL0     C18102   2.611   2.129   6.972  0.2781  0.7140 -0.3552
  135MOL0     C18103   2.688   2.000   6.936  0.1461  0.2202 -0.1209
  135MOL0     C18104   2.828   2.015   6.990  0.3850 -0.3389 -0.4257
  135MOL0     C18105   2.915   1.885   6.968 -0.2019 -0.1065  0.3873
  135MOL0     C18106   3.059   1.902   6.993  0.1950  0.3156  0.3249
  135MOL0     N18107   3.097   1.974   7.117  0.4729  0.5363 -0.8732
  135MOL0     C18108   3.089   1.931   7.246  0.8489  0.7995 -0.1189
  135MOL0     C18109   3.156   2.027   7.316 -0.3578 -0.1169  1.1665
  135MOL0     C18110   3.188   2.038   7.465 -0.0083 -0.1150 -0.0208
  135MOL0     C18111   3.330   1.982   7.487  0.3606  0.3074 -0.6113
  135MOL0     C18112   3.337   1.825   7.456 -0.1389 -0.8642 -0.8239
  135MOL0     C18113   3.490   1.785   7.459 -0.0795  0.4216  0.3811
  135MOL0     O18114   3.502   1.645   7.463 -0.2193  0.0437 -0.3482
  135MOL0     C18115   3.618   1.586   7.434  0.0496 -0.0553  0.6693
  135MOL0     C18116   3.613   1.450   7.431  0.7702 -0.0381  0.7940
  135MOL0     C18117   3.720   1.373   7.377  0.1076 -0.0263 -0.3556
  135MOL0     C18118   3.841   1.441   7.359  0.1182 -0.4101  1.0745
  135MOL0     C18119   3.958   1.361   7.328  0.4624 -0.6432  0.1005
  135MOL0     O18120   3.929   1.240   7.273 -0.6016 -0.0053 -0.1802
  135MOL0     C18121   4.038   1.162   7.237  0.3090 -0.2824  0.5710
  135MOL0     C18122   4.099   1.163   7.108  0.0897 -0.1254 -0.9763
  135MOL0     C18123   4.221   1.094   7.100  0.1530  0.3665  0.9247
  135MOL0     C18124   4.283   1.013   7.208 -0.0580 -0.7061 -0.4509
  135MOL0     O18125   4.393   0.937   7.207 -0.5526 -0.1997  0.3413
  135MOL0     C18126   4.463   0.933   7.079 -0.1465  0.7541 -0.0142
  135MOL0     C18127   4.613   0.952   7.104  0.0514 -0.1075 -0.1420
  135MOL0     C18128   4.697   0.896   6.985 -0.0715  1.3288  0.6926
  135MOL0     C18129   4.834   0.844   7.040 -0.1041  0.6591  0.7920
  135MOL0     C18130   4.927   0.956   7.073  0.0954  0.0720  0.8906
  135MOL0     C18131   5.064   0.913   7.123 -0.4172  0.3791 -0.3485
  135MOL0     C18132   5.150   0.826   7.024 -0.6083  0.3282  0.0531
  135MOL0     C18133   5.297   0.837   7.044  0.4330  0.2901  0.3278
  135MOL0    Cl18134   5.355   0.814   6.872  0.2525  0.4627  0.4504
  135MOL0     C18135   4.209   1.005   7.327 -0.2876 -0.6228  0.8660
  135MOL0     C18136   4.089   1.081   7.344 -0.1782 -0.3419 -1.2702
  135MOL0     O18137   4.070   1.420   7.340 -0.8345  0.7814 -0.4774
  135MOL0     C18138   3.846   1.583   7.350 -0.0823  0.5175  0.9587
  135MOL0     C18139   3.732   1.653   7.382  0.0413  0.2262 -0.0926
  135MOL0     N18140   3.198   2.127   7.230  0.4730 -0.0876 -0.0557
  135MOL0     N18141   3.164   2.092   7.114 -0.0105  0.0512 -0.1331
  135MOL0     C18142   1.979   1.984   6.862 -0.9466 -0.3381 -0.4589
  135MOL0     C18143   1.850   1.972   6.874  0.0982  0.2648  0.3904
  135MOL0     C18144   1.433   1.907   6.978  0.0390 -0.8345 -0.1140
  135MOL0     C18145   1.379   2.011   6.897 -0.1326 -0.1387 -1.0078
  135MOL0     C18146   1.246   1.997   6.873 -0.2356  0.1734 -0.7569
  135MOL0     C18147   1.163   1.887   6.909  0.1479 -0.1378  0.8267
  135MOL0     O18148   1.031   1.876   6.879  0.8647  0.4206 -0.2963
  135MOL0     C18149   0.940   1.990   6.876 -0.0390  0.3336 -0.2296
  135MOL0     C18150   0.851   1.992   7.004 -0.1404 -0.8311 -0.1485
  135MOL0     C18151   0.792   2.132   7.037 -0.1547 -0.2066  0.2690
  135MOL0     C18152   0.890   2.246   7.033 -0.7028 -0.3023 -0.3910
  135MOL0     C18153   1.000   2.210   7.125  0.2124 -0.8664  0.4090
  135MOL0     C18154   1.093   2.176   7.192 -0.0052  0.0344  0.2156
  135MOL0     C18155   1.217   1.792   6.989 -0.1242  0.6690 -0.0918
  135MOL0     C18156   1.348   1.801   7.025  0.1684  0.2827  0.7615
  135MOL0     C18157   1.388   1.691   7.124 -0.4752 -0.2233  0.5125
  135MOL0     H18158   1.805   2.158   7.161 -0.3162  0.2695 -0.1715
  135MOL0     H18159   2.039   2.202   7.111 -0.1428 -0.4109  0.5341
  135MOL0     H18160   2.245   1.943   6.822 -0.9787 -0.3854  1.6253
  135MOL0     H18161   2.222   2.081   6.711  1.8388 -1.1170 -0.5014
  135MOL0     H18162   2.401   2.209   6.777 -0.5918  0.5087  0.5802
  135MOL0     H18163   2.472   2.054   6.741 -0.1720 -1.8016  0.8462
  135MOL0     H18164   2.438   2.009   7.004 -0.1136  0.5558 -0.1822
  135MOL0     H18165   2.408   2.181   7.011 -0.4047 -1.6274  1.9464
  135MOL0     H18166   2.642   2.213   6.909 -1.7283 -1.4684 -4.6207
  135MOL0     H18167   2.630   2.156   7.077  0.1318 -0.6103  0.0291
  135MOL0     H18168   2.636   1.916   6.983  0.1192 -1.6764 -3.2729
  135MOL0     H18169   2.687   1.982   6.828 -1.1290 -1.6940  0.1738
  135MOL0     H18170   2.880   2.094   6.935 -1.5535 -0.0761 -1.9689
  135MOL0     H18171   2.821   2.042   7.096  0.5192 -1.5950 -0.0846
  135MOL0     H18172   2.893   1.838   6.872 -4.2021  1.4883  0.3510
  135MOL0     H18173   2.878   1.809   7.038 -0.1437  1.1256  1.7907
  135MOL0     H18174   3.100   1.801   7.003 -0.6995  0.1751  3.9152
  135MOL0     H18175   3.107   1.964   6.916 -1.9541  0.6985 -0.7739
  135MOL0     H18176   3.037   1.839   7.273 -1.0581  1.8160 -0.1863
  135MOL0     H18177   3.172   2.144   7.489 -0.4186  0.1180 -1.2332
  135MOL0     H18178   3.117   1.976   7.519  0.1291 -1.4021 -1.2455
  135MOL0     H18179   3.412   2.031   7.434  0.4831 -1.2664 -1.9611
  135MOL0     H18180   3.349   1.991   7.594  1.0130 -3.0439 -0.3348
  135MOL0     H18181   3.291   1.795   7.362  0.2236  0.5810 -1.4940
  135MOL0     H18182   3.286   1.769   7.534  1.8297 -0.0590  1.1549
  135MOL0     H18183   3.536   1.832   7.546 -0.2536 -0.0665  0.7436
  135MOL0     H18184   3.530   1.829   7.366 -0.3326 -1.2596 -0.5568
  135MOL0     H18185   3.525   1.398   7.468  0.2009  1.7898  2.1757
  135MOL0     H18186   3.715   1.266   7.362  0.8414 -0.2720  0.9793
  135MOL0     H18187   4.053   1.220   7.028 -0.5906  1.6920  0.6321
  135MOL0     H18188   4.268   1.102   7.002  0.6619 -0.8419  1.0412
  135MOL0     H18189   4.448   0.831   7.043  0.5519 -0.8822  3.8469
  135MOL0     H18190   4.431   1.001   6.999  0.1422 -1.0552 -1.7461
  135MOL0     H18191   4.626   1.057   7.134  0.3560  0.4284 -2.0012
  135MOL0     H18192   4.637   0.898   7.196  2.2566  0.5271 -0.2791
  135MOL0     H18193   4.644   0.818   6.929  0.9414  2.4677 -2.0232
  135MOL0     H18194   4.707   0.963   6.899  0.7545 -1.3685 -1.4590
  135MOL0     H18195   4.883   0.782   6.965 -0.6587  2.5312 -1.2244
  135MOL0     H18196   4.807   0.787   7.130  0.4292 -1.3038 -0.2282
  135MOL0     H18197   4.879   1.027   7.141  0.7701  0.4222  1.0067
  135MOL0     H18198   4.939   1.012   6.981 -2.7148 -0.8307 -0.1393
  135MOL0     H18199   5.128   1.001   7.135  3.6377 -2.2980 -0.6335
  135MOL0     H18200   5.067   0.880   7.227  1.6271 -1.7497 -1.0063
  135MOL0     H18201   5.128   0.869   6.926 -1.9693  2.5693  1.2646
  135MOL0     H18202   5.115   0.722   7.026 -2.0307  0.7790  0.8463
  135MOL0     H18203   5.324   0.935   7.085 -2.4854  0.9613  0.8673
  135MOL0     H18204   5.333   0.759   7.111  1.9749  0.8723  0.2142
  135MOL0     H18205   4.255   0.951   7.410 -0.7457 -1.2847  0.6932
  135MOL0     H18206   4.028   1.073   7.433 -0.3486 -0.8669 -1.4283
  135MOL0     H18207   3.933   1.637   7.316 -0.7761  0.3087 -1.3285
  135MOL0     H18208   3.728   1.761   7.374  0.8020  0.2012 -0.9409
  135MOL0     H18209   2.027   1.922   6.787  3.0431  1.9219 -0.0918
  135MOL0     H18210   1.787   1.923   6.801  0.9470 -1.0792  0.5237
  135MOL0     H18211   1.439   2.099   6.877  0.2537  0.2115  1.4545
  135MOL0     H18212   1.209   2.085   6.821  1.3028  2.8783  2.3498
  135MOL0     H18213   0.875   1.984   6.788  0.9978  2.6078 -1.2199
  135MOL0     H18214   0.992   2.083   6.854  3.4002 -0.5235  3.1617
  135MOL0     H18215   0.913   1.966   7.090 -0.4749 -0.1696  0.2973
  135MOL0     H18216   0.777   1.914   6.984  2.4292 -4.4398  2.9532
  135MOL0     H18217   0.741   2.130   7.134  1.5047  0.1099  1.1957
  135MOL0     H18218   0.717   2.140   6.958  0.6735 -4.3791 -1.1855
  135MOL0     H18219   0.930   2.249   6.932  0.2834  2.0645  0.0119
  135MOL0     H18220   0.848   2.345   7.053  0.7999  0.6132 -1.5853
  135MOL0     H18221   1.180   2.148   7.247 -0.3221  1.5553  1.5858
  135MOL0     H18222   1.159   1.708   7.024  2.4867 -0.8839  0.8353
  135MOL0     H18223   1.447   1.746   7.199  0.2963  0.4960 -0.5809
  135MOL0     H18224   1.304   1.643   7.175  0.8055 -3.3669 -0.1217
  135MOL0     H18225   1.468   1.625   7.090 -0.6384  0.1164 -0.5590
  136MOL0     O18226   2.122   0.121   5.673  0.6036  0.4840  0.1051
  136MOL0     C18227   2.068   0.031   5.739 -0.7965  0.0315 -0.2826
  136MOL0     O18228   2.118  -0.009   5.859  0.1930  0.6676  0.0052
  136MOL0     C18229   2.247  -0.028   5.888 -0.4031 -0.0233  0.4864
  136MOL0     C18230   2.266  -0.092   6.013  0.2790  1.5213  0.1229
  136MOL0     C18231   2.389  -0.142   6.044 -0.6630 -0.0046 -0.3174
  136MOL0     C18232   2.501  -0.126   5.958 -0.1287 -0.1869  0.6583
  136MOL0     O18233   2.620  -0.180   5.988 -0.6093 -0.4456  0.2763
  136MOL0     C18234   2.666  -0.210   6.121 -0.0521  0.3835 -0.1610
  136MOL0     C18235   2.804  -0.167   6.160 -0.3749  0.1500  0.0806
  136MOL0     C18236   2.924  -0.237   6.092  0.1419 -0.2635  0.1533
  136MOL0     C18237   3.052  -0.166   6.136  0.2151 -0.2766 -0.2093
  136MOL0     C18238   3.180  -0.248   6.117 -0.5275  0.1647 -0.7027
  136MOL0     C18239   3.296  -0.179   6.183 -0.1086  0.3230  0.1804
  136MOL0     C18240   3.424  -0.204   6.114  0.5703 -0.5643  0.3857
  136MOL0     C18241   3.455  -0.340   6.053  0.2782  0.3466  0.4420
  136MOL0     N18242   3.597  -0.347   6.019  0.0080  0.0429  0.3287
  136MOL0     C18243   3.649  -0.322   5.891  0.6203  0.7958 -0.5955
  136MOL0     C18244   3.783  -0.334   5.906  0.4193  0.3118  0.5725
  136MOL0     C18245   3.877  -0.314   5.792  0.4264  0.5477  0.4808
  136MOL0     C18246   4.019  -0.366   5.813  0.4655  0.7676 -0.0755
  136MOL0     C18247   4.113  -0.355   5.693 -0.4489  0.5252  0.0714
  136MOL0     C18248   4.144  -0.207   5.666 -0.3345 -0.0580 -0.7770
  136MOL0     O18249   4.255  -0.205   5.576  0.1630  0.1552  0.0208
  136MOL0     C18250   4.382  -0.194   5.627 -0.5125 -0.0684  0.7038
  136MOL0     C18251   4.486  -0.158   5.536  0.5994  0.0034 -0.2936
  136MOL0     C18252   4.623  -0.126   5.563  0.4763  0.2062  0.6555
  136MOL0     C18253   4.655  -0.147   5.695  0.1891 -0.5455 -0.6765
  136MOL0     C18254   4.800  -0.131   5.737  1.0532  0.3354  0.4504
  136MOL0     O18255   4.881  -0.061   5.657  0.0363 -0.6728 -0.6195
  136MOL0     C18256   5.014  -0.063   5.689 -0.3895 -0.0477 -0.0722
  136MOL0     C18257   5.061   0.012   5.802 -0.5125  0.1551 -0.4442
  136MOL0     C18258   5.193  -0.006   5.847  0.1046 -0.2213 -0.1315
  136MOL0     C18259   5.279  -0.078   5.771  0.0858  0.0551 -0.5784
  136MOL0     O18260   5.416  -0.089   5.796  0.0119  0.0670 -0.1305
  136MOL0     C18261   5.461  -0.040   5.929  0.9885  0.2393 -0.1818
  136MOL0     C18262   5.616  -0.055   5.942  0.6897 -0.0955  0.4600
  136MOL0     C18263   5.679   0.042   6.046  1.0387 -0.8430 -0.2067
  136MOL0     C18264   5.829   0.018   6.051 -0.1788  0.2547  1.1628
  136MOL0     C18265   5.910   0.100   6.147 -0.2666 -1.0573 -0.3937
  136MOL0     C18266   6.054   0.050   6.151 -0.3816 -0.2627 -0.1561
  136MOL0     C18267   6.157   0.158   6.194 -1.3331 -0.6359 -0.1659
  136MOL0     C18268   6.304   0.103   6.196  0.0310 -0.5228  0.5281
  136MOL0    Cl18269   6.412   0.211   6.293  0.0132  0.4948 -0.5807
  136MOL0     C18270   5.230  -0.138   5.652 -0.7186 -0.6986 -0.1729
  136MOL0     C18271   5.102  -0.141   5.609  0.0094  0.8320 -0.6778
  136MOL0     O18272   4.833  -0.173   5.846 -0.1296  0.1998  0.2785
  136MOL0     C18273   4.560  -0.180   5.791  0.7002  0.2100  0.2250
  136MOL0     C18274   4.425  -0.200   5.761  0.0609 -0.8509  0.2044
  136MOL0     N18275   3.814  -0.343   6.042  0.5901  0.1531  0.4483
  136MOL0     N18276   3.696  -0.346   6.111 -1.6860  0.7596 -0.4990
  136MOL0     C18277   2.486  -0.073   5.831  0.1087 -0.5080  0.1604
  136MOL0     C18278   2.359  -0.025   5.798 -0.6886 -0.0399 -0.0633
  136MOL0     C18279   1.933  -0.006   5.715 -1.0532  0.5029  0.1047
  136MOL0     C18280   1.835  -0.012   5.815 -0.2670  0.6111  0.1478
  136MOL0     C18281   1.702  -0.052   5.787  0.8547 -0.3332  0.4408
  136MOL0     C18282   1.668  -0.086   5.656 -0.2748  0.7672 -0.2425
  136MOL0     O18283   1.542  -0.113   5.614  0.5382  0.1990 -0.6304
  136MOL0     C18284   1.439  -0.093   5.714 -0.2714  0.2004  0.8755
  136MOL0     C18285   1.301  -0.123   5.667  0.7324  0.3906 -0.0801
  136MOL0     C18286   1.226  -0.014   5.587  0.4387  0.4896  0.5590
  136MOL0     C18287   1.084  -0.057   5.566  1.1012  0.1954  0.2831
  136MOL0     C18288   0.994  -0.022   5.678  0.5338 -0.4782  0.1967
  136MOL0     C18289   0.925   0.003   5.778 -0.4057  0.1670  0.4849
  136MOL0     C18290   1.763  -0.090   5.559  0.5444 -0.3901  0.2902
  136MOL0     C18291   1.892  -0.040   5.580 -0.0656  1.1957 -0.3595
  136MOL0     C18292   1.987  -0.058   5.461 -0.4085 -0.9528 -0.4834
  136MOL0     H18293   2.181  -0.138   6.062 -1.0628  2.4376 -1.2492
  136MOL0     H18294   2.411  -0.219   6.117  0.6615 -1.2887 -2.0099
  136MOL0     H18295   2.602  -0.151   6.187  0.4098  2.9336 -1.8244
  136MOL0     H18296   2.644  -0.316   6.133  0.7684 -0.0801 -2.2691
  136MOL0     H18297   2.825  -0.177   6.267 -0.2998 -0.9919 -0.0288
  136MOL0     H18298   2.812  -0.066   6.119 -0.8731 -0.4658 -1.5983
  136MOL0     H18299   2.912  -0.243   5.983  0.0779 -1.8402  0.2318
  136MOL0     H18300   2.927  -0.341   6.125 -3.3259  0.1475  2.2398
  136MOL0     H18301   3.069  -0.082   6.068 -0.8960 -0.6930 -1.0420
  136MOL0     H18302   3.033  -0.142   6.241 -2.6981 -0.8778 -0.5028
  136MOL0     H18303   3.176  -0.349   6.158 -2.8413  0.7143  0.6553
  136MOL0     H18304   3.192  -0.260   6.009 -0.6373  1.8705 -0.9366
  136MOL0     H18305   3.277  -0.071   6.185 -1.6140  0.1061  2.6452
  136MOL0     H18306   3.311  -0.207   6.288 -0.3933  0.6563  0.3137
  136MOL0     H18307   3.498  -0.179   6.189  1.9869 -0.7542 -0.8984
  136MOL0     H18308   3.435  -0.133   6.031  2.3744  0.4666  1.4500
  136MOL0     H18309   3.447  -0.419   6.128  2.4987 -0.5744 -0.1962
  136MOL0     H18310   3.402  -0.357   5.959  1.1386  1.1843 -0.2163
  136MOL0     H18311   3.597  -0.326   5.797  0.1342 -2.2897 -0.3046
  136MOL0     H18312   3.823  -0.367   5.713 -0.6387  2.6914 -0.3026
  136MOL0     H18313   3.881  -0.210   5.758  0.7682 -0.0526 -1.4705
  136MOL0     H18314   4.055  -0.322   5.906  0.8068 -0.0371  0.1849
  136MOL0     H18315   4.007  -0.475   5.822  2.9619  0.3589 -1.0375
  136MOL0     H18316   4.072  -0.412   5.609 -0.5435  1.4357 -0.5174
  136MOL0     H18317   4.203  -0.416   5.704 -0.9984 -0.4549 -0.7333
  136MOL0     H18318   4.156  -0.160   5.764 -0.8295 -1.0773 -0.2193
  136MOL0     H18319   4.050  -0.159   5.636 -1.1792 -1.6223 -0.7011
  136MOL0     H18320   4.439  -0.151   5.439 -0.3970 -2.8449 -0.0920
  136MOL0     H18321   4.684  -0.087   5.482 -1.0785  0.6896 -0.3222
  136MOL0     H18322   5.000   0.077   5.864  0.4983 -0.6816  1.5089
  136MOL0     H18323   5.231   0.042   5.937  0.1914  0.0381 -0.3049
  136MOL0     H18324   5.436   0.064   5.948 -0.8115 -0.2555  0.3577
  136MOL0     H18325   5.420  -0.099   6.012  0.2188  1.0179  0.0074
  136MOL0     H18326   5.644  -0.159   5.962 -0.9981 -0.5631  0.5620
  136MOL0     H18327   5.657  -0.035   5.843  0.1535 -0.4925  0.1526
  136MOL0     H18328   5.647   0.143   6.019 -0.4375 -1.0192  0.7531
  136MOL0     H18329   5.646   0.025   6.149  3.4071 -1.3068  0.5312
  136MOL0     H18330   5.877   0.050   5.959 -1.7785 -1.4338 -0.3410
  136MOL0     H18331   5.841  -0.087   6.077 -0.1079  0.4654  2.0368
  136MOL0     H18332   5.875   0.081   6.249  2.1620 -0.7665  0.5561
  136MOL0     H18333   5.908   0.206   6.119  2.6756 -0.9654 -0.6303
  136MOL0     H18334   6.052  -0.025   6.230 -0.2545 -0.6723 -0.5380
  136MOL0     H18335   6.081  -0.001   6.058 -1.3384  0.2190 -0.7122
  136MOL0     H18336   6.128   0.175   6.298 -3.5058  0.5872 -0.9152
  136MOL0     H18337   6.146   0.254   6.142  0.4035 -0.6120 -0.5819
  136MOL0     H18338   6.304   0.006   6.247  1.6774 -0.0930  1.4312
  136MOL0     H18339   6.346   0.087   6.097 -1.4488  1.7260 -0.5560
  136MOL0     H18340   5.307  -0.201   5.610  1.0332 -0.7935  2.8616
  136MOL0     H18341   5.058  -0.197   5.527  1.7458  0.7539 -1.5978
  136MOL0     H18342   4.576  -0.200   5.896 -3.0697 -1.5627  0.6313
  136MOL0     H18343   4.351  -0.223   5.838 -0.1961  0.8605  0.5149
  136MOL0     H18344   2.573  -0.076   5.766  1.1919 -0.2375  1.5546
  136MOL0     H18345   2.346   0.014   5.698  0.5588  0.4176 -0.0701
  136MOL0     H18346   1.860   0.014   5.918 -0.1109  1.0990 -0.0092
  136MOL0     H18347   1.633  -0.056   5.871 -0.9874  2.5517 -0.7969
  136MOL0     H18348   1.446   0.006   5.762  0.0502  0.4957  0.2397
  136MOL0     H18349   1.456  -0.181   5.777 -0.0450  0.0079  0.5471
  136MOL0     H18350   1.241  -0.141   5.757 -0.8330  1.8143 -0.7951
  136MOL0     H18351   1.306  -0.214   5.607  2.6341 -0.3701  1.1384
  136MOL0     H18352   1.275  -0.002   5.490 -1.5210 -2.6863 -0.9942
  136MOL0     H18353   1.234   0.082   5.639  1.3543 -0.0752  1.4826
  136MOL0     H18354   1.048  -0.011   5.474 -2.1230  1.6651  2.1159
  136MOL0     H18355   1.082  -0.166   5.549 -1.5936  0.1784  0.3125
  136MOL0     H18356   0.856   0.014   5.860 -0.0432 -2.0212  1.1412
  136MOL0     H18357   1.731  -0.120   5.460  3.1349 -1.2606 -0.3505
  136MOL0     H18358   2.020   0.044   5.444 -2.8743  0.2969  1.4329
  136MOL0     H18359   2.066  -0.125   5.496  0.0476  0.1158  0.6104
  136MOL0     H18360   1.929  -0.081   5.371 -1.0975  2.4157 -1.0452
  137MOL0     O18361   7.180   0.359   0.136  0.6269 -0.3466  0.0844
  137MOL0     C18362   7.173   0.331   0.020  0.4998  0.0866  0.3848
  137MOL0     O18363   7.274   0.299  -0.062 -0.7495  0.1155  0.2047
  137MOL0     C18364   7.396   0.344  -0.047  0.1619 -0.0599 -1.2018
  137MOL0     C18365   7.429   0.463   0.028  0.6743  0.0951  0.8441
  137MOL0     C18366   7.565   0.510   0.023 -0.4865 -0.3380  0.1167
  137MOL0     C18367   7.667   0.437  -0.037 -0.8301  1.1870  0.8541
  137MOL0     O18368   7.797   0.477  -0.008 -0.5797  0.0230  0.4028
  137MOL0     C18369   7.892   0.439  -0.108 -0.1910 -0.4868  0.0633
  137MOL0     C18370   8.032   0.499  -0.065  0.0579 -0.5516  0.2253
  137MOL0     C18371   8.137   0.522  -0.171 -0.1864 -0.0729 -0.2731
  137MOL0     C18372   8.279   0.557  -0.118 -0.3010  0.1482 -0.6459
  137MOL0     C18373   8.370   0.576  -0.244  0.8946 -1.0492  0.3288
  137MOL0     C18374   8.481   0.659  -0.197 -0.2544 -0.4212 -0.0516
  137MOL0     C18375   8.570   0.690  -0.320 -0.0354 -0.5163  0.1448
  137MOL0     C18376   8.684   0.764  -0.260 -0.0578  0.3376  1.0300
  137MOL0     N18377   8.770   0.816  -0.369  0.4130  0.2145 -0.3838
  137MOL0     C18378   8.749   0.928  -0.442 -0.0874  0.2146 -0.3927
  137MOL0     C18379   8.852   0.928  -0.534  0.7753  0.3271 -0.5223
  137MOL0     C18380   8.876   1.042  -0.632  0.0286  0.8323 -0.3067
  137MOL0     C18381   9.012   1.033  -0.701  0.2168 -0.5949  0.7476
  137MOL0     C18382   9.031   1.153  -0.803 -0.1850 -0.5832 -0.6080
  137MOL0     C18383   9.145   1.131  -0.898  0.5511 -0.0291  0.2476
  137MOL0     O18384   9.270   1.155  -0.818 -0.5506  0.9127 -0.1222
  137MOL0     C18385   9.390   1.133  -0.886 -0.1230 -0.1166 -0.5653
  137MOL0     C18386   9.500   1.171  -0.811  0.6486 -0.5941 -0.7837
  137MOL0     C18387   9.635   1.171  -0.855  0.6734 -0.0793 -0.3197
  137MOL0     C18388   9.650   1.142  -0.989  0.0697 -0.1275 -0.4361
  137MOL0     C18389   9.786   1.167  -1.052 -0.5667  0.3447 -0.7785
  137MOL0     O18390   9.886   1.191  -0.968 -0.2091 -0.4688  0.5123
  137MOL0     C18391  10.017   1.203  -1.020  0.8160  0.4872  0.3655
  137MOL0     C18392  10.071   1.099  -1.095  0.8644  0.3771  0.0791
  137MOL0     C18393  10.202   1.119  -1.142  0.4292  0.8921 -0.1949
  137MOL0     C18394  10.284   1.226  -1.107 -0.3745 -0.5639 -0.4137
  137MOL0     O18395  10.411   1.246  -1.153 -0.0754 -0.4112  0.4003
  137MOL0     C18396  10.474   1.146  -1.228  0.0686  0.8280  0.1554
  137MOL0     C18397  10.617   1.189  -1.261  0.4327  0.1525 -0.0104
  137MOL0     C18398  10.616   1.335  -1.316 -0.4373 -0.4418  0.4878
  137MOL0     C18399  10.756   1.368  -1.381  0.1867 -0.0549 -0.8388
  137MOL0     C18400  10.774   1.495  -1.449 -0.0294  0.2375  0.1135
  137MOL0     C18401  10.906   1.503  -1.532 -0.0033 -0.1275 -0.4480
  137MOL0     C18402  10.917   1.648  -1.594  0.0102  0.3879 -0.1113
  137MOL0     C18403  10.996   1.635  -1.725  0.2428  0.3357 -0.0639
  137MOL0    Cl18404  11.136   1.517  -1.717  0.2199  0.2736 -0.3762
  137MOL0     C18405  10.219   1.329  -1.041  1.0840  0.4393 -0.1533
  137MOL0     C18406  10.087   1.320  -0.992 -0.3976  0.2946  0.9667
  137MOL0     O18407   9.798   1.146  -1.176  0.6319 -0.1650 -0.8690
  137MOL0     C18408   9.540   1.092  -1.068  1.0297 -0.9486  0.1146
  137MOL0     C18409   9.412   1.104  -1.016  0.2013 -0.1599 -0.2668
  137MOL0     N18410   8.932   0.812  -0.514  0.5330  0.3313 -0.1219
  137MOL0     N18411   8.884   0.752  -0.402  0.0668  0.3959  0.1219
  137MOL0     C18412   7.629   0.321  -0.110 -0.4772  0.1285 -0.0864
  137MOL0     C18413   7.500   0.273  -0.107  0.2373 -0.0588  0.2441
  137MOL0     C18414   7.043   0.341  -0.049  0.3002  0.3276 -1.0609
  137MOL0     C18415   7.032   0.385  -0.182  0.5918 -0.2079  0.1146
  137MOL0     C18416   6.911   0.409  -0.252 -0.4108 -0.0525  0.0890
  137MOL0     C18417   6.797   0.360  -0.188  0.7612  0.7575  0.3756
  137MOL0     O18418   6.686   0.363  -0.273  0.2481 -0.1330  0.0250
  137MOL0     C18419   6.570   0.281  -0.243  0.3393 -0.5944  0.0359
  137MOL0     C18420   6.470   0.261  -0.354 -0.3446 -0.3481 -0.8906
  137MOL0     C18421   6.335   0.198  -0.309  0.3761 -0.5532  0.4190
  137MOL0     C18422   6.238   0.309  -0.273 -0.1343  0.1313  0.8670
  137MOL0     C18423   6.221   0.409  -0.373 -0.2973 -0.7037  0.4027
  137MOL0     C18424   6.217   0.491  -0.464  0.0365  0.7336 -0.4266
  137MOL0     C18425   6.798   0.316  -0.054 -0.3960 -0.1159  0.3195
  137MOL0     C18426   6.915   0.306   0.016 -0.0744  0.4239 -0.2667
  137MOL0     C18427   6.906   0.253   0.155 -0.9061 -0.3789  0.6698
  137MOL0     H18428   7.349   0.525   0.068  2.2969  4.0276 -1.4083
  137MOL0     H18429   7.594   0.601   0.073  0.0825  0.0756 -0.9453
  137MOL0     H18430   7.910   0.332  -0.124  4.9152  0.2710 -1.0926
  137MOL0     H18431   7.853   0.478  -0.202  1.1084  1.4179  0.2626
  137MOL0     H18432   8.069   0.425   0.007  0.8754  1.4826  1.9923
  137MOL0     H18433   8.018   0.593  -0.010  1.3410  1.3118 -2.4169
  137MOL0     H18434   8.097   0.589  -0.247  0.0544 -1.1819 -1.4127
  137MOL0     H18435   8.134   0.422  -0.216 -4.3475 -0.6548  0.8776
  137MOL0     H18436   8.276   0.652  -0.062  2.0496 -0.2386  0.2524
  137MOL0     H18437   8.314   0.482  -0.046  1.7074  1.9496  0.3797
  137MOL0     H18438   8.419   0.482  -0.270  1.5751 -0.1725 -1.7481
  137MOL0     H18439   8.315   0.629  -0.322  0.9887 -0.0160  0.9441
  137MOL0     H18440   8.444   0.755  -0.160 -1.4651 -0.3197 -1.4280
  137MOL0     H18441   8.541   0.606  -0.123 -0.4022 -1.4556 -0.6467
  137MOL0     H18442   8.514   0.754  -0.389 -0.9201 -0.3079  1.0377
  137MOL0     H18443   8.615   0.600  -0.362 -0.2995 -0.2831 -0.6538
  137MOL0     H18444   8.642   0.846  -0.200 -2.1727  0.3245 -0.3177
  137MOL0     H18445   8.735   0.693  -0.195  1.4187  0.0221 -0.3933
  137MOL0     H18446   8.672   1.000  -0.416  0.0284 -0.3680  1.7737
  137MOL0     H18447   8.791   1.043  -0.700 -3.7256 -1.3801  3.8362
  137MOL0     H18448   8.886   1.138  -0.579  2.6457  0.2689  0.3901
  137MOL0     H18449   9.097   1.049  -0.634  1.0024  0.1609 -0.3820
  137MOL0     H18450   9.018   0.940  -0.759  0.4018  1.3560 -2.6704
  137MOL0     H18451   9.054   1.253  -0.765 -1.3706  0.2730 -2.0361
  137MOL0     H18452   8.946   1.154  -0.872 -0.8872  2.1584  0.1912
  137MOL0     H18453   9.141   1.200  -0.982  1.4933  0.2114  0.3828
  137MOL0     H18454   9.153   1.027  -0.931 -1.5770 -0.8676  2.1020
  137MOL0     H18455   9.484   1.191  -0.705 -1.3860  1.0929 -1.3404
  137MOL0     H18456   9.708   1.215  -0.788 -0.6202  1.4015  0.1771
  137MOL0     H18457  10.019   1.006  -1.118 -0.1228  0.6867  0.9859
  137MOL0     H18458  10.245   1.034  -1.195  0.8953  1.3654 -0.5777
  137MOL0     H18459  10.484   1.050  -1.176  1.0740  0.6305 -0.3616
  137MOL0     H18460  10.431   1.137  -1.329  2.8284 -0.3544 -1.0106
  137MOL0     H18461  10.675   1.166  -1.171 -0.5117  0.1665  0.6302
  137MOL0     H18462  10.649   1.127  -1.344 -1.1889  1.7513 -1.9373
  137MOL0     H18463  10.540   1.339  -1.394  0.0481 -1.9722 -0.1185
  137MOL0     H18464  10.591   1.403  -1.234 -0.9776 -2.9646  2.5485
  137MOL0     H18465  10.766   1.287  -1.453 -3.5337 -1.7175  0.2784
  137MOL0     H18466  10.837   1.346  -1.310 -3.4012 -0.9903  3.4227
  137MOL0     H18467  10.779   1.581  -1.382  1.4047  1.1260 -1.0515
  137MOL0     H18468  10.686   1.519  -1.510 -0.2374 -1.0730 -0.1243
  137MOL0     H18469  10.994   1.491  -1.469 -1.3466  0.0229  1.5163
  137MOL0     H18470  10.897   1.421  -1.605 -0.8608 -0.4593  0.0154
  137MOL0     H18471  10.976   1.710  -1.525  0.4413 -0.6884  0.5092
  137MOL0     H18472  10.818   1.693  -1.609 -2.1755 -2.2581  4.1242
  137MOL0     H18473  10.924   1.597  -1.799 -0.8697 -0.5324  1.4138
  137MOL0     H18474  11.024   1.740  -1.742 -3.1525  1.0767 -2.0448
  137MOL0     H18475  10.273   1.422  -1.033  1.9422 -0.0362 -0.3517
  137MOL0     H18476  10.032   1.402  -0.947 -1.6532  0.6631 -1.1243
  137MOL0     H18477   9.552   1.061  -1.171 -5.0463  0.1518 -1.3028
  137MOL0     H18478   9.324   1.087  -1.079 -0.1174 -0.0516  0.1438
  137MOL0     H18479   7.701   0.257  -0.159 -0.2699 -0.7954  1.3547
  137MOL0     H18480   7.488   0.191  -0.178  0.7154  1.2298 -1.3942
  137MOL0     H18481   7.125   0.401  -0.237  1.2372 -2.6420  0.3732
  137MOL0     H18482   6.903   0.454  -0.350 -1.4449  0.2083  0.2789
  137MOL0     H18483   6.516   0.318  -0.155 -1.6914  0.0192 -1.4035
  137MOL0     H18484   6.604   0.180  -0.218 -1.0476 -1.3631 -1.0539
  137MOL0     H18485   6.515   0.193  -0.427 -0.1043 -2.0696  0.7851
  137MOL0     H18486   6.461   0.358  -0.404 -0.8201  0.3478  0.4954
  137MOL0     H18487   6.345   0.145  -0.214 -0.1644  1.8844  1.9276
  137MOL0     H18488   6.289   0.136  -0.386 -0.1778  2.2896 -1.6729
  137MOL0     H18489   6.139   0.272  -0.243 -0.7238  1.2313  0.3216
  137MOL0     H18490   6.278   0.357  -0.183  0.1303  1.9632 -0.1820
  137MOL0     H18491   6.199   0.579  -0.523  0.1858  0.6549 -0.5874
  137MOL0     H18492   6.706   0.284  -0.006  0.3067  0.0074  1.7916
  137MOL0     H18493   7.000   0.198   0.167 -0.2572  0.5319 -0.0762
  137MOL0     H18494   6.904   0.345   0.214 -2.2825  1.5889 -2.1625
  137MOL0     H18495   6.817   0.191   0.171 -2.3109  1.2146 -0.5275
  138MOL0     O18496   8.485   0.859   5.104 -0.3341 -0.6432 -0.1912
  138MOL0     C18497   8.375   0.857   5.150 -0.1270 -0.1349  0.1882
  138MOL0     O18498   8.307   0.962   5.203  0.7159 -0.2783  0.1456
  138MOL0     C18499   8.382   1.077   5.219 -0.3786  0.0747  0.1962
  138MOL0     C18500   8.405   1.160   5.113  0.3484 -0.3896  0.4009
  138MOL0     C18501   8.478   1.278   5.116  0.5285 -0.5052  0.0811
  138MOL0     C18502   8.546   1.305   5.236 -0.3696  0.4201  0.9787
  138MOL0     O18503   8.598   1.431   5.232  0.7835  0.1252 -0.6007
  138MOL0     C18504   8.706   1.460   5.316 -0.3672  0.2384  0.1198
  138MOL0     C18505   8.771   1.590   5.261  0.9954  0.6737 -1.2403
  138MOL0     C18506   8.879   1.649   5.365 -0.2423 -0.1486 -0.2334
  138MOL0     C18507   9.011   1.694   5.299  0.4048  0.2408 -0.1247
  138MOL0     C18508   9.099   1.750   5.411 -0.4543 -0.2864 -0.4325
  138MOL0     C18509   9.249   1.755   5.375 -0.6664 -1.3606  0.7178
  138MOL0     C18510   9.307   1.865   5.278 -0.1180 -0.7351 -0.1960
  138MOL0     C18511   9.244   2.003   5.298  0.5774 -0.7387 -0.2564
  138MOL0     N18512   9.331   2.102   5.244 -0.2316 -1.0111  0.5060
  138MOL0     C18513   9.377   2.094   5.115  0.2594  0.5543 -0.7534
  138MOL0     C18514   9.471   2.192   5.111 -0.3836 -0.2835  0.3446
  138MOL0     C18515   9.556   2.238   4.997 -0.3074  0.4182 -0.3149
  138MOL0     C18516   9.698   2.190   5.018  0.3504  0.5563 -0.2973
  138MOL0     C18517   9.708   2.045   4.978  0.3078 -0.2240  0.7528
  138MOL0     C18518   9.846   2.008   4.940  0.5276  0.7605 -0.0692
  138MOL0     O18519   9.914   2.016   5.067 -0.3094 -0.8178  0.1254
  138MOL0     C18520  10.047   2.015   5.061 -0.3296  0.4859 -0.6613
  138MOL0     C18521  10.111   1.994   5.185  0.8317  0.4264  0.5644
  138MOL0     C18522  10.251   2.006   5.187  0.2971  0.6219 -0.4007
  138MOL0     C18523  10.328   2.037   5.072 -0.7069  0.6670 -0.4372
  138MOL0     C18524  10.476   2.055   5.072 -0.1268 -0.0611 -0.2889
  138MOL0     O18525  10.539   2.044   5.191  0.5249 -0.2467 -0.2423
  138MOL0     C18526  10.673   2.057   5.216  0.1378  0.0590  1.0634
  138MOL0     C18527  10.723   2.003   5.332  0.0860 -0.1067  0.0078
  138MOL0     C18528  10.851   2.018   5.377  0.1839  0.5656 -0.6233
  138MOL0     C18529  10.941   2.079   5.293 -0.2317 -0.8205 -0.3507
  138MOL0     O18530  11.078   2.095   5.327  0.5240  0.4345  0.2826
  138MOL0     C18531  11.122   2.068   5.466 -0.5812 -0.2143 -0.2575
  138MOL0     C18532  11.278   2.067   5.473  0.2804 -0.0933  0.6730
  138MOL0     C18533  11.331   2.209   5.465 -0.2944  0.0592  0.9036
  138MOL0     C18534  11.470   2.222   5.507  0.6319  0.1284 -0.1833
  138MOL0     C18535  11.495   2.203   5.651 -0.8894  0.1220 -0.3417
  138MOL0     C18536  11.646   2.236   5.694  1.3106  1.1625  0.2843
  138MOL0     C18537  11.658   2.191   5.843 -0.4284 -0.0519  0.9435
  138MOL0     C18538  11.799   2.207   5.890 -0.2092  0.2467  0.1315
  138MOL0    Cl18539  11.808   2.204   6.076 -0.5255 -0.3637 -0.0173
  138MOL0     C18540  10.902   2.132   5.169 -0.0077  0.0503  0.3022
  138MOL0     C18541  10.765   2.120   5.130 -0.4275 -0.2083  0.2491
  138MOL0     O18542  10.535   2.052   4.964 -0.2164 -0.4272 -0.3332
  138MOL0     C18543  10.263   2.045   4.946  0.3851 -0.6786 -0.5421
  138MOL0     C18544  10.120   2.037   4.945  0.5156 -0.8695 -0.3662
  138MOL0     N18545   9.488   2.256   5.235  0.8613  0.0185  1.1646
  138MOL0     N18546   9.403   2.195   5.309  0.1916  0.5316  0.0641
  138MOL0     C18547   8.526   1.227   5.356  0.2225  0.9123 -0.3392
  138MOL0     C18548   8.451   1.103   5.342 -0.1011  0.4126 -0.4762
  138MOL0     C18549   8.297   0.724   5.156  0.8354 -0.0565  0.4026
  138MOL0     C18550   8.159   0.730   5.176 -1.1523 -0.4498  0.5764
  138MOL0     C18551   8.082   0.613   5.170  0.9443 -0.0755 -0.9498
  138MOL0     C18552   8.133   0.489   5.141  0.1897 -0.3889 -0.3589
  138MOL0     O18553   8.047   0.381   5.144 -0.5245 -0.0665  0.1024
  138MOL0     C18554   8.085   0.280   5.241 -0.4968 -0.3399 -0.3915
  138MOL0     C18555   7.974   0.177   5.251  0.4528 -0.0405 -0.5322
  138MOL0     C18556   7.950   0.100   5.112 -0.8161  0.2531 -0.7924
  138MOL0     C18557   8.004  -0.039   5.127 -0.5490 -0.6077  1.5984
  138MOL0     C18558   7.953  -0.123   5.014  0.6716  0.1157  0.3037
  138MOL0     C18559   7.888  -0.189   4.932 -0.3920 -0.7289 -0.7069
  138MOL0     C18560   8.269   0.486   5.109  0.4413  0.2458  0.1583
  138MOL0     C18561   8.353   0.597   5.117 -0.0272  0.0836  0.0393
  138MOL0     C18562   8.500   0.571   5.106  0.0938  0.2479 -0.3165
  138MOL0     H18563   8.362   1.126   5.019 -2.8789 -0.3157  1.7427
  138MOL0     H18564   8.499   1.340   5.028 -1.0362 -1.4545 -1.0080
  138MOL0     H18565   8.673   1.470   5.420  0.0953 -1.5370  0.4787
  138MOL0     H18566   8.775   1.375   5.309 -0.8595 -0.1059 -0.6601
  138MOL0     H18567   8.698   1.666   5.234  1.3054  0.7279 -1.9240
  138MOL0     H18568   8.822   1.563   5.168  2.2874  1.0169 -0.6491
  138MOL0     H18569   8.904   1.572   5.438 -1.3181 -0.6025 -0.3148
  138MOL0     H18570   8.831   1.726   5.427 -0.3666 -1.7812  1.8221
  138MOL0     H18571   9.049   1.608   5.245 -0.2210  0.0310 -0.2435
  138MOL0     H18572   8.999   1.776   5.227  0.2718  1.1631  0.9124
  138MOL0     H18573   9.066   1.853   5.426 -0.7620 -0.6473  1.7542
  138MOL0     H18574   9.077   1.697   5.504 -4.2826  3.3059  1.0334
  138MOL0     H18575   9.309   1.764   5.467 -1.8443  0.0836  1.3961
  138MOL0     H18576   9.275   1.657   5.335  0.5626 -0.8957  0.3385
  138MOL0     H18577   9.309   1.842   5.171 -2.6035  1.2181 -0.7675
  138MOL0     H18578   9.414   1.873   5.303 -0.1349 -2.9119  0.7427
  138MOL0     H18579   9.152   2.008   5.239  0.7661  2.2016 -0.4427
  138MOL0     H18580   9.225   2.014   5.405 -1.5316 -0.4193 -0.6262
  138MOL0     H18581   9.358   2.028   5.031  1.5832 -1.2157  0.2825
  138MOL0     H18582   9.507   2.205   4.904 -0.3973  0.5341 -0.3084
  138MOL0     H18583   9.565   2.346   5.008  1.4813  0.1174  1.7924
  138MOL0     H18584   9.765   2.247   4.953  2.2442 -1.4942 -0.2370
  138MOL0     H18585   9.718   2.195   5.125 -0.0789 -0.5590 -0.1593
  138MOL0     H18586   9.627   2.023   4.908 -0.8436  1.4723  1.4497
  138MOL0     H18587   9.676   1.985   5.064  1.6605 -1.5396  0.3666
  138MOL0     H18588   9.879   2.076   4.860  0.4888 -0.0620 -0.8016
  138MOL0     H18589   9.843   1.907   4.897  2.3734  0.2833  0.8326
  138MOL0     H18590  10.060   1.961   5.275  1.0504  0.8776  0.8622
  138MOL0     H18591  10.302   1.986   5.281 -0.9901  0.9836  0.3949
  138MOL0     H18592  10.644   1.950   5.384  0.5466  1.1820  2.1639
  138MOL0     H18593  10.869   1.981   5.478  2.7484  1.7660 -0.5523
  138MOL0     H18594  11.090   2.152   5.528  0.7037  1.0392 -1.2134
  138MOL0     H18595  11.089   1.972   5.505  1.5129 -0.7213  0.4217
  138MOL0     H18596  11.300   2.024   5.571 -0.9129 -1.1962  0.4929
  138MOL0     H18597  11.329   2.010   5.394 -0.1095 -2.3865  1.9839
  138MOL0     H18598  11.327   2.243   5.361  0.0761 -1.2985  0.4311
  138MOL0     H18599  11.274   2.273   5.533  0.7218 -1.5625  3.4490
  138MOL0     H18600  11.505   2.322   5.479 -2.5018  1.7224  1.1581
  138MOL0     H18601  11.518   2.139   5.454 -0.2311 -0.8253  0.5039
  138MOL0     H18602  11.471   2.099   5.675  0.9552 -0.5627 -1.1909
  138MOL0     H18603  11.432   2.268   5.712 -0.8737 -0.9233  0.8410
  138MOL0     H18604  11.722   2.184   5.635  2.5583  0.5304  2.3401
  138MOL0     H18605  11.661   2.342   5.671 -1.8546  1.9984  1.4698
  138MOL0     H18606  11.640   2.084   5.852  0.3521 -0.2865 -0.1417
  138MOL0     H18607  11.594   2.256   5.903 -1.4687  0.1774 -0.3662
  138MOL0     H18608  11.873   2.142   5.841 -0.0941  0.3112  0.2172
  138MOL0     H18609  11.830   2.307   5.859  3.8253 -1.1947 -1.1991
  138MOL0     H18610  10.981   2.176   5.110  1.0198  1.9074  2.8714
  138MOL0     H18611  10.739   2.157   5.032  1.9230 -1.2995 -0.8738
  138MOL0     H18612  10.310   2.068   4.851  0.3640 -2.1355 -0.9255
  138MOL0     H18613  10.068   2.055   4.851 -2.9310  1.9746  1.8561
  138MOL0     H18614   8.570   1.257   5.451  1.2355  0.1142 -0.5398
  138MOL0     H18615   8.459   1.034   5.425  0.1401  0.6265 -0.3202
  138MOL0     H18616   8.119   0.828   5.201  2.3492  0.9500  1.1753
  138MOL0     H18617   7.976   0.627   5.190  1.1213 -2.3121  2.4265
  138MOL0     H18618   8.092   0.331   5.338 -3.4505  1.0675 -0.8086
  138MOL0     H18619   8.181   0.231   5.220  0.6667  0.9739  1.4809
  138MOL0     H18620   7.875   0.221   5.267  0.9825  0.4947  1.5795
  138MOL0     H18621   7.984   0.106   5.334  2.2546 -0.5119 -1.1161
  138MOL0     H18622   7.993   0.153   5.027 -1.0474  1.8130  0.0415
  138MOL0     H18623   7.841   0.093   5.107 -0.9704 -1.1818  2.0890
  138MOL0     H18624   8.113  -0.043   5.135 -0.1699 -0.2814 -1.8032
  138MOL0     H18625   7.960  -0.073   5.221  0.0608  3.4253  3.5834
  138MOL0     H18626   7.838  -0.236   4.850 -0.1029 -4.0702  0.8700
  138MOL0     H18627   8.301   0.384   5.093 -1.1305 -0.5807  1.8775
  138MOL0     H18628   8.550   0.606   5.197  0.0813 -1.8962  0.5900
  138MOL0     H18629   8.519   0.463   5.094  0.0610 -0.0669  1.9911
  138MOL0     H18630   8.551   0.624   5.025 -0.0556  1.9038  0.6333
  139MOL0     O18631   9.700   7.904   8.481  0.1973  0.1555  0.1029
  139MOL0     C18632   9.632   7.914   8.378 -0.2067  0.2866  0.6204
  139MOL0     O18633   9.669   7.970   8.253 -0.3563  0.4280 -0.6217
  139MOL0     C18634   9.801   7.983   8.246 -0.2583  0.0500  0.4725
  139MOL0     C18635   9.858   8.110   8.258  0.1671  0.7048 -0.6423
  139MOL0     C18636   9.994   8.127   8.230 -0.4102  0.6839  0.0967
  139MOL0     C18637  10.072   8.015   8.186  0.4168 -0.7305 -0.3714
  139MOL0     O18638  10.197   8.039   8.146 -0.2052 -0.0774  0.7200
  139MOL0     C18639  10.282   7.941   8.086  0.9930 -0.0434  0.5503
  139MOL0     C18640  10.418   8.002   8.065  0.7185  0.3751  0.9463
  139MOL0     C18641  10.497   8.048   8.191  0.4779 -0.3867 -0.3179
  139MOL0     C18642  10.426   8.166   8.264 -0.5650 -0.0529  0.4382
  139MOL0     C18643  10.536   8.257   8.338 -0.1521 -0.3331  0.3149
  139MOL0     C18644  10.465   8.388   8.390  1.1640 -0.1278 -0.0454
  139MOL0     C18645  10.572   8.478   8.440  0.0698 -0.8320  0.5577
  139MOL0     C18646  10.504   8.603   8.507  0.2712  0.4157  0.3495
  139MOL0     N18647  10.607   8.685   8.574 -0.2289 -0.2315  0.8123
  139MOL0     C18648  10.721   8.736   8.509  0.2180  0.4255 -0.0402
  139MOL0     C18649  10.807   8.764   8.601  0.1688  0.3492 -0.3269
  139MOL0     C18650  10.946   8.825   8.585 -0.5034  1.1449 -0.0353
  139MOL0     C18651  10.970   8.928   8.694 -0.4524  0.0892  0.1186
  139MOL0     C18652  11.105   8.991   8.683  0.0865 -1.2338  0.6649
  139MOL0     C18653  11.215   8.886   8.692  0.9485 -0.7385 -0.3581
  139MOL0     O18654  11.340   8.944   8.713 -0.9007  0.3840  0.0130
  139MOL0     C18655  11.447   8.856   8.750  0.4504  0.3847  0.0274
  139MOL0     C18656  11.576   8.913   8.747 -0.0148 -0.5193 -0.3274
  139MOL0     C18657  11.685   8.832   8.768 -0.3265  0.4366  0.4691
  139MOL0     C18658  11.676   8.691   8.796  0.2685  0.4322  0.1105
  139MOL0     C18659  11.790   8.606   8.818 -0.3541 -0.1393 -0.3613
  139MOL0     O18660  11.912   8.671   8.845 -0.0527  0.2885  0.6005
  139MOL0     C18661  12.031   8.605   8.857 -0.5709  0.4035 -0.5150
  139MOL0     C18662  12.145   8.681   8.822 -0.0216  0.4799  0.2244
  139MOL0     C18663  12.268   8.623   8.815 -0.0786  0.0097 -0.3264
  139MOL0     C18664  12.292   8.486   8.828  0.0394 -0.4436  0.2449
  139MOL0     O18665  12.417   8.439   8.825 -0.8607  0.5582 -0.2145
  139MOL0     C18666  12.511   8.497   8.730  0.0852 -0.0642  0.7591
  139MOL0     C18667  12.633   8.421   8.697 -0.1131 -0.0518  0.7234
  139MOL0     C18668  12.705   8.397   8.830  0.5475  0.6036 -0.2940
  139MOL0     C18669  12.858   8.397   8.818 -0.6089  0.0700 -0.2662
  139MOL0     C18670  12.917   8.322   8.929  0.5326 -0.2647 -0.0097
  139MOL0     C18671  13.073   8.292   8.921  0.5730  0.5125 -0.2643
  139MOL0     C18672  13.161   8.413   8.894  0.5182 -0.4918  0.2211
  139MOL0     C18673  13.299   8.364   8.857 -0.4669  0.2243  0.0712
  139MOL0    Cl18674  13.411   8.342   9.001 -0.0331 -0.2035 -0.0210
  139MOL0     C18675  12.185   8.409   8.872 -0.0746 -0.0277 -0.2836
  139MOL0     C18676  12.055   8.467   8.880 -0.5871  0.3224  0.4910
  139MOL0     O18677  11.765   8.484   8.811  0.1564  0.1146  0.3693
  139MOL0     C18678  11.537   8.638   8.797 -0.9412 -0.3295  0.5049
  139MOL0     C18679  11.427   8.720   8.772 -0.6315  0.2682  0.1221
  139MOL0     N18680  10.744   8.749   8.724 -0.7662  0.0806  0.2364
  139MOL0     N18681  10.630   8.702   8.711  0.5201  0.0034  0.0356
  139MOL0     C18682  10.018   7.890   8.180 -0.4011  0.6724 -0.2425
  139MOL0     C18683   9.880   7.871   8.213  0.7743 -0.8412 -0.0448
  139MOL0     C18684   9.492   7.866   8.385  1.0072 -0.2250 -0.0979
  139MOL0     C18685   9.435   7.886   8.510  0.0985  0.0916 -0.0651
  139MOL0     C18686   9.299   7.849   8.525  0.0127  0.0465 -0.6613
  139MOL0     C18687   9.229   7.793   8.423  0.0344 -0.5882  0.1349
  139MOL0     O18688   9.098   7.770   8.455 -0.6061 -0.0336  0.6573
  139MOL0     C18689   9.005   7.704   8.363  0.6275  0.6098  0.3825
  139MOL0     C18690   9.027   7.550   8.371 -0.3548  0.7982 -0.1867
  139MOL0     C18691   8.981   7.495   8.508 -0.5500  0.9204  0.1048
  139MOL0     C18692   9.101   7.498   8.613  0.0297  0.4859 -0.3149
  139MOL0     C18693   9.056   7.414   8.728  0.0338 -0.2529 -0.5923
  139MOL0     C18694   9.002   7.357   8.821  0.2659 -0.2011 -0.1218
  139MOL0     C18695   9.285   7.764   8.293 -0.3017  0.1069 -0.1270
  139MOL0     C18696   9.417   7.803   8.278  0.6782 -0.1940  0.2175
  139MOL0     C18697   9.477   7.784   8.137 -0.3946  0.0886 -0.6935
  139MOL0     H18698   9.801   8.200   8.277  1.0391  1.9678 -3.3888
  139MOL0     H18699  10.038   8.225   8.246 -1.2885  0.8676  1.5531
  139MOL0     H18700  10.292   7.859   8.157  1.3856 -0.4613  0.0190
  139MOL0     H18701  10.238   7.905   7.992  1.3069 -0.7639  0.6752
  139MOL0     H18702  10.401   8.093   8.006  0.4228  0.5478  1.2944
  139MOL0     H18703  10.478   7.928   8.011 -1.6482 -0.6446 -0.4447
  139MOL0     H18704  10.595   8.085   8.159  0.4669 -1.4000 -1.6240
  139MOL0     H18705  10.518   7.964   8.258 -0.5487  0.4579  1.1074
  139MOL0     H18706  10.382   8.231   8.187 -1.0644 -3.1561 -2.0912
  139MOL0     H18707  10.345   8.135   8.331 -0.7730 -1.4129 -0.4129
  139MOL0     H18708  10.585   8.209   8.423  0.0712  0.6641  0.7600
  139MOL0     H18709  10.610   8.282   8.262 -0.4842  1.2649  0.4816
  139MOL0     H18710  10.408   8.427   8.305  2.4935 -0.9065 -1.3349
  139MOL0     H18711  10.402   8.358   8.474  0.5579 -0.2471 -0.5314
  139MOL0     H18712  10.632   8.512   8.355  0.0626 -1.1707  0.4141
  139MOL0     H18713  10.634   8.421   8.510  0.7326 -1.8038 -0.7641
  139MOL0     H18714  10.457   8.660   8.427  1.6345 -0.3684 -1.0547
  139MOL0     H18715  10.434   8.555   8.577  1.9011 -4.4373 -0.9330
  139MOL0     H18716  10.729   8.746   8.401  1.3345 -1.6932 -0.2007
  139MOL0     H18717  11.016   8.741   8.590 -1.1400  0.3972 -2.4043
  139MOL0     H18718  10.956   8.871   8.486  0.9355 -0.3610 -0.6331
  139MOL0     H18719  10.900   9.012   8.682  2.3474  2.3134 -1.8421
  139MOL0     H18720  10.965   8.880   8.792 -0.5678  1.8183  0.9926
  139MOL0     H18721  11.105   9.065   8.763  0.7278 -1.3662  0.7938
  139MOL0     H18722  11.121   9.047   8.590 -1.0322  0.2680  1.3360
  139MOL0     H18723  11.217   8.831   8.597 -0.0306 -0.8352 -0.3391
  139MOL0     H18724  11.194   8.803   8.760  1.8152 -1.3316 -0.8005
  139MOL0     H18725  11.587   9.019   8.723 -0.3711 -0.3472  0.2404
  139MOL0     H18726  11.781   8.882   8.772 -0.5674  1.2437 -2.1109
  139MOL0     H18727  12.137   8.789   8.814  0.1740  0.4805  0.0607
  139MOL0     H18728  12.341   8.700   8.793 -2.2679  1.7184 -1.9751
  139MOL0     H18729  12.459   8.506   8.634 -2.4062  0.2576  2.0530
  139MOL0     H18730  12.533   8.600   8.760  0.3010  0.2510 -0.4382
  139MOL0     H18731  12.607   8.329   8.642  1.8844  0.5436 -1.3632
  139MOL0     H18732  12.697   8.486   8.636 -1.5187 -0.9853 -1.9173
  139MOL0     H18733  12.665   8.463   8.908  0.5401  2.1751 -1.5913
  139MOL0     H18734  12.670   8.301   8.869 -1.7743  1.4978 -0.0371
  139MOL0     H18735  12.892   8.501   8.828  1.5992 -0.7678  2.1725
  139MOL0     H18736  12.890   8.355   8.722  1.6121  0.0252  0.4280
  139MOL0     H18737  12.865   8.226   8.928 -2.2031  1.0758 -2.6204
  139MOL0     H18738  12.907   8.376   9.023 -2.6295 -0.4923 -0.1187
  139MOL0     H18739  13.096   8.240   9.015 -0.3212 -0.7196 -0.6946
  139MOL0     H18740  13.083   8.210   8.850  1.3294  0.1691  0.2285
  139MOL0     H18741  13.159   8.491   8.971 -3.2948 -0.0781 -0.1068
  139MOL0     H18742  13.109   8.461   8.811 -0.8667 -2.7221 -0.2867
  139MOL0     H18743  13.298   8.270   8.800  0.2015 -0.8121  1.6920
  139MOL0     H18744  13.336   8.439   8.786 -1.9683 -0.7106 -1.7773
  139MOL0     H18745  12.211   8.314   8.918  1.5107  1.2832  1.7094
  139MOL0     H18746  11.975   8.395   8.896  0.4487 -1.9315 -3.2394
  139MOL0     H18747  11.512   8.535   8.819  1.5177 -1.3435 -1.0678
  139MOL0     H18748  11.335   8.665   8.794 -0.8765  1.6104  2.9530
  139MOL0     H18749  10.082   7.806   8.153  0.3095  1.7524 -2.0751
  139MOL0     H18750   9.839   7.771   8.207 -0.4264 -0.6490  3.1956
  139MOL0     H18751   9.484   7.943   8.588 -3.3907  2.9810  0.2743
  139MOL0     H18752   9.242   7.865   8.616  2.4654  1.3036  0.7698
  139MOL0     H18753   9.029   7.738   8.262  0.5000 -0.1301  0.1003
  139MOL0     H18754   8.906   7.740   8.393  0.9484  2.2081 -0.3488
  139MOL0     H18755   9.130   7.527   8.343 -0.4184  0.9014 -0.5210
  139MOL0     H18756   8.966   7.502   8.294 -1.4682  3.2981 -0.9887
  139MOL0     H18757   8.949   7.394   8.478 -1.9607  1.1609  0.7064
  139MOL0     H18758   8.887   7.540   8.540  0.1950  2.3600  0.3409
  139MOL0     H18759   9.192   7.448   8.578  2.7234  0.9461  5.0274
  139MOL0     H18760   9.138   7.597   8.638 -1.3659  0.5159  1.9226
  139MOL0     H18761   8.947   7.323   8.907  2.3749  0.8863  1.7808
  139MOL0     H18762   9.234   7.714   8.212  2.3984 -2.2474 -0.5050
  139MOL0     H18763   9.573   7.732   8.147 -1.2012 -1.7635 -1.9712
  139MOL0     H18764   9.402   7.728   8.080 -3.0654  1.5665  1.1777
  139MOL0     H18765   9.497   7.877   8.083 -0.1672  1.6976  1.9645
  140MOL0     O18766   0.221   4.585   1.580  0.0046  0.4369  0.2998
  140MOL0     C18767   0.195   4.670   1.494  0.0909  0.2818 -0.4456
  140MOL0     O18768   0.267   4.780   1.473  0.3942  0.4357 -0.0008
  140MOL0     C18769   0.359   4.821   1.568 -0.8200  0.5722  0.2374
  140MOL0     C18770   0.492   4.797   1.517  0.2633  0.2094 -0.0689
  140MOL0     C18771   0.605   4.842   1.596 -0.5626  0.3783 -0.3685
  140MOL0     C18772   0.588   4.902   1.720  0.9186  0.1862  0.7377
  140MOL0     O18773   0.700   4.921   1.789  0.7730 -0.0766 -0.7087
  140MOL0     C18774   0.702   4.908   1.936  0.4552 -0.2299 -0.3680
  140MOL0     C18775   0.847   4.913   1.984  0.3083 -0.0568 -0.5980
  140MOL0     C18776   0.908   5.052   1.973 -0.6988  0.1832  0.7971
  140MOL0     C18777   1.065   5.043   1.961  0.3145 -0.8729 -0.0236
  140MOL0     C18778   1.116   5.182   1.918  0.6554  0.0656 -0.2390
  140MOL0     C18779   1.262   5.198   1.867  0.4870  0.0390 -0.8987
  140MOL0     C18780   1.304   5.341   1.839 -0.4020  0.2327  0.9712
  140MOL0     C18781   1.231   5.399   1.726  0.2750  0.5211 -0.1515
  140MOL0     N18782   1.281   5.526   1.683 -0.2255 -0.5016  0.2168
  140MOL0     C18783   1.311   5.640   1.752  0.1991 -0.1896  0.5125
  140MOL0     C18784   1.366   5.732   1.672  0.6108  0.4706  0.4982
  140MOL0     C18785   1.412   5.865   1.704 -0.4379 -0.1790  0.8412
  140MOL0     C18786   1.550   5.874   1.774  0.9013  0.5592 -0.6832
  140MOL0     C18787   1.656   5.811   1.684 -0.6147 -0.8423  0.2342
  140MOL0     C18788   1.798   5.838   1.721 -0.8561 -0.2180 -0.7334
  140MOL0     O18789   1.821   5.983   1.737 -0.2707  0.1806  0.3139
  140MOL0     C18790   1.944   6.013   1.779  0.4432  0.0706  0.5530
  140MOL0     C18791   2.040   5.920   1.809 -0.3247  0.0521 -0.3687
  140MOL0     C18792   2.172   5.960   1.842 -0.4338  0.5164  0.4159
  140MOL0     C18793   2.206   6.090   1.862  0.2721 -1.3135  0.2344
  140MOL0     C18794   2.333   6.122   1.923 -0.3139 -0.1974 -0.2395
  140MOL0     O18795   2.430   6.019   1.924 -0.5675 -0.2234  0.0292
  140MOL0     C18796   2.546   6.029   2.004 -0.1477  0.3390  0.8176
  140MOL0     C18797   2.650   6.114   1.962 -0.0343  0.2535  0.2113
  140MOL0     C18798   2.764   6.141   2.036  0.5889  0.3583  0.6269
  140MOL0     C18799   2.783   6.081   2.158  0.8603  0.6101  1.0115
  140MOL0     O18800   2.898   6.097   2.228  0.0801  0.0824 -0.1923
  140MOL0     C18801   2.969   5.988   2.290  0.9305  0.5564  0.0747
  140MOL0     C18802   3.098   6.033   2.348 -0.2612 -0.0378 -1.3603
  140MOL0     C18803   3.163   5.914   2.413  0.5118 -0.1272 -0.8882
  140MOL0     C18804   3.214   5.806   2.317 -0.5494 -0.1138  0.4775
  140MOL0     C18805   3.305   5.689   2.372 -0.2677  0.2275  0.0023
  140MOL0     C18806   3.258   5.631   2.506  0.4468 -1.1922  0.0626
  140MOL0     C18807   3.370   5.551   2.575 -0.7630  0.4211 -0.2530
  140MOL0     C18808   3.494   5.628   2.590 -0.9080 -0.6334  0.1192
  140MOL0    Cl18809   3.601   5.567   2.717  0.3031 -0.2576 -0.3865
  140MOL0     C18810   2.684   5.989   2.202  0.4373 -1.0390 -0.2946
  140MOL0     C18811   2.564   5.970   2.127  0.1891  0.0771  0.7958
  140MOL0     O18812   2.346   6.228   1.975  0.0756  0.3546  0.6100
  140MOL0     C18813   2.099   6.187   1.846  0.0594 -0.0385  0.1836
  140MOL0     C18814   1.980   6.146   1.801  0.7695  0.2834 -0.1355
  140MOL0     N18815   1.379   5.668   1.547 -0.3919 -0.2972  0.4078
  140MOL0     N18816   1.323   5.551   1.558  0.3391  0.6756 -0.5280
  140MOL0     C18817   0.458   4.914   1.769  0.3810 -0.0124  0.1056
  140MOL0     C18818   0.346   4.875   1.696 -0.0232  0.5165 -0.7543
  140MOL0     C18819   0.054   4.651   1.438  0.1010  0.1246  0.0004
  140MOL0     C18820  -0.038   4.578   1.514 -0.9487  0.3301  0.5022
  140MOL0     C18821  -0.165   4.552   1.465 -0.1150  0.2005 -0.6516
  140MOL0     C18822  -0.205   4.578   1.339  0.0327  1.0649  1.3927
  140MOL0     O18823  -0.317   4.526   1.287  0.1161 -0.0626  0.7154
  140MOL0     C18824  -0.445   4.553   1.342 -0.1064  0.2307  0.0406
  140MOL0     C18825  -0.483   4.698   1.381  0.0762 -0.1498 -1.0547
  140MOL0     C18826  -0.623   4.696   1.468 -0.8563 -0.2278 -0.1989
  140MOL0     C18827  -0.643   4.834   1.524  1.2137 -0.7125 -0.2961
  140MOL0     C18828  -0.778   4.843   1.572 -0.1032  0.2816  0.1122
  140MOL0     C18829  -0.899   4.846   1.589  0.2567  0.1234 -0.3782
  140MOL0     C18830  -0.105   4.640   1.257 -0.5158 -0.4600 -0.5953
  140MOL0     C18831   0.021   4.683   1.305 -1.2363 -0.4414  0.0774
  140MOL0     C18832   0.121   4.758   1.220  0.0729  0.2071  0.2009
  140MOL0     H18833   0.501   4.755   1.418 -0.4410 -3.8655  1.4118
  140MOL0     H18834   0.708   4.831   1.564  0.2350 -0.3695  2.1877
  140MOL0     H18835   0.643   4.989   1.979 -1.3572 -0.4551 -2.2434
  140MOL0     H18836   0.661   4.817   1.980  1.0051  0.6301  2.0559
  140MOL0     H18837   0.907   4.840   1.929  0.6938  0.1751 -0.4854
  140MOL0     H18838   0.850   4.895   2.092 -1.4503  1.4259 -0.2565
  140MOL0     H18839   0.882   5.110   2.063  3.1306  0.4153  1.9272
  140MOL0     H18840   0.871   5.098   1.882  0.1381 -0.9155 -0.1229
  140MOL0     H18841   1.104   5.025   2.062  2.4918  2.3381 -0.1461
  140MOL0     H18842   1.101   4.980   1.879  1.6449  1.5385 -1.4124
  140MOL0     H18843   1.052   5.232   1.845  2.2745  1.1684 -0.9605
  140MOL0     H18844   1.108   5.241   2.011 -0.5070 -0.7084  0.1729
  140MOL0     H18845   1.328   5.160   1.946 -0.0553  0.3165 -0.3024
  140MOL0     H18846   1.280   5.137   1.778 -0.2656 -0.1196 -0.9444
  140MOL0     H18847   1.409   5.341   1.811 -0.2148  3.4330  1.4015
  140MOL0     H18848   1.290   5.400   1.930 -2.4869 -0.5744  1.2327
  140MOL0     H18849   1.224   5.333   1.639 -1.0790  2.6543 -1.7539
  140MOL0     H18850   1.128   5.401   1.763  0.0448 -1.7122 -0.5087
  140MOL0     H18851   1.282   5.656   1.855 -1.9221 -1.4161  0.1867
  140MOL0     H18852   1.420   5.914   1.607 -1.1464 -2.9246 -0.7329
  140MOL0     H18853   1.340   5.915   1.769 -0.0451  0.5930  0.6970
  140MOL0     H18854   1.579   5.977   1.798  3.5868 -0.7064  2.1701
  140MOL0     H18855   1.531   5.821   1.868 -2.6276  0.6697 -1.1994
  140MOL0     H18856   1.646   5.860   1.587  1.8868  1.9160  1.2203
  140MOL0     H18857   1.642   5.703   1.676 -1.3743 -0.6663 -1.0727
  140MOL0     H18858   1.858   5.799   1.639  0.0605  0.4799 -0.4064
  140MOL0     H18859   1.813   5.787   1.816 -3.5570 -1.0066 -0.6314
  140MOL0     H18860   2.021   5.814   1.797 -3.1841  0.6614 -2.1485
  140MOL0     H18861   2.247   5.882   1.850 -0.7680  0.3353  2.4352
  140MOL0     H18862   2.651   6.156   1.862  1.4535 -1.5389 -0.5721
  140MOL0     H18863   2.831   6.213   1.988 -0.8376  1.3154  0.0109
  140MOL0     H18864   2.905   5.955   2.372  0.7968  1.8974  0.5304
  140MOL0     H18865   2.979   5.903   2.222  3.7154  0.2132  0.8104
  140MOL0     H18866   3.156   6.068   2.262  0.0177 -0.4534 -1.3459
  140MOL0     H18867   3.082   6.120   2.412 -0.3203  1.0525 -2.8058
  140MOL0     H18868   3.247   5.951   2.473  0.2868 -1.8273  0.5712
  140MOL0     H18869   3.093   5.872   2.486  1.4505  1.4712  1.0694
  140MOL0     H18870   3.258   5.862   2.234  0.4975 -2.1449 -0.4023
  140MOL0     H18871   3.130   5.750   2.273 -1.0259  1.5460 -0.8102
  140MOL0     H18872   3.405   5.733   2.377 -0.4004  0.4496  0.9701
  140MOL0     H18873   3.305   5.603   2.304 -0.3657 -0.2425  0.5849
  140MOL0     H18874   3.238   5.714   2.574 -1.0281 -0.5363 -1.1085
  140MOL0     H18875   3.164   5.577   2.492  2.1644 -4.2603 -0.6300
  140MOL0     H18876   3.402   5.461   2.521  2.8105  1.5118 -0.2241
  140MOL0     H18877   3.328   5.516   2.669  1.7860 -0.6231  0.5879
  140MOL0     H18878   3.561   5.633   2.504  0.9749  2.4367  1.6006
  140MOL0     H18879   3.481   5.734   2.614 -0.1124  0.1329 -2.5102
  140MOL0     H18880   2.679   5.952   2.304 -3.1704  2.1965  0.9482
  140MOL0     H18881   2.490   5.894   2.152  2.1176 -2.2007  0.0114
  140MOL0     H18882   2.119   6.291   1.869  2.6580 -0.4989  0.2845
  140MOL0     H18883   1.905   6.221   1.781 -0.8485 -1.3845 -0.5776
  140MOL0     H18884   0.448   4.949   1.872 -0.2141 -2.7539  1.0685
  140MOL0     H18885   0.244   4.900   1.724 -0.8127  1.2235 -3.8545
  140MOL0     H18886  -0.015   4.545   1.615 -0.3706  1.2627  0.6909
  140MOL0     H18887  -0.229   4.507   1.539 -0.2385  2.1762  0.4980
  140MOL0     H18888  -0.450   4.487   1.429  0.1067  0.4196  0.2009
  140MOL0     H18889  -0.527   4.523   1.277 -0.0494  0.9513 -0.3756
  140MOL0     H18890  -0.505   4.758   1.293  4.0502  0.1299 -2.0722
  140MOL0     H18891  -0.404   4.741   1.444 -0.3058 -2.2976  1.0558
  140MOL0     H18892  -0.614   4.622   1.548 -1.8276 -0.9619 -0.7442
  140MOL0     H18893  -0.706   4.662   1.405 -1.6092 -0.1507  0.7402
  140MOL0     H18894  -0.573   4.855   1.606 -0.9501 -0.7829  1.6723
  140MOL0     H18895  -0.628   4.905   1.442 -0.8420  2.3824  1.7942
  140MOL0     H18896  -1.002   4.845   1.618  0.8456  1.6679  2.0255
  140MOL0     H18897  -0.126   4.688   1.162 -0.0336 -0.5638 -0.7567
  140MOL0     H18898   0.119   4.867   1.235 -3.2667  0.1576  0.9343
  140MOL0     H18899   0.223   4.719   1.226  0.3135  0.6287 -0.9257
  140MOL0     H18900   0.092   4.728   1.119  1.3990  2.8437 -1.0871
  141MOL0     O18901   6.919  11.265   2.994  0.1968  0.1274  0.5712
  141MOL0     C18902   6.916  11.332   3.095  0.2760  0.0075  0.1665
  141MOL0     O18903   7.006  11.353   3.189  0.0843  0.5042 -0.3331
  141MOL0     C18904   7.105  11.257   3.189 -0.7505  0.3366 -0.2088
  141MOL0     C18905   7.140  11.216   3.319  0.4470  0.6927 -0.2802
  141MOL0     C18906   7.252  11.122   3.341  0.5591 -0.7304  0.0506
  141MOL0     C18907   7.332  11.088   3.235  0.0747  1.0123 -0.0754
  141MOL0     O18908   7.433  11.006   3.245 -1.1430  0.6748 -0.2124
  141MOL0     C18909   7.458  10.934   3.375 -0.6811 -0.2369 -0.2622
  141MOL0     C18910   7.585  10.839   3.385  0.1463 -0.7706 -0.4174
  141MOL0     C18911   7.722  10.915   3.368  0.1534  0.1201 -0.1672
  141MOL0     C18912   7.836  10.815   3.388 -0.0428  0.6971  0.9383
  141MOL0     C18913   7.973  10.872   3.374  0.3115  0.9141  0.7191
  141MOL0     C18914   8.072  10.743   3.375  0.0190 -0.5902  0.2513
  141MOL0     C18915   8.227  10.775   3.392 -0.5983  0.6436  0.3389
  141MOL0     C18916   8.275  10.856   3.507  0.2256 -0.7934 -1.1044
  141MOL0     N18917   8.421  10.828   3.531  0.9029 -0.1007  0.3360
  141MOL0     C18918   8.476  10.766   3.641 -0.2095 -0.5311  0.4746
  141MOL0     C18919   8.613  10.763   3.629  0.2593  0.1029 -0.2095
  141MOL0     C18920   8.716  10.731   3.730 -0.4948  0.0166 -0.1217
  141MOL0     C18921   8.863  10.712   3.683  0.4913 -0.1741 -0.1593
  141MOL0     C18922   8.922  10.849   3.647 -0.2651  0.5604 -0.4004
  141MOL0     C18923   9.074  10.831   3.610  0.0418  0.1146 -0.9417
  141MOL0     O18924   9.108  10.948   3.526 -0.0892  0.3211 -0.3817
  141MOL0     C18925   9.237  10.981   3.512  0.4986 -0.4932  0.0208
  141MOL0     C18926   9.349  10.909   3.547  0.1137 -0.1431 -0.0087
  141MOL0     C18927   9.476  10.950   3.520  0.1245 -0.3740 -0.1258
  141MOL0     C18928   9.507  11.076   3.466 -0.2755 -0.4702 -0.2970
  141MOL0     C18929   9.648  11.121   3.458 -0.3405 -0.0395  0.8721
  141MOL0     O18930   9.740  11.034   3.510 -0.1054  0.2381 -0.4080
  141MOL0     C18931   9.871  11.060   3.499  0.7691  0.0519  0.1215
  141MOL0     C18932   9.924  11.150   3.591  0.4671  0.7247 -0.6236
  141MOL0     C18933  10.061  11.179   3.574  0.4293 -0.4363  0.0195
  141MOL0     C18934  10.144  11.122   3.473  0.5119  0.7143 -0.0737
  141MOL0     O18935  10.280  11.143   3.470  0.1361  0.1071 -0.0314
  141MOL0     C18936  10.351  11.082   3.358 -0.6068 -0.5169  0.2583
  141MOL0     C18937  10.503  11.115   3.375 -0.2583  0.0420  0.4573
  141MOL0     C18938  10.530  11.264   3.397  0.7211 -0.0302 -0.2714
  141MOL0     C18939  10.672  11.282   3.369  0.3275 -0.7024  0.8835
  141MOL0     C18940  10.729  11.421   3.404 -1.1567  0.4268 -0.0147
  141MOL0     C18941  10.884  11.452   3.380  0.0564  0.7127 -0.1835
  141MOL0     C18942  10.905  11.599   3.408 -0.4606 -0.4451 -0.2044
  141MOL0     C18943  11.061  11.624   3.408  0.2628  0.6029 -0.5203
  141MOL0    Cl18944  11.128  11.535   3.549 -0.2738 -0.3453 -0.2900
  141MOL0     C18945  10.075  11.031   3.382 -0.9344 -0.7230 -0.8954
  141MOL0     C18946   9.943  11.004   3.395 -0.0190  0.7978  0.4608
  141MOL0     O18947   9.676  11.231   3.399 -0.7295  0.5305 -0.1207
  141MOL0     C18948   9.400  11.146   3.416 -0.4678 -0.3434 -0.0031
  141MOL0     C18949   9.263  11.102   3.444 -0.1847  0.5475 -0.2568
  141MOL0     N18950   8.634  10.817   3.511  0.1988 -0.1598 -0.1587
  141MOL0     N18951   8.529  10.853   3.451  0.2180  0.4779 -0.4710
  141MOL0     C18952   7.291  11.133   3.107  0.4602  0.0434 -0.4434
  141MOL0     C18953   7.191  11.220   3.081  0.3847 -0.6591  0.1019
  141MOL0     C18954   6.783  11.412   3.111 -0.5804  0.7712  0.0624
  141MOL0     C18955   6.673  11.368   3.043  1.2304 -0.1395 -0.2218
  141MOL0     C18956   6.550  11.447   3.038 -0.2941  0.1219 -0.5480
  141MOL0     C18957   6.538  11.556   3.127 -0.3712 -0.2240 -0.2924
  141MOL0     O18958   6.428  11.640   3.147 -0.2561 -0.0354  0.3962
  141MOL0     C18959   6.305  11.602   3.071 -0.4503  0.0275 -0.1995
  141MOL0     C18960   6.195  11.710   3.063 -0.2524  0.3540  0.0176
  141MOL0     C18961   6.249  11.839   2.996  1.2639 -0.0113  0.3302
  141MOL0     C18962   6.125  11.922   2.960  0.2379 -0.6919 -0.5299
  141MOL0     C18963   6.180  12.046   2.914  0.0210  0.5901 -0.0231
  141MOL0     C18964   6.240  12.148   2.879 -0.0803  0.1716  0.3262
  141MOL0     C18965   6.641  11.587   3.212 -0.6051  0.3535 -0.5678
  141MOL0     C18966   6.759  11.522   3.204 -0.4833  0.3094 -0.0790
  141MOL0     C18967   6.861  11.577   3.303 -0.4492  0.0532 -0.6531
  141MOL0     H18968   7.079  11.266   3.393 -0.7639  1.9687 -2.0465
  141MOL0     H18969   7.257  11.082   3.442 -0.8285  1.0018  0.8602
  141MOL0     H18970   7.454  11.002   3.460 -1.7243  2.6491 -2.4330
  141MOL0     H18971   7.372  10.873   3.404  0.2084 -1.0144  0.8324
  141MOL0     H18972   7.579  10.761   3.309 -1.3308 -1.7222  0.6034
  141MOL0     H18973   7.574  10.806   3.489  0.2329  0.2227 -0.0723
  141MOL0     H18974   7.725  10.997   3.440 -0.1786  1.4226 -1.5765
  141MOL0     H18975   7.741  10.956   3.268  2.2293 -3.7679 -1.5931
  141MOL0     H18976   7.826  10.763   3.483 -1.0425  0.6692  0.8276
  141MOL0     H18977   7.821  10.737   3.311 -2.7314  2.3661 -0.3942
  141MOL0     H18978   7.984  10.924   3.279  1.1477  1.3793  1.0522
  141MOL0     H18979   7.996  10.940   3.457  0.7023  1.4161  0.2076
  141MOL0     H18980   8.041  10.674   3.454 -1.9103  0.1136  0.1678
  141MOL0     H18981   8.063  10.686   3.283 -3.8253  1.3262 -0.7947
  141MOL0     H18982   8.256  10.833   3.304  1.8109  0.8348  1.1733
  141MOL0     H18983   8.279  10.679   3.396 -2.9737 -0.7132  0.5199
  141MOL0     H18984   8.259  10.963   3.494 -0.7869 -0.6908  0.6962
  141MOL0     H18985   8.223  10.832   3.600  2.3241  1.5559  0.8094
  141MOL0     H18986   8.415  10.725   3.721 -1.6213  0.1137 -0.2358
  141MOL0     H18987   8.721  10.809   3.807  1.4075  0.1332 -0.3112
  141MOL0     H18988   8.684  10.637   3.776  1.9833 -2.1314 -2.4252
  141MOL0     H18989   8.915  10.665   3.766 -0.7716 -2.4492 -0.5624
  141MOL0     H18990   8.867  10.645   3.597 -1.5100 -2.4748  1.4162
  141MOL0     H18991   8.895  10.909   3.735 -4.3935 -1.4629 -0.0394
  141MOL0     H18992   8.884  10.892   3.554 -1.5314 -0.9943 -0.6472
  141MOL0     H18993   9.096  10.741   3.552  0.5448  0.1494 -0.8099
  141MOL0     H18994   9.143  10.832   3.695  1.5343  1.2032 -2.1079
  141MOL0     H18995   9.330  10.812   3.591  1.4865  0.1652  1.3650
  141MOL0     H18996   9.545  10.870   3.545 -1.0021 -0.9363  1.2833
  141MOL0     H18997   9.866  11.191   3.673  0.5671 -2.0342  0.9422
  141MOL0     H18998  10.109  11.251   3.640 -0.4816  1.7024 -1.5508
  141MOL0     H18999  10.342  10.973   3.354  0.1527 -0.6697  1.9360
  141MOL0     H19000  10.323  11.125   3.262 -0.3707 -0.9843 -0.0243
  141MOL0     H19001  10.570  11.058   3.440  0.4778 -1.3579 -1.4340
  141MOL0     H19002  10.540  11.102   3.272  0.9263  1.5197  0.6561
  141MOL0     H19003  10.466  11.323   3.330 -2.8857 -0.2798  2.6345
  141MOL0     H19004  10.508  11.277   3.504 -0.3505  0.6055 -0.5513
  141MOL0     H19005  10.694  11.270   3.262 -1.6919  2.1816  0.0130
  141MOL0     H19006  10.725  11.204   3.425  0.1737  0.1361  2.2363
  141MOL0     H19007  10.713  11.453   3.507  2.1792 -1.1582  1.1214
  141MOL0     H19008  10.674  11.487   3.336  0.0542 -1.0733 -2.6018
  141MOL0     H19009  10.947  11.390   3.444  2.9948  0.8762 -2.6644
  141MOL0     H19010  10.908  11.441   3.274  1.2262  0.6020  0.0829
  141MOL0     H19011  10.865  11.620   3.507 -1.5793 -2.8617 -0.0603
  141MOL0     H19012  10.853  11.659   3.333 -1.1826 -0.7143  0.0767
  141MOL0     H19013  11.110  11.601   3.313  1.4600 -1.3195  0.5145
  141MOL0     H19014  11.087  11.730   3.420  1.6941  0.2125 -0.0853
  141MOL0     H19015  10.126  10.984   3.298  0.9636 -0.8935  0.2713
  141MOL0     H19016   9.897  10.936   3.323 -1.1337  2.5578 -0.5438
  141MOL0     H19017   9.424  11.232   3.355 -2.0924  2.2321  2.6897
  141MOL0     H19018   9.189  11.169   3.401 -1.1466 -0.4480 -0.1869
  141MOL0     H19019   7.336  11.086   3.020  1.3422  0.7961 -0.4154
  141MOL0     H19020   7.175  11.252   2.978  0.9064  1.0014  0.5063
  141MOL0     H19021   6.680  11.280   2.980 -0.7768 -0.6647  0.2205
  141MOL0     H19022   6.474  11.413   2.969  0.1120 -0.1462 -0.8633
  141MOL0     H19023   6.269  11.508   3.114  0.0135 -1.5865 -3.0781
  141MOL0     H19024   6.317  11.581   2.964  0.7899  0.5620 -0.1867
  141MOL0     H19025   6.178  11.736   3.168  1.3673  0.5693  0.2556
  141MOL0     H19026   6.105  11.671   3.016  0.1694 -1.8742  0.9080
  141MOL0     H19027   6.310  11.819   2.907 -0.4972  1.4940 -1.2697
  141MOL0     H19028   6.316  11.885   3.069  2.2218  0.9916 -1.1164
  141MOL0     H19029   6.053  11.878   2.890  0.4820  1.9053 -2.5582
  141MOL0     H19030   6.068  11.941   3.050  2.7437 -0.4620  1.1161
  141MOL0     H19031   6.303  12.227   2.841 -0.6957 -0.0342 -1.2093
  141MOL0     H19032   6.620  11.669   3.280  1.3869  1.7096 -1.5128
  141MOL0     H19033   6.832  11.676   3.339  1.9388 -0.1921  2.3451
  141MOL0     H19034   6.875  11.516   3.392  0.5980  1.7135  0.3688
  141MOL0     H19035   6.963  11.600   3.270  0.6341  2.7449  3.7406
  142MOL0     O19036   7.966   7.787   9.953 -0.6164 -0.1208  0.5458
  142MOL0     C19037   7.887   7.849  10.025 -0.7219  1.0602 -1.0619
  142MOL0     O19038   7.864   7.988  10.013 -0.3682  0.2583 -0.8169
  142MOL0     C19039   7.956   8.065   9.940  0.4050  0.4422  1.1035
  142MOL0     C19040   7.897   8.166   9.861 -0.4213  0.0642  0.1296
  142MOL0     C19041   7.980   8.254   9.785  0.5540  0.3357  0.0230
  142MOL0     C19042   8.114   8.240   9.787 -0.3666  0.1411  0.6870
  142MOL0     O19043   8.197   8.323   9.719  0.1736 -0.6100 -0.3092
  142MOL0     C19044   8.160   8.339   9.583 -0.4860 -0.0740 -0.3080
  142MOL0     C19045   8.282   8.316   9.492  0.2918  0.0758 -0.2337
  142MOL0     C19046   8.250   8.371   9.351  0.4084  0.3945  0.0059
  142MOL0     C19047   8.328   8.317   9.240 -0.4732  0.6416  0.1249
  142MOL0     C19048   8.483   8.304   9.265  0.0222 -0.4839 -0.3476
  142MOL0     C19049   8.548   8.269   9.124  0.4626 -0.1933  0.0812
  142MOL0     C19050   8.685   8.208   9.140  0.2454 -0.6171 -0.1244
  142MOL0     C19051   8.746   8.156   9.016 -1.0108  0.9352 -0.2846
  142MOL0     N19052   8.873   8.092   9.052  0.3425  0.6183 -0.0730
  142MOL0     C19053   8.870   7.971   9.124 -0.1147 -0.5963 -0.2633
  142MOL0     C19054   8.998   7.937   9.137  0.0775 -0.0850 -0.1595
  142MOL0     C19055   9.051   7.819   9.202 -0.5570  0.0529 -0.2074
  142MOL0     C19056   9.078   7.707   9.097 -0.3929  0.4819 -0.2000
  142MOL0     C19057   9.192   7.737   8.994  0.0881 -0.2095 -0.4272
  142MOL0     C19058   9.330   7.716   9.048  0.4015 -0.5928  0.4932
  142MOL0     O19059   9.432   7.754   8.953  0.8269 -0.3000 -0.0260
  142MOL0     C19060   9.565   7.739   8.982  0.4537 -0.3830 -0.1896
  142MOL0     C19061   9.610   7.667   9.090 -1.0390  0.7391 -0.0161
  142MOL0     C19062   9.747   7.650   9.123 -0.3378 -0.2906 -0.3733
  142MOL0     C19063   9.846   7.718   9.041  0.4516 -0.3019 -0.8578
  142MOL0     C19064   9.992   7.696   9.058 -0.7093 -0.1782  0.4064
  142MOL0     O19065  10.082   7.733   8.967  0.2635  0.0474  0.1993
  142MOL0     C19066  10.217   7.718   8.979 -0.7426 -0.2729  0.4668
  142MOL0     C19067  10.295   7.820   8.930 -0.0614  0.5517 -0.1296
  142MOL0     C19068  10.430   7.830   8.957 -0.2961  0.0343 -1.0373
  142MOL0     C19069  10.503   7.727   9.025 -0.4544  0.1283 -0.1512
  142MOL0     O19070  10.637   7.733   9.067  0.0355 -0.1378 -0.0935
  142MOL0     C19071  10.711   7.840   9.006 -0.7390 -0.0382 -0.8257
  142MOL0     C19072  10.856   7.831   9.050  0.2502  0.3619 -0.1722
  142MOL0     C19073  10.946   7.925   8.973  0.9505 -0.6504 -0.5243
  142MOL0     C19074  11.061   7.974   9.068 -0.7471  0.3358 -0.2336
  142MOL0     C19075  11.195   8.023   8.992  0.0743  0.3457 -0.3231
  142MOL0     C19076  11.285   8.068   9.108  0.1479  0.2160 -0.0105
  142MOL0     C19077  11.420   8.128   9.053  0.2585 -0.7988 -1.1812
  142MOL0     C19078  11.426   8.283   9.058 -0.7586  0.1715 -0.1535
  142MOL0    Cl19079  11.594   8.346   9.034  0.4833  0.1993  0.3687
  142MOL0     C19080  10.430   7.606   9.057  0.0210  0.1740  0.7871
  142MOL0     C19081  10.284   7.608   9.028 -0.6540  0.8321 -0.3503
  142MOL0     O19082  10.015   7.647   9.165 -0.1869 -0.9171  0.0564
  142MOL0     C19083   9.794   7.789   8.926 -0.3495 -0.3938 -0.0071
  142MOL0     C19084   9.659   7.783   8.900 -0.1218  0.6090 -0.0514
  142MOL0     N19085   9.069   8.044   9.085  0.8345  0.7101 -0.3408
  142MOL0     N19086   8.997   8.135   9.027 -0.7541 -0.0436  0.0122
  142MOL0     C19087   8.164   8.142   9.872 -0.4126 -0.7610 -0.0124
  142MOL0     C19088   8.088   8.051   9.950  0.5440 -0.6166  0.3806
  142MOL0     C19089   7.784   7.767  10.099 -0.5322  0.7114  0.1252
  142MOL0     C19090   7.658   7.816  10.119  0.0471 -0.0567  0.3560
  142MOL0     C19091   7.557   7.748  10.194 -0.3699  0.4166  1.0250
  142MOL0     C19092   7.583   7.625  10.256  0.3638 -0.2490  0.2520
  142MOL0     O19093   7.500   7.554  10.328  0.0371  0.0536  0.0980
  142MOL0     C19094   7.396   7.625  10.392  0.4017  0.7519  0.8973
  142MOL0     C19095   7.321   7.517  10.476 -0.7898  0.5890 -0.0675
  142MOL0     C19096   7.206   7.578  10.556 -0.3940 -0.5447  0.1299
  142MOL0     C19097   7.120   7.483  10.632 -0.0314 -0.2491 -0.0857
  142MOL0     C19098   6.997   7.559  10.659 -0.1442  0.0559  0.3706
  142MOL0     C19099   6.895   7.624  10.686 -0.6450  0.1807 -0.3023
  142MOL0     C19100   7.701   7.565  10.230  0.0550 -0.5280  0.0183
  142MOL0     C19101   7.804   7.633  10.151  0.2827 -0.2809 -0.5864
  142MOL0     C19102   7.931   7.556  10.124  0.6199  0.6900 -0.2645
  142MOL0     H19103   7.788   8.167   9.865 -0.4346  1.9427 -0.0989
  142MOL0     H19104   7.926   8.338   9.741  2.8181  1.7119 -0.2689
  142MOL0     H19105   8.082   8.274   9.543 -0.3486 -0.9392  0.7835
  142MOL0     H19106   8.143   8.446   9.566 -0.1910  0.1116  0.5144
  142MOL0     H19107   8.302   8.209   9.491 -2.0222 -0.4075 -0.0810
  142MOL0     H19108   8.368   8.375   9.525 -1.6697  2.8057  0.3421
  142MOL0     H19109   8.259   8.480   9.363 -2.2984  0.5258  1.6293
  142MOL0     H19110   8.143   8.373   9.331  0.5673  0.5430 -0.8356
  142MOL0     H19111   8.279   8.223   9.215  1.8093 -0.1738 -1.6401
  142MOL0     H19112   8.311   8.376   9.149 -0.9542 -3.7205 -2.8793
  142MOL0     H19113   8.516   8.397   9.313 -1.0366 -1.2563  2.0246
  142MOL0     H19114   8.510   8.232   9.343 -1.3205  0.6954  1.2808
  142MOL0     H19115   8.477   8.200   9.077 -1.1118  1.4370 -0.0274
  142MOL0     H19116   8.562   8.362   9.069 -0.0832 -0.9145 -1.3435
  142MOL0     H19117   8.670   8.122   9.205  4.0490 -2.5299 -1.4573
  142MOL0     H19118   8.756   8.278   9.186  0.4774  0.1251 -1.5510
  142MOL0     H19119   8.681   8.080   8.970  2.4205 -1.3482 -1.7882
  142MOL0     H19120   8.756   8.236   8.943 -0.4748  1.4932  0.3857
  142MOL0     H19121   8.788   7.910   9.161  0.0756 -0.6791  0.0332
  142MOL0     H19122   9.140   7.846   9.260 -0.4371 -3.2846  1.3832
  142MOL0     H19123   8.967   7.779   9.259 -0.7554  1.5579  0.6002
  142MOL0     H19124   9.106   7.622   9.160 -2.5615 -1.2737 -1.4269
  142MOL0     H19125   8.988   7.680   9.042 -0.5910  0.8039 -0.0385
  142MOL0     H19126   9.173   7.834   8.949 -1.3984 -0.1931  0.1877
  142MOL0     H19127   9.184   7.663   8.914  1.3298 -1.0520  0.1901
  142MOL0     H19128   9.341   7.608   9.061  2.4001 -0.4555  0.2122
  142MOL0     H19129   9.347   7.769   9.142  0.8407  0.0448  0.0596
  142MOL0     H19130   9.540   7.609   9.148 -2.4068  1.5102 -0.8405
  142MOL0     H19131   9.778   7.594   9.211 -1.2921 -0.0503  0.1221
  142MOL0     H19132  10.229   7.893   8.884 -2.3381 -1.8495 -0.9580
  142MOL0     H19133  10.486   7.921   8.940 -1.2798  0.6997 -0.8282
  142MOL0     H19134  10.707   7.844   8.897  0.4674  1.8332 -0.8437
  142MOL0     H19135  10.672   7.934   9.046  0.5402 -0.9430  2.9503
  142MOL0     H19136  10.863   7.840   9.158  3.4735  0.2819 -0.2939
  142MOL0     H19137  10.886   7.728   9.026 -1.7131 -0.6003  1.2630
  142MOL0     H19138  10.989   7.879   8.884 -0.0800 -0.6256 -1.0528
  142MOL0     H19139  10.882   8.010   8.946  1.3373  0.0598  0.7243
  142MOL0     H19140  11.088   7.896   9.139 -0.7243  0.5790  0.0250
  142MOL0     H19141  11.032   8.059   9.130 -1.1106  0.7128 -0.9098
  142MOL0     H19142  11.182   8.108   8.924 -1.9218 -0.1796 -0.6657
  142MOL0     H19143  11.246   7.933   8.958 -0.9735 -0.4811  0.2391
  142MOL0     H19144  11.240   8.143   9.174  2.2686  1.1237  0.4896
  142MOL0     H19145  11.301   7.978   9.168  0.1536 -0.5545 -1.1284
  142MOL0     H19146  11.446   8.095   8.952  0.6243 -0.9465 -1.0401
  142MOL0     H19147  11.494   8.085   9.122  1.4307  2.9761  0.1793
  142MOL0     H19148  11.366   8.326   8.978 -0.0460 -1.3282 -1.5808
  142MOL0     H19149  11.382   8.314   9.152  0.5359  2.7381 -0.3051
  142MOL0     H19150  10.488   7.520   9.090 -0.5811  0.3099  2.2487
  142MOL0     H19151  10.232   7.520   9.066  1.4026 -0.0113  0.7019
  142MOL0     H19152   9.865   7.846   8.867 -0.5233  0.1602  0.3078
  142MOL0     H19153   9.646   7.820   8.798  0.7648 -2.4368 -1.3900
  142MOL0     H19154   8.272   8.139   9.885 -0.1345 -2.7657 -2.2397
  142MOL0     H19155   8.120   7.975  10.020 -4.1990 -3.3564 -0.0124
  142MOL0     H19156   7.622   7.911  10.081 -2.1630 -0.8806  0.2334
  142MOL0     H19157   7.466   7.804  10.215 -0.7436 -0.4465  1.7788
  142MOL0     H19158   7.319   7.669  10.328 -0.1644  0.0464  1.0861
  142MOL0     H19159   7.434   7.700  10.461 -0.1512  1.7119  0.1883
  142MOL0     H19160   7.386   7.456  10.538 -2.1281 -0.0988  0.6993
  142MOL0     H19161   7.273   7.448  10.406  0.8421 -0.7012  0.0289
  142MOL0     H19162   7.144   7.637  10.488  0.3688 -0.2818 -0.3549
  142MOL0     H19163   7.243   7.649  10.630 -4.8217  1.4282  0.7298
  142MOL0     H19164   7.103   7.386  10.583 -2.5536  0.2241 -0.2857
  142MOL0     H19165   7.168   7.464  10.728  0.0441 -0.5145 -0.1761
  142MOL0     H19166   6.814   7.678  10.729 -1.4533 -1.1388 -0.1121
  142MOL0     H19167   7.717   7.468  10.274  1.4429 -1.5152 -2.4286
  142MOL0     H19168   7.926   7.463  10.181 -2.3731  0.2626 -1.0597
  142MOL0     H19169   7.946   7.527  10.019 -1.3280 -1.8016  0.0473
  142MOL0     H19170   8.011   7.621  10.161 -0.0729  2.1233 -1.1685
  143MOL0     O19171   8.220   7.446   1.921 -0.2719 -0.8326  0.0777
  143MOL0     C19172   8.175   7.342   1.876  0.4422 -0.0163  0.1211
  143MOL0     O19173   8.221   7.221   1.907 -0.1688  0.0447  1.1032
  143MOL0     C19174   8.313   7.199   2.006 -0.0204 -0.2715 -1.2206
  143MOL0     C19175   8.441   7.153   1.975 -0.8870 -0.4696  0.1773
  143MOL0     C19176   8.523   7.122   2.083 -0.0899  0.1133 -0.5020
  143MOL0     C19177   8.481   7.141   2.215 -0.5120 -0.2313  0.0440
  143MOL0     O19178   8.586   7.135   2.303 -0.1897 -0.2011  0.0830
  143MOL0     C19179   8.558   7.066   2.425 -0.6142  0.0224 -0.4770
  143MOL0     C19180   8.687   6.989   2.465  0.2011 -0.2762  0.6472
  143MOL0     C19181   8.664   6.888   2.575  0.2253  0.3711 -0.6286
  143MOL0     C19182   8.598   6.758   2.527 -0.6154 -0.3431  0.3582
  143MOL0     C19183   8.598   6.656   2.645  0.0995 -0.3164  0.3849
  143MOL0     C19184   8.740   6.594   2.670  0.3360  0.1082 -0.0038
  143MOL0     C19185   8.830   6.587   2.554 -0.1159  0.6295 -0.0810
  143MOL0     C19186   8.961   6.516   2.589  0.2435  0.0409  0.1070
  143MOL0     N19187   9.056   6.530   2.475 -0.5411 -0.6375 -0.1540
  143MOL0     C19188   9.163   6.613   2.474 -0.2137  0.3611  0.1395
  143MOL0     C19189   9.208   6.600   2.344 -0.1308 -0.1162 -0.0518
  143MOL0     C19190   9.331   6.666   2.278  0.0746 -0.0486  0.0968
  143MOL0     C19191   9.467   6.597   2.317  1.0731  0.6962  0.7319
  143MOL0     C19192   9.479   6.590   2.467 -0.3895 -0.3940  0.2752
  143MOL0     C19193   9.627   6.585   2.509 -0.0104  0.0206  0.0728
  143MOL0     O19194   9.674   6.450   2.471  0.4536 -0.3077 -0.2969
  143MOL0     C19195   9.816   6.428   2.469 -0.1705 -0.0447 -0.0870
  143MOL0     C19196   9.923   6.517   2.475 -0.3261 -0.0026  0.7330
  143MOL0     C19197  10.060   6.468   2.477  0.8724  0.3051  0.4576
  143MOL0     C19198  10.083   6.331   2.485 -0.3139  0.8329  0.5213
  143MOL0     C19199  10.217   6.266   2.489  0.2001 -0.1259  0.1179
  143MOL0     O19200  10.325   6.352   2.480 -0.0482 -0.2692 -0.0533
  143MOL0     C19201  10.452   6.303   2.482 -0.0119 -0.0430  0.4622
  143MOL0     C19202  10.501   6.177   2.452 -0.4578 -0.6537 -0.3308
  143MOL0     C19203  10.641   6.157   2.466  0.2493  0.9130 -0.1453
  143MOL0     C19204  10.729   6.258   2.499  0.0176 -0.0750  0.7321
  143MOL0     O19205  10.858   6.219   2.507 -0.0643 -1.1984  0.3755
  143MOL0     C19206  10.955   6.301   2.568 -0.7608 -0.2168 -0.4706
  143MOL0     C19207  10.957   6.298   2.724 -0.6277  0.0139 -0.0685
  143MOL0     C19208  10.949   6.158   2.792 -0.1053  0.4645 -0.6726
  143MOL0     C19209  11.034   6.042   2.723  0.2267  0.1352  0.0943
  143MOL0     C19210  11.007   5.909   2.785  0.4599  0.1899 -0.3202
  143MOL0     C19211  11.072   5.866   2.915  0.3294  0.1277 -0.4188
  143MOL0     C19212  11.027   5.725   2.940 -0.3905 -0.1515  0.7206
  143MOL0     C19213  11.082   5.670   3.077  0.0818 -0.1147 -0.8843
  143MOL0    Cl19214  11.016   5.499   3.112 -0.0961 -0.0097 -0.0506
  143MOL0     C19215  10.676   6.381   2.549  0.1324  0.1976  0.3547
  143MOL0     C19216  10.538   6.402   2.532  0.5185 -0.0614 -1.0529
  143MOL0     O19217  10.229   6.144   2.510  0.2213 -0.8137  0.9292
  143MOL0     C19218   9.972   6.245   2.494  0.2519  0.3177 -0.1020
  143MOL0     C19219   9.841   6.291   2.479  1.0307  0.4223 -0.5565
  143MOL0     N19220   9.126   6.506   2.281 -0.3586  0.2644  0.4519
  143MOL0     N19221   9.042   6.464   2.358 -0.7076  0.8638  0.3049
  143MOL0     C19222   8.357   7.204   2.251  0.5520  0.6853  0.3691
  143MOL0     C19223   8.270   7.214   2.140  0.3422 -0.3077  0.2487
  143MOL0     C19224   8.058   7.348   1.784 -0.2199  0.5189  0.0259
  143MOL0     C19225   7.968   7.241   1.810 -0.0521 -0.4701  0.0508
  143MOL0     C19226   7.847   7.237   1.730 -0.1071  0.6855 -0.4580
  143MOL0     C19227   7.827   7.334   1.629 -0.3375  0.3653  0.3696
  143MOL0     O19228   7.707   7.321   1.556  0.1791  0.3653  0.2289
  143MOL0     C19229   7.655   7.438   1.496 -0.5524 -0.9776  0.5357
  143MOL0     C19230   7.510   7.412   1.441  0.2274 -0.8031 -0.1123
  143MOL0     C19231   7.425   7.539   1.425  0.0477  0.2723 -0.2425
  143MOL0     C19232   7.454   7.604   1.286 -0.6769  0.3656 -0.6438
  143MOL0     C19233   7.362   7.710   1.253 -0.0538 -0.1237 -0.1307
  143MOL0     C19234   7.287   7.800   1.214 -0.7061 -0.6613 -1.1249
  143MOL0     C19235   7.915   7.440   1.621  0.2844 -0.2341 -0.0506
  143MOL0     C19236   8.029   7.455   1.695 -0.2034 -1.2565  0.0240
  143MOL0     C19237   8.112   7.582   1.683  0.2741 -0.4928  0.1792
  143MOL0     H19238   8.482   7.148   1.875  1.3451  0.8860  0.9534
  143MOL0     H19239   8.621   7.079   2.061  1.0144  1.3049  1.8187
  143MOL0     H19240   8.530   7.132   2.508 -0.1018 -0.4874  0.1101
  143MOL0     H19241   8.479   6.990   2.419  0.0401 -0.8281  0.9945
  143MOL0     H19242   8.763   7.064   2.488 -1.2348  1.1269  0.9728
  143MOL0     H19243   8.726   6.938   2.376 -0.6481  0.3930 -0.1249
  143MOL0     H19244   8.598   6.923   2.655 -0.9491 -0.8503 -1.0200
  143MOL0     H19245   8.760   6.871   2.625 -1.3681  1.0775  3.0014
  143MOL0     H19246   8.494   6.777   2.498 -1.6323 -3.6732  1.3439
  143MOL0     H19247   8.646   6.722   2.436 -1.3347 -2.4640  0.7572
  143MOL0     H19248   8.560   6.696   2.740  0.0626  0.3047  0.1154
  143MOL0     H19249   8.526   6.577   2.625  0.3926 -0.3925 -0.3776
  143MOL0     H19250   8.788   6.650   2.751  0.0639  1.6162 -0.8460
  143MOL0     H19251   8.732   6.495   2.716 -1.4264 -0.1284 -0.7350
  143MOL0     H19252   8.846   6.691   2.525 -0.9747  1.0839  1.0221
  143MOL0     H19253   8.788   6.535   2.467  0.7793 -1.1413  0.4982
  143MOL0     H19254   8.998   6.559   2.682  0.7532  0.2104 -0.1740
  143MOL0     H19255   8.938   6.410   2.607  0.3967  0.0999  0.6726
  143MOL0     H19256   9.187   6.685   2.552 -2.4699  3.7636 -2.0420
  143MOL0     H19257   9.324   6.652   2.169  1.6695 -0.0392 -0.0350
  143MOL0     H19258   9.341   6.774   2.288  4.0708 -0.0543 -1.7035
  143MOL0     H19259   9.472   6.496   2.275 -2.3460  0.2775  1.0410
  143MOL0     H19260   9.548   6.662   2.283 -1.0149  3.4694  0.6879
  143MOL0     H19261   9.413   6.509   2.500 -0.7383 -0.0607  0.4038
  143MOL0     H19262   9.424   6.675   2.507 -0.4348  1.7332 -3.7746
  143MOL0     H19263   9.629   6.594   2.618  1.3560  0.2262  0.0505
  143MOL0     H19264   9.689   6.658   2.456  0.8862 -1.8098 -1.5505
  143MOL0     H19265   9.905   6.624   2.471  0.6911  0.1479 -0.2639
  143MOL0     H19266  10.141   6.538   2.461 -0.7895  1.6574 -3.1169
  143MOL0     H19267  10.446   6.091   2.415  0.2584 -1.0945 -0.3818
  143MOL0     H19268  10.685   6.059   2.451 -0.5623  0.1113  2.1963
  143MOL0     H19269  11.048   6.264   2.525 -0.0046  2.1600 -1.0406
  143MOL0     H19270  10.949   6.406   2.536  0.5084  0.1708  0.4566
  143MOL0     H19271  11.052   6.344   2.753 -0.4641 -1.0974  1.2436
  143MOL0     H19272  10.880   6.368   2.759 -0.9175  0.1134 -0.8934
  143MOL0     H19273  10.980   6.159   2.897  0.3802  2.8345 -0.7849
  143MOL0     H19274  10.841   6.139   2.793 -0.2004  0.9879  0.5873
  143MOL0     H19275  11.138   6.072   2.733 -0.0146  1.8875 -1.7686
  143MOL0     H19276  11.003   6.037   2.618  1.5748  1.0537 -0.3632
  143MOL0     H19277  11.032   5.831   2.712  0.9522  0.5360 -0.5322
  143MOL0     H19278  10.898   5.907   2.796  0.4790 -0.2347 -0.2299
  143MOL0     H19279  11.181   5.864   2.919  0.3460 -0.8250  4.4832
  143MOL0     H19280  11.035   5.942   2.984 -1.4510 -1.1395  0.0701
  143MOL0     H19281  11.070   5.658   2.864 -0.0447 -0.1611  0.9244
  143MOL0     H19282  10.918   5.724   2.941 -0.5183 -1.0841 -2.4468
  143MOL0     H19283  11.190   5.661   3.094  0.6431  0.8497 -3.4832
  143MOL0     H19284  11.045   5.734   3.158  1.2754  0.5433 -0.8373
  143MOL0     H19285  10.730   6.461   2.598  1.1989  0.1492 -0.6798
  143MOL0     H19286  10.482   6.489   2.565  1.4484 -0.6795  2.6102
  143MOL0     H19287   9.983   6.137   2.503  1.8642  0.4975  0.3749
  143MOL0     H19288   9.765   6.214   2.474  0.9371  0.3705  1.1735
  143MOL0     H19289   8.343   7.217   2.358  3.4439 -0.7162  1.0286
  143MOL0     H19290   8.167   7.249   2.145 -0.3078 -2.1556  0.6629
  143MOL0     H19291   7.994   7.160   1.877  1.0792  0.2841  0.5518
  143MOL0     H19292   7.780   7.151   1.728  1.6523 -0.7852  0.8979
  143MOL0     H19293   7.720   7.460   1.411  1.5805 -1.3832  1.9744
  143MOL0     H19294   7.655   7.522   1.565  0.7425  0.7244 -1.4196
  143MOL0     H19295   7.455   7.346   1.509 -1.0065  0.5659  0.2692
  143MOL0     H19296   7.504   7.363   1.344 -1.3925 -0.4157 -0.2474
  143MOL0     H19297   7.444   7.604   1.511  0.8553 -1.3842  0.8828
  143MOL0     H19298   7.319   7.513   1.426 -0.6620  2.8665  0.3068
  143MOL0     H19299   7.561   7.630   1.281  0.2624 -2.7884  0.4772
  143MOL0     H19300   7.445   7.522   1.214  0.5274 -1.9922  1.7190
  143MOL0     H19301   7.226   7.880   1.178  2.3410  2.2956 -0.1613
  143MOL0     H19302   7.894   7.507   1.538  2.2910  1.0408  0.4021
  143MOL0     H19303   8.146   7.625   1.778 -2.5919  2.0291  0.2139
  143MOL0     H19304   8.196   7.577   1.613 -2.1697 -2.1917 -2.8688
  143MOL0     H19305   8.043   7.664   1.659 -1.1347 -1.0469  2.0860
  144MOL0     O19306   5.585   1.264   2.789 -0.0708  0.1619  0.2929
  144MOL0     C19307   5.523   1.366   2.759  0.1732  0.4660  0.4993
  144MOL0     O19308   5.561   1.494   2.780  0.3485  0.4954 -0.2874
  144MOL0     C19309   5.681   1.521   2.834 -0.1310 -0.3914 -0.2011
  144MOL0     C19310   5.796   1.516   2.756 -0.1811  0.2336 -0.3932
  144MOL0     C19311   5.925   1.523   2.818 -0.3791  0.2983 -0.2740
  144MOL0     C19312   5.936   1.564   2.943 -0.0933 -0.9169 -0.0975
  144MOL0     O19313   6.049   1.577   3.017  0.2540  0.6228  0.2030
  144MOL0     C19314   6.176   1.548   2.956  1.1964  0.3890 -0.5028
  144MOL0     C19315   6.290   1.569   3.063 -0.0611 -0.6685  0.2086
  144MOL0     C19316   6.433   1.549   3.001 -0.0486  0.4790 -0.0025
  144MOL0     C19317   6.531   1.482   3.102 -0.1030 -0.1623  0.5554
  144MOL0     C19318   6.671   1.479   3.047 -0.2085  0.1646 -1.6150
  144MOL0     C19319   6.778   1.416   3.139  0.4899 -1.3858  0.3985
  144MOL0     C19320   6.816   1.500   3.268 -0.3398  0.3202 -0.7474
  144MOL0     C19321   6.880   1.433   3.391 -0.5205  0.0133  0.1223
  144MOL0     N19322   6.984   1.341   3.345 -0.2036 -0.3824 -1.3498
  144MOL0     C19323   6.969   1.210   3.329 -0.0756  0.3788 -0.1706
  144MOL0     C19324   7.087   1.173   3.275  0.7408 -0.0373  0.1639
  144MOL0     C19325   7.103   1.033   3.226 -0.7107  1.5583 -0.0501
  144MOL0     C19326   7.250   0.976   3.242  0.3743  0.3446  0.6149
  144MOL0     C19327   7.284   0.960   3.388 -0.2881  0.6409 -0.0893
  144MOL0     C19328   7.409   0.880   3.407  0.0798  0.1531  0.1539
  144MOL0     O19329   7.519   0.959   3.360  1.0969  0.6528 -0.0482
  144MOL0     C19330   7.636   0.905   3.382 -0.6363  0.7137  0.3438
  144MOL0     C19331   7.742   0.996   3.365  0.5427  0.4127  0.6028
  144MOL0     C19332   7.872   0.962   3.382 -1.3178 -1.1142 -0.0079
  144MOL0     C19333   7.908   0.832   3.422 -0.6518  0.5716 -0.2434
  144MOL0     C19334   8.039   0.798   3.460  0.2321  0.0239  1.0456
  144MOL0     O19335   8.133   0.895   3.416  1.1200  0.0406 -0.2743
  144MOL0     C19336   8.270   0.873   3.396  0.7562 -0.0977 -0.1258
  144MOL0     C19337   8.356   0.795   3.471  0.1995 -0.2116  0.7728
  144MOL0     C19338   8.491   0.776   3.434 -0.2658 -0.5540 -0.2768
  144MOL0     C19339   8.535   0.829   3.314 -0.6452 -0.4061 -0.1807
  144MOL0     O19340   8.673   0.834   3.273 -0.3948  0.1037  0.1128
  144MOL0     C19341   8.753   0.718   3.302 -0.3768  0.4430 -0.5313
  144MOL0     C19342   8.717   0.588   3.223  0.1966 -0.1208  0.7165
  144MOL0     C19343   8.778   0.603   3.083  0.5733  0.4603 -0.5079
  144MOL0     C19344   8.736   0.483   2.998  0.1469 -0.2026  0.6318
  144MOL0     C19345   8.594   0.491   2.948 -1.2149  0.9994  0.4108
  144MOL0     C19346   8.583   0.422   2.814 -0.1908  0.0575 -0.1454
  144MOL0     C19347   8.603   0.274   2.786 -0.5203  0.2646  0.5935
  144MOL0     C19348   8.518   0.205   2.680  0.4589  0.0892  0.6771
  144MOL0    Cl19349   8.362   0.161   2.738  0.3513  0.5981  0.0288
  144MOL0     C19350   8.451   0.901   3.237 -0.3403  0.1071  0.4803
  144MOL0     C19351   8.320   0.932   3.277  0.2821  0.1567  0.0803
  144MOL0     O19352   8.067   0.691   3.504  0.0968 -0.1452  0.3282
  144MOL0     C19353   7.801   0.740   3.446  0.5943 -0.3216 -0.5903
  144MOL0     C19354   7.665   0.774   3.429 -0.4061  0.0302 -0.5228
  144MOL0     N19355   7.167   1.281   3.254 -0.1556 -0.2306  0.0952
  144MOL0     N19356   7.105   1.385   3.297  0.2764 -0.3731 -0.4728
  144MOL0     C19357   5.819   1.576   3.024  0.3848 -0.0822 -0.0188
  144MOL0     C19358   5.692   1.544   2.972 -1.2309  0.9348 -0.1481
  144MOL0     C19359   5.378   1.358   2.724 -0.1775  0.7082  0.5275
  144MOL0     C19360   5.290   1.450   2.777  0.4163 -1.0326 -0.3005
  144MOL0     C19361   5.148   1.435   2.772  0.1011  0.7501  0.2940
  144MOL0     C19362   5.094   1.321   2.699 -0.8314 -0.8578  0.5411
  144MOL0     O19363   4.958   1.285   2.693 -0.3424  0.6699  0.3747
  144MOL0     C19364   4.866   1.385   2.752 -0.4224  0.4700  0.6945
  144MOL0     C19365   4.720   1.349   2.728  0.5617 -0.4331  0.9637
  144MOL0     C19366   4.674   1.335   2.576  0.5592  0.4618 -0.1776
  144MOL0     C19367   4.535   1.396   2.565  0.7126  0.0728  1.1505
  144MOL0     C19368   4.440   1.325   2.648 -0.1746 -0.1788  0.0940
  144MOL0     C19369   4.365   1.266   2.721 -0.0523 -0.6222  0.0846
  144MOL0     C19370   5.181   1.238   2.628 -0.1724  0.2628  1.0263
  144MOL0     C19371   5.321   1.252   2.647 -0.1350  0.0517 -0.1376
  144MOL0     C19372   5.407   1.139   2.576 -0.5997 -0.6022  0.0179
  144MOL0     H19373   5.773   1.493   2.652 -3.0893  1.2292 -0.0652
  144MOL0     H19374   6.012   1.507   2.755 -0.3937 -2.2911  0.2463
  144MOL0     H19375   6.177   1.448   2.912 -0.4220 -0.4192  1.1515
  144MOL0     H19376   6.188   1.618   2.873 -1.8867  0.7752 -0.7294
  144MOL0     H19377   6.276   1.497   3.144 -0.7062 -1.7950 -0.8722
  144MOL0     H19378   6.279   1.667   3.109  0.5672 -0.4221 -0.1468
  144MOL0     H19379   6.466   1.648   2.968 -0.5333  0.8021  0.4565
  144MOL0     H19380   6.414   1.482   2.917 -1.0958 -0.3829  0.8842
  144MOL0     H19381   6.530   1.518   3.205  0.1550 -3.3986  1.8279
  144MOL0     H19382   6.502   1.378   3.120 -1.4629  0.6188  3.2666
  144MOL0     H19383   6.666   1.415   2.958 -0.9044 -1.6283 -0.3414
  144MOL0     H19384   6.689   1.583   3.018 -2.3101  0.7796 -0.8765
  144MOL0     H19385   6.732   1.322   3.171 -1.2919 -0.4195  0.8028
  144MOL0     H19386   6.870   1.400   3.082  0.4429  0.0531 -0.1218
  144MOL0     H19387   6.722   1.539   3.309 -0.2222 -0.7778  0.6588
  144MOL0     H19388   6.878   1.583   3.234 -0.6564  1.4452  1.2872
  144MOL0     H19389   6.902   1.519   3.454 -4.7748  1.8211 -0.5324
  144MOL0     H19390   6.802   1.383   3.448 -1.2831 -0.9030 -1.6450
  144MOL0     H19391   6.889   1.138   3.342 -1.2057  2.0109  2.9776
  144MOL0     H19392   7.042   0.957   3.276  2.6636 -2.1983 -1.0950
  144MOL0     H19393   7.084   1.030   3.118  0.3663 -1.1259 -0.2353
  144MOL0     H19394   7.259   0.883   3.185  1.9392 -0.5321  2.1576
  144MOL0     H19395   7.324   1.039   3.193 -0.7009  1.4225  0.3374
  144MOL0     H19396   7.200   0.915   3.441 -0.5452  0.4450 -0.6515
  144MOL0     H19397   7.301   1.060   3.429 -2.8534  2.1379 -2.3411
  144MOL0     H19398   7.401   0.782   3.358  0.2008  0.4559 -0.4872
  144MOL0     H19399   7.416   0.863   3.514  1.1729  0.2845  0.1087
  144MOL0     H19400   7.727   1.097   3.330 -2.1142 -0.1069  0.0454
  144MOL0     H19401   7.950   1.036   3.368 -1.0524 -1.3711  0.0993
  144MOL0     H19402   8.322   0.743   3.560  1.1916 -1.5830  0.3705
  144MOL0     H19403   8.550   0.722   3.507  2.2738  1.9573 -0.3424
  144MOL0     H19404   8.859   0.737   3.283 -0.3285 -0.7542 -1.6160
  144MOL0     H19405   8.756   0.695   3.409 -0.1746 -2.8777 -1.1357
  144MOL0     H19406   8.773   0.499   3.254  0.9991 -0.0891 -0.5800
  144MOL0     H19407   8.611   0.563   3.230  0.0940  0.0395 -0.1651
  144MOL0     H19408   8.737   0.695   3.041 -0.8994  3.3715  6.0118
  144MOL0     H19409   8.886   0.618   3.098  0.2489  1.5145  1.1491
  144MOL0     H19410   8.747   0.385   3.046  1.8387 -1.1021 -1.4140
  144MOL0     H19411   8.802   0.476   2.911 -1.7950 -3.1657 -0.7618
  144MOL0     H19412   8.567   0.594   2.921  0.8344  1.3945 -0.4038
  144MOL0     H19413   8.524   0.450   3.019 -0.7163  0.1883  0.4426
  144MOL0     H19414   8.486   0.447   2.769  1.7692  0.1051 -4.9412
  144MOL0     H19415   8.653   0.476   2.750  0.2112 -2.1820 -1.7314
  144MOL0     H19416   8.611   0.216   2.878  2.0185 -0.8827 -0.2506
  144MOL0     H19417   8.705   0.271   2.746 -1.5476 -0.1341 -2.2010
  144MOL0     H19418   8.515   0.267   2.590  1.6370 -0.0019  0.5637
  144MOL0     H19419   8.564   0.109   2.655 -0.1157 -0.4216  1.5210
  144MOL0     H19420   8.496   0.947   3.150  1.1383  0.2599  1.2973
  144MOL0     H19421   8.258   1.001   3.221  1.7678  0.9241 -0.6833
  144MOL0     H19422   7.828   0.645   3.490  1.9326 -0.3298 -1.3741
  144MOL0     H19423   7.594   0.691   3.434 -1.3670  0.9059  0.7415
  144MOL0     H19424   5.835   1.593   3.129 -1.4974 -1.8010  0.6221
  144MOL0     H19425   5.601   1.532   3.030 -0.5659 -0.4213  0.6545
  144MOL0     H19426   5.334   1.530   2.836 -0.8019 -0.0063 -0.7425
  144MOL0     H19427   5.083   1.510   2.816 -1.9861 -0.4900 -0.5167
  144MOL0     H19428   4.896   1.481   2.710  0.1635  0.2346  0.5564
  144MOL0     H19429   4.878   1.395   2.860 -0.2942  0.2867  0.6992
  144MOL0     H19430   4.669   1.435   2.773  1.1184  0.4013  0.0475
  144MOL0     H19431   4.698   1.258   2.786 -0.4952  0.5525  2.1892
  144MOL0     H19432   4.672   1.227   2.560 -1.1308  0.5929 -1.0312
  144MOL0     H19433   4.738   1.379   2.500  2.1430 -2.9215 -0.9999
  144MOL0     H19434   4.533   1.503   2.586  0.7085  0.0467  1.2897
  144MOL0     H19435   4.498   1.375   2.464 -1.7187 -4.6847  2.7223
  144MOL0     H19436   4.307   1.194   2.776 -0.8453 -0.2400 -0.2474
  144MOL0     H19437   5.138   1.160   2.566 -0.8295  2.7817 -1.9617
  144MOL0     H19438   5.479   1.095   2.646  0.9384  0.7588 -0.6769
  144MOL0     H19439   5.349   1.053   2.540 -1.9951  0.0669  0.5852
  144MOL0     H19440   5.466   1.179   2.494  0.5279 -2.1126  0.0524
  145MOL0     O19441   0.356  10.656   9.632  0.0063  0.0694 -0.8506
  145MOL0     C19442   0.348  10.668   9.511 -0.4878  0.5951 -0.1811
  145MOL0     O19443   0.454  10.685   9.428 -0.2832 -0.1567  0.3980
  145MOL0     C19444   0.576  10.660   9.483  0.4013  0.5572 -0.6391
  145MOL0     C19445   0.647  10.550   9.441  0.7619  0.0303  0.6458
  145MOL0     C19446   0.777  10.532   9.486 -0.1186  0.1799 -0.0444
  145MOL0     C19447   0.844  10.620   9.572 -0.2110 -0.1131  0.1324
  145MOL0     O19448   0.964  10.591   9.637 -0.3695 -0.1570  0.6755
  145MOL0     C19449   1.054  10.476   9.603  0.0268  0.6297  0.4490
  145MOL0     C19450   1.201  10.525   9.624 -0.7691 -0.7369 -0.5046
  145MOL0     C19451   1.306  10.421   9.602 -0.1432  0.0425  0.5870
  145MOL0     C19452   1.449  10.487   9.590  0.1816 -0.2797  0.6091
  145MOL0     C19453   1.545  10.383   9.525 -0.5997  0.2411 -0.5761
  145MOL0     C19454   1.672  10.440   9.465 -0.6546  0.4386  0.1800
  145MOL0     C19455   1.766  10.497   9.573  0.3052 -0.0992 -0.2134
  145MOL0     C19456   1.816  10.401   9.682 -0.6998 -0.3405  0.3886
  145MOL0     N19457   1.890  10.280   9.629 -0.1789  0.4712 -0.2839
  145MOL0     C19458   1.867  10.145   9.653 -0.1503 -0.1065  1.6137
  145MOL0     C19459   1.977  10.079   9.594  0.0942 -0.7776 -0.4506
  145MOL0     C19460   2.031   9.950   9.633  0.4294  0.1823 -0.1137
  145MOL0     C19461   2.188   9.932   9.615  0.4858  1.5509  0.3475
  145MOL0     C19462   2.232   9.783   9.599 -0.1775 -0.1640  0.0068
  145MOL0     C19463   2.382   9.767   9.559  0.1291  0.2578 -0.0057
  145MOL0     O19464   2.441   9.672   9.647  0.7513  0.3927  0.4410
  145MOL0     C19465   2.576   9.645   9.638  0.1880 -0.3314 -0.2862
  145MOL0     C19466   2.617   9.524   9.699 -0.3209 -0.6084 -0.4974
  145MOL0     C19467   2.753   9.483   9.708  0.3639 -0.0254  0.0124
  145MOL0     C19468   2.851   9.563   9.654  0.1241 -0.8237 -0.0404
  145MOL0     C19469   2.990   9.535   9.670  0.0719  0.6034  0.6583
  145MOL0     O19470   3.078   9.621   9.603 -0.2399  0.0658  0.1145
  145MOL0     C19471   3.215   9.598   9.605  0.0369 -0.1162  0.5325
  145MOL0     C19472   3.286   9.624   9.485  0.6081  0.0689  0.4887
  145MOL0     C19473   3.429   9.637   9.490  0.1814 -0.1275  0.6187
  145MOL0     C19474   3.492   9.603   9.607 -0.4512 -0.3924  0.0441
  145MOL0     O19475   3.628   9.591   9.602  0.2778 -0.2567  0.2095
  145MOL0     C19476   3.700   9.545   9.717 -0.3883 -0.4767  0.6405
  145MOL0     C19477   3.844   9.530   9.666  1.1585 -0.5279 -0.3885
  145MOL0     C19478   3.846   9.404   9.580  0.7014 -0.1443 -0.8903
  145MOL0     C19479   3.971   9.416   9.495  0.3021  0.1124 -0.0445
  145MOL0     C19480   4.097   9.396   9.575 -0.1615  0.3548 -0.4412
  145MOL0     C19481   4.214   9.354   9.474  0.0070 -0.2616  0.4828
  145MOL0     C19482   4.345   9.330   9.541  0.1481 -0.7368 -1.1341
  145MOL0     C19483   4.451   9.265   9.447  0.9250 -0.2442 -1.1795
  145MOL0    Cl19484   4.587   9.218   9.561  0.0255  0.3120 -0.1859
  145MOL0     C19485   3.419   9.578   9.728  0.4744  0.2752 -0.1578
  145MOL0     C19486   3.281   9.576   9.726 -0.3962  0.0428 -0.0399
  145MOL0     O19487   3.024   9.447   9.747 -0.0807 -0.0861  1.2270
  145MOL0     C19488   2.810   9.679   9.584  0.5980 -0.0463 -0.2250
  145MOL0     C19489   2.674   9.723   9.573  0.0741 -0.1406 -0.4829
  145MOL0     N19490   2.059  10.178   9.543 -0.1248 -0.6400  0.3876
  145MOL0     N19491   2.009  10.293   9.565  0.4791  0.4059  0.3617
  145MOL0     C19492   0.776  10.743   9.600 -0.4985 -0.4820 -0.9402
  145MOL0     C19493   0.644  10.757   9.564  0.6066 -1.3601  0.2355
  145MOL0     C19494   0.215  10.648   9.455  0.4721  0.0433  0.4907
  145MOL0     C19495   0.198  10.660   9.316 -0.2007 -0.5104 -0.2170
  145MOL0     C19496   0.080  10.657   9.247  0.5903  0.9636  0.8347
  145MOL0     C19497  -0.042  10.624   9.319  0.3211 -0.4545  0.7059
  145MOL0     O19498  -0.168  10.616   9.265  0.5523 -0.3602 -0.4559
  145MOL0     C19499  -0.187  10.595   9.124  0.5758 -0.1634 -0.2187
  145MOL0     C19500  -0.328  10.624   9.078  0.4017 -0.4488 -0.1123
  145MOL0     C19501  -0.411  10.501   9.117  0.1359 -0.2166  1.4539
  145MOL0     C19502  -0.558  10.514   9.068  0.0636  0.4844  1.0140
  145MOL0     C19503  -0.662  10.501   9.175 -0.0421  1.3438 -0.0755
  145MOL0     C19504  -0.743  10.487   9.270 -0.0682 -0.5202 -0.4337
  145MOL0     C19505  -0.034  10.617   9.454 -1.0642 -0.6407 -0.1530
  145MOL0     C19506   0.091  10.628   9.528  0.5056 -0.0106  0.3679
  145MOL0     C19507   0.085  10.603   9.680 -0.9178  0.3652 -0.5593
  145MOL0     H19508   0.603  10.493   9.361 -1.2218  1.6047  0.5385
  145MOL0     H19509   0.837  10.449   9.451 -0.2785 -0.4700  1.1675
  145MOL0     H19510   1.027  10.393   9.669  1.8862  0.5416  1.1337
  145MOL0     H19511   1.052  10.441   9.499  2.5493 -1.8250  1.1247
  145MOL0     H19512   1.220  10.577   9.718 -0.9941  0.7077 -1.2282
  145MOL0     H19513   1.232  10.598   9.548 -1.1127 -1.6273 -1.5186
  145MOL0     H19514   1.278  10.366   9.512 -1.0676 -0.5360  1.2081
  145MOL0     H19515   1.300  10.339   9.673  1.6668 -1.1116 -0.5262
  145MOL0     H19516   1.449  10.576   9.526  1.0625 -0.5748  0.1847
  145MOL0     H19517   1.486  10.510   9.690 -0.9924 -2.2160  1.5306
  145MOL0     H19518   1.567  10.297   9.589  0.4708 -0.0112 -1.2470
  145MOL0     H19519   1.495  10.343   9.437  1.3055  1.9802 -2.5556
  145MOL0     H19520   1.729  10.363   9.413  0.2546 -0.1873  1.9936
  145MOL0     H19521   1.644  10.522   9.399  0.9444  0.7093 -0.2012
  145MOL0     H19522   1.718  10.585   9.617  0.2814  0.7129 -1.7888
  145MOL0     H19523   1.846  10.535   9.507  0.1594 -0.1630 -0.4266
  145MOL0     H19524   1.861  10.466   9.758 -2.0858  0.4027  0.5884
  145MOL0     H19525   1.728  10.360   9.733  0.8559 -2.9806  1.1904
  145MOL0     H19526   1.794  10.095   9.716 -1.2523 -0.0388  0.4383
  145MOL0     H19527   2.018   9.928   9.739  0.2865 -0.6845 -0.3046
  145MOL0     H19528   1.983   9.872   9.573 -0.1068  1.9716 -2.1272
  145MOL0     H19529   2.223   9.981   9.524  1.0283  3.4204  1.4945
  145MOL0     H19530   2.245   9.980   9.696  1.9415  0.3252  0.1020
  145MOL0     H19531   2.171   9.734   9.522 -0.8781  1.3146 -0.4090
  145MOL0     H19532   2.214   9.735   9.696 -1.4959 -0.8818 -0.5603
  145MOL0     H19533   2.429   9.865   9.571 -1.6332  1.1721 -0.2825
  145MOL0     H19534   2.389   9.727   9.458  0.0443 -1.6679  0.7054
  145MOL0     H19535   2.536   9.465   9.742 -1.3090 -0.9693 -2.7187
  145MOL0     H19536   2.782   9.398   9.770  0.2787 -0.3891 -0.4383
  145MOL0     H19537   3.228   9.631   9.393  2.7550 -1.0887 -1.0391
  145MOL0     H19538   3.489   9.648   9.401  0.3659 -0.2874  0.7215
  145MOL0     H19539   3.697   9.626   9.790  2.3597 -0.5817  0.9803
  145MOL0     H19540   3.660   9.454   9.761 -2.5055 -0.3067 -0.7775
  145MOL0     H19541   3.887   9.618   9.618  2.2049 -0.8489 -0.0523
  145MOL0     H19542   3.897   9.522   9.761 -0.5270 -2.2787  0.4889
  145MOL0     H19543   3.838   9.309   9.632  2.3682 -0.6035 -1.4390
  145MOL0     H19544   3.760   9.405   9.511 -1.0617 -1.3931  1.1642
  145MOL0     H19545   3.956   9.510   9.442 -0.6443  0.9655  1.6304
  145MOL0     H19546   3.964   9.340   9.417  0.4542  1.0471 -0.9992
  145MOL0     H19547   4.070   9.319   9.648 -2.2361  2.2814  0.9506
  145MOL0     H19548   4.123   9.485   9.634 -0.3254 -0.7135  1.3156
  145MOL0     H19549   4.184   9.276   9.403  2.5574  0.0183 -1.0131
  145MOL0     H19550   4.234   9.440   9.410  2.1683 -0.5188  0.7441
  145MOL0     H19551   4.333   9.258   9.623  1.5209  1.8945  1.5945
  145MOL0     H19552   4.388   9.422   9.580  0.8914 -1.2216 -0.7891
  145MOL0     H19553   4.408   9.183   9.389 -0.9912 -2.5475  3.0307
  145MOL0     H19554   4.485   9.338   9.373 -1.8944  2.0134 -0.4151
  145MOL0     H19555   3.474   9.555   9.819  0.8758 -0.0851 -0.4822
  145MOL0     H19556   3.231   9.581   9.822 -2.7386  1.7515 -1.2546
  145MOL0     H19557   2.874   9.757   9.543 -0.0911  0.3342 -0.6056
  145MOL0     H19558   2.645   9.817   9.526 -0.0771 -0.6117 -1.3520
  145MOL0     H19559   0.816  10.824   9.660  1.0087  1.1247 -3.8729
  145MOL0     H19560   0.600  10.854   9.585  1.3577 -1.4078  2.2088
  145MOL0     H19561   0.284  10.688   9.257  1.5474  1.2027  2.8639
  145MOL0     H19562   0.084  10.673   9.140 -2.6448 -0.6945  0.3390
  145MOL0     H19563  -0.158  10.491   9.110  0.5455 -0.8677  3.7783
  145MOL0     H19564  -0.123  10.663   9.066  0.2144 -0.3512 -0.8394
  145MOL0     H19565  -0.334  10.641   8.970 -0.8184  2.3421  0.3175
  145MOL0     H19566  -0.369  10.715   9.123  1.7714  1.2354 -2.0476
  145MOL0     H19567  -0.415  10.487   9.225 -2.0960 -2.2540  1.1764
  145MOL0     H19568  -0.366  10.408   9.082  0.5297  0.5281 -0.1150
  145MOL0     H19569  -0.581  10.617   9.038 -1.1928  0.2054  0.9668
  145MOL0     H19570  -0.569  10.448   8.982  0.1876  1.7597 -0.0120
  145MOL0     H19571  -0.816  10.464   9.344 -1.2711 -0.2250 -1.5019
  145MOL0     H19572  -0.124  10.606   9.514  0.0923 -0.4927  1.6977
  145MOL0     H19573   0.135  10.508   9.701  0.9118  1.3437 -0.3183
  145MOL0     H19574   0.142  10.685   9.724 -0.7858  1.5979 -2.8766
  145MOL0     H19575  -0.015  10.603   9.725 -0.2962 -2.5938  1.1017
  146MOL0     O19576   8.658   9.414   3.400  0.5699  0.1122 -0.0193
  146MOL0     C19577   8.608   9.317   3.448 -0.2312 -0.0555  1.0244
  146MOL0     O19578   8.681   9.203   3.482  0.0372  0.1584  0.5780
  146MOL0     C19579   8.817   9.204   3.469  0.0988  0.5969  0.0175
  146MOL0     C19580   8.892   9.242   3.351 -0.1573 -1.0790 -0.5058
  146MOL0     C19581   9.031   9.231   3.341  0.3788  0.1331 -0.5636
  146MOL0     C19582   9.098   9.164   3.451 -0.6214 -0.2578 -0.2741
  146MOL0     O19583   9.230   9.148   3.444  0.5009 -0.1954  0.5235
  146MOL0     C19584   9.283   9.081   3.333 -0.2029  0.3061  0.1853
  146MOL0     C19585   9.434   9.062   3.345  0.0683 -0.4307  0.8164
  146MOL0     C19586   9.503   9.200   3.358 -0.7297  0.1343  0.5214
  146MOL0     C19587   9.664   9.184   3.321 -0.2987 -0.5243  0.5632
  146MOL0     C19588   9.727   9.326   3.341 -0.5858 -0.4086  0.6541
  146MOL0     C19589   9.878   9.312   3.324 -0.0501 -0.2799  0.6847
  146MOL0     C19590   9.953   9.226   3.412 -0.8886  0.0749 -0.3478
  146MOL0     C19591   9.949   9.273   3.558  0.0333  0.6316 -0.1409
  146MOL0     N19592  10.061   9.216   3.649 -0.3782 -0.0293  0.2619
  146MOL0     C19593  10.075   9.088   3.689 -0.3692 -0.0844  0.1241
  146MOL0     C19594  10.189   9.092   3.764  0.2822  0.2241 -0.5841
  146MOL0     C19595  10.259   8.975   3.830 -0.0589  1.0625 -0.4725
  146MOL0     C19596  10.416   8.962   3.795 -0.4840 -0.4953 -0.9193
  146MOL0     C19597  10.473   8.823   3.830 -0.7329  0.5705 -0.1367
  146MOL0     C19598  10.617   8.819   3.800  0.3137  0.4859  0.2820
  146MOL0     O19599  10.691   8.904   3.891  0.4925  0.0143 -0.3923
  146MOL0     C19600  10.827   8.906   3.864 -1.0038  0.3588 -0.4940
  146MOL0     C19601  10.893   9.011   3.932 -0.6732 -0.0133  0.4589
  146MOL0     C19602  11.029   9.032   3.919 -0.6792 -0.4900  0.0867
  146MOL0     C19603  11.104   8.959   3.824 -0.3905 -0.6187 -0.0684
  146MOL0     C19604  11.246   9.000   3.794 -0.5293 -0.1356  0.4596
  146MOL0     O19605  11.303   9.093   3.883 -1.1365 -0.8927 -0.1869
  146MOL0     C19606  11.425   9.143   3.855 -0.0333  0.0993 -0.3169
  146MOL0     C19607  11.541   9.085   3.904  0.9940  0.2352 -0.3338
  146MOL0     C19608  11.660   9.136   3.858 -0.3117 -0.2882  1.3597
  146MOL0     C19609  11.667   9.258   3.784  0.6518  0.7079 -0.6728
  146MOL0     O19610  11.789   9.305   3.750  0.1774 -0.3281 -0.3905
  146MOL0     C19611  11.820   9.428   3.818  0.0575  0.0249  0.1158
  146MOL0     C19612  11.873   9.413   3.960 -0.1910 -0.0988  0.7388
  146MOL0     C19613  12.008   9.337   3.974  0.9063 -0.7280 -0.0109
  146MOL0     C19614  12.058   9.330   4.116  0.4058 -0.2972  0.3796
  146MOL0     C19615  12.119   9.462   4.163  1.0383 -1.0444 -0.2506
  146MOL0     C19616  12.223   9.439   4.272  0.4512  0.0695  1.0772
  146MOL0     C19617  12.264   9.559   4.358 -0.8882  0.1533 -0.5479
  146MOL0     C19618  12.351   9.498   4.469  0.0265  0.2301 -0.4858
  146MOL0    Cl19619  12.505   9.433   4.389  0.2558 -0.2232 -0.4924
  146MOL0     C19620  11.552   9.314   3.744  0.4770  0.9280 -0.3006
  146MOL0     C19621  11.428   9.251   3.772 -0.1010  0.0983  0.1961
  146MOL0     O19622  11.302   8.964   3.695  1.0570 -0.2614 -0.1858
  146MOL0     C19623  11.033   8.858   3.756 -0.1666  0.2944 -0.0959
  146MOL0     C19624  10.901   8.827   3.779 -0.7252  0.1094  0.2009
  146MOL0     N19625  10.231   9.222   3.771 -0.2534 -0.1834 -0.2062
  146MOL0     N19626  10.160   9.294   3.700  0.6680 -0.1689 -0.4180
  146MOL0     C19627   9.026   9.131   3.566 -0.7334 -0.6443 -0.4113
  146MOL0     C19628   8.890   9.144   3.573 -0.0943  0.1782  0.0164
  146MOL0     C19629   8.464   9.331   3.489 -0.0369  0.1756  0.1153
  146MOL0     C19630   8.383   9.416   3.417 -0.5270  0.1989 -0.3193
  146MOL0     C19631   8.244   9.423   3.429  0.8168  0.0828 -0.5566
  146MOL0     C19632   8.184   9.359   3.532  0.5451 -0.5305 -0.0007
  146MOL0     O19633   8.049   9.358   3.541  0.4500 -0.4230 -0.2122
  146MOL0     C19634   7.983   9.250   3.492 -0.1270  0.0940  0.4946
  146MOL0     C19635   7.900   9.302   3.374 -0.5284 -0.2750  0.8614
  146MOL0     C19636   7.824   9.180   3.313 -1.0726 -0.5375 -0.3480
  146MOL0     C19637   7.747   9.220   3.183 -0.4120 -0.0851  0.2767
  146MOL0     C19638   7.641   9.121   3.154 -0.3648 -0.2858  0.7572
  146MOL0     C19639   7.558   9.035   3.146  1.0690  0.3654 -0.0211
  146MOL0     C19640   8.261   9.275   3.607 -0.2450 -0.3244  0.1764
  146MOL0     C19641   8.397   9.253   3.590  0.4034 -1.1434 -0.1907
  146MOL0     C19642   8.463   9.158   3.685  0.0553 -0.5506 -0.1684
  146MOL0     H19643   8.843   9.282   3.262 -1.3017  0.5819  0.8187
  146MOL0     H19644   9.087   9.254   3.251  2.5020  0.1599  0.6944
  146MOL0     H19645   9.252   8.976   3.324  1.8957 -0.5735  2.1390
  146MOL0     H19646   9.249   9.135   3.244  1.0682 -0.9811 -1.1337
  146MOL0     H19647   9.460   8.999   3.260 -2.5951  0.6384 -0.9151
  146MOL0     H19648   9.454   9.007   3.438 -1.2001 -1.1330  0.6856
  146MOL0     H19649   9.500   9.223   3.465 -0.0156 -1.8126  1.0025
  146MOL0     H19650   9.452   9.279   3.302  0.2030  1.0241  0.9020
  146MOL0     H19651   9.695   9.106   3.392  1.3237  0.4884  1.0224
  146MOL0     H19652   9.673   9.161   3.215  0.3994  2.4152 -0.0853
  146MOL0     H19653   9.686   9.398   3.270  2.4640  0.1015 -0.7514
  146MOL0     H19654   9.712   9.362   3.444  1.6992 -3.5618  2.2629
  146MOL0     H19655   9.889   9.277   3.220  0.9298  2.0686 -0.0731
  146MOL0     H19656   9.920   9.413   3.315 -0.9879  0.3441  2.7552
  146MOL0     H19657  10.056   9.224   3.374 -0.8384 -4.3794 -0.4963
  146MOL0     H19658   9.923   9.121   3.410  0.7859 -0.4970  1.1783
  146MOL0     H19659   9.950   9.382   3.551 -0.5458  0.7810  1.5785
  146MOL0     H19660   9.853   9.234   3.593  0.4510 -1.1903 -0.9342
  146MOL0     H19661  10.009   9.005   3.665 -0.5779  0.5515 -1.6413
  146MOL0     H19662  10.234   8.983   3.936 -0.9855  0.2015 -0.6167
  146MOL0     H19663  10.216   8.880   3.796  2.9365 -0.4161 -0.4598
  146MOL0     H19664  10.439   8.979   3.690  0.7268 -1.0490 -0.7588
  146MOL0     H19665  10.479   9.031   3.853  0.9407  0.9812 -4.0179
  146MOL0     H19666  10.419   8.748   3.772  1.3615 -2.1842  1.2332
  146MOL0     H19667  10.455   8.800   3.935  3.8807 -1.1764  0.5199
  146MOL0     H19668  10.631   8.866   3.702 -1.2105  0.5801  0.0824
  146MOL0     H19669  10.660   8.719   3.795 -1.3929 -0.3501  1.5076
  146MOL0     H19670  10.824   9.082   3.978  1.8395  0.9855  3.0529
  146MOL0     H19671  11.067   9.101   3.993 -0.5272  0.1450 -0.5725
  146MOL0     H19672  11.543   8.995   3.964 -1.1528 -0.2836 -0.9689
  146MOL0     H19673  11.749   9.076   3.875  0.5382 -0.3663 -2.4219
  146MOL0     H19674  11.899   9.468   3.754 -1.5229 -0.2174 -2.1247
  146MOL0     H19675  11.744   9.507   3.820  2.9704  3.0702 -0.7018
  146MOL0     H19676  11.889   9.513   4.003  2.7921 -0.4691  0.6839
  146MOL0     H19677  11.792   9.365   4.015  0.0905 -0.0336  1.2247
  146MOL0     H19678  11.995   9.237   3.931 -1.0244 -0.7626  0.5725
  146MOL0     H19679  12.084   9.380   3.907  1.8179 -0.5516  1.1057
  146MOL0     H19680  12.141   9.258   4.113  0.3861 -0.3009 -1.1397
  146MOL0     H19681  11.975   9.294   4.177 -0.4203 -3.3985 -2.3079
  146MOL0     H19682  12.034   9.512   4.210  0.2920 -1.1303 -1.4805
  146MOL0     H19683  12.166   9.520   4.083 -0.0296  1.2586  0.6957
  146MOL0     H19684  12.177   9.364   4.336 -2.5480  0.0642 -0.8891
  146MOL0     H19685  12.306   9.400   4.212 -0.5617  2.6606 -2.3311
  146MOL0     H19686  12.176   9.610   4.399  0.5534  1.0613  1.6399
  146MOL0     H19687  12.320   9.635   4.302  3.4376 -0.2505  2.6729
  146MOL0     H19688  12.369   9.573   4.547  1.1736  1.8685 -2.2232
  146MOL0     H19689  12.297   9.416   4.518  2.0405  0.9592  3.4179
  146MOL0     H19690  11.536   9.405   3.686 -1.8073 -0.4679 -2.0346
  146MOL0     H19691  11.336   9.289   3.730  2.2475  1.3622 -4.5497
  146MOL0     H19692  11.086   8.800   3.681  0.0011  2.3431 -1.6493
  146MOL0     H19693  10.865   8.739   3.728 -3.2998 -0.1123  2.1796
  146MOL0     H19694   9.065   9.070   3.647 -0.7111  1.4498  1.2546
  146MOL0     H19695   8.835   9.099   3.655  0.6015  1.2515  1.0824
  146MOL0     H19696   8.427   9.481   3.342  0.7053  1.3319  1.3230
  146MOL0     H19697   8.179   9.478   3.361 -1.2739 -0.7816  0.6547
  146MOL0     H19698   7.922   9.211   3.574  1.9751 -3.1675  0.6902
  146MOL0     H19699   8.049   9.169   3.459  1.1840  0.8288  1.2534
  146MOL0     H19700   7.974   9.343   3.304 -1.4695  1.5587  0.8823
  146MOL0     H19701   7.833   9.384   3.402 -0.5553 -0.2119  0.6217
  146MOL0     H19702   7.760   9.142   3.394  1.6338 -2.4259  1.0790
  146MOL0     H19703   7.900   9.102   3.302 -2.0002 -1.3705 -0.9502
  146MOL0     H19704   7.700   9.317   3.197  1.1057  0.4436  2.0732
  146MOL0     H19705   7.822   9.224   3.104  0.5407 -2.4597  0.9415
  146MOL0     H19706   7.480   8.962   3.143 -0.8450  2.2920  0.1907
  146MOL0     H19707   8.212   9.225   3.690 -1.6518 -2.2245 -1.6736
  146MOL0     H19708   8.395   9.109   3.757  1.2823 -0.6030  0.9970
  146MOL0     H19709   8.508   9.082   3.621 -0.6432 -0.0836 -1.2365
  146MOL0     H19710   8.547   9.197   3.743 -0.8071 -2.0554  2.2605
  147MOL0     O19711   7.891   1.600   0.862 -0.1454 -0.4970 -0.1085
  147MOL0     C19712   7.876   1.575   0.746  0.4812  0.4531  0.4459
  147MOL0     O19713   7.934   1.468   0.677 -0.8460 -0.5847  0.3795
  147MOL0     C19714   8.031   1.385   0.731 -0.6750  0.0232 -0.2779
  147MOL0     C19715   8.066   1.283   0.642  0.0315 -0.4232  0.8553
  147MOL0     C19716   8.166   1.193   0.661 -0.3883 -0.1269 -0.4922
  147MOL0     C19717   8.230   1.193   0.786  0.8634  0.0569 -0.1544
  147MOL0     O19718   8.322   1.096   0.792 -0.0370 -0.0228  0.0526
  147MOL0     C19719   8.343   1.016   0.911  0.1558  0.1354  0.7008
  147MOL0     C19720   8.459   1.059   1.000 -0.2578 -0.2803  0.3427
  147MOL0     C19721   8.588   1.004   0.937 -0.4609  0.2065  0.4389
  147MOL0     C19722   8.700   1.069   1.011 -0.3420 -0.7685 -0.0547
  147MOL0     C19723   8.828   1.030   0.931  1.0190 -0.1186 -0.5441
  147MOL0     C19724   8.944   1.111   0.984  0.0685  0.6195  0.0372
  147MOL0     C19725   9.070   1.047   0.925  0.1494  0.8372 -0.6893
  147MOL0     C19726   9.199   1.121   0.960  0.3052 -0.2703 -0.3417
  147MOL0     N19727   9.324   1.073   0.900 -0.5424 -0.1397  0.0386
  147MOL0     C19728   9.362   1.090   0.774  0.4313 -0.1245  0.4186
  147MOL0     C19729   9.478   1.018   0.756 -0.4916  0.1483  0.1882
  147MOL0     C19730   9.551   1.004   0.625  0.0152 -0.1809  0.5643
  147MOL0     C19731   9.458   1.005   0.500 -0.6516 -0.4086 -0.1028
  147MOL0     C19732   9.524   0.999   0.370 -0.1026  0.1276 -1.0268
  147MOL0     C19733   9.594   1.121   0.321 -0.7077  0.1300  0.1957
  147MOL0     O19734   9.718   1.148   0.394  0.4112 -0.1309  0.2527
  147MOL0     C19735   9.840   1.134   0.331  0.8900  0.9290 -0.7980
  147MOL0     C19736   9.943   1.067   0.400 -0.3721 -0.5348  0.0556
  147MOL0     C19737  10.072   1.062   0.351 -0.4824 -0.3294 -0.3849
  147MOL0     C19738  10.102   1.123   0.227  0.3978  0.1949  0.2316
  147MOL0     C19739  10.254   1.131   0.178  0.1293  0.4342  0.1758
  147MOL0     O19740  10.341   1.066   0.259  0.2011  0.0023 -0.0700
  147MOL0     C19741  10.468   1.040   0.210  0.6391 -0.8685 -0.7708
  147MOL0     C19742  10.563   1.148   0.209  0.0779  0.0432  1.0020
  147MOL0     C19743  10.691   1.130   0.144 -0.5155 -0.4171  0.1255
  147MOL0     C19744  10.727   0.999   0.101 -0.3927 -0.6037 -0.1283
  147MOL0     O19745  10.852   0.964   0.046  0.5119  0.4648 -1.2951
  147MOL0     C19746  10.961   1.050   0.050  0.7416 -0.2097 -0.3055
  147MOL0     C19747  10.960   1.149  -0.064  0.7564  0.0928 -0.9043
  147MOL0     C19748  11.104   1.194  -0.101  0.1258  0.3662 -0.3665
  147MOL0     C19749  11.108   1.286  -0.227  0.3703 -0.0821  0.0492
  147MOL0     C19750  11.242   1.359  -0.239 -0.1673 -0.3530  0.1675
  147MOL0     C19751  11.361   1.266  -0.250  0.2395 -0.0085 -0.4433
  147MOL0     C19752  11.468   1.300  -0.352 -0.4858  0.5121  0.1747
  147MOL0     C19753  11.518   1.438  -0.342 -0.2565 -0.2079 -0.9044
  147MOL0    Cl19754  11.668   1.464  -0.433 -0.2982 -0.1698 -0.2543
  147MOL0     C19755  10.635   0.899   0.102  0.0952  0.9177  0.0804
  147MOL0     C19756  10.511   0.917   0.161  0.3814  0.1572 -0.0540
  147MOL0     O19757  10.285   1.188   0.067  0.3254  0.2086 -0.5637
  147MOL0     C19758   9.999   1.190   0.155  0.1533  0.7332  0.1174
  147MOL0     C19759   9.869   1.181   0.207 -0.2537  0.3165 -0.1283
  147MOL0     N19760   9.509   0.944   0.872 -0.3698  0.1418  0.0979
  147MOL0     N19761   9.409   0.975   0.958 -0.8416  0.1162  0.2266
  147MOL0     C19762   8.199   1.285   0.887  0.4291 -0.3683  0.1553
  147MOL0     C19763   8.107   1.389   0.860 -0.3197  0.0630  0.5081
  147MOL0     C19764   7.777   1.648   0.669  0.1750 -0.5938  0.0437
  147MOL0     C19765   7.714   1.756   0.742 -0.3264 -0.6814  0.4395
  147MOL0     C19766   7.621   1.837   0.679  0.1459 -0.2915  0.0441
  147MOL0     C19767   7.590   1.821   0.550  0.3453  0.0742  0.0711
  147MOL0     O19768   7.488   1.890   0.477 -0.5470  0.1047 -0.1135
  147MOL0     C19769   7.433   2.013   0.543  0.3176  0.4197  0.4885
  147MOL0     C19770   7.326   2.071   0.463 -0.4883  0.2054 -0.7246
  147MOL0     C19771   7.206   1.976   0.456 -1.0977 -0.7955 -0.3165
  147MOL0     C19772   7.121   1.966   0.575  0.2453 -0.3149  0.2608
  147MOL0     C19773   6.989   1.901   0.548  0.2491  0.5722 -0.3768
  147MOL0     C19774   6.880   1.852   0.508 -0.1629  0.8451  0.3758
  147MOL0     C19775   7.635   1.715   0.474  0.5573 -0.3347 -0.6588
  147MOL0     C19776   7.731   1.630   0.535  0.3513  0.2780  0.4307
  147MOL0     C19777   7.770   1.517   0.447  0.2228  0.0351 -0.0101
  147MOL0     H19778   8.015   1.279   0.546 -2.5970 -1.0617  2.1947
  147MOL0     H19779   8.190   1.117   0.588  0.1118 -0.5762  0.1230
  147MOL0     H19780   8.249   0.996   0.964 -0.7756  1.2342 -0.4778
  147MOL0     H19781   8.375   0.916   0.878  1.5926 -0.3810  3.3614
  147MOL0     H19782   8.438   1.019   1.100  0.0358  0.5546  0.7458
  147MOL0     H19783   8.458   1.168   1.005 -1.0418 -0.3018  0.9712
  147MOL0     H19784   8.592   1.029   0.830  2.3133 -0.5005  0.3078
  147MOL0     H19785   8.588   0.895   0.942 -3.3578 -0.1878 -3.2347
  147MOL0     H19786   8.679   1.176   1.002  1.5169 -0.3488  0.1607
  147MOL0     H19787   8.717   1.043   1.116  3.1132  0.3971 -0.1902
  147MOL0     H19788   8.849   0.924   0.950  0.3972 -0.2715 -0.6909
  147MOL0     H19789   8.811   1.036   0.823 -0.1495 -0.7213 -0.4121
  147MOL0     H19790   8.937   1.217   0.957  2.5976  1.0328  0.7975
  147MOL0     H19791   8.943   1.100   1.093 -0.9164 -1.2384 -0.1054
  147MOL0     H19792   9.066   1.036   0.817  1.6436 -1.3044 -0.6049
  147MOL0     H19793   9.082   0.943   0.957 -0.9732 -0.0166 -2.8748
  147MOL0     H19794   9.186   1.225   0.929  2.3276  0.5139  1.2083
  147MOL0     H19795   9.204   1.118   1.070  0.5749 -0.8413 -0.3693
  147MOL0     H19796   9.322   1.149   0.693 -0.3267 -0.0754  0.8202
  147MOL0     H19797   9.627   1.083   0.623 -1.1441  0.9574  0.1507
  147MOL0     H19798   9.603   0.908   0.614  0.9258  0.5684 -4.8660
  147MOL0     H19799   9.387   0.922   0.501 -2.0035  0.6774 -1.1727
  147MOL0     H19800   9.401   1.098   0.503 -1.8291 -1.1138  1.8580
  147MOL0     H19801   9.446   0.974   0.297 -0.3126  2.3427 -1.6607
  147MOL0     H19802   9.593   0.914   0.366  1.8096  1.3584  2.3132
  147MOL0     H19803   9.531   1.210   0.325 -3.4198 -1.6560  0.1919
  147MOL0     H19804   9.622   1.089   0.220  0.4930  1.5651  0.0470
  147MOL0     H19805   9.923   1.024   0.497 -1.4571 -2.3300 -0.8991
  147MOL0     H19806  10.149   1.016   0.412  1.3725  1.4506 -1.2577
  147MOL0     H19807  10.518   1.243   0.236 -1.0358  1.7291 -5.1381
  147MOL0     H19808  10.753   1.220   0.144 -0.2411 -0.4783  3.6706
  147MOL0     H19809  10.967   1.113   0.139 -0.5297 -1.2969  0.5945
  147MOL0     H19810  11.055   0.993   0.045 -0.1827 -1.7106 -1.6237
  147MOL0     H19811  10.906   1.102  -0.147 -1.3173 -1.3866  1.1573
  147MOL0     H19812  10.896   1.230  -0.029 -1.8450 -2.0916 -0.2183
  147MOL0     H19813  11.152   1.232  -0.010  0.3551 -2.2858  0.7116
  147MOL0     H19814  11.160   1.105  -0.131  0.1650 -0.7815  2.7089
  147MOL0     H19815  11.019   1.348  -0.245 -0.1538 -1.0067 -0.5942
  147MOL0     H19816  11.108   1.219  -0.313  2.9077 -1.9316  1.3405
  147MOL0     H19817  11.238   1.422  -0.150 -4.7517 -1.9502  1.3707
  147MOL0     H19818  11.237   1.419  -0.331 -0.0944 -0.9603 -0.2397
  147MOL0     H19819  11.398   1.272  -0.148 -0.6448  0.4713 -0.1386
  147MOL0     H19820  11.333   1.161  -0.266  1.3894 -0.4138  0.0409
  147MOL0     H19821  11.419   1.278  -0.448  1.9988 -0.6298 -0.9221
  147MOL0     H19822  11.549   1.227  -0.346 -2.5457 -2.0398 -1.1713
  147MOL0     H19823  11.450   1.510  -0.387  1.4817  1.1500 -1.4728
  147MOL0     H19824  11.538   1.464  -0.237  5.0879 -2.5925 -1.0099
  147MOL0     H19825  10.666   0.806   0.056  0.0227  0.9831 -0.1011
  147MOL0     H19826  10.431   0.844   0.149 -0.3479  0.3011  3.0117
  147MOL0     H19827  10.026   1.238   0.061 -0.5081 -2.6807 -1.9851
  147MOL0     H19828   9.791   1.226   0.147  0.2970 -0.0934 -1.1857
  147MOL0     H19829   8.242   1.282   0.986 -2.5300  1.8195  1.6802
  147MOL0     H19830   8.094   1.458   0.943  0.7964 -1.2233  1.8177
  147MOL0     H19831   7.727   1.772   0.849  0.3034  2.0977  0.0238
  147MOL0     H19832   7.572   1.913   0.739  0.8704  1.5511 -1.5829
  147MOL0     H19833   7.517   2.083   0.543  0.0622  0.7456  1.5019
  147MOL0     H19834   7.385   1.996   0.640 -0.4356 -0.9532 -0.0962
  147MOL0     H19835   7.367   2.100   0.366  2.7324 -2.8972 -0.4707
  147MOL0     H19836   7.298   2.159   0.521 -1.7747 -0.8818  0.3828
  147MOL0     H19837   7.243   1.882   0.416  0.9953 -1.5621  2.9890
  147MOL0     H19838   7.144   2.019   0.377 -0.1039  0.6768 -0.3334
  147MOL0     H19839   7.172   1.917   0.659 -3.0506 -0.7824  2.1930
  147MOL0     H19840   7.103   2.071   0.600 -1.1273  0.4071 -3.2271
  147MOL0     H19841   6.790   1.824   0.456  0.1699 -1.3228  0.8659
  147MOL0     H19842   7.596   1.709   0.373 -3.1949 -1.7967  0.6858
  147MOL0     H19843   7.694   1.496   0.371 -1.1763 -3.0184  2.0263
  147MOL0     H19844   7.873   1.530   0.410 -0.1128  1.3079 -0.5266
  147MOL0     H19845   7.760   1.430   0.513  2.1236 -0.6519 -0.5520
  148MOL0     O19846   9.015   6.408   7.218 -0.0837  0.2831  0.3725
  148MOL0     C19847   8.977   6.299   7.170 -0.0165  0.2836  0.1787
  148MOL0     O19848   9.050   6.185   7.161 -0.5245 -0.0646 -0.4931
  148MOL0     C19849   9.168   6.195   7.246  0.3227  0.1708  0.4448
  148MOL0     C19850   9.189   6.113   7.347  0.0747 -0.5346 -0.0157
  148MOL0     C19851   9.307   6.102   7.426 -0.0896 -0.1639  0.1556
  148MOL0     C19852   9.420   6.180   7.377 -0.8167 -0.2713 -1.4686
  148MOL0     O19853   9.549   6.175   7.440  0.4780 -0.3324  0.7377
  148MOL0     C19854   9.557   6.101   7.567 -0.6718  0.7169 -0.1390
  148MOL0     C19855   9.697   6.109   7.626  0.1958  0.2707  0.0510
  148MOL0     C19856   9.798   6.063   7.519 -0.5933  0.7168 -0.2034
  148MOL0     C19857   9.932   6.031   7.582 -0.2047  0.2342  0.6106
  148MOL0     C19858  10.042   6.139   7.607  0.2210 -0.7968  0.6263
  148MOL0     C19859  10.167   6.094   7.652  0.3174  0.6980  0.6637
  148MOL0     C19860  10.238   6.002   7.542 -1.0635 -0.0581 -1.0851
  148MOL0     C19861  10.367   5.957   7.615 -0.3445  0.4180  0.8482
  148MOL0     N19862  10.456   5.900   7.511 -0.0918 -0.4880 -0.4035
  148MOL0     C19863  10.518   5.779   7.515 -0.6643 -0.6507  0.1019
  148MOL0     C19864  10.630   5.797   7.439  0.7113  0.6928  0.4031
  148MOL0     C19865  10.743   5.696   7.410 -0.0475  0.4100  0.0901
  148MOL0     C19866  10.872   5.748   7.357  0.0903 -0.6701  0.6469
  148MOL0     C19867  10.957   5.811   7.472 -0.1280 -0.5316  1.1489
  148MOL0     C19868  11.098   5.823   7.408 -0.6170 -0.2149 -0.2187
  148MOL0     O19869  11.180   5.884   7.508 -0.2149 -0.4560  0.1607
  148MOL0     C19870  11.315   5.907   7.489 -0.3090  0.6666 -0.1539
  148MOL0     C19871  11.387   5.950   7.603  0.6650 -0.0742 -1.1526
  148MOL0     C19872  11.525   5.954   7.592 -0.0081  0.1595 -0.0200
  148MOL0     C19873  11.595   5.928   7.472 -0.5906 -0.0181  0.1664
  148MOL0     C19874  11.738   5.936   7.456 -0.0430  0.4381 -0.7923
  148MOL0     O19875  11.802   5.927   7.571  0.8695  0.0117  0.5795
  148MOL0     C19876  11.943   5.928   7.575  0.0702  0.0951  0.1752
  148MOL0     C19877  12.036   5.999   7.492 -0.6564 -1.8314  0.5042
  148MOL0     C19878  12.170   6.013   7.523 -1.0451  0.3460  0.0462
  148MOL0     C19879  12.218   5.949   7.637  0.6814 -1.1840 -0.5409
  148MOL0     O19880  12.346   5.945   7.680 -0.2954  0.2855 -0.1125
  148MOL0     C19881  12.438   6.051   7.647 -0.3296  1.2489 -0.6446
  148MOL0     C19882  12.571   6.027   7.712 -0.3972  0.5868 -0.2235
  148MOL0     C19883  12.574   6.043   7.857  0.3475  0.5963 -0.2433
  148MOL0     C19884  12.704   6.006   7.927 -0.2936  0.4303  0.4739
  148MOL0     C19885  12.722   6.062   8.065  0.8474  0.1903 -0.8223
  148MOL0     C19886  12.859   6.031   8.129  0.3492 -0.1967  0.1178
  148MOL0     C19887  12.856   6.119   8.261  0.0940  0.9700  0.0012
  148MOL0     C19888  12.996   6.159   8.300  0.2127 -0.4795  0.6081
  148MOL0    Cl19889  13.056   6.287   8.196  0.0027 -0.0484 -0.0162
  148MOL0     C19890  12.135   5.860   7.708 -0.3041 -0.1229  0.1465
  148MOL0     C19891  11.998   5.857   7.682 -0.1337 -0.1503 -0.2399
  148MOL0     O19892  11.791   5.933   7.345 -0.3540  0.3694  0.1605
  148MOL0     C19893  11.519   5.898   7.353  0.5389 -0.8934  0.2910
  148MOL0     C19894  11.385   5.887   7.365  0.0247 -0.5337 -0.1476
  148MOL0     N19895  10.621   5.919   7.379  0.0999 -0.7459  0.2612
  148MOL0     N19896  10.514   5.978   7.420 -0.2735  0.2576  0.6021
  148MOL0     C19897   9.412   6.252   7.263  0.5743 -0.2147 -0.3039
  148MOL0     C19898   9.285   6.262   7.196  0.1359  0.4657 -0.1965
  148MOL0     C19899   8.845   6.306   7.094  0.1979 -0.0385  0.1076
  148MOL0     C19900   8.818   6.188   7.017 -0.1764  0.0679  0.2079
  148MOL0     C19901   8.693   6.193   6.949  0.1203  1.0947 -0.8302
  148MOL0     C19902   8.588   6.284   6.973  0.5987  0.6501 -0.3242
  148MOL0     O19903   8.462   6.259   6.913  0.7868 -0.1061  0.1022
  148MOL0     C19904   8.365   6.362   6.950  0.3820  0.0039  0.0092
  148MOL0     C19905   8.223   6.334   6.892  0.3438 -0.0511 -0.0804
  148MOL0     C19906   8.133   6.461   6.883 -0.1473 -0.4189  0.5123
  148MOL0     C19907   7.994   6.439   6.826 -0.0577 -0.7036 -0.2446
  148MOL0     C19908   7.932   6.577   6.817 -0.0053  0.2616  0.1663
  148MOL0     C19909   7.880   6.680   6.778  0.5795  0.3032 -0.7844
  148MOL0     C19910   8.618   6.393   7.050  0.0581 -0.0415  0.1653
  148MOL0     C19911   8.746   6.411   7.110  0.0860  0.1252 -0.9853
  148MOL0     C19912   8.761   6.526   7.200 -0.2772 -0.3657 -0.5105
  148MOL0     H19913   9.116   6.044   7.386 -0.0430 -0.9813 -1.0000
  148MOL0     H19914   9.315   6.038   7.513  3.5478 -2.3289 -1.5273
  148MOL0     H19915   9.485   6.155   7.630  0.1288 -2.4809  3.9093
  148MOL0     H19916   9.524   5.998   7.552 -2.6619  1.0483  1.5679
  148MOL0     H19917   9.694   6.047   7.716 -0.7966 -0.8504 -0.7209
  148MOL0     H19918   9.727   6.212   7.648 -0.8712  0.5814  0.1173
  148MOL0     H19919   9.810   6.144   7.446 -1.2581  2.0368  1.1017
  148MOL0     H19920   9.757   5.973   7.472 -0.0695  0.4871 -0.2298
  148MOL0     H19921   9.921   5.960   7.665 -1.1856 -3.3344 -2.3122
  148MOL0     H19922   9.976   5.969   7.503 -0.1828  0.2835  0.5846
  148MOL0     H19923  10.058   6.189   7.511 -3.6049 -1.3525 -0.4442
  148MOL0     H19924  10.002   6.212   7.678 -0.8992 -0.4128 -0.3687
  148MOL0     H19925  10.225   6.183   7.676  1.4296  0.1193  0.1910
  148MOL0     H19926  10.148   6.036   7.743 -0.8491  0.6666  0.4240
  148MOL0     H19927  10.269   6.056   7.452  0.3649  0.6901 -0.1749
  148MOL0     H19928  10.179   5.919   7.502 -2.7741 -0.0789  1.2352
  148MOL0     H19929  10.416   6.041   7.664  3.0398  0.8437 -2.8163
  148MOL0     H19930  10.341   5.882   7.690 -1.1598 -1.8125 -1.5247
  148MOL0     H19931  10.484   5.691   7.570  0.9118 -0.0802  2.1043
  148MOL0     H19932  10.752   5.650   7.509 -3.3908  0.3977  0.5124
  148MOL0     H19933  10.705   5.620   7.342 -2.2194  0.3190  1.3232
  148MOL0     H19934  10.916   5.658   7.313 -1.2247 -1.1611  0.3114
  148MOL0     H19935  10.860   5.821   7.276  1.1708 -2.5968 -1.3754
  148MOL0     H19936  10.955   5.736   7.551 -0.3128 -0.7210  0.9633
  148MOL0     H19937  10.927   5.911   7.505  1.0910  0.5687 -0.8080
  148MOL0     H19938  11.108   5.881   7.316 -0.7100  0.8025  0.3980
  148MOL0     H19939  11.124   5.720   7.383 -1.8867 -0.5360 -0.2678
  148MOL0     H19940  11.337   5.982   7.693  1.3077  2.3134 -1.5528
  148MOL0     H19941  11.570   5.985   7.686  1.8431  3.2322 -1.7662
  148MOL0     H19942  12.008   6.037   7.394  3.0793 -0.8465 -0.3317
  148MOL0     H19943  12.236   6.086   7.478  0.7201  0.9276  3.2400
  148MOL0     H19944  12.445   6.043   7.538 -1.6839 -1.6033 -0.6103
  148MOL0     H19945  12.401   6.150   7.676  0.1022  1.0945  0.4897
  148MOL0     H19946  12.577   5.920   7.687 -2.6172  0.1920  0.7371
  148MOL0     H19947  12.646   6.097   7.673 -1.6984  3.0808  1.4923
  148MOL0     H19948  12.553   6.150   7.870 -1.0576  0.3006  0.0611
  148MOL0     H19949  12.500   5.981   7.908  1.3886  0.4584  1.1527
  148MOL0     H19950  12.796   6.039   7.879  1.3541  0.1053  3.2254
  148MOL0     H19951  12.709   5.897   7.932 -0.0105  0.4217  0.0121
  148MOL0     H19952  12.645   6.012   8.125  0.3833 -1.5320 -2.7357
  148MOL0     H19953  12.708   6.169   8.046  1.3307  0.0303 -2.1761
  148MOL0     H19954  12.887   5.928   8.150  1.4588 -0.2032 -1.2088
  148MOL0     H19955  12.944   6.064   8.068  1.2398 -2.8517 -0.1686
  148MOL0     H19956  12.817   6.048   8.334 -1.0154  0.4506 -1.0792
  148MOL0     H19957  12.792   6.207   8.249 -0.1387  0.5668 -1.9179
  148MOL0     H19958  13.015   6.185   8.404  3.6707  0.6740 -0.1856
  148MOL0     H19959  13.056   6.069   8.284 -2.2995 -1.7742 -2.7651
  148MOL0     H19960  12.180   5.798   7.785  0.2830 -2.7204 -2.1027
  148MOL0     H19961  11.934   5.805   7.754 -1.9431  2.6166  0.3173
  148MOL0     H19962  11.550   5.904   7.249 -1.5599  0.7040 -0.3218
  148MOL0     H19963  11.334   5.843   7.280  0.7957 -0.0405 -0.8776
  148MOL0     H19964   9.497   6.314   7.235  0.9760 -0.5799  0.0955
  148MOL0     H19965   9.282   6.333   7.114 -0.4194  1.8345  0.9444
  148MOL0     H19966   8.894   6.111   7.022  0.8290  0.8548 -2.1247
  148MOL0     H19967   8.667   6.116   6.877  2.4354 -0.7369  0.1479
  148MOL0     H19968   8.403   6.459   6.916 -1.1863  0.0497 -1.7988
  148MOL0     H19969   8.342   6.362   7.057 -2.5511 -2.2268 -0.4787
  148MOL0     H19970   8.172   6.260   6.955  0.9772 -0.4755 -0.0650
  148MOL0     H19971   8.223   6.288   6.793 -0.1549  0.0208 -0.1188
  148MOL0     H19972   8.190   6.528   6.817 -2.0621 -0.5314 -1.3695
  148MOL0     H19973   8.120   6.514   6.978 -0.2564 -1.6095  1.1814
  148MOL0     H19974   8.020   6.395   6.730 -0.8688  0.8319 -1.2151
  148MOL0     H19975   7.940   6.369   6.891  0.1598 -0.3696  0.3111
  148MOL0     H19976   7.826   6.768   6.750 -0.6676 -0.5403 -1.1272
  148MOL0     H19977   8.542   6.469   7.066  1.0879  1.3013 -1.0092
  148MOL0     H19978   8.676   6.594   7.187  2.0060  2.8956  0.4052
  148MOL0     H19979   8.773   6.498   7.305  0.5513  1.1182 -0.1791
  148MOL0     H19980   8.849   6.586   7.176  0.4692 -1.7559 -1.4047
  149MOL0     O19981   1.737   9.785  10.525 -0.9397  0.2275 -0.0216
  149MOL0     C19982   1.677   9.723  10.447  0.7353 -0.8274  0.5373
  149MOL0     O19983   1.689   9.729  10.311  0.0027  0.0146 -0.0785
  149MOL0     C19984   1.755   9.821  10.249  0.7253 -0.0810  0.2556
  149MOL0     C19985   1.690   9.945  10.217 -0.3203  0.1370  0.1024
  149MOL0     C19986   1.750  10.055  10.140 -0.4979  0.0554  0.2425
  149MOL0     C19987   1.879  10.034  10.106 -0.9732  0.3326 -0.4543
  149MOL0     O19988   1.944  10.130  10.032  0.5130  0.6486  0.0094
  149MOL0     C19989   2.083  10.121  10.005  0.0874  0.8728  0.9157
  149MOL0     C19990   2.113  10.257   9.925 -0.2961 -0.1857 -0.3579
  149MOL0     C19991   2.261  10.267   9.887  0.4311  0.1964  0.5773
  149MOL0     C19992   2.285  10.380   9.792 -0.2351 -0.3405  0.5998
  149MOL0     C19993   2.432  10.399   9.741  0.3322  0.5962 -0.4561
  149MOL0     C19994   2.432  10.500   9.628 -0.1542 -0.1129 -0.3473
  149MOL0     C19995   2.577  10.544   9.587  1.0389 -0.6310  0.0510
  149MOL0     C19996   2.649  10.437   9.511 -0.0828  0.0168 -0.0398
  149MOL0     N19997   2.797  10.456   9.535 -0.1053  0.4755  0.2987
  149MOL0     C19998   2.865  10.395   9.634 -0.3745 -0.1909 -0.2984
  149MOL0     C19999   2.995  10.419   9.601 -0.1849 -0.2617 -0.4478
  149MOL0     C20000   3.116  10.387   9.675 -0.0944 -0.2086  0.1266
  149MOL0     C20001   3.190  10.511   9.729  1.2379  0.4818 -0.0704
  149MOL0     C20002   3.306  10.476   9.814 -0.7224 -0.0098 -0.1897
  149MOL0     C20003   3.390  10.596   9.847  0.3415 -0.6474 -0.6536
  149MOL0     O20004   3.531  10.572   9.854 -0.1464 -0.1289  0.1306
  149MOL0     C20005   3.618  10.665   9.901  0.2455  0.0218 -0.2649
  149MOL0     C20006   3.752  10.643   9.864  0.3645 -0.2596  0.7093
  149MOL0     C20007   3.861  10.722   9.914  0.0244  0.6044  0.0248
  149MOL0     C20008   3.832  10.819  10.004  0.1289  1.1149 -0.2364
  149MOL0     C20009   3.941  10.898  10.064 -0.5053 -0.0614  0.9820
  149MOL0     O20010   4.061  10.894   9.999 -0.2094  0.0291  0.7193
  149MOL0     C20011   4.166  10.972  10.033  0.1742  0.5646 -0.6982
  149MOL0     C20012   4.216  10.972  10.164 -0.3003 -0.3392  0.1671
  149MOL0     C20013   4.332  11.048  10.201  0.2030  0.8588  0.0548
  149MOL0     C20014   4.393  11.128  10.107  0.2337  1.2330  0.3139
  149MOL0     O20015   4.509  11.181  10.143 -0.6094  0.4778  0.8796
  149MOL0     C20016   4.539  11.319  10.102  0.2760  0.8222 -0.9629
  149MOL0     C20017   4.674  11.343  10.034  1.1775  0.3205  0.0572
  149MOL0     C20018   4.695  11.496   9.997 -0.0596  0.6254 -0.4875
  149MOL0     C20019   4.823  11.505   9.919 -0.5205 -0.2273 -0.1777
  149MOL0     C20020   4.853  11.638   9.870  0.3312 -0.1067  0.1750
  149MOL0     C20021   4.993  11.644   9.814  0.3015 -1.0284 -0.0452
  149MOL0     C20022   5.036  11.780   9.770  0.3134 -0.1652  0.4859
  149MOL0     C20023   5.190  11.783   9.729 -0.8489  0.0928  0.2088
  149MOL0    Cl20024   5.301  11.767   9.866 -0.4650  0.1171 -0.2020
  149MOL0     C20025   4.334  11.134   9.976 -0.3080 -0.5370  0.2825
  149MOL0     C20026   4.221  11.055   9.943  0.5893  0.2906  0.3204
  149MOL0     O20027   3.918  10.977  10.154 -0.6111  0.2577 -0.6405
  149MOL0     C20028   3.700  10.850  10.031  0.8099 -0.6127  0.3361
  149MOL0     C20029   3.585  10.773   9.988  0.2329 -0.7652  0.6037
  149MOL0     N20030   2.998  10.487   9.489  0.4255  0.8182 -0.2014
  149MOL0     N20031   2.884  10.513   9.446  0.7734  0.3184  0.7336
  149MOL0     C20032   1.951   9.918  10.149 -0.3853  1.2446  0.1758
  149MOL0     C20033   1.889   9.814  10.220 -0.7889  0.1285  0.2075
  149MOL0     C20034   1.583   9.614  10.503 -0.9138 -0.2704  0.4127
  149MOL0     C20035   1.547   9.509  10.408 -0.2603  0.6983 -0.2264
  149MOL0     C20036   1.465   9.407  10.453  1.2497 -0.2863 -0.2427
  149MOL0     C20037   1.418   9.396  10.582 -0.1321  0.3757 -0.8051
  149MOL0     O20038   1.329   9.291  10.611 -0.0815 -0.5434 -0.1353
  149MOL0     C20039   1.298   9.273  10.753 -0.5110 -0.2786  0.5349
  149MOL0     C20040   1.228   9.138  10.772  0.3348 -0.1139 -0.1163
  149MOL0     C20041   1.086   9.147  10.714  0.6867 -0.1324  0.3467
  149MOL0     C20042   0.981   9.238  10.770  0.3914  1.2083  0.3328
  149MOL0     C20043   0.920   9.172  10.887  0.0416 -0.0527 -0.5403
  149MOL0     C20044   0.863   9.124  10.983 -0.9332 -0.2989 -0.8603
  149MOL0     C20045   1.454   9.498  10.676 -0.1707  0.6180  0.3061
  149MOL0     C20046   1.533   9.598  10.639 -0.6718 -0.1582  0.4006
  149MOL0     C20047   1.553   9.703  10.747  0.8955  0.9788 -0.0758
  149MOL0     H20048   1.586   9.941  10.249 -0.5750 -0.7660 -0.7710
  149MOL0     H20049   1.704  10.151  10.120  1.8487  1.5230  1.4136
  149MOL0     H20050   2.146  10.119  10.094 -1.1951 -2.6541  1.8879
  149MOL0     H20051   2.107  10.031   9.947 -0.8140  1.1088  0.1328
  149MOL0     H20052   2.091  10.336   9.998  2.4431  1.1903 -0.8980
  149MOL0     H20053   2.050  10.282   9.839  1.2424 -0.2635 -1.5481
  149MOL0     H20054   2.301  10.172   9.849  0.0756 -0.6513  2.2566
  149MOL0     H20055   2.320  10.288   9.976  0.2512  1.1964  0.4701
  149MOL0     H20056   2.228  10.374   9.699  2.2873  0.5092 -1.1133
  149MOL0     H20057   2.245  10.474   9.830  0.4349  1.1775 -2.1812
  149MOL0     H20058   2.506  10.425   9.817 -0.3585 -0.8656  0.7708
  149MOL0     H20059   2.460  10.304   9.693 -1.4751  0.2160 -0.8302
  149MOL0     H20060   2.372  10.472   9.540  0.5970  1.1008 -1.2686
  149MOL0     H20061   2.385  10.587   9.674 -0.6603 -1.0529  0.9758
  149MOL0     H20062   2.629  10.565   9.681 -0.0320 -1.9182  0.9780
  149MOL0     H20063   2.582  10.635   9.527  0.2084  0.8140  2.0629
  149MOL0     H20064   2.620  10.340   9.552  1.2749 -1.0101 -1.3969
  149MOL0     H20065   2.640  10.449   9.402 -1.0499  2.0729  0.2155
  149MOL0     H20066   2.820  10.332   9.710  0.1557 -1.9033 -1.3545
  149MOL0     H20067   3.084  10.322   9.757 -1.8758  3.4163  2.6164
  149MOL0     H20068   3.188  10.343   9.606  1.4221  0.3900  1.2574
  149MOL0     H20069   3.214  10.587   9.654  0.0755  0.1787 -0.7836
  149MOL0     H20070   3.120  10.559   9.797  0.2133 -1.7031  0.4881
  149MOL0     H20071   3.368  10.402   9.762 -1.5361  0.4704 -1.9182
  149MOL0     H20072   3.284  10.434   9.912  0.2070 -0.5394 -0.1935
  149MOL0     H20073   3.353  10.618   9.948  0.9067 -0.2978 -0.5194
  149MOL0     H20074   3.376  10.686   9.787  0.5543  0.3168  0.6884
  149MOL0     H20075   3.763  10.566   9.788 -1.6082  1.3554 -1.3347
  149MOL0     H20076   3.959  10.682   9.891 -0.8504 -3.7664  2.7002
  149MOL0     H20077   4.157  10.921  10.240 -1.2113  1.6890  0.9033
  149MOL0     H20078   4.373  11.040  10.301  1.3266  0.8880 -0.3833
  149MOL0     H20079   4.455  11.349  10.038 -0.8136  1.3162  0.6267
  149MOL0     H20080   4.537  11.386  10.188  0.6708 -0.6136  0.2165
  149MOL0     H20081   4.752  11.299  10.098 -0.3564  0.4819  2.1714
  149MOL0     H20082   4.676  11.283   9.943  2.9483 -2.4390  1.7257
  149MOL0     H20083   4.612  11.530   9.935 -0.3365  2.9941  1.0422
  149MOL0     H20084   4.689  11.550  10.092 -0.2367 -0.3740  0.0971
  149MOL0     H20085   4.816  11.444   9.828  1.3499 -1.4435  0.4579
  149MOL0     H20086   4.905  11.467   9.980  0.1915  3.5114  1.4828
  149MOL0     H20087   4.851  11.706   9.956 -0.5708 -1.1023  0.9541
  149MOL0     H20088   4.770  11.670   9.806 -1.5573 -1.1239  2.0170
  149MOL0     H20089   5.064  11.608   9.890  1.3246  1.8460  0.4891
  149MOL0     H20090   4.995  11.574   9.730 -2.2549 -0.6417 -0.4867
  149MOL0     H20091   5.018  11.860   9.843  0.7071  0.5678 -0.2099
  149MOL0     H20092   4.977  11.806   9.682  1.4797  3.8879  0.6894
  149MOL0     H20093   5.212  11.698   9.664  1.7265 -0.3578  1.5701
  149MOL0     H20094   5.226  11.874   9.680  2.4128 -0.0069  2.1447
  149MOL0     H20095   4.394  11.188   9.903  0.6833 -0.2049  1.3222
  149MOL0     H20096   4.183  11.057   9.841 -1.2934  0.4336  0.9988
  149MOL0     H20097   3.662  10.930  10.095 -0.8776 -2.0787  1.2790
  149MOL0     H20098   3.482  10.803  10.000 -1.3110 -5.3221  0.6205
  149MOL0     H20099   2.059   9.915  10.137  0.1526  2.3481  3.6709
  149MOL0     H20100   1.947   9.727  10.250 -0.9924 -0.0769  0.0002
  149MOL0     H20101   1.570   9.504  10.302  1.2536 -1.0272  0.1371
  149MOL0     H20102   1.428   9.334  10.382 -0.3172 -0.9061  1.1517
  149MOL0     H20103   1.245   9.361  10.791  0.6155  1.5176 -1.8241
  149MOL0     H20104   1.397   9.263  10.800 -1.1345  0.8241  2.1832
  149MOL0     H20105   1.214   9.118  10.879  1.0221 -1.2508 -0.2186
  149MOL0     H20106   1.281   9.048  10.739  1.1721 -0.3271  1.6995
  149MOL0     H20107   1.046   9.046  10.718  0.2250  0.0753  1.4301
  149MOL0     H20108   1.082   9.162  10.606 -0.9397  0.8868  0.5193
  149MOL0     H20109   1.026   9.334  10.796  1.0738  1.4922 -1.7107
  149MOL0     H20110   0.912   9.259  10.688  0.5325  0.4683  0.0101
  149MOL0     H20111   0.807   9.070  11.057 -0.9475 -2.9492 -2.6276
  149MOL0     H20112   1.409   9.493  10.775 -3.6045 -0.8230 -1.1620
  149MOL0     H20113   1.656   9.712  10.783  1.1398  0.0931 -0.5253
  149MOL0     H20114   1.513   9.801  10.718 -3.7053 -0.2181  1.3720
  149MOL0     H20115   1.495   9.679  10.837  1.8667 -1.3987 -0.0158
  150MOL0     O20116   0.190   1.700  10.002  0.0283 -0.1474  0.3346
  150MOL0     C20117   0.114   1.714   9.914 -0.5781 -0.4582 -0.5117
  150MOL0     O20118   0.122   1.654   9.796  0.7175  0.1869 -0.9532
  150MOL0     C20119   0.193   1.539   9.772 -0.1223  0.0893  0.3302
  150MOL0     C20120   0.225   1.440   9.868 -0.4332 -0.0651 -0.2889
  150MOL0     C20121   0.310   1.335   9.839  0.3768 -0.0034  0.1673
  150MOL0     C20122   0.359   1.319   9.707 -0.5392 -0.1684 -0.0859
  150MOL0     O20123   0.448   1.214   9.680 -0.1110  0.4901  0.3635
  150MOL0     C20124   0.527   1.176   9.795 -0.3764 -0.3246 -0.2607
  150MOL0     C20125   0.651   1.105   9.738 -0.2740 -1.2321 -0.2889
  150MOL0     C20126   0.737   1.056   9.851  0.2502  0.2824 -0.3021
  150MOL0     C20127   0.855   0.966   9.807  0.0687  0.2366  0.5718
  150MOL0     C20128   0.933   0.927   9.934 -1.1502  0.3928  0.5340
  150MOL0     C20129   1.074   0.869   9.911 -0.9440  0.1501  0.2423
  150MOL0     C20130   1.180   0.960   9.854  0.8048  0.4883 -0.2006
  150MOL0     C20131   1.197   1.086   9.937  0.2434 -0.1199 -0.5114
  150MOL0     N20132   1.331   1.149   9.901  0.5130  0.3146 -0.0124
  150MOL0     C20133   1.444   1.182   9.977 -0.2939  0.1197  0.1345
  150MOL0     C20134   1.531   1.240   9.886 -0.0904  0.4289 -0.0317
  150MOL0     C20135   1.665   1.279   9.922  0.0236 -0.7015 -0.5224
  150MOL0     C20136   1.761   1.164   9.894  0.4411  0.1760 -2.0250
  150MOL0     C20137   1.889   1.178   9.977  0.3465 -0.5414  0.3704
  150MOL0     C20138   1.987   1.286   9.938 -0.5840 -0.9465  0.6045
  150MOL0     O20139   2.081   1.301  10.047  0.5113 -0.4273  1.0051
  150MOL0     C20140   2.200   1.365  10.031 -0.1710  0.8301  0.0708
  150MOL0     C20141   2.280   1.370  10.137 -0.0718  0.2503 -0.1457
  150MOL0     C20142   2.415   1.425  10.133 -0.1558 -0.0031  0.0408
  150MOL0     C20143   2.465   1.474  10.015  0.4988 -0.0748  0.2593
  150MOL0     C20144   2.603   1.524  10.002 -1.3858  0.4676  0.7210
  150MOL0     O20145   2.695   1.488  10.096 -0.7300  0.1570 -0.7955
  150MOL0     C20146   2.828   1.541  10.093 -0.7675 -0.1235 -0.4089
  150MOL0     C20147   2.856   1.671  10.127  0.2850  0.5035  0.4249
  150MOL0     C20148   2.985   1.724  10.122  0.3211  0.4904 -0.0452
  150MOL0     C20149   3.094   1.647  10.075 -0.1701 -0.5829 -0.2240
  150MOL0     O20150   3.222   1.690  10.069  0.3284  0.0019  0.6636
  150MOL0     C20151   3.242   1.833  10.057 -0.1501  0.5591 -0.6669
  150MOL0     C20152   3.394   1.852  10.044  0.1853  0.4923 -0.1030
  150MOL0     C20153   3.441   2.003  10.053 -0.4152 -0.6169 -0.8408
  150MOL0     C20154   3.595   2.020  10.059  0.7513  0.6537 -0.1363
  150MOL0     C20155   3.626   2.170  10.073 -0.7352  0.2512 -0.1031
  150MOL0     C20156   3.774   2.188  10.059  1.1141  0.9979  0.2845
  150MOL0     C20157   3.815   2.334  10.058  0.0023  0.4760  0.1479
  150MOL0     C20158   3.971   2.352  10.080  0.1772  0.7307 -0.3637
  150MOL0    Cl20159   4.024   2.519  10.126  0.1745  0.6329  0.3500
  150MOL0     C20160   3.065   1.510  10.057 -0.7857 -0.4794 -0.0222
  150MOL0     C20161   2.939   1.456  10.055 -0.4064  0.1523  0.1024
  150MOL0     O20162   2.629   1.595   9.907 -0.2952 -0.0749  0.1880
  150MOL0     C20163   2.374   1.487   9.908 -0.1343 -0.0626  0.3122
  150MOL0     C20164   2.241   1.436   9.919 -0.1207 -0.1932  0.5681
  150MOL0     N20165   1.474   1.222   9.764  0.1282 -1.0483  0.4616
  150MOL0     N20166   1.357   1.174   9.770 -0.4864 -0.3293 -0.2480
  150MOL0     C20167   0.323   1.414   9.609  0.0038  0.4886  0.3572
  150MOL0     C20168   0.239   1.519   9.645 -0.0848 -0.7234 -0.8604
  150MOL0     C20169   0.005   1.810   9.938 -0.0271  0.5120 -0.7659
  150MOL0     C20170  -0.070   1.848   9.823 -0.8961 -0.0511  0.0529
  150MOL0     C20171  -0.172   1.942   9.840 -0.0350  0.4040  0.0060
  150MOL0     C20172  -0.218   1.983   9.968  0.7559 -0.3459 -0.2408
  150MOL0     O20173  -0.322   2.071   9.983 -0.5623  0.6340  0.3169
  150MOL0     C20174  -0.383   2.127   9.865  0.5362  0.0502  0.5537
  150MOL0     C20175  -0.498   2.038   9.804  0.7280  0.4739 -0.4415
  150MOL0     C20176  -0.622   2.048   9.885 -0.6508  0.0447  0.1100
  150MOL0     C20177  -0.753   2.004   9.820 -0.3720  0.4027 -0.4844
  150MOL0     C20178  -0.792   2.093   9.707  0.0488 -0.4446 -0.6451
  150MOL0     C20179  -0.840   2.175   9.624 -0.8387 -0.8070  0.3714
  150MOL0     C20180  -0.155   1.933  10.086 -0.5229  0.7530  0.1496
  150MOL0     C20181  -0.039   1.851  10.064  0.0000 -0.1684 -0.2790
  150MOL0     C20182   0.031   1.822  10.186  0.2350 -0.1610 -0.6371
  150MOL0     H20183   0.186   1.441   9.970  0.2361 -4.0843  0.1488
  150MOL0     H20184   0.327   1.267   9.921  1.5595 -0.6302 -0.5828
  150MOL0     H20185   0.565   1.254   9.861 -2.7896 -0.6449  1.6434
  150MOL0     H20186   0.470   1.106   9.856 -0.7697  0.2881  0.0863
  150MOL0     H20187   0.706   1.185   9.687 -0.8352  0.0112  0.9922
  150MOL0     H20188   0.609   1.027   9.674 -2.5270  0.6600 -1.2331
  150MOL0     H20189   0.674   0.992   9.914 -1.1769  0.6946 -1.2697
  150MOL0     H20190   0.777   1.130   9.921  0.8221 -1.8009  1.6871
  150MOL0     H20191   0.822   0.870   9.767  0.5132  0.2085  0.2618
  150MOL0     H20192   0.910   1.018   9.729 -0.6286 -0.7031 -0.5865
  150MOL0     H20193   0.943   1.010  10.004  1.3276 -0.0178  0.7621
  150MOL0     H20194   0.875   0.846   9.980 -1.4740  1.4916  2.1312
  150MOL0     H20195   1.125   0.828   9.999  0.9367  1.5976 -0.1364
  150MOL0     H20196   1.060   0.781   9.847 -1.6779  0.1582  0.3752
  150MOL0     H20197   1.159   0.977   9.748  1.7519 -0.3018 -0.5296
  150MOL0     H20198   1.277   0.909   9.854 -0.8357 -3.1863 -4.0208
  150MOL0     H20199   1.123   1.155   9.896  1.2221  1.1853 -0.1658
  150MOL0     H20200   1.195   1.071  10.045  1.1856  0.1505 -0.4419
  150MOL0     H20201   1.460   1.174  10.084  1.0808 -3.9961 -0.1927
  150MOL0     H20202   1.703   1.360   9.859  1.1219  0.7639  1.9149
  150MOL0     H20203   1.664   1.322  10.022  0.9061  2.2293 -1.6704
  150MOL0     H20204   1.708   1.073   9.925  0.6252  1.1023  1.4699
  150MOL0     H20205   1.779   1.149   9.787 -0.1856 -2.1189 -1.8599
  150MOL0     H20206   1.946   1.085   9.964 -1.1207 -1.2961 -1.0592
  150MOL0     H20207   1.861   1.186  10.083 -3.1514 -0.1026 -0.4658
  150MOL0     H20208   1.942   1.384   9.923 -1.2444 -1.4034 -0.5474
  150MOL0     H20209   2.037   1.260   9.844  2.7256  4.3815  0.4785
  150MOL0     H20210   2.251   1.327  10.232 -0.6667  1.9211  0.4647
  150MOL0     H20211   2.458   1.418  10.233 -3.2728 -3.6818  1.3980
  150MOL0     H20212   2.775   1.739  10.154  0.2033 -0.8702  4.2722
  150MOL0     H20213   2.979   1.824  10.165 -0.8373 -0.0566  1.1255
  150MOL0     H20214   3.192   1.865   9.965  1.8425 -0.1237 -2.0762
  150MOL0     H20215   3.209   1.892  10.142  1.0931  2.0232 -1.1437
  150MOL0     H20216   3.446   1.794  10.121  0.7683  0.4393 -0.5363
  150MOL0     H20217   3.420   1.820   9.943 -1.0611 -0.7396 -0.0708
  150MOL0     H20218   3.401   2.058   9.967 -0.1497  1.6418  0.4215
  150MOL0     H20219   3.398   2.045  10.144  1.5768 -0.5220  0.1172
  150MOL0     H20220   3.634   1.971   9.970 -0.0452  0.2335 -0.2611
  150MOL0     H20221   3.625   1.967  10.150 -1.3212  2.6239  1.8244
  150MOL0     H20222   3.605   2.219  10.169  2.9248 -1.6371  1.8483
  150MOL0     H20223   3.562   2.219   9.999  0.1779  1.4354 -0.1241
  150MOL0     H20224   3.818   2.137  10.145 -2.7719 -2.7261  0.4140
  150MOL0     H20225   3.804   2.139   9.966  0.7992  3.2191 -1.0577
  150MOL0     H20226   3.771   2.387  10.143  1.1207 -0.1020  1.1236
  150MOL0     H20227   3.788   2.390   9.969  3.0325  2.1161  0.1414
  150MOL0     H20228   4.013   2.276  10.147 -0.0930  0.6620 -0.2683
  150MOL0     H20229   4.025   2.329   9.988 -0.2605 -2.1599 -0.0085
  150MOL0     H20230   3.147   1.444  10.031  1.4070  1.0455  2.4585
  150MOL0     H20231   2.923   1.359  10.009 -1.8757 -0.0526  0.9613
  150MOL0     H20232   2.397   1.544   9.819 -2.0333  2.3158  1.2031
  150MOL0     H20233   2.177   1.429   9.831 -1.6945 -0.7816  1.7232
  150MOL0     H20234   0.359   1.400   9.507  0.2640  2.6059  0.1131
  150MOL0     H20235   0.210   1.593   9.571 -2.1521  0.1114  0.6940
  150MOL0     H20236  -0.037   1.812   9.726 -0.0553  0.7548  0.0243
  150MOL0     H20237  -0.221   1.970   9.747 -2.2762 -0.2820  0.9221
  150MOL0     H20238  -0.312   2.152   9.784  1.7126 -3.3498  0.3898
  150MOL0     H20239  -0.429   2.220   9.899 -1.1659 -1.1070  1.5009
  150MOL0     H20240  -0.475   1.931   9.808 -2.0140 -0.2310  3.8337
  150MOL0     H20241  -0.521   2.070   9.702 -0.9298 -0.4645 -0.4055
  150MOL0     H20242  -0.634   2.149   9.924 -0.4397  0.7639 -1.6002
  150MOL0     H20243  -0.598   1.977   9.964 -2.8637 -1.8756 -0.8014
  150MOL0     H20244  -0.746   1.904   9.776 -1.0198  0.9175 -1.8130
  150MOL0     H20245  -0.835   2.021   9.890  0.8791  0.4930  1.0236
  150MOL0     H20246  -0.865   2.245   9.547 -0.5957 -2.8424 -1.6751
  150MOL0     H20247  -0.194   1.956  10.184 -2.5511  0.5032 -0.5432
  150MOL0     H20248  -0.022   1.868  10.270  0.2919 -2.0873  0.5237
  150MOL0     H20249   0.016   1.715  10.203  0.0732  0.1601  1.5374
  150MOL0     H20250   0.138   1.847  10.184 -0.1147  1.6442 -3.7962
  151MOL0     O20251   3.454   0.779   2.522  0.2563 -0.8492 -0.5424
  151MOL0     C20252   3.442   0.812   2.400  0.5490 -0.1523 -0.6561
  151MOL0     O20253   3.531   0.791   2.302  0.0831 -0.2599  0.5626
  151MOL0     C20254   3.651   0.733   2.324  0.4301  0.3175  0.3806
  151MOL0     C20255   3.731   0.752   2.213  0.4092 -0.3767  0.5186
  151MOL0     C20256   3.866   0.703   2.209  0.0309 -0.4788 -0.1174
  151MOL0     C20257   3.926   0.633   2.316 -0.1066  0.2212  1.1338
  151MOL0     O20258   4.053   0.587   2.319  0.3656  0.2392 -0.3092
  151MOL0     C20259   4.143   0.623   2.215  0.5393 -0.0000 -0.5101
  151MOL0     C20260   4.271   0.543   2.219  0.0466 -0.9241  0.2054
  151MOL0     C20261   4.246   0.389   2.214  0.0186  0.4729 -0.0295
  151MOL0     C20262   4.371   0.313   2.150 -0.1771 -0.0830 -0.5172
  151MOL0     C20263   4.503   0.332   2.229 -0.4521 -0.4674 -0.1062
  151MOL0     C20264   4.501   0.303   2.377 -0.0745 -0.7929 -0.3821
  151MOL0     C20265   4.465   0.163   2.437  0.6073 -0.3486  0.0541
  151MOL0     C20266   4.585   0.069   2.422  0.1303  0.3183  0.0059
  151MOL0     N20267   4.704   0.123   2.492  0.5273  1.4006  0.4416
  151MOL0     C20268   4.804   0.186   2.431  0.0157 -0.8259  0.6105
  151MOL0     C20269   4.897   0.214   2.532 -0.1006 -0.6750  0.2565
  151MOL0     C20270   5.028   0.281   2.503  0.0399  0.3893  0.8474
  151MOL0     C20271   5.146   0.208   2.558  0.0784  0.0945 -0.0161
  151MOL0     C20272   5.174   0.068   2.501 -0.0569 -0.1102 -0.8076
  151MOL0     C20273   5.318   0.017   2.521  0.9617 -0.2240 -0.3512
  151MOL0     O20274   5.345  -0.014   2.660  0.2439 -0.4078  0.3171
  151MOL0     C20275   5.476  -0.029   2.701 -0.6383  0.1161 -0.4670
  151MOL0     C20276   5.576  -0.084   2.620 -0.0968 -1.2875  0.4054
  151MOL0     C20277   5.703  -0.100   2.676 -0.9629 -1.0067  0.3343
  151MOL0     C20278   5.734  -0.056   2.809  0.2997  0.0238 -0.2210
  151MOL0     C20279   5.861  -0.087   2.880 -0.1076  0.2131 -0.8893
  151MOL0     O20280   5.969  -0.108   2.799  0.1144 -0.3293  0.0582
  151MOL0     C20281   6.079  -0.157   2.869  0.6362 -0.1069 -0.3853
  151MOL0     C20282   6.129  -0.289   2.851  0.5917  0.5442 -0.3176
  151MOL0     C20283   6.256  -0.327   2.895 -0.5695 -0.1241  0.1098
  151MOL0     C20284   6.335  -0.243   2.973  0.5228 -0.7802  0.6629
  151MOL0     O20285   6.457  -0.277   3.018  0.5280  0.7477 -0.2660
  151MOL0     C20286   6.471  -0.415   3.061  0.2137  0.7072  0.6347
  151MOL0     C20287   6.571  -0.483   2.970  0.5149  0.0622 -0.3775
  151MOL0     C20288   6.603  -0.626   3.003  0.0763 -0.7496 -1.0045
  151MOL0     C20289   6.631  -0.663   3.158  0.0334 -0.1330 -1.4854
  151MOL0     C20290   6.746  -0.582   3.225 -0.4272 -0.2968 -0.5345
  151MOL0     C20291   6.890  -0.632   3.178  0.1053 -0.4657 -0.3758
  151MOL0     C20292   6.991  -0.516   3.202 -0.0488  0.1573 -0.0850
  151MOL0     C20293   7.120  -0.561   3.148 -0.2515  0.8137 -0.1100
  151MOL0    Cl20294   7.117  -0.524   2.968 -0.5842  0.0012 -0.1139
  151MOL0     C20295   6.281  -0.111   3.006 -0.1420 -0.2264 -0.1259
  151MOL0     C20296   6.153  -0.075   2.956  0.1082 -1.2794  0.4620
  151MOL0     O20297   5.859  -0.089   3.004 -0.5473  0.1186  0.0809
  151MOL0     C20298   5.635  -0.000   2.878  0.5504 -0.7046  0.5365
  151MOL0     C20299   5.505   0.007   2.839 -0.2096 -0.6815  0.1518
  151MOL0     N20300   4.837   0.177   2.653 -0.1728  0.5489  0.8210
  151MOL0     N20301   4.729   0.115   2.627 -0.0385 -0.2330  0.2511
  151MOL0     C20302   3.840   0.608   2.423  0.8167 -0.1751  0.0218
  151MOL0     C20303   3.710   0.656   2.429 -0.3599 -0.5985  0.4622
  151MOL0     C20304   3.317   0.893   2.360 -0.6525 -0.3293 -0.1971
  151MOL0     C20305   3.257   0.874   2.239  0.2491  0.4401  0.2039
  151MOL0     C20306   3.130   0.930   2.193  0.1555  0.0105 -0.1254
  151MOL0     C20307   3.072   1.008   2.295 -1.1052  0.1437  0.2413
  151MOL0     O20308   2.957   1.072   2.289  0.2286  0.2685  0.7986
  151MOL0     C20309   2.871   1.064   2.169 -0.7327  0.2065  0.0695
  151MOL0     C20310   2.739   1.132   2.194 -0.5098 -0.1687 -0.3023
  151MOL0     C20311   2.618   1.071   2.128  0.0283  0.0288  0.9600
  151MOL0     C20312   2.493   1.153   2.151  0.3034  0.2818  0.8163
  151MOL0     C20313   2.489   1.295   2.104 -0.3940  0.5664  0.2755
  151MOL0     C20314   2.497   1.396   2.046 -0.3247 -0.2475 -0.2718
  151MOL0     C20315   3.133   1.038   2.416 -0.1035  0.2147  0.8101
  151MOL0     C20316   3.249   0.980   2.455 -0.2174  0.3715 -0.2134
  151MOL0     C20317   3.300   1.007   2.595  0.1455 -0.1946 -0.1466
  151MOL0     H20318   3.687   0.783   2.119  0.9915 -0.5662  0.1867
  151MOL0     H20319   3.917   0.727   2.116 -1.1162 -0.4331 -0.7539
  151MOL0     H20320   4.090   0.605   2.121  0.7570  0.6852 -0.7705
  151MOL0     H20321   4.150   0.731   2.232 -1.9434  0.2135 -0.4985
  151MOL0     H20322   4.308   0.563   2.320 -0.2811 -3.0000  0.7814
  151MOL0     H20323   4.331   0.580   2.135 -1.4887  2.3219  0.3493
  151MOL0     H20324   4.163   0.362   2.149 -0.3700  1.5044  0.0345
  151MOL0     H20325   4.225   0.342   2.311 -0.8681  2.6834  0.9174
  151MOL0     H20326   4.349   0.207   2.141 -1.6399  0.2939 -1.9068
  151MOL0     H20327   4.383   0.354   2.049  1.7423 -0.3470 -0.4222
  151MOL0     H20328   4.585   0.281   2.178  0.7307  1.7023 -0.4855
  151MOL0     H20329   4.526   0.439   2.224 -3.1857  0.2272  0.6227
  151MOL0     H20330   4.591   0.337   2.428 -0.5917  0.7740 -0.4501
  151MOL0     H20331   4.424   0.365   2.424  1.3740  0.6678  0.1457
  151MOL0     H20332   4.376   0.128   2.383 -0.8983  1.4180  1.2381
  151MOL0     H20333   4.433   0.170   2.542  0.0628 -1.4845 -0.0182
  151MOL0     H20334   4.554  -0.029   2.460 -2.9184 -0.0776 -3.0433
  151MOL0     H20335   4.601   0.052   2.315  3.3734 -1.1289  0.5859
  151MOL0     H20336   4.794   0.206   2.325  1.6632 -0.3313  0.5174
  151MOL0     H20337   5.054   0.285   2.397 -1.9704 -2.6167  0.1158
  151MOL0     H20338   5.022   0.380   2.549 -0.3833  0.0083  1.6315
  151MOL0     H20339   5.233   0.261   2.519  0.4588 -1.4369 -1.3388
  151MOL0     H20340   5.144   0.209   2.667 -0.6210 -0.2978 -0.0162
  151MOL0     H20341   5.170   0.078   2.392  0.6425 -0.8411 -0.9162
  151MOL0     H20342   5.105  -0.002   2.549  2.2230 -3.0757 -1.5648
  151MOL0     H20343   5.390   0.093   2.489 -1.9623  1.6418 -3.1751
  151MOL0     H20344   5.334  -0.073   2.461  1.6852 -2.0981  2.4647
  151MOL0     H20345   5.558  -0.112   2.517  2.8729  0.2713 -0.6564
  151MOL0     H20346   5.782  -0.149   2.619 -2.5698 -1.0210 -2.0392
  151MOL0     H20347   6.069  -0.359   2.793 -1.0676  3.1207 -1.9044
  151MOL0     H20348   6.293  -0.424   2.864  0.1452  0.0013  0.5532
  151MOL0     H20349   6.516  -0.411   3.160  2.3055  0.0599 -0.2329
  151MOL0     H20350   6.382  -0.477   3.073  1.1669 -0.6672  0.8581
  151MOL0     H20351   6.524  -0.499   2.872  0.2190  1.0391 -0.4009
  151MOL0     H20352   6.667  -0.434   2.960 -0.0270  1.1036 -0.5826
  151MOL0     H20353   6.521  -0.685   2.961  1.2222 -1.4982 -2.2554
  151MOL0     H20354   6.696  -0.650   2.950  0.1259 -0.7320 -0.9249
  151MOL0     H20355   6.646  -0.772   3.156  1.4117 -0.0420  0.4922
  151MOL0     H20356   6.543  -0.645   3.220  0.7199 -2.9074  0.5082
  151MOL0     H20357   6.747  -0.563   3.333  1.9987 -0.1344 -0.5417
  151MOL0     H20358   6.733  -0.479   3.190 -0.7535 -0.8936 -2.2470
  151MOL0     H20359   6.918  -0.718   3.240 -2.3945  0.4357  2.2305
  151MOL0     H20360   6.896  -0.660   3.073 -0.5298 -2.2747  0.0308
  151MOL0     H20361   6.991  -0.490   3.308 -0.0179 -1.1454  0.2537
  151MOL0     H20362   6.961  -0.428   3.143 -1.3347  0.4317  0.9285
  151MOL0     H20363   7.213  -0.518   3.188  0.5678 -0.2537 -0.8118
  151MOL0     H20364   7.123  -0.670   3.161 -2.2414  0.7161 -0.1467
  151MOL0     H20365   6.343  -0.053   3.072  0.2074 -0.1678 -0.5018
  151MOL0     H20366   6.123   0.026   2.980 -4.5106 -1.8305 -1.8111
  151MOL0     H20367   5.649   0.030   2.981 -1.1984  1.3822  0.2461
  151MOL0     H20368   5.431   0.043   2.909  0.3248  0.8757 -0.0436
  151MOL0     H20369   3.872   0.538   2.500 -3.1093 -0.0571  1.9922
  151MOL0     H20370   3.632   0.623   2.497  0.6796  0.8534  2.4600
  151MOL0     H20371   3.312   0.813   2.169 -0.2454  0.6429 -0.3742
  151MOL0     H20372   3.083   0.922   2.095  1.1496 -2.4544 -0.4853
  151MOL0     H20373   2.846   0.961   2.141 -2.5480  0.7592 -0.5114
  151MOL0     H20374   2.920   1.109   2.082 -2.3167  2.5461  0.2853
  151MOL0     H20375   2.742   1.237   2.164  0.2331  0.0769  0.5699
  151MOL0     H20376   2.711   1.123   2.300  0.2166 -1.2256 -0.1863
  151MOL0     H20377   2.605   0.967   2.159  0.9677  0.2305  2.0826
  151MOL0     H20378   2.630   1.073   2.019 -3.1650 -1.2551  0.4793
  151MOL0     H20379   2.409   1.099   2.107  0.4732  1.6394 -1.3489
  151MOL0     H20380   2.458   1.163   2.254 -3.1669  1.8939 -0.3737
  151MOL0     H20381   2.497   1.490   1.995 -1.5887 -0.4694 -0.7144
  151MOL0     H20382   3.081   1.104   2.485 -1.4464  0.1996 -0.1474
  151MOL0     H20383   3.238   1.086   2.637  1.0282  0.2415  0.3620
  151MOL0     H20384   3.290   0.925   2.667  1.4090  0.2117  0.5316
  151MOL0     H20385   3.405   1.037   2.589  0.0992 -0.0858 -0.3989
  152MOL0     O20386   2.998   0.593   8.093  0.0202  0.1435  0.4483
  152MOL0     C20387   2.935   0.649   8.006  0.9151  0.4480  1.2369
  152MOL0     O20388   2.984   0.715   7.904  0.8018 -0.3032  0.0002
  152MOL0     C20389   3.116   0.701   7.877  0.2769 -1.1046  0.0699
  152MOL0     C20390   3.207   0.780   7.954  0.0306  0.5554  0.1998
  152MOL0     C20391   3.341   0.766   7.934  1.4637 -0.0882 -0.4879
  152MOL0     C20392   3.393   0.676   7.829  0.0251  0.1876 -0.0014
  152MOL0     O20393   3.523   0.654   7.807 -0.3527 -0.7055 -0.0886
  152MOL0     C20394   3.607   0.772   7.818 -0.2948 -0.6369  0.4913
  152MOL0     C20395   3.726   0.762   7.721 -0.2638  0.1496  0.5199
  152MOL0     C20396   3.691   0.719   7.578 -0.7039 -0.0048  0.4742
  152MOL0     C20397   3.817   0.734   7.493  0.5832  1.0328  0.7131
  152MOL0     C20398   3.789   0.700   7.342 -0.0634  0.4378 -0.4289
  152MOL0     C20399   3.909   0.721   7.250  0.5433  0.0004  0.2270
  152MOL0     C20400   4.036   0.656   7.302 -0.3030  0.1801  0.9397
  152MOL0     C20401   4.138   0.621   7.177  0.4582 -0.2690 -0.3838
  152MOL0     N20402   4.258   0.554   7.227 -0.5183 -0.1112  0.8628
  152MOL0     C20403   4.385   0.613   7.233  0.2554 -0.5610 -0.2574
  152MOL0     C20404   4.462   0.506   7.253  0.0222 -0.1007 -0.0717
  152MOL0     C20405   4.616   0.501   7.248  0.1555 -0.2669  0.2002
  152MOL0     C20406   4.681   0.380   7.316 -0.3707  0.9239 -0.4584
  152MOL0     C20407   4.819   0.423   7.357 -0.3833  0.1597 -0.2748
  152MOL0     C20408   4.903   0.311   7.421  0.0346 -0.1885  0.0901
  152MOL0     O20409   5.042   0.353   7.426 -0.1116 -0.0609 -0.2448
  152MOL0     C20410   5.133   0.258   7.459  0.0501  0.4523  0.4638
  152MOL0     C20411   5.115   0.127   7.506  0.3452  0.0308  0.4676
  152MOL0     C20412   5.216   0.035   7.536  0.4204  0.4166  0.6204
  152MOL0     C20413   5.346   0.073   7.521 -0.0728  1.1067  0.0214
  152MOL0     C20414   5.462  -0.012   7.574  0.1056  0.8828  0.1473
  152MOL0     O20415   5.578   0.032   7.532  0.5069 -0.6029  0.2965
  152MOL0     C20416   5.704  -0.011   7.565 -0.5309 -0.4757 -0.3537
  152MOL0     C20417   5.740  -0.114   7.659 -0.0124  0.2999 -0.2183
  152MOL0     C20418   5.874  -0.145   7.680  0.1214  0.2137  0.3246
  152MOL0     C20419   5.981  -0.089   7.612  0.6782 -0.4156 -0.7410
  152MOL0     O20420   6.105  -0.127   7.638 -0.0893  0.2753  1.0194
  152MOL0     C20421   6.140  -0.165   7.775  0.1841  0.2661  0.6606
  152MOL0     C20422   6.297  -0.160   7.781  0.1024  0.7324 -0.1845
  152MOL0     C20423   6.347  -0.201   7.925 -0.0293 -0.1044  0.5965
  152MOL0     C20424   6.291  -0.338   7.970 -0.0929 -0.7924 -0.0215
  152MOL0     C20425   6.376  -0.400   8.086 -0.3319 -0.3008 -0.2348
  152MOL0     C20426   6.344  -0.545   8.130 -1.3044 -0.4386 -0.0956
  152MOL0     C20427   6.368  -0.633   8.015  0.1340 -0.3608  0.4177
  152MOL0     C20428   6.349  -0.782   8.041 -0.5905  0.1659  0.0642
  152MOL0    Cl20429   6.366  -0.884   7.888  0.0696 -0.3964  0.4321
  152MOL0     C20430   5.941   0.007   7.518 -0.0740 -0.2822 -0.0833
  152MOL0     C20431   5.807   0.057   7.502 -0.0816 -0.0650 -0.2374
  152MOL0     O20432   5.459  -0.109   7.646 -0.6105  0.3018  0.6190
  152MOL0     C20433   5.371   0.204   7.486 -0.1237  0.5676 -0.2931
  152MOL0     C20434   5.270   0.295   7.453  1.6559 -0.1524 -0.4008
  152MOL0     N20435   4.391   0.391   7.249 -0.8005 -0.0208  0.9395
  152MOL0     N20436   4.272   0.423   7.233  0.0918  0.3084  0.7234
  152MOL0     C20437   3.299   0.593   7.756  0.9591  0.0414  0.4258
  152MOL0     C20438   3.159   0.611   7.776 -0.0969 -0.0108 -0.0522
  152MOL0     C20439   2.796   0.662   8.032  0.3809  0.1874 -0.0414
  152MOL0     C20440   2.769   0.710   8.160  0.1369 -0.3165  0.5785
  152MOL0     C20441   2.642   0.733   8.198 -0.0517  0.0775 -0.0772
  152MOL0     C20442   2.538   0.698   8.111  0.5887 -0.2582  0.0386
  152MOL0     O20443   2.413   0.717   8.163 -0.3072  0.0977  0.1760
  152MOL0     C20444   2.294   0.697   8.084  0.1171  0.7926  0.4099
  152MOL0     C20445   2.170   0.756   8.148 -0.4899 -0.1345 -0.7134
  152MOL0     C20446   2.050   0.699   8.074  0.4661 -0.9467 -0.0912
  152MOL0     C20447   1.922   0.731   8.153  0.0558 -0.4756 -0.1340
  152MOL0     C20448   1.802   0.688   8.083 -0.6135 -0.2298  0.7737
  152MOL0     C20449   1.707   0.643   8.028  0.2906 -0.4514  0.2512
  152MOL0     C20450   2.565   0.651   7.980  0.4449 -0.0364  0.1330
  152MOL0     C20451   2.696   0.628   7.944 -0.3603  0.9927 -0.0185
  152MOL0     C20452   2.713   0.554   7.811 -0.6005 -0.5073 -0.7922
  152MOL0     H20453   3.172   0.842   8.036 -1.4337  0.8545 -0.6076
  152MOL0     H20454   3.409   0.827   7.992  0.1589  1.0454 -0.1015
  152MOL0     H20455   3.548   0.863   7.804 -3.2037 -2.2987  1.0294
  152MOL0     H20456   3.665   0.771   7.910  2.1788 -1.2180 -0.9874
  152MOL0     H20457   3.794   0.683   7.757  1.0685  1.0551  0.0692
  152MOL0     H20458   3.785   0.854   7.729  1.1972 -0.7623  0.6869
  152MOL0     H20459   3.615   0.786   7.535  0.8195  0.5229 -1.5477
  152MOL0     H20460   3.652   0.617   7.579  1.6224 -1.1395 -3.4722
  152MOL0     H20461   3.847   0.839   7.494 -5.4199  3.2296 -2.1508
  152MOL0     H20462   3.894   0.664   7.528 -1.9651 -0.7334  3.2557
  152MOL0     H20463   3.755   0.596   7.340 -0.2574  0.4916 -0.0028
  152MOL0     H20464   3.708   0.753   7.292 -1.9222 -2.0206 -0.2506
  152MOL0     H20465   3.879   0.678   7.154  1.4019  1.5602 -0.7835
  152MOL0     H20466   3.927   0.829   7.241  1.1170 -0.1642 -0.7558
  152MOL0     H20467   4.004   0.565   7.353 -0.6948 -0.9022 -1.1488
  152MOL0     H20468   4.085   0.720   7.376 -0.2898  1.4244 -0.1018
  152MOL0     H20469   4.083   0.552   7.113 -0.0244 -1.1460  0.9489
  152MOL0     H20470   4.172   0.714   7.129  1.7996 -1.9519 -2.8983
  152MOL0     H20471   4.423   0.714   7.227 -2.2685  0.7607  2.9478
  152MOL0     H20472   4.652   0.517   7.146 -2.4878  0.1048 -0.7621
  152MOL0     H20473   4.645   0.585   7.311 -2.7684  0.2340  1.0237
  152MOL0     H20474   4.626   0.353   7.407  0.3794  1.2055  0.0893
  152MOL0     H20475   4.677   0.296   7.247 -1.6368  0.4967  0.1067
  152MOL0     H20476   4.796   0.492   7.438 -0.9758 -2.2071  1.7189
  152MOL0     H20477   4.878   0.473   7.280  2.1339 -1.4603  0.4712
  152MOL0     H20478   4.894   0.224   7.354  1.5490 -0.4163  0.1446
  152MOL0     H20479   4.870   0.279   7.520  0.1487 -2.5546 -0.5711
  152MOL0     H20480   5.017   0.082   7.513  0.6578 -0.6969  0.2944
  152MOL0     H20481   5.196  -0.066   7.571 -0.1256 -0.9118 -3.1153
  152MOL0     H20482   5.665  -0.168   7.716 -1.3026  2.5742  0.3786
  152MOL0     H20483   5.906  -0.222   7.750 -0.0019  0.7702  0.9971
  152MOL0     H20484   6.090  -0.098   7.846 -1.6380  0.6984 -0.9475
  152MOL0     H20485   6.114  -0.270   7.785 -0.4210  0.1903 -1.2865
  152MOL0     H20486   6.340  -0.227   7.706  1.6059 -0.1026  1.3592
  152MOL0     H20487   6.326  -0.056   7.767 -0.9164  0.8925 -1.2640
  152MOL0     H20488   6.456  -0.204   7.937 -0.1728 -2.2095  1.9104
  152MOL0     H20489   6.304  -0.122   7.988  0.9884  3.8048 -3.1705
  152MOL0     H20490   6.285  -0.395   7.877 -1.1121 -1.4752  0.4561
  152MOL0     H20491   6.187  -0.315   7.994  0.4545  1.0295  0.8563
  152MOL0     H20492   6.380  -0.330   8.170 -1.3770 -0.5672  0.0602
  152MOL0     H20493   6.480  -0.411   8.056  0.4895 -2.8323  3.0325
  152MOL0     H20494   6.410  -0.587   8.206 -3.4321  1.6366  3.1293
  152MOL0     H20495   6.240  -0.540   8.165 -1.7021  0.8758 -1.3500
  152MOL0     H20496   6.472  -0.624   7.983  0.1341 -1.0150  0.2330
  152MOL0     H20497   6.304  -0.607   7.929  0.7675 -3.8702 -1.2899
  152MOL0     H20498   6.422  -0.827   8.109 -0.2137 -4.0980 -2.7917
  152MOL0     H20499   6.251  -0.797   8.086  0.0518 -0.9235  1.1692
  152MOL0     H20500   6.021   0.055   7.463 -1.3307  1.7536 -0.2890
  152MOL0     H20501   5.781   0.131   7.426  1.6407  0.2233 -0.6063
  152MOL0     H20502   5.472   0.242   7.473 -0.3299  0.8951 -0.9958
  152MOL0     H20503   5.291   0.394   7.414  0.8784  0.0575 -0.3004
  152MOL0     H20504   3.327   0.529   7.673 -3.6253 -0.3605 -1.0809
  152MOL0     H20505   3.089   0.551   7.719  1.5923 -0.1342 -2.1235
  152MOL0     H20506   2.851   0.744   8.222 -0.0600  1.4213 -0.0514
  152MOL0     H20507   2.627   0.775   8.297  1.5175  0.2992  0.0968
  152MOL0     H20508   2.275   0.589   8.086 -1.7658  1.0647 -0.4907
  152MOL0     H20509   2.301   0.722   7.978  0.1614 -1.6371 -0.2137
  152MOL0     H20510   2.184   0.865   8.141  2.4633 -0.4412 -1.0610
  152MOL0     H20511   2.179   0.725   8.253  0.2310 -3.7521 -1.7101
  152MOL0     H20512   2.053   0.591   8.063 -0.6441 -0.9255 -0.7546
  152MOL0     H20513   2.032   0.755   7.981 -0.7099  1.2167  1.3341
  152MOL0     H20514   1.925   0.673   8.246 -1.0356  0.3673  0.4460
  152MOL0     H20515   1.921   0.839   8.171 -3.0769 -0.2435 -1.0581
  152MOL0     H20516   1.628   0.619   7.960  0.5082  0.6811 -0.4328
  152MOL0     H20517   2.480   0.617   7.922  0.8171  0.3553 -0.6681
  152MOL0     H20518   2.716   0.637   7.740 -0.6326 -0.3445 -0.6050
  152MOL0     H20519   2.803   0.493   7.799  0.4410  0.5128  1.2259
  152MOL0     H20520   2.630   0.486   7.792 -1.4342 -0.1652  1.3657
  153MOL0     O20521   5.262   0.980   1.579 -0.6939 -0.6430 -0.0440
  153MOL0     C20522   5.210   0.997   1.470  0.0772  0.9990  0.3613
  153MOL0     O20523   5.266   1.070   1.363  0.2143  0.9872  0.1773
  153MOL0     C20524   5.385   1.129   1.380  0.1886  0.1254 -0.0565
  153MOL0     C20525   5.423   1.205   1.488  0.3460 -0.0944  0.4973
  153MOL0     C20526   5.551   1.268   1.498  0.1134 -0.6234 -0.4193
  153MOL0     C20527   5.637   1.250   1.393  0.0729  0.4223  0.3245
  153MOL0     O20528   5.766   1.296   1.391  0.1064 -0.3039 -0.7441
  153MOL0     C20529   5.777   1.433   1.421  0.2866  0.5694  0.4290
  153MOL0     C20530   5.906   1.487   1.358 -0.1262 -0.3945 -0.1334
  153MOL0     C20531   6.036   1.426   1.418 -0.2221 -0.0802 -0.6584
  153MOL0     C20532   6.161   1.497   1.373 -0.2341  0.0625  0.9827
  153MOL0     C20533   6.276   1.438   1.455 -0.1317  0.8430  0.2985
  153MOL0     C20534   6.326   1.300   1.404  0.1060 -0.0039  0.2552
  153MOL0     C20535   6.445   1.246   1.501  0.1543 -1.2964 -1.2846
  153MOL0     C20536   6.472   1.096   1.474  0.3158  0.6464 -1.0904
  153MOL0     N20537   6.549   1.080   1.351 -1.0737  0.4479  0.1660
  153MOL0     C20538   6.689   1.074   1.364  0.5250  0.1741 -0.0890
  153MOL0     C20539   6.732   1.080   1.230  0.5515  0.3610 -0.3586
  153MOL0     C20540   6.873   1.050   1.178  0.7687 -0.3386 -0.2864
  153MOL0     C20541   6.989   1.133   1.245  0.0647 -0.5935 -0.6740
  153MOL0     C20542   7.000   1.284   1.200 -0.3436 -0.1213  0.6995
  153MOL0     C20543   7.071   1.308   1.063 -0.3694 -0.7974  0.5671
  153MOL0     O20544   7.031   1.430   1.004  0.0182  0.0455  0.4562
  153MOL0     C20545   6.915   1.438   0.930  0.3665  0.8851  0.1692
  153MOL0     C20546   6.814   1.339   0.923 -0.9579 -0.1627  0.1081
  153MOL0     C20547   6.697   1.351   0.845 -0.4931 -0.3676 -0.5260
  153MOL0     C20548   6.697   1.454   0.743  0.4333  0.4130 -0.3862
  153MOL0     C20549   6.593   1.451   0.634  0.0647  0.9557 -0.2982
  153MOL0     O20550   6.501   1.348   0.638 -0.8505  0.8903 -0.3992
  153MOL0     C20551   6.388   1.346   0.556 -0.0622 -0.3623  0.2001
  153MOL0     C20552   6.352   1.444   0.463  0.1273 -0.6422 -0.1025
  153MOL0     C20553   6.241   1.414   0.380  0.0613 -0.0339  0.5594
  153MOL0     C20554   6.150   1.304   0.405 -0.5057 -0.0454  0.8935
  153MOL0     O20555   6.054   1.275   0.319  0.2322  0.9962 -0.5548
  153MOL0     C20556   5.926   1.347   0.333 -0.2169 -0.6006 -0.0792
  153MOL0     C20557   5.841   1.321   0.206  0.0135 -0.4633 -0.8246
  153MOL0     C20558   5.695   1.358   0.228 -0.2149  0.1584  1.1675
  153MOL0     C20559   5.617   1.264   0.312 -0.9757 -0.0537  0.5867
  153MOL0     C20560   5.464   1.306   0.306 -0.3451  0.3136 -1.2404
  153MOL0     C20561   5.368   1.188   0.338 -0.4443 -0.6482 -0.0038
  153MOL0     C20562   5.223   1.216   0.304 -0.5301  0.6794  0.0995
  153MOL0     C20563   5.144   1.232   0.431  0.2817 -0.5682  0.2616
  153MOL0    Cl20564   5.153   1.092   0.532 -0.1930  0.4057  0.2718
  153MOL0     C20565   6.197   1.214   0.494 -0.0375 -0.1677  0.9458
  153MOL0     C20566   6.316   1.231   0.573 -0.0123 -0.0540  0.2926
  153MOL0     O20567   6.580   1.553   0.569 -0.1317 -0.4725  0.4539
  153MOL0     C20568   6.809   1.543   0.744  0.7954  0.6353  0.4419
  153MOL0     C20569   6.912   1.544   0.837  0.4546  0.9026  0.0887
  153MOL0     N20570   6.626   1.081   1.150 -0.1699  0.3145 -0.3738
  153MOL0     N20571   6.515   1.094   1.223 -0.1885 -0.3917  1.4160
  153MOL0     C20572   5.611   1.156   1.284 -1.3488 -1.4606 -0.7319
  153MOL0     C20573   5.485   1.095   1.284 -0.2606 -0.1138  0.3202
  153MOL0     C20574   5.086   0.917   1.438  0.0926 -0.3850 -0.6067
  153MOL0     C20575   5.056   0.876   1.310 -0.3663 -1.0436 -0.4235
  153MOL0     C20576   4.933   0.827   1.269  1.4161 -0.3088 -0.4561
  153MOL0     C20577   4.834   0.802   1.364  0.2748  0.3942  0.5372
  153MOL0     O20578   4.707   0.763   1.320 -0.1273  0.4159 -0.7663
  153MOL0     C20579   4.651   0.755   1.181 -0.0662  0.3703  0.3786
  153MOL0     C20580   4.621   0.891   1.121  0.0611  0.6448  0.5896
  153MOL0     C20581   4.503   0.962   1.183 -0.1004  0.9772 -0.0458
  153MOL0     C20582   4.430   1.059   1.099 -0.2209 -1.1200 -0.1207
  153MOL0     C20583   4.519   1.171   1.067 -1.0893  0.0160 -0.6190
  153MOL0     C20584   4.595   1.264   1.032  0.2279  0.0374 -0.7216
  153MOL0     C20585   4.867   0.808   1.498  0.8053 -1.2159  1.1739
  153MOL0     C20586   4.990   0.877   1.542  0.2884 -0.1376  0.6459
  153MOL0     C20587   5.002   0.897   1.693 -0.5653 -0.5917 -0.5630
  153MOL0     H20588   5.362   1.221   1.576  0.5391 -0.2129  0.6534
  153MOL0     H20589   5.581   1.333   1.580  0.1571  0.3948 -1.2193
  153MOL0     H20590   5.694   1.488   1.375 -0.3940 -1.9119 -1.5693
  153MOL0     H20591   5.781   1.456   1.528  1.4896  0.5266  0.4015
  153MOL0     H20592   5.906   1.596   1.367  0.3025 -0.1727 -2.3714
  153MOL0     H20593   5.910   1.462   1.252  4.2733 -0.1715 -0.2199
  153MOL0     H20594   6.037   1.320   1.390 -0.5555  0.0484 -1.1581
  153MOL0     H20595   6.036   1.446   1.526  2.2808 -1.5593 -0.3007
  153MOL0     H20596   6.177   1.475   1.267  0.5529  1.0541  0.8833
  153MOL0     H20597   6.158   1.603   1.400  0.3022  1.3603 -3.3306
  153MOL0     H20598   6.359   1.505   1.434  0.2819  0.7580  1.5945
  153MOL0     H20599   6.255   1.428   1.562 -1.5518 -0.3885 -0.0582
  153MOL0     H20600   6.249   1.222   1.402 -2.2011  2.1761  0.6405
  153MOL0     H20601   6.375   1.312   1.306  1.1064 -3.8538  0.1133
  153MOL0     H20602   6.401   1.242   1.601 -1.1107  0.7912 -1.6986
  153MOL0     H20603   6.529   1.314   1.483  0.0265 -1.0484 -0.9494
  153MOL0     H20604   6.518   1.053   1.564 -0.6843 -0.4257 -1.0598
  153MOL0     H20605   6.384   1.035   1.452  0.4312 -0.5846  1.4771
  153MOL0     H20606   6.754   1.066   1.452  1.2195  3.3435 -0.2047
  153MOL0     H20607   6.893   0.947   1.208  0.4706 -0.0013  1.1258
  153MOL0     H20608   6.875   1.063   1.069  0.1963  1.7202 -0.0968
  153MOL0     H20609   6.971   1.119   1.351 -0.2069 -2.7833 -0.9751
  153MOL0     H20610   7.085   1.085   1.225  0.7060  1.0613 -1.8347
  153MOL0     H20611   7.065   1.333   1.273  0.4255 -1.5877  1.0334
  153MOL0     H20612   6.904   1.336   1.200  0.6634  1.8710 -0.3283
  153MOL0     H20613   7.052   1.227   0.991 -1.0750 -1.0078  0.9769
  153MOL0     H20614   7.179   1.304   1.077 -0.4664 -0.7719  1.3814
  153MOL0     H20615   6.827   1.255   0.991  2.2946  0.5839  0.5529
  153MOL0     H20616   6.611   1.284   0.843 -2.1942  1.7033 -3.0263
  153MOL0     H20617   6.403   1.536   0.437  1.2365 -1.3576 -0.5435
  153MOL0     H20618   6.226   1.462   0.283  0.2509 -0.1786  0.4568
  153MOL0     H20619   5.884   1.332   0.433  0.0082  1.5974  0.3949
  153MOL0     H20620   5.933   1.456   0.328 -0.6489 -0.5899 -0.7057
  153MOL0     H20621   5.880   1.384   0.125  0.6590  0.3844  0.1114
  153MOL0     H20622   5.861   1.215   0.190  5.1275  0.2383 -0.7837
  153MOL0     H20623   5.687   1.459   0.271 -1.3245  0.5190  0.1760
  153MOL0     H20624   5.648   1.363   0.129  0.3949 -0.6029  0.8342
  153MOL0     H20625   5.653   1.273   0.415  0.8094  2.2720 -0.1697
  153MOL0     H20626   5.635   1.161   0.278  1.5375  0.5571 -0.1084
  153MOL0     H20627   5.440   1.337   0.203  2.4811 -0.2583 -2.1447
  153MOL0     H20628   5.438   1.384   0.378  1.2749 -1.2606  1.1444
  153MOL0     H20629   5.397   1.099   0.282  1.7777  0.1102 -0.1230
  153MOL0     H20630   5.379   1.176   0.446  1.4659 -1.1203 -0.2193
  153MOL0     H20631   5.170   1.132   0.258 -1.1920  0.2416  1.5933
  153MOL0     H20632   5.216   1.302   0.236  0.4419  0.0312 -0.8436
  153MOL0     H20633   5.165   1.330   0.474 -4.2732  1.0514 -0.5664
  153MOL0     H20634   5.036   1.234   0.413  0.2079 -1.1710  0.6062
  153MOL0     H20635   6.143   1.120   0.501  0.9412 -0.8820 -0.6709
  153MOL0     H20636   6.348   1.161   0.649  1.2162 -0.4332 -0.5442
  153MOL0     H20637   6.814   1.611   0.660 -0.5583 -0.5422 -0.6647
  153MOL0     H20638   6.995   1.614   0.840 -0.5811  2.1420  1.4225
  153MOL0     H20639   5.691   1.144   1.211  0.1948  1.6882  0.2680
  153MOL0     H20640   5.467   1.027   1.201  0.2483 -1.1008  0.9919
  153MOL0     H20641   5.132   0.891   1.234 -0.5185 -1.1333 -0.5921
  153MOL0     H20642   4.921   0.820   1.161  1.4583 -2.7610 -0.3592
  153MOL0     H20643   4.561   0.694   1.172 -0.2271  0.9017 -2.6578
  153MOL0     H20644   4.735   0.710   1.128  1.6609 -1.2347  4.1098
  153MOL0     H20645   4.594   0.870   1.017 -5.7018 -0.0985  1.8814
  153MOL0     H20646   4.710   0.954   1.128  0.5385  0.2962 -1.7267
  153MOL0     H20647   4.550   1.018   1.265 -0.4191  2.2340 -0.6896
  153MOL0     H20648   4.437   0.883   1.219  2.1768 -0.5080  1.1189
  153MOL0     H20649   4.380   1.007   1.017  0.8109 -0.8541 -0.9400
  153MOL0     H20650   4.350   1.097   1.163 -0.5589  0.7041 -1.5600
  153MOL0     H20651   4.661   1.342   1.001 -0.8922 -0.0407 -3.5692
  153MOL0     H20652   4.793   0.785   1.574 -2.4927  1.0974 -1.0580
  153MOL0     H20653   4.904   0.889   1.739 -0.7702  1.3825 -0.5691
  153MOL0     H20654   5.077   0.836   1.745  0.0971  0.4018 -0.3124
  153MOL0     H20655   5.042   0.996   1.717  2.4172 -1.7781 -0.1988
  154MOL0     O20656  10.068   3.874   6.130  0.3911  0.5650 -0.1318
  154MOL0     C20657   9.991   3.783   6.175  0.5745 -0.2578  0.0067
  154MOL0     O20658  10.029   3.680   6.255  0.0382  0.5557  0.3045
  154MOL0     C20659  10.158   3.655   6.278  1.6261 -0.0975 -0.3551
  154MOL0     C20660  10.265   3.656   6.188 -0.8075  0.6094 -0.3071
  154MOL0     C20661  10.390   3.619   6.230 -0.3713  1.1013  0.6589
  154MOL0     C20662  10.413   3.588   6.362 -0.0182  0.6238 -0.0240
  154MOL0     O20663  10.539   3.559   6.410  0.0911 -0.1847  0.6789
  154MOL0     C20664  10.648   3.639   6.375 -0.2438  0.0434 -0.9627
  154MOL0     C20665  10.784   3.603   6.446  0.1823 -0.1253  0.1563
  154MOL0     C20666  10.841   3.475   6.373  0.1020 -0.2916 -0.1133
  154MOL0     C20667  10.984   3.438   6.404  0.3726 -0.0605  0.0629
  154MOL0     C20668  11.026   3.314   6.316 -0.2585 -0.0372  0.0729
  154MOL0     C20669  11.170   3.278   6.348  0.7698  1.0920 -0.4425
  154MOL0     C20670  11.265   3.390   6.355 -0.4132  0.3197 -0.1530
  154MOL0     C20671  11.275   3.475   6.222  0.1084 -0.3350 -0.9916
  154MOL0     N20672  11.364   3.587   6.237 -1.0526  0.2207  0.4707
  154MOL0     C20673  11.501   3.563   6.205  0.2888  0.2995 -0.9272
  154MOL0     C20674  11.559   3.680   6.233  0.5395 -0.0405 -0.4581
  154MOL0     C20675  11.703   3.718   6.235  0.0422 -1.1368 -0.3767
  154MOL0     C20676  11.752   3.814   6.118 -0.3882 -0.2510  0.2492
  154MOL0     C20677  11.889   3.858   6.146 -0.3823 -0.4588  0.1130
  154MOL0     C20678  11.995   3.749   6.124 -0.5345  0.3094  0.6704
  154MOL0     O20679  12.001   3.710   5.992  0.4393  0.4398 -0.3549
  154MOL0     C20680  12.125   3.690   5.946 -0.0863  0.1821 -0.4101
  154MOL0     C20681  12.197   3.568   5.961 -0.2100  0.2897 -0.5419
  154MOL0     C20682  12.332   3.560   5.912 -0.0168 -0.2111 -0.2737
  154MOL0     C20683  12.387   3.684   5.861  0.2213  0.0331  0.4986
  154MOL0     C20684  12.532   3.706   5.843  0.2910 -0.3437 -0.0135
  154MOL0     O20685  12.574   3.810   5.759 -0.5892 -1.1632 -0.1401
  154MOL0     C20686  12.707   3.818   5.748 -0.5616 -0.4860 -1.2623
  154MOL0     C20687  12.759   3.942   5.779  0.1082 -1.5789  0.6927
  154MOL0     C20688  12.896   3.961   5.787 -0.2240  0.3948  0.0219
  154MOL0     C20689  12.989   3.862   5.751  0.0903 -0.3024  0.3168
  154MOL0     O20690  13.114   3.898   5.739 -0.3372 -0.2616 -0.2476
  154MOL0     C20691  13.211   3.789   5.725 -0.5076  0.4764 -0.9312
  154MOL0     C20692  13.351   3.836   5.714  0.0197 -0.4067 -0.3688
  154MOL0     C20693  13.412   3.922   5.835  0.9889 -0.1744 -0.1587
  154MOL0     C20694  13.325   4.045   5.871  0.4068 -0.4786 -0.3622
  154MOL0     C20695  13.415   4.139   5.961  0.5186 -0.5977  0.0433
  154MOL0     C20696  13.504   4.233   5.876 -0.6051 -0.2515 -0.1003
  154MOL0     C20697  13.547   4.358   5.939 -0.1276 -0.0384 -0.0176
  154MOL0     C20698  13.433   4.459   5.972 -0.1413  0.3161 -0.0671
  154MOL0    Cl20699  13.382   4.534   5.820 -0.0382  0.3525 -0.4036
  154MOL0     C20700  12.943   3.736   5.720  0.3385 -0.0789 -0.2838
  154MOL0     C20701  12.802   3.713   5.716 -0.4834  0.3678  0.3190
  154MOL0     O20702  12.598   3.622   5.904 -0.3586 -0.0875  0.0003
  154MOL0     C20703  12.310   3.796   5.831 -0.2590 -0.5808  0.2615
  154MOL0     C20704  12.183   3.801   5.881  0.3854  0.8867  0.2640
  154MOL0     N20705  11.456   3.767   6.269 -0.4317 -0.0525 -0.3750
  154MOL0     N20706  11.338   3.711   6.279 -0.1658 -0.4310  0.4154
  154MOL0     C20707  10.309   3.591   6.456 -0.2002  0.4009 -0.3095
  154MOL0     C20708  10.182   3.621   6.410 -0.1581 -0.6971  0.1685
  154MOL0     C20709   9.849   3.780   6.143  0.0635 -0.3482  0.6415
  154MOL0     C20710   9.772   3.744   6.249 -0.2412 -0.0071  0.3487
  154MOL0     C20711   9.627   3.762   6.245  0.6228 -0.0545  0.1659
  154MOL0     C20712   9.572   3.808   6.123 -0.2833 -0.6557  0.6243
  154MOL0     O20713   9.439   3.843   6.111  0.4840  0.3417  0.1796
  154MOL0     C20714   9.352   3.723   6.109 -0.0038  0.0916  0.2932
  154MOL0     C20715   9.334   3.664   5.974  0.0016  0.1761  0.3277
  154MOL0     C20716   9.291   3.771   5.870  0.5037  0.5103  0.2779
  154MOL0     C20717   9.241   3.699   5.746  0.1207 -0.0905 -0.0800
  154MOL0     C20718   9.193   3.800   5.650 -0.1500 -0.2189 -0.4061
  154MOL0     C20719   9.159   3.870   5.561  0.4339 -0.4405  0.2512
  154MOL0     C20720   9.658   3.835   6.017 -0.3705 -0.3813 -0.2692
  154MOL0     C20721   9.793   3.823   6.019 -0.2793 -0.4528 -0.0683
  154MOL0     C20722   9.867   3.859   5.887 -0.4478 -0.2406  0.2416
  154MOL0     H20723  10.242   3.696   6.090 -1.2528  1.4171  0.1189
  154MOL0     H20724  10.470   3.620   6.157 -0.2071 -1.2174  0.7340
  154MOL0     H20725  10.658   3.638   6.267 -0.3566 -0.4892 -0.9752
  154MOL0     H20726  10.629   3.746   6.390 -0.5022  0.3765 -3.3232
  154MOL0     H20727  10.770   3.580   6.552  2.3051 -1.7215  0.1579
  154MOL0     H20728  10.845   3.693   6.434 -0.2486  0.7635  3.5721
  154MOL0     H20729  10.840   3.511   6.270  1.1171 -0.1963 -0.0951
  154MOL0     H20730  10.776   3.387   6.383  0.3388 -0.4436  0.0869
  154MOL0     H20731  11.053   3.523   6.396  1.9942 -1.4107 -1.0095
  154MOL0     H20732  10.991   3.414   6.511  1.1959 -0.6786 -0.1187
  154MOL0     H20733  10.955   3.236   6.346  0.2453 -1.2578 -1.7435
  154MOL0     H20734  11.011   3.324   6.208 -3.0831 -0.6847  0.3310
  154MOL0     H20735  11.181   3.235   6.448 -1.5437 -2.2610 -1.4527
  154MOL0     H20736  11.203   3.204   6.274 -1.0137  0.7979 -0.9834
  154MOL0     H20737  11.365   3.347   6.365 -0.4399  0.6640  2.0861
  154MOL0     H20738  11.247   3.447   6.446  1.7771  2.2587 -0.8083
  154MOL0     H20739  11.306   3.421   6.132 -1.9678 -0.7649 -1.4924
  154MOL0     H20740  11.174   3.513   6.204 -0.1624 -0.0928  0.8763
  154MOL0     H20741  11.552   3.470   6.183  3.3029  1.5443  0.1618
  154MOL0     H20742  11.719   3.759   6.334 -0.5888  0.0229 -0.7331
  154MOL0     H20743  11.753   3.621   6.235  1.4003 -0.4695 -1.2017
  154MOL0     H20744  11.743   3.773   6.017 -2.3003  1.0569 -0.1690
  154MOL0     H20745  11.693   3.905   6.134 -1.7583 -1.5619  3.4475
  154MOL0     H20746  11.911   3.899   6.244  0.4845 -0.5272 -0.0389
  154MOL0     H20747  11.918   3.940   6.079 -2.1519  0.1925  0.1002
  154MOL0     H20748  11.968   3.664   6.187  0.0756  0.7405  1.5407
  154MOL0     H20749  12.093   3.786   6.158 -0.5255  0.9687 -0.0502
  154MOL0     H20750  12.148   3.483   6.008  0.6535 -1.2223 -2.2583
  154MOL0     H20751  12.399   3.477   5.932  1.5962  1.2148  0.4932
  154MOL0     H20752  12.700   4.030   5.803  4.6030  1.3823  2.0059
  154MOL0     H20753  12.923   4.062   5.818 -0.2031  0.1433  0.8460
  154MOL0     H20754  13.194   3.712   5.801 -0.8194  0.8271 -0.6446
  154MOL0     H20755  13.186   3.747   5.627 -0.1161 -1.2269 -0.3353
  154MOL0     H20756  13.410   3.745   5.709  1.5996  0.6282 -1.1790
  154MOL0     H20757  13.371   3.903   5.630  1.1843  1.0878  1.0400
  154MOL0     H20758  13.432   3.858   5.921  2.4651  0.2543 -0.1638
  154MOL0     H20759  13.506   3.963   5.799  0.3097  2.3860  0.7564
  154MOL0     H20760  13.239   4.015   5.931  2.7631 -0.6300  3.3183
  154MOL0     H20761  13.298   4.100   5.780  1.5566 -2.1258 -1.7641
  154MOL0     H20762  13.476   4.081   6.031 -1.0762 -1.5233  0.7278
  154MOL0     H20763  13.351   4.188   6.035 -0.1461  0.5977 -1.2862
  154MOL0     H20764  13.584   4.171   5.836 -1.5553 -0.8877 -1.0471
  154MOL0     H20765  13.454   4.267   5.785 -0.1696  1.5958  0.2949
  154MOL0     H20766  13.618   4.403   5.870  0.8443 -1.6242 -0.0974
  154MOL0     H20767  13.606   4.332   6.028  2.0970  1.0162 -1.1049
  154MOL0     H20768  13.340   4.417   6.013 -0.5687  2.9132  1.9372
  154MOL0     H20769  13.461   4.533   6.048 -2.3405  2.6558 -1.3575
  154MOL0     H20770  13.000   3.647   5.693 -0.5036 -0.6589 -0.1900
  154MOL0     H20771  12.763   3.615   5.691 -0.2770  0.2736  0.3679
  154MOL0     H20772  12.349   3.876   5.770 -2.0098 -0.8188 -1.2748
  154MOL0     H20773  12.125   3.891   5.861 -1.9869 -0.3083  1.3068
  154MOL0     H20774  10.325   3.569   6.561  0.4712 -0.9445 -0.6761
  154MOL0     H20775  10.098   3.626   6.479 -0.8712  1.5996 -0.7720
  154MOL0     H20776   9.819   3.706   6.340  0.6373  0.3409  0.0541
  154MOL0     H20777   9.564   3.741   6.332  2.4563 -0.5102  1.4439
  154MOL0     H20778   9.254   3.758   6.142 -0.0013 -0.8165  1.3110
  154MOL0     H20779   9.397   3.653   6.179  0.2424  0.5139  0.5638
  154MOL0     H20780   9.260   3.584   5.980  1.8746 -1.7030 -0.1739
  154MOL0     H20781   9.429   3.615   5.948 -0.3818 -2.6070  3.4259
  154MOL0     H20782   9.377   3.826   5.832 -0.8984  0.6318 -3.0879
  154MOL0     H20783   9.221   3.845   5.911  1.3344  1.7430 -0.4668
  154MOL0     H20784   9.329   3.664   5.692  0.9148  1.1984  0.2986
  154MOL0     H20785   9.169   3.619   5.764 -0.0969  0.1761  0.2476
  154MOL0     H20786   9.129   3.945   5.491 -0.4289 -0.4830  0.5620
  154MOL0     H20787   9.618   3.856   5.918  0.7011  0.2171 -0.5887
  154MOL0     H20788   9.975   3.848   5.900 -0.2051  0.0299 -1.3476
  154MOL0     H20789   9.836   3.794   5.805 -0.8881  1.3563 -0.9030
  154MOL0     H20790   9.839   3.961   5.858 -2.8321  0.3867  4.0531
  155MOL0     O20791   5.235   4.717   2.836 -0.7974 -0.4850 -0.3658
  155MOL0     C20792   5.247   4.836   2.838  0.1676  0.0348 -0.3958
  155MOL0     O20793   5.368   4.897   2.850 -0.7290 -0.0123 -0.2113
  155MOL0     C20794   5.485   4.825   2.867 -0.0808  0.5796  0.1499
  155MOL0     C20795   5.506   4.725   2.962  0.1648  0.0800 -0.8145
  155MOL0     C20796   5.638   4.668   2.982  0.2861 -0.1988 -0.6835
  155MOL0     C20797   5.753   4.695   2.906  0.6228 -0.3143  0.5176
  155MOL0     O20798   5.872   4.636   2.932 -0.0640 -0.0743 -0.5936
  155MOL0     C20799   5.985   4.666   2.848 -0.2796  0.7240 -0.3551
  155MOL0     C20800   6.085   4.554   2.885 -0.3577  0.2784 -0.7180
  155MOL0     C20801   6.135   4.568   3.026 -0.0871  0.5662  0.8178
  155MOL0     C20802   6.242   4.467   3.048  0.4717  0.3246  0.0753
  155MOL0     C20803   6.325   4.510   3.170 -0.3678 -0.0703 -0.5538
  155MOL0     C20804   6.404   4.400   3.238  0.3801  0.7411  1.1226
  155MOL0     C20805   6.474   4.441   3.357  1.2510 -0.0142 -0.5789
  155MOL0     C20806   6.560   4.325   3.423  0.3571 -0.8390  0.3817
  155MOL0     N20807   6.656   4.396   3.508  0.6138  0.0221 -0.3438
  155MOL0     C20808   6.771   4.342   3.542 -0.2926 -0.1410  0.3676
  155MOL0     C20809   6.827   4.413   3.639 -0.0381 -0.3753  0.2019
  155MOL0     C20810   6.949   4.361   3.696 -0.2230  0.4587  0.0246
  155MOL0     C20811   7.082   4.393   3.623 -0.5528 -0.2201 -0.7405
  155MOL0     C20812   7.120   4.536   3.649  0.0016 -1.0593  1.1198
  155MOL0     C20813   7.254   4.576   3.579  0.6045 -0.2518 -0.8418
  155MOL0     O20814   7.268   4.560   3.435  0.4477 -0.2216  0.0478
  155MOL0     C20815   7.390   4.584   3.378 -0.7301 -0.3885  0.2262
  155MOL0     C20816   7.400   4.573   3.244  0.0958  0.4075  0.9398
  155MOL0     C20817   7.522   4.593   3.181  0.5685  0.3313  0.3278
  155MOL0     C20818   7.643   4.625   3.250 -0.2300 -0.3106  0.4835
  155MOL0     C20819   7.778   4.642   3.191  0.6191 -0.0215 -0.1100
  155MOL0     O20820   7.777   4.641   3.050 -0.0324  0.6801 -0.2780
  155MOL0     C20821   7.896   4.689   2.997  0.7641 -0.9830  0.2133
  155MOL0     C20822   8.018   4.614   3.006  0.5172  0.2309  0.3309
  155MOL0     C20823   8.139   4.678   2.954 -0.0916  0.1570 -1.0049
  155MOL0     C20824   8.141   4.804   2.901 -0.9864  0.5953 -0.1444
  155MOL0     O20825   8.254   4.842   2.830 -0.2046  0.3552 -0.2575
  155MOL0     C20826   8.368   4.849   2.922  0.5444 -0.2361 -0.1170
  155MOL0     C20827   8.500   4.831   2.846 -0.6629 -0.0928 -0.1918
  155MOL0     C20828   8.602   4.736   2.913 -0.2308  0.8683 -0.0638
  155MOL0     C20829   8.646   4.795   3.045  0.0596  0.4230 -0.5823
  155MOL0     C20830   8.756   4.727   3.119  0.1682  0.6600  0.0401
  155MOL0     C20831   8.781   4.794   3.258  0.4261  0.4120 -0.4743
  155MOL0     C20832   8.907   4.740   3.322 -0.6759  0.6046  0.5212
  155MOL0     C20833   8.917   4.763   3.467 -0.5068 -0.0475 -0.0091
  155MOL0    Cl20834   9.059   4.668   3.528 -0.1260 -0.0368  0.0924
  155MOL0     C20835   8.020   4.876   2.903 -0.0022  0.1404 -0.0711
  155MOL0     C20836   7.902   4.824   2.957  0.6599  0.2079  0.2463
  155MOL0     O20837   7.863   4.682   3.265  1.4297 -0.5061 -0.2883
  155MOL0     C20838   7.636   4.640   3.390  0.2499  0.4251  0.6401
  155MOL0     C20839   7.510   4.627   3.451  0.5296  0.5918 -1.1102
  155MOL0     N20840   6.733   4.509   3.678  0.0922  0.3265 -0.0941
  155MOL0     N20841   6.631   4.489   3.601 -0.0744 -0.3432 -0.5008
  155MOL0     C20842   5.731   4.783   2.801  0.3017  0.4681  0.0345
  155MOL0     C20843   5.604   4.849   2.787 -0.8028  0.1857 -0.9870
  155MOL0     C20844   5.129   4.915   2.805 -0.4366 -0.3075 -0.0163
  155MOL0     C20845   5.002   4.852   2.826 -0.6200 -0.6464 -0.3330
  155MOL0     C20846   4.886   4.913   2.781  0.4323 -0.5487  0.2806
  155MOL0     C20847   4.885   5.036   2.726 -0.8883  0.7306  0.3234
  155MOL0     O20848   4.782   5.108   2.672 -0.5719 -0.1533  0.2218
  155MOL0     C20849   4.655   5.045   2.654  0.4629  0.8218  0.6022
  155MOL0     C20850   4.581   5.067   2.780 -0.4498  0.3019  0.0667
  155MOL0     C20851   4.453   4.969   2.770 -0.0817 -0.0389  0.2247
  155MOL0     C20852   4.370   4.995   2.894 -0.6179 -0.3964 -0.3136
  155MOL0     C20853   4.242   4.922   2.874  0.0805 -0.2839 -0.4480
  155MOL0     C20854   4.134   4.873   2.843  0.0656  0.6818  0.0487
  155MOL0     C20855   5.006   5.102   2.721 -0.5452  0.4682  0.6840
  155MOL0     C20856   5.136   5.049   2.745  0.6321  0.3231 -1.2302
  155MOL0     C20857   5.256   5.126   2.712  0.1506 -0.3616  0.3926
  155MOL0     H20858   5.424   4.705   3.030  1.8725 -0.0590  1.3101
  155MOL0     H20859   5.641   4.595   3.062 -2.6545 -1.9099 -1.9291
  155MOL0     H20860   5.963   4.651   2.742  2.6749  0.0603 -0.9806
  155MOL0     H20861   6.036   4.762   2.858 -1.4039  1.4500 -1.2837
  155MOL0     H20862   6.174   4.553   2.823  0.0842 -0.4718 -0.0987
  155MOL0     H20863   6.040   4.459   2.856 -1.9265  1.0649 -0.9418
  155MOL0     H20864   6.060   4.550   3.104 -2.2257  1.4264 -0.9194
  155MOL0     H20865   6.179   4.667   3.041  1.1536 -0.1722  2.3490
  155MOL0     H20866   6.196   4.368   3.056 -0.4765  0.5306 -2.0314
  155MOL0     H20867   6.313   4.465   2.965  0.5107  0.1652  0.1124
  155MOL0     H20868   6.389   4.594   3.146 -1.5235  1.5251  1.6033
  155MOL0     H20869   6.254   4.556   3.239 -1.0363  0.8180 -1.7982
  155MOL0     H20870   6.335   4.320   3.268  1.0300 -2.8293 -5.1671
  155MOL0     H20871   6.474   4.353   3.169  0.1356 -0.5361  1.7147
  155MOL0     H20872   6.392   4.447   3.429  0.7716 -2.0022 -0.8967
  155MOL0     H20873   6.524   4.536   3.338  0.8692 -0.4284 -4.3825
  155MOL0     H20874   6.504   4.258   3.489  0.9622 -0.4331  1.3322
  155MOL0     H20875   6.612   4.275   3.341  0.5332 -0.7308  0.4266
  155MOL0     H20876   6.819   4.257   3.495  2.1228  1.3936 -0.1104
  155MOL0     H20877   6.951   4.385   3.803 -1.9846  1.4176 -0.1206
  155MOL0     H20878   6.945   4.252   3.699  1.4759  0.3825  1.2290
  155MOL0     H20879   7.165   4.325   3.643 -0.1350  0.4275 -0.2749
  155MOL0     H20880   7.062   4.379   3.516  1.2763 -1.2497 -0.9857
  155MOL0     H20881   7.137   4.558   3.755 -0.8267  2.4409  0.6366
  155MOL0     H20882   7.040   4.603   3.617  1.2535  0.2158  0.5764
  155MOL0     H20883   7.335   4.518   3.624  0.4735 -0.1726 -0.4999
  155MOL0     H20884   7.269   4.678   3.616 -1.2718 -1.1369  2.7901
  155MOL0     H20885   7.312   4.549   3.186  1.3804 -1.7198 -0.2863
  155MOL0     H20886   7.513   4.587   3.073 -1.0463 -0.3187  0.4830
  155MOL0     H20887   8.016   4.510   3.038  3.1442 -0.5513 -1.6515
  155MOL0     H20888   8.224   4.610   2.962 -0.5207 -0.1721  1.8731
  155MOL0     H20889   8.369   4.945   2.975 -1.7211 -1.1014  1.6579
  155MOL0     H20890   8.368   4.770   2.998 -1.3400 -0.7342 -0.6073
  155MOL0     H20891   8.485   4.790   2.746 -2.3776 -0.6891  0.2738
  155MOL0     H20892   8.546   4.928   2.828 -0.3048 -0.0209  0.9855
  155MOL0     H20893   8.557   4.636   2.918  1.2201 -0.0073 -2.6193
  155MOL0     H20894   8.688   4.722   2.847 -0.3145 -0.2530  0.0446
  155MOL0     H20895   8.563   4.801   3.116  1.7341 -0.2785  1.5693
  155MOL0     H20896   8.689   4.892   3.019  2.0946 -1.2285 -4.2165
  155MOL0     H20897   8.851   4.727   3.064 -0.1161 -2.2868 -0.6087
  155MOL0     H20898   8.727   4.623   3.135  1.1143  0.4845  0.7044
  155MOL0     H20899   8.776   4.902   3.273 -0.3143  0.2113  0.9000
  155MOL0     H20900   8.699   4.769   3.325  1.4509  1.8821  1.4243
  155MOL0     H20901   9.001   4.764   3.271 -0.8452 -0.8946 -0.5721
  155MOL0     H20902   8.899   4.632   3.307 -2.7599  0.2774  3.1519
  155MOL0     H20903   8.924   4.871   3.479 -0.2183 -0.1506  0.8086
  155MOL0     H20904   8.835   4.712   3.519  0.4957 -1.3795  0.3197
  155MOL0     H20905   8.006   4.978   2.867 -2.5484 -0.3433 -0.6943
  155MOL0     H20906   7.816   4.888   2.972  1.3030  1.8777 -2.5369
  155MOL0     H20907   7.722   4.669   3.450 -0.1042 -0.3564  1.5559
  155MOL0     H20908   7.499   4.652   3.556 -2.9160  1.3203 -1.5257
  155MOL0     H20909   5.816   4.805   2.737  0.9485 -0.5986  0.5043
  155MOL0     H20910   5.585   4.912   2.701 -1.2637  1.1522 -0.1979
  155MOL0     H20911   4.996   4.760   2.883 -2.3350  0.1927  0.9500
  155MOL0     H20912   4.797   4.856   2.807 -0.3539  0.3095 -0.4102
  155MOL0     H20913   4.658   4.937   2.638  1.3404  0.7568  1.1379
  155MOL0     H20914   4.599   5.097   2.576  2.3306  0.1411 -1.2880
  155MOL0     H20915   4.542   5.170   2.779 -0.2312  0.3837 -0.0616
  155MOL0     H20916   4.640   5.046   2.870  0.6986 -1.8903 -1.1229
  155MOL0     H20917   4.481   4.864   2.762  1.5238  0.0830  3.0544
  155MOL0     H20918   4.400   4.992   2.677 -0.3053 -1.7584 -0.1081
  155MOL0     H20919   4.421   4.952   2.981  0.2198  1.2966  0.0849
  155MOL0     H20920   4.357   5.097   2.932 -1.4491 -0.7933  0.5103
  155MOL0     H20921   4.036   4.828   2.838 -1.0463  2.8893  0.7737
  155MOL0     H20922   5.000   5.197   2.669 -0.2570  0.1320  0.0140
  155MOL0     H20923   5.333   5.072   2.656 -0.7269 -1.6514  0.4132
  155MOL0     H20924   5.226   5.208   2.646 -1.0300  0.2506  1.6525
  155MOL0     H20925   5.296   5.168   2.805  1.6237 -1.3855  0.2553
  156MOL0     O20926   1.073   3.507   2.376 -0.5238 -0.1055 -0.1641
  156MOL0     C20927   1.050   3.391   2.346  0.4761 -0.6745  1.3590
  156MOL0     O20928   1.095   3.324   2.230  0.5886 -0.5756 -0.0436
  156MOL0     C20929   1.215   3.358   2.165 -0.4419 -0.1108  0.0712
  156MOL0     C20930   1.325   3.434   2.210 -0.5641  0.1239 -0.0809
  156MOL0     C20931   1.447   3.440   2.149  0.0151 -0.3959 -0.2330
  156MOL0     C20932   1.473   3.366   2.036 -0.1012 -0.3243  0.5366
  156MOL0     O20933   1.594   3.400   1.980 -0.5985 -0.0447  0.1366
  156MOL0     C20934   1.602   3.395   1.834  0.0260  0.4297  0.0453
  156MOL0     C20935   1.725   3.465   1.790 -0.1748  0.6257 -0.2054
  156MOL0     C20936   1.854   3.400   1.828 -1.0373 -0.4676 -0.1212
  156MOL0     C20937   1.975   3.429   1.730  0.0849 -0.0804  0.3016
  156MOL0     C20938   2.109   3.377   1.764 -0.4564 -0.7013  0.1352
  156MOL0     C20939   2.222   3.451   1.686 -0.3630  0.7588 -0.3433
  156MOL0     C20940   2.372   3.402   1.710  0.7339 -0.1390  0.5533
  156MOL0     C20941   2.458   3.476   1.609 -0.1518  0.3393  0.5101
  156MOL0     N20942   2.591   3.417   1.604  0.6752 -1.2639  0.3898
  156MOL0     C20943   2.661   3.390   1.493  1.2067 -0.2977  0.7077
  156MOL0     C20944   2.789   3.382   1.530 -0.3834  0.0060 -0.2510
  156MOL0     C20945   2.897   3.354   1.441  0.2752 -0.1637 -0.0133
  156MOL0     C20946   3.007   3.452   1.455 -0.1204  0.0463 -0.3083
  156MOL0     C20947   3.125   3.384   1.371  0.3779 -0.6231 -0.1105
  156MOL0     C20948   3.239   3.491   1.343  0.7986  0.2885 -0.0332
  156MOL0     O20949   3.353   3.426   1.289  0.5812  0.2415  0.0143
  156MOL0     C20950   3.458   3.504   1.243  1.0041  0.8491  0.7042
  156MOL0     C20951   3.579   3.429   1.219 -0.7321 -0.6605 -0.3339
  156MOL0     C20952   3.701   3.500   1.202  0.9979  0.6153  0.3615
  156MOL0     C20953   3.702   3.632   1.208  0.8444 -0.2349 -0.2113
  156MOL0     C20954   3.823   3.712   1.179  0.9835  1.0719 -1.2705
  156MOL0     O20955   3.936   3.651   1.180 -0.5287  0.2061  0.2642
  156MOL0     C20956   4.052   3.711   1.123  0.4134 -0.6607 -0.3410
  156MOL0     C20957   4.178   3.675   1.173 -0.2169 -0.3515 -0.1986
  156MOL0     C20958   4.289   3.741   1.125 -0.3376  0.0758 -0.9754
  156MOL0     C20959   4.283   3.844   1.039 -0.8295 -0.4758  0.1060
  156MOL0     O20960   4.399   3.911   0.999 -0.2095 -0.4710 -0.2146
  156MOL0     C20961   4.469   3.995   1.094 -0.2386 -0.3669  0.1009
  156MOL0     C20962   4.376   4.106   1.155 -0.2732  0.8824  0.1420
  156MOL0     C20963   4.354   4.224   1.061  0.0375  0.1722  0.4377
  156MOL0     C20964   4.478   4.333   1.050  0.0744  0.1941 -0.0078
  156MOL0     C20965   4.427   4.462   0.979  0.4507 -0.3354  0.3166
  156MOL0     C20966   4.537   4.579   0.982  0.1631  0.2441  0.8147
  156MOL0     C20967   4.649   4.540   0.882  0.3656  0.0920 -0.1760
  156MOL0     C20968   4.753   4.648   0.864 -0.2630 -0.5380  0.1585
  156MOL0    Cl20969   4.893   4.585   0.778 -0.0784 -0.4019 -0.4461
  156MOL0     C20970   4.167   3.880   0.974 -0.1724 -0.0421  0.8800
  156MOL0     C20971   4.055   3.808   1.012  0.2921  0.1908  0.2809
  156MOL0     O20972   3.801   3.823   1.148 -0.1857  0.1347 -0.7236
  156MOL0     C20973   3.583   3.703   1.233  0.3974 -0.3832 -0.3461
  156MOL0     C20974   3.463   3.641   1.244  1.0810  0.1684 -0.1450
  156MOL0     N20975   2.795   3.406   1.665 -0.1985  0.8337 -0.0517
  156MOL0     N20976   2.673   3.425   1.708  0.2261  0.2221 -0.1389
  156MOL0     C20977   1.367   3.295   1.981  0.9629  0.1002 -0.0359
  156MOL0     C20978   1.241   3.298   2.042 -0.0410 -0.0110 -0.6393
  156MOL0     C20979   0.932   3.325   2.413  0.1413 -0.5534 -0.6227
  156MOL0     C20980   0.868   3.210   2.351 -0.7212  0.7872  0.0907
  156MOL0     C20981   0.747   3.155   2.398  0.4798 -1.0907  0.7750
  156MOL0     C20982   0.694   3.206   2.513  0.1953  0.2570  0.8120
  156MOL0     O20983   0.578   3.155   2.558  0.0858 -0.2981  0.3081
  156MOL0     C20984   0.528   3.161   2.691 -0.4039  0.0636 -0.0016
  156MOL0     C20985   0.414   3.063   2.703  0.3658 -0.6058  1.2660
  156MOL0     C20986   0.400   2.995   2.845 -0.1179 -0.4551  0.7859
  156MOL0     C20987   0.305   2.876   2.826  0.8028  0.3916  0.5115
  156MOL0     C20988   0.167   2.902   2.776  0.4502 -0.5603 -0.1466
  156MOL0     C20989   0.060   2.920   2.722  0.2940  0.1508  0.1647
  156MOL0     C20990   0.765   3.305   2.581  0.2077 -0.0426 -0.6518
  156MOL0     C20991   0.885   3.362   2.545  0.0000 -0.4009  0.2222
  156MOL0     C20992   0.951   3.460   2.640  0.5020  0.2975 -0.1436
  156MOL0     H20993   1.320   3.492   2.301  0.1604 -0.0336  0.0646
  156MOL0     H20994   1.522   3.506   2.192 -1.5775  1.7624 -0.5469
  156MOL0     H20995   1.617   3.291   1.805  1.5178  1.8884 -5.5624
  156MOL0     H20996   1.509   3.439   1.796 -0.4777  0.3431  1.1505
  156MOL0     H20997   1.727   3.571   1.818 -2.5507  0.9387 -1.0212
  156MOL0     H20998   1.729   3.461   1.681  1.1228 -0.7545 -0.1374
  156MOL0     H20999   1.860   3.291   1.834  2.7915 -0.3121  2.3037
  156MOL0     H21000   1.881   3.454   1.919  2.5802  1.7368 -2.2641
  156MOL0     H21001   1.952   3.375   1.637  2.3420  0.3617 -0.6010
  156MOL0     H21002   1.987   3.537   1.713 -0.6404 -0.1208 -0.5318
  156MOL0     H21003   2.127   3.401   1.869  1.2161  2.9450 -0.8309
  156MOL0     H21004   2.115   3.268   1.751 -0.6421 -0.9472  1.8607
  156MOL0     H21005   2.195   3.420   1.584 -2.4162 -1.4368  0.7491
  156MOL0     H21006   2.215   3.559   1.702  0.1978  0.5676  1.3824
  156MOL0     H21007   2.379   3.296   1.683  0.4764  0.0323 -0.2430
  156MOL0     H21008   2.405   3.429   1.810 -1.5913  0.9263  1.1055
  156MOL0     H21009   2.406   3.472   1.513  1.3290 -0.7186 -0.3041
  156MOL0     H21010   2.464   3.581   1.640 -1.5639  0.8370 -0.7762
  156MOL0     H21011   2.618   3.390   1.393 -0.9543 -1.3579  1.5710
  156MOL0     H21012   2.933   3.251   1.455  2.0804  0.4008 -0.2523
  156MOL0     H21013   2.860   3.365   1.338 -0.1682  1.7593  0.3116
  156MOL0     H21014   2.976   3.537   1.394  0.1343  1.6423  1.7028
  156MOL0     H21015   3.030   3.484   1.556 -0.9735 -1.6353  0.4620
  156MOL0     H21016   3.091   3.340   1.276 -0.9934  0.8692 -0.3481
  156MOL0     H21017   3.171   3.308   1.435 -1.5418 -3.1410 -1.5464
  156MOL0     H21018   3.266   3.550   1.431  0.6882  0.5586 -0.1781
  156MOL0     H21019   3.202   3.559   1.266  0.3210  1.4781  1.2201
  156MOL0     H21020   3.579   3.321   1.216  2.5391 -0.7729 -0.1363
  156MOL0     H21021   3.795   3.448   1.183 -0.3965 -2.0321  0.2128
  156MOL0     H21022   4.200   3.608   1.255  0.4289  1.8111  1.4815
  156MOL0     H21023   4.385   3.712   1.166 -0.7411 -0.8658 -0.6683
  156MOL0     H21024   4.497   3.931   1.178 -1.1507 -0.5595  0.2735
  156MOL0     H21025   4.561   4.039   1.056  1.2591 -2.7682  0.7025
  156MOL0     H21026   4.280   4.057   1.178  0.3027 -0.8721 -1.0127
  156MOL0     H21027   4.421   4.128   1.252 -0.3266  0.2304  0.3160
  156MOL0     H21028   4.325   4.177   0.967  1.4293 -2.6407  1.2845
  156MOL0     H21029   4.267   4.280   1.097  0.3896  1.3332 -0.4910
  156MOL0     H21030   4.557   4.285   0.992 -2.3397 -3.2183 -0.7773
  156MOL0     H21031   4.513   4.355   1.152 -3.3876  1.9877  0.9403
  156MOL0     H21032   4.334   4.487   1.031 -0.1818  2.2009 -1.8201
  156MOL0     H21033   4.397   4.443   0.876 -1.0712 -2.0969  1.0347
  156MOL0     H21034   4.486   4.670   0.949  0.4114  0.8361  1.9748
  156MOL0     H21035   4.583   4.592   1.081  3.1300  0.6314 -0.5227
  156MOL0     H21036   4.593   4.528   0.789 -0.6022 -0.9995  0.5201
  156MOL0     H21037   4.700   4.446   0.905  1.3293  1.4824  4.1765
  156MOL0     H21038   4.707   4.723   0.799  0.3878 -0.2227  0.0551
  156MOL0     H21039   4.784   4.694   0.959  2.4300 -0.9516 -0.4511
  156MOL0     H21040   4.181   3.958   0.901  0.7970 -1.3469 -0.3969
  156MOL0     H21041   3.965   3.847   0.964  0.5544 -0.1751 -0.5215
  156MOL0     H21042   3.571   3.810   1.224 -2.3541 -0.5474  0.5945
  156MOL0     H21043   3.376   3.705   1.242  0.3315 -0.7518  1.1212
  156MOL0     H21044   1.383   3.234   1.893 -2.1190 -1.5864  0.4299
  156MOL0     H21045   1.167   3.236   1.994  0.2438  0.1324 -1.2775
  156MOL0     H21046   0.924   3.160   2.273 -0.7483 -0.0748  0.6097
  156MOL0     H21047   0.687   3.080   2.348 -2.0209  0.7397  0.8194
  156MOL0     H21048   0.512   3.264   2.725 -2.8139 -0.4016  0.4796
  156MOL0     H21049   0.613   3.117   2.745 -0.7125 -1.7393 -0.9178
  156MOL0     H21050   0.447   2.983   2.636 -1.1097 -0.2099  0.0110
  156MOL0     H21051   0.317   3.103   2.674 -0.3677 -1.1723  2.8495
  156MOL0     H21052   0.355   3.068   2.912 -1.1689 -0.6197  0.2842
  156MOL0     H21053   0.491   2.956   2.892 -0.0323  0.5646  1.4859
  156MOL0     H21054   0.342   2.804   2.753  1.7016  1.0462  0.2966
  156MOL0     H21055   0.290   2.827   2.923  0.3373  0.7343  0.6181
  156MOL0     H21056  -0.037   2.939   2.681  0.1572  0.5835  0.6702
  156MOL0     H21057   0.728   3.326   2.681  1.7850 -2.6355  0.5863
  156MOL0     H21058   0.940   3.564   2.609  0.1470 -0.3641 -2.4203
  156MOL0     H21059   0.911   3.452   2.742  0.0195 -1.5736 -0.4306
  156MOL0     H21060   1.059   3.441   2.644  0.2307 -2.6443 -2.7081
  157MOL0     O21061   3.389   6.732   7.518 -0.3421 -0.3412 -0.3743
  157MOL0     C21062   3.335   6.834   7.472 -0.2328  0.0690  0.5098
  157MOL0     O21063   3.396   6.952   7.457 -0.5436  0.1760  1.1146
  157MOL0     C21064   3.533   6.963   7.470 -0.1686 -0.2226  0.2959
  157MOL0     C21065   3.579   7.082   7.516 -0.6186 -0.1333 -0.6288
  157MOL0     C21066   3.720   7.106   7.515  0.2198 -0.2873 -0.0117
  157MOL0     C21067   3.810   7.014   7.479  0.7597  0.7413 -0.2724
  157MOL0     O21068   3.942   7.029   7.500 -0.3015  0.3731 -1.0124
  157MOL0     C21069   3.976   7.085   7.631  0.3121  0.9898 -0.9191
  157MOL0     C21070   4.049   7.215   7.606  0.4421 -0.6377  0.6270
  157MOL0     C21071   4.178   7.194   7.526  0.9498  0.0262 -0.5134
  157MOL0     C21072   4.288   7.130   7.603  0.5426  0.1208  0.4561
  157MOL0     C21073   4.422   7.148   7.532  0.1839  0.7143 -0.7164
  157MOL0     C21074   4.544   7.151   7.619 -0.5965  0.6146 -0.4239
  157MOL0     C21075   4.673   7.127   7.549 -0.5234 -0.3749  1.0602
  157MOL0     C21076   4.724   7.220   7.439  0.1898 -0.7141  0.1244
  157MOL0     N21077   4.861   7.183   7.391 -0.4470  0.6124  1.2068
  157MOL0     C21078   4.895   7.099   7.280 -0.2598  0.2989  0.0570
  157MOL0     C21079   5.033   7.093   7.287 -0.5402  0.0305  0.1544
  157MOL0     C21080   5.123   7.026   7.188  0.1799 -0.2722  0.8495
  157MOL0     C21081   5.156   7.123   7.073  0.1370 -0.0327  0.3607
  157MOL0     C21082   5.244   7.233   7.117 -0.1727  0.3650  0.5728
  157MOL0     C21083   5.362   7.198   7.197  0.0241  0.4306 -0.2617
  157MOL0     O21084   5.449   7.083   7.148  0.1778  0.0186  0.4259
  157MOL0     C21085   5.570   7.103   7.086  1.3672 -0.8105 -0.0276
  157MOL0     C21086   5.643   6.995   7.074 -0.2892 -0.7410  0.4814
  157MOL0     C21087   5.781   7.003   7.025 -0.1933 -0.3549  0.4089
  157MOL0     C21088   5.835   7.127   6.993 -0.8204  0.4520 -0.3260
  157MOL0     C21089   5.979   7.132   6.959 -1.0280  0.1286  0.2510
  157MOL0     O21090   6.048   7.011   6.945 -0.0570 -0.5949  0.3068
  157MOL0     C21091   6.179   7.014   6.911 -0.6412 -0.3118  0.4540
  157MOL0     C21092   6.224   7.098   6.809 -0.2235 -0.4071 -0.7486
  157MOL0     C21093   6.358   7.095   6.780  0.4354 -0.0246 -0.4261
  157MOL0     C21094   6.444   7.008   6.840  0.1356  0.2618 -0.4059
  157MOL0     O21095   6.569   7.010   6.785  0.1558  0.3479 -0.4129
  157MOL0     C21096   6.677   6.923   6.827 -0.1278 -0.3992 -0.0065
  157MOL0     C21097   6.801   6.977   6.763 -0.2406  0.1264 -0.4272
  157MOL0     C21098   6.935   6.899   6.779  0.6920 -1.6637 -0.1478
  157MOL0     C21099   6.971   6.861   6.917 -1.0741  0.2640  0.2958
  157MOL0     C21100   7.107   6.794   6.910 -0.0699 -0.2017 -0.8949
  157MOL0     C21101   7.163   6.792   7.053  0.0231 -0.1224  0.5759
  157MOL0     C21102   7.310   6.740   7.075  0.7531  0.4626 -0.3311
  157MOL0     C21103   7.403   6.802   6.974 -0.3755  0.2313 -0.4452
  157MOL0    Cl21104   7.577   6.774   7.011  0.6271  0.0722 -0.2138
  157MOL0     C21105   6.408   6.929   6.954 -0.0912  0.3089  0.0398
  157MOL0     C21106   6.275   6.933   6.988  0.2841  0.2494 -0.0169
  157MOL0     O21107   6.032   7.246   6.951  0.0113  1.0938  0.2948
  157MOL0     C21108   5.748   7.235   6.992 -0.7700 -0.3873  0.6626
  157MOL0     C21109   5.620   7.231   7.043 -1.3016  0.3578  0.8643
  157MOL0     N21110   5.081   7.158   7.389  0.4642 -0.4592 -0.7524
  157MOL0     N21111   4.983   7.209   7.448  0.4058 -0.2550 -0.0913
  157MOL0     C21112   3.757   6.905   7.408  0.0124 -0.1272 -0.1491
  157MOL0     C21113   3.620   6.873   7.406  0.0657 -0.1227  0.2528
  157MOL0     C21114   3.189   6.824   7.453 -0.7403  0.2587 -0.4383
  157MOL0     C21115   3.123   6.702   7.495 -0.3992 -0.6183  0.5543
  157MOL0     C21116   2.987   6.680   7.475  0.3737  0.2275  0.2301
  157MOL0     C21117   2.910   6.787   7.418 -0.7347  0.0247  0.0416
  157MOL0     O21118   2.779   6.774   7.390 -0.1866  0.2483 -0.1688
  157MOL0     C21119   2.704   6.648   7.371 -0.4545 -0.8160  1.0071
  157MOL0     C21120   2.546   6.672   7.374 -0.1812  0.9035 -0.5035
  157MOL0     C21121   2.486   6.526   7.386  0.3800 -0.1908 -0.5175
  157MOL0     C21122   2.336   6.534   7.403 -0.0267  0.6902  0.1515
  157MOL0     C21123   2.273   6.602   7.292  0.2342 -1.0667 -0.1065
  157MOL0     C21124   2.225   6.659   7.193 -0.5027  0.1165  0.0594
  157MOL0     C21125   2.971   6.912   7.387 -0.7479 -0.1724 -0.3950
  157MOL0     C21126   3.111   6.932   7.395  0.0456  1.2454 -0.0836
  157MOL0     C21127   3.166   7.068   7.362 -0.0845  0.2106 -0.5920
  157MOL0     H21128   3.510   7.156   7.553 -0.2242  0.4570 -1.0483
  157MOL0     H21129   3.761   7.202   7.543  0.4952  0.3738 -2.4641
  157MOL0     H21130   3.888   7.097   7.695 -1.3140 -3.7911 -1.8652
  157MOL0     H21131   4.036   7.009   7.683  2.8084  1.8562 -2.3699
  157MOL0     H21132   4.067   7.270   7.699  1.3664 -0.2646  0.2443
  157MOL0     H21133   3.979   7.277   7.550 -1.1749 -3.2945 -0.4701
  157MOL0     H21134   4.205   7.298   7.508  1.0980  0.3212  1.2667
  157MOL0     H21135   4.164   7.146   7.428 -0.4253 -1.8612  0.5511
  157MOL0     H21136   4.297   7.189   7.694 -1.3148  1.0703  0.0643
  157MOL0     H21137   4.273   7.023   7.624  0.4761 -0.1747 -0.9567
  157MOL0     H21138   4.448   7.058   7.476 -1.0788  0.5248 -1.0083
  157MOL0     H21139   4.419   7.238   7.471 -2.1297  0.5228 -0.9664
  157MOL0     H21140   4.549   7.247   7.671  0.6894 -0.5260  1.6974
  157MOL0     H21141   4.545   7.069   7.692  3.1911 -2.0351 -3.1096
  157MOL0     H21142   4.681   7.023   7.515 -2.7984 -0.0426 -0.8012
  157MOL0     H21143   4.744   7.126   7.632  1.3898  0.0131 -0.4904
  157MOL0     H21144   4.652   7.226   7.357  0.7265  0.7486 -0.2818
  157MOL0     H21145   4.731   7.323   7.475 -1.7479 -0.5975  0.2403
  157MOL0     H21146   4.826   7.043   7.217  0.6468 -0.1084 -0.5826
  157MOL0     H21147   5.210   6.999   7.247  0.8651  2.8577  1.4689
  157MOL0     H21148   5.072   6.938   7.148 -2.0058  0.7392  1.1996
  157MOL0     H21149   5.200   7.077   6.984 -1.2696  2.0630 -1.4948
  157MOL0     H21150   5.070   7.174   7.030  1.7368 -0.2478 -3.4610
  157MOL0     H21151   5.189   7.303   7.181 -0.7684 -0.4969  1.0133
  157MOL0     H21152   5.282   7.284   7.027 -0.9479 -1.4136 -0.8374
  157MOL0     H21153   5.330   7.171   7.298  2.0687  0.1260  0.3595
  157MOL0     H21154   5.421   7.288   7.219  1.4885 -0.3580 -0.8641
  157MOL0     H21155   5.611   6.892   7.081 -0.4653 -1.0195 -2.8248
  157MOL0     H21156   5.840   6.912   7.014  0.5414 -0.0778  1.8996
  157MOL0     H21157   6.162   7.164   6.749 -3.5925 -0.3033  2.4703
  157MOL0     H21158   6.387   7.163   6.700 -2.6067  3.2796  0.9835
  157MOL0     H21159   6.688   6.912   6.935 -0.7099 -3.0873 -0.1478
  157MOL0     H21160   6.656   6.825   6.782  1.1508  0.3803 -2.5294
  157MOL0     H21161   6.787   6.988   6.655 -0.4716  1.7239 -0.2627
  157MOL0     H21162   6.813   7.079   6.801 -0.4553  0.2618 -0.7165
  157MOL0     H21163   6.916   6.806   6.726 -0.9973  0.4467 -3.5853
  157MOL0     H21164   7.007   6.967   6.732  0.5545 -1.9346 -0.7470
  157MOL0     H21165   6.904   6.792   6.968 -2.2131  0.7699 -0.4580
  157MOL0     H21166   6.979   6.949   6.981 -1.7408 -0.3165  1.1892
  157MOL0     H21167   7.178   6.838   6.840  0.5056 -1.4098 -1.0988
  157MOL0     H21168   7.111   6.691   6.875  1.4683 -0.5777  0.2812
  157MOL0     H21169   7.157   6.895   7.091  0.8936  0.4537 -0.7631
  157MOL0     H21170   7.092   6.731   7.109 -1.1099 -0.8768 -1.5798
  157MOL0     H21171   7.299   6.631   7.076 -1.7303  0.5955  2.1265
  157MOL0     H21172   7.346   6.769   7.174  0.8970  0.7024 -0.4530
  157MOL0     H21173   7.374   6.769   6.874 -0.0762  0.3332 -0.5671
  157MOL0     H21174   7.386   6.910   6.967 -0.0326  0.3186  0.0051
  157MOL0     H21175   6.481   6.862   6.999  0.3358 -1.3055 -2.7961
  157MOL0     H21176   6.262   6.889   7.086 -0.3925  0.2234 -0.1170
  157MOL0     H21177   5.798   7.329   6.973 -2.3023  0.7606  2.0907
  157MOL0     H21178   5.557   7.319   7.036 -2.2285 -0.4454 -2.2379
  157MOL0     H21179   3.825   6.832   7.364 -1.2157  1.0839 -4.5333
  157MOL0     H21180   3.578   6.799   7.338  0.6732  1.1575 -1.6112
  157MOL0     H21181   3.185   6.625   7.538  0.1978 -1.7846 -2.2237
  157MOL0     H21182   2.928   6.595   7.509 -1.5707  2.2807  2.3518
  157MOL0     H21183   2.737   6.575   7.445  4.5315 -0.1890 -0.1838
  157MOL0     H21184   2.729   6.610   7.271 -1.1633 -0.0678  0.5275
  157MOL0     H21185   2.500   6.698   7.279 -2.7496 -2.5392 -0.3813
  157MOL0     H21186   2.512   6.725   7.464  4.1017 -1.5517  3.0339
  157MOL0     H21187   2.537   6.465   7.460  1.9453  1.2618 -0.3379
  157MOL0     H21188   2.500   6.479   7.288  0.1338  0.7983 -1.0517
  157MOL0     H21189   2.303   6.431   7.419  1.0912  0.0628 -1.3620
  157MOL0     H21190   2.312   6.593   7.493 -1.1706  0.7330 -0.1672
  157MOL0     H21191   2.184   6.715   7.112  0.0730 -0.4832 -0.6608
  157MOL0     H21192   2.921   6.997   7.342  0.3164  1.1206  0.7717
  157MOL0     H21193   3.191   7.128   7.450 -1.9475 -0.5852  0.5447
  157MOL0     H21194   3.250   7.063   7.292  0.5995  0.7927  0.1669
  157MOL0     H21195   3.094   7.131   7.309  1.4308  1.4258 -1.3090
  158MOL0     O21196   8.569   8.364   5.631  0.0501 -0.4018 -0.1680
  158MOL0     C21197   8.515   8.285   5.558  0.6690  1.2143  0.1613
  158MOL0     O21198   8.567   8.171   5.494  0.0332 -0.1628  0.8971
  158MOL0     C21199   8.694   8.134   5.501  0.4731 -0.9169 -0.1806
  158MOL0     C21200   8.806   8.206   5.552 -0.0762 -0.5370 -0.2724
  158MOL0     C21201   8.937   8.158   5.544  0.8099 -0.5965  1.3849
  158MOL0     C21202   8.956   8.027   5.495 -0.0370 -0.0015 -0.2498
  158MOL0     O21203   9.072   7.959   5.481 -0.3037 -0.4456 -0.7459
  158MOL0     C21204   9.186   8.009   5.558 -0.7127 -0.6882  0.1647
  158MOL0     C21205   9.320   7.944   5.512 -0.4754  0.4652  0.5861
  158MOL0     C21206   9.340   7.972   5.362 -0.7593  0.1113 -0.3860
  158MOL0     C21207   9.316   8.120   5.326 -0.2870  0.0385  0.4995
  158MOL0     C21208   9.400   8.158   5.197 -0.1140  0.4859  0.3937
  158MOL0     C21209   9.394   8.311   5.186  0.2196 -0.6327  0.6237
  158MOL0     C21210   9.398   8.366   5.047 -0.1839  0.2211 -0.6417
  158MOL0     C21211   9.536   8.354   4.976 -0.5382 -0.0259 -0.6943
  158MOL0     N21212   9.634   8.444   5.036 -0.1229  0.6164 -1.1863
  158MOL0     C21213   9.650   8.577   5.008  0.4607 -0.5514 -0.2879
  158MOL0     C21214   9.753   8.623   5.082 -0.2692  0.5038 -0.2997
  158MOL0     C21215   9.824   8.751   5.060 -0.6979 -0.3219 -0.6042
  158MOL0     C21216   9.936   8.793   5.159  0.7861 -0.5715  0.3389
  158MOL0     C21217  10.027   8.903   5.101 -0.5611 -0.4760  0.3602
  158MOL0     C21218  10.146   8.924   5.189  0.1192  0.4395  0.0357
  158MOL0     O21219  10.227   9.021   5.117  0.4688 -0.0129 -0.0336
  158MOL0     C21220  10.363   9.011   5.144  0.1951  0.1216  0.0858
  158MOL0     C21221  10.447   9.041   5.039 -0.5832 -0.2943 -0.6933
  158MOL0     C21222  10.586   9.043   5.048  1.3320 -0.4219  0.4245
  158MOL0     C21223  10.645   8.991   5.162 -0.4203 -0.0711  0.5443
  158MOL0     C21224  10.791   8.999   5.179  0.2958 -1.0893 -0.0325
  158MOL0     O21225  10.858   9.084   5.094 -0.3269 -0.2346 -0.0109
  158MOL0     C21226  10.999   9.075   5.083  1.4692 -0.8985 -0.5814
  158MOL0     C21227  11.073   9.194   5.097 -0.2002  0.1193 -0.5294
  158MOL0     C21228  11.204   9.193   5.054  0.6040  0.1614 -0.2529
  158MOL0     C21229  11.268   9.074   5.021 -1.2694  0.4137 -0.3196
  158MOL0     O21230  11.404   9.062   4.993  0.2259 -0.2118  0.3139
  158MOL0     C21231  11.486   9.173   5.010  0.4565  0.5364  0.1646
  158MOL0     C21232  11.626   9.156   4.938  0.8063  0.6445  0.6308
  158MOL0     C21233  11.698   9.284   4.944 -0.5390  0.4349 -0.5700
  158MOL0     C21234  11.842   9.264   4.937 -0.1659 -0.2575  1.0697
  158MOL0     C21235  11.911   9.397   4.972 -0.6450  0.3020  0.3826
  158MOL0     C21236  12.061   9.392   4.980  0.1835  0.3403 -0.3365
  158MOL0     C21237  12.118   9.534   5.010  0.4026  0.5856  0.9363
  158MOL0     C21238  12.273   9.524   5.004 -0.4357 -0.0807 -0.3328
  158MOL0    Cl21239  12.333   9.523   4.831 -0.0142 -0.1954  0.1228
  158MOL0     C21240  11.200   8.956   5.002 -0.0753 -0.6794  0.3590
  158MOL0     C21241  11.061   8.963   5.029  0.1456  0.1663 -0.5138
  158MOL0     O21242  10.841   8.935   5.271  1.0625  0.0603  0.5963
  158MOL0     C21243  10.561   8.962   5.274 -0.1717 -0.7989  0.1510
  158MOL0     C21244  10.421   8.965   5.268  0.5567  0.4216  0.1085
  158MOL0     N21245   9.798   8.510   5.152  0.1870 -0.2430  0.6884
  158MOL0     N21246   9.720   8.412   5.127  0.0416  0.5378  0.2121
  158MOL0     C21247   8.849   7.958   5.442  0.5090  0.6466 -0.5038
  158MOL0     C21248   8.716   8.018   5.435  1.3275  0.9089 -0.0934
  158MOL0     C21249   8.379   8.317   5.508  0.1526  0.4084 -0.6300
  158MOL0     C21250   8.292   8.214   5.465  0.2677  0.1521  0.1512
  158MOL0     C21251   8.159   8.243   5.423 -0.6611  0.4574  0.5447
  158MOL0     C21252   8.110   8.366   5.436  0.3136 -0.5410  0.4117
  158MOL0     O21253   7.981   8.376   5.396  0.1506  0.4832 -0.1149
  158MOL0     C21254   7.919   8.511   5.394 -0.0729 -0.2244 -0.3835
  158MOL0     C21255   7.770   8.516   5.383  0.1864 -0.7819 -0.3503
  158MOL0     C21256   7.727   8.663   5.370 -0.6636  0.6671 -0.6670
  158MOL0     C21257   7.572   8.686   5.366 -0.1146 -0.0118 -0.0168
  158MOL0     C21258   7.530   8.794   5.274  0.7274  0.3053 -0.7890
  158MOL0     C21259   7.492   8.898   5.222  0.1953 -0.0811  0.1460
  158MOL0     C21260   8.200   8.466   5.467 -0.1486 -0.0363  0.0777
  158MOL0     C21261   8.331   8.445   5.505  0.9777 -0.2543 -0.3250
  158MOL0     C21262   8.403   8.579   5.528  0.3884 -0.2984 -0.0122
  158MOL0     H21263   8.793   8.293   5.616  0.6319 -0.6250  0.0051
  158MOL0     H21264   9.023   8.216   5.577  1.2990  0.0983 -0.9590
  158MOL0     H21265   9.192   8.118   5.558  3.0788 -0.7648  0.4734
  158MOL0     H21266   9.163   7.992   5.663 -1.6951 -0.6781 -0.0419
  158MOL0     H21267   9.310   7.835   5.515  4.0720 -0.1777 -0.1254
  158MOL0     H21268   9.403   7.964   5.580 -0.1024  0.9543 -0.0036
  158MOL0     H21269   9.273   7.913   5.298 -3.1470  1.3238  0.8399
  158MOL0     H21270   9.444   7.956   5.333 -0.0053  2.7809  0.5811
  158MOL0     H21271   9.211   8.148   5.314  0.0312  0.9720 -0.2267
  158MOL0     H21272   9.362   8.179   5.407 -0.2615  2.4806 -1.1924
  158MOL0     H21273   9.505   8.129   5.208 -0.5908 -1.0920  0.9439
  158MOL0     H21274   9.362   8.116   5.103  4.9986 -1.0387 -1.3538
  158MOL0     H21275   9.296   8.344   5.220 -0.3141  1.6432 -2.6164
  158MOL0     H21276   9.469   8.356   5.251 -0.6223  0.8835  0.5736
  158MOL0     H21277   9.363   8.470   5.051 -0.2584  0.1717  0.0240
  158MOL0     H21278   9.323   8.323   4.981  1.5159 -1.7722 -1.3721
  158MOL0     H21279   9.568   8.250   4.989 -2.6115 -1.2702 -4.0255
  158MOL0     H21280   9.530   8.370   4.868 -0.1988  0.2656 -0.6682
  158MOL0     H21281   9.596   8.630   4.931 -1.0225 -0.9493  0.4537
  158MOL0     H21282   9.873   8.758   4.962  1.2717  1.1645  0.4063
  158MOL0     H21283   9.753   8.834   5.060 -0.1940  0.1223 -0.2502
  158MOL0     H21284   9.884   8.839   5.244 -1.4558 -0.1059 -1.2016
  158MOL0     H21285   9.986   8.705   5.201 -0.8028 -0.1273  3.4536
  158MOL0     H21286   9.968   8.994   5.090 -2.8998 -2.1690 -2.5801
  158MOL0     H21287  10.068   8.865   5.007  2.8651  1.2191  1.0245
  158MOL0     H21288  10.193   8.826   5.203  0.7670  0.0918 -3.6578
  158MOL0     H21289  10.141   8.955   5.294  1.9688 -1.6389  0.8331
  158MOL0     H21290  10.401   9.082   4.949  0.1867  0.0566 -0.9316
  158MOL0     H21291  10.635   9.082   4.959  1.0941 -0.1092  0.4283
  158MOL0     H21292  11.032   9.286   5.137  0.4625  0.5357 -0.7955
  158MOL0     H21293  11.267   9.280   5.066 -0.0813  1.1092 -2.8724
  158MOL0     H21294  11.437   9.257   4.961 -0.0189 -0.1991 -0.6417
  158MOL0     H21295  11.510   9.187   5.116  2.2087 -4.3398  0.6969
  158MOL0     H21296  11.680   9.072   4.983  0.8837 -0.0243 -0.6483
  158MOL0     H21297  11.606   9.133   4.833 -1.3006 -1.2574  1.3661
  158MOL0     H21298  11.660   9.344   4.861 -0.7739  1.7813  0.4648
  158MOL0     H21299  11.660   9.352   5.021 -1.0238  1.3867 -1.6166
  158MOL0     H21300  11.864   9.232   4.835 -0.0165 -1.3113  1.4264
  158MOL0     H21301  11.879   9.185   5.003 -2.1726 -1.9290  0.2845
  158MOL0     H21302  11.867   9.429   5.067 -2.7609 -1.9271  0.2799
  158MOL0     H21303  11.882   9.464   4.890  0.8179 -1.6574 -1.8940
  158MOL0     H21304  12.081   9.324   5.064 -2.6133  0.4633  0.5175
  158MOL0     H21305  12.097   9.341   4.890  3.8867  0.0389  1.1379
  158MOL0     H21306  12.081   9.569   5.106  0.8035  2.7304  0.3741
  158MOL0     H21307  12.087   9.602   4.930  1.2472 -1.0443 -0.8576
  158MOL0     H21308  12.321   9.613   5.046  0.3170 -1.6730  2.4681
  158MOL0     H21309  12.310   9.440   5.064  3.2655  0.4731 -1.5959
  158MOL0     H21310  11.241   8.858   4.978 -3.0638 -2.5041  2.0210
  158MOL0     H21311  11.001   8.875   5.006  0.6772 -1.3464  3.2418
  158MOL0     H21312  10.606   8.938   5.370 -0.4598 -2.4606 -0.0988
  158MOL0     H21313  10.358   8.940   5.352  0.3963 -2.0288 -0.6636
  158MOL0     H21314   8.873   7.864   5.394  1.3288  1.3281 -1.4608
  158MOL0     H21315   8.628   7.965   5.400 -0.3636  3.5848 -0.0948
  158MOL0     H21316   8.322   8.110   5.476  0.8728  0.0508 -2.0009
  158MOL0     H21317   8.084   8.166   5.408 -0.9414  0.5019  1.6772
  158MOL0     H21318   7.961   8.580   5.320 -0.0446 -0.6106 -0.7342
  158MOL0     H21319   7.937   8.554   5.493  1.9175 -2.9863  0.5890
  158MOL0     H21320   7.732   8.469   5.474  0.8255 -1.1906 -0.2858
  158MOL0     H21321   7.734   8.446   5.307  1.1814 -0.1770 -1.4136
  158MOL0     H21322   7.781   8.703   5.284  1.2246 -0.5650 -0.1304
  158MOL0     H21323   7.761   8.720   5.457  0.2903 -3.4058  1.9005
  158MOL0     H21324   7.517   8.599   5.328  0.5180  0.1366 -1.3093
  158MOL0     H21325   7.529   8.700   5.466 -0.1944 -3.0757  0.4947
  158MOL0     H21326   7.452   8.980   5.166 -1.6235 -3.2222 -3.6582
  158MOL0     H21327   8.164   8.569   5.470  0.6135  0.2111  2.1339
  158MOL0     H21328   8.364   8.659   5.464  0.4514  0.3148  0.6881
  158MOL0     H21329   8.396   8.617   5.631  1.8427 -0.1842  0.0609
  158MOL0     H21330   8.507   8.567   5.498  0.2897 -2.5236  0.3676
  159MOL0     O21331   5.284   0.064   3.151  0.1829 -0.2032  0.2046
  159MOL0     C21332   5.210  -0.015   3.210 -0.0255 -0.1874 -0.8880
  159MOL0     O21333   5.247  -0.105   3.304  0.3156 -0.0509  0.1904
  159MOL0     C21334   5.379  -0.137   3.321  0.1716 -0.5186 -0.3870
  159MOL0     C21335   5.413  -0.182   3.459 -0.4396  0.6166  0.3825
  159MOL0     C21336   5.550  -0.210   3.480  0.6901  0.8885  0.6539
  159MOL0     C21337   5.646  -0.207   3.378 -0.2700  0.0207 -0.0543
  159MOL0     O21338   5.771  -0.254   3.396 -0.4262  0.2769  0.0744
  159MOL0     C21339   5.877  -0.213   3.317 -0.9566 -0.5444  0.4286
  159MOL0     C21340   6.013  -0.229   3.378 -0.4468  0.1562  0.2888
  159MOL0     C21341   6.048  -0.362   3.426  0.0075  0.1488 -0.4873
  159MOL0     C21342   6.193  -0.410   3.418 -0.0338 -0.1393 -0.0484
  159MOL0     C21343   6.220  -0.552   3.449 -0.5098 -0.1833  0.5106
  159MOL0     C21344   6.254  -0.580   3.595 -0.4445 -0.2273 -0.2594
  159MOL0     C21345   6.399  -0.545   3.623 -0.1108 -0.6177  0.5523
  159MOL0     C21346   6.418  -0.556   3.775  0.5960 -0.3006  0.3428
  159MOL0     N21347   6.548  -0.519   3.820  0.1509  0.6182 -0.5485
  159MOL0     C21348   6.583  -0.390   3.850  0.0846  0.8053 -0.9469
  159MOL0     C21349   6.718  -0.393   3.886 -0.6957  0.6659 -0.9959
  159MOL0     C21350   6.803  -0.281   3.933  0.2147 -0.8371  0.3104
  159MOL0     C21351   6.866  -0.309   4.070 -0.0897  0.5550 -0.1335
  159MOL0     C21352   6.943  -0.193   4.131 -0.9234  0.4977  0.3123
  159MOL0     C21353   7.096  -0.217   4.110  0.9458  0.0992  0.9996
  159MOL0     O21354   7.160  -0.102   4.164  0.0899 -0.3928  0.3751
  159MOL0     C21355   7.297  -0.093   4.149  0.3378  0.2460  0.2829
  159MOL0     C21356   7.346   0.029   4.175 -0.1087  0.1127  0.2825
  159MOL0     C21357   7.484   0.056   4.152 -0.5017 -0.5520 -0.0847
  159MOL0     C21358   7.584  -0.043   4.132  0.1941  0.4050 -0.0886
  159MOL0     C21359   7.727  -0.015   4.136 -0.7756 -0.4153 -0.5480
  159MOL0     O21360   7.756   0.111   4.177  0.8357 -0.1821 -0.0761
  159MOL0     C21361   7.885   0.149   4.194  0.1520 -0.1915 -0.2410
  159MOL0     C21362   7.920   0.280   4.159  0.5502  0.2658 -0.5144
  159MOL0     C21363   8.048   0.326   4.183  0.2892 -1.4815  0.4613
  159MOL0     C21364   8.145   0.249   4.240 -0.3461 -0.1230 -0.6604
  159MOL0     O21365   8.274   0.286   4.252 -0.6438  0.2062 -0.1643
  159MOL0     C21366   8.305   0.423   4.274  0.1341 -0.4942 -0.1169
  159MOL0     C21367   8.450   0.449   4.316 -0.1335 -0.1720  0.6004
  159MOL0     C21368   8.548   0.461   4.193  0.8400 -0.0325  0.2461
  159MOL0     C21369   8.677   0.496   4.241  0.0665  0.6992  0.7348
  159MOL0     C21370   8.779   0.516   4.123 -0.4133 -0.2545  0.1695
  159MOL0     C21371   8.904   0.574   4.175 -0.0565  0.2626  0.6068
  159MOL0     C21372   9.010   0.587   4.063 -0.0429 -0.6127  0.6414
  159MOL0     C21373   9.113   0.690   4.098  0.1507 -0.1188 -0.0484
  159MOL0    Cl21374   9.213   0.629   4.235  0.3691  0.3076  0.2127
  159MOL0     C21375   8.113   0.124   4.281  0.9370  0.2880 -0.6242
  159MOL0     C21376   7.986   0.072   4.254  0.0034 -0.1056 -0.0935
  159MOL0     O21377   7.811  -0.095   4.094  0.3429  0.7264  0.1864
  159MOL0     C21378   7.530  -0.173   4.115  0.5864  0.5319  0.1140
  159MOL0     C21379   7.397  -0.192   4.118  0.7030  0.4187 -0.5501
  159MOL0     N21380   6.757  -0.522   3.858  0.4039 -0.3333 -0.1071
  159MOL0     N21381   6.661  -0.596   3.821  0.7007 -0.4577 -0.1477
  159MOL0     C21382   5.616  -0.163   3.248  0.0567  0.0880  0.3941
  159MOL0     C21383   5.482  -0.124   3.227 -0.3655 -0.3991 -0.1927
  159MOL0     C21384   5.064   0.006   3.199  0.1523  0.3967 -0.2190
  159MOL0     C21385   4.989   0.029   3.319 -0.2402 -0.1323  0.9260
  159MOL0     C21386   4.849   0.059   3.316  0.0966 -0.5477  0.3697
  159MOL0     C21387   4.784   0.077   3.192  0.3111  0.8608  0.3885
  159MOL0     O21388   4.650   0.115   3.195 -0.2702 -0.4264 -0.3209
  159MOL0     C21389   4.568   0.119   3.078  1.1518 -0.2801  0.4678
  159MOL0     C21390   4.566   0.262   3.015 -0.1140 -0.0485 -0.1326
  159MOL0     C21391   4.461   0.363   3.077 -0.3397  0.0964  0.0396
  159MOL0     C21392   4.477   0.492   3.019 -0.4007  1.1105  0.5615
  159MOL0     C21393   4.435   0.499   2.879 -0.8839  0.1977 -0.5669
  159MOL0     C21394   4.410   0.509   2.763  0.1877  0.0361 -0.5920
  159MOL0     C21395   4.859   0.065   3.071 -0.0331 -0.3460  0.0515
  159MOL0     C21396   4.991   0.020   3.073  0.0080  0.1937  0.0352
  159MOL0     C21397   5.067  -0.013   2.940  0.3242 -0.5046  0.0794
  159MOL0     H21398   5.340  -0.178   3.540 -0.3416  1.9512  0.4421
  159MOL0     H21399   5.577  -0.236   3.582  1.5576  0.1797  0.2660
  159MOL0     H21400   5.868  -0.260   3.218 -0.4041  0.8800 -0.3315
  159MOL0     H21401   5.881  -0.106   3.294 -0.1378  0.0558  3.0932
  159MOL0     H21402   6.029  -0.150   3.451  0.6564  1.1707 -0.9839
  159MOL0     H21403   6.081  -0.204   3.296 -0.6414 -0.3623 -0.0328
  159MOL0     H21404   5.993  -0.435   3.366 -1.6494 -1.2359  2.4858
  159MOL0     H21405   6.011  -0.382   3.527 -1.0469  1.1098 -0.6683
  159MOL0     H21406   6.214  -0.393   3.312 -0.3168  0.1906 -0.0563
  159MOL0     H21407   6.253  -0.342   3.479 -0.6191 -0.3402  0.7595
  159MOL0     H21408   6.130  -0.612   3.432 -1.3993  0.3258  2.9348
  159MOL0     H21409   6.302  -0.574   3.381 -0.4473  3.6520 -0.8808
  159MOL0     H21410   6.178  -0.529   3.655 -3.1971 -0.7003 -3.0529
  159MOL0     H21411   6.241  -0.687   3.615  1.0105 -0.4587 -0.4895
  159MOL0     H21412   6.420  -0.442   3.592  0.1416 -0.1553  2.1727
  159MOL0     H21413   6.465  -0.609   3.563  0.5792  0.6817 -0.1350
  159MOL0     H21414   6.351  -0.480   3.816 -0.8199 -1.4813  0.3074
  159MOL0     H21415   6.390  -0.652   3.818 -0.7512 -1.1226 -2.1196
  159MOL0     H21416   6.514  -0.306   3.856 -2.3288 -0.7208 -4.2653
  159MOL0     H21417   6.885  -0.273   3.861  0.6456  0.4642  0.9218
  159MOL0     H21418   6.748  -0.188   3.917 -2.4048 -2.6233 -2.1625
  159MOL0     H21419   6.793  -0.339   4.145 -0.7140  1.1004 -0.5124
  159MOL0     H21420   6.939  -0.389   4.058 -0.5097  0.2643 -0.7794
  159MOL0     H21421   6.924  -0.213   4.237 -1.4795 -1.2389 -0.0781
  159MOL0     H21422   6.909  -0.095   4.097  0.2205  0.4005 -1.2208
  159MOL0     H21423   7.110  -0.230   4.002  0.9582  2.8776  0.5930
  159MOL0     H21424   7.132  -0.307   4.161  0.6527 -0.1544  0.7629
  159MOL0     H21425   7.285   0.117   4.196 -1.2961 -0.2990 -1.2027
  159MOL0     H21426   7.513   0.159   4.169 -1.2975 -0.8354  3.8918
  159MOL0     H21427   7.845   0.348   4.120 -2.5102 -3.0864 -0.9740
  159MOL0     H21428   8.071   0.430   4.161  2.4856 -2.2321 -1.0612
  159MOL0     H21429   8.275   0.487   4.191 -2.6668  2.6836  3.0246
  159MOL0     H21430   8.242   0.454   4.357  2.4537  0.9160  1.2420
  159MOL0     H21431   8.452   0.543   4.372 -0.7096  1.0276 -1.2963
  159MOL0     H21432   8.481   0.367   4.380  0.2230 -0.0641  0.5698
  159MOL0     H21433   8.556   0.360   4.151 -1.3251 -0.7941  1.5078
  159MOL0     H21434   8.510   0.528   4.116 -2.3964 -4.2502 -2.3137
  159MOL0     H21435   8.709   0.417   4.309 -0.6182 -2.3601 -2.1759
  159MOL0     H21436   8.663   0.592   4.291  1.0856  1.1699  0.1455
  159MOL0     H21437   8.733   0.579   4.046  2.4564  2.4906  0.4586
  159MOL0     H21438   8.801   0.417   4.083 -3.2413 -0.5994 -0.7477
  159MOL0     H21439   8.893   0.664   4.235 -1.7434  1.2536 -1.0882
  159MOL0     H21440   8.947   0.508   4.251  1.1171  0.9837  0.5921
  159MOL0     H21441   8.976   0.597   3.960  3.3348  1.1222 -0.4623
  159MOL0     H21442   9.062   0.491   4.067 -2.4629 -1.9898  1.0494
  159MOL0     H21443   9.177   0.700   4.010 -0.3022  0.2616 -0.3436
  159MOL0     H21444   9.058   0.781   4.121  0.5791 -0.0561  0.7544
  159MOL0     H21445   8.182   0.059   4.334 -0.7346 -1.8703 -0.9165
  159MOL0     H21446   7.952  -0.018   4.305 -0.7786 -0.1356 -0.6578
  159MOL0     H21447   7.593  -0.258   4.093  1.0609  1.3142 -1.7321
  159MOL0     H21448   7.363  -0.295   4.109  1.4579  0.2556 -1.7762
  159MOL0     H21449   5.686  -0.160   3.166 -1.5431 -2.2559 -1.2050
  159MOL0     H21450   5.463  -0.086   3.127 -1.0815  1.3590  0.5708
  159MOL0     H21451   5.036   0.015   3.416 -2.0955  1.4553  2.1319
  159MOL0     H21452   4.800   0.078   3.411 -0.9557  0.4206 -0.3350
  159MOL0     H21453   4.463   0.095   3.094  0.5116 -0.9174 -3.6124
  159MOL0     H21454   4.610   0.049   3.006 -1.0573  0.6133 -1.8311
  159MOL0     H21455   4.546   0.244   2.909  1.5904  0.2196 -0.5142
  159MOL0     H21456   4.658   0.316   3.040 -0.3637 -0.2453  1.3207
  159MOL0     H21457   4.471   0.369   3.186 -0.9701 -2.5716  0.3132
  159MOL0     H21458   4.357   0.338   3.055  0.2339 -0.7159 -2.0083
  159MOL0     H21459   4.419   0.559   3.085 -0.1873  0.9921  0.8732
  159MOL0     H21460   4.581   0.522   3.026 -0.3477  2.1523 -2.9453
  159MOL0     H21461   4.390   0.540   2.662  3.4339  0.5865 -1.1563
  159MOL0     H21462   4.815   0.099   2.978 -0.8878 -1.1301  0.1555
  159MOL0     H21463   4.985  -0.016   2.869  1.0656  0.5188 -0.8432
  159MOL0     H21464   5.136   0.069   2.918  1.6619 -0.8508  2.5489
  159MOL0     H21465   5.117  -0.111   2.944  2.0109  0.3017 -0.4511
  160MOL0     O21466   3.658   5.742  11.319  0.0811  0.2909 -0.5733
  160MOL0     C21467   3.644   5.845  11.256  0.1219 -0.0121  0.0626
  160MOL0     O21468   3.756   5.913  11.214  0.3810 -0.2317  0.2244
  160MOL0     C21469   3.887   5.915  11.259  0.1646  0.5007  0.8973
  160MOL0     C21470   3.976   6.015  11.216  0.8018 -0.1697  0.9206
  160MOL0     C21471   4.117   6.009  11.239  0.0073  0.0581 -0.0634
  160MOL0     C21472   4.170   5.902  11.325 -0.5187 -1.2685 -0.5142
  160MOL0     O21473   4.296   5.883  11.355  0.1692 -0.4348  0.5727
  160MOL0     C21474   4.364   6.003  11.367  0.2093  0.8623  0.0481
  160MOL0     C21475   4.482   5.985  11.456  0.2921  0.0156 -0.3651
  160MOL0     C21476   4.580   5.886  11.395  0.3860 -0.2088  0.0036
  160MOL0     C21477   4.713   5.874  11.474  0.4598  0.4130 -0.3459
  160MOL0     C21478   4.824   5.802  11.387 -0.2343 -0.1495 -0.0034
  160MOL0     C21479   4.926   5.890  11.318 -0.3512 -0.2989 -0.0370
  160MOL0     C21480   5.009   5.803  11.227 -0.3730 -0.5770  0.0457
  160MOL0     C21481   4.958   5.764  11.089 -0.6536 -0.3749  0.7115
  160MOL0     N21482   5.085   5.722  11.013 -0.3407 -0.6547 -0.1349
  160MOL0     C21483   5.141   5.599  10.990  0.6550  0.2782  0.0402
  160MOL0     C21484   5.247   5.620  10.909 -0.7913  0.6547  0.0683
  160MOL0     C21485   5.348   5.518  10.863  0.1657  0.0080 -0.7642
  160MOL0     C21486   5.491   5.543  10.927 -0.1307  0.3073  0.0908
  160MOL0     C21487   5.581   5.441  10.863 -0.2759 -0.5100  0.3428
  160MOL0     C21488   5.731   5.469  10.891  0.5092  0.1003  0.5367
  160MOL0     O21489   5.754   5.532  11.015  0.0327  0.1102  0.4430
  160MOL0     C21490   5.874   5.507  11.070 -0.3894 -0.2701 -0.4885
  160MOL0     C21491   5.894   5.389  11.142 -0.4406 -0.2858  0.9891
  160MOL0     C21492   6.013   5.357  11.209  0.3578  0.4310 -1.0895
  160MOL0     C21493   6.129   5.441  11.190 -0.5800 -0.2965  0.2037
  160MOL0     C21494   6.266   5.403  11.237  0.3224 -0.2733 -0.9111
  160MOL0     O21495   6.366   5.487  11.203  0.0900  0.2489 -0.4797
  160MOL0     C21496   6.500   5.453  11.239  0.3062  0.4414 -0.6989
  160MOL0     C21497   6.560   5.332  11.204  0.4696 -0.1129  0.8861
  160MOL0     C21498   6.699   5.316  11.233 -1.4419 -0.7050 -0.2863
  160MOL0     C21499   6.773   5.424  11.282 -0.8757 -0.1702  0.1741
  160MOL0     O21500   6.905   5.398  11.288  0.3179  0.0133  0.2433
  160MOL0     C21501   6.986   5.525  11.304 -0.9045 -0.0262  0.1578
  160MOL0     C21502   7.129   5.496  11.304 -0.8943 -0.2607 -0.5575
  160MOL0     C21503   7.215   5.613  11.355 -0.2800  0.5689  0.8195
  160MOL0     C21504   7.355   5.592  11.327  0.3877 -0.0811 -0.5683
  160MOL0     C21505   7.441   5.715  11.365  0.2583  0.3416 -0.5027
  160MOL0     C21506   7.589   5.680  11.331  0.5267 -0.0423 -0.4196
  160MOL0     C21507   7.692   5.763  11.408 -0.0968  0.8058  0.3161
  160MOL0     C21508   7.834   5.702  11.389  0.2746  0.2026  0.3842
  160MOL0    Cl21509   7.972   5.806  11.366 -0.4485 -0.4012  0.1749
  160MOL0     C21510   6.705   5.543  11.319 -0.0192 -0.5215  0.1254
  160MOL0     C21511   6.567   5.551  11.304  0.5847  0.2322 -0.2492
  160MOL0     O21512   6.282   5.297  11.299  0.1362  0.2617 -0.5768
  160MOL0     C21513   6.114   5.552  11.103 -0.5836  0.0117 -0.6177
  160MOL0     C21514   5.989   5.593  11.060 -0.1174  0.0471 -0.1411
  160MOL0     N21515   5.253   5.750  10.881  0.6015 -0.4328 -0.2197
  160MOL0     N21516   5.163   5.810  10.941  0.3378 -0.2830  0.4722
  160MOL0     C21517   4.077   5.805  11.364 -0.5982 -0.0645  0.1634
  160MOL0     C21518   3.945   5.814  11.330 -1.6160 -0.5948  0.2889
  160MOL0     C21519   3.509   5.901  11.236  0.9978 -0.1512 -0.3778
  160MOL0     C21520   3.397   5.820  11.224  0.0259  0.4013 -0.2778
  160MOL0     C21521   3.266   5.861  11.192 -0.8870  0.5184  0.0539
  160MOL0     C21522   3.242   5.997  11.164 -0.2955  0.1175 -0.5284
  160MOL0     O21523   3.126   6.057  11.122  0.2345  0.2324  0.1206
  160MOL0     C21524   3.012   5.977  11.064  1.1251  0.5803 -0.2482
  160MOL0     C21525   2.885   5.985  11.144 -0.0412 -0.5462  0.1052
  160MOL0     C21526   2.749   5.963  11.069 -0.1145  0.0505 -0.8792
  160MOL0     C21527   2.675   6.088  11.031  1.0591 -0.7322  0.1317
  160MOL0     C21528   2.683   6.104  10.878  0.4786  0.1787 -0.8985
  160MOL0     C21529   2.681   6.123  10.760 -0.1891  0.3676  0.0773
  160MOL0     C21530   3.344   6.084  11.183 -0.1786 -0.5784 -0.0513
  160MOL0     C21531   3.477   6.043  11.224  0.8428  0.7074 -0.1660
  160MOL0     C21532   3.565   6.151  11.260 -0.6467  0.5608  0.4273
  160MOL0     H21533   3.933   6.093  11.154 -0.8583 -0.3648  1.7587
  160MOL0     H21534   4.185   6.080  11.195 -0.2959 -0.0051 -0.6366
  160MOL0     H21535   4.415   6.032  11.274  4.2927 -0.5642  1.6387
  160MOL0     H21536   4.302   6.081  11.412 -0.1315  0.3263  0.5265
  160MOL0     H21537   4.451   5.942  11.552  2.8168  0.8000  0.9065
  160MOL0     H21538   4.533   6.078  11.483 -0.9249  0.2142  1.4314
  160MOL0     H21539   4.614   5.934  11.302 -1.5791  0.9104 -0.1883
  160MOL0     H21540   4.547   5.786  11.367  2.6446 -1.3191  1.0693
  160MOL0     H21541   4.735   5.976  11.507  1.5330 -0.4537  1.8050
  160MOL0     H21542   4.691   5.822  11.567  0.6146  1.2274  0.1491
  160MOL0     H21543   4.880   5.736  11.455 -1.1931  0.0874  1.0612
  160MOL0     H21544   4.777   5.737  11.313  1.1861  1.5687 -2.5462
  160MOL0     H21545   4.870   5.969  11.267 -1.3971 -0.4383  0.8465
  160MOL0     H21546   4.982   5.938  11.398 -3.3446  1.1328  1.3732
  160MOL0     H21547   5.037   5.712  11.281  2.0856  0.9400  1.5349
  160MOL0     H21548   5.103   5.858  11.218  0.5755 -1.7737  1.9632
  160MOL0     H21549   4.892   5.679  11.074 -0.5755 -0.3243  0.0424
  160MOL0     H21550   4.925   5.854  11.036 -1.3843  0.2910  2.2365
  160MOL0     H21551   5.106   5.502  11.023 -1.4408  1.7462  2.4963
  160MOL0     H21552   5.309   5.421  10.896  0.1592  0.5714  0.9599
  160MOL0     H21553   5.355   5.503  10.755  0.3564 -4.6937 -0.3173
  160MOL0     H21554   5.530   5.644  10.914 -1.0421  0.6266 -0.2218
  160MOL0     H21555   5.484   5.520  11.034  1.0989 -2.7709 -0.3991
  160MOL0     H21556   5.567   5.437  10.755 -0.0973 -1.4915  0.3457
  160MOL0     H21557   5.556   5.343  10.906 -0.2836  0.4102  2.5985
  160MOL0     H21558   5.768   5.546  10.822  0.3723  0.4528  0.8543
  160MOL0     H21559   5.784   5.373  10.888  0.0979 -0.2667  3.0366
  160MOL0     H21560   5.812   5.318  11.146 -1.2242  0.6597  2.3033
  160MOL0     H21561   6.024   5.266  11.267  1.1270  1.0113 -0.2899
  160MOL0     H21562   6.497   5.259  11.155  0.0194  1.0667 -0.3402
  160MOL0     H21563   6.755   5.224  11.222 -0.4292 -0.1880  0.4101
  160MOL0     H21564   6.958   5.598  11.228  1.7172 -0.3110 -1.1894
  160MOL0     H21565   6.965   5.564  11.404  1.1837  0.1864  0.5466
  160MOL0     H21566   7.152   5.419  11.378  2.1671 -0.9917 -2.1426
  160MOL0     H21567   7.148   5.456  11.204 -1.2983 -0.5281 -0.5307
  160MOL0     H21568   7.190   5.711  11.314  1.8911  1.8875  2.4079
  160MOL0     H21569   7.199   5.625  11.463  1.0911  0.3126  1.0795
  160MOL0     H21570   7.365   5.582  11.219  0.9693 -1.7707 -0.3840
  160MOL0     H21571   7.391   5.500  11.373  1.4364 -0.1234 -1.4427
  160MOL0     H21572   7.437   5.711  11.474  0.3685 -0.9711 -0.5286
  160MOL0     H21573   7.402   5.810  11.326  2.5924  2.3654  1.7811
  160MOL0     H21574   7.607   5.572  11.340  0.2280 -0.0378  0.2571
  160MOL0     H21575   7.604   5.706  11.226  1.6647 -1.6887 -0.6991
  160MOL0     H21576   7.667   5.761  11.514 -0.1906  1.2994  0.3074
  160MOL0     H21577   7.695   5.868  11.376 -1.0505  0.9961  0.8238
  160MOL0     H21578   7.855   5.634  11.473 -3.3614 -1.4888  0.1124
  160MOL0     H21579   7.843   5.649  11.294  1.2730  2.7706 -1.0311
  160MOL0     H21580   6.749   5.635  11.356  0.4823 -0.0051 -1.6749
  160MOL0     H21581   6.507   5.640  11.321  0.3300  0.3988 -1.8270
  160MOL0     H21582   6.200   5.610  11.071 -0.3941  1.1856  1.7635
  160MOL0     H21583   5.983   5.682  10.997  1.7564 -0.9163 -1.7925
  160MOL0     H21584   4.112   5.727  11.430  1.6505  1.9317  1.4916
  160MOL0     H21585   3.887   5.727  11.360 -0.2421 -1.8156 -0.4612
  160MOL0     H21586   3.402   5.711  11.217  0.1894  0.2121  2.1087
  160MOL0     H21587   3.196   5.781  11.174  0.5152 -0.3962 -1.5560
  160MOL0     H21588   3.031   5.870  11.059 -2.5387 -0.3249  1.8170
  160MOL0     H21589   2.995   6.018  10.964 -1.4004  0.0253 -0.0962
  160MOL0     H21590   2.875   6.083  11.190 -0.2275 -0.9912  1.0274
  160MOL0     H21591   2.897   5.903  11.215  0.4628 -0.9552 -0.4398
  160MOL0     H21592   2.677   5.913  11.135 -2.5595  0.6143 -2.9796
  160MOL0     H21593   2.770   5.895  10.986 -1.3354 -0.0784 -1.0990
  160MOL0     H21594   2.570   6.073  11.058  1.5575 -2.8468  1.1019
  160MOL0     H21595   2.714   6.175  11.084  1.8459 -0.4767 -0.8284
  160MOL0     H21596   2.685   6.140  10.654  2.6654  1.1425  0.2244
  160MOL0     H21597   3.334   6.190  11.163  0.2296 -0.0808  2.0910
  160MOL0     H21598   3.628   6.180  11.175  2.2152 -0.0909  2.1779
  160MOL0     H21599   3.516   6.234  11.312 -0.7067  1.5757 -1.1728
  160MOL0     H21600   3.633   6.104  11.332 -1.3853 -0.5894  0.3992
  161MOL0     O21601   8.824   2.957   4.167  0.1000  0.5219 -0.5147
  161MOL0     C21602   8.790   3.036   4.251 -0.0841  0.9907  0.6781
  161MOL0     O21603   8.873   3.085   4.347 -0.3966  0.1958  0.0868
  161MOL0     C21604   8.972   2.996   4.378 -0.6244  0.2389 -0.3717
  161MOL0     C21605   9.097   2.985   4.307  0.2937  0.3551 -0.3078
  161MOL0     C21606   9.198   2.890   4.348  0.2829 -0.0738 -0.3315
  161MOL0     C21607   9.188   2.807   4.461 -0.0023  0.5589 -0.0853
  161MOL0     O21608   9.294   2.726   4.496  0.8625 -0.1160  0.0646
  161MOL0     C21609   9.294   2.666   4.628  0.3372  0.5391  0.3627
  161MOL0     C21610   9.443   2.614   4.660  0.1519  0.7066 -0.6266
  161MOL0     C21611   9.553   2.700   4.631 -1.7832 -0.4121  0.4948
  161MOL0     C21612   9.687   2.661   4.709 -0.1360 -0.3891  0.6551
  161MOL0     C21613   9.759   2.542   4.644  0.3242 -0.4165 -0.0963
  161MOL0     C21614   9.892   2.522   4.712 -0.8355  0.2553  0.8765
  161MOL0     C21615   9.967   2.392   4.682  0.1912  0.7423 -0.4202
  161MOL0     C21616   9.993   2.364   4.536  0.0097 -0.1004  0.5138
  161MOL0     N21617  10.096   2.262   4.521 -0.2709  0.4324  0.2553
  161MOL0     C21618  10.218   2.281   4.467 -0.7647  0.1974  0.5986
  161MOL0     C21619  10.291   2.167   4.492 -0.7771 -0.7689 -0.2704
  161MOL0     C21620  10.432   2.147   4.453 -0.0753 -0.1708 -0.4389
  161MOL0     C21621  10.553   2.220   4.528 -0.0396  0.5141 -0.9772
  161MOL0     C21622  10.570   2.162   4.669 -0.7285 -0.2917 -0.7331
  161MOL0     C21623  10.623   2.015   4.665 -0.0206 -0.5269  0.6589
  161MOL0     O21624  10.737   1.998   4.583  0.0650 -0.4311 -0.3028
  161MOL0     C21625  10.864   2.035   4.629 -0.7062 -0.2277 -0.6613
  161MOL0     C21626  10.889   2.090   4.756  0.8115  0.0145  0.4749
  161MOL0     C21627  11.013   2.123   4.798  0.2134  0.0265 -0.4383
  161MOL0     C21628  11.125   2.089   4.721  0.8438 -0.6757  0.1520
  161MOL0     C21629  11.255   2.109   4.783 -0.6324  0.8217  0.2074
  161MOL0     O21630  11.264   2.205   4.888 -0.4762  0.1564 -0.1950
  161MOL0     C21631  11.389   2.210   4.949  0.1617  0.6963 -0.1765
  161MOL0     C21632  11.411   2.157   5.079  0.3681 -0.6508  0.0604
  161MOL0     C21633  11.533   2.157   5.139  0.4271 -0.1916  0.1967
  161MOL0     C21634  11.650   2.205   5.071 -0.4859 -0.7541  0.4384
  161MOL0     O21635  11.773   2.205   5.132 -0.2664 -0.6127 -0.3985
  161MOL0     C21636  11.769   2.265   5.265 -0.7857 -0.1573 -0.5559
  161MOL0     C21637  11.914   2.254   5.322  0.6040 -0.0203 -0.5900
  161MOL0     C21638  12.025   2.298   5.222  0.1867  0.4385 -0.3627
  161MOL0     C21639  12.014   2.447   5.165  0.6056  0.5246 -0.3421
  161MOL0     C21640  12.099   2.455   5.044  0.0894 -0.3046 -0.5614
  161MOL0     C21641  12.108   2.604   4.999 -1.1326 -0.5466 -0.5403
  161MOL0     C21642  12.246   2.627   4.920 -0.3661 -0.2785  0.6314
  161MOL0     C21643  12.261   2.552   4.789 -0.3082  0.5253  0.0050
  161MOL0    Cl21644  12.118   2.595   4.681  0.5978  0.0222  0.2512
  161MOL0     C21645  11.628   2.262   4.947 -0.7882 -0.0769 -0.2389
  161MOL0     C21646  11.506   2.264   4.884 -0.2812 -0.1667  0.1961
  161MOL0     O21647  11.353   2.061   4.727 -0.0162 -0.7559  0.0825
  161MOL0     C21648  11.104   2.031   4.589 -0.3378  0.0188  0.6308
  161MOL0     C21649  10.972   2.009   4.542  0.5630  0.6907 -1.1854
  161MOL0     N21650  10.210   2.087   4.566 -0.0937  0.2308  0.4158
  161MOL0     N21651  10.096   2.142   4.586  0.0480  0.0037  0.6001
  161MOL0     C21652   9.064   2.816   4.533  0.2428  0.9578  0.1278
  161MOL0     C21653   8.963   2.907   4.491  0.8865  0.6666 -0.1431
  161MOL0     C21654   8.655   3.096   4.247  0.8694 -0.6400  0.0045
  161MOL0     C21655   8.611   3.161   4.367  0.5396  0.1858  0.2136
  161MOL0     C21656   8.473   3.189   4.373 -0.1919 -0.5737  0.3370
  161MOL0     C21657   8.390   3.167   4.264  0.5496 -0.3165  0.7029
  161MOL0     O21658   8.260   3.204   4.248  0.1416  0.2559  0.1690
  161MOL0     C21659   8.201   3.275   4.358 -0.0112 -0.7268  1.1297
  161MOL0     C21660   8.082   3.351   4.295  0.1345  0.0878  0.5945
  161MOL0     C21661   8.007   3.443   4.398  0.2123  0.1959  0.1833
  161MOL0     C21662   7.861   3.460   4.359 -0.8086  0.3742 -0.1822
  161MOL0     C21663   7.842   3.559   4.254 -0.7879  0.0654 -0.5915
  161MOL0     C21664   7.820   3.665   4.196 -0.2671  0.3093 -0.0146
  161MOL0     C21665   8.439   3.120   4.142 -0.1651  0.0679 -0.1749
  161MOL0     C21666   8.569   3.074   4.137 -0.0867 -0.7774 -0.4190
  161MOL0     C21667   8.611   2.996   4.019  0.1674 -0.2750 -0.2295
  161MOL0     H21668   9.121   3.056   4.229  0.0318 -0.4406 -1.1261
  161MOL0     H21669   9.283   2.881   4.282 -0.7552  0.1524 -1.7469
  161MOL0     H21670   9.266   2.740   4.704  3.4114  0.4172  1.7433
  161MOL0     H21671   9.214   2.592   4.636  1.1570 -0.2574  1.4218
  161MOL0     H21672   9.467   2.513   4.626  0.7998  0.6286  0.0413
  161MOL0     H21673   9.435   2.599   4.768 -0.4083  0.1498 -0.7354
  161MOL0     H21674   9.532   2.801   4.667  1.4746  0.8022 -0.5837
  161MOL0     H21675   9.564   2.702   4.522  0.6636  0.4032  0.7011
  161MOL0     H21676   9.755   2.746   4.700 -0.7044 -0.1385 -2.4653
  161MOL0     H21677   9.659   2.645   4.813 -0.1700  1.8833  1.0386
  161MOL0     H21678   9.701   2.449   4.652  3.0150 -2.1782  0.0005
  161MOL0     H21679   9.756   2.569   4.538  0.9414  0.2589  0.0547
  161MOL0     H21680   9.960   2.604   4.687  1.0412 -1.3854  0.2969
  161MOL0     H21681   9.878   2.526   4.821 -0.0324  0.1532  0.9896
  161MOL0     H21682   9.899   2.314   4.717  0.0858  1.3167  0.7067
  161MOL0     H21683  10.061   2.385   4.739  0.5758 -1.9138 -1.2521
  161MOL0     H21684   9.903   2.316   4.496 -0.7990  0.8429  1.1530
  161MOL0     H21685  10.016   2.454   4.478 -1.1156  0.7601  1.3742
  161MOL0     H21686  10.259   2.361   4.407 -0.0328 -0.2918  0.4316
  161MOL0     H21687  10.443   2.038   4.451 -2.0933 -0.4131 -2.0719
  161MOL0     H21688  10.432   2.193   4.354  1.5624 -2.5896 -1.6404
  161MOL0     H21689  10.641   2.215   4.463 -0.1158  4.0996 -1.5207
  161MOL0     H21690  10.527   2.326   4.526  1.5875  0.9400 -1.2559
  161MOL0     H21691  10.476   2.156   4.725 -0.2772 -1.2315 -0.0518
  161MOL0     H21692  10.637   2.221   4.732 -0.0957  0.9016 -2.4675
  161MOL0     H21693  10.541   1.960   4.617 -0.1265 -2.3086  2.7189
  161MOL0     H21694  10.641   1.980   4.768  1.0557 -0.9913  0.3279
  161MOL0     H21695  10.808   2.119   4.821  0.5361  0.7210 -0.1731
  161MOL0     H21696  11.030   2.157   4.900 -1.6028 -0.3456  0.0325
  161MOL0     H21697  11.327   2.119   5.136 -0.3013 -0.8720 -1.0569
  161MOL0     H21698  11.536   2.111   5.237  3.9003 -1.1782 -0.2302
  161MOL0     H21699  11.725   2.365   5.258 -1.6712 -0.5949 -1.4027
  161MOL0     H21700  11.715   2.206   5.340 -0.2103 -1.8390 -1.4115
  161MOL0     H21701  11.928   2.316   5.411  0.4904 -0.1545 -0.4771
  161MOL0     H21702  11.947   2.154   5.350  2.8997  0.5826 -0.9613
  161MOL0     H21703  12.115   2.276   5.279 -1.3085  0.8222  2.3012
  161MOL0     H21704  12.026   2.232   5.134 -1.4853  2.4471 -2.0086
  161MOL0     H21705  12.047   2.521   5.238  0.0746  3.3341 -2.7600
  161MOL0     H21706  11.909   2.472   5.144  0.3221 -0.4020 -0.0820
  161MOL0     H21707  12.049   2.402   4.962 -2.7997  0.7016  0.4086
  161MOL0     H21708  12.194   2.413   5.079  0.9162  2.5882  0.9513
  161MOL0     H21709  12.021   2.627   4.937  0.1593 -1.0706 -2.6651
  161MOL0     H21710  12.111   2.669   5.087 -4.5897 -0.4203 -0.3658
  161MOL0     H21711  12.328   2.587   4.980  0.9762 -0.5054 -1.2671
  161MOL0     H21712  12.267   2.734   4.912 -0.8468 -0.2761 -1.0303
  161MOL0     H21713  12.353   2.584   4.739 -0.4295  2.0460  0.6656
  161MOL0     H21714  12.267   2.445   4.808 -2.9585  0.7009  2.5167
  161MOL0     H21715  11.716   2.303   4.898 -0.9656  1.5351  0.7051
  161MOL0     H21716  11.494   2.315   4.789 -0.6485 -0.9500 -0.1981
  161MOL0     H21717  11.185   2.009   4.520 -1.5762  3.5549 -2.3604
  161MOL0     H21718  10.958   1.978   4.439  2.9523  2.1690 -2.0530
  161MOL0     H21719   9.051   2.757   4.624  0.1349  3.2890  1.7106
  161MOL0     H21720   8.880   2.910   4.562 -0.1593  1.1867 -1.3473
  161MOL0     H21721   8.684   3.190   4.442  1.1814  2.3338 -1.1506
  161MOL0     H21722   8.428   3.231   4.462 -0.9733  2.3665 -1.2931
  161MOL0     H21723   8.270   3.354   4.391 -2.8366  1.9339  1.1332
  161MOL0     H21724   8.174   3.203   4.435 -5.0641  0.7517  1.0917
  161MOL0     H21725   8.006   3.282   4.256 -1.0243 -0.3264  3.3541
  161MOL0     H21726   8.121   3.416   4.217  1.0815 -0.4591  0.6015
  161MOL0     H21727   8.061   3.538   4.393 -0.2970  0.4543 -0.6271
  161MOL0     H21728   8.011   3.397   4.497  1.0391  1.1570  0.6086
  161MOL0     H21729   7.831   3.361   4.322  1.6633 -0.6877  0.4642
  161MOL0     H21730   7.797   3.483   4.444  1.3076 -3.2899  2.7458
  161MOL0     H21731   7.831   3.755   4.139  1.5944  2.6621  3.6126
  161MOL0     H21732   8.368   3.097   4.064 -0.7442  0.6211  0.1811
  161MOL0     H21733   8.528   2.969   3.953  1.9840 -0.4527 -2.5752
  161MOL0     H21734   8.674   3.058   3.955 -2.2643 -0.7443 -3.3024
  161MOL0     H21735   8.645   2.894   4.039 -0.2108 -0.5618 -1.0009
  162MOL0     O21736   6.548   7.236   7.437  0.1946  0.1001  0.2631
  162MOL0     C21737   6.494   7.330   7.485 -0.0417  0.4939  0.6225
  162MOL0     O21738   6.537   7.397   7.596 -0.1622 -0.1074  0.3215
  162MOL0     C21739   6.666   7.381   7.634 -1.2776 -0.3404  0.4455
  162MOL0     C21740   6.703   7.352   7.765 -1.1823 -0.2580  0.3032
  162MOL0     C21741   6.838   7.360   7.800  0.8362  0.2633 -0.4159
  162MOL0     C21742   6.939   7.396   7.716 -0.6905 -0.7292  0.9493
  162MOL0     O21743   7.071   7.422   7.754 -0.8024  0.6181 -0.4369
  162MOL0     C21744   7.119   7.401   7.891  0.2599  0.8199 -0.0217
  162MOL0     C21745   7.268   7.424   7.910  0.2857 -1.0383  0.5939
  162MOL0     C21746   7.345   7.314   7.840 -0.5007  0.3623 -0.3683
  162MOL0     C21747   7.495   7.321   7.873 -0.5924 -0.4550 -0.1277
  162MOL0     C21748   7.556   7.204   7.794  0.3939 -0.3752  0.1647
  162MOL0     C21749   7.706   7.182   7.848  0.0573 -0.6984  1.0479
  162MOL0     C21750   7.785   7.070   7.768 -0.1086 -0.2613  0.1947
  162MOL0     C21751   7.836   7.118   7.635  0.1315  0.2817 -0.0181
  162MOL0     N21752   7.943   7.019   7.593  0.4302  0.7088 -0.0388
  162MOL0     C21753   8.027   6.942   7.673  0.7309  0.0864 -0.0457
  162MOL0     C21754   8.092   6.858   7.586 -0.1429 -0.6577  0.0119
  162MOL0     C21755   8.183   6.742   7.623 -0.0892 -0.0247 -0.4519
  162MOL0     C21756   8.333   6.788   7.638  1.1743  0.0973  0.1474
  162MOL0     C21757   8.432   6.674   7.627 -0.5534 -0.0611 -0.6488
  162MOL0     C21758   8.578   6.722   7.618  0.5304  1.1132 -0.1588
  162MOL0     O21759   8.619   6.744   7.757 -0.9460  0.4009  0.0309
  162MOL0     C21760   8.654   6.873   7.791  0.3911 -0.5514 -0.1310
  162MOL0     C21761   8.609   6.932   7.906  0.6657 -0.5559  0.5582
  162MOL0     C21762   8.673   7.043   7.942 -0.1644 -0.6272 -0.0189
  162MOL0     C21763   8.782   7.106   7.877  0.2867  0.6368  0.4199
  162MOL0     C21764   8.842   7.241   7.926  0.4336  0.6535  0.4303
  162MOL0     O21765   8.905   7.315   7.826 -0.7548 -0.1690 -0.1582
  162MOL0     C21766   8.974   7.428   7.863  0.7876  0.9046 -0.1736
  162MOL0     C21767   9.100   7.417   7.915 -1.0989 -0.9302  0.6571
  162MOL0     C21768   9.172   7.538   7.940  0.0603  0.2303 -0.1420
  162MOL0     C21769   9.117   7.665   7.911  0.2481  0.9433  0.8839
  162MOL0     O21770   9.184   7.786   7.936 -0.0280  0.2660  0.5370
  162MOL0     C21771   9.166   7.897   7.842  0.4903 -0.0799  0.1762
  162MOL0     C21772   9.237   7.860   7.706  0.9362  0.2006 -0.3754
  162MOL0     C21773   9.383   7.860   7.733 -0.0123 -0.0447 -0.1088
  162MOL0     C21774   9.451   7.989   7.690  0.4617 -0.8571  0.2563
  162MOL0     C21775   9.603   7.993   7.710  0.1458  0.3398 -0.1403
  162MOL0     C21776   9.645   8.000   7.855 -0.0245 -0.1196 -0.2470
  162MOL0     C21777   9.790   8.048   7.872  0.0082 -0.0785  0.4922
  162MOL0     C21778   9.894   7.944   7.814  0.1548 -0.3291  0.4347
  162MOL0    Cl21779   9.922   7.959   7.634  0.5010  0.1765  0.1030
  162MOL0     C21780   8.991   7.664   7.849 -0.0455  0.3991 -0.2026
  162MOL0     C21781   8.913   7.545   7.837  0.1972 -0.7440 -0.4999
  162MOL0     O21782   8.808   7.278   8.032 -0.8082  0.4205  0.0609
  162MOL0     C21783   8.820   7.056   7.750 -0.1130 -0.4465 -0.1397
  162MOL0     C21784   8.755   6.936   7.713  0.0127 -0.3460  0.1239
  162MOL0     N21785   8.060   6.893   7.456 -0.8844 -0.0132  0.7641
  162MOL0     N21786   7.972   6.988   7.456  0.7983  0.6505 -0.4127
  162MOL0     C21787   6.904   7.405   7.582  0.0700 -0.2697  0.0862
  162MOL0     C21788   6.766   7.408   7.538 -1.0871 -1.2255 -0.3040
  162MOL0     C21789   6.362   7.379   7.433 -0.7632  0.3110 -0.4503
  162MOL0     C21790   6.326   7.521   7.454  0.5640  0.5306  0.5446
  162MOL0     C21791   6.202   7.567   7.410 -1.1069 -0.4659 -0.4775
  162MOL0     C21792   6.115   7.488   7.345 -0.0471  0.3575  0.1460
  162MOL0     O21793   5.994   7.547   7.304 -0.1639 -0.1106  0.3160
  162MOL0     C21794   5.873   7.463   7.300  0.2282  0.0135 -0.2870
  162MOL0     C21795   5.769   7.519   7.394 -0.1684  1.0972  0.1164
  162MOL0     C21796   5.799   7.527   7.543 -0.0172  0.1604 -0.0552
  162MOL0     C21797   5.693   7.589   7.631  0.0062 -0.9960  0.4315
  162MOL0     C21798   5.705   7.547   7.770 -1.0760  0.0549 -0.6105
  162MOL0     C21799   5.705   7.513   7.890 -0.2141  0.5012  0.2108
  162MOL0     C21800   6.147   7.356   7.318 -0.3717 -0.1259  0.5769
  162MOL0     C21801   6.264   7.296   7.369 -0.0268 -0.4536  0.2645
  162MOL0     C21802   6.270   7.143   7.353 -0.5778 -1.3518  0.1475
  162MOL0     H21803   6.622   7.338   7.837 -1.5713  1.5211  0.2583
  162MOL0     H21804   6.864   7.344   7.904  3.8024 -1.6282 -1.3190
  162MOL0     H21805   7.064   7.465   7.960  0.9077 -1.2786  2.6302
  162MOL0     H21806   7.087   7.302   7.927  3.6991 -0.4407 -0.1080
  162MOL0     H21807   7.303   7.420   8.014  2.6015  3.0192  0.1513
  162MOL0     H21808   7.295   7.523   7.874 -0.3450 -0.6895  1.0478
  162MOL0     H21809   7.326   7.316   7.732 -0.3009  0.2412 -0.4071
  162MOL0     H21810   7.310   7.218   7.879  0.9363  0.2663  0.7725
  162MOL0     H21811   7.552   7.410   7.844  0.6842 -1.4359 -0.7193
  162MOL0     H21812   7.500   7.319   7.982 -0.1239 -3.5939 -0.1216
  162MOL0     H21813   7.495   7.115   7.813 -1.6723  0.7118 -1.0528
  162MOL0     H21814   7.554   7.215   7.685  0.4712 -6.1032 -0.7650
  162MOL0     H21815   7.761   7.274   7.827 -1.4697 -0.1521 -0.8208
  162MOL0     H21816   7.700   7.165   7.956  0.8061  1.6440  1.5114
  162MOL0     H21817   7.715   6.991   7.741 -0.6553  0.3047 -0.0713
  162MOL0     H21818   7.863   7.038   7.838  1.2989  0.2373 -1.0836
  162MOL0     H21819   7.757   7.116   7.559  1.2550  0.9038 -1.2579
  162MOL0     H21820   7.876   7.220   7.637 -0.1886  0.4238 -0.6194
  162MOL0     H21821   8.048   6.930   7.778  1.0888 -1.1524 -0.2447
  162MOL0     H21822   8.152   6.685   7.711  0.9807  2.0281  1.3582
  162MOL0     H21823   8.183   6.680   7.533  0.3253 -0.2258 -0.3136
  162MOL0     H21824   8.353   6.868   7.566  2.1602 -1.6674 -1.6602
  162MOL0     H21825   8.341   6.831   7.738  0.3814 -0.1689  0.3320
  162MOL0     H21826   8.415   6.626   7.531  0.1328 -0.4568 -0.5769
  162MOL0     H21827   8.418   6.602   7.708  2.9686  1.4946  1.5996
  162MOL0     H21828   8.586   6.804   7.546  2.9653 -0.0539 -1.3545
  162MOL0     H21829   8.648   6.646   7.582 -0.8761 -0.7730  0.9200
  162MOL0     H21830   8.537   6.883   7.971 -0.5590 -1.1599 -1.1625
  162MOL0     H21831   8.642   7.092   8.034  1.6354 -1.1620  0.9016
  162MOL0     H21832   9.155   7.323   7.920  0.4167 -0.0848  0.6144
  162MOL0     H21833   9.272   7.535   7.982 -0.8470 -1.8056  2.1614
  162MOL0     H21834   9.063   7.932   7.837  1.5024  3.4787  1.4105
  162MOL0     H21835   9.215   7.981   7.892 -1.8179  1.2021  0.3891
  162MOL0     H21836   9.210   7.761   7.667 -0.3980  0.8748 -1.2427
  162MOL0     H21837   9.200   7.933   7.633  0.3752  0.3720  0.0755
  162MOL0     H21838   9.406   7.830   7.836 -2.5462  0.1648  0.6078
  162MOL0     H21839   9.413   7.776   7.669 -0.5961 -1.6337  1.5971
  162MOL0     H21840   9.420   8.072   7.753  2.5277  0.4074 -0.2894
  162MOL0     H21841   9.420   8.005   7.586  1.2565 -1.7606 -0.1407
  162MOL0     H21842   9.628   8.083   7.653 -0.3594 -0.6094 -1.9395
  162MOL0     H21843   9.652   7.911   7.657 -1.4527 -0.4410 -0.4470
  162MOL0     H21844   9.579   8.068   7.910 -2.1648 -0.6484 -1.9720
  162MOL0     H21845   9.637   7.902   7.903 -0.8665 -0.1669 -0.4495
  162MOL0     H21846   9.804   8.078   7.976 -1.0552 -0.3181  0.7100
  162MOL0     H21847   9.810   8.139   7.815  1.9949 -1.4327 -1.1159
  162MOL0     H21848   9.996   7.943   7.854 -0.1669 -1.2303  1.2882
  162MOL0     H21849   9.856   7.844   7.838  1.5575 -1.2676 -0.9981
  162MOL0     H21850   8.939   7.758   7.834 -0.8252 -0.1583 -1.1100
  162MOL0     H21851   8.813   7.532   7.797 -0.5146  0.4224  0.8165
  162MOL0     H21852   8.888   7.111   7.685 -0.7556 -0.6105 -0.9723
  162MOL0     H21853   8.792   6.887   7.623  1.3194  0.1634  0.3535
  162MOL0     H21854   6.976   7.433   7.506  2.0791 -1.5267  1.4253
  162MOL0     H21855   6.746   7.416   7.431  0.0602  0.9181 -0.4270
  162MOL0     H21856   6.395   7.588   7.503  0.5736  0.3471  0.7814
  162MOL0     H21857   6.178   7.670   7.431 -0.7930 -0.3516 -0.6730
  162MOL0     H21858   5.891   7.356   7.314  1.3522  0.2326  0.0846
  162MOL0     H21859   5.834   7.468   7.198 -0.2482  1.4192 -0.0598
  162MOL0     H21860   5.681   7.456   7.383 -0.1351  1.0093  0.3544
  162MOL0     H21861   5.738   7.619   7.361  1.6254  1.0432 -1.9823
  162MOL0     H21862   5.890   7.586   7.556  0.3614 -0.5481  0.5075
  162MOL0     H21863   5.816   7.430   7.590 -0.6243  0.4084  0.6957
  162MOL0     H21864   5.698   7.697   7.614 -1.0492 -1.1034 -0.7659
  162MOL0     H21865   5.591   7.558   7.603 -0.0874  0.3821 -0.9429
  162MOL0     H21866   5.687   7.492   7.994 -0.6627 -3.4350 -0.5098
  162MOL0     H21867   6.089   7.288   7.256  0.1336  0.4031 -0.5243
  162MOL0     H21868   6.169   7.102   7.350 -1.5252  0.8160  0.4800
  162MOL0     H21869   6.332   7.123   7.265  1.4882 -0.2053  1.2512
  162MOL0     H21870   6.329   7.104   7.437  2.0883  2.4261  0.3063
  163MOL0     O21871   7.129   8.279   4.120  0.4552  0.4995  0.1097
  163MOL0     C21872   7.190   8.199   4.192 -0.1522  0.0517  0.8214
  163MOL0     O21873   7.334   8.185   4.194  0.6987  0.5444 -0.1268
  163MOL0     C21874   7.418   8.272   4.121 -0.4853  0.3830  0.0281
  163MOL0     C21875   7.392   8.400   4.073  0.8449  0.2544  0.0623
  163MOL0     C21876   7.494   8.481   4.014  0.1706 -0.5624  0.3591
  163MOL0     C21877   7.619   8.420   3.998  0.2013 -1.0420 -0.3365
  163MOL0     O21878   7.719   8.510   3.965 -0.5200  0.0752  0.4705
  163MOL0     C21879   7.837   8.464   3.902 -0.0444  0.7909  0.7241
  163MOL0     C21880   7.905   8.583   3.838  0.2317  1.2932 -0.5397
  163MOL0     C21881   8.020   8.529   3.756  0.6696 -0.3692  0.4404
  163MOL0     C21882   8.147   8.525   3.842  1.1426 -0.0976 -0.3062
  163MOL0     C21883   8.266   8.473   3.779 -0.6105 -0.3828 -0.6555
  163MOL0     C21884   8.396   8.538   3.820  0.3304  0.5169  0.1487
  163MOL0     C21885   8.517   8.476   3.754  0.5160  0.9321  0.3517
  163MOL0     C21886   8.642   8.505   3.831 -0.1718 -0.3046 -0.5729
  163MOL0     N21887   8.752   8.429   3.786  0.0363 -0.5799  0.1331
  163MOL0     C21888   8.758   8.299   3.797  0.3220  0.0122  0.4947
  163MOL0     C21889   8.883   8.284   3.739  0.8786 -0.0086 -0.0410
  163MOL0     C21890   8.966   8.159   3.731  0.6193  0.1136 -0.2990
  163MOL0     C21891   8.995   8.098   3.588  1.1852  0.0626  0.1467
  163MOL0     C21892   9.055   7.959   3.587  0.8452 -0.9045  0.2978
  163MOL0     C21893   9.201   7.953   3.652  0.6153  0.1921  0.3231
  163MOL0     O21894   9.288   8.030   3.574 -0.0249  0.0914  0.3101
  163MOL0     C21895   9.414   8.002   3.581 -1.0059 -1.0097 -0.4581
  163MOL0     C21896   9.490   8.061   3.476 -0.0366 -0.4355  0.2741
  163MOL0     C21897   9.628   8.046   3.470  0.5543  0.0670 -0.1836
  163MOL0     C21898   9.700   7.991   3.582  0.1880 -0.7991 -0.6447
  163MOL0     C21899   9.849   8.005   3.595  0.7882 -0.1521 -0.1236
  163MOL0     O21900   9.897   7.958   3.709 -0.0052 -0.1575 -0.1525
  163MOL0     C21901  10.011   8.014   3.757 -0.0147 -0.1466  0.4604
  163MOL0     C21902  10.130   8.026   3.680 -0.2664  0.9280  0.1976
  163MOL0     C21903  10.245   8.089   3.739 -0.0407 -0.2395  0.1173
  163MOL0     C21904  10.239   8.138   3.874 -0.4451  0.6515  0.3157
  163MOL0     O21905  10.342   8.203   3.938  0.0592 -0.0915  1.2359
  163MOL0     C21906  10.325   8.344   3.913  0.5218 -0.5248 -0.5936
  163MOL0     C21907  10.410   8.439   4.006  0.4510 -0.7274 -0.0208
  163MOL0     C21908  10.556   8.443   3.959 -0.6271  0.1270  0.6727
  163MOL0     C21909  10.652   8.521   4.056  0.3261 -0.4675 -0.3091
  163MOL0     C21910  10.794   8.496   4.002 -0.1448 -0.8013 -0.8531
  163MOL0     C21911  10.908   8.552   4.094  1.0350 -0.2276 -0.3988
  163MOL0     C21912  11.042   8.550   4.031  0.4609 -0.1913 -0.5496
  163MOL0     C21913  11.074   8.421   3.959 -0.8498  0.4686 -0.1065
  163MOL0    Cl21914  11.062   8.277   4.066  0.1738  0.2300  0.1901
  163MOL0     C21915  10.121   8.140   3.938 -0.1936 -0.5081 -0.5070
  163MOL0     C21916  10.009   8.079   3.882  0.4287 -0.2851 -0.3532
  163MOL0     O21917   9.911   8.053   3.499 -0.0309 -0.0626 -0.3983
  163MOL0     C21918   9.626   7.930   3.683 -0.2061 -0.0844  0.1648
  163MOL0     C21919   9.485   7.935   3.684  0.5800  0.2954  0.0916
  163MOL0     N21920   8.935   8.402   3.687 -0.1534  0.3571 -0.3413
  163MOL0     N21921   8.850   8.493   3.718 -0.0930 -0.0659  0.6489
  163MOL0     C21922   7.639   8.289   4.026 -0.5104  0.1524 -0.3572
  163MOL0     C21923   7.537   8.210   4.080 -0.4572  0.8822 -0.6229
  163MOL0     C21924   7.116   8.110   4.289 -0.0551 -0.1835 -0.3077
  163MOL0     C21925   7.194   8.038   4.378  1.0941  0.1851 -0.4112
  163MOL0     C21926   7.140   7.967   4.483  0.1749 -0.4253 -0.4614
  163MOL0     C21927   7.002   7.969   4.509 -0.5394  0.2203 -0.0335
  163MOL0     O21928   6.962   7.874   4.604  0.0115 -0.5755  0.2395
  163MOL0     C21929   6.823   7.861   4.615  0.3762  0.9073 -0.1181
  163MOL0     C21930   6.796   7.782   4.742 -0.6329  0.0416 -0.4451
  163MOL0     C21931   6.659   7.704   4.753  0.4077 -0.2358 -0.5289
  163MOL0     C21932   6.540   7.799   4.742  0.2084 -0.3014 -0.0845
  163MOL0     C21933   6.503   7.816   4.596 -0.5644 -0.0088 -1.1854
  163MOL0     C21934   6.505   7.836   4.478 -0.2488 -0.1187  0.2592
  163MOL0     C21935   6.919   8.048   4.428 -0.9794  1.0564  0.4001
  163MOL0     C21936   6.977   8.122   4.323  0.7606 -0.3266 -0.0124
  163MOL0     C21937   6.887   8.205   4.246 -0.3995 -0.9636  0.2186
  163MOL0     H21938   7.294   8.439   4.100  0.9643  0.0871  0.7637
  163MOL0     H21939   7.492   8.589   4.005  0.7307 -0.4399  1.4483
  163MOL0     H21940   7.908   8.427   3.977  3.4242  2.8172 -1.2664
  163MOL0     H21941   7.809   8.384   3.833 -1.0247  1.0037  0.8598
  163MOL0     H21942   7.939   8.643   3.923  2.6452 -1.8292  0.8812
  163MOL0     H21943   7.833   8.626   3.768  0.3529 -0.8378 -2.0424
  163MOL0     H21944   8.030   8.600   3.673  3.9726 -1.8537 -0.5945
  163MOL0     H21945   8.003   8.429   3.716  2.2453 -0.5695  0.2136
  163MOL0     H21946   8.171   8.629   3.867  1.8823  0.1336 -1.8374
  163MOL0     H21947   8.125   8.467   3.932 -0.0619  0.8220  0.0149
  163MOL0     H21948   8.280   8.368   3.806 -0.8018  0.3609  2.8184
  163MOL0     H21949   8.246   8.485   3.672 -3.7199  1.9171  0.0311
  163MOL0     H21950   8.404   8.645   3.802 -2.0892  0.6693 -0.2710
  163MOL0     H21951   8.411   8.526   3.928 -0.0159  0.1540  0.1594
  163MOL0     H21952   8.533   8.511   3.651  1.8933  0.1884  0.2777
  163MOL0     H21953   8.507   8.368   3.739 -0.0421  0.7086  2.1411
  163MOL0     H21954   8.652   8.613   3.821 -0.8649 -0.2516 -0.7247
  163MOL0     H21955   8.634   8.493   3.939 -2.4816  0.2079 -0.6471
  163MOL0     H21956   8.691   8.226   3.840 -0.4835  0.4470 -0.0052
  163MOL0     H21957   9.064   8.173   3.778 -0.2544 -1.7405  2.2614
  163MOL0     H21958   8.927   8.076   3.791  0.6366 -1.5952 -2.5103
  163MOL0     H21959   8.897   8.096   3.540  0.7904  0.5800  0.8997
  163MOL0     H21960   9.054   8.164   3.524 -0.2252  0.0423 -1.2247
  163MOL0     H21961   9.050   7.924   3.483 -2.4667 -1.2055  0.4436
  163MOL0     H21962   8.982   7.904   3.647 -2.4516  0.4573 -2.0729
  163MOL0     H21963   9.225   7.846   3.650  0.1642  0.0878 -1.4286
  163MOL0     H21964   9.203   7.997   3.752  1.6568  3.0398 -0.8552
  163MOL0     H21965   9.433   8.115   3.402 -0.8124 -1.2118  0.2895
  163MOL0     H21966   9.692   8.079   3.389  0.3511 -1.4442 -0.9893
  163MOL0     H21967  10.133   7.981   3.581  0.2853 -0.2756  0.7411
  163MOL0     H21968  10.340   8.102   3.688 -0.9523 -0.7309 -1.8032
  163MOL0     H21969  10.346   8.370   3.809  1.0103  0.4040 -0.2772
  163MOL0     H21970  10.221   8.377   3.925  0.7676  0.9911 -2.0797
  163MOL0     H21971  10.358   8.535   4.009  0.1660 -0.6596 -3.3496
  163MOL0     H21972  10.405   8.405   4.110  0.1016  1.9892  0.9190
  163MOL0     H21973  10.595   8.343   3.938  0.0569  0.1403  1.8045
  163MOL0     H21974  10.569   8.502   3.868  0.0679  1.8655  1.8470
  163MOL0     H21975  10.643   8.480   4.156 -1.4609 -1.4922 -0.8367
  163MOL0     H21976  10.616   8.625   4.053  0.3352 -0.4570 -2.7745
  163MOL0     H21977  10.805   8.532   3.899  2.3437  0.9577 -0.0641
  163MOL0     H21978  10.813   8.388   3.992  0.4013 -0.9523  1.4087
  163MOL0     H21979  10.874   8.645   4.140 -0.7062 -2.4084  3.2302
  163MOL0     H21980  10.923   8.486   4.181 -1.2790 -0.5210 -0.1814
  163MOL0     H21981  11.124   8.576   4.098  0.3916 -0.9273 -0.1716
  163MOL0     H21982  11.047   8.626   3.952 -2.1209  0.3972 -0.2261
  163MOL0     H21983  11.015   8.414   3.868 -2.0373 -1.2998  0.7594
  163MOL0     H21984  11.179   8.414   3.927 -0.3130 -1.3437  1.8200
  163MOL0     H21985  10.129   8.176   4.040 -1.7869 -1.6044  0.0354
  163MOL0     H21986   9.917   8.087   3.938  0.1461  1.4433 -1.0200
  163MOL0     H21987   9.673   7.880   3.767 -3.2184 -1.0613  1.3943
  163MOL0     H21988   9.438   7.880   3.764 -1.8106 -1.0130 -2.0469
  163MOL0     H21989   7.736   8.246   4.005 -0.7698  0.2490 -1.8652
  163MOL0     H21990   7.557   8.104   4.090 -3.3512  0.4464  2.6401
  163MOL0     H21991   7.301   8.023   4.371  1.5064 -1.1009  4.6796
  163MOL0     H21992   7.195   7.899   4.547  0.0728  2.4764  2.9839
  163MOL0     H21993   6.789   7.802   4.530  0.3870 -2.1655  1.8464
  163MOL0     H21994   6.781   7.961   4.626  0.7671  1.2562 -1.6239
  163MOL0     H21995   6.804   7.848   4.828  1.0167  0.2672 -0.7370
  163MOL0     H21996   6.877   7.708   4.749 -0.5036 -0.0203 -2.1452
  163MOL0     H21997   6.649   7.653   4.849 -1.7697  3.0229  1.2012
  163MOL0     H21998   6.660   7.621   4.682  2.4411 -1.6675  1.0923
  163MOL0     H21999   6.464   7.773   4.816  1.1382  0.6125  1.2405
  163MOL0     H22000   6.575   7.895   4.779 -1.6134  0.6369 -0.7094
  163MOL0     H22001   6.506   7.857   4.373 -0.6249 -0.2700  0.2218
  163MOL0     H22002   6.812   8.064   4.437 -1.5104 -0.2344 -2.4517
  163MOL0     H22003   6.905   8.311   4.266 -1.5099 -0.6772 -0.2166
  163MOL0     H22004   6.912   8.183   4.141  1.7267  2.1229 -0.0568
  163MOL0     H22005   6.781   8.180   4.255 -1.1181  2.3479  3.0364
  164MOL0     O22006  10.390   4.553   1.022  0.1595 -0.5095 -0.1840
  164MOL0     C22007  10.420   4.593   1.135  0.4896 -1.0834 -0.2664
  164MOL0     O22008  10.496   4.528   1.228 -0.5607 -0.3997 -0.2424
  164MOL0     C22009  10.572   4.422   1.182 -0.5464 -0.7749 -0.0044
  164MOL0     C22010  10.582   4.311   1.263  1.1989  0.7534  0.6034
  164MOL0     C22011  10.641   4.198   1.215 -0.4788  0.3380  0.4485
  164MOL0     C22012  10.701   4.193   1.088 -0.7444  0.7933  0.4295
  164MOL0     O22013  10.746   4.070   1.035  0.1080 -0.7980 -0.4114
  164MOL0     C22014  10.811   3.990   1.140 -0.0316 -1.1997 -0.0736
  164MOL0     C22015  10.883   3.877   1.061 -0.0387  0.0058 -0.3013
  164MOL0     C22016  10.952   3.768   1.150 -0.1998 -0.9995  0.6657
  164MOL0     C22017  11.049   3.696   1.058 -0.2795 -0.0337 -0.1473
  164MOL0     C22018  11.134   3.588   1.129  0.3078 -0.2672  0.0727
  164MOL0     C22019  11.271   3.573   1.060  0.6686 -0.4303 -0.7283
  164MOL0     C22020  11.277   3.537   0.907  0.0095 -0.3606 -0.0096
  164MOL0     C22021  11.411   3.472   0.868 -0.1708  0.4841 -0.2865
  164MOL0     N22022  11.415   3.335   0.923 -0.1232  0.0197  0.4475
  164MOL0     C22023  11.531   3.272   0.969  0.2649  0.0012 -0.1007
  164MOL0     C22024  11.499   3.141   0.987 -0.7613  0.9893  0.8440
  164MOL0     C22025  11.591   3.029   1.018  0.4612 -0.5722  0.4084
  164MOL0     C22026  11.709   3.002   0.917 -0.6603  0.1560  0.6915
  164MOL0     C22027  11.832   2.944   0.972 -1.3661  0.2960 -0.2898
  164MOL0     C22028  11.961   2.960   0.884  0.1442 -0.5641  0.4788
  164MOL0     O22029  12.064   2.890   0.946  0.2455  0.3906  0.6605
  164MOL0     C22030  12.186   2.952   0.973 -0.6616 -0.7421  0.3248
  164MOL0     C22031  12.298   2.870   0.961  0.1485 -0.2618 -0.3146
  164MOL0     C22032  12.431   2.921   0.973  0.0699  0.2036  1.3067
  164MOL0     C22033  12.450   3.057   0.989 -0.5962  0.4303 -0.9382
  164MOL0     C22034  12.590   3.122   1.005 -0.6556 -0.3551 -0.9271
  164MOL0     O22035  12.693   3.032   1.025 -0.0676 -0.2547  0.1507
  164MOL0     C22036  12.826   3.069   1.030  0.0106 -0.3539  0.5439
  164MOL0     C22037  12.916   2.974   1.092 -0.0092 -0.6304  0.2409
  164MOL0     C22038  13.056   2.988   1.088  0.8532 -0.3713 -0.1241
  164MOL0     C22039  13.108   3.098   1.018  0.4436  0.1542  0.3942
  164MOL0     O22040  13.240   3.094   1.021  0.3229  0.8555 -0.6767
  164MOL0     C22041  13.310   3.177   0.930 -0.2574  0.1197  0.3759
  164MOL0     C22042  13.451   3.135   0.895  0.6007 -1.3460 -0.8745
  164MOL0     C22043  13.524   3.244   0.821  0.6223 -0.0728 -0.4714
  164MOL0     C22044  13.670   3.209   0.796  0.3260 -0.1985 -0.2141
  164MOL0     C22045  13.734   3.318   0.706 -0.3326 -0.3075 -0.1200
  164MOL0     C22046  13.861   3.257   0.640  0.1580 -0.4166  0.4521
  164MOL0     C22047  13.974   3.217   0.740 -0.0239  0.9227  0.7363
  164MOL0     C22048  14.106   3.174   0.677  0.9428 -0.6323  0.0533
  164MOL0    Cl22049  14.229   3.121   0.788  0.0650 -0.1938  0.4557
  164MOL0     C22050  13.021   3.181   0.953  0.0330  0.0794 -0.0432
  164MOL0     C22051  12.878   3.168   0.954 -0.4043  0.0151  0.4111
  164MOL0     O22052  12.598   3.245   0.992  0.0718  0.3231  0.0359
  164MOL0     C22053  12.335   3.142   1.002 -0.1813 -0.5910  0.5983
  164MOL0     C22054  12.208   3.089   0.990  0.6283 -0.5835 -0.7940
  164MOL0     N22055  11.369   3.124   0.946  0.1192 -0.6435 -0.6172
  164MOL0     N22056  11.320   3.246   0.910 -0.4579  0.5687 -0.0010
  164MOL0     C22057  10.700   4.308   1.010 -0.2754  0.1120  0.1413
  164MOL0     C22058  10.640   4.428   1.055  0.4690 -0.2779  0.4881
  164MOL0     C22059  10.331   4.705   1.182 -0.0149 -0.3418 -0.1162
  164MOL0     C22060  10.194   4.689   1.200  0.9335 -0.1225  0.1550
  164MOL0     C22061  10.108   4.797   1.237  0.2007 -0.5857 -1.1464
  164MOL0     C22062  10.167   4.920   1.262  0.0597 -0.5006 -0.1332
  164MOL0     O22063  10.067   5.020   1.295  1.0069 -0.0819  0.2954
  164MOL0     C22064  10.096   5.157   1.308 -0.5786 -0.0221 -0.1428
  164MOL0     C22065   9.991   5.245   1.381  0.0074  1.7542 -0.5117
  164MOL0     C22066   9.848   5.230   1.338 -0.1139 -0.4276 -0.5304
  164MOL0     C22067   9.746   5.297   1.441 -0.0845 -0.6089 -0.7386
  164MOL0     C22068   9.744   5.205   1.560  0.2625 -0.7174  0.7287
  164MOL0     C22069   9.734   5.134   1.658  0.4056 -0.9373 -0.6015
  164MOL0     C22070  10.305   4.938   1.260 -0.2041 -0.1242 -0.6010
  164MOL0     C22071  10.386   4.837   1.213 -0.0092 -0.6946 -0.8035
  164MOL0     C22072  10.525   4.877   1.185 -0.5415 -0.2893  0.3088
  164MOL0     H22073  10.523   4.302   1.354  0.6994 -2.2737  0.0810
  164MOL0     H22074  10.641   4.110   1.279  1.5319  0.6461  0.9452
  164MOL0     H22075  10.884   4.056   1.187  0.9258 -1.7763 -0.7027
  164MOL0     H22076  10.752   3.941   1.218  1.0151 -0.6143  1.1119
  164MOL0     H22077  10.963   3.922   1.001  0.5664 -3.0523 -2.0195
  164MOL0     H22078  10.820   3.834   0.983  0.2614 -1.8425  0.4161
  164MOL0     H22079  10.881   3.692   1.185  1.6225 -2.7865  0.6476
  164MOL0     H22080  11.005   3.825   1.227 -0.2625  2.4050 -1.5992
  164MOL0     H22081  10.993   3.648   0.977  0.1529  1.5432 -1.4264
  164MOL0     H22082  11.115   3.772   1.016  0.5506  0.5791  2.1430
  164MOL0     H22083  11.152   3.623   1.231 -0.5809 -1.5941  0.7194
  164MOL0     H22084  11.081   3.493   1.137  1.0268 -0.5259  2.1239
  164MOL0     H22085  11.331   3.664   1.069  2.2572 -1.4227 -0.9872
  164MOL0     H22086  11.321   3.489   1.108 -0.4210 -1.6650 -1.6726
  164MOL0     H22087  11.268   3.638   0.864  0.9636  0.2474  1.1464
  164MOL0     H22088  11.191   3.479   0.872 -2.3358  1.2427  2.7016
  164MOL0     H22089  11.432   3.465   0.761  3.4614  0.4214  0.2983
  164MOL0     H22090  11.495   3.522   0.916 -0.3963  2.2086 -1.5728
  164MOL0     H22091  11.627   3.321   0.984  0.0807 -0.2313  2.1982
  164MOL0     H22092  11.638   3.042   1.116 -1.0319 -0.2921  1.1214
  164MOL0     H22093  11.528   2.941   1.032  0.6941 -0.3254  3.9461
  164MOL0     H22094  11.668   2.938   0.839  0.9211  0.7762 -0.6911
  164MOL0     H22095  11.725   3.104   0.879 -0.7921  0.8022  2.2849
  164MOL0     H22096  11.823   2.836   0.982  0.1979  0.2789  1.5102
  164MOL0     H22097  11.856   2.979   1.073  0.0014  1.1053 -0.8585
  164MOL0     H22098  11.981   3.066   0.864 -5.0006  0.5346 -0.3865
  164MOL0     H22099  11.946   2.916   0.785  1.1447 -0.2244  0.1617
  164MOL0     H22100  12.289   2.763   0.946  1.1504 -0.4726  0.4592
  164MOL0     H22101  12.518   2.857   0.960 -0.5630 -0.6101  0.9831
  164MOL0     H22102  12.873   2.890   1.145  0.1890 -0.3235  0.8933
  164MOL0     H22103  13.114   2.912   1.139 -0.8251 -1.5960  0.0517
  164MOL0     H22104  13.259   3.176   0.833  0.6375 -0.6119 -0.1099
  164MOL0     H22105  13.322   3.280   0.963  1.2548  0.9289 -2.3439
  164MOL0     H22106  13.495   3.109   0.992  1.3254  0.5481 -0.6568
  164MOL0     H22107  13.460   3.043   0.838  0.6019 -2.0718  0.2588
  164MOL0     H22108  13.471   3.258   0.726  2.2097  0.0620 -1.3755
  164MOL0     H22109  13.517   3.338   0.876 -1.7068 -0.8071  0.5863
  164MOL0     H22110  13.669   3.111   0.747  0.6621 -0.7705  0.9109
  164MOL0     H22111  13.721   3.208   0.892  0.8544 -2.1811 -0.4706
  164MOL0     H22112  13.760   3.398   0.775  0.2919 -0.2484 -0.4172
  164MOL0     H22113  13.667   3.359   0.630  0.3126 -0.8577 -1.0125
  164MOL0     H22114  13.829   3.168   0.585 -1.4132  0.7770 -0.6828
  164MOL0     H22115  13.908   3.314   0.559 -1.2517 -0.3818 -0.3743
  164MOL0     H22116  13.931   3.134   0.796 -1.9296  0.4380 -1.2951
  164MOL0     H22117  13.992   3.303   0.805 -1.1610  1.6856  0.0769
  164MOL0     H22118  14.076   3.089   0.616 -1.4906 -1.8448  2.6826
  164MOL0     H22119  14.148   3.255   0.616  2.9463 -1.4482  0.2768
  164MOL0     H22120  13.051   3.270   0.898 -1.1599  0.9452  0.6571
  164MOL0     H22121  12.820   3.246   0.905 -2.0609 -1.0226  0.6285
  164MOL0     H22122  12.356   3.242   1.038 -0.7126 -1.1928  2.7386
  164MOL0     H22123  12.122   3.153   1.003  0.4427 -0.7420 -1.2108
  164MOL0     H22124  10.757   4.317   0.918 -0.9480  1.0387 -0.2045
  164MOL0     H22125  10.619   4.509   0.985 -2.7818 -2.5056 -1.3476
  164MOL0     H22126  10.135   4.602   1.170 -0.5808  1.5729 -2.1897
  164MOL0     H22127  10.001   4.781   1.246 -0.7453  4.2023 -1.5500
  164MOL0     H22128  10.111   5.189   1.204 -1.9072  0.1543 -0.2939
  164MOL0     H22129  10.189   5.161   1.366 -1.2982 -0.0154  1.0353
  164MOL0     H22130  10.037   5.344   1.388  3.2439  0.6344 -3.0198
  164MOL0     H22131   9.984   5.214   1.486  4.1408 -1.0675 -0.8307
  164MOL0     H22132   9.820   5.124   1.334 -0.7873 -0.4738  2.5531
  164MOL0     H22133   9.826   5.271   1.240 -0.2190  0.7102 -0.0408
  164MOL0     H22134   9.775   5.393   1.484 -2.3877 -0.6127  1.0152
  164MOL0     H22135   9.645   5.308   1.401  0.0349 -0.8205 -1.1067
  164MOL0     H22136   9.721   5.081   1.750 -0.0605 -2.9758 -1.7849
  164MOL0     H22137  10.340   5.034   1.297 -1.1845 -0.7884  2.2696
  164MOL0     H22138  10.589   4.791   1.165 -0.6925 -0.4924  0.6765
  164MOL0     H22139  10.521   4.936   1.093 -0.2732 -2.1874 -0.9637
  164MOL0     H22140  10.568   4.946   1.259  1.5432  1.2737 -2.1882
  165MOL0     O22141   1.634   2.540   3.017 -0.5057  0.5919  0.4259
  165MOL0     C22142   1.626   2.539   2.899 -0.6412 -0.6697  0.1798
  165MOL0     O22143   1.733   2.564   2.812  0.1758  0.0743 -0.1327
  165MOL0     C22144   1.866   2.555   2.850 -0.1513 -0.6133 -0.2482
  165MOL0     C22145   1.945   2.634   2.763  0.8721  0.9251  0.6050
  165MOL0     C22146   2.084   2.636   2.784  0.5338  0.8308  0.3736
  165MOL0     C22147   2.141   2.572   2.887 -0.1251  1.0798 -0.4286
  165MOL0     O22148   2.273   2.589   2.894 -1.3239 -0.0850 -0.5074
  165MOL0     C22149   2.362   2.531   2.984 -0.0255 -0.4016  0.1357
  165MOL0     C22150   2.424   2.429   2.886 -0.2772 -0.6521  0.6216
  165MOL0     C22151   2.528   2.499   2.787 -0.0358  0.2726  0.3527
  165MOL0     C22152   2.509   2.453   2.645  0.8124  0.5941 -0.1397
  165MOL0     C22153   2.619   2.499   2.547  0.2046  0.0851 -0.4573
  165MOL0     C22154   2.763   2.480   2.595  0.2411 -0.0067  0.5818
  165MOL0     C22155   2.861   2.513   2.479 -0.4209 -0.2158  0.3301
  165MOL0     C22156   3.007   2.509   2.523 -0.2268 -0.7095  0.8532
  165MOL0     N22157   3.100   2.569   2.429 -0.0060  0.3049  0.7227
  165MOL0     C22158   3.111   2.512   2.305 -0.1327 -0.1329 -0.0651
  165MOL0     C22159   3.207   2.583   2.247 -0.3224  0.9855 -0.5696
  165MOL0     C22160   3.260   2.570   2.104 -0.0085 -0.3307 -0.1585
  165MOL0     C22161   3.188   2.673   2.020  0.2627 -0.1813  0.3941
  165MOL0     C22162   3.199   2.624   1.879  0.3246 -0.6567  0.4382
  165MOL0     C22163   3.139   2.725   1.777  0.0420  0.5743  0.7322
  165MOL0     O22164   3.228   2.728   1.661  0.2800 -0.2177  0.4803
  165MOL0     C22165   3.340   2.797   1.671 -0.4016 -0.1541 -0.7633
  165MOL0     C22166   3.455   2.715   1.689  0.5005  0.2382  0.5616
  165MOL0     C22167   3.584   2.775   1.707  0.4185  0.3691 -0.2540
  165MOL0     C22168   3.593   2.914   1.720 -0.0623  0.6652  0.1211
  165MOL0     C22169   3.721   2.967   1.766 -0.5377  0.3100 -0.5975
  165MOL0     O22170   3.834   2.889   1.764  0.6166 -0.1745 -0.3413
  165MOL0     C22171   3.958   2.946   1.770  0.9173 -0.7596  0.2046
  165MOL0     C22172   4.007   2.990   1.896 -0.8156  0.0969 -0.5319
  165MOL0     C22173   4.132   3.060   1.900 -0.0015  0.7220  0.0988
  165MOL0     C22174   4.215   3.071   1.791 -0.5895  0.0489  0.4481
  165MOL0     O22175   4.345   3.128   1.791 -0.7634  0.2104  0.0052
  165MOL0     C22176   4.448   3.026   1.810  0.3530  0.1496  0.0722
  165MOL0     C22177   4.576   3.098   1.769 -0.5958 -0.2125 -0.4616
  165MOL0     C22178   4.701   3.003   1.762 -0.6468  0.5188 -0.1451
  165MOL0     C22179   4.826   3.082   1.797  0.5661  0.5415 -0.3976
  165MOL0     C22180   4.946   2.985   1.780 -0.1071  0.3618 -0.1725
  165MOL0     C22181   4.976   2.939   1.631  0.2434  0.4329  0.2989
  165MOL0     C22182   5.095   2.840   1.635 -0.2358  0.2474  0.2584
  165MOL0     C22183   5.178   2.846   1.501  0.1951 -0.2898 -0.6442
  165MOL0    Cl22184   5.346   2.794   1.521 -0.3004 -0.0990  0.3983
  165MOL0     C22185   4.172   3.027   1.664 -0.3113 -0.0583 -0.4573
  165MOL0     C22186   4.047   2.952   1.659 -0.5220 -0.5175  0.0599
  165MOL0     O22187   3.725   3.092   1.775 -0.3087 -0.0259  0.1267
  165MOL0     C22188   3.484   2.986   1.717  0.3195  0.0786 -0.0306
  165MOL0     C22189   3.353   2.934   1.699 -0.5607  0.6026 -0.7763
  165MOL0     N22190   3.246   2.678   2.338 -0.3091  0.0186 -0.2207
  165MOL0     N22191   3.187   2.671   2.454 -0.5476  1.0837 -0.6667
  165MOL0     C22192   2.062   2.487   2.978 -0.6854  1.0066  0.5423
  165MOL0     C22193   1.921   2.485   2.957  0.4549  0.1575 -0.3670
  165MOL0     C22194   1.491   2.534   2.830 -0.4412  0.3754  0.1321
  165MOL0     C22195   1.480   2.555   2.690 -0.5704 -0.9519  0.6597
  165MOL0     C22196   1.356   2.566   2.620 -0.4087 -0.1870 -1.0795
  165MOL0     C22197   1.241   2.543   2.690  0.5382 -0.5324 -0.1462
  165MOL0     O22198   1.122   2.538   2.618 -0.2653 -0.2206 -0.0265
  165MOL0     C22199   0.995   2.511   2.687 -0.7606 -0.1560  0.0216
  165MOL0     C22200   0.938   2.630   2.750  0.0366 -0.3756 -0.4391
  165MOL0     C22201   0.788   2.613   2.791  0.6979  0.7424  0.0772
  165MOL0     C22202   0.725   2.736   2.844  0.2717  0.3306 -0.1008
  165MOL0     C22203   0.609   2.701   2.933 -0.0947 -0.4496 -0.4983
  165MOL0     C22204   0.517   2.673   3.008  0.0997  0.3468  0.2242
  165MOL0     C22205   1.247   2.516   2.833 -0.6778 -0.4175  0.3345
  165MOL0     C22206   1.373   2.504   2.898  0.2180  0.5082  0.1601
  165MOL0     C22207   1.369   2.461   3.041 -0.0414  0.0261  0.3963
  165MOL0     H22208   1.900   2.683   2.677  3.3771  4.9409  1.3151
  165MOL0     H22209   2.145   2.684   2.709  0.8147 -0.1037 -0.0031
  165MOL0     H22210   2.427   2.608   3.027  0.7263 -1.9930  2.0185
  165MOL0     H22211   2.317   2.470   3.063  3.3252 -2.4438  0.6443
  165MOL0     H22212   2.344   2.373   2.836 -1.1591  0.9079  0.2011
  165MOL0     H22213   2.492   2.357   2.933  0.4528 -0.3632  0.0169
  165MOL0     H22214   2.623   2.464   2.827  0.3573  0.4999 -0.3683
  165MOL0     H22215   2.519   2.606   2.810 -2.9519 -0.0917  1.4290
  165MOL0     H22216   2.519   2.344   2.647  0.3733  0.5611  1.5877
  165MOL0     H22217   2.407   2.479   2.613  0.4167  0.3004  0.8615
  165MOL0     H22218   2.613   2.443   2.453  2.0459 -1.5431  0.3337
  165MOL0     H22219   2.602   2.606   2.531  0.1297  0.2740  0.7707
  165MOL0     H22220   2.780   2.544   2.682  0.2264  0.2481  0.3968
  165MOL0     H22221   2.780   2.373   2.613  2.2255 -0.5189 -3.1861
  165MOL0     H22222   2.843   2.617   2.450 -0.6611  0.1095  1.5621
  165MOL0     H22223   2.846   2.447   2.393  0.4218 -0.4609  0.3613
  165MOL0     H22224   3.018   2.562   2.618 -0.7655  1.3878 -0.1908
  165MOL0     H22225   3.041   2.407   2.542  0.8930 -0.6203 -0.5336
  165MOL0     H22226   3.047   2.438   2.258  0.7599  0.1397 -1.7975
  165MOL0     H22227   3.366   2.597   2.114 -0.7146  3.0410 -0.3388
  165MOL0     H22228   3.246   2.467   2.071 -2.2075 -0.4253  0.8650
  165MOL0     H22229   3.080   2.680   2.033 -0.0180  0.9006 -2.0368
  165MOL0     H22230   3.232   2.771   2.040  0.4688  0.3185 -2.1661
  165MOL0     H22231   3.140   2.533   1.863 -0.1353 -0.1979 -0.6291
  165MOL0     H22232   3.305   2.597   1.867  0.2748  0.1695 -2.6991
  165MOL0     H22233   3.137   2.820   1.831  0.8017  0.8314  0.3297
  165MOL0     H22234   3.036   2.703   1.747  0.0066  3.7123 -2.0742
  165MOL0     H22235   3.439   2.609   1.673  0.3514  0.2751  0.4662
  165MOL0     H22236   3.670   2.710   1.716 -0.7629 -1.0658  1.3756
  165MOL0     H22237   3.951   2.996   1.989  1.0011 -0.6876  0.6645
  165MOL0     H22238   4.165   3.101   1.995  0.4248  2.0534 -0.6057
  165MOL0     H22239   4.461   2.987   1.911  3.1887 -1.6393 -0.8753
  165MOL0     H22240   4.438   2.943   1.740  1.0469  1.6721 -1.9353
  165MOL0     H22241   4.576   3.141   1.668 -0.0620 -2.1075 -1.3189
  165MOL0     H22242   4.588   3.177   1.844 -0.3724 -1.4087  0.7884
  165MOL0     H22243   4.683   2.914   1.824  0.3901 -0.4694 -1.2082
  165MOL0     H22244   4.704   2.967   1.659 -2.6115 -0.8077  0.1969
  165MOL0     H22245   4.812   3.126   1.896 -4.2346 -1.5300  0.1085
  165MOL0     H22246   4.842   3.170   1.734  2.7539  0.7499  0.3402
  165MOL0     H22247   4.921   2.896   1.838  0.6598  1.3601  1.8061
  165MOL0     H22248   5.039   3.025   1.822  3.5117 -0.1822 -6.4294
  165MOL0     H22249   4.896   2.888   1.576  0.2864  1.4094 -0.7258
  165MOL0     H22250   4.992   3.034   1.578 -0.0776  0.9585  1.1334
  165MOL0     H22251   5.051   2.740   1.634 -0.6728  0.4399 -0.1702
  165MOL0     H22252   5.166   2.862   1.715 -2.1215  1.9127  1.5672
  165MOL0     H22253   5.120   2.788   1.429 -1.6218  0.4607  0.1554
  165MOL0     H22254   5.184   2.948   1.462  0.5065 -0.9593 -2.4536
  165MOL0     H22255   4.237   3.026   1.577 -0.2363  3.1044 -0.5556
  165MOL0     H22256   4.027   2.923   1.557  3.0515  3.7937 -2.2183
  165MOL0     H22257   3.489   3.094   1.729 -0.0244  0.5116 -2.9987
  165MOL0     H22258   3.260   2.990   1.705 -0.7327  0.2651 -0.2656
  165MOL0     H22259   2.101   2.424   3.057 -1.7233  0.2763  0.5000
  165MOL0     H22260   1.843   2.425   3.004 -0.0578  0.4454 -0.8336
  165MOL0     H22261   1.574   2.578   2.642 -0.1915 -0.3599  1.6411
  165MOL0     H22262   1.350   2.580   2.513 -1.5968 -0.8630 -1.1158
  165MOL0     H22263   1.005   2.424   2.751  0.1722 -0.5275 -0.6140
  165MOL0     H22264   0.930   2.478   2.606  0.5240 -0.5403 -0.8933
  165MOL0     H22265   0.943   2.703   2.668  1.7392  0.0813  0.0396
  165MOL0     H22266   0.990   2.660   2.841 -2.7357  0.5820  0.9413
  165MOL0     H22267   0.788   2.523   2.853  1.0877  0.6172 -0.1019
  165MOL0     H22268   0.731   2.587   2.702  1.5416  1.1547 -0.6042
  165MOL0     H22269   0.809   2.778   2.899 -1.1415 -0.7385  3.1188
  165MOL0     H22270   0.702   2.792   2.753  0.2559 -4.2804 -3.2904
  165MOL0     H22271   0.433   2.639   3.064  0.1779 -2.6179 -1.2551
  165MOL0     H22272   1.154   2.493   2.884 -0.9980  0.9914  0.4213
  165MOL0     H22273   1.267   2.446   3.077 -0.3351  1.7060  0.3393
  165MOL0     H22274   1.424   2.366   3.044  1.8770  0.9357 -2.1975
  165MOL0     H22275   1.415   2.536   3.106  0.3593 -0.7267  1.0004
  166MOL0     O22276   6.220   5.756   1.498 -1.0861 -0.1010  0.3728
  166MOL0     C22277   6.196   5.643   1.542 -0.0600 -0.3798 -0.1643
  166MOL0     O22278   6.297   5.559   1.575 -0.6151 -0.1242  0.2901
  166MOL0     C22279   6.418   5.584   1.514 -0.1631 -0.5168  0.6107
  166MOL0     C22280   6.529   5.620   1.596  0.0563  0.2726  0.1156
  166MOL0     C22281   6.654   5.663   1.541  0.4416 -0.2128 -0.5319
  166MOL0     C22282   6.676   5.661   1.400  0.6802  0.4942 -0.5127
  166MOL0     O22283   6.793   5.670   1.330  0.2729  0.4811  0.2718
  166MOL0     C22284   6.916   5.658   1.405 -0.3304 -0.0936  0.1015
  166MOL0     C22285   7.040   5.680   1.322 -0.3906  0.2919  0.9391
  166MOL0     C22286   7.061   5.590   1.195  0.1545  0.5541  0.8168
  166MOL0     C22287   7.181   5.634   1.111  0.6317 -0.2478  0.0764
  166MOL0     C22288   7.201   5.549   0.983  0.3729  0.2254  0.0080
  166MOL0     C22289   7.296   5.603   0.881  0.2455  0.0049 -0.7367
  166MOL0     C22290   7.441   5.610   0.936  0.2840  0.2911 -0.2722
  166MOL0     C22291   7.508   5.473   0.949 -0.3742  0.6014  0.1566
  166MOL0     N22292   7.649   5.499   0.980  0.2773 -0.5829  0.4828
  166MOL0     C22293   7.743   5.428   0.916  0.9618  0.3328  0.2400
  166MOL0     C22294   7.862   5.490   0.948  0.4960 -0.0999  1.0235
  166MOL0     C22295   7.992   5.460   0.879  0.6066 -0.3302 -0.4882
  166MOL0     C22296   7.989   5.486   0.728  0.0748 -0.6115  0.1622
  166MOL0     C22297   7.973   5.639   0.692  0.3470 -0.0390  0.0346
  166MOL0     C22298   7.960   5.647   0.535 -0.0350  0.0518 -0.5081
  166MOL0     O22299   8.065   5.586   0.448  0.7283 -0.5380  0.4503
  166MOL0     C22300   8.189   5.641   0.457  0.3018  0.5350 -0.1752
  166MOL0     C22301   8.290   5.553   0.490  0.2099  0.4132 -0.1031
  166MOL0     C22302   8.420   5.588   0.481  0.0455  0.2579  0.1012
  166MOL0     C22303   8.453   5.718   0.441  0.4411  0.0188  0.0422
  166MOL0     C22304   8.593   5.756   0.432 -0.3274 -0.2673 -0.5312
  166MOL0     O22305   8.682   5.664   0.484  0.1678  0.6318  0.5477
  166MOL0     C22306   8.810   5.679   0.472 -0.5842  0.0578 -0.3599
  166MOL0     C22307   8.869   5.666   0.347 -0.5902 -0.5207  0.0904
  166MOL0     C22308   9.006   5.672   0.330 -0.8019 -0.5335 -0.7678
  166MOL0     C22309   9.092   5.682   0.445 -0.0798  0.6370 -0.5336
  166MOL0     O22310   9.232   5.690   0.433 -0.0035 -0.6641 -0.4058
  166MOL0     C22311   9.291   5.732   0.310  0.0503  0.6555 -0.2662
  166MOL0     C22312   9.415   5.821   0.341  0.0172  0.0276  0.4243
  166MOL0     C22313   9.458   5.900   0.219 -0.0987  0.1162  0.1433
  166MOL0     C22314   9.552   5.823   0.131 -0.2571 -0.3784 -0.1221
  166MOL0     C22315   9.694   5.818   0.164  0.2788  0.5560  0.0537
  166MOL0     C22316   9.772   5.951   0.151 -0.0504 -0.9562 -0.2653
  166MOL0     C22317   9.923   5.929   0.170  0.4247  0.9298  0.4410
  166MOL0     C22318   9.964   5.890   0.309  0.1796 -0.0755 -0.2377
  166MOL0    Cl22319   9.957   6.017   0.419  0.0738  0.0894 -0.4142
  166MOL0     C22320   9.031   5.703   0.566  0.4684  0.8056  0.2688
  166MOL0     C22321   8.891   5.704   0.578 -0.3405 -0.4199  0.8286
  166MOL0     O22322   8.624   5.863   0.381  0.5360  0.0390  0.0574
  166MOL0     C22323   8.350   5.807   0.411 -0.0382 -0.7017 -0.4547
  166MOL0     C22324   8.217   5.769   0.418  0.8146 -0.0396  0.2787
  166MOL0     N22325   7.832   5.592   1.035 -0.5103  0.3366  0.7874
  166MOL0     N22326   7.707   5.584   1.070  0.4523 -0.4795  0.7402
  166MOL0     C22327   6.563   5.642   1.315  0.6695 -0.1158 -0.4823
  166MOL0     C22328   6.438   5.617   1.375  0.3126 -0.3573  0.4115
  166MOL0     C22329   6.058   5.607   1.594 -0.9039  0.0714 -0.4349
  166MOL0     C22330   6.048   5.507   1.688 -0.0234  0.4187 -0.0366
  166MOL0     C22331   5.920   5.478   1.739  0.4745 -0.5051 -0.5267
  166MOL0     C22332   5.799   5.545   1.698  0.4346  0.5299 -1.3464
  166MOL0     O22333   5.673   5.503   1.735  0.6556 -0.0605  0.4882
  166MOL0     C22334   5.661   5.397   1.833 -0.2022 -0.0492  0.5651
  166MOL0     C22335   5.517   5.383   1.883 -0.1367  0.0363  0.3112
  166MOL0     C22336   5.470   5.513   1.962 -0.0776  0.3633  0.5793
  166MOL0     C22337   5.371   5.476   2.077  1.2960 -0.4336  0.2336
  166MOL0     C22338   5.248   5.409   2.022 -0.8672 -0.1682 -0.2788
  166MOL0     C22339   5.155   5.362   1.969 -0.2927  0.2251  0.0120
  166MOL0     C22340   5.819   5.633   1.593 -0.2389  1.1141 -0.4973
  166MOL0     C22341   5.945   5.675   1.546  0.4297 -0.2451  0.5438
  166MOL0     C22342   5.941   5.800   1.446  1.1053  0.1943 -0.4763
  166MOL0     H22343   6.529   5.615   1.705  0.5822  0.6129  0.1371
  166MOL0     H22344   6.736   5.685   1.609  0.9364 -2.1873 -0.4185
  166MOL0     H22345   6.918   5.745   1.471 -1.5912 -0.6362  0.8980
  166MOL0     H22346   6.932   5.567   1.464  1.8936  0.1739 -0.0155
  166MOL0     H22347   7.121   5.667   1.395 -1.1757 -1.2632  1.5797
  166MOL0     H22348   7.035   5.777   1.272 -0.3763 -1.0642 -1.9015
  166MOL0     H22349   6.974   5.601   1.131 -0.7510 -3.3037  1.1794
  166MOL0     H22350   7.064   5.486   1.227 -3.8273  0.2025  0.5496
  166MOL0     H22351   7.159   5.734   1.073 -2.2714 -1.6116 -2.3489
  166MOL0     H22352   7.267   5.633   1.177  1.3112 -0.2218 -0.7878
  166MOL0     H22353   7.231   5.447   1.008  1.5598  0.3646 -0.7607
  166MOL0     H22354   7.107   5.544   0.927 -0.1636  1.5012  0.7593
  166MOL0     H22355   7.302   5.549   0.786  1.8371 -0.3622 -0.4515
  166MOL0     H22356   7.261   5.705   0.860 -3.7216  0.1202  4.4501
  166MOL0     H22357   7.437   5.659   1.034  3.2824  1.9808 -0.8576
  166MOL0     H22358   7.492   5.687   0.877  1.0257  0.5029  0.6079
  166MOL0     H22359   7.467   5.424   1.038 -0.6410  1.2725  0.4050
  166MOL0     H22360   7.495   5.407   0.862  0.0737 -0.1559  0.6539
  166MOL0     H22361   7.744   5.355   0.836  1.4453  2.4556 -1.8091
  166MOL0     H22362   8.073   5.517   0.925  0.3108  0.9360 -1.4963
  166MOL0     H22363   8.031   5.360   0.902  1.6037 -0.0001 -0.7188
  166MOL0     H22364   8.072   5.445   0.670 -1.7600  0.5277 -3.5883
  166MOL0     H22365   7.901   5.437   0.686  2.5670 -3.8522 -1.7741
  166MOL0     H22366   8.071   5.683   0.715  1.3858 -1.6522 -1.0658
  166MOL0     H22367   7.888   5.697   0.728 -0.2681  0.8737 -2.6391
  166MOL0     H22368   7.954   5.751   0.501 -0.2818  0.5034  0.8750
  166MOL0     H22369   7.864   5.597   0.524 -0.1095  0.0194  0.2607
  166MOL0     H22370   8.277   5.449   0.518  1.1060 -0.5223 -2.8158
  166MOL0     H22371   8.495   5.511   0.496 -1.9306 -1.6134  0.7993
  166MOL0     H22372   8.793   5.671   0.270  0.3421 -1.1311 -0.8885
  166MOL0     H22373   9.057   5.666   0.235  1.6991 -0.3448  0.4698
  166MOL0     H22374   9.326   5.643   0.255  2.2446  0.4755  1.3072
  166MOL0     H22375   9.227   5.796   0.248  0.0354  0.2421 -0.6838
  166MOL0     H22376   9.377   5.899   0.409 -0.1692 -0.6257  1.0869
  166MOL0     H22377   9.504   5.770   0.380  1.6207  2.0105 -0.4518
  166MOL0     H22378   9.369   5.931   0.164  0.2405 -3.4845 -2.8004
  166MOL0     H22379   9.512   5.988   0.257  1.7246 -0.2135 -1.5039
  166MOL0     H22380   9.547   5.856   0.027  1.3648  0.3765  0.0069
  166MOL0     H22381   9.517   5.719   0.130 -0.0718 -0.4528  0.5447
  166MOL0     H22382   9.753   5.737   0.120  1.0605  1.5657 -0.8280
  166MOL0     H22383   9.699   5.786   0.268 -2.5976 -0.5393 -0.0667
  166MOL0     H22384   9.755   5.997   0.054 -0.1061  0.6800  0.4982
  166MOL0     H22385   9.748   6.032   0.220  2.1083 -2.1087  2.0410
  166MOL0     H22386   9.978   6.021   0.151  1.4533  0.0111 -1.3375
  166MOL0     H22387   9.946   5.850   0.098  0.1029 -0.4043  1.7389
  166MOL0     H22388   9.895   5.818   0.353 -1.1523  0.5263 -1.2603
  166MOL0     H22389  10.067   5.854   0.318  0.3625  0.8157  1.8792
  166MOL0     H22390   9.092   5.713   0.655 -0.3047 -1.3700  1.1240
  166MOL0     H22391   8.840   5.738   0.668 -2.3098  0.3487 -0.5075
  166MOL0     H22392   8.372   5.910   0.385  1.3038 -0.4889  1.3403
  166MOL0     H22393   8.134   5.829   0.382  0.9169 -0.9948 -1.7034
  166MOL0     H22394   6.567   5.660   1.208  2.3899  3.1226 -0.0036
  166MOL0     H22395   6.350   5.607   1.312  0.2026 -3.4047  0.9171
  166MOL0     H22396   6.140   5.461   1.721  0.5172  1.3607 -0.2061
  166MOL0     H22397   5.909   5.408   1.822  0.0924  1.0908  0.8084
  166MOL0     H22398   5.724   5.415   1.920  1.6033 -2.5010 -0.1143
  166MOL0     H22399   5.692   5.300   1.791  0.1811 -0.3434  1.4976
  166MOL0     H22400   5.520   5.297   1.950  0.3662  1.1861  1.8174
  166MOL0     H22401   5.454   5.358   1.797  0.0474  0.2359  0.1170
  166MOL0     H22402   5.421   5.583   1.894 -0.3043 -1.5296 -1.3045
  166MOL0     H22403   5.553   5.574   1.999 -0.4764  1.5467 -0.4069
  166MOL0     H22404   5.430   5.416   2.146  2.3554 -0.2417 -0.4808
  166MOL0     H22405   5.339   5.567   2.130  2.6432 -0.5730  1.3428
  166MOL0     H22406   5.078   5.298   1.933  0.4433 -0.6450 -0.0494
  166MOL0     H22407   5.732   5.682   1.551 -0.9202  0.5848  0.2535
  166MOL0     H22408   5.971   5.893   1.495 -1.6326  0.2813  1.2462
  166MOL0     H22409   5.994   5.789   1.351 -0.0488  3.0438 -1.5746
  166MOL0     H22410   5.836   5.809   1.419  0.6560 -0.2777  1.0309
  167MOL0     O22411   0.024   4.495   9.217  0.0327 -0.2675  0.6981
  167MOL0     C22412  -0.044   4.587   9.265 -0.5657  0.0833  0.1329
  167MOL0     O22413   0.005   4.713   9.306 -0.2405  0.5027  0.2159
  167MOL0     C22414   0.134   4.719   9.329 -0.7275 -1.0566 -0.3400
  167MOL0     C22415   0.215   4.752   9.219  0.3600  0.1730 -0.3810
  167MOL0     C22416   0.355   4.740   9.228  0.6992 -0.2171 -0.1413
  167MOL0     C22417   0.409   4.702   9.345 -0.3366  0.4964 -0.0461
  167MOL0     O22418   0.546   4.682   9.331  0.5886  0.3372 -0.0643
  167MOL0     C22419   0.625   4.767   9.419 -0.4838 -1.0090  0.6190
  167MOL0     C22420   0.784   4.760   9.398  0.2481  0.1592  0.1334
  167MOL0     C22421   0.859   4.862   9.474  0.0731  1.2039  0.0533
  167MOL0     C22422   0.938   4.964   9.384 -0.2230 -0.7239 -0.9780
  167MOL0     C22423   1.047   5.052   9.452  0.3767  0.2462 -0.7030
  167MOL0     C22424   1.002   5.167   9.537  1.2510  0.2304 -0.0003
  167MOL0     C22425   1.120   5.279   9.563 -0.1765  0.2666  0.4182
  167MOL0     C22426   1.066   5.390   9.649  0.3082  0.8737 -0.8217
  167MOL0     N22427   0.954   5.463   9.589  1.0646  0.3783 -0.5769
  167MOL0     C22428   0.954   5.535   9.475  0.4465  0.5979  0.1841
  167MOL0     C22429   0.826   5.566   9.455  0.0675 -0.2848  0.2806
  167MOL0     C22430   0.769   5.654   9.356 -0.2176  0.4524 -0.6206
  167MOL0     C22431   0.872   5.764   9.315  0.1044 -0.4246 -0.6643
  167MOL0     C22432   0.919   5.855   9.433  0.4560  0.4445 -0.5026
  167MOL0     C22433   1.037   5.950   9.396  0.3626 -0.0753 -0.0012
  167MOL0     O22434   1.147   5.879   9.336 -0.3816  0.0101  0.4804
  167MOL0     C22435   1.225   5.800   9.417 -0.4117 -0.0798  0.8612
  167MOL0     C22436   1.238   5.817   9.555  1.0840  0.1874 -0.1490
  167MOL0     C22437   1.321   5.734   9.627  0.8112  0.7691  0.3478
  167MOL0     C22438   1.387   5.626   9.569 -0.6195 -0.2612  0.1564
  167MOL0     C22439   1.480   5.540   9.648  0.0198 -0.2394  0.4769
  167MOL0     O22440   1.554   5.606   9.747  0.6158  0.2149  0.7187
  167MOL0     C22441   1.660   5.551   9.804  0.2567  0.6428 -0.1046
  167MOL0     C22442   1.684   5.574   9.938 -0.6832 -0.1283  0.6817
  167MOL0     C22443   1.794   5.534  10.003  0.1762 -0.2279  1.1151
  167MOL0     C22444   1.886   5.445   9.945  0.9299 -0.9543 -0.2397
  167MOL0     O22445   1.989   5.384  10.010  0.2661  0.0544  0.1996
  167MOL0     C22446   2.025   5.417  10.147  0.8818  0.0763  0.0957
  167MOL0     C22447   2.146   5.331  10.184 -0.6338  0.0592 -0.7244
  167MOL0     C22448   2.263   5.359  10.085 -0.2129 -0.6586  0.1235
  167MOL0     C22449   2.343   5.488  10.119 -0.6063 -0.5437 -0.6522
  167MOL0     C22450   2.458   5.499  10.018 -0.2396 -1.0141 -0.0881
  167MOL0     C22451   2.547   5.609  10.065  0.1025  0.0042 -0.4093
  167MOL0     C22452   2.647   5.602   9.953  0.4148 -0.3227  0.1713
  167MOL0     C22453   2.732   5.723   9.964  0.0778 -0.1511 -0.2618
  167MOL0    Cl22454   2.681   5.869   9.871  0.0538 -0.1057 -0.3538
  167MOL0     C22455   1.872   5.431   9.806 -0.3715 -0.0638 -0.2646
  167MOL0     C22456   1.764   5.489   9.743 -0.1476  0.1667 -0.4963
  167MOL0     O22457   1.503   5.425   9.611  1.0372 -0.2474  0.4565
  167MOL0     C22458   1.379   5.602   9.429 -1.0347  0.6371 -0.3173
  167MOL0     C22459   1.289   5.690   9.356 -0.3352 -0.4844 -1.4345
  167MOL0     N22460   0.753   5.525   9.562 -0.8151  0.0351 -0.4776
  167MOL0     N22461   0.824   5.463   9.651  0.7829 -0.8699 -0.5586
  167MOL0     C22462   0.338   4.689   9.465  0.1022  0.2707  0.1098
  167MOL0     C22463   0.195   4.692   9.452  0.6603  0.9586  0.3616
  167MOL0     C22464  -0.186   4.584   9.270  0.2780 -0.0280 -0.0033
  167MOL0     C22465  -0.263   4.525   9.172  0.8494 -0.4829  0.4721
  167MOL0     C22466  -0.405   4.538   9.168 -0.0656  0.1432  0.7972
  167MOL0     C22467  -0.469   4.588   9.282  0.2419 -0.3977  0.2850
  167MOL0     O22468  -0.612   4.573   9.302 -0.1876 -0.4076 -0.0161
  167MOL0     C22469  -0.679   4.508   9.196  0.1358 -0.3027  0.6791
  167MOL0     C22470  -0.829   4.509   9.219 -0.4832  0.8065  0.5137
  167MOL0     C22471  -0.890   4.524   9.357  0.8156  0.0700 -0.5426
  167MOL0     C22472  -1.036   4.476   9.343 -0.1937 -0.6897 -0.0001
  167MOL0     C22473  -1.106   4.481   9.470  0.2635  0.2895 -0.4476
  167MOL0     C22474  -1.179   4.499   9.571 -0.2379 -0.2887 -0.9104
  167MOL0     C22475  -0.394   4.637   9.386 -0.6512 -0.2910 -0.3920
  167MOL0     C22476  -0.251   4.635   9.384  0.2040  0.1176  0.1818
  167MOL0     C22477  -0.182   4.676   9.521  0.0148  0.0825  0.7416
  167MOL0     H22478   0.175   4.775   9.121  1.7142  0.2551 -0.9473
  167MOL0     H22479   0.412   4.729   9.136 -0.5736  2.3773 -1.3319
  167MOL0     H22480   0.600   4.873   9.406  2.7398 -0.0672  1.3232
  167MOL0     H22481   0.589   4.751   9.521 -1.3646  0.6411  0.6141
  167MOL0     H22482   0.784   4.775   9.290 -2.5836 -1.2557 -0.1817
  167MOL0     H22483   0.827   4.664   9.428  4.7297  2.3236  1.4153
  167MOL0     H22484   0.930   4.816   9.543  0.6912 -1.8056 -2.3591
  167MOL0     H22485   0.788   4.905   9.545 -0.8184 -1.0355  0.6016
  167MOL0     H22486   1.001   4.899   9.322  0.9580  0.7574 -1.3841
  167MOL0     H22487   0.862   5.016   9.325 -3.9703 -3.3459  1.1695
  167MOL0     H22488   1.109   4.984   9.511  0.4706  0.2550 -0.7907
  167MOL0     H22489   1.108   5.093   9.372  2.1700 -3.3599 -1.3729
  167MOL0     H22490   0.928   5.217   9.474 -0.1050 -1.1524  0.4163
  167MOL0     H22491   0.952   5.134   9.629 -1.3008  2.4933 -0.4589
  167MOL0     H22492   1.156   5.314   9.466 -1.0778 -2.1726 -0.8664
  167MOL0     H22493   1.205   5.222   9.601 -2.0736 -1.6141  2.0564
  167MOL0     H22494   1.033   5.352   9.746 -1.7901 -0.2959 -1.9270
  167MOL0     H22495   1.149   5.457   9.673  1.1051 -1.2042  3.0842
  167MOL0     H22496   1.041   5.545   9.411 -0.2479 -1.1523 -1.1062
  167MOL0     H22497   0.737   5.585   9.278  0.4741 -1.5952  0.8314
  167MOL0     H22498   0.679   5.703   9.395 -0.1535 -2.2271  3.6011
  167MOL0     H22499   0.957   5.724   9.257 -0.9048 -1.8183 -1.2451
  167MOL0     H22500   0.819   5.819   9.237 -0.2424  0.9334  0.4922
  167MOL0     H22501   0.956   5.800   9.520  0.0455  3.8054  2.0415
  167MOL0     H22502   0.832   5.916   9.459  0.5378  1.0387 -1.5697
  167MOL0     H22503   1.067   6.007   9.484 -1.8081 -0.6410  1.1985
  167MOL0     H22504   1.001   6.019   9.319  0.9891 -0.3475 -0.5422
  167MOL0     H22505   1.203   5.902   9.613 -2.3978 -1.2888  0.1496
  167MOL0     H22506   1.341   5.754   9.731  0.2936  0.6690  0.4702
  167MOL0     H22507   1.615   5.638   9.992 -0.4230  1.3899 -0.7196
  167MOL0     H22508   1.790   5.567  10.106  0.3497 -0.6713  1.2686
  167MOL0     H22509   2.052   5.522  10.163  0.2125 -0.0302  2.1690
  167MOL0     H22510   1.946   5.397  10.219  1.3684  0.3046  0.7030
  167MOL0     H22511   2.177   5.345  10.288  1.1841 -0.6225 -1.1323
  167MOL0     H22512   2.121   5.225  10.178  5.1294 -1.6008 -0.9606
  167MOL0     H22513   2.336   5.278  10.092  2.7024  1.7105 -0.8008
  167MOL0     H22514   2.228   5.379   9.983 -0.7698  1.3087  0.6412
  167MOL0     H22515   2.376   5.476  10.222 -1.5249 -1.4208 -0.4490
  167MOL0     H22516   2.273   5.572  10.106  1.5059  1.2416 -1.1374
  167MOL0     H22517   2.421   5.510   9.916 -3.1860 -1.5057  0.8379
  167MOL0     H22518   2.522   5.410  10.013 -0.2087 -0.9369 -1.4232
  167MOL0     H22519   2.490   5.702  10.067  0.7746  0.4378 -1.0429
  167MOL0     H22520   2.577   5.570  10.163 -0.7920 -0.1627 -0.1926
  167MOL0     H22521   2.605   5.615   9.853  3.2818  0.0286 -1.0961
  167MOL0     H22522   2.712   5.515   9.963 -0.5949 -1.0548  0.5025
  167MOL0     H22523   2.739   5.753  10.069  0.6889 -2.0178  0.2736
  167MOL0     H22524   2.833   5.704   9.927 -0.8236 -0.4158 -2.8499
  167MOL0     H22525   1.946   5.370   9.756  0.6335  2.5696 -2.2107
  167MOL0     H22526   1.762   5.486   9.634 -1.1581  0.0984 -0.4775
  167MOL0     H22527   1.433   5.519   9.387 -1.6336  1.0579 -1.9861
  167MOL0     H22528   1.274   5.681   9.249  1.3247 -0.7568 -1.6706
  167MOL0     H22529   0.382   4.654   9.558  0.4806 -0.2989 -0.2698
  167MOL0     H22530   0.137   4.676   9.542  0.9219  0.9172  0.5245
  167MOL0     H22531  -0.218   4.464   9.095  0.6774 -1.5976  1.2256
  167MOL0     H22532  -0.447   4.479   9.087  1.6121 -2.2269  1.5253
  167MOL0     H22533  -0.650   4.402   9.192  1.9760  0.2040 -1.5085
  167MOL0     H22534  -0.651   4.552   9.100  0.0995 -3.5544 -0.9773
  167MOL0     H22535  -0.870   4.422   9.167 -0.9431 -0.2704  2.5659
  167MOL0     H22536  -0.874   4.590   9.161 -1.5550 -0.7671 -0.9832
  167MOL0     H22537  -0.880   4.628   9.388  1.2404 -0.4244  1.0485
  167MOL0     H22538  -0.846   4.456   9.430  1.1458  0.7372 -0.1080
  167MOL0     H22539  -1.094   4.551   9.288 -0.2838  2.8648  4.3581
  167MOL0     H22540  -1.041   4.378   9.294 -1.0439 -0.0088 -1.3645
  167MOL0     H22541  -1.246   4.511   9.654  1.3290  1.7813  0.1571
  167MOL0     H22542  -0.442   4.670   9.477  4.0728  2.9334  1.3599
  167MOL0     H22543  -0.074   4.658   9.523  1.0294  4.7178  2.2770
  167MOL0     H22544  -0.193   4.785   9.531 -0.5865  0.2269 -1.2175
  167MOL0     H22545  -0.232   4.626   9.605 -5.3486  0.2074 -1.9816
  168MOL0     O22546   9.874   5.818  10.320  0.2553 -0.8414 -1.0334
  168MOL0     C22547   9.803   5.892  10.248  0.2117 -0.0684 -0.3732
  168MOL0     O22548   9.840   6.019  10.206  0.5096 -0.5386  0.0612
  168MOL0     C22549   9.967   6.048  10.221 -0.0263  0.0204  0.3769
  168MOL0     C22550  10.014   6.067  10.347  0.0864  0.2699  0.6646
  168MOL0     C22551  10.144   6.124  10.363 -0.5101 -0.0811 -0.0153
  168MOL0     C22552  10.224   6.153  10.248  0.1328  0.6033  0.3018
  168MOL0     O22553  10.337   6.229  10.269 -0.1188 -0.3677  0.7386
  168MOL0     C22554  10.455   6.212  10.192 -0.5245 -0.3936  0.3567
  168MOL0     C22555  10.561   6.321  10.215 -0.6417  0.3941  0.4173
  168MOL0     C22556  10.498   6.463  10.202  0.8979  0.1178  0.5755
  168MOL0     C22557  10.437   6.502  10.070  0.0642 -0.2875 -0.0730
  168MOL0     C22558  10.381   6.650  10.074 -0.0249 -0.2976 -0.2574
  168MOL0     C22559  10.289   6.691  10.197 -0.1026  0.1839  0.3497
  168MOL0     C22560  10.146   6.647  10.210  0.2606 -0.4022 -0.5755
  168MOL0     C22561  10.125   6.497  10.221  0.3148 -0.4000  0.1380
  168MOL0     N22562   9.990   6.469  10.268 -0.4303 -0.6300  0.0242
  168MOL0     C22563   9.956   6.412  10.386  0.5127  1.3963  0.2677
  168MOL0     C22564   9.817   6.402  10.384  0.1490 -0.0933  0.4565
  168MOL0     C22565   9.733   6.331  10.485 -0.5739 -0.2494  0.6546
  168MOL0     C22566   9.637   6.242  10.405 -0.7037  0.3133 -0.5017
  168MOL0     C22567   9.513   6.309  10.335  0.1838  0.2235 -0.0050
  168MOL0     C22568   9.388   6.217  10.315 -0.5970  0.5793 -0.1083
  168MOL0     O22569   9.274   6.288  10.264  0.6576 -0.3796  0.8262
  168MOL0     C22570   9.171   6.215  10.211  0.7361 -0.0041  0.1333
  168MOL0     C22571   9.172   6.085  10.154  0.0832  0.4359  0.0099
  168MOL0     C22572   9.052   6.023  10.109  0.5400  0.9260  0.3923
  168MOL0     C22573   8.926   6.093  10.116 -0.9228 -0.1207  0.2271
  168MOL0     C22574   8.806   6.023  10.072 -0.0855 -0.3098 -0.2679
  168MOL0     O22575   8.819   5.886  10.036 -0.2453 -0.4783 -2.1081
  168MOL0     C22576   8.701   5.826  10.011  1.0378  0.2576  0.1818
  168MOL0     C22577   8.645   5.737  10.103  0.0535 -0.2103 -0.1004
  168MOL0     C22578   8.535   5.659  10.063  0.0358 -0.1670  0.3809
  168MOL0     C22579   8.469   5.678   9.934 -0.1377 -0.2992  0.6111
  168MOL0     O22580   8.354   5.620   9.887  0.2695  0.0081  0.1533
  168MOL0     C22581   8.288   5.538   9.970  0.4299  0.1848 -0.5603
  168MOL0     C22582   8.342   5.397   9.959  0.5066  0.0766 -0.5062
  168MOL0     C22583   8.315   5.339   9.815 -0.6549 -0.9870  0.1981
  168MOL0     C22584   8.357   5.188   9.798 -0.5038  0.3641  0.9665
  168MOL0     C22585   8.391   5.160   9.657 -0.2808  0.2668  0.6205
  168MOL0     C22586   8.419   5.016   9.621 -0.4824  0.3577 -0.7119
  168MOL0     C22587   8.433   4.982   9.473  0.0988  0.3132  0.3922
  168MOL0     C22588   8.304   4.971   9.386  0.0483 -0.6597 -0.9230
  168MOL0    Cl22589   8.225   4.815   9.376 -0.2931  0.0402  0.1215
  168MOL0     C22590   8.526   5.773   9.845 -0.5496  0.7877 -0.0225
  168MOL0     C22591   8.649   5.837   9.879  0.1155  0.2070 -0.0325
  168MOL0     O22592   8.701   6.088  10.071  0.5178  0.0892 -0.3099
  168MOL0     C22593   8.930   6.215  10.177 -0.0786 -0.4742  0.3321
  168MOL0     C22594   9.046   6.273  10.219  0.1620  0.5253  0.2180
  168MOL0     N22595   9.775   6.474  10.268  0.8772  0.5155  0.6632
  168MOL0     N22596   9.866   6.518  10.205  0.3050 -0.2860 -0.1573
  168MOL0     C22597  10.177   6.125  10.120 -0.9617  0.0872 -0.3960
  168MOL0     C22598  10.052   6.077  10.111  0.5660 -0.1188  0.0821
  168MOL0     C22599   9.666   5.846  10.210  0.0431 -0.0288  0.7830
  168MOL0     C22600   9.620   5.917  10.094  0.2227  0.3807  0.0742
  168MOL0     C22601   9.490   5.896  10.050 -0.0531 -0.5374 -0.3689
  168MOL0     C22602   9.409   5.795  10.105 -0.8836 -0.1729 -0.7872
  168MOL0     O22603   9.290   5.771  10.039  0.4601  0.2214  0.2192
  168MOL0     C22604   9.231   5.637  10.058 -0.0035  0.2298 -0.1342
  168MOL0     C22605   9.105   5.639  10.153 -0.1413  0.1086  0.9837
  168MOL0     C22606   9.011   5.514  10.159 -0.6512 -0.1341 -0.1819
  168MOL0     C22607   8.918   5.506  10.031 -0.0736  0.4495 -0.2696
  168MOL0     C22608   8.806   5.418  10.061 -1.0127 -0.6121 -0.9835
  168MOL0     C22609   8.723   5.331  10.090 -0.0431 -0.2067 -0.2584
  168MOL0     C22610   9.462   5.724  10.217  0.4738 -0.6006 -0.0447
  168MOL0     C22611   9.588   5.744  10.270  0.6686  0.4887 -0.7816
  168MOL0     C22612   9.625   5.667  10.399  0.2453  0.7643 -0.6723
  168MOL0     H22613   9.952   6.027  10.426  1.7062  2.2764  3.1267
  168MOL0     H22614  10.191   6.148  10.458 -0.8586  0.1380  0.1047
  168MOL0     H22615  10.496   6.113  10.216 -0.7873 -0.3694  0.9056
  168MOL0     H22616  10.438   6.216  10.084 -2.8576 -1.4999  0.6288
  168MOL0     H22617  10.632   6.317  10.132 -0.6026 -0.1814  0.4732
  168MOL0     H22618  10.610   6.300  10.311 -0.2941 -0.9436 -0.0336
  168MOL0     H22619  10.583   6.529  10.221  1.2732 -0.2749  0.2897
  168MOL0     H22620  10.418   6.482  10.274  1.9546  0.9548  1.5550
  168MOL0     H22621  10.505   6.498   9.984 -0.2694 -1.1773 -0.3114
  168MOL0     H22622  10.348   6.439  10.059  0.0210 -0.2087 -0.1684
  168MOL0     H22623  10.470   6.711  10.055 -0.2615 -0.1673 -1.0001
  168MOL0     H22624  10.328   6.683   9.984  0.6906  4.7883  0.8879
  168MOL0     H22625  10.331   6.664  10.294 -1.9013  0.1054  1.1556
  168MOL0     H22626  10.295   6.800  10.190  1.6156  0.1513  0.8707
  168MOL0     H22627  10.092   6.685  10.123  0.5039  1.5632  0.0792
  168MOL0     H22628  10.100   6.694  10.297 -0.4920 -0.6853 -0.8106
  168MOL0     H22629  10.143   6.448  10.125  0.6786 -1.9235  0.9445
  168MOL0     H22630  10.190   6.445  10.293 -0.1127  0.0466  0.8616
  168MOL0     H22631  10.024   6.366  10.456 -2.0121  0.9320  2.5616
  168MOL0     H22632   9.798   6.282  10.558 -1.6370 -0.7118  1.3301
  168MOL0     H22633   9.678   6.404  10.545  1.9775  0.2241  2.5859
  168MOL0     H22634   9.691   6.184  10.329  2.1169  0.8918  0.9380
  168MOL0     H22635   9.600   6.171  10.479 -1.1566  0.1801 -0.8552
  168MOL0     H22636   9.545   6.346  10.237 -0.8126  0.1411 -0.3717
  168MOL0     H22637   9.477   6.392  10.396  0.7529  0.0686  0.5656
  168MOL0     H22638   9.361   6.161  10.405  3.2225  1.5274  1.8406
  168MOL0     H22639   9.409   6.149  10.232 -0.1613  0.4363  0.1178
  168MOL0     H22640   9.267   6.040  10.129 -0.5484 -1.1383  0.3440
  168MOL0     H22641   9.060   5.930  10.054  2.4851  1.0151  0.4653
  168MOL0     H22642   8.695   5.727  10.199  2.0054  0.8955 -0.9485
  168MOL0     H22643   8.498   5.581  10.130 -3.3032  1.7036  0.9719
  168MOL0     H22644   8.284   5.578  10.072  1.7214  0.8163 -0.7457
  168MOL0     H22645   8.185   5.528   9.933  0.3634 -1.1700 -0.0973
  168MOL0     H22646   8.451   5.395   9.973  0.6156  3.3837  0.0097
  168MOL0     H22647   8.303   5.333  10.038  0.8962 -0.6179 -0.8677
  168MOL0     H22648   8.211   5.349   9.784 -0.3186 -0.7255 -0.8872
  168MOL0     H22649   8.371   5.397   9.741  1.7483  0.4447  2.9479
  168MOL0     H22650   8.288   5.113   9.839  0.1128 -2.0164 -1.9639
  168MOL0     H22651   8.451   5.172   9.852  0.1297  1.8480  0.3302
  168MOL0     H22652   8.483   5.216   9.635 -0.0115  0.0263  1.1254
  168MOL0     H22653   8.311   5.196   9.591  0.9439 -2.5479 -2.6838
  168MOL0     H22654   8.516   4.989   9.662 -0.9298  1.1031  0.8929
  168MOL0     H22655   8.340   4.952   9.662  0.4216  0.6133  1.5703
  168MOL0     H22656   8.494   4.896   9.446 -0.3992 -0.1162  0.6151
  168MOL0     H22657   8.485   5.074   9.443  1.4330 -0.6454 -0.3297
  168MOL0     H22658   8.237   5.050   9.423 -1.1721 -1.0948 -2.1481
  168MOL0     H22659   8.337   4.993   9.284 -1.1359  1.2806 -0.9395
  168MOL0     H22660   8.480   5.766   9.747 -2.0161 -0.6849  0.7150
  168MOL0     H22661   8.698   5.903   9.808 -0.7235  0.3261 -0.5112
  168MOL0     H22662   8.837   6.272  10.181 -3.0381 -4.6343 -1.6326
  168MOL0     H22663   9.038   6.375  10.255 -2.3385  0.9371 -1.2531
  168MOL0     H22664  10.232   6.151  10.030  2.6085 -1.0381  1.2513
  168MOL0     H22665  10.018   6.045  10.013  1.3605  0.1474 -0.2800
  168MOL0     H22666   9.679   5.989  10.039  0.5863  1.7714  2.1461
  168MOL0     H22667   9.455   5.951   9.963 -0.0566 -3.1821 -2.1647
  168MOL0     H22668   9.300   5.556  10.082 -1.0739 -0.7723 -0.3397
  168MOL0     H22669   9.198   5.605   9.959 -1.7652 -1.8914  1.0480
  168MOL0     H22670   9.043   5.725  10.129 -2.5373 -1.8561 -0.2857
  168MOL0     H22671   9.153   5.654  10.250 -3.0584  1.2882  2.3665
  168MOL0     H22672   8.954   5.516  10.253 -2.4880  0.0522 -1.2533
  168MOL0     H22673   9.083   5.432  10.152  0.3427  0.7160 -0.2424
  168MOL0     H22674   8.879   5.603   9.998 -3.4197 -1.0281 -1.0483
  168MOL0     H22675   8.962   5.463   9.941 -0.8147 -2.1379  0.5104
  168MOL0     H22676   8.658   5.247  10.105  2.5912 -2.2056  0.9001
  168MOL0     H22677   9.396   5.650  10.262 -0.4270 -0.3323 -0.8968
  168MOL0     H22678   9.651   5.745  10.471  0.1787  0.1114  0.0785
  168MOL0     H22679   9.534   5.628  10.445  1.0089  0.8228  0.9729
  168MOL0     H22680   9.703   5.590  10.395 -0.7548 -0.3297  0.2880
  169MOL0     O22681  10.451   1.648   3.506  0.7087  1.2127  0.1035
  169MOL0     C22682  10.457   1.689   3.389  1.3807 -0.0623 -0.5160
  169MOL0     O22683  10.565   1.748   3.336 -0.2047 -0.6099 -0.2553
  169MOL0     C22684  10.667   1.777   3.424  0.0537  0.4233  0.0468
  169MOL0     C22685  10.774   1.697   3.459 -1.0805 -0.7234  0.2038
  169MOL0     C22686  10.872   1.743   3.548 -0.6324 -0.2918 -0.8984
  169MOL0     C22687  10.863   1.873   3.602 -0.5939  0.3274 -0.3602
  169MOL0     O22688  10.959   1.896   3.702  0.2208 -0.7584  0.2008
  169MOL0     C22689  10.946   1.997   3.803  1.0441 -0.7403  0.3421
  169MOL0     C22690  11.088   2.050   3.841  0.5156  0.0732  0.3872
  169MOL0     C22691  11.153   1.976   3.959  0.5601 -0.2000 -0.8496
  169MOL0     C22692  11.273   2.048   4.007  0.2233  0.2451 -0.3673
  169MOL0     C22693  11.340   1.978   4.123  0.2027 -0.2042  1.0157
  169MOL0     C22694  11.449   2.060   4.173  0.2032 -0.3912  0.5368
  169MOL0     C22695  11.524   1.989   4.291  0.0093 -0.3643  0.7307
  169MOL0     C22696  11.638   2.088   4.343 -0.5029 -1.2147 -0.0917
  169MOL0     N22697  11.754   2.088   4.256  0.3978  0.0490  0.1839
  169MOL0     C22698  11.840   1.980   4.233  0.3027 -0.8110  0.2612
  169MOL0     C22699  11.911   2.020   4.117 -0.1496 -0.2742 -0.1986
  169MOL0     C22700  12.013   1.923   4.054 -0.3732 -0.6427  0.7415
  169MOL0     C22701  11.960   1.862   3.924 -0.3475  0.3554  0.3950
  169MOL0     C22702  12.062   1.769   3.855 -0.4086 -0.1246  0.2912
  169MOL0     C22703  12.192   1.843   3.817  0.9731 -0.0461 -0.9881
  169MOL0     O22704  12.288   1.852   3.927  0.0808 -0.1914 -0.2688
  169MOL0     C22705  12.418   1.902   3.900 -1.1841 -0.1169 -0.5386
  169MOL0     C22706  12.478   1.924   3.777 -0.1188  0.4852  0.0719
  169MOL0     C22707  12.617   1.955   3.753  0.1145 -0.3093 -0.0055
  169MOL0     C22708  12.695   1.985   3.866  0.1849  0.5711 -0.4667
  169MOL0     C22709  12.835   2.021   3.863 -0.8272  0.5663 -0.4535
  169MOL0     O22710  12.905   2.045   3.975  0.1570 -0.7597  0.0695
  169MOL0     C22711  13.040   2.076   3.970  0.0874  0.3181 -0.4821
  169MOL0     C22712  13.141   1.981   3.996  0.1172  0.3477  0.2990
  169MOL0     C22713  13.275   2.013   3.995 -0.0115  1.0420 -0.4333
  169MOL0     C22714  13.314   2.142   3.954  0.2000 -0.3439 -0.0660
  169MOL0     O22715  13.446   2.178   3.951 -0.1003 -0.5772 -0.6325
  169MOL0     C22716  13.509   2.254   3.840  0.6297 -1.7349 -0.2739
  169MOL0     C22717  13.634   2.176   3.785  0.1346 -0.4944 -0.6193
  169MOL0     C22718  13.735   2.161   3.896  0.9400  1.0545 -0.6424
  169MOL0     C22719  13.808   2.288   3.928  0.7299 -0.6189  1.1565
  169MOL0     C22720  13.941   2.285   3.992  0.6494  0.2728 -0.4380
  169MOL0     C22721  13.986   2.429   4.010  0.3762 -0.5975  0.7332
  169MOL0     C22722  14.134   2.435   4.045 -0.3677  0.1776  0.2563
  169MOL0     C22723  14.168   2.353   4.170 -0.3891 -0.4304  0.1289
  169MOL0    Cl22724  14.341   2.351   4.159 -0.3695  0.7332  0.7435
  169MOL0     C22725  13.217   2.231   3.920 -0.4708  0.0873  0.3039
  169MOL0     C22726  13.084   2.203   3.917  0.5547  0.1403 -0.0193
  169MOL0     O22727  12.886   2.007   3.749 -0.0854  0.1471  0.1279
  169MOL0     C22728  12.635   1.961   3.996 -0.0203 -0.5856 -0.4664
  169MOL0     C22729  12.502   1.926   4.008 -0.4815 -0.1676 -0.1346
  169MOL0     N22730  11.879   2.151   4.085  0.6756  0.2808  0.0329
  169MOL0     N22731  11.781   2.182   4.158 -0.0842 -0.2337 -0.3895
  169MOL0     C22732  10.759   1.958   3.570  0.6118 -0.0416 -0.5223
  169MOL0     C22733  10.657   1.908   3.484 -0.0956 -0.1763 -0.3028
  169MOL0     C22734  10.336   1.669   3.298 -0.4013 -0.0128 -0.1601
  169MOL0     C22735  10.337   1.731   3.172  0.6623 -0.9007 -0.4413
  169MOL0     C22736  10.229   1.713   3.076 -0.8563 -0.1342  0.4470
  169MOL0     C22737  10.119   1.626   3.109 -0.4796  0.5819  0.9244
  169MOL0     O22738  10.014   1.608   3.027  0.0145 -0.1007 -0.0004
  169MOL0     C22739  10.005   1.669   2.892 -0.1698 -0.1319  0.1033
  169MOL0     C22740   9.863   1.639   2.837  0.4248  0.1630 -0.8464
  169MOL0     C22741   9.830   1.706   2.702  0.2982 -0.7362  1.2572
  169MOL0     C22742   9.784   1.602   2.600  0.7318 -0.5697  0.0451
  169MOL0     C22743   9.769   1.678   2.470  0.1096 -1.1131  0.4899
  169MOL0     C22744   9.764   1.738   2.367 -0.3197 -0.2023  0.8912
  169MOL0     C22745  10.124   1.564   3.233 -0.5712  0.3051 -0.3369
  169MOL0     C22746  10.224   1.583   3.329 -0.3453  0.2859  0.5915
  169MOL0     C22747  10.205   1.510   3.462  0.6952 -0.6244 -0.5962
  169MOL0     H22748  10.773   1.599   3.413 -0.9928 -0.6253 -0.0063
  169MOL0     H22749  10.953   1.673   3.570  0.1155  0.4353 -1.2786
  169MOL0     H22750  10.887   2.080   3.763  0.8228 -1.7655 -1.5357
  169MOL0     H22751  10.887   1.956   3.885  0.0460  0.4089  0.2308
  169MOL0     H22752  11.076   2.156   3.866 -0.3219 -0.4808  2.5223
  169MOL0     H22753  11.147   2.040   3.749  0.6861 -2.5296  0.7232
  169MOL0     H22754  11.192   1.880   3.922 -0.5112 -0.5259 -1.1517
  169MOL0     H22755  11.076   1.966   4.035 -1.9281 -1.2966 -3.3483
  169MOL0     H22756  11.345   2.076   3.929  1.1000  0.5954  0.5455
  169MOL0     H22757  11.229   2.139   4.050 -0.3631  0.2529 -0.9564
  169MOL0     H22758  11.268   1.951   4.200 -2.7922  2.1743 -0.7089
  169MOL0     H22759  11.379   1.887   4.076 -0.3178  1.2529 -2.5537
  169MOL0     H22760  11.526   2.078   4.097  0.1070  2.4815  0.9951
  169MOL0     H22761  11.411   2.158   4.204 -0.9747 -0.8787  0.6778
  169MOL0     H22762  11.569   1.899   4.248 -0.2240  0.1763 -0.7187
  169MOL0     H22763  11.460   1.956   4.373  0.5784 -3.0251  0.2147
  169MOL0     H22764  11.603   2.192   4.351 -2.9576 -2.0298  0.6577
  169MOL0     H22765  11.664   2.064   4.446  0.7197  0.0832 -0.0583
  169MOL0     H22766  11.837   1.882   4.281  3.7448 -0.2816  1.8191
  169MOL0     H22767  12.103   1.982   4.035  0.9681 -3.2869 -1.9422
  169MOL0     H22768  12.036   1.846   4.128 -0.8469 -2.6502 -1.1015
  169MOL0     H22769  11.864   1.816   3.948  0.4622 -1.1769  0.8020
  169MOL0     H22770  11.934   1.940   3.851  0.8740  1.1594  0.7882
  169MOL0     H22771  12.018   1.720   3.767 -0.6755  1.2933 -0.3967
  169MOL0     H22772  12.079   1.689   3.927  0.2783  1.5476  2.0624
  169MOL0     H22773  12.155   1.933   3.767 -1.4587 -0.5183 -0.2044
  169MOL0     H22774  12.244   1.780   3.744  0.3074 -0.3416 -1.2188
  169MOL0     H22775  12.425   1.905   3.684  1.5915 -2.7811 -0.3728
  169MOL0     H22776  12.658   1.964   3.653  1.7692 -0.3054  0.6403
  169MOL0     H22777  13.103   1.881   4.013  0.7593  0.2270  1.1026
  169MOL0     H22778  13.352   1.944   4.028 -1.0669  0.1329  0.1647
  169MOL0     H22779  13.442   2.265   3.754  0.1379 -1.6941  0.1084
  169MOL0     H22780  13.539   2.355   3.867 -0.5217 -1.6996  1.0062
  169MOL0     H22781  13.600   2.082   3.740  3.6526 -1.6352 -1.1925
  169MOL0     H22782  13.675   2.227   3.698 -1.5451 -0.3766 -1.3843
  169MOL0     H22783  13.695   2.103   3.979 -0.2319 -0.1087 -1.9543
  169MOL0     H22784  13.808   2.088   3.862 -0.1926 -0.3711 -0.1098
  169MOL0     H22785  13.740   2.359   3.977  2.7364 -0.0382  3.2900
  169MOL0     H22786  13.828   2.328   3.828  0.1953 -2.0409  0.4649
  169MOL0     H22787  14.011   2.226   3.931  0.0659 -1.9412  0.9169
  169MOL0     H22788  13.924   2.228   4.084 -0.6272  0.5455 -0.4815
  169MOL0     H22789  13.981   2.485   3.917 -1.3371 -0.3493  0.9509
  169MOL0     H22790  13.919   2.491   4.070 -3.0091 -0.8337 -2.4844
  169MOL0     H22791  14.162   2.539   4.062 -1.2109  0.6145 -0.9618
  169MOL0     H22792  14.200   2.405   3.963  2.5222  1.5569  1.9148
  169MOL0     H22793  14.134   2.408   4.259  1.6476  2.4208 -0.7017
  169MOL0     H22794  14.133   2.249   4.168  2.2817 -1.4333 -2.9917
  169MOL0     H22795  13.232   2.326   3.871 -0.3942  0.0462  0.2474
  169MOL0     H22796  13.012   2.275   3.879  0.9011 -0.1438 -1.2766
  169MOL0     H22797  12.689   1.981   4.087 -2.0481  0.0736  0.6513
  169MOL0     H22798  12.468   1.908   4.110  2.4058  2.5628  1.4875
  169MOL0     H22799  10.758   2.060   3.608  2.3215 -0.0912 -0.2859
  169MOL0     H22800  10.570   1.964   3.452 -0.5415 -1.4701 -1.4381
  169MOL0     H22801  10.417   1.802   3.153  0.3163  0.4986  2.7117
  169MOL0     H22802  10.223   1.768   2.983  1.4693 -1.1609 -0.3891
  169MOL0     H22803  10.085   1.631   2.827 -0.3183  1.6188 -1.1760
  169MOL0     H22804  10.015   1.778   2.887 -2.7959  0.1104 -2.3982
  169MOL0     H22805   9.786   1.663   2.911  3.2743 -0.4122  2.5097
  169MOL0     H22806   9.852   1.530   2.829 -3.1975  0.5021 -3.3321
  169MOL0     H22807   9.927   1.751   2.678  0.4036  0.1183  3.0321
  169MOL0     H22808   9.750   1.781   2.709  0.8614  0.0143 -0.0088
  169MOL0     H22809   9.861   1.525   2.586  0.7130 -0.5433 -0.2000
  169MOL0     H22810   9.694   1.552   2.637  0.2694  1.2785  1.5958
  169MOL0     H22811   9.746   1.791   2.275 -1.0625 -1.6611  0.1672
  169MOL0     H22812  10.032   1.519   3.269 -0.6750  2.2834  2.1829
  169MOL0     H22813  10.110   1.456   3.460  0.1087  0.3181  0.5005
  169MOL0     H22814  10.293   1.445   3.470  2.5314  1.6998 -0.4620
  169MOL0     H22815  10.209   1.583   3.543  3.5394 -0.7443 -0.5116
  170MOL0     O22816   0.084   6.279   7.347  0.1171  0.9854 -0.3182
  170MOL0     C22817   0.050   6.294   7.233 -0.5600 -0.3039  0.5001
  170MOL0     O22818   0.128   6.363   7.143 -0.1742  0.7706  0.1560
  170MOL0     C22819   0.261   6.369   7.167  0.1946 -0.2839 -0.0277
  170MOL0     C22820   0.344   6.264   7.217 -0.2667 -0.4149  1.2455
  170MOL0     C22821   0.488   6.282   7.229  0.5570 -0.0455 -0.0162
  170MOL0     C22822   0.537   6.406   7.211  0.6383 -0.4563 -0.9854
  170MOL0     O22823   0.669   6.436   7.249  0.4048 -0.1183  0.2488
  170MOL0     C22824   0.754   6.321   7.273  0.3752 -0.4013 -0.3794
  170MOL0     C22825   0.896   6.359   7.322  0.3618  0.1559  1.0377
  170MOL0     C22826   0.898   6.409   7.469  0.5151  1.6226  0.0404
  170MOL0     C22827   1.042   6.421   7.531 -0.1958 -0.8424  0.0355
  170MOL0     C22828   1.139   6.507   7.436 -0.8916  0.9499 -0.1371
  170MOL0     C22829   1.267   6.551   7.516 -0.1813  0.9349 -0.7111
  170MOL0     C22830   1.385   6.610   7.441 -0.4407 -1.6157  0.2031
  170MOL0     C22831   1.442   6.533   7.318 -0.4830  0.2829  0.3422
  170MOL0     N22832   1.472   6.387   7.342  0.3876 -0.2608  0.4880
  170MOL0     C22833   1.555   6.339   7.435  0.0238  0.2764 -0.0155
  170MOL0     C22834   1.556   6.203   7.421 -0.0539  0.3478  0.2225
  170MOL0     C22835   1.618   6.096   7.503 -0.1763  0.1132  0.4011
  170MOL0     C22836   1.703   6.154   7.621 -0.0482 -0.3912 -0.1387
  170MOL0     C22837   1.775   6.034   7.689  1.6801 -1.1521 -0.2381
  170MOL0     C22838   1.858   6.083   7.802  0.1534  0.0514 -1.4138
  170MOL0     O22839   1.919   5.976   7.882  0.5679  0.3214  0.4853
  170MOL0     C22840   2.055   5.962   7.864 -1.0587 -0.2638 -0.2744
  170MOL0     C22841   2.140   6.012   7.762  0.3827  0.2647 -0.2016
  170MOL0     C22842   2.279   6.009   7.760  0.5550 -0.6335 -0.0288
  170MOL0     C22843   2.348   5.958   7.868  0.1728  0.1537  0.0828
  170MOL0     C22844   2.493   5.965   7.881 -0.0597  0.4707  0.8123
  170MOL0     O22845   2.547   5.939   7.999  0.8282 -0.0433 -0.2139
  170MOL0     C22846   2.684   5.956   8.014  0.8199  0.2908 -0.0943
  170MOL0     C22847   2.765   5.844   8.003  0.0581  0.7754  0.2452
  170MOL0     C22848   2.903   5.855   8.016  1.4618 -1.2182  0.3774
  170MOL0     C22849   2.966   5.988   8.019  0.4477  0.3628 -0.5519
  170MOL0     O22850   3.104   6.000   8.002 -0.1048 -0.0602  0.0535
  170MOL0     C22851   3.172   6.130   8.004  0.9369 -0.3345  0.5191
  170MOL0     C22852   3.323   6.109   7.997  0.2711  0.0064 -0.6309
  170MOL0     C22853   3.370   6.053   7.863 -0.3783  0.1968 -0.1911
  170MOL0     C22854   3.507   6.093   7.825 -0.5907  0.3007  0.0450
  170MOL0     C22855   3.549   6.057   7.685 -0.9587  0.6595 -0.1574
  170MOL0     C22856   3.658   6.151   7.613 -0.6242 -0.2412 -0.1698
  170MOL0     C22857   3.781   6.167   7.698 -0.1791  0.1197 -0.8674
  170MOL0     C22858   3.904   6.227   7.629 -0.0363 -0.5013  0.7133
  170MOL0    Cl22859   3.956   6.145   7.487 -0.3156  0.2095 -0.0121
  170MOL0     C22860   2.879   6.096   8.040  0.4661 -0.7720 -0.4152
  170MOL0     C22861   2.736   6.081   8.033 -0.3598 -0.1696 -0.3223
  170MOL0     O22862   2.553   6.007   7.781 -0.0996 -0.3256 -0.6719
  170MOL0     C22863   2.276   5.912   7.976 -0.0978  0.6328  0.7131
  170MOL0     C22864   2.131   5.907   7.974  0.8528 -0.3604  0.9287
  170MOL0     N22865   1.466   6.176   7.317  0.2220 -0.3473 -0.6315
  170MOL0     N22866   1.419   6.287   7.265  0.2361  0.4361 -1.1267
  170MOL0     C22867   0.453   6.514   7.186  1.0684  0.1321  0.6134
  170MOL0     C22868   0.317   6.494   7.160 -0.2152  0.0095 -0.8753
  170MOL0     C22869  -0.078   6.237   7.184 -0.2318 -0.3968 -0.3041
  170MOL0     C22870  -0.173   6.195   7.274 -0.2330  1.0268  0.1960
  170MOL0     C22871  -0.302   6.155   7.236 -0.1065 -0.6287  0.0733
  170MOL0     C22872  -0.350   6.174   7.102  0.0164  0.6318 -0.3342
  170MOL0     O22873  -0.483   6.169   7.053 -0.8518  0.2278 -0.5905
  170MOL0     C22874  -0.575   6.123   7.156 -0.3756 -0.2734  0.1156
  170MOL0     C22875  -0.721   6.137   7.110  0.1984  0.6167  0.8216
  170MOL0     C22876  -0.763   6.025   7.012  0.5762  0.1721  0.0521
  170MOL0     C22877  -0.913   6.006   7.002 -0.2688 -0.7278 -0.2943
  170MOL0     C22878  -0.970   6.130   6.948  0.5387  0.0563  0.3398
  170MOL0     C22879  -0.986   6.244   6.911 -0.3621  0.4404  0.2154
  170MOL0     C22880  -0.255   6.217   7.011 -0.5450 -0.1979 -0.3629
  170MOL0     C22881  -0.120   6.246   7.045  1.0862  0.0355 -0.0942
  170MOL0     C22882  -0.041   6.295   6.930 -0.1139 -0.0884 -0.6895
  170MOL0     H22883   0.311   6.163   7.239  0.4287 -0.4894  2.0493
  170MOL0     H22884   0.542   6.195   7.262 -0.5732 -1.6652 -2.1543
  170MOL0     H22885   0.712   6.261   7.354  2.2706 -2.1183 -0.6162
  170MOL0     H22886   0.746   6.268   7.178  0.6962  2.5253 -2.1867
  170MOL0     H22887   0.934   6.438   7.256 -2.5232  0.5970 -0.2583
  170MOL0     H22888   0.965   6.275   7.316  2.4484  1.7655  1.3658
  170MOL0     H22889   0.829   6.349   7.528  1.1755 -0.4656 -1.1805
  170MOL0     H22890   0.858   6.510   7.459  0.2474  1.4417 -0.8545
  170MOL0     H22891   1.023   6.462   7.631  1.9486 -1.2302  0.6661
  170MOL0     H22892   1.092   6.325   7.545  2.2761  0.6541  2.6854
  170MOL0     H22893   1.174   6.443   7.355  0.2028  0.3006  0.8065
  170MOL0     H22894   1.082   6.590   7.394 -0.2946  1.9950  1.0570
  170MOL0     H22895   1.236   6.629   7.586  2.3365  1.5026 -0.1641
  170MOL0     H22896   1.308   6.474   7.581 -1.9990 -0.9794 -1.7125
  170MOL0     H22897   1.466   6.627   7.512  1.6200 -0.0374 -2.3349
  170MOL0     H22898   1.358   6.711   7.409 -0.3527 -1.9603 -1.0095
  170MOL0     H22899   1.376   6.527   7.232  0.1992 -1.7455 -0.0982
  170MOL0     H22900   1.533   6.588   7.292  0.4582 -0.3581  2.0773
  170MOL0     H22901   1.593   6.394   7.521 -1.3043  0.1428  0.6896
  170MOL0     H22902   1.544   6.028   7.547  0.1844 -0.2274  0.4907
  170MOL0     H22903   1.683   6.037   7.439  0.1300  1.0791 -0.1850
  170MOL0     H22904   1.782   6.226   7.601  2.4310 -2.2528  2.2664
  170MOL0     H22905   1.630   6.208   7.682 -0.2667 -1.2724  0.4071
  170MOL0     H22906   1.834   5.979   7.615  2.7457 -2.8054  1.7532
  170MOL0     H22907   1.698   5.964   7.724 -0.1317 -0.6961 -2.9898
  170MOL0     H22908   1.794   6.141   7.869  0.8820 -0.3826 -0.3007
  170MOL0     H22909   1.923   6.163   7.767 -1.8375  1.8786 -1.1503
  170MOL0     H22910   2.096   6.047   7.669 -0.8163  2.4962  1.1182
  170MOL0     H22911   2.337   6.061   7.684  0.2581  0.1871  0.2940
  170MOL0     H22912   2.726   5.742   7.998 -0.5776  1.0683 -1.2935
  170MOL0     H22913   2.963   5.766   8.002  2.2865 -0.6677  0.2618
  170MOL0     H22914   3.138   6.191   7.920 -2.1850 -0.1911  1.7469
  170MOL0     H22915   3.145   6.186   8.094  1.4966 -1.2487  1.2764
  170MOL0     H22916   3.367   6.204   8.030 -0.2972 -0.5068  1.8264
  170MOL0     H22917   3.353   6.035   8.072  0.3828 -0.9636 -1.6073
  170MOL0     H22918   3.372   5.944   7.866 -2.5188  0.0935 -0.4555
  170MOL0     H22919   3.299   6.080   7.784  0.2613  1.2879 -0.4084
  170MOL0     H22920   3.581   6.049   7.892 -0.1847 -0.2090 -0.7252
  170MOL0     H22921   3.511   6.201   7.840  0.6335  0.0828  1.5526
  170MOL0     H22922   3.460   6.059   7.621 -1.5049 -0.4588  0.5321
  170MOL0     H22923   3.587   5.954   7.687  0.0038  1.0176  0.7176
  170MOL0     H22924   3.689   6.101   7.521  0.8033  0.8839 -0.3286
  170MOL0     H22925   3.617   6.250   7.591 -1.1205 -0.2863  0.4911
  170MOL0     H22926   3.821   6.076   7.743 -0.4923 -0.4815 -1.7783
  170MOL0     H22927   3.751   6.220   7.788  1.6747  0.0439 -0.1651
  170MOL0     H22928   3.891   6.334   7.611  0.4062 -0.9191 -2.7689
  170MOL0     H22929   3.989   6.219   7.697  2.5107 -2.3200 -2.4152
  170MOL0     H22930   2.919   6.193   8.065  1.1731 -1.1860  0.0828
  170MOL0     H22931   2.670   6.166   8.042 -0.0401  0.3859 -2.5923
  170MOL0     H22932   2.322   5.883   8.070 -1.1697 -2.0048  0.5183
  170MOL0     H22933   2.080   5.879   8.065 -3.2399 -2.9588 -1.8499
  170MOL0     H22934   0.477   6.618   7.210  2.1709  0.0555 -0.1147
  170MOL0     H22935   0.247   6.576   7.149 -2.0814 -1.2525  0.8343
  170MOL0     H22936  -0.130   6.175   7.372 -0.9431 -2.8966 -0.1261
  170MOL0     H22937  -0.369   6.136   7.319  1.9957  1.0051  2.2809
  170MOL0     H22938  -0.565   6.188   7.243  1.4084  0.0202 -0.2816
  170MOL0     H22939  -0.558   6.017   7.180 -0.5323 -0.7565 -1.7641
  170MOL0     H22940  -0.746   6.231   7.060 -0.4223  0.5457  0.9999
  170MOL0     H22941  -0.776   6.136   7.204  1.9919  1.9708  1.9673
  170MOL0     H22942  -0.735   5.925   7.049 -1.5833 -1.3494 -2.0907
  170MOL0     H22943  -0.719   6.026   6.912 -0.4012 -1.3664 -0.4415
  170MOL0     H22944  -0.946   5.921   6.941 -2.0071  0.4114 -0.9999
  170MOL0     H22945  -0.954   5.977   7.100  0.3511 -3.8567 -0.8341
  170MOL0     H22946  -1.000   6.349   6.897 -4.0329  0.0583 -0.0265
  170MOL0     H22947  -0.284   6.252   6.913  3.5372  0.7644 -1.3787
  170MOL0     H22948  -0.085   6.256   6.838  1.2299 -1.3255 -0.8470
  170MOL0     H22949  -0.045   6.404   6.933 -1.3327 -0.1365 -0.2732
  170MOL0     H22950   0.060   6.257   6.949 -0.8842 -2.0723 -0.3106
  171MOL0     O22951  10.102   3.576  11.274  0.4123  0.2928  0.7825
  171MOL0     C22952  10.072   3.671  11.354  0.3168  0.5643 -0.2967
  171MOL0     O22953  10.162   3.762  11.410  0.2278  0.6034 -0.2476
  171MOL0     C22954  10.293   3.742  11.378 -0.2707 -0.0468 -0.1645
  171MOL0     C22955  10.374   3.706  11.483  0.0610 -0.2164  0.0040
  171MOL0     C22956  10.515   3.693  11.466 -0.5925 -0.4267  1.0582
  171MOL0     C22957  10.567   3.732  11.337  0.4957 -0.1984 -0.8959
  171MOL0     O22958  10.704   3.741  11.320 -0.1613  0.0345 -0.0104
  171MOL0     C22959  10.761   3.855  11.379  0.4219 -0.3281 -0.1416
  171MOL0     C22960  10.847   3.915  11.268 -0.0840 -0.6092  0.3799
  171MOL0     C22961  10.936   4.033  11.306 -0.2985 -0.5238  0.9674
  171MOL0     C22962  11.053   4.009  11.401  0.5276 -0.6046  0.4775
  171MOL0     C22963  11.133   4.143  11.424 -0.1175  0.1431  0.4161
  171MOL0     C22964  11.260   4.108  11.509 -0.6172 -0.4405 -0.2576
  171MOL0     C22965  11.372   4.209  11.480  0.1969  0.8277  0.4181
  171MOL0     C22966  11.489   4.203  11.577 -0.7650  0.1557 -0.6705
  171MOL0     N22967  11.566   4.090  11.563 -0.0486 -0.1999 -0.1424
  171MOL0     C22968  11.599   4.014  11.671 -0.1121 -0.2535  0.0609
  171MOL0     C22969  11.700   3.935  11.623 -0.0468 -0.2125 -0.0285
  171MOL0     C22970  11.767   3.830  11.704 -0.8198 -0.5598  0.4651
  171MOL0     C22971  11.908   3.785  11.653 -0.3356  0.1311  0.3446
  171MOL0     C22972  11.958   3.660  11.724  1.0182  1.4527  0.0509
  171MOL0     C22973  12.104   3.622  11.678  0.2001  0.1848  0.0931
  171MOL0     O22974  12.195   3.716  11.740 -0.4906  0.0610 -0.1390
  171MOL0     C22975  12.337   3.688  11.733  0.5569  0.6182  0.6233
  171MOL0     C22976  12.421   3.788  11.778  0.5292 -1.1503  0.7796
  171MOL0     C22977  12.560   3.775  11.779  0.0091 -0.4496  0.2603
  171MOL0     C22978  12.619   3.655  11.734 -0.4978 -0.6243  0.6974
  171MOL0     C22979  12.762   3.634  11.736  0.3411 -0.1643 -0.7135
  171MOL0     O22980  12.839   3.744  11.718 -0.8192 -0.5493  0.3849
  171MOL0     C22981  12.978   3.741  11.700 -0.3070  0.7323 -0.7318
  171MOL0     C22982  13.066   3.633  11.672 -0.2073 -0.8134  0.6267
  171MOL0     C22983  13.206   3.651  11.672  0.1212 -0.7877 -0.0957
  171MOL0     C22984  13.265   3.778  11.688  0.3007 -0.2406 -0.2060
  171MOL0     O22985  13.401   3.791  11.684  0.2760  0.6775 -0.1569
  171MOL0     C22986  13.487   3.687  11.627 -0.9149 -0.3796  0.7904
  171MOL0     C22987  13.631   3.746  11.623 -0.1819 -0.5608 -0.9946
  171MOL0     C22988  13.733   3.643  11.584 -0.4650 -0.9151 -0.0146
  171MOL0     C22989  13.875   3.695  11.582 -0.4463 -0.5968  0.5972
  171MOL0     C22990  13.962   3.586  11.527  0.1973 -1.2393  0.0697
  171MOL0     C22991  14.097   3.633  11.462 -0.3762  0.1298  0.2535
  171MOL0     C22992  14.076   3.695  11.326 -0.5106 -0.2992  1.0661
  171MOL0     C22993  14.205   3.746  11.264  0.0142 -0.2094 -0.3346
  171MOL0    Cl22994  14.170   3.882  11.168 -0.0600  0.5094  0.1910
  171MOL0     C22995  13.177   3.884  11.711  0.4921  1.2144  0.2194
  171MOL0     C22996  13.043   3.866  11.718  0.2309  0.6677 -0.0933
  171MOL0     O22997  12.804   3.519  11.771  0.2517 -0.1862  0.1564
  171MOL0     C22998  12.536   3.557  11.686 -0.6372  0.7750  0.3436
  171MOL0     C22999  12.400   3.571  11.690  0.9580 -0.3767 -0.7534
  171MOL0     N23000  11.734   3.975  11.496  1.3404 -0.0582 -0.3864
  171MOL0     N23001  11.638   4.062  11.459 -1.2587  0.2236  0.7686
  171MOL0     C23002  10.485   3.756  11.228  0.2843 -0.1282  0.4562
  171MOL0     C23003  10.349   3.760  11.246  0.2595 -0.1714  0.2341
  171MOL0     C23004   9.931   3.672  11.400  0.9650 -0.1719  0.3494
  171MOL0     C23005   9.903   3.774  11.492  0.0332  0.7176 -0.2209
  171MOL0     C23006   9.780   3.776  11.548 -1.0088 -1.0431 -0.1336
  171MOL0     C23007   9.674   3.690  11.513 -1.1852  0.5950 -0.6770
  171MOL0     O23008   9.554   3.691  11.576 -0.6598  0.3431 -1.0504
  171MOL0     C23009   9.470   3.570  11.573  0.5319 -0.4119  0.3545
  171MOL0     C23010   9.348   3.592  11.655  0.0475 -0.3196  0.8838
  171MOL0     C23011   9.248   3.474  11.632  0.7289  0.5138  0.0779
  171MOL0     C23012   9.323   3.335  11.640  0.8742  0.1387  0.4496
  171MOL0     C23013   9.226   3.223  11.639  0.4310  0.5430  0.7351
  171MOL0     C23014   9.133   3.143  11.634  0.4249  1.1521 -0.4225
  171MOL0     C23015   9.706   3.592  11.411 -0.5125  0.0421 -0.6943
  171MOL0     C23016   9.828   3.583  11.353  1.0201 -0.8016 -0.1698
  171MOL0     C23017   9.838   3.496  11.228  0.8060 -0.1058  0.3018
  171MOL0     H23018  10.321   3.685  11.575  0.5362 -0.0631  0.3132
  171MOL0     H23019  10.574   3.663  11.552  1.5316  0.9463  0.1607
  171MOL0     H23020  10.689   3.929  11.415 -0.9020 -1.9028  0.5977
  171MOL0     H23021  10.817   3.819  11.465 -0.8027  0.0154  0.8302
  171MOL0     H23022  10.786   3.949  11.184 -0.3827 -1.3520  0.2926
  171MOL0     H23023  10.916   3.835  11.241 -0.1306 -1.1720  1.8375
  171MOL0     H23024  10.874   4.115  11.343  2.6018  1.7324  1.1701
  171MOL0     H23025  10.976   4.072  11.212 -3.1171 -1.2887 -0.6498
  171MOL0     H23026  11.013   3.978  11.498 -0.5766  2.4900  1.1358
  171MOL0     H23027  11.118   3.937  11.351 -0.8595 -1.4277 -0.2032
  171MOL0     H23028  11.160   4.195  11.333  0.1585  1.2413  1.1089
  171MOL0     H23029  11.079   4.213  11.489  0.3301 -0.2453  1.2302
  171MOL0     H23030  11.234   4.119  11.615 -0.6460 -0.0852 -0.3006
  171MOL0     H23031  11.285   4.002  11.501  1.2315  0.1261 -3.6653
  171MOL0     H23032  11.336   4.311  11.494  0.6121  0.9976  0.2753
  171MOL0     H23033  11.409   4.177  11.382  0.7398 -0.0250  0.8866
  171MOL0     H23034  11.549   4.286  11.540  1.0421  0.6755  2.9262
  171MOL0     H23035  11.456   4.233  11.678  0.0711  0.0941 -0.3720
  171MOL0     H23036  11.572   4.015  11.776 -0.1734 -1.4624  0.0698
  171MOL0     H23037  11.797   3.866  11.802  0.2087  3.3318 -1.0859
  171MOL0     H23038  11.689   3.753  11.708 -1.7360  0.3161 -0.0609
  171MOL0     H23039  11.906   3.763  11.546  0.9441 -0.6551  0.4599
  171MOL0     H23040  11.975   3.867  11.683  0.2063 -0.8189  1.8605
  171MOL0     H23041  11.892   3.576  11.702  1.5119  0.5393  1.8794
  171MOL0     H23042  11.954   3.663  11.833  0.7278 -1.3669  0.1854
  171MOL0     H23043  12.108   3.627  11.569  1.3592 -0.0863  0.1100
  171MOL0     H23044  12.132   3.519  11.701 -0.1585 -0.2678 -1.3848
  171MOL0     H23045  12.376   3.881  11.811  0.4339  0.1889 -2.6914
  171MOL0     H23046  12.618   3.851  11.830 -0.7450 -1.6119  3.1016
  171MOL0     H23047  13.028   3.533  11.654  1.5649 -1.7988  2.0319
  171MOL0     H23048  13.258   3.561  11.642 -0.0699 -0.3970 -1.7297
  171MOL0     H23049  13.492   3.594  11.685  0.2007 -1.1706 -0.5341
  171MOL0     H23050  13.463   3.661  11.523  0.4098  0.4263  0.2534
  171MOL0     H23051  13.631   3.839  11.566 -1.2917  0.4698  0.5822
  171MOL0     H23052  13.662   3.769  11.726 -0.3942  0.2974 -1.1153
  171MOL0     H23053  13.723   3.562  11.656  0.1256  1.8980  3.5271
  171MOL0     H23054  13.702   3.604  11.487 -1.0383  1.6066 -0.9414
  171MOL0     H23055  13.912   3.710  11.684  0.2014 -3.6731  0.9023
  171MOL0     H23056  13.890   3.790  11.530  0.8557 -0.8024  0.5531
  171MOL0     H23057  13.919   3.543  11.436 -0.1371  0.2258 -0.4971
  171MOL0     H23058  13.978   3.516  11.609 -2.7324 -2.1836 -0.0604
  171MOL0     H23059  14.164   3.685  11.531  1.3291 -1.2826 -0.2723
  171MOL0     H23060  14.147   3.537  11.447 -0.2263 -0.1746  2.4178
  171MOL0     H23061  14.010   3.782  11.326  2.0398  1.7461  1.1528
  171MOL0     H23062  14.038   3.615  11.262 -1.8145 -0.3581  1.8863
  171MOL0     H23063  14.272   3.782  11.343 -0.6589  1.3955 -0.4650
  171MOL0     H23064  14.247   3.661  11.209  0.8783 -0.1520  0.2161
  171MOL0     H23065  13.218   3.984  11.728  0.9657  0.7942  1.7557
  171MOL0     H23066  12.972   3.946  11.736 -1.8696 -0.9242 -0.9647
  171MOL0     H23067  12.583   3.469  11.643 -1.7530  0.2478  0.1543
  171MOL0     H23068  12.332   3.488  11.672 -0.7358  0.3608  1.5950
  171MOL0     H23069  10.533   3.773  11.132 -1.1904 -1.5871 -0.5957
  171MOL0     H23070  10.272   3.787  11.174 -0.7768 -0.3125  1.2616
  171MOL0     H23071   9.970   3.852  11.526  0.6699  1.3392 -2.6428
  171MOL0     H23072   9.749   3.859  11.610  2.9735  0.7889 -0.3220
  171MOL0     H23073   9.533   3.495  11.620  1.1675 -0.4986 -0.5939
  171MOL0     H23074   9.439   3.544  11.471 -2.3296 -0.8985  1.2629
  171MOL0     H23075   9.300   3.685  11.623 -0.3754 -0.5269  0.9049
  171MOL0     H23076   9.379   3.594  11.760 -1.4650  1.3492  1.3571
  171MOL0     H23077   9.202   3.481  11.533  1.4329  4.0428 -0.1469
  171MOL0     H23078   9.172   3.485  11.709 -0.5588 -3.8135 -0.2899
  171MOL0     H23079   9.389   3.320  11.554 -1.1141  0.2972 -1.2075
  171MOL0     H23080   9.388   3.319  11.726  1.6498 -1.4504 -0.3968
  171MOL0     H23081   9.056   3.072  11.611 -0.2214  1.9751 -0.8423
  171MOL0     H23082   9.636   3.514  11.382 -0.2725 -0.7194  0.6806
  171MOL0     H23083   9.879   3.554  11.144 -0.8776 -0.1302 -0.5940
  171MOL0     H23084   9.909   3.413  11.239  1.6260  0.3870 -0.9153
  171MOL0     H23085   9.737   3.467  11.200  0.7375 -0.0121  0.4532
  172MOL0     O23086   5.326   1.771   6.493  0.2526  0.9154  0.0366
  172MOL0     C23087   5.240   1.687   6.525 -0.3836  0.1231  0.4194
  172MOL0     O23088   5.261   1.563   6.573 -0.1163 -0.0868 -0.0796
  172MOL0     C23089   5.384   1.511   6.536 -0.5782  0.0224 -0.2986
  172MOL0     C23090   5.386   1.381   6.484  0.2298 -0.2106 -0.0828
  172MOL0     C23091   5.516   1.322   6.454  0.3343 -0.4297  0.4663
  172MOL0     C23092   5.634   1.387   6.483  0.5800  0.5876 -0.9624
  172MOL0     O23093   5.753   1.319   6.449 -0.9515  0.1147 -0.4200
  172MOL0     C23094   5.865   1.397   6.407  0.0573 -0.1276 -0.9543
  172MOL0     C23095   5.990   1.314   6.395 -0.5163  0.0393  0.3765
  172MOL0     C23096   6.069   1.306   6.534  0.4850  0.6197 -0.9799
  172MOL0     C23097   6.210   1.244   6.524 -0.2764 -0.5643  0.1355
  172MOL0     C23098   6.269   1.212   6.663 -0.4915  0.5091 -0.0108
  172MOL0     C23099   6.409   1.156   6.654  0.3517  0.0194 -0.3412
  172MOL0     C23100   6.482   1.178   6.797  0.1302  0.1341  0.1703
  172MOL0     C23101   6.632   1.136   6.806  1.1877  0.2102 -0.1164
  172MOL0     N23102   6.690   1.182   6.932 -0.6493  0.0960  0.8096
  172MOL0     C23103   6.671   1.126   7.058 -0.3709  0.4857  0.5768
  172MOL0     C23104   6.754   1.200   7.134  0.1502 -0.6269  0.6528
  172MOL0     C23105   6.783   1.189   7.284 -0.6656 -0.3072 -0.1336
  172MOL0     C23106   6.894   1.102   7.301 -0.6677 -0.6189 -0.4943
  172MOL0     C23107   6.975   1.136   7.429 -0.1115  0.2454 -1.0796
  172MOL0     C23108   7.052   1.012   7.481  0.8200 -0.0273  0.6249
  172MOL0     O23109   7.147   0.969   7.384  0.7749  0.9422  0.1672
  172MOL0     C23110   7.267   0.932   7.439  0.1020  0.1873  0.0147
  172MOL0     C23111   7.383   1.010   7.397  0.2403 -0.2064 -0.0750
  172MOL0     C23112   7.511   0.972   7.444  0.6197 -0.2459 -0.2976
  172MOL0     C23113   7.526   0.855   7.522 -0.0588 -0.3689 -0.0856
  172MOL0     C23114   7.661   0.822   7.565 -0.2937  0.1104 -0.3567
  172MOL0     O23115   7.671   0.692   7.602  0.2625  0.2537 -0.2192
  172MOL0     C23116   7.784   0.642   7.661  0.0284 -0.4299 -0.2033
  172MOL0     C23117   7.800   0.610   7.796  0.0579 -0.1369 -0.5401
  172MOL0     C23118   7.919   0.562   7.841  0.2146  0.7965  0.1158
  172MOL0     C23119   8.030   0.557   7.760 -1.6737  0.4074  0.3841
  172MOL0     O23120   8.149   0.528   7.826  0.3119  0.2365  0.0644
  172MOL0     C23121   8.265   0.501   7.746 -1.2171 -0.0728 -0.1343
  172MOL0     C23122   8.381   0.489   7.848 -0.1838  0.1751  0.1009
  172MOL0     C23123   8.423   0.630   7.905 -0.2977 -0.9293  0.0483
  172MOL0     C23124   8.558   0.625   7.972 -0.4496  0.0662 -0.2572
  172MOL0     C23125   8.601   0.759   8.035 -0.3944  0.4783 -0.5111
  172MOL0     C23126   8.707   0.748   8.142  0.1181  0.4634 -0.6695
  172MOL0     C23127   8.767   0.872   8.208 -0.7946 -0.1314 -0.2841
  172MOL0     C23128   8.884   0.825   8.296  0.4068  0.5047  0.4925
  172MOL0    Cl23129   8.954   0.946   8.397 -0.0673 -0.1552 -0.1451
  172MOL0     C23130   8.017   0.572   7.623 -0.3316 -0.0497  0.2019
  172MOL0     C23131   7.891   0.617   7.576  0.8331 -0.8596  0.4400
  172MOL0     O23132   7.754   0.905   7.572  0.0888 -0.1288  0.1420
  172MOL0     C23133   7.415   0.779   7.554 -0.6481  0.2915  0.5100
  172MOL0     C23134   7.290   0.817   7.511 -0.0623  0.3790  0.0395
  172MOL0     N23135   6.804   1.311   7.061 -0.6462 -0.0732  0.0152
  172MOL0     N23136   6.771   1.296   6.939  0.0078  0.3843  0.3744
  172MOL0     C23137   5.627   1.505   6.557 -0.2776  0.5519  0.4275
  172MOL0     C23138   5.506   1.574   6.576  0.1674  0.0174  0.6818
  172MOL0     C23139   5.094   1.724   6.514  0.1190 -0.2604 -0.0284
  172MOL0     C23140   5.047   1.850   6.552  0.4362  0.0995  0.1402
  172MOL0     C23141   4.915   1.891   6.575 -0.0355  0.4504  0.1593
  172MOL0     C23142   4.816   1.797   6.542  0.2068 -0.4121  0.1370
  172MOL0     O23143   4.686   1.839   6.558  0.0037 -0.0070 -0.9925
  172MOL0     C23144   4.578   1.762   6.505  0.3829  0.0807 -0.3176
  172MOL0     C23145   4.447   1.802   6.569  0.4683 -0.3391  0.1871
  172MOL0     C23146   4.399   1.938   6.506 -0.9727  0.5181 -0.6264
  172MOL0     C23147   4.255   1.985   6.547 -0.1165 -0.0288 -0.9384
  172MOL0     C23148   4.144   1.892   6.556 -0.1608 -0.3999  0.6959
  172MOL0     C23149   4.071   1.798   6.561 -0.0136 -0.0955  0.7717
  172MOL0     C23150   4.853   1.673   6.495  0.2871 -0.8138 -0.5644
  172MOL0     C23151   4.989   1.635   6.475 -0.2598  0.0465  0.2777
  172MOL0     C23152   5.009   1.504   6.403  0.8124 -1.1938 -0.7207
  172MOL0     H23153   5.294   1.329   6.463  0.6977 -0.8500 -0.5846
  172MOL0     H23154   5.512   1.228   6.398 -0.9245 -0.1693  0.0691
  172MOL0     H23155   5.842   1.433   6.306 -1.4329 -3.5616 -1.9886
  172MOL0     H23156   5.888   1.482   6.472  1.0609  1.0765 -2.8020
  172MOL0     H23157   6.055   1.362   6.322 -0.7987  2.6088  1.6796
  172MOL0     H23158   5.968   1.217   6.350 -0.1810  0.8373 -1.5670
  172MOL0     H23159   6.010   1.241   6.599 -1.1915  1.7843 -1.2800
  172MOL0     H23160   6.075   1.402   6.586  0.4586 -0.0451  0.3051
  172MOL0     H23161   6.203   1.150   6.469  0.3062 -0.2116 -0.5557
  172MOL0     H23162   6.276   1.311   6.468 -0.5418 -1.5212 -1.3788
  172MOL0     H23163   6.260   1.303   6.722 -2.6291 -0.0130  0.5736
  172MOL0     H23164   6.203   1.137   6.709 -0.6675  0.1423 -0.8487
  172MOL0     H23165   6.416   1.050   6.628  3.3928 -0.0951  0.5152
  172MOL0     H23166   6.466   1.201   6.572 -0.3366  0.6803 -0.4694
  172MOL0     H23167   6.433   1.133   6.884 -1.0803 -0.5355 -0.8321
  172MOL0     H23168   6.479   1.286   6.814  1.0384  0.2752 -0.5007
  172MOL0     H23169   6.634   1.028   6.791  0.7457  0.2180 -0.2351
  172MOL0     H23170   6.684   1.193   6.729 -0.0544  0.1562 -1.0146
  172MOL0     H23171   6.611   1.044   7.095 -1.6848  1.9427  1.8154
  172MOL0     H23172   6.804   1.290   7.319  1.6076 -1.3916  1.8229
  172MOL0     H23173   6.692   1.156   7.335 -0.0404  0.3917  1.4992
  172MOL0     H23174   6.856   0.999   7.305  0.2584 -1.0022 -1.1535
  172MOL0     H23175   6.963   1.100   7.217 -1.0532 -0.4612 -0.8149
  172MOL0     H23176   6.901   1.165   7.505  1.8802  1.6527  0.4235
  172MOL0     H23177   7.050   1.216   7.422 -2.1588  2.4916  0.6677
  172MOL0     H23178   6.982   0.931   7.502  0.6575 -0.9050 -2.6818
  172MOL0     H23179   7.102   1.042   7.573  2.3556 -1.3008  0.2549
  172MOL0     H23180   7.373   1.096   7.330  0.6726  2.4359  3.0216
  172MOL0     H23181   7.606   1.013   7.411  2.4341 -2.9712  1.1328
  172MOL0     H23182   7.713   0.617   7.860  0.4037  1.5568 -0.2145
  172MOL0     H23183   7.936   0.537   7.945  2.5683  0.9393 -0.1630
  172MOL0     H23184   8.254   0.402   7.700 -0.3999 -0.0782 -0.3388
  172MOL0     H23185   8.284   0.579   7.672 -0.1224  0.0320  0.2439
  172MOL0     H23186   8.347   0.420   7.926 -1.0421  0.1884 -0.2476
  172MOL0     H23187   8.465   0.440   7.798  1.9824  0.8301  2.8812
  172MOL0     H23188   8.426   0.692   7.815 -0.8147 -1.5827 -0.4284
  172MOL0     H23189   8.344   0.669   7.969  0.8131  2.8214 -0.6448
  172MOL0     H23190   8.635   0.587   7.904 -0.0120 -0.9534  0.7711
  172MOL0     H23191   8.552   0.554   8.055  2.4424  0.0596  0.0528
  172MOL0     H23192   8.507   0.793   8.080 -1.3227 -1.6892 -0.7135
  172MOL0     H23193   8.634   0.833   7.962  1.6357 -1.7117 -1.9602
  172MOL0     H23194   8.653   0.691   8.217 -1.3156 -0.2325 -2.1712
  172MOL0     H23195   8.788   0.683   8.110  0.8084 -0.8545  3.2136
  172MOL0     H23196   8.691   0.916   8.273 -1.6147 -0.8823 -0.7102
  172MOL0     H23197   8.807   0.938   8.130 -1.2889  0.3902 -0.1043
  172MOL0     H23198   8.853   0.746   8.365  5.4546  2.2214  5.5035
  172MOL0     H23199   8.951   0.763   8.235 -2.7408 -1.0439 -1.6801
  172MOL0     H23200   8.103   0.564   7.558 -0.2070 -0.3805  0.4045
  172MOL0     H23201   7.881   0.650   7.473  2.3089 -0.1053  0.5078
  172MOL0     H23202   7.426   0.683   7.603 -0.2654 -1.9286 -3.5187
  172MOL0     H23203   7.202   0.755   7.530 -1.8099  2.7793  0.2377
  172MOL0     H23204   5.718   1.560   6.579 -0.8851  1.9838 -0.5119
  172MOL0     H23205   5.503   1.674   6.616 -0.6038  0.1215  0.3875
  172MOL0     H23206   5.117   1.926   6.584  2.7801 -1.9594  0.1775
  172MOL0     H23207   4.897   1.990   6.617 -0.1340 -0.2041  1.7456
  172MOL0     H23208   4.607   1.660   6.529  1.2730 -0.0311 -1.7462
  172MOL0     H23209   4.575   1.771   6.396 -1.5111  2.4038 -0.1698
  172MOL0     H23210   4.460   1.804   6.678 -0.5271 -0.5121  0.3184
  172MOL0     H23211   4.378   1.719   6.553 -1.2472  1.0056  0.2593
  172MOL0     H23212   4.393   1.931   6.397 -1.8433  1.0418 -0.6261
  172MOL0     H23213   4.474   2.014   6.529 -0.6250  0.1616 -0.5760
  172MOL0     H23214   4.267   2.020   6.650 -2.5178 -1.2542 -0.1481
  172MOL0     H23215   4.224   2.070   6.485 -0.1813 -1.6371 -3.2505
  172MOL0     H23216   4.001   1.717   6.575 -3.9811  2.8067 -0.4623
  172MOL0     H23217   4.781   1.602   6.454  3.0307 -3.3462 -1.3179
  172MOL0     H23218   5.110   1.488   6.363  0.0885 -1.9097 -2.3190
  172MOL0     H23219   4.980   1.425   6.473  0.8138 -0.1833  0.4558
  172MOL0     H23220   4.943   1.505   6.316 -0.8453  1.2419  0.4444
  173MOL0     O23221   5.446   4.362   7.963 -0.5950  0.5307 -0.4775
  173MOL0     C23222   5.402   4.266   8.031 -0.4160 -0.5356 -0.0812
  173MOL0     O23223   5.464   4.223   8.150 -0.1272 -0.2837  0.8186
  173MOL0     C23224   5.512   4.324   8.233 -0.7487 -0.3625  0.1997
  173MOL0     C23225   5.637   4.309   8.297 -0.3105 -0.0321 -0.8188
  173MOL0     C23226   5.674   4.402   8.395 -0.5747 -0.2297 -0.5746
  173MOL0     C23227   5.607   4.524   8.422  0.1306  0.0905  0.5655
  173MOL0     O23228   5.649   4.621   8.508  0.0984  0.3501  0.1179
  173MOL0     C23229   5.653   4.745   8.450 -0.9288  0.6596 -0.3971
  173MOL0     C23230   5.745   4.842   8.535  0.2718  1.0592 -0.5694
  173MOL0     C23231   5.881   4.850   8.476 -0.4167  0.0886 -0.2092
  173MOL0     C23232   5.990   4.909   8.567  0.6343 -1.1624  0.5134
  173MOL0     C23233   6.033   4.841   8.703 -0.3683  0.0145 -0.4247
  173MOL0     C23234   6.176   4.872   8.744 -0.0185  0.1586 -0.6280
  173MOL0     C23235   6.208   5.020   8.739 -0.8903 -0.1437 -0.0395
  173MOL0     C23236   6.322   5.057   8.834 -0.5834 -0.4151 -0.6843
  173MOL0     N23237   6.452   5.053   8.769 -0.1973  0.0036 -0.1332
  173MOL0     C23238   6.533   4.939   8.774 -0.0602 -0.4189  0.2822
  173MOL0     C23239   6.643   4.983   8.694  0.6254  1.0616  0.2032
  173MOL0     C23240   6.765   4.898   8.651  1.4097  0.5384 -0.3316
  173MOL0     C23241   6.901   4.965   8.673  0.9031 -0.1547 -1.1521
  173MOL0     C23242   6.931   4.970   8.827  0.3313  0.4365  0.4027
  173MOL0     C23243   7.064   5.031   8.864 -0.1573  0.6127 -0.0657
  173MOL0     O23244   7.172   4.950   8.817 -0.1417 -0.0814  0.1613
  173MOL0     C23245   7.306   4.992   8.836 -0.1870 -0.2904 -1.3931
  173MOL0     C23246   7.341   5.117   8.894  0.3024 -0.1737 -0.1678
  173MOL0     C23247   7.479   5.140   8.911  0.2025 -0.2490  0.4311
  173MOL0     C23248   7.577   5.050   8.886 -0.2959 -0.1637  0.2102
  173MOL0     C23249   7.720   5.087   8.904  0.2976 -0.0590  0.1430
  173MOL0     O23250   7.826   5.026   8.842 -0.1966 -0.4088  1.2064
  173MOL0     C23251   7.955   5.052   8.885 -0.1097  0.2704 -0.4166
  173MOL0     C23252   8.048   5.146   8.830  0.2729 -0.4308 -0.6581
  173MOL0     C23253   8.181   5.137   8.860  0.1458 -0.2736 -0.7145
  173MOL0     C23254   8.235   5.052   8.951 -0.2008  0.4924  0.2453
  173MOL0     O23255   8.364   5.050   8.987 -0.4782  0.1506  0.1080
  173MOL0     C23256   8.457   5.104   8.894  0.5170 -0.6572  0.1890
  173MOL0     C23257   8.604   5.082   8.937 -0.4947  0.1794  0.1961
  173MOL0     C23258   8.637   5.132   9.076  0.0833  0.0368 -0.5381
  173MOL0     C23259   8.790   5.137   9.088  0.6500 -0.4826 -0.1832
  173MOL0     C23260   8.834   5.219   9.220  0.0894 -0.1230 -0.4690
  173MOL0     C23261   8.941   5.143   9.304  0.4166 -0.4331  0.4472
  173MOL0     C23262   8.974   5.226   9.432  0.4619 -0.1034  0.4644
  173MOL0     C23263   9.050   5.362   9.417 -0.2454  0.4463  0.3304
  173MOL0    Cl23264   9.221   5.331   9.343 -0.1262 -0.3477  0.2809
  173MOL0     C23265   8.147   4.956   9.009  0.3891  0.1959 -0.4674
  173MOL0     C23266   8.010   4.965   8.981  0.6648  0.6286  0.7931
  173MOL0     O23267   7.730   5.170   8.991  0.2848  0.5627 -0.2263
  173MOL0     C23268   7.540   4.927   8.824 -0.7671 -0.7317 -0.1483
  173MOL0     C23269   7.408   4.902   8.802  0.7847  0.8249 -1.2388
  173MOL0     N23270   6.615   5.109   8.646  0.3172 -0.3136 -0.4014
  173MOL0     N23271   6.504   5.153   8.694  0.3123 -0.8235  0.3566
  173MOL0     C23272   5.480   4.532   8.366 -0.5257  0.0131  0.5895
  173MOL0     C23273   5.434   4.432   8.284  0.0721  0.1903 -0.6898
  173MOL0     C23274   5.289   4.189   7.976 -0.6583  0.0444  0.4501
  173MOL0     C23275   5.263   4.205   7.838  0.5422 -0.4767 -0.8632
  173MOL0     C23276   5.166   4.138   7.772 -0.4968  0.3179  0.0841
  173MOL0     C23277   5.100   4.035   7.841  0.8609  0.1418  0.1091
  173MOL0     O23278   5.017   3.938   7.794 -0.3431  0.0524  0.7827
  173MOL0     C23279   5.017   3.915   7.649 -0.0076 -0.1300 -0.8644
  173MOL0     C23280   5.145   3.840   7.600  1.4134 -0.9729  0.4113
  173MOL0     C23281   5.120   3.694   7.581  0.3763  0.2752  0.2051
  173MOL0     C23282   5.149   3.618   7.708  0.1408  0.1476 -0.1994
  173MOL0     C23283   5.298   3.624   7.721  0.2781 -0.6939 -0.5289
  173MOL0     C23284   5.414   3.642   7.738 -0.1069 -0.1134 -0.1254
  173MOL0     C23285   5.114   4.027   7.980  0.6193 -0.7107  0.1599
  173MOL0     C23286   5.205   4.104   8.052  0.1703  0.0357  0.2986
  173MOL0     C23287   5.209   4.083   8.200 -0.2395  0.5157 -0.0486
  173MOL0     H23288   5.699   4.226   8.265 -1.5483  0.2898 -4.5430
  173MOL0     H23289   5.768   4.392   8.448  0.3952  1.0836 -1.9518
  173MOL0     H23290   5.698   4.743   8.350  0.7619  0.9878  0.3249
  173MOL0     H23291   5.554   4.788   8.436 -0.3546  2.2930  0.2963
  173MOL0     H23292   5.754   4.814   8.641 -0.9893  0.6799 -0.5439
  173MOL0     H23293   5.702   4.943   8.526  0.5099  1.1158 -1.0857
  173MOL0     H23294   5.878   4.909   8.384 -0.3535  0.8329  0.2528
  173MOL0     H23295   5.911   4.747   8.457 -3.0130 -1.1381  1.6165
  173MOL0     H23296   6.080   4.904   8.504 -0.5921 -0.5402 -1.3736
  173MOL0     H23297   5.972   5.016   8.585  2.0959 -1.3571  4.0294
  173MOL0     H23298   5.966   4.870   8.784 -0.7543 -1.5516 -0.1443
  173MOL0     H23299   6.025   4.731   8.703 -3.2248  0.0133  3.5876
  173MOL0     H23300   6.188   4.823   8.841  1.4189  1.3118 -0.1817
  173MOL0     H23301   6.240   4.814   8.678 -3.3972 -2.2367 -2.0517
  173MOL0     H23302   6.114   5.072   8.757 -0.6718 -0.0736  0.9305
  173MOL0     H23303   6.242   5.038   8.637 -0.2248 -1.6339 -0.1107
  173MOL0     H23304   6.304   5.162   8.860  0.6975 -0.9407  2.8325
  173MOL0     H23305   6.313   5.006   8.931  0.4659 -1.0430 -0.9024
  173MOL0     H23306   6.530   4.848   8.832  1.1543 -0.4401  0.3376
  173MOL0     H23307   6.755   4.807   8.712 -0.6666  0.9359 -0.0293
  173MOL0     H23308   6.743   4.876   8.546  0.6435  1.0538 -0.2820
  173MOL0     H23309   6.974   4.899   8.627  2.3475 -1.6885  2.8759
  173MOL0     H23310   6.916   5.061   8.622  1.7701  1.4311  1.8040
  173MOL0     H23311   6.921   4.873   8.876 -0.4779 -0.7298 -1.9482
  173MOL0     H23312   6.851   5.017   8.885 -1.8114 -2.7588  0.3224
  173MOL0     H23313   7.075   5.062   8.968  1.7890 -0.8655  0.2331
  173MOL0     H23314   7.079   5.125   8.809  3.2606 -0.5189 -1.3633
  173MOL0     H23315   7.267   5.195   8.907 -0.0939  0.3851 -4.4732
  173MOL0     H23316   7.502   5.241   8.944  1.3786 -1.1469  2.5675
  173MOL0     H23317   7.999   5.216   8.763 -0.9169 -0.8138 -0.2064
  173MOL0     H23318   8.242   5.209   8.807 -0.8928  1.4703  0.3379
  173MOL0     H23319   8.446   5.066   8.792 -2.2466  1.3571 -0.3966
  173MOL0     H23320   8.444   5.213   8.891  2.7995 -0.3587 -0.1322
  173MOL0     H23321   8.634   4.978   8.917 -1.5800 -0.1700  0.3059
  173MOL0     H23322   8.663   5.153   8.879 -1.1466  1.9493  1.6132
  173MOL0     H23323   8.595   5.233   9.079 -0.7875 -0.2599 -1.6072
  173MOL0     H23324   8.591   5.058   9.142  0.0346  1.3131  0.8926
  173MOL0     H23325   8.847   5.162   8.999 -1.1433  3.4413 -0.4220
  173MOL0     H23326   8.817   5.033   9.106 -0.5852 -0.1877  5.2592
  173MOL0     H23327   8.747   5.254   9.277  2.2297 -0.8573  3.6676
  173MOL0     H23328   8.893   5.306   9.189  2.6800 -2.3996 -2.4809
  173MOL0     H23329   8.896   5.049   9.337  0.1354 -1.3792 -2.3738
  173MOL0     H23330   9.021   5.115   9.235 -1.5941  0.8103 -2.6322
  173MOL0     H23331   9.019   5.157   9.504 -0.5514 -1.5998 -0.2645
  173MOL0     H23332   8.875   5.259   9.465  1.1786  1.6732  0.9047
  173MOL0     H23333   8.985   5.432   9.364 -0.6135 -1.1004 -1.3594
  173MOL0     H23334   9.064   5.399   9.519 -1.9205  3.2194 -0.3310
  173MOL0     H23335   8.192   4.882   9.074  0.2678  0.4768 -0.0641
  173MOL0     H23336   7.942   4.899   9.033  1.8074  0.1558  1.7095
  173MOL0     H23337   7.617   4.864   8.781 -0.8288 -1.0799  0.2496
  173MOL0     H23338   7.388   4.803   8.763  1.1758  0.4601 -0.5418
  173MOL0     H23339   5.414   4.617   8.384 -0.1707  1.2384 -3.0478
  173MOL0     H23340   5.335   4.438   8.240 -0.8648  0.8211  1.3885
  173MOL0     H23341   5.307   4.277   7.770 -2.6879 -1.5075 -4.4334
  173MOL0     H23342   5.139   4.155   7.668  2.6546 -1.4458 -1.1585
  173MOL0     H23343   5.022   4.010   7.595 -0.0582  1.5061  1.8189
  173MOL0     H23344   4.934   3.852   7.614  0.2488 -0.1489 -1.4493
  173MOL0     H23345   5.236   3.865   7.656  0.6153  0.3956  1.1703
  173MOL0     H23346   5.152   3.878   7.498 -1.4524 -0.2493  0.3835
  173MOL0     H23347   5.181   3.663   7.495  3.0911  0.9000  1.7897
  173MOL0     H23348   5.021   3.662   7.549  0.2258  0.0447  0.9072
  173MOL0     H23349   5.102   3.648   7.802 -0.7339  1.5650 -1.0440
  173MOL0     H23350   5.131   3.512   7.687  1.9868 -0.2492  0.0318
  173MOL0     H23351   5.518   3.655   7.760 -0.4790  0.1527  1.5836
  173MOL0     H23352   5.039   3.964   8.026 -0.0245  0.0082  0.1220
  173MOL0     H23353   5.293   4.021   8.233 -0.8275 -1.4321 -1.9271
  173MOL0     H23354   5.227   4.182   8.240  0.1042 -0.0546  1.2407
  173MOL0     H23355   5.115   4.041   8.237 -0.7472  0.5321 -1.2607
  174MOL0     O23356   1.219   9.517  10.383  0.1896  0.6454  0.0421
  174MOL0     C23357   1.116   9.479  10.335  0.7725  0.1395  0.5400
  174MOL0     O23358   1.097   9.415  10.214  0.6953  0.0479  0.3200
  174MOL0     C23359   1.213   9.379  10.155 -0.2653  0.0438  0.2366
  174MOL0     C23360   1.261   9.250  10.163 -0.5422 -0.5355  0.2766
  174MOL0     C23361   1.383   9.213  10.110 -0.8514  0.2319 -0.7386
  174MOL0     C23362   1.462   9.308  10.041  0.2193  0.1832 -0.6423
  174MOL0     O23363   1.576   9.262   9.978  0.5087  0.1767  0.2647
  174MOL0     C23364   1.678   9.354   9.921  0.1555  0.4932  0.1385
  174MOL0     C23365   1.756   9.434  10.017 -0.0957  0.1021 -0.4919
  174MOL0     C23366   1.866   9.356  10.100  0.7825  0.2412  0.7524
  174MOL0     C23367   2.006   9.347  10.014  0.2207 -0.6101  1.0745
  174MOL0     C23368   2.078   9.475  10.037  0.2698 -0.4079  0.2899
  174MOL0     C23369   2.213   9.461   9.961  0.3085 -0.0957 -0.8056
  174MOL0     C23370   2.282   9.594   9.930 -0.3764 -0.5080 -0.6507
  174MOL0     C23371   2.326   9.664  10.058  0.4550 -0.3380  0.9102
  174MOL0     N23372   2.392   9.790  10.027  0.4133 -1.5192  0.5304
  174MOL0     C23373   2.512   9.819   9.969 -0.7397  0.3832  0.6423
  174MOL0     C23374   2.523   9.953   9.979 -0.5455 -0.1993  0.3946
  174MOL0     C23375   2.635  10.039   9.921  0.2237 -0.2822 -0.0538
  174MOL0     C23376   2.759   9.955   9.870 -1.0880 -0.6448  0.0786
  174MOL0     C23377   2.864  10.028   9.786 -0.0294  1.1536 -0.2628
  174MOL0     C23378   3.004   9.946   9.777  1.0918  0.0437 -0.9608
  174MOL0     O23379   3.081   9.982   9.889 -0.2052 -0.6032  0.1308
  174MOL0     C23380   3.212  10.019   9.872 -0.2688  0.0900 -0.2135
  174MOL0     C23381   3.288   9.990   9.766  0.0706  0.4691 -0.0511
  174MOL0     C23382   3.420  10.033   9.744  0.8806  0.0409  0.5219
  174MOL0     C23383   3.484  10.104   9.855  0.5511 -0.0053  0.2259
  174MOL0     C23384   3.618  10.163   9.835 -0.5803 -0.4904  0.1122
  174MOL0     O23385   3.667  10.226   9.944  0.4903  0.1435  0.4439
  174MOL0     C23386   3.799  10.280   9.950 -0.4260  0.0630  0.0336
  174MOL0     C23387   3.818  10.375  10.051  0.1739  0.2155 -0.2110
  174MOL0     C23388   3.946  10.429  10.083  0.0220  0.1961  0.1060
  174MOL0     C23389   4.055  10.379  10.012  0.0383 -0.0918 -0.2724
  174MOL0     O23390   4.183  10.416  10.042 -0.2150 -0.2508 -0.1534
  174MOL0     C23391   4.218  10.498  10.158 -0.7477  0.3037  1.1359
  174MOL0     C23392   4.371  10.493  10.170  0.4961  1.0418 -0.9236
  174MOL0     C23393   4.419  10.602  10.269 -0.7192  0.2721 -0.3855
  174MOL0     C23394   4.574  10.627  10.239 -0.1046 -0.0417 -0.3751
  174MOL0     C23395   4.632  10.746  10.321  0.6930 -0.7339 -0.4483
  174MOL0     C23396   4.784  10.732  10.319 -0.2338 -0.3429  0.6055
  174MOL0     C23397   4.853  10.836  10.409  0.2925 -0.5850 -1.3270
  174MOL0     C23398   4.913  10.780  10.543 -1.0821 -1.4534 -0.8132
  174MOL0    Cl23399   5.056  10.673  10.510  0.3303 -0.0748 -0.3919
  174MOL0     C23400   4.037  10.289   9.914 -0.4949  0.1576 -0.0730
  174MOL0     C23401   3.913  10.231   9.880 -0.4304  0.1791 -0.3312
  174MOL0     O23402   3.677  10.151   9.727  0.4321 -0.0223  0.7600
  174MOL0     C23403   3.404  10.144   9.966 -0.3899  0.8927 -0.3606
  174MOL0     C23404   3.268  10.105   9.969 -0.0566  0.5180 -0.1311
  174MOL0     N23405   2.406  10.008  10.022  0.2957 -0.0325  0.4498
  174MOL0     N23406   2.329   9.909  10.048 -0.0584  0.4809  0.1733
  174MOL0     C23407   1.411   9.432  10.028 -0.3742 -0.4046 -0.3082
  174MOL0     C23408   1.284   9.466  10.079 -0.8870  0.0280  0.3254
  174MOL0     C23409   0.998   9.510  10.412  0.4694 -0.0819 -0.2367
  174MOL0     C23410   0.869   9.489  10.355  0.7274  0.3884  0.0618
  174MOL0     C23411   0.749   9.524  10.419  0.0781  1.0363 -0.3016
  174MOL0     C23412   0.753   9.574  10.546 -0.4001  0.2535  0.3224
  174MOL0     O23413   0.639   9.608  10.620  0.1010  0.5821  0.1192
  174MOL0     C23414   0.534   9.667  10.550  0.0813 -0.5670 -0.1326
  174MOL0     C23415   0.407   9.583  10.585 -0.0461  0.0684 -0.7576
  174MOL0     C23416   0.372   9.582  10.735 -0.3281 -0.0466 -0.1405
  174MOL0     C23417   0.315   9.712  10.788  0.1313  0.2023 -1.0492
  174MOL0     C23418   0.209   9.754  10.700 -0.1271 -0.1329  0.0976
  174MOL0     C23419   0.119   9.802  10.635 -0.2636 -0.3623 -0.6574
  174MOL0     C23420   0.876   9.579  10.610 -0.0664  0.4723  0.1990
  174MOL0     C23421   1.002   9.559  10.545  0.3099  0.0169  0.1031
  174MOL0     C23422   1.125   9.549  10.633  0.2041 -0.0355  0.7460
  174MOL0     H23423   1.199   9.177  10.213 -3.6493  1.3092 -0.5594
  174MOL0     H23424   1.428   9.114  10.116  2.0210  1.3340 -2.3794
  174MOL0     H23425   1.755   9.292   9.874 -0.2012 -3.7480  4.4046
  174MOL0     H23426   1.630   9.417   9.846 -2.5327 -1.4983  0.0352
  174MOL0     H23427   1.684   9.474  10.088 -0.5860  0.6842 -1.3030
  174MOL0     H23428   1.801   9.519   9.966 -2.0590 -0.0792 -2.6826
  174MOL0     H23429   1.819   9.258  10.110 -2.3328  1.4978 -0.4104
  174MOL0     H23430   1.887   9.393  10.201 -0.4932  0.5758  0.9185
  174MOL0     H23431   2.077   9.265  10.033  1.0148 -1.5158 -4.2832
  174MOL0     H23432   1.970   9.346   9.911  2.2679 -0.4794  0.3091
  174MOL0     H23433   2.023   9.564  10.003 -0.0097 -0.3498  0.8602
  174MOL0     H23434   2.085   9.513  10.140 -2.6488  1.7077 -0.1459
  174MOL0     H23435   2.283   9.398  10.016  1.2299  0.0610 -1.7630
  174MOL0     H23436   2.183   9.421   9.863 -1.5767 -0.2865 -0.2020
  174MOL0     H23437   2.201   9.648   9.880  0.1014 -1.1381 -2.1679
  174MOL0     H23438   2.370   9.595   9.864 -0.0121 -1.5365 -0.2046
  174MOL0     H23439   2.239   9.664  10.125  0.6162 -0.6369  1.1232
  174MOL0     H23440   2.405   9.606  10.108  0.9502 -1.0028 -0.5933
  174MOL0     H23441   2.590   9.752   9.936  1.1291  2.9264 -0.4695
  174MOL0     H23442   2.591  10.097   9.840 -1.4874 -2.1296 -0.5561
  174MOL0     H23443   2.673  10.104  10.000 -0.9305 -0.5023  0.7071
  174MOL0     H23444   2.803   9.888   9.945 -1.4761 -2.2531 -1.0779
  174MOL0     H23445   2.722   9.883   9.796  2.1508 -1.9977 -0.3971
  174MOL0     H23446   2.883  10.124   9.836 -0.7477  1.4989 -0.6413
  174MOL0     H23447   2.824  10.049   9.686  3.1873 -0.5830 -2.0877
  174MOL0     H23448   3.056   9.965   9.683  0.3581 -1.4595 -1.7169
  174MOL0     H23449   2.983   9.839   9.784  0.4772  0.0555 -2.3378
  174MOL0     H23450   3.253   9.939   9.677  1.4479 -2.0206  0.7452
  174MOL0     H23451   3.469  10.018   9.648 -1.8262  1.1607 -1.1616
  174MOL0     H23452   3.725  10.393  10.104  0.7179  0.4406  0.6857
  174MOL0     H23453   3.949  10.507  10.158 -1.6189  2.4990 -2.0228
  174MOL0     H23454   4.175  10.597  10.138 -2.0946 -0.4989 -0.1767
  174MOL0     H23455   4.173  10.459  10.249 -3.5935 -0.1912 -0.3571
  174MOL0     H23456   4.385  10.395  10.217 -1.0532  2.1038  2.0107
  174MOL0     H23457   4.418  10.513  10.074  0.6931  0.1231 -1.0261
  174MOL0     H23458   4.372  10.701  10.263  0.6885  0.9189 -1.3141
  174MOL0     H23459   4.399  10.566  10.370 -0.3963 -0.0061 -0.4197
  174MOL0     H23460   4.589  10.637  10.131  2.4113  2.5250  0.1048
  174MOL0     H23461   4.635  10.537  10.254  0.4904  0.5894  1.1593
  174MOL0     H23462   4.605  10.733  10.426  4.0403  1.5322  0.8645
  174MOL0     H23463   4.589  10.834  10.274 -2.1043 -1.0554  1.2930
  174MOL0     H23464   4.805  10.636  10.367  1.1262 -1.0606 -1.2835
  174MOL0     H23465   4.824  10.713  10.219 -0.9267 -4.0123  0.8989
  174MOL0     H23466   4.781  10.912  10.442  1.8645  1.1281 -1.6810
  174MOL0     H23467   4.930  10.882  10.347 -0.7551  3.0628 -0.1972
  174MOL0     H23468   4.956  10.859  10.605 -1.7597 -2.1533  0.5957
  174MOL0     H23469   4.835  10.727  10.598 -1.0840  1.4899  2.2997
  174MOL0     H23470   4.116  10.245   9.854 -2.4583 -0.7992 -2.1184
  174MOL0     H23471   3.904  10.158   9.800 -0.5396 -0.8188  0.5689
  174MOL0     H23472   3.444  10.206  10.045  0.3249 -0.6771  0.5611
  174MOL0     H23473   3.213  10.138  10.057 -0.3151  1.3987 -0.6121
  174MOL0     H23474   1.464   9.508   9.972 -2.8960  0.1732 -2.0702
  174MOL0     H23475   1.254   9.570  10.071  2.2822  0.9983 -0.3115
  174MOL0     H23476   0.856   9.440  10.259  2.0096 -1.4756  0.7727
  174MOL0     H23477   0.661   9.488  10.366  0.4810  0.0059 -0.2976
  174MOL0     H23478   0.546   9.662  10.441  3.4997  0.9883  0.0329
  174MOL0     H23479   0.525   9.771  10.584 -4.2977 -0.9977  0.6138
  174MOL0     H23480   0.410   9.478  10.556 -1.1649 -1.6618  4.4201
  174MOL0     H23481   0.330   9.638  10.530 -1.2912 -0.7324  0.1269
  174MOL0     H23482   0.464   9.571  10.794  0.9332  1.7875 -1.6357
  174MOL0     H23483   0.296   9.507  10.754 -1.5386  0.1844 -3.3943
  174MOL0     H23484   0.279   9.698  10.890  2.6942 -0.9955 -0.2457
  174MOL0     H23485   0.380   9.800  10.787 -0.6255  0.7760 -2.2843
  174MOL0     H23486   0.036   9.844  10.582 -0.0301 -0.7241 -1.3235
  174MOL0     H23487   0.872   9.597  10.717  2.4739  1.7949  0.1382
  174MOL0     H23488   1.096   9.554  10.739 -0.8622 -0.1304  0.4756
  174MOL0     H23489   1.162   9.448  10.619 -2.1751 -1.1997  2.2465
  174MOL0     H23490   1.203   9.620  10.603 -0.1653  0.0731  0.0208
  175MOL0     O23491   9.769   8.772   5.978  0.2750  0.8189 -0.2863
  175MOL0     C23492   9.803   8.731   6.087  0.6683  0.2702 -0.3964
  175MOL0     O23493   9.923   8.749   6.141 -0.4964  0.3983 -0.0743
  175MOL0     C23494  10.017   8.825   6.076  0.5078 -0.0216 -0.3937
  175MOL0     C23495  10.046   8.948   6.124 -0.6230 -0.7781 -0.3415
  175MOL0     C23496  10.144   9.031   6.058  0.4462  0.0827  0.1265
  175MOL0     C23497  10.215   8.978   5.935  0.1113 -0.7735 -0.3346
  175MOL0     O23498  10.308   9.051   5.874  0.6710 -0.4762 -0.4785
  175MOL0     C23499  10.409   8.997   5.793 -0.6779  0.2060 -0.6527
  175MOL0     C23500  10.544   9.082   5.803  0.0021 -0.5621  0.0740
  175MOL0     C23501  10.665   9.031   5.722 -1.2914 -0.3482  0.1602
  175MOL0     C23502  10.782   9.048   5.819 -0.1153  0.4197  0.5273
  175MOL0     C23503  10.905   9.008   5.737 -0.5602 -0.0583 -1.2811
  175MOL0     C23504  11.023   9.016   5.841 -0.4642  1.3116  0.2295
  175MOL0     C23505  11.160   8.977   5.777 -0.2961 -0.5885 -0.7057
  175MOL0     C23506  11.283   9.025   5.861 -0.2073 -0.0286  0.4451
  175MOL0     N23507  11.290   9.174   5.874  0.1185  0.3422 -0.1146
  175MOL0     C23508  11.334   9.269   5.786 -0.1071  1.3490  0.8301
  175MOL0     C23509  11.311   9.387   5.848  0.4853 -0.1421  0.8437
  175MOL0     C23510  11.341   9.523   5.781 -0.0392  0.4697 -0.5700
  175MOL0     C23511  11.487   9.535   5.742 -0.1888 -0.9106 -0.2640
  175MOL0     C23512  11.519   9.673   5.679  0.9386  0.5783  0.5781
  175MOL0     C23513  11.659   9.667   5.614  0.8926 -0.1864  0.8746
  175MOL0     O23514  11.777   9.638   5.695  0.3173  0.2372 -0.2677
  175MOL0     C23515  11.891   9.644   5.622 -0.3673  0.9240  0.4367
  175MOL0     C23516  12.005   9.595   5.691  0.1777 -0.0184  0.0570
  175MOL0     C23517  12.137   9.610   5.643  0.0665  0.1506 -0.8827
  175MOL0     C23518  12.156   9.656   5.517 -0.1211 -0.1161 -0.7863
  175MOL0     C23519  12.294   9.650   5.452 -0.2019  0.7461  0.8582
  175MOL0     O23520  12.389   9.639   5.543 -0.0306  0.3949  0.0713
  175MOL0     C23521  12.519   9.643   5.512  0.7152  0.0366 -0.0669
  175MOL0     C23522  12.586   9.705   5.405 -0.2156  0.2234 -0.0200
  175MOL0     C23523  12.731   9.684   5.398  0.2090  0.7149 -0.3438
  175MOL0     C23524  12.807   9.611   5.493  0.4269 -0.0273  0.5744
  175MOL0     O23525  12.939   9.596   5.486  0.5761  0.3108 -0.5133
  175MOL0     C23526  13.012   9.661   5.382  0.3299  0.0818 -0.3255
  175MOL0     C23527  13.155   9.649   5.406 -0.3820 -0.0922 -0.6131
  175MOL0     C23528  13.219   9.505   5.412  0.4752 -0.3429  0.0240
  175MOL0     C23529  13.213   9.432   5.278  0.5698 -0.8709 -0.3036
  175MOL0     C23530  13.302   9.313   5.263  0.5826  0.8922  0.6136
  175MOL0     C23531  13.259   9.238   5.139  1.2643 -1.3580  0.2080
  175MOL0     C23532  13.360   9.130   5.098  0.9169 -0.5553  0.3675
  175MOL0     C23533  13.340   9.083   4.954 -0.7184 -0.1391 -0.6100
  175MOL0    Cl23534  13.421   9.203   4.845 -0.1994  0.1963 -0.5464
  175MOL0     C23535  12.732   9.561   5.594  0.7963  0.4274 -0.0333
  175MOL0     C23536  12.591   9.584   5.615  0.4953  1.0366 -1.0696
  175MOL0     O23537  12.296   9.658   5.328 -0.4098 -0.2459 -0.0229
  175MOL0     C23538  12.039   9.701   5.448 -0.5835  0.2887  0.2733
  175MOL0     C23539  11.909   9.710   5.499 -0.0223 -0.9260 -0.2342
  175MOL0     N23540  11.270   9.358   5.978 -0.1926 -0.0505 -0.4820
  175MOL0     N23541  11.250   9.236   5.987 -0.3758 -0.0157 -0.0853
  175MOL0     C23542  10.179   8.847   5.895 -1.1736 -1.0837  0.2720
  175MOL0     C23543  10.083   8.775   5.964 -0.3144  0.6880  0.1681
  175MOL0     C23544   9.678   8.671   6.164 -0.3471 -0.1726 -0.3059
  175MOL0     C23545   9.546   8.662   6.106 -0.0409 -0.8430  0.6217
  175MOL0     C23546   9.431   8.639   6.174 -0.0531 -0.1098 -0.8279
  175MOL0     C23547   9.443   8.585   6.304  0.5506  0.3149 -0.0846
  175MOL0     O23548   9.330   8.554   6.380  0.1933  0.2155  0.9741
  175MOL0     C23549   9.277   8.424   6.343 -1.0713  0.6449 -1.0623
  175MOL0     C23550   9.120   8.424   6.324  0.2038 -0.4976 -0.7798
  175MOL0     C23551   9.072   8.281   6.358  0.0604  0.5616 -0.3887
  175MOL0     C23552   8.919   8.279   6.369 -0.1018  0.3821 -0.4118
  175MOL0     C23553   8.873   8.350   6.491 -0.2646  0.5888  0.6797
  175MOL0     C23554   8.834   8.406   6.590  1.1743  0.1253 -0.7869
  175MOL0     C23555   9.563   8.574   6.355 -0.7781 -0.5833 -0.8547
  175MOL0     C23556   9.683   8.617   6.293 -0.3268  0.1069  0.2454
  175MOL0     C23557   9.808   8.594   6.369 -0.0132  0.6296  0.6138
  175MOL0     H23558   9.993   8.983   6.213  0.4656  1.3798 -0.4499
  175MOL0     H23559  10.170   9.129   6.096  0.0934 -0.1238  0.9178
  175MOL0     H23560  10.444   8.901   5.832 -1.4019  1.7937  4.7225
  175MOL0     H23561  10.376   8.990   5.688  0.2065 -0.1372 -0.9104
  175MOL0     H23562  10.566   9.097   5.909  3.1772 -0.5977 -0.4680
  175MOL0     H23563  10.530   9.184   5.767 -2.6226  0.7636  4.1735
  175MOL0     H23564  10.689   9.093   5.635  3.0647  0.1783  1.4718
  175MOL0     H23565  10.645   8.930   5.686 -2.6020 -0.4675  1.1294
  175MOL0     H23566  10.794   9.147   5.864  5.4708 -0.3633  1.4348
  175MOL0     H23567  10.776   8.966   5.891  0.4209 -1.8725 -1.9010
  175MOL0     H23568  10.912   8.908   5.694  1.8129  1.4410 -4.7737
  175MOL0     H23569  10.915   9.077   5.653 -1.2870  0.9239 -0.5929
  175MOL0     H23570  11.044   9.120   5.867  1.0477  1.2124 -0.5130
  175MOL0     H23571  10.995   8.952   5.925 -2.6648  0.6234 -0.9492
  175MOL0     H23572  11.173   9.021   5.678  0.5711  2.1064  0.4919
  175MOL0     H23573  11.144   8.869   5.770 -4.1133 -0.0353 -4.2027
  175MOL0     H23574  11.267   8.984   5.961  2.8721 -0.2994  0.9295
  175MOL0     H23575  11.375   8.991   5.812  0.5043  2.1560  0.1292
  175MOL0     H23576  11.380   9.261   5.688 -0.2846  0.1428  0.8343
  175MOL0     H23577  11.284   9.530   5.688 -2.1066 -0.1191  0.6036
  175MOL0     H23578  11.320   9.612   5.841  0.5256  2.2338 -2.8382
  175MOL0     H23579  11.545   9.529   5.835  0.0291  1.5238 -0.1920
  175MOL0     H23580  11.511   9.458   5.668 -2.1124  1.7627 -4.0036
  175MOL0     H23581  11.519   9.746   5.761  1.4290 -1.4683  2.4996
  175MOL0     H23582  11.446   9.695   5.601  0.3269 -1.1330  0.6301
  175MOL0     H23583  11.682   9.765   5.570 -0.2666  0.7966  2.3916
  175MOL0     H23584  11.651   9.590   5.537 -0.5160 -1.8279  2.5750
  175MOL0     H23585  11.989   9.553   5.790 -0.8859 -1.2224 -0.5829
  175MOL0     H23586  12.215   9.576   5.710 -0.5729 -0.7697 -0.5789
  175MOL0     H23587  12.530   9.769   5.337 -1.4723  0.2104  0.9731
  175MOL0     H23588  12.777   9.728   5.310 -1.0894  2.4396 -0.2243
  175MOL0     H23589  12.977   9.618   5.288 -0.7968 -1.0797  0.5893
  175MOL0     H23590  12.987   9.767   5.386  1.7191  0.3875  1.6863
  175MOL0     H23591  13.210   9.700   5.327 -0.7499 -1.6965 -1.9661
  175MOL0     H23592  13.164   9.701   5.502 -0.3369  0.4112 -0.8916
  175MOL0     H23593  13.321   9.511   5.450  0.2959 -0.1420  0.4790
  175MOL0     H23594  13.164   9.445   5.486 -1.1894 -0.5638 -1.3252
  175MOL0     H23595  13.241   9.511   5.208  1.1605 -1.8669 -1.2141
  175MOL0     H23596  13.111   9.398   5.255 -0.5569 -0.2499  3.1188
  175MOL0     H23597  13.304   9.238   5.343 -4.4907  0.0398  0.2833
  175MOL0     H23598  13.408   9.339   5.262  0.6909  0.7025  2.7326
  175MOL0     H23599  13.163   9.189   5.160  0.2949  0.8775  1.4176
  175MOL0     H23600  13.239   9.302   5.052  1.9167 -0.4548  0.7074
  175MOL0     H23601  13.365   9.057   5.179 -0.0516  1.5902  2.4754
  175MOL0     H23602  13.456   9.181   5.091  1.3430 -1.5165 -1.5630
  175MOL0     H23603  13.379   8.981   4.954 -2.0329 -0.7060  1.2785
  175MOL0     H23604  13.232   9.080   4.936 -1.8138 -0.5739  4.4129
  175MOL0     H23605  12.796   9.523   5.673 -0.4052  1.4138  1.4936
  175MOL0     H23606  12.540   9.556   5.706  0.1945  1.3635 -1.1345
  175MOL0     H23607  12.040   9.720   5.341  0.3426  0.7368  0.3536
  175MOL0     H23608  11.835   9.759   5.436  0.9682 -0.8800 -1.4091
  175MOL0     H23609  10.224   8.802   5.807 -0.7185  0.8041 -0.5142
  175MOL0     H23610  10.059   8.679   5.918  1.3980 -0.4265  1.4694
  175MOL0     H23611   9.522   8.685   6.002  0.4471  1.6097  0.9758
  175MOL0     H23612   9.332   8.638   6.130  0.1149 -1.2590 -1.2224
  175MOL0     H23613   9.312   8.353   6.419  0.6875  2.2045 -0.3249
  175MOL0     H23614   9.315   8.389   6.247  1.1777 -2.3541  0.7220
  175MOL0     H23615   9.093   8.468   6.228 -0.8295  3.3619  1.0954
  175MOL0     H23616   9.076   8.498   6.391  0.6063  1.9837 -3.1089
  175MOL0     H23617   9.127   8.245   6.445  0.3450  0.7383 -0.4948
  175MOL0     H23618   9.084   8.203   6.283 -2.8577 -0.7229  0.3164
  175MOL0     H23619   8.878   8.322   6.278 -1.4396  1.4121  0.6411
  175MOL0     H23620   8.878   8.179   6.384 -3.0587  1.9032  3.1902
  175MOL0     H23621   8.779   8.454   6.669  0.2820 -3.4368  0.9891
  175MOL0     H23622   9.559   8.545   6.460  0.2417  2.2340  0.0757
  175MOL0     H23623   9.862   8.688   6.384  0.9371  0.2463 -0.3356
  175MOL0     H23624   9.786   8.547   6.466  0.0538 -0.0350  0.3130
  175MOL0     H23625   9.885   8.533   6.323 -0.0247 -0.5251  2.0319
  176MOL0     O23626  11.078   6.946   7.919 -0.1455  0.6507 -0.6002
  176MOL0     C23627  10.982   7.016   7.915 -0.6586  0.0031  1.6334
  176MOL0     O23628  10.981   7.144   7.947  0.2961  0.3708  0.3964
  176MOL0     C23629  11.072   7.209   8.020  0.2683  0.6697 -0.3489
  176MOL0     C23630  11.026   7.330   8.086 -1.0839  0.0514 -0.8405
  176MOL0     C23631  11.096   7.389   8.182 -0.7912 -0.6490 -0.4439
  176MOL0     C23632  11.219   7.344   8.217 -0.1225 -0.7104 -0.7291
  176MOL0     O23633  11.295   7.402   8.320 -1.2153  0.0354  0.4397
  176MOL0     C23634  11.314   7.545   8.316 -0.6200 -0.1813 -0.0588
  176MOL0     C23635  11.470   7.576   8.315 -0.0897  0.5373  0.0356
  176MOL0     C23636  11.522   7.519   8.177  0.2263  0.8934  0.4479
  176MOL0     C23637  11.669   7.553   8.151 -0.1835 -0.0595  0.4060
  176MOL0     C23638  11.693   7.524   8.003  0.9668 -0.0769  0.1778
  176MOL0     C23639  11.837   7.549   7.969 -0.4041 -0.1234 -0.1752
  176MOL0     C23640  11.866   7.543   7.824 -0.1100  0.1474 -0.3137
  176MOL0     C23641  12.017   7.515   7.784  0.5619  0.6097 -0.2553
  176MOL0     N23642  12.119   7.605   7.838 -0.0860 -0.5368 -0.5305
  176MOL0     C23643  12.177   7.718   7.774 -0.0878  0.1911  0.7013
  176MOL0     C23644  12.276   7.765   7.850 -0.1345 -0.6417  0.0977
  176MOL0     C23645  12.350   7.901   7.836 -0.4568  0.9460 -0.4531
  176MOL0     C23646  12.508   7.886   7.842  0.2309  0.2638  0.1103
  176MOL0     C23647  12.585   7.985   7.943 -0.4161 -0.1028 -0.6281
  176MOL0     C23648  12.736   7.986   7.960  0.4024  0.2130  0.1584
  176MOL0     O23649  12.783   7.854   7.920 -0.4386 -0.4894 -0.3721
  176MOL0     C23650  12.919   7.831   7.954 -0.1622 -0.6555 -0.1284
  176MOL0     C23651  13.011   7.933   7.992  0.7060  0.1415 -0.6277
  176MOL0     C23652  13.141   7.903   8.039  0.8634 -0.6966 -0.4364
  176MOL0     C23653  13.184   7.768   8.048 -0.3993 -0.5577 -0.0973
  176MOL0     C23654  13.315   7.737   8.090 -0.1594 -0.3292 -0.0070
  176MOL0     O23655  13.384   7.832   8.159  0.5095 -0.5491  0.3699
  176MOL0     C23656  13.502   7.805   8.222  0.5714 -1.0587  0.3490
  176MOL0     C23657  13.596   7.910   8.225 -0.6722  0.3418 -0.0209
  176MOL0     C23658  13.729   7.882   8.273 -0.7716 -0.3010  0.6199
  176MOL0     C23659  13.761   7.754   8.332  0.9387 -0.1995  0.7184
  176MOL0     O23660  13.888   7.715   8.356 -0.6353 -1.0717  0.3944
  176MOL0     C23661  13.956   7.811   8.439  0.3992  0.6664 -0.5201
  176MOL0     C23662  14.086   7.742   8.474 -0.4344 -0.1171 -0.6670
  176MOL0     C23663  14.173   7.834   8.566  0.5036  0.4306  0.2532
  176MOL0     C23664  14.320   7.779   8.574  0.7367 -0.7152  1.0423
  176MOL0     C23665  14.417   7.870   8.638  0.9420 -0.7141 -0.7117
  176MOL0     C23666  14.549   7.806   8.663  0.5441  0.5738 -0.4423
  176MOL0     C23667  14.656   7.907   8.710  0.0834  0.2378 -0.6694
  176MOL0     C23668  14.801   7.863   8.702  0.8767  0.3001  0.6138
  176MOL0    Cl23669  14.824   7.810   8.532  0.1576  0.0630  0.2036
  176MOL0     C23670  13.661   7.665   8.344  0.0670  0.2028  0.3817
  176MOL0     C23671  13.530   7.695   8.299 -0.0238 -0.1751 -0.2569
  176MOL0     O23672  13.357   7.625   8.059 -0.2590 -0.6063  0.3367
  176MOL0     C23673  13.099   7.668   8.006 -0.6370 -0.1519  0.6990
  176MOL0     C23674  12.973   7.699   7.953  0.2718  0.3822  0.5141
  176MOL0     N23675  12.282   7.676   7.956 -0.1176  0.0853 -0.2073
  176MOL0     N23676  12.188   7.586   7.957 -0.2106  0.2076  0.4567
  176MOL0     C23677  11.275   7.238   8.150  1.1190  0.6630  0.1111
  176MOL0     C23678  11.204   7.169   8.049  0.9818  0.6499 -0.5614
  176MOL0     C23679  10.857   6.952   7.878  1.0801  1.3426 -0.2087
  176MOL0     C23680  10.857   6.812   7.849 -0.4379  0.4650 -0.4144
  176MOL0     C23681  10.748   6.740   7.807 -0.8083  0.3182 -0.1496
  176MOL0     C23682  10.627   6.802   7.780 -0.3793  0.3561  0.4765
  176MOL0     O23683  10.523   6.723   7.744 -0.3760 -0.1934  0.4041
  176MOL0     C23684  10.396   6.788   7.724 -0.1929 -0.0062  0.7323
  176MOL0     C23685  10.282   6.699   7.664 -0.2580  0.3477  0.3939
  176MOL0     C23686  10.254   6.592   7.768 -0.1515  0.1619  0.4531
  176MOL0     C23687  10.149   6.498   7.713 -0.3195  0.5827  0.0309
  176MOL0     C23688  10.076   6.439   7.823  0.1391 -0.4116 -0.8313
  176MOL0     C23689  10.019   6.375   7.907 -0.2459 -0.6358  0.1853
  176MOL0     C23690  10.618   6.943   7.802 -1.0745 -0.3434 -0.5899
  176MOL0     C23691  10.737   7.020   7.842  0.2607  0.6900 -0.2252
  176MOL0     C23692  10.725   7.171   7.839 -0.3608 -0.6958 -0.3740
  176MOL0     H23693  10.928   7.375   8.072 -0.2039  2.6012  0.5146
  176MOL0     H23694  11.045   7.468   8.236 -1.8520 -0.3366 -1.8525
  176MOL0     H23695  11.266   7.576   8.222  0.7865 -1.5880 -1.3043
  176MOL0     H23696  11.264   7.578   8.407  1.4631  0.9418  0.7293
  176MOL0     H23697  11.516   7.529   8.402 -1.3515  3.7957  2.6746
  176MOL0     H23698  11.503   7.679   8.334  1.1925  0.2688 -0.6729
  176MOL0     H23699  11.454   7.555   8.099 -0.1907  0.6705  0.7012
  176MOL0     H23700  11.524   7.410   8.174  5.4151  0.7670 -1.0728
  176MOL0     H23701  11.686   7.659   8.172 -0.4628  0.7171 -2.7765
  176MOL0     H23702  11.734   7.489   8.211 -0.5908 -1.9184 -1.0394
  176MOL0     H23703  11.663   7.420   7.990 -0.1997  0.2933 -0.2165
  176MOL0     H23704  11.618   7.571   7.938  0.5176 -0.5521  0.3454
  176MOL0     H23705  11.868   7.646   8.009 -1.2513  0.7647 -1.6071
  176MOL0     H23706  11.896   7.477   8.027 -0.3112  0.5580  0.5915
  176MOL0     H23707  11.831   7.633   7.772 -2.1156 -0.1030  0.5157
  176MOL0     H23708  11.805   7.462   7.785 -1.6669 -0.2372  2.6671
  176MOL0     H23709  12.039   7.414   7.819  0.0694  0.0161 -1.5743
  176MOL0     H23710  12.025   7.518   7.675  3.4429  0.0033 -0.1430
  176MOL0     H23711  12.150   7.766   7.681 -1.5020  0.1213  1.0408
  176MOL0     H23712  12.311   7.943   7.743 -1.6342 -1.3708 -1.0656
  176MOL0     H23713  12.309   7.959   7.920 -1.5862  1.0733 -1.0781
  176MOL0     H23714  12.542   7.785   7.867  1.9577 -0.0457 -2.9369
  176MOL0     H23715  12.546   7.907   7.741 -4.1352  2.4890 -1.2971
  176MOL0     H23716  12.535   7.970   8.039 -1.4938 -0.1034 -1.1751
  176MOL0     H23717  12.564   8.087   7.909  0.2407  0.3462  0.2806
  176MOL0     H23718  12.778   8.006   8.060  4.9064 -1.1425 -1.2356
  176MOL0     H23719  12.785   8.066   7.905  1.3312 -0.4646 -0.0361
  176MOL0     H23720  12.984   8.038   7.983 -0.6507  0.0452  1.6429
  176MOL0     H23721  13.205   7.984   8.070 -0.1151 -0.5689  1.4136
  176MOL0     H23722  13.576   8.004   8.175  0.6530 -0.3667 -1.9816
  176MOL0     H23723  13.808   7.955   8.255  0.2764 -1.7540 -0.9114
  176MOL0     H23724  13.979   7.904   8.385 -0.6293  1.5515  0.5312
  176MOL0     H23725  13.894   7.841   8.524  1.3454  1.9397 -0.2398
  176MOL0     H23726  14.073   7.645   8.523  1.7416  0.6428  1.5918
  176MOL0     H23727  14.141   7.724   8.381  1.2285 -0.9076  0.4306
  176MOL0     H23728  14.180   7.933   8.520  0.8051 -0.6636 -2.2146
  176MOL0     H23729  14.124   7.847   8.663 -1.2278 -2.7944 -0.0748
  176MOL0     H23730  14.355   7.781   8.470 -1.3958  1.9870  0.2286
  176MOL0     H23731  14.322   7.684   8.628 -1.7601 -0.5629  1.5648
  176MOL0     H23732  14.382   7.911   8.733  0.7795  4.5124 -2.6608
  176MOL0     H23733  14.429   7.950   8.563 -2.2895 -2.2685 -3.1034
  176MOL0     H23734  14.542   7.732   8.744 -0.7186 -1.2557 -2.1122
  176MOL0     H23735  14.564   7.756   8.566 -2.9217 -0.0640 -0.7927
  176MOL0     H23736  14.641   7.934   8.815 -1.6916  4.0558 -1.7366
  176MOL0     H23737  14.652   8.002   8.656  1.1790 -0.5474 -2.2105
  176MOL0     H23738  14.849   7.955   8.735 -2.1035  1.4703  2.0509
  176MOL0     H23739  14.820   7.781   8.772 -2.9906  0.1537  1.7153
  176MOL0     H23740  13.681   7.570   8.392  4.1198  1.0316  0.6976
  176MOL0     H23741  13.448   7.626   8.316 -1.0933  1.5819  2.5440
  176MOL0     H23742  13.135   7.566   8.014  1.4844  0.5111  0.1075
  176MOL0     H23743  12.914   7.615   7.918 -1.2391  1.2224  0.9540
  176MOL0     H23744  11.378   7.210   8.169  0.0891 -2.7730  1.2746
  176MOL0     H23745  11.257   7.092   7.993  2.0373 -0.8164  2.2528
  176MOL0     H23746  10.947   6.756   7.871 -1.0508 -0.2783  0.2569
  176MOL0     H23747  10.762   6.636   7.781  0.6950  0.1822  1.0410
  176MOL0     H23748  10.411   6.872   7.656  2.5975 -0.3755  0.7923
  176MOL0     H23749  10.354   6.827   7.818  1.3208 -0.6969  1.7323
  176MOL0     H23750  10.314   6.644   7.575  2.9456 -0.0815  1.6631
  176MOL0     H23751  10.194   6.756   7.635  0.2155 -0.6833 -3.7082
  176MOL0     H23752  10.219   6.638   7.861 -0.8246 -1.0055  0.8055
  176MOL0     H23753  10.344   6.533   7.787 -0.3876 -1.1257 -2.0226
  176MOL0     H23754  10.083   6.564   7.656  0.8669  4.0789  2.3663
  176MOL0     H23755  10.189   6.420   7.648  1.7354  0.8438  0.9187
  176MOL0     H23756   9.962   6.317   7.978  0.1596 -1.1195  0.1152
  176MOL0     H23757  10.530   7.002   7.779 -0.9217  0.4698  0.8144
  176MOL0     H23758  10.714   7.210   7.940  0.0905 -0.0708 -0.5591
  176MOL0     H23759  10.812   7.219   7.792  0.4713  1.2330  2.7828
  176MOL0     H23760  10.638   7.199   7.779 -0.8104  0.8610  0.9254
  177MOL0     O23761   1.724   4.295   0.430  0.0556 -0.5565  0.0376
  177MOL0     C23762   1.690   4.247   0.540 -1.0982  0.1507  0.9972
  177MOL0     O23763   1.770   4.206   0.638 -0.3581 -0.2043 -0.0284
  177MOL0     C23764   1.910   4.207   0.627 -0.1335  0.5019  0.0060
  177MOL0     C23765   1.983   4.310   0.580 -0.3719  0.0046 -0.2848
  177MOL0     C23766   2.121   4.298   0.553  0.9500  0.1661 -0.0310
  177MOL0     C23767   2.189   4.182   0.589  0.2446 -0.5392 -0.0863
  177MOL0     O23768   2.326   4.181   0.549  0.6626 -0.7027 -0.4158
  177MOL0     C23769   2.391   4.060   0.513  0.0569  0.4570 -0.5562
  177MOL0     C23770   2.534   4.093   0.445 -0.0749 -0.0754 -0.9832
  177MOL0     C23771   2.654   3.996   0.473  0.2375 -0.6929 -0.8980
  177MOL0     C23772   2.768   3.996   0.365 -0.3753  0.5814 -0.6471
  177MOL0     C23773   2.875   3.899   0.422  0.1804  0.0807 -0.6298
  177MOL0     C23774   3.013   3.917   0.365  0.4280  0.5662 -0.1563
  177MOL0     C23775   3.098   3.812   0.431  0.5377  0.7074  0.0974
  177MOL0     C23776   3.244   3.848   0.408 -0.0175  0.2834  0.7423
  177MOL0     N23777   3.336   3.794   0.513  0.5706 -0.6449 -0.3273
  177MOL0     C23778   3.334   3.806   0.650  0.2754  0.0356 -0.1341
  177MOL0     C23779   3.428   3.717   0.692  0.2716  0.2209 -0.2047
  177MOL0     C23780   3.483   3.710   0.831 -0.5202  0.5560  0.6353
  177MOL0     C23781   3.550   3.842   0.877 -0.2941 -0.7137 -0.1785
  177MOL0     C23782   3.444   3.922   0.961 -0.0758 -0.3683  0.0623
  177MOL0     C23783   3.485   4.073   0.944  0.7531  0.3590 -0.4419
  177MOL0     O23784   3.609   4.087   1.012  0.0793  0.5938 -0.0362
  177MOL0     C23785   3.701   4.179   0.973  0.2155  0.2107 -0.4415
  177MOL0     C23786   3.831   4.155   0.994 -0.6172  0.6193 -0.2029
  177MOL0     C23787   3.932   4.243   0.952 -0.2649  0.0529 -0.0197
  177MOL0     C23788   3.901   4.371   0.891 -0.1025 -0.3603  0.1987
  177MOL0     C23789   4.012   4.467   0.844  0.4748  0.2400  0.7083
  177MOL0     O23790   4.000   4.599   0.856  0.3327  0.6469  0.3537
  177MOL0     C23791   4.115   4.671   0.860  1.0448 -0.8870  0.1036
  177MOL0     C23792   4.215   4.662   0.765 -0.2650  0.8357 -0.3843
  177MOL0     C23793   4.322   4.753   0.751 -0.0458 -0.5238  0.5348
  177MOL0     C23794   4.334   4.861   0.840 -0.0715 -0.3805  0.1726
  177MOL0     O23795   4.444   4.937   0.831 -0.3280  0.8647 -0.6814
  177MOL0     C23796   4.468   5.047   0.925 -0.0385  0.4293  0.3795
  177MOL0     C23797   4.604   5.111   0.910 -0.1901  0.6446  0.0064
  177MOL0     C23798   4.735   5.016   0.921 -0.7902  0.4265 -0.2924
  177MOL0     C23799   4.829   5.031   0.798  0.4229  0.8934  0.9631
  177MOL0     C23800   4.962   4.950   0.818 -0.8157 -0.6127 -0.1785
  177MOL0     C23801   5.046   4.976   0.682 -0.2603 -0.0208  0.5770
  177MOL0     C23802   5.174   4.888   0.689 -0.3971  0.1867  0.1797
  177MOL0     C23803   5.285   4.941   0.582  1.0889 -0.0302 -0.6047
  177MOL0    Cl23804   5.412   4.817   0.548  0.0425  0.2514  0.2670
  177MOL0     C23805   4.236   4.865   0.945  0.0558 -0.6101  0.0451
  177MOL0     C23806   4.130   4.771   0.954 -0.0457  0.4801  0.9120
  177MOL0     O23807   4.102   4.410   0.790 -0.0793  0.4682  0.4064
  177MOL0     C23808   3.767   4.407   0.889  0.3934  0.3641  0.1043
  177MOL0     C23809   3.665   4.308   0.937 -0.8366 -1.0208 -0.1494
  177MOL0     N23810   3.477   3.657   0.582  0.0023  0.9210 -0.0936
  177MOL0     N23811   3.432   3.712   0.477 -0.4811 -0.6923 -0.2138
  177MOL0     C23812   2.112   4.080   0.641 -0.5544 -0.4350 -0.0950
  177MOL0     C23813   1.977   4.094   0.661 -0.0230  0.7761 -0.1908
  177MOL0     C23814   1.549   4.198   0.560 -0.6586 -0.1470  0.4054
  177MOL0     C23815   1.518   4.127   0.670 -0.3919 -0.2360 -0.0480
  177MOL0     C23816   1.385   4.088   0.703 -0.6444  0.3603 -1.0770
  177MOL0     C23817   1.284   4.133   0.629  0.2980  0.1853 -0.4533
  177MOL0     O23818   1.157   4.103   0.682 -0.3283 -0.2120  0.0382
  177MOL0     C23819   1.037   4.134   0.606  0.5556  0.2443  0.3235
  177MOL0     C23820   0.922   4.066   0.683  0.1325 -0.2010  0.0142
  177MOL0     C23821   0.798   4.055   0.593 -0.0610  0.2378  0.0627
  177MOL0     C23822   0.667   4.051   0.668  0.2921  0.3448 -0.0884
  177MOL0     C23823   0.652   3.925   0.748 -0.3114  0.5008 -0.9318
  177MOL0     C23824   0.640   3.824   0.821 -0.2462 -0.8907  0.3414
  177MOL0     C23825   1.308   4.215   0.516 -0.0446 -0.2932  0.1592
  177MOL0     C23826   1.441   4.243   0.469  0.2225 -0.4925 -0.0858
  177MOL0     C23827   1.462   4.298   0.328 -0.1318 -0.1770  0.4574
  177MOL0     H23828   1.934   4.401   0.547  0.5620  0.6322  0.0051
  177MOL0     H23829   2.169   4.379   0.500 -0.0604  0.6672 -0.2110
  177MOL0     H23830   2.397   3.994   0.600 -0.8576 -0.9521 -1.5204
  177MOL0     H23831   2.336   4.013   0.431 -0.6173  3.2649 -1.8486
  177MOL0     H23832   2.569   4.190   0.481 -1.7774  0.5278 -0.8669
  177MOL0     H23833   2.521   4.095   0.337 -2.3758  1.2891 -0.7400
  177MOL0     H23834   2.621   3.891   0.479 -0.2493 -0.4727  0.5933
  177MOL0     H23835   2.689   4.031   0.570  0.0263 -0.3786 -0.9319
  177MOL0     H23836   2.733   3.960   0.268  1.6902  0.3623 -1.3535
  177MOL0     H23837   2.806   4.097   0.352 -1.8892  0.9478 -2.6107
  177MOL0     H23838   2.886   3.897   0.530 -2.2062 -2.0797 -0.3291
  177MOL0     H23839   2.848   3.794   0.408  3.7268 -0.9051 -1.0151
  177MOL0     H23840   2.997   3.902   0.258 -2.2743  0.1115  0.2279
  177MOL0     H23841   3.046   4.019   0.386 -0.6098  0.6796  1.0657
  177MOL0     H23842   3.088   3.717   0.379  1.1661  0.4704  0.4013
  177MOL0     H23843   3.072   3.802   0.537 -0.2307 -0.2854 -0.1692
  177MOL0     H23844   3.278   3.802   0.315 -1.0988  1.5416 -0.3198
  177MOL0     H23845   3.273   3.953   0.403 -1.9684  0.8187 -0.4621
  177MOL0     H23846   3.273   3.879   0.703 -0.3610 -0.1052 -0.6623
  177MOL0     H23847   3.395   3.680   0.890 -0.1506  0.3525  1.0879
  177MOL0     H23848   3.565   3.639   0.841 -0.9723 -0.1649 -0.5211
  177MOL0     H23849   3.643   3.827   0.933  0.8951  1.7532 -1.2808
  177MOL0     H23850   3.582   3.887   0.782 -0.7349  0.0023  0.0075
  177MOL0     H23851   3.436   3.889   1.065  1.5635  0.4509  0.4870
  177MOL0     H23852   3.345   3.903   0.920  0.2591 -4.4938  0.7017
  177MOL0     H23853   3.418   4.140   0.999 -1.3047 -0.0034 -2.3653
  177MOL0     H23854   3.484   4.113   0.842  0.4331  1.3633 -0.0623
  177MOL0     H23855   3.856   4.065   1.048 -0.8553  0.3102 -0.6042
  177MOL0     H23856   4.036   4.216   0.973  0.6732  3.3978  0.2056
  177MOL0     H23857   4.212   4.583   0.691 -1.0329 -1.0732  1.5559
  177MOL0     H23858   4.400   4.742   0.677  1.8811 -0.9396  2.5444
  177MOL0     H23859   4.398   5.130   0.909  0.7559  0.5579 -3.3665
  177MOL0     H23860   4.457   4.999   1.023  2.4660 -3.3754 -1.0032
  177MOL0     H23861   4.601   5.151   0.809 -0.7532 -0.9670 -0.6509
  177MOL0     H23862   4.614   5.189   0.985  2.1629 -1.6648  2.3287
  177MOL0     H23863   4.796   5.020   1.012  1.0204  2.5785 -1.5076
  177MOL0     H23864   4.690   4.916   0.917  0.6493 -0.4776  2.7077
  177MOL0     H23865   4.848   5.138   0.785  1.8971  0.7537  1.7687
  177MOL0     H23866   4.786   4.985   0.709  1.1727 -0.9760  1.5258
  177MOL0     H23867   4.956   4.841   0.828  0.3001 -0.6761 -0.0235
  177MOL0     H23868   5.018   4.988   0.904  1.4493 -1.4922 -1.1711
  177MOL0     H23869   4.979   4.953   0.598  1.1617  0.8134 -0.8516
  177MOL0     H23870   5.078   5.080   0.680 -0.8332  0.1491 -0.6692
  177MOL0     H23871   5.159   4.784   0.658  0.1362  0.3933 -0.7975
  177MOL0     H23872   5.211   4.884   0.792  1.4291  1.6121 -0.3709
  177MOL0     H23873   5.240   4.966   0.485  1.4797  1.6143 -0.3854
  177MOL0     H23874   5.338   5.029   0.620 -0.7842  0.4821  0.9806
  177MOL0     H23875   4.245   4.942   1.020  0.2018  0.1864 -0.7681
  177MOL0     H23876   4.057   4.786   1.032 -0.1218  2.3832  0.5176
  177MOL0     H23877   3.737   4.504   0.851 -0.8011 -0.9013 -2.4409
  177MOL0     H23878   3.564   4.347   0.936  0.4751  2.8832  0.4244
  177MOL0     H23879   2.155   3.981   0.654 -0.1744 -0.3047 -0.3445
  177MOL0     H23880   1.924   4.007   0.699  0.2994  1.4605  2.0077
  177MOL0     H23881   1.599   4.090   0.732 -2.1250 -0.8381  1.9714
  177MOL0     H23882   1.371   4.016   0.783  1.9347  1.2762  0.3217
  177MOL0     H23883   1.034   4.085   0.508 -1.7699 -5.3147  2.6863
  177MOL0     H23884   1.026   4.242   0.598  1.4851  0.2844 -0.5478
  177MOL0     H23885   0.886   4.115   0.774  0.9212 -2.2823  1.5295
  177MOL0     H23886   0.953   3.967   0.717  0.8304  0.9330  2.9873
  177MOL0     H23887   0.815   3.965   0.533  1.9073  0.6078  0.0010
  177MOL0     H23888   0.792   4.142   0.527 -0.9568 -0.9104 -1.4303
  177MOL0     H23889   0.657   4.138   0.733  0.3421  1.4211 -1.4653
  177MOL0     H23890   0.582   4.060   0.599 -1.3379 -0.1968  1.7694
  177MOL0     H23891   0.646   3.746   0.894  0.8497 -0.0987  1.1377
  177MOL0     H23892   1.223   4.245   0.456 -0.0775 -0.8570 -0.0887
  177MOL0     H23893   1.487   4.404   0.330 -0.8339  0.0316 -0.8325
  177MOL0     H23894   1.537   4.241   0.273 -2.1115 -0.6303 -1.9576
  177MOL0     H23895   1.368   4.301   0.272  1.3092  0.1628 -2.0657
  178MOL0     O23896   9.936   9.781   8.573  0.1499  0.3524 -0.3543
  178MOL0     C23897   9.970   9.877   8.649 -0.1940  0.0297  0.4151
  178MOL0     O23898  10.092   9.937   8.649 -0.1167  0.4547 -0.0412
  178MOL0     C23899  10.191   9.882   8.586 -0.2314  0.1563  0.2715
  178MOL0     C23900  10.279   9.798   8.653 -0.7785 -0.1762 -0.2756
  178MOL0     C23901  10.369   9.717   8.568  0.7200  0.7167  0.1551
  178MOL0     C23902  10.379   9.735   8.434 -0.3138  0.3119  0.1039
  178MOL0     O23903  10.460   9.655   8.360  0.2277 -0.5676 -0.9149
  178MOL0     C23904  10.576   9.728   8.299  0.3278  0.0950  0.5670
  178MOL0     C23905  10.705   9.651   8.290 -0.6574  0.3971 -0.3710
  178MOL0     C23906  10.779   9.659   8.419 -0.6891 -1.1026  0.5956
  178MOL0     C23907  10.876   9.774   8.410 -0.6998 -0.7917  0.7243
  178MOL0     C23908  10.960   9.781   8.537 -0.0542  0.3490  0.3611
  178MOL0     C23909  11.041   9.907   8.550 -0.3131 -0.4948 -0.3119
  178MOL0     C23910  11.095   9.921   8.698  0.4226 -0.1131  0.2605
  178MOL0     C23911  11.197   9.821   8.733 -0.6417 -0.1064  0.0979
  178MOL0     N23912  11.323   9.825   8.656  0.8974  0.3140 -0.1275
  178MOL0     C23913  11.390   9.942   8.615  0.1577  0.4297 -0.4705
  178MOL0     C23914  11.511   9.890   8.574 -0.2570  0.3070 -0.7435
  178MOL0     C23915  11.611   9.985   8.522  0.2986 -0.2637 -0.6555
  178MOL0     C23916  11.752   9.942   8.542 -0.5937 -0.5692  0.4939
  178MOL0     C23917  11.848  10.056   8.488  0.0428  0.7136 -0.6008
  178MOL0     C23918  11.997  10.028   8.515 -0.0168  0.3227 -0.2906
  178MOL0     O23919  12.077  10.132   8.454  0.4251 -0.3944 -0.2096
  178MOL0     C23920  12.218  10.135   8.474  0.4847 -0.0535 -0.5250
  178MOL0     C23921  12.296  10.189   8.376  0.6158  1.1272  0.7991
  178MOL0     C23922  12.435  10.183   8.392 -0.6593 -0.4071  0.5137
  178MOL0     C23923  12.505  10.122   8.505  0.5454  0.1541  0.3655
  178MOL0     C23924  12.653  10.110   8.509  0.7157  0.0594  0.6633
  178MOL0     O23925  12.734  10.108   8.391  0.3371  0.4395 -0.4602
  178MOL0     C23926  12.871  10.091   8.391  0.0235  0.5578  0.6472
  178MOL0     C23927  12.962  10.075   8.495  0.6982 -0.3667 -0.9078
  178MOL0     C23928  13.100  10.059   8.478  0.8433  0.2431 -0.0140
  178MOL0     C23929  13.154  10.065   8.352 -0.7248  0.3340 -0.5711
  178MOL0     O23930  13.294  10.065   8.332  0.1158  0.9174  0.3064
  178MOL0     C23931  13.377  10.050   8.447  0.5404  0.2247  0.3184
  178MOL0     C23932  13.521  10.029   8.406  0.7776 -0.1492  0.8055
  178MOL0     C23933  13.628  10.088   8.510 -0.8175 -0.2702 -0.2543
  178MOL0     C23934  13.775  10.075   8.466  0.3039  0.6513  0.5323
  178MOL0     C23935  13.874  10.142   8.555 -0.3336 -1.3869 -0.7313
  178MOL0     C23936  14.024  10.132   8.519  0.3025  0.0482  0.1500
  178MOL0     C23937  14.097  10.207   8.628  0.3415  1.0072  0.0209
  178MOL0     C23938  14.238  10.237   8.590  0.1203  0.5412 -0.3946
  178MOL0    Cl23939  14.341  10.095   8.595 -0.0869  0.2181 -0.1205
  178MOL0     C23940  13.071  10.081   8.240  0.0082  0.4280  0.4611
  178MOL0     C23941  12.929  10.088   8.262 -0.4583 -0.0427  0.2769
  178MOL0     O23942  12.694  10.102   8.623 -0.0669  0.1246  0.5181
  178MOL0     C23943  12.419  10.083   8.612 -0.5792 -0.4493 -0.2420
  178MOL0     C23944  12.280  10.082   8.589  0.4056 -0.5918 -0.1153
  178MOL0     N23945  11.517   9.749   8.589 -0.5831 -0.6585  0.4246
  178MOL0     N23946  11.401   9.715   8.641 -0.0738  0.0674  0.6795
  178MOL0     C23947  10.294   9.822   8.367 -0.1466  0.2238 -0.6389
  178MOL0     C23948  10.202   9.897   8.444  0.1015  0.2554  0.3435
  178MOL0     C23949   9.869   9.927   8.733 -0.1857 -0.6038 -0.2973
  178MOL0     C23950   9.734   9.912   8.703 -0.0492  0.1880  0.1041
  178MOL0     C23951   9.623   9.964   8.763  0.4576  0.6567 -0.5186
  178MOL0     C23952   9.644  10.049   8.867 -0.2074 -0.1921 -0.1152
  178MOL0     O23953   9.545  10.112   8.937 -0.4564 -0.2311 -0.0052
  178MOL0     C23954   9.410  10.060   8.939 -0.5475 -0.3072 -0.0545
  178MOL0     C23955   9.328  10.126   8.826  0.7326 -0.2682  0.4203
  178MOL0     C23956   9.191  10.065   8.787  0.5119  0.3116  0.1162
  178MOL0     C23957   9.106  10.024   8.903 -0.0067 -0.2328 -0.2501
  178MOL0     C23958   8.974   9.964   8.861  0.9659 -0.1596 -0.6986
  178MOL0     C23959   8.868   9.905   8.835 -0.0322 -0.8162  0.2052
  178MOL0     C23960   9.779  10.074   8.902  1.1074  0.6406  0.7306
  178MOL0     C23961   9.892  10.016   8.839  0.4394 -0.0208  0.0647
  178MOL0     C23962  10.022  10.081   8.875 -0.1046 -0.0602  0.1030
  178MOL0     H23963  10.263   9.777   8.758  0.8577  2.3402  0.5773
  178MOL0     H23964  10.425   9.638   8.617  0.6206  0.6175  0.1090
  178MOL0     H23965  10.552   9.756   8.196  1.3256  1.0946  0.5810
  178MOL0     H23966  10.596   9.821   8.354  2.4692  0.0651 -0.0757
  178MOL0     H23967  10.773   9.673   8.207 -0.4013 -4.5754 -1.8253
  178MOL0     H23968  10.674   9.547   8.274  2.0302 -0.5941  0.3846
  178MOL0     H23969  10.841   9.569   8.430 -0.5734 -1.0969  0.0382
  178MOL0     H23970  10.700   9.671   8.494 -1.2500  0.3638 -0.1835
  178MOL0     H23971  10.947   9.760   8.327  0.6420  5.1146  0.4222
  178MOL0     H23972  10.830   9.871   8.389  3.0782  1.3778  1.4943
  178MOL0     H23973  10.899   9.773   8.627  1.0220 -3.6162  0.9129
  178MOL0     H23974  11.028   9.696   8.538 -2.2039 -1.4668  0.0555
  178MOL0     H23975  11.125   9.893   8.481  0.1481  2.1517 -0.4177
  178MOL0     H23976  10.991   9.996   8.510 -0.6262  0.3419  1.8297
  178MOL0     H23977  11.017   9.918   8.774  0.4342  1.4030  0.3620
  178MOL0     H23978  11.140  10.021   8.704 -1.9327  1.3643 -3.1922
  178MOL0     H23979  11.223   9.814   8.839  0.8928  0.7719 -0.1931
  178MOL0     H23980  11.151   9.721   8.723  0.9243 -0.8207 -0.2628
  178MOL0     H23981  11.365  10.047   8.621 -0.9484  0.2704 -1.7832
  178MOL0     H23982  11.588  10.012   8.418 -0.5177 -0.9866 -0.6621
  178MOL0     H23983  11.584  10.072   8.583 -0.8026 -0.9771 -0.0956
  178MOL0     H23984  11.774   9.929   8.649 -0.1560 -0.8984  0.3675
  178MOL0     H23985  11.779   9.848   8.493  3.2915  0.4823  0.2971
  178MOL0     H23986  11.824  10.150   8.538  0.5380  0.7560 -0.4451
  178MOL0     H23987  11.828  10.075   8.382 -1.5735 -0.1734 -0.4971
  178MOL0     H23988  12.028   9.929   8.479  1.4582  0.5273  0.3144
  178MOL0     H23989  12.011  10.026   8.624 -0.2169 -2.6446 -0.2280
  178MOL0     H23990  12.258  10.249   8.293 -1.0622 -0.4308  0.3605
  178MOL0     H23991  12.499  10.230   8.317 -3.0443 -0.1650 -1.4949
  178MOL0     H23992  12.921  10.072   8.596  0.5418 -6.4366 -0.7960
  178MOL0     H23993  13.172  10.048   8.559  1.1993 -2.7510 -0.6426
  178MOL0     H23994  13.368  10.132   8.519  1.9665  2.1542 -1.5512
  178MOL0     H23995  13.350   9.955   8.494  0.1806 -0.3594 -1.0203
  178MOL0     H23996  13.533   9.924   8.381 -1.9852  0.2892 -3.2906
  178MOL0     H23997  13.538  10.080   8.311 -0.9364 -1.6277 -0.3582
  178MOL0     H23998  13.604  10.192   8.532 -0.6003 -0.8651  3.2803
  178MOL0     H23999  13.612  10.040   8.607 -2.4028 -0.7177 -0.7005
  178MOL0     H24000  13.792  10.130   8.373 -1.5759  2.2411  1.0708
  178MOL0     H24001  13.791   9.967   8.452 -1.7059  0.4005 -0.1512
  178MOL0     H24002  13.857  10.095   8.653 -2.6384 -0.7610 -0.7650
  178MOL0     H24003  13.840  10.246   8.562 -0.3273 -1.5084  2.8442
  178MOL0     H24004  14.064  10.030   8.524  3.0208  1.1015  1.5410
  178MOL0     H24005  14.049  10.155   8.415  4.0383 -4.3823 -0.2795
  178MOL0     H24006  14.094  10.148   8.720 -2.0249 -1.2191 -1.3564
  178MOL0     H24007  14.038  10.297   8.649 -0.3899  0.5423 -0.0023
  178MOL0     H24008  14.243  10.274   8.488 -2.6599 -0.8711 -1.1304
  178MOL0     H24009  14.289  10.306   8.658 -1.0992  0.8893  0.1872
  178MOL0     H24010  13.109  10.074   8.138 -1.4028  0.7029 -0.1099
  178MOL0     H24011  12.855  10.093   8.184  0.2396  1.6531 -0.3218
  178MOL0     H24012  12.465  10.046   8.703  0.1572  2.4368  0.6726
  178MOL0     H24013  12.218  10.034   8.664 -0.1208 -1.0224 -0.8131
  178MOL0     H24014  10.295   9.828   8.258  1.1958  0.1920 -0.6346
  178MOL0     H24015  10.127   9.967   8.410 -2.8404 -1.6662  2.3635
  178MOL0     H24016   9.720   9.843   8.620 -1.8323 -1.6517  1.8113
  178MOL0     H24017   9.526   9.924   8.733 -0.0318  0.3276  1.3771
  178MOL0     H24018   9.374  10.089   9.039  1.0595  0.9090  0.2012
  178MOL0     H24019   9.413   9.951   8.929  0.9655 -0.1737 -1.3478
  178MOL0     H24020   9.382  10.131   8.731  3.2659  2.3232  1.8147
  178MOL0     H24021   9.312  10.230   8.855  1.2008 -0.4322  1.3090
  178MOL0     H24022   9.205   9.979   8.721 -1.8262  0.4187 -0.6266
  178MOL0     H24023   9.146  10.152   8.739  2.7281  2.3027  1.4408
  178MOL0     H24024   9.162   9.951   8.963  0.5615  2.6160  3.0117
  178MOL0     H24025   9.087  10.112   8.965  0.9550  1.8175 -2.6982
  178MOL0     H24026   8.779   9.844   8.832  0.4891 -1.5538 -0.6840
  178MOL0     H24027   9.798  10.143   8.984 -1.1645 -0.6233  2.4192
  178MOL0     H24028  10.002  10.129   8.971 -0.1766 -1.3695  0.7725
  178MOL0     H24029  10.107  10.014   8.895 -2.2559 -3.0405 -0.0486
  178MOL0     H24030  10.057  10.163   8.812  1.1574  0.2754  1.1814
  179MOL0     O24031   1.774   8.137   2.900 -0.1077  0.7484  0.0667
  179MOL0     C24032   1.734   8.092   2.789 -0.2045 -0.8922  0.1840
  179MOL0     O24033   1.791   8.118   2.672 -0.5145  0.5157 -0.1078
  179MOL0     C24034   1.918   8.179   2.675 -0.4383 -0.3788 -0.1780
  179MOL0     C24035   1.950   8.293   2.601  0.6598  0.7794  0.5165
  179MOL0     C24036   2.081   8.339   2.591 -0.3424  0.2947  0.0026
  179MOL0     C24037   2.185   8.285   2.672 -0.1674  0.6684 -0.3257
  179MOL0     O24038   2.306   8.358   2.675 -0.2485 -0.0518 -0.5713
  179MOL0     C24039   2.399   8.319   2.776  0.1618 -0.8360 -0.3889
  179MOL0     C24040   2.487   8.440   2.812 -0.7709 -0.5313 -0.3700
  179MOL0     C24041   2.542   8.519   2.687 -0.0875  1.2412  0.0528
  179MOL0     C24042   2.644   8.638   2.705  0.0004  0.2170  0.0474
  179MOL0     C24043   2.684   8.686   2.571  0.2180 -0.5065 -0.3718
  179MOL0     C24044   2.801   8.787   2.577 -0.3091  0.2470 -0.9251
  179MOL0     C24045   2.826   8.843   2.438 -0.3946  0.1808 -0.2477
  179MOL0     C24046   2.962   8.910   2.409  0.6583  0.7075  0.6056
  179MOL0     N24047   2.977   9.038   2.469 -1.0516  0.0478 -0.5659
  179MOL0     C24048   3.016   9.143   2.395  0.0283  0.0205 -0.0371
  179MOL0     C24049   2.993   9.248   2.484 -0.5011  1.3977  0.5972
  179MOL0     C24050   3.021   9.390   2.444  0.3978  0.5757  0.0313
  179MOL0     C24051   3.167   9.401   2.408 -0.7117  0.2126 -0.7677
  179MOL0     C24052   3.276   9.368   2.524  1.4557  1.1027 -0.2234
  179MOL0     C24053   3.416   9.364   2.470 -0.5383 -0.2118  0.2343
  179MOL0     O24054   3.434   9.245   2.395 -0.3188  0.3603  0.4415
  179MOL0     C24055   3.568   9.203   2.380  0.3567 -0.9800  0.1268
  179MOL0     C24056   3.591   9.070   2.341  0.9398 -0.5761  0.6439
  179MOL0     C24057   3.707   9.026   2.284  0.1154 -0.8281  0.5578
  179MOL0     C24058   3.812   9.122   2.264 -0.1904 -0.5681 -0.2230
  179MOL0     C24059   3.946   9.081   2.205  0.5314 -0.7367 -0.8442
  179MOL0     O24060   3.990   8.954   2.213 -0.4183  0.4273 -0.7327
  179MOL0     C24061   4.114   8.905   2.166 -0.5433 -0.4005  0.0893
  179MOL0     C24062   4.184   8.953   2.054  0.5399 -0.2390 -0.0456
  179MOL0     C24063   4.307   8.891   2.012 -0.8112  0.3657  1.0306
  179MOL0     C24064   4.350   8.780   2.079  0.0224  0.2968 -0.0997
  179MOL0     O24065   4.469   8.722   2.044 -0.0342 -0.3470 -0.2301
  179MOL0     C24066   4.582   8.806   2.059  0.4790 -0.8419 -1.1424
  179MOL0     C24067   4.700   8.743   1.986  0.2720 -1.1689  0.6910
  179MOL0     C24068   4.825   8.830   2.004  0.8465  1.5545 -0.0135
  179MOL0     C24069   4.939   8.749   1.944 -0.4377  0.0669  0.0276
  179MOL0     C24070   5.074   8.820   1.992 -0.7124  0.0192  0.2244
  179MOL0     C24071   5.190   8.777   1.914 -0.1493 -0.0607 -0.0719
  179MOL0     C24072   5.308   8.855   1.957 -0.1328  0.7662 -0.8962
  179MOL0     C24073   5.431   8.836   1.863  0.1307  0.2627 -0.3356
  179MOL0    Cl24074   5.473   8.661   1.880  0.5337 -0.3387  0.1987
  179MOL0     C24075   4.280   8.734   2.190  0.6327 -0.1444 -0.2507
  179MOL0     C24076   4.162   8.793   2.234 -0.4069 -0.7463  0.5538
  179MOL0     O24077   4.006   9.169   2.139 -0.2630 -0.4310 -0.0976
  179MOL0     C24078   3.791   9.262   2.301 -0.2294  0.8963 -0.2428
  179MOL0     C24079   3.673   9.297   2.365  0.0247 -0.0038 -0.2377
  179MOL0     N24080   2.955   9.199   2.604 -1.0503 -0.0838 -0.3835
  179MOL0     N24081   2.945   9.071   2.601  0.4010 -0.3609  0.1194
  179MOL0     C24082   2.151   8.169   2.745 -0.8397  0.5873 -0.3447
  179MOL0     C24083   2.022   8.116   2.752 -0.6505 -0.8478 -1.0003
  179MOL0     C24084   1.612   8.009   2.792 -0.5188  0.6717 -0.1236
  179MOL0     C24085   1.505   8.051   2.873 -0.4695  0.0512  0.0015
  179MOL0     C24086   1.385   7.982   2.865  0.7103  0.7133  0.2771
  179MOL0     C24087   1.366   7.874   2.777  0.3603 -0.0996 -1.0049
  179MOL0     O24088   1.234   7.821   2.753  0.3258 -0.9485 -0.3967
  179MOL0     C24089   1.117   7.866   2.830 -0.4411 -1.0746  0.7361
  179MOL0     C24090   1.012   7.766   2.806 -0.3472  0.0078  0.1914
  179MOL0     C24091   0.974   7.749   2.659 -0.0561 -0.5346  0.1821
  179MOL0     C24092   0.832   7.701   2.653  0.4351 -0.3428  0.7125
  179MOL0     C24093   0.813   7.560   2.707 -0.4282  0.0129 -0.3443
  179MOL0     C24094   0.789   7.442   2.718 -0.3956  0.2184 -0.2471
  179MOL0     C24095   1.472   7.822   2.705 -0.0374 -0.4684 -0.1528
  179MOL0     C24096   1.597   7.888   2.717 -0.9741 -0.7013  0.1280
  179MOL0     C24097   1.715   7.836   2.635  0.0220  1.1592 -1.5323
  179MOL0     H24098   1.869   8.321   2.534  0.7184  2.0969  0.9564
  179MOL0     H24099   2.106   8.435   2.546 -3.1125  1.4511  0.7116
  179MOL0     H24100   2.349   8.293   2.870  0.8663  0.3030  0.3225
  179MOL0     H24101   2.456   8.237   2.732  0.6177 -0.2814 -0.8568
  179MOL0     H24102   2.562   8.409   2.885 -1.9078  0.2630  1.2067
  179MOL0     H24103   2.425   8.518   2.858  0.7386  0.6703 -0.3063
  179MOL0     H24104   2.456   8.534   2.621 -0.8518 -2.6983 -0.0908
  179MOL0     H24105   2.598   8.450   2.624 -0.5782  0.7489  0.1444
  179MOL0     H24106   2.594   8.718   2.760 -3.1141 -2.0130  0.7616
  179MOL0     H24107   2.730   8.607   2.765  2.1396  2.6379 -1.5415
  179MOL0     H24108   2.721   8.603   2.510  0.5200 -0.5875 -0.0842
  179MOL0     H24109   2.599   8.726   2.515  0.6305  0.0572 -0.5963
  179MOL0     H24110   2.779   8.869   2.646  1.3981  0.7963 -0.9709
  179MOL0     H24111   2.885   8.726   2.610 -0.5551  1.2728  1.8195
  179MOL0     H24112   2.750   8.919   2.422 -1.4679 -0.8971 -0.3844
  179MOL0     H24113   2.819   8.757   2.372  0.1829 -0.6022  0.6718
  179MOL0     H24114   3.045   8.849   2.445 -0.7838 -0.0660  2.8191
  179MOL0     H24115   2.972   8.910   2.300 -1.4336 -1.9158  0.2977
  179MOL0     H24116   3.024   9.166   2.289 -1.0716 -0.0280 -0.1402
  179MOL0     H24117   2.950   9.430   2.371 -0.6026 -3.3437 -1.4420
  179MOL0     H24118   3.002   9.442   2.539 -2.8660 -4.6625  2.7394
  179MOL0     H24119   3.194   9.353   2.314 -1.7525  0.6694 -1.3175
  179MOL0     H24120   3.172   9.507   2.382 -2.0784  0.2635 -0.8976
  179MOL0     H24121   3.253   9.269   2.563  0.0320  1.1273 -0.9141
  179MOL0     H24122   3.270   9.429   2.614  0.1102 -0.9933  1.1985
  179MOL0     H24123   3.487   9.367   2.553 -0.2368  1.2811 -0.0364
  179MOL0     H24124   3.431   9.458   2.415 -2.5559  1.6465  2.6193
  179MOL0     H24125   3.505   9.004   2.346  0.4270 -0.5830 -4.0604
  179MOL0     H24126   3.733   8.926   2.252  0.8787  0.4703 -3.3720
  179MOL0     H24127   4.132   9.029   1.996 -2.7686 -0.8743  1.8469
  179MOL0     H24128   4.352   8.935   1.923 -0.5640  1.0017  1.4711
  179MOL0     H24129   4.562   8.908   2.024 -2.6885 -1.2943 -0.9890
  179MOL0     H24130   4.588   8.804   2.168 -3.5951  0.5235 -0.7019
  179MOL0     H24131   4.724   8.647   2.034  1.3881 -2.2385 -1.8180
  179MOL0     H24132   4.690   8.724   1.879 -0.4127 -3.0825  1.0551
  179MOL0     H24133   4.806   8.923   1.949 -0.9309 -0.9743 -4.1649
  179MOL0     H24134   4.844   8.843   2.111  1.7879 -1.3220  0.2341
  179MOL0     H24135   4.933   8.752   1.835 -1.5159 -0.4215  0.0668
  179MOL0     H24136   4.935   8.645   1.976 -3.6260 -0.4320 -1.5717
  179MOL0     H24137   5.096   8.815   2.099 -1.2571  1.1582  0.4032
  179MOL0     H24138   5.061   8.928   1.992  0.0340  0.1344  1.6761
  179MOL0     H24139   5.205   8.670   1.929 -0.9049 -0.0860  0.5387
  179MOL0     H24140   5.180   8.795   1.807  3.8868 -0.4220 -0.6696
  179MOL0     H24141   5.333   8.827   2.060 -1.5512 -0.0582 -0.7445
  179MOL0     H24142   5.281   8.961   1.961  1.1518  1.1423 -1.6578
  179MOL0     H24143   5.408   8.856   1.758  1.0390  2.0555 -0.2147
  179MOL0     H24144   5.520   8.896   1.879  1.3489 -2.4326  5.2778
  179MOL0     H24145   4.316   8.649   2.246  0.2799 -0.4764 -0.5207
  179MOL0     H24146   4.115   8.757   2.324  0.8134 -0.7746  1.2039
  179MOL0     H24147   3.863   9.341   2.283  0.9015  0.3796  1.6471
  179MOL0     H24148   3.663   9.406   2.363  0.5881  0.0573  0.2074
  179MOL0     H24149   2.229   8.125   2.806 -2.4800 -0.8047  0.8567
  179MOL0     H24150   2.003   8.028   2.812  2.6460  0.5904  2.6042
  179MOL0     H24151   1.512   8.130   2.947  2.1989  1.3691 -1.5143
  179MOL0     H24152   1.308   8.013   2.935  0.9063 -0.1617  0.8956
  179MOL0     H24153   1.097   7.962   2.784 -1.8745 -1.8341 -0.2888
  179MOL0     H24154   1.127   7.886   2.937  0.2751  0.6065  0.3835
  179MOL0     H24155   0.927   7.798   2.867  1.2306 -0.3941  2.7052
  179MOL0     H24156   1.027   7.670   2.855 -4.1900  0.6947  3.2353
  179MOL0     H24157   1.040   7.680   2.606 -0.9343  0.0401 -1.7232
  179MOL0     H24158   0.982   7.845   2.608 -0.3668 -0.1992  0.7426
  179MOL0     H24159   0.763   7.768   2.703  0.6456 -0.3854  1.0618
  179MOL0     H24160   0.791   7.701   2.551 -0.5580  0.0645  1.1092
  179MOL0     H24161   0.765   7.338   2.711  0.1207 -0.2453  3.3884
  179MOL0     H24162   1.453   7.728   2.655  2.0683 -1.1835  0.3131
  179MOL0     H24163   1.705   7.728   2.619 -1.0039  1.0841 -0.5068
  179MOL0     H24164   1.721   7.886   2.538  2.8417  0.5335 -1.7614
  179MOL0     H24165   1.812   7.837   2.685 -1.0916 -2.0783  1.0460
  180MOL0     O24166   2.186   9.760   7.556 -0.4914 -0.3168 -0.4596
  180MOL0     C24167   2.178   9.863   7.490  0.3525 -0.1994 -0.7406
  180MOL0     O24168   2.284   9.919   7.417 -0.0036 -0.1427  0.1040
  180MOL0     C24169   2.402   9.871   7.438 -0.2995 -0.6372 -0.3531
  180MOL0     C24170   2.456   9.873   7.565 -0.2436  0.0091  0.1612
  180MOL0     C24171   2.590   9.828   7.574  1.1286  0.6728 -0.0745
  180MOL0     C24172   2.664   9.793   7.468  0.1873  0.3805 -0.1926
  180MOL0     O24173   2.792   9.747   7.479  0.3001  1.1431  0.2323
  180MOL0     C24174   2.801   9.604   7.467 -1.1081 -0.2758 -0.0589
  180MOL0     C24175   2.946   9.557   7.478  0.1931  1.0483 -0.2832
  180MOL0     C24176   3.050   9.630   7.386 -0.3018  0.1984 -0.4288
  180MOL0     C24177   3.187   9.564   7.408 -0.2600  0.8714  0.0741
  180MOL0     C24178   3.290   9.621   7.315  0.6321 -0.5296 -1.0711
  180MOL0     C24179   3.433   9.595   7.379  0.6080 -0.0420 -0.2747
  180MOL0     C24180   3.535   9.679   7.300 -0.2680 -0.3070 -0.0318
  180MOL0     C24181   3.675   9.643   7.352  0.0084  0.2574  0.7011
  180MOL0     N24182   3.780   9.737   7.297 -0.3230  0.0728  0.0951
  180MOL0     C24183   3.859   9.808   7.382  2.2825  1.2516  0.1074
  180MOL0     C24184   3.955   9.859   7.299  0.2160 -0.2701 -0.2846
  180MOL0     C24185   4.061   9.955   7.344 -0.0048  0.3294  0.4523
  180MOL0     C24186   4.002  10.094   7.366  0.1645 -0.0323  0.4667
  180MOL0     C24187   4.106  10.192   7.415  0.2583 -0.0635 -0.3417
  180MOL0     C24188   4.226  10.216   7.315  0.1466 -0.4599  0.8563
  180MOL0     O24189   4.344  10.165   7.380 -1.2746  0.1621  0.2746
  180MOL0     C24190   4.461  10.236   7.366  0.1064  0.4064  0.8817
  180MOL0     C24191   4.564  10.193   7.442  0.2272  0.4710 -0.2925
  180MOL0     C24192   4.689  10.246   7.436  0.2459 -0.4611 -0.3028
  180MOL0     C24193   4.716  10.352   7.346 -0.4844  1.0326  0.3383
  180MOL0     C24194   4.850  10.405   7.330 -0.3233 -0.8550 -0.6224
  180MOL0     O24195   4.943  10.363   7.425 -0.5225  0.3411 -0.6035
  180MOL0     C24196   5.069  10.414   7.451 -0.5111  0.4851  0.1493
  180MOL0     C24197   5.135  10.358   7.560  0.0075  0.1418  0.1112
  180MOL0     C24198   5.260  10.410   7.597 -0.4394 -0.3651  0.0017
  180MOL0     C24199   5.310  10.524   7.538 -1.0008 -0.4810  0.7211
  180MOL0     O24200   5.428  10.577   7.588  0.2473  0.2747  0.5720
  180MOL0     C24201   5.437  10.712   7.540 -0.2484 -0.2880 -0.0518
  180MOL0     C24202   5.535  10.789   7.619  1.1308 -0.1639  1.4220
  180MOL0     C24203   5.674  10.724   7.615  0.4492  0.0116  0.5431
  180MOL0     C24204   5.789  10.803   7.683 -0.2472  1.3161 -0.1264
  180MOL0     C24205   5.903  10.708   7.713 -1.0864  1.1959 -1.1308
  180MOL0     C24206   5.988  10.680   7.586 -0.2297  0.0671 -0.3787
  180MOL0     C24207   6.107  10.584   7.618 -0.4854  0.7711  0.0259
  180MOL0     C24208   6.218  10.576   7.510  0.5642 -0.1007 -0.5552
  180MOL0    Cl24209   6.151  10.494   7.356 -0.3157 -0.3948 -0.3038
  180MOL0     C24210   5.242  10.568   7.413 -0.3032 -0.2135 -0.3889
  180MOL0     C24211   5.117  10.527   7.381  0.0441 -0.3251 -0.1143
  180MOL0     O24212   4.872  10.491   7.243 -0.4933 -0.6082  0.1238
  180MOL0     C24213   4.609  10.402   7.267  0.3136 -0.7423 -0.3375
  180MOL0     C24214   4.488  10.334   7.262 -0.0112 -0.4912 -0.8430
  180MOL0     N24215   3.926   9.827   7.172  0.2665  0.2426  0.5729
  180MOL0     N24216   3.824   9.752   7.171  0.6022 -0.1394 -0.1188
  180MOL0     C24217   2.608   9.797   7.338  0.0786  0.6610 -0.5159
  180MOL0     C24218   2.477   9.832   7.322 -0.3369  0.3393 -0.2188
  180MOL0     C24219   2.047   9.935   7.469 -0.0265 -0.4185  0.0298
  180MOL0     C24220   2.046  10.036   7.371  0.3007 -0.0828 -0.2347
  180MOL0     C24221   1.924  10.104   7.336  1.1372 -0.5645  0.0559
  180MOL0     C24222   1.800  10.077   7.399  0.1851  0.3091 -1.1754
  180MOL0     O24223   1.687  10.151   7.386  0.4791  0.2526 -0.7111
  180MOL0     C24224   1.622  10.127   7.263  1.2491  0.1495 -0.1292
  180MOL0     C24225   1.528  10.003   7.272  0.1329 -1.1603  0.5908
  180MOL0     C24226   1.396  10.032   7.344  0.1804  0.6982  0.0962
  180MOL0     C24227   1.398  10.059   7.491 -0.4017 -0.6699  0.3190
  180MOL0     C24228   1.407   9.937   7.562 -0.8603  0.3288 -1.0473
  180MOL0     C24229   1.397   9.832   7.622 -0.0360  0.2094 -0.5238
  180MOL0     C24230   1.809   9.984   7.498  0.7091 -0.3717 -0.1061
  180MOL0     C24231   1.925   9.906   7.529  0.3973  0.2906  0.7538
  180MOL0     C24232   1.912   9.802   7.636 -0.2639 -0.2274  0.4244
  180MOL0     H24233   2.399   9.899   7.654  2.5787 -0.7668  2.3662
  180MOL0     H24234   2.634   9.828   7.673 -0.4710  1.3836  0.6791
  180MOL0     H24235   2.746   9.560   7.551  0.2672 -1.7868  0.0992
  180MOL0     H24236   2.759   9.568   7.373 -1.7819  1.3514 -0.4090
  180MOL0     H24237   2.953   9.448   7.472 -0.4450  1.0524 -1.3413
  180MOL0     H24238   2.974   9.596   7.576 -0.3599  1.8004 -0.4116
  180MOL0     H24239   3.047   9.734   7.419  1.9147  0.3686 -0.5972
  180MOL0     H24240   3.023   9.610   7.282 -0.3186 -2.5059  0.0015
  180MOL0     H24241   3.204   9.578   7.516 -1.2588  3.1087 -0.0040
  180MOL0     H24242   3.182   9.456   7.390 -2.3695 -0.0415  4.6489
  180MOL0     H24243   3.277   9.571   7.218 -1.0980 -1.2664 -0.4987
  180MOL0     H24244   3.273   9.728   7.299 -0.3501 -0.9161 -3.0827
  180MOL0     H24245   3.443   9.627   7.484  1.3567  0.9722 -0.6336
  180MOL0     H24246   3.451   9.489   7.361  1.5884 -0.0973  0.8776
  180MOL0     H24247   3.506   9.785   7.303  5.2161  1.5528 -1.2590
  180MOL0     H24248   3.534   9.667   7.192 -2.3941  1.1981 -0.2513
  180MOL0     H24249   3.676   9.642   7.461 -3.2651 -2.3339  0.9038
  180MOL0     H24250   3.697   9.540   7.320  0.6612  0.1065  1.6133
  180MOL0     H24251   3.853   9.809   7.491  0.5870  0.7157  0.0552
  180MOL0     H24252   4.113   9.934   7.438  0.8154  1.0043  0.1645
  180MOL0     H24253   4.136   9.950   7.265 -0.9916  0.3023 -0.5028
  180MOL0     H24254   3.954  10.126   7.273  0.8335  0.2960  0.2276
  180MOL0     H24255   3.928  10.087   7.447  2.3617  2.3946  2.8783
  180MOL0     H24256   4.145  10.152   7.509  0.2441  1.3804  0.2956
  180MOL0     H24257   4.050  10.284   7.431  0.3214  0.4059 -2.4535
  180MOL0     H24258   4.225  10.322   7.290 -0.2706  0.1866  3.4353
  180MOL0     H24259   4.198  10.158   7.226 -3.3568  0.4927  1.2204
  180MOL0     H24260   4.544  10.121   7.521 -0.3449 -0.1962 -1.0328
  180MOL0     H24261   4.772  10.204   7.492  2.8357  2.0944 -1.9192
  180MOL0     H24262   5.098  10.269   7.610  0.4802 -0.1314 -0.0227
  180MOL0     H24263   5.317  10.370   7.680  0.7966 -0.8921 -1.0737
  180MOL0     H24264   5.463  10.720   7.434 -2.3000 -2.2740 -0.7742
  180MOL0     H24265   5.342  10.765   7.553 -1.7479 -3.2331  2.1069
  180MOL0     H24266   5.542  10.890   7.578  1.5741 -1.1010 -0.9609
  180MOL0     H24267   5.479  10.790   7.714 -2.3556  1.6881 -0.4310
  180MOL0     H24268   5.671  10.624   7.659 -0.8570 -1.3088 -2.2643
  180MOL0     H24269   5.701  10.696   7.513  3.0190 -2.2871  1.7250
  180MOL0     H24270   5.751  10.844   7.777 -0.2035  0.3665  0.3159
  180MOL0     H24271   5.826  10.888   7.627  1.4840  0.3900 -0.4536
  180MOL0     H24272   5.877  10.611   7.757  1.9117  0.5296 -0.5628
  180MOL0     H24273   5.967  10.760   7.785 -0.2439 -1.5283  0.2521
  180MOL0     H24274   5.925  10.633   7.509  0.1315  1.3578 -1.4944
  180MOL0     H24275   6.031  10.775   7.552  1.2149 -0.6667 -0.6469
  180MOL0     H24276   6.076  10.479   7.623 -0.1194  0.5701 -1.5460
  180MOL0     H24277   6.155  10.616   7.711  1.6102  3.8779 -1.9369
  180MOL0     H24278   6.249  10.680   7.495 -0.3273  0.7866  2.9258
  180MOL0     H24279   6.299  10.515   7.549 -0.1964 -1.2202 -0.6679
  180MOL0     H24280   5.284  10.640   7.344 -0.7448 -1.0467 -1.5540
  180MOL0     H24281   5.076  10.581   7.295  2.4599  0.8331 -0.6199
  180MOL0     H24282   4.610  10.484   7.197 -3.2941 -0.4810 -0.2811
  180MOL0     H24283   4.411  10.355   7.188 -0.9546 -3.0904 -0.7072
  180MOL0     H24284   2.675   9.764   7.259 -0.3305 -1.2523 -0.1020
  180MOL0     H24285   2.441   9.845   7.220 -0.1450 -1.6090 -0.5726
  180MOL0     H24286   2.137  10.079   7.331  0.7215 -0.0993  0.6805
  180MOL0     H24287   1.929  10.188   7.268  0.7378 -1.9612 -1.7898
  180MOL0     H24288   1.692  10.103   7.182  0.3238  2.3212 -1.6433
  180MOL0     H24289   1.574  10.223   7.243  0.4518 -0.3186 -0.5076
  180MOL0     H24290   1.576   9.917   7.319  1.3137 -0.3695  0.8735
  180MOL0     H24291   1.514   9.972   7.168 -0.6745 -1.0038  0.6495
  180MOL0     H24292   1.332   9.951   7.310  0.7709  1.2206 -2.4631
  180MOL0     H24293   1.352  10.118   7.294  0.1674  1.9499  2.1270
  180MOL0     H24294   1.478  10.130   7.513 -0.5135  0.2314 -1.9238
  180MOL0     H24295   1.310  10.118   7.519 -1.0889 -0.4192 -2.1255
  180MOL0     H24296   1.415   9.757   7.697  3.0049 -0.8150 -2.0790
  180MOL0     H24297   1.719   9.965   7.557  0.0949  0.0808 -0.8794
  180MOL0     H24298   1.904   9.703   7.591 -1.2394 -0.5284  1.2299
  180MOL0     H24299   1.990   9.809   7.711  0.6054  2.4141 -0.5986
  180MOL0     H24300   1.815   9.814   7.685 -0.2144  0.9904  0.2540
  181MOL0     O24301   0.056   3.482   5.120  0.0037 -0.3183  0.4479
  181MOL0     C24302   0.004   3.596   5.094 -0.6676  0.2981 -0.3388
  181MOL0     O24303   0.065   3.698   5.024 -0.4568  0.5257  0.1192
  181MOL0     C24304   0.195   3.679   4.981  0.4757 -0.4633 -0.4796
  181MOL0     C24305   0.212   3.681   4.846 -0.5973 -0.6996  0.0616
  181MOL0     C24306   0.348   3.659   4.800 -0.2858  0.0851  0.6795
  181MOL0     C24307   0.453   3.652   4.886 -0.3363  0.5301  0.0357
  181MOL0     O24308   0.577   3.632   4.831 -0.1762 -0.3898  0.9060
  181MOL0     C24309   0.627   3.725   4.736 -0.3058 -0.6436 -0.0884
  181MOL0     C24310   0.704   3.828   4.822  0.6366 -0.2824  0.4981
  181MOL0     C24311   0.818   3.903   4.756  0.1704  0.9880 -0.9274
  181MOL0     C24312   0.952   3.828   4.750 -0.5152  0.0775 -0.9746
  181MOL0     C24313   0.997   3.766   4.883  0.3266 -0.1068  0.8897
  181MOL0     C24314   1.054   3.882   4.976  0.1810  0.3128  0.5091
  181MOL0     C24315   1.187   3.952   4.943  0.3963 -0.1084  0.3729
  181MOL0     C24316   1.307   3.863   4.973 -0.6144 -0.5884  1.3361
  181MOL0     N24317   1.349   3.764   4.868 -0.2910 -0.0805  0.3359
  181MOL0     C24318   1.368   3.636   4.893 -0.9260 -0.4914 -0.9413
  181MOL0     C24319   1.402   3.584   4.778 -1.0846  0.0916  0.0182
  181MOL0     C24320   1.419   3.442   4.739 -1.4780  0.2668 -0.8981
  181MOL0     C24321   1.563   3.406   4.790 -1.0632 -0.3730  0.0577
  181MOL0     C24322   1.674   3.490   4.719 -0.5425 -0.9021 -0.3943
  181MOL0     C24323   1.818   3.465   4.784 -0.6245 -0.3045  0.5711
  181MOL0     O24324   1.903   3.572   4.730  0.5823  0.5917  0.8426
  181MOL0     C24325   2.035   3.535   4.719  0.6387  0.5970 -0.2030
  181MOL0     C24326   2.074   3.436   4.634  0.0992  0.6820 -0.5482
  181MOL0     C24327   2.210   3.395   4.626  0.2028 -0.5337  0.5538
  181MOL0     C24328   2.301   3.452   4.715 -0.9519 -0.2672  0.4740
  181MOL0     C24329   2.445   3.401   4.727 -0.9674  0.2833 -0.6345
  181MOL0     O24330   2.492   3.334   4.616 -0.1419  0.1210 -0.0625
  181MOL0     C24331   2.616   3.285   4.618 -0.6382 -0.2917  0.1612
  181MOL0     C24332   2.641   3.155   4.655 -0.5793 -0.7089 -0.1908
  181MOL0     C24333   2.771   3.099   4.661  0.9424 -0.7890 -0.2508
  181MOL0     C24334   2.882   3.177   4.622 -0.0609 -1.0259  0.8210
  181MOL0     O24335   2.996   3.110   4.638  0.1127 -0.2584  0.0212
  181MOL0     C24336   3.098   3.151   4.544 -0.0184  0.0351 -0.2364
  181MOL0     C24337   3.221   3.075   4.583 -0.5174 -0.6830 -0.9624
  181MOL0     C24338   3.337   3.146   4.520  0.1219  0.3316  0.3909
  181MOL0     C24339   3.473   3.072   4.542  0.5011 -0.2437  0.5079
  181MOL0     C24340   3.590   3.140   4.458 -0.3564 -0.1151 -0.3200
  181MOL0     C24341   3.718   3.069   4.509  0.8080 -0.0637  0.2675
  181MOL0     C24342   3.827   3.129   4.421 -0.4944 -1.1184 -0.4592
  181MOL0     C24343   3.956   3.053   4.437  0.1028  0.6232 -0.1370
  181MOL0    Cl24344   4.076   3.142   4.355  0.3062 -0.0266 -0.0679
  181MOL0     C24345   2.860   3.314   4.582  0.0757 -0.4608  0.2974
  181MOL0     C24346   2.728   3.365   4.596  1.1177 -0.6903  0.2690
  181MOL0     O24347   2.513   3.432   4.827  0.2643  0.0452  0.3938
  181MOL0     C24348   2.262   3.552   4.798 -0.8304 -0.7645 -0.8664
  181MOL0     C24349   2.130   3.602   4.799  0.0560 -0.7477  0.2887
  181MOL0     N24350   1.430   3.688   4.685 -0.0209  0.9094 -0.2135
  181MOL0     N24351   1.390   3.797   4.743  0.4507  0.2294 -0.0944
  181MOL0     C24352   0.428   3.641   5.023  0.1258  0.0877 -0.8433
  181MOL0     C24353   0.301   3.659   5.064 -0.5332 -0.0357 -0.7476
  181MOL0     C24354  -0.139   3.620   5.134 -0.5173 -0.3541 -0.7739
  181MOL0     C24355  -0.200   3.732   5.075  0.1523 -0.5944 -1.3616
  181MOL0     C24356  -0.328   3.778   5.120  0.3993 -0.0607  0.5022
  181MOL0     C24357  -0.393   3.708   5.226  0.2067  0.0160 -0.0715
  181MOL0     O24358  -0.514   3.740   5.275  0.0379  0.4706  0.7637
  181MOL0     C24359  -0.626   3.717   5.186 -0.1039  0.6596 -0.7957
  181MOL0     C24360  -0.754   3.726   5.264  0.5849 -0.1000 -0.2993
  181MOL0     C24361  -0.765   3.598   5.353 -0.0113 -1.0640  0.3034
  181MOL0     C24362  -0.870   3.610   5.454  0.1436 -0.0928  0.2225
  181MOL0     C24363  -0.839   3.515   5.562 -0.4556  0.1721 -0.6531
  181MOL0     C24364  -0.822   3.444   5.665  0.4929 -0.8849 -0.3579
  181MOL0     C24365  -0.322   3.601   5.283  0.0350 -0.7159  0.4208
  181MOL0     C24366  -0.194   3.562   5.250 -0.5350  0.5008 -0.1273
  181MOL0     C24367  -0.127   3.465   5.340 -0.9762  0.5083 -1.0072
  181MOL0     H24368   0.127   3.682   4.779 -1.1670 -1.3072  0.7627
  181MOL0     H24369   0.355   3.664   4.692 -0.8955  1.3218  0.6734
  181MOL0     H24370   0.700   3.676   4.671  1.4936  1.3270  0.3223
  181MOL0     H24371   0.553   3.771   4.671  0.0416 -0.8859 -0.6576
  181MOL0     H24372   0.728   3.780   4.918 -2.3319 -1.4533  0.7707
  181MOL0     H24373   0.634   3.911   4.838  0.2044  0.1297 -2.8322
  181MOL0     H24374   0.829   3.997   4.810 -1.8374  0.8197 -0.1585
  181MOL0     H24375   0.798   3.920   4.650 -0.4311  0.2052 -0.9484
  181MOL0     H24376   0.949   3.745   4.678 -0.5211 -1.2388  0.4885
  181MOL0     H24377   1.036   3.894   4.730 -2.0625  2.6063  0.4100
  181MOL0     H24378   0.921   3.712   4.941 -1.0897 -0.2098 -0.9789
  181MOL0     H24379   1.080   3.697   4.862  0.2590 -0.0839  0.5506
  181MOL0     H24380   0.980   3.963   4.968  1.8081  1.7119 -1.5956
  181MOL0     H24381   1.058   3.855   5.082 -2.7673  0.3991  0.7210
  181MOL0     H24382   1.201   4.040   5.005  0.2861  2.1259 -2.5259
  181MOL0     H24383   1.183   3.982   4.838 -1.3503 -0.4739  0.3058
  181MOL0     H24384   1.399   3.920   4.992  1.1113 -1.1576 -3.8326
  181MOL0     H24385   1.277   3.809   5.064 -2.6085  0.2292  1.2081
  181MOL0     H24386   1.354   3.582   4.986 -0.0038 -0.7373 -0.9370
  181MOL0     H24387   1.349   3.367   4.779 -0.5773 -0.7958 -1.2515
  181MOL0     H24388   1.405   3.431   4.631 -0.9483 -3.1150 -0.7313
  181MOL0     H24389   1.550   3.420   4.898  1.9102 -1.2182  0.6048
  181MOL0     H24390   1.588   3.301   4.772  0.8611  0.0248  0.1682
  181MOL0     H24391   1.656   3.598   4.717 -5.1275 -1.4538 -0.7652
  181MOL0     H24392   1.675   3.455   4.615 -0.3375 -1.6375 -0.1557
  181MOL0     H24393   1.851   3.363   4.760  1.9326  0.2586  1.3594
  181MOL0     H24394   1.814   3.468   4.893 -2.1942 -0.0273  0.5259
  181MOL0     H24395   2.001   3.383   4.574 -0.3280 -1.9617  2.0385
  181MOL0     H24396   2.244   3.318   4.557 -2.1010 -1.9095  0.8407
  181MOL0     H24397   2.558   3.096   4.694  0.6282 -1.9073  0.6173
  181MOL0     H24398   2.778   2.994   4.686 -0.4900 -0.8858 -0.2072
  181MOL0     H24399   3.058   3.126   4.445  2.5908  3.8183 -2.4731
  181MOL0     H24400   3.120   3.257   4.558  1.7314 -0.5476  1.9493
  181MOL0     H24401   3.246   3.082   4.689 -0.8551  1.9742 -0.9998
  181MOL0     H24402   3.210   2.969   4.557  2.4946 -1.7526  1.4353
  181MOL0     H24403   3.319   3.160   4.413  0.5678  0.8359  0.3773
  181MOL0     H24404   3.350   3.245   4.565 -3.1781  1.9164 -1.7206
  181MOL0     H24405   3.455   2.971   4.504 -1.8460  0.0431  0.7426
  181MOL0     H24406   3.490   3.069   4.650 -1.8068 -0.6617  0.8974
  181MOL0     H24407   3.602   3.246   4.479  0.4785 -0.5198  1.4352
  181MOL0     H24408   3.564   3.134   4.352  0.2144  1.1481 -0.5503
  181MOL0     H24409   3.737   3.081   4.616 -1.3110 -0.2187  0.7046
  181MOL0     H24410   3.699   2.963   4.492 -1.1619  0.1408  0.8697
  181MOL0     H24411   3.828   3.237   4.435 -1.9718 -0.9584 -1.3988
  181MOL0     H24412   3.791   3.123   4.318 -3.6285  2.1378  0.2510
  181MOL0     H24413   3.971   3.049   4.546  0.4463  0.3517 -0.1927
  181MOL0     H24414   3.945   2.953   4.394 -1.6487  0.6336  0.1840
  181MOL0     H24415   2.935   3.390   4.564 -0.8032  0.3277 -0.1177
  181MOL0     H24416   2.703   3.469   4.575 -2.1813 -1.6848 -1.5217
  181MOL0     H24417   2.319   3.604   4.875 -4.0940  1.1704  0.4780
  181MOL0     H24418   2.092   3.668   4.876  0.8475  0.9766 -0.7352
  181MOL0     H24419   0.517   3.634   5.086  1.6179  2.8514 -2.4427
  181MOL0     H24420   0.310   3.667   5.172  5.9390 -0.9712 -0.8144
  181MOL0     H24421  -0.156   3.788   4.994  0.1350 -0.2118 -1.1088
  181MOL0     H24422  -0.371   3.872   5.087 -0.0061 -0.2206  0.5702
  181MOL0     H24423  -0.622   3.618   5.139 -1.2036 -0.0873  0.6009
  181MOL0     H24424  -0.621   3.795   5.109 -0.3354 -1.5438 -3.1870
  181MOL0     H24425  -0.829   3.724   5.184 -0.3691  1.5695  0.5007
  181MOL0     H24426  -0.770   3.824   5.310  1.7365  0.6011 -1.3077
  181MOL0     H24427  -0.668   3.591   5.404  0.4041  0.4629 -0.1935
  181MOL0     H24428  -0.774   3.507   5.293 -0.0694 -0.6983 -0.2543
  181MOL0     H24429  -0.875   3.710   5.498 -1.5555  0.0894 -0.3131
  181MOL0     H24430  -0.970   3.580   5.420  0.6172 -0.9049 -0.4898
  181MOL0     H24431  -0.824   3.381   5.751  0.8143  0.6265  0.7938
  181MOL0     H24432  -0.378   3.551   5.361 -2.0084  0.3021 -0.2982
  181MOL0     H24433  -0.129   3.363   5.298  2.8659  0.6521 -1.9160
  181MOL0     H24434  -0.023   3.493   5.359  0.3896 -3.4654 -1.5212
  181MOL0     H24435  -0.176   3.454   5.437  0.0882 -2.0875 -0.6543
  182MOL0     O24436   0.401  10.213   4.798 -0.4123  0.3892 -0.2953
  182MOL0     C24437   0.332  10.176   4.704  0.0876  0.9733  0.1966
  182MOL0     O24438   0.380  10.161   4.575  0.7680  0.2252 -0.1984
  182MOL0     C24439   0.514  10.176   4.571  0.9731  0.2236 -0.0586
  182MOL0     C24440   0.558  10.307   4.564  0.1723 -0.5006 -0.5936
  182MOL0     C24441   0.694  10.336   4.549 -0.1908  0.3940  0.4869
  182MOL0     C24442   0.790  10.225   4.555  0.0329 -0.4194  0.1852
  182MOL0     O24443   0.929  10.234   4.534 -0.3778  0.0951 -0.3672
  182MOL0     C24444   0.984  10.341   4.616 -0.8236  0.2388 -0.1580
  182MOL0     C24445   1.056  10.431   4.521 -0.4506  0.4282  0.3167
  182MOL0     C24446   1.169  10.526   4.567 -0.2550  0.0201 -0.3558
  182MOL0     C24447   1.272  10.561   4.457  0.1779 -0.1010  0.0887
  182MOL0     C24448   1.388  10.654   4.507  0.6505 -0.0213  0.2498
  182MOL0     C24449   1.517  10.618   4.437 -0.7825 -0.1756 -0.2386
  182MOL0     C24450   1.638  10.714   4.476  0.1549  0.6188  0.3344
  182MOL0     C24451   1.611  10.856   4.423 -0.6448 -0.1689  0.2547
  182MOL0     N24452   1.751  10.912   4.410  0.0912 -0.2104 -0.4815
  182MOL0     C24453   1.827  10.964   4.508 -0.1570  1.2825 -0.6574
  182MOL0     C24454   1.935  11.017   4.444 -0.6337  0.3391 -0.6926
  182MOL0     C24455   2.065  11.062   4.498  1.0392 -0.0773 -0.0480
  182MOL0     C24456   2.056  11.202   4.561 -0.5784 -0.6432  0.3027
  182MOL0     C24457   2.194  11.238   4.625  0.2531 -0.0926  0.4949
  182MOL0     C24458   2.162  11.354   4.725  0.4944 -0.0532 -0.3448
  182MOL0     O24459   2.276  11.424   4.773  0.2229 -0.5941  0.5214
  182MOL0     C24460   2.376  11.368   4.849  0.6377  0.1523 -0.3523
  182MOL0     C24461   2.368  11.248   4.908 -0.5050 -0.0424 -0.5870
  182MOL0     C24462   2.483  11.192   4.971  0.2701  0.8399 -0.5805
  182MOL0     C24463   2.603  11.258   4.983  0.0361  0.2820 -0.9880
  182MOL0     C24464   2.727  11.195   5.034  0.1059 -0.3131  0.0745
  182MOL0     O24465   2.732  11.060   5.035 -0.9192  0.5818  0.1462
  182MOL0     C24466   2.846  11.004   5.087  0.2559 -0.9346 -0.0309
  182MOL0     C24467   2.829  10.932   5.203 -0.1005 -1.1034  0.4625
  182MOL0     C24468   2.933  10.861   5.258  0.5916  0.3946 -0.0512
  182MOL0     C24469   3.058  10.863   5.207  0.0766 -0.1308  0.4948
  182MOL0     O24470   3.174  10.806   5.246 -0.4825 -0.0787 -0.0565
  182MOL0     C24471   3.151  10.709   5.343 -0.2781 -0.1449 -0.2888
  182MOL0     C24472   3.286  10.654   5.376 -0.2877  0.5814 -0.3664
  182MOL0     C24473   3.335  10.528   5.308 -0.0077  0.2607  0.2536
  182MOL0     C24474   3.484  10.493   5.329  0.7273  0.0877  0.4538
  182MOL0     C24475   3.524  10.351   5.279 -0.7863  0.1738 -0.0220
  182MOL0     C24476   3.664  10.333   5.321 -0.5676 -0.2573  0.5793
  182MOL0     C24477   3.705  10.188   5.291 -0.2302  0.2617  0.2356
  182MOL0     C24478   3.854  10.172   5.310  0.8302 -0.1579 -0.0229
  182MOL0    Cl24479   3.911  10.007   5.256 -0.1341 -0.4535  0.3155
  182MOL0     C24480   3.079  10.939   5.090  0.2616 -0.0032 -0.6882
  182MOL0     C24481   2.974  11.005   5.033  1.0353 -0.0785 -0.1545
  182MOL0     O24482   2.816  11.267   5.084  0.2498  0.2989 -0.7663
  182MOL0     C24483   2.600  11.389   4.937 -0.3264  0.3665  0.0548
  182MOL0     C24484   2.493  11.445   4.871 -0.7154  0.2187  1.0063
  182MOL0     N24485   1.910  11.002   4.309  0.5214 -0.0951 -0.1560
  182MOL0     N24486   1.799  10.934   4.284 -1.0221 -0.2366 -1.0388
  182MOL0     C24487   0.742  10.094   4.568 -0.8875 -0.5610  0.2173
  182MOL0     C24488   0.606  10.069   4.571 -0.4873 -0.3864  0.9245
  182MOL0     C24489   0.189  10.140   4.734 -0.3503 -0.2305 -1.0064
  182MOL0     C24490   0.162  10.074   4.858 -0.3519 -1.2095  0.2539
  182MOL0     C24491   0.041  10.017   4.881 -0.0141  0.2292 -0.7680
  182MOL0     C24492  -0.063  10.035   4.795 -0.3411 -0.3787 -0.0229
  182MOL0     O24493  -0.175   9.972   4.844  0.2065  0.0674  0.0406
  182MOL0     C24494  -0.296  10.039   4.797  0.0862  0.5282  0.0396
  182MOL0     C24495  -0.356   9.961   4.682  0.1968 -0.3936  0.7925
  182MOL0     C24496  -0.499  10.025   4.643  0.0423  0.4373  0.8743
  182MOL0     C24497  -0.557   9.986   4.500 -0.1791  0.0573 -0.1659
  182MOL0     C24498  -0.558   9.837   4.492  0.5580 -0.6116  0.6062
  182MOL0     C24499  -0.554   9.720   4.461 -0.7112  0.4582  0.9517
  182MOL0     C24500  -0.037  10.096   4.665  0.5375 -0.4319 -0.1750
  182MOL0     C24501   0.088  10.144   4.634  0.3571 -0.6497 -0.5009
  182MOL0     C24502   0.121  10.210   4.505  0.3820  0.9277  0.6903
  182MOL0     H24503   0.489  10.391   4.560 -0.4026 -0.8992  0.5199
  182MOL0     H24504   0.720  10.441   4.548  3.3128 -0.2895  2.8437
  182MOL0     H24505   0.910  10.390   4.680 -1.0804 -1.0644  0.5802
  182MOL0     H24506   1.061  10.299   4.682 -0.1225  0.3210 -0.9109
  182MOL0     H24507   0.986  10.492   4.465  0.2471  0.2917 -0.7230
  182MOL0     H24508   1.106  10.366   4.449  0.2188  1.1646  0.1080
  182MOL0     H24509   1.230  10.479   4.645 -0.6876  2.2290  1.4318
  182MOL0     H24510   1.124  10.618   4.605 -1.0393 -0.9423  1.1416
  182MOL0     H24511   1.323  10.468   4.430 -2.4894 -1.3878 -0.8902
  182MOL0     H24512   1.222  10.616   4.377 -0.1012 -1.4287 -0.6852
  182MOL0     H24513   1.367  10.759   4.485  1.3167  0.1442  0.3636
  182MOL0     H24514   1.400  10.646   4.616 -2.6991 -1.1822  0.6325
  182MOL0     H24515   1.554  10.519   4.464  1.8057  0.9312  0.6413
  182MOL0     H24516   1.503  10.629   4.330  0.0082 -2.4533 -0.6219
  182MOL0     H24517   1.730  10.680   4.429  0.2375  2.0872 -0.6368
  182MOL0     H24518   1.645  10.724   4.585  0.9082  2.2053  0.1701
  182MOL0     H24519   1.562  10.854   4.325  1.2339  2.2997 -0.8600
  182MOL0     H24520   1.554  10.918   4.493 -0.2331 -0.2292  0.6468
  182MOL0     H24521   1.824  10.969   4.616  1.9973  0.2299 -0.4852
  182MOL0     H24522   2.098  10.995   4.577 -1.6324  0.7013  1.8684
  182MOL0     H24523   2.131  11.060   4.410  0.0366  0.0071 -0.8190
  182MOL0     H24524   2.042  11.280   4.486  1.0642  2.0244  2.5552
  182MOL0     H24525   1.978  11.209   4.638  2.4026 -0.6403  3.6131
  182MOL0     H24526   2.260  11.280   4.549 -0.3468 -0.9388 -0.5187
  182MOL0     H24527   2.238  11.149   4.672  0.6204 -1.1514 -1.7499
  182MOL0     H24528   2.111  11.311   4.812  0.4037 -1.1792 -0.9222
  182MOL0     H24529   2.104  11.424   4.665 -2.3945 -0.7956  1.3835
  182MOL0     H24530   2.280  11.185   4.907 -0.1488 -0.5440 -0.3741
  182MOL0     H24531   2.475  11.088   4.999  2.8462  0.7521  0.0052
  182MOL0     H24532   2.734  10.930   5.255  0.4309 -1.0349  1.4552
  182MOL0     H24533   2.907  10.802   5.346  0.6070 -0.7667 -0.7965
  182MOL0     H24534   3.115  10.758   5.434 -0.0631 -0.4351 -0.0492
  182MOL0     H24535   3.076  10.633   5.320 -1.8283  0.3291  2.6986
  182MOL0     H24536   3.366  10.725   5.354  0.0721 -0.1219 -1.4316
  182MOL0     H24537   3.295  10.625   5.481  3.2146 -1.3729 -1.0561
  182MOL0     H24538   3.277  10.439   5.331 -1.1233  1.1293  0.9001
  182MOL0     H24539   3.339  10.545   5.200  4.9145  1.6686  0.4100
  182MOL0     H24540   3.512  10.491   5.435  0.9970 -1.2067  0.3759
  182MOL0     H24541   3.541  10.578   5.291  1.9360  0.1794  2.3072
  182MOL0     H24542   3.516  10.356   5.170 -1.7258  1.1964  0.0663
  182MOL0     H24543   3.455  10.274   5.316 -1.2926  0.1676 -0.9669
  182MOL0     H24544   3.718  10.409   5.264  0.6488 -2.0304 -0.7387
  182MOL0     H24545   3.684  10.352   5.426 -1.2810  2.2857  0.3371
  182MOL0     H24546   3.689  10.163   5.185  1.3249  0.2075 -0.0079
  182MOL0     H24547   3.646  10.112   5.344  1.9217 -0.4910  1.6593
  182MOL0     H24548   3.897  10.261   5.263 -2.3414  1.7356  0.3424
  182MOL0     H24549   3.884  10.193   5.413  1.9354 -0.1815 -0.3233
  182MOL0     H24550   3.177  10.958   5.049  0.2316 -0.6241 -1.0720
  182MOL0     H24551   2.989  11.057   4.940 -0.0902  2.1914  0.8615
  182MOL0     H24552   2.700  11.430   4.945  0.7955 -2.3465  1.2680
  182MOL0     H24553   2.493  11.549   4.840 -1.4995 -0.3494 -1.0949
  182MOL0     H24554   0.809  10.009   4.553 -0.5845 -0.1467 -0.8446
  182MOL0     H24555   0.575   9.965   4.573  2.8447 -1.4983  2.2943
  182MOL0     H24556   0.228  10.051   4.942 -3.3113  2.5728  4.0656
  182MOL0     H24557   0.016   9.960   4.970 -2.0234  0.2662 -1.2616
  182MOL0     H24558  -0.282  10.146   4.781  1.2304  0.2486 -1.0011
  182MOL0     H24559  -0.364  10.036   4.883  0.6746  1.4850  0.5634
  182MOL0     H24560  -0.377   9.860   4.716 -2.5146 -0.8210 -1.6859
  182MOL0     H24561  -0.301   9.968   4.587 -1.4044 -1.4665 -0.2644
  182MOL0     H24562  -0.509  10.134   4.644  1.3227  0.5962 -0.6635
  182MOL0     H24563  -0.568   9.992   4.721 -0.8374 -3.1135 -1.1704
  182MOL0     H24564  -0.659  10.022   4.489 -0.1460 -0.1519 -1.2915
  182MOL0     H24565  -0.499  10.037   4.422  1.0179  0.4853  0.9780
  182MOL0     H24566  -0.543   9.619   4.427 -1.4415  0.6357  0.1570
  182MOL0     H24567  -0.119  10.113   4.596  1.4637 -2.0378 -1.7456
  182MOL0     H24568   0.027  10.232   4.453  1.9097  1.2653 -2.0567
  182MOL0     H24569   0.175  10.305   4.511  0.5026  0.9608 -0.7898
  182MOL0     H24570   0.177  10.148   4.435 -0.5144  0.7671  0.0911
  183MOL0     O24571   9.039   4.158   1.924 -0.0235 -0.0204 -0.6402
  183MOL0     C24572   9.037   4.270   1.984 -0.2405 -0.5258 -0.4468
  183MOL0     O24573   9.143   4.337   2.034 -0.1143  0.5644 -0.1318
  183MOL0     C24574   9.271   4.280   2.052  0.1989 -0.5276 -0.2247
  183MOL0     C24575   9.317   4.179   1.963 -0.3113  0.3080 -0.3191
  183MOL0     C24576   9.452   4.127   1.966 -0.2415  0.4251  0.1937
  183MOL0     C24577   9.538   4.189   2.063  1.3070  0.4305  0.2815
  183MOL0     O24578   9.660   4.127   2.087  0.2404  0.5255  0.6026
  183MOL0     C24579   9.776   4.202   2.110 -0.5662 -0.2912 -0.1854
  183MOL0     C24580   9.893   4.126   2.053  0.5514  0.7029  0.0982
  183MOL0     C24581  10.031   4.191   2.076 -0.4662  0.3288  0.7052
  183MOL0     C24582  10.144   4.103   2.039  0.4571  0.8902 -0.5403
  183MOL0     C24583  10.279   4.141   2.088 -0.3759  0.1419  0.5463
  183MOL0     C24584  10.384   4.033   2.063 -1.2060  0.0137 -0.4496
  183MOL0     C24585  10.528   4.067   2.110 -0.5763  0.4371  0.5179
  183MOL0     C24586  10.615   3.939   2.093 -0.1634  1.1660 -0.5003
  183MOL0     N24587  10.754   3.977   2.135 -0.3869  0.2422  0.3126
  183MOL0     C24588  10.854   3.913   2.069  0.0908  0.7061  0.1745
  183MOL0     C24589  10.969   3.926   2.148 -0.2891  0.5110  0.5353
  183MOL0     C24590  11.113   3.876   2.123 -0.5555  0.8059  0.2544
  183MOL0     C24591  11.177   3.929   1.996  0.1273 -0.7943 -0.2119
  183MOL0     C24592  11.236   4.068   2.025  0.9822  0.8487  0.1102
  183MOL0     C24593  11.379   4.074   2.077  0.1950 -0.4882 -0.4645
  183MOL0     O24594  11.471   4.035   1.980 -0.3897 -0.2547 -0.0650
  183MOL0     C24595  11.600   4.063   2.024  0.3119 -0.6413  0.6113
  183MOL0     C24596  11.643   4.110   2.151 -0.1064 -0.3653 -0.2099
  183MOL0     C24597  11.779   4.120   2.184  0.5879 -0.2499 -0.5942
  183MOL0     C24598  11.868   4.088   2.088 -0.0233 -0.2085  0.3270
  183MOL0     C24599  12.015   4.110   2.106  0.0014  0.1882 -0.3179
  183MOL0     O24600  12.089   4.103   2.002  0.2401  0.2254  0.1070
  183MOL0     C24601  12.227   4.137   1.994 -0.5114  0.5422  0.1094
  183MOL0     C24602  12.285   4.189   1.880  0.2627 -0.0192  0.3156
  183MOL0     C24603  12.417   4.220   1.868 -0.0854  0.2208 -1.0849
  183MOL0     C24604  12.501   4.203   1.980 -1.0970  0.1207 -0.1526
  183MOL0     O24605  12.638   4.227   1.975  0.1497 -0.2991  0.2565
  183MOL0     C24606  12.721   4.118   1.994 -0.2277  0.2963 -0.1155
  183MOL0     C24607  12.864   4.156   1.964  0.1424  0.4765  0.7552
  183MOL0     C24608  12.940   4.231   2.075 -0.3601 -0.7207  0.3563
  183MOL0     C24609  13.086   4.264   2.038 -0.0879 -0.4198  0.0167
  183MOL0     C24610  13.142   4.369   2.138  0.2577  0.0129 -0.6839
  183MOL0     C24611  13.298   4.402   2.122  0.1946  0.3592 -0.3298
  183MOL0     C24612  13.319   4.528   2.202  0.4431 -0.2141  0.8262
  183MOL0     C24613  13.455   4.590   2.203 -0.6791  0.1787 -0.4679
  183MOL0    Cl24614  13.577   4.505   2.313 -0.4895 -0.5165 -0.4427
  183MOL0     C24615  12.449   4.153   2.099  0.3327 -0.4692 -0.1051
  183MOL0     C24616  12.313   4.133   2.111  0.2862  0.0436  0.1857
  183MOL0     O24617  12.045   4.129   2.228 -0.5527  0.0503 -0.2148
  183MOL0     C24618  11.821   4.049   1.964  0.1766  0.0580  0.8395
  183MOL0     C24619  11.696   4.028   1.934  0.5798 -1.0862 -0.2294
  183MOL0     N24620  10.930   4.009   2.256 -0.0919 -0.3067  0.6697
  183MOL0     N24621  10.799   4.023   2.252  0.1761 -0.4709  0.3711
  183MOL0     C24622   9.490   4.284   2.150  1.1283 -1.0112 -0.2310
  183MOL0     C24623   9.360   4.336   2.145 -1.1763 -0.1207 -0.1856
  183MOL0     C24624   8.899   4.333   2.001  0.1375 -0.2616  0.0330
  183MOL0     C24625   8.813   4.304   1.896  0.1032 -0.2105  0.3572
  183MOL0     C24626   8.679   4.357   1.908 -0.2884 -0.6893  0.0358
  183MOL0     C24627   8.634   4.439   2.014 -0.2556  0.3858  0.0120
  183MOL0     O24628   8.505   4.481   2.034 -0.6098 -0.5061 -0.6086
  183MOL0     C24629   8.409   4.458   1.935 -0.0430  0.0917 -0.2981
  183MOL0     C24630   8.266   4.441   1.986 -0.0047 -0.4501 -0.2465
  183MOL0     C24631   8.174   4.398   1.870 -0.8556 -0.2365  0.0967
  183MOL0     C24632   8.148   4.502   1.759  1.1101  0.2518  0.7371
  183MOL0     C24633   8.011   4.479   1.709  0.2785 -0.0452 -0.7046
  183MOL0     C24634   7.904   4.454   1.661  0.2175 -0.8193 -0.1705
  183MOL0     C24635   8.728   4.461   2.110  0.3806 -0.6411  0.2351
  183MOL0     C24636   8.859   4.415   2.108  0.6053  0.4868  0.0795
  183MOL0     C24637   8.937   4.446   2.224  0.1960  0.4110  0.2730
  183MOL0     H24638   9.255   4.144   1.881 -0.6731 -4.1156  1.5731
  183MOL0     H24639   9.477   4.040   1.906  1.9807  1.3687 -0.3346
  183MOL0     H24640   9.771   4.296   2.052  0.0155 -1.2591 -1.8922
  183MOL0     H24641   9.799   4.222   2.215 -2.6149 -1.6950  0.5760
  183MOL0     H24642   9.884   4.112   1.944 -0.0845 -0.1143  0.2466
  183MOL0     H24643   9.881   4.024   2.092  2.1643 -0.1277 -1.3837
  183MOL0     H24644  10.050   4.204   2.183  3.1041 -2.4727  0.6186
  183MOL0     H24645  10.039   4.288   2.025 -0.7678 -0.2881 -0.5470
  183MOL0     H24646  10.123   4.006   2.085 -1.0383  2.1418  1.5181
  183MOL0     H24647  10.154   4.098   1.930 -1.1167  1.3448 -0.7259
  183MOL0     H24648  10.316   4.224   2.027  2.5753 -2.1617 -1.0987
  183MOL0     H24649  10.278   4.156   2.197  3.8348 -3.1999  1.3259
  183MOL0     H24650  10.348   3.951   2.126  1.3742 -1.1456 -0.3349
  183MOL0     H24651  10.371   3.999   1.960 -1.8120 -1.0404 -0.0415
  183MOL0     H24652  10.528   4.100   2.214  2.2627 -2.8977  1.7614
  183MOL0     H24653  10.570   4.151   2.053 -1.1116 -0.1318 -0.7579
  183MOL0     H24654  10.598   3.858   2.164  4.3246  1.5196  1.2401
  183MOL0     H24655  10.619   3.881   2.001  1.0586  1.0780 -0.3966
  183MOL0     H24656  10.847   3.851   1.980  0.1608  0.5393  0.2830
  183MOL0     H24657  11.179   3.893   2.209 -0.3190  1.7786 -0.1063
  183MOL0     H24658  11.106   3.768   2.107 -2.1708  0.5133  2.4021
  183MOL0     H24659  11.258   3.864   1.960 -0.8270 -0.7120 -2.6210
  183MOL0     H24660  11.101   3.945   1.920 -1.6284  1.4921  1.8628
  183MOL0     H24661  11.180   4.118   2.106 -0.5339  3.3405 -2.3093
  183MOL0     H24662  11.219   4.141   1.945  0.4277  1.7560  1.0200
  183MOL0     H24663  11.386   4.006   2.163 -2.4753 -0.4594 -0.1526
  183MOL0     H24664  11.394   4.178   2.104 -3.4681  0.0311  0.0716
  183MOL0     H24665  11.579   4.139   2.233 -0.2873  0.6314 -0.6882
  183MOL0     H24666  11.811   4.164   2.278  1.8160  0.5230 -1.3611
  183MOL0     H24667  12.216   4.211   1.800 -1.4146  0.1214  1.7394
  183MOL0     H24668  12.441   4.269   1.774 -1.2182  1.2166 -0.8852
  183MOL0     H24669  12.713   4.081   2.097 -1.5323 -1.6958 -0.8602
  183MOL0     H24670  12.692   4.036   1.927  0.7767 -0.7280  0.6645
  183MOL0     H24671  12.915   4.061   1.953  2.7632  2.0121 -1.4363
  183MOL0     H24672  12.877   4.200   1.865  3.6635 -1.7144  0.0972
  183MOL0     H24673  12.892   4.328   2.090 -0.0935 -0.4223 -0.6498
  183MOL0     H24674  12.933   4.175   2.169 -2.0934 -2.8351 -0.9230
  183MOL0     H24675  13.098   4.310   1.939  0.4142  2.2387  1.2335
  183MOL0     H24676  13.146   4.174   2.057 -0.4937 -1.1190 -1.8379
  183MOL0     H24677  13.116   4.335   2.239  1.4765 -2.8959 -1.2623
  183MOL0     H24678  13.089   4.464   2.122  2.7399  1.3589 -1.3430
  183MOL0     H24679  13.360   4.313   2.140  0.1415  0.2296 -0.7642
  183MOL0     H24680  13.324   4.421   2.018 -1.8222 -2.4849 -1.4783
  183MOL0     H24681  13.304   4.483   2.300 -1.9503 -2.4479 -0.4400
  183MOL0     H24682  13.244   4.607   2.186  0.9537  0.0111 -0.6382
  183MOL0     H24683  13.501   4.576   2.104 -1.7381 -1.9772 -0.7135
  183MOL0     H24684  13.452   4.691   2.245  0.8204 -0.2242  0.6689
  183MOL0     H24685  12.518   4.140   2.181  2.3383  2.5183 -1.1788
  183MOL0     H24686  12.292   4.091   2.209  1.7275 -0.7994  0.1543
  183MOL0     H24687  11.894   4.041   1.884 -0.5876  0.3621  0.0984
  183MOL0     H24688  11.657   3.991   1.839 -1.8052 -1.4885  0.8416
  183MOL0     H24689   9.561   4.315   2.226 -0.5077 -1.1034  1.3999
  183MOL0     H24690   9.334   4.421   2.208 -2.1137  0.2521 -1.0438
  183MOL0     H24691   8.832   4.236   1.814 -1.3493  2.2100 -2.1925
  183MOL0     H24692   8.621   4.330   1.820 -1.6138 -0.8696  0.9287
  183MOL0     H24693   8.427   4.364   1.883 -0.1318 -1.6292  2.5622
  183MOL0     H24694   8.398   4.547   1.872  0.6787  2.4351  2.6101
  183MOL0     H24695   8.229   4.534   2.031  3.0011  0.1217  1.2855
  183MOL0     H24696   8.278   4.374   2.072  3.4999  2.9671  2.2676
  183MOL0     H24697   8.080   4.362   1.913  0.0523 -0.0905  2.3172
  183MOL0     H24698   8.218   4.306   1.830  2.0666  1.0858  0.0175
  183MOL0     H24699   8.154   4.603   1.799  1.9385  0.9004 -0.9281
  183MOL0     H24700   8.211   4.491   1.670 -2.5991  2.8357 -2.5590
  183MOL0     H24701   7.814   4.428   1.608 -1.5808  2.1853  1.1540
  183MOL0     H24702   8.692   4.522   2.193 -1.5331 -2.8734  1.1524
  183MOL0     H24703   9.000   4.531   2.195 -0.0752  0.4730 -0.1345
  183MOL0     H24704   8.891   4.471   2.320  1.8555 -2.4617  1.9492
  183MOL0     H24705   8.999   4.360   2.249  0.8282  1.3088  1.9215
  184MOL0     O24706   7.359   9.871  10.851 -0.6949 -0.6693  0.6514
  184MOL0     C24707   7.259   9.803  10.844  0.7256 -0.2261 -0.2478
  184MOL0     O24708   7.258   9.665  10.850 -0.3475 -0.6264 -0.0847
  184MOL0     C24709   7.370   9.595  10.873  0.1999 -0.3049 -1.0268
  184MOL0     C24710   7.479   9.608  10.794  0.2734 -1.4381 -0.3018
  184MOL0     C24711   7.591   9.525  10.805  0.7253 -0.7542 -0.4308
  184MOL0     C24712   7.600   9.455  10.921 -0.4332  0.3768  0.2523
  184MOL0     O24713   7.719   9.392  10.946  0.1587 -1.0964  0.2031
  184MOL0     C24714   7.755   9.364  11.086  1.4176  0.1789  0.5335
  184MOL0     C24715   7.906   9.366  11.111 -0.1791 -0.1314  0.1541
  184MOL0     C24716   7.932   9.278  11.231  1.2348  1.0204 -0.3706
  184MOL0     C24717   8.071   9.227  11.226  0.6510  0.3231 -0.2142
  184MOL0     C24718   8.097   9.136  11.354 -0.3952  0.3729 -0.3621
  184MOL0     C24719   8.242   9.095  11.365  0.2396  0.4395  0.0655
  184MOL0     C24720   8.266   9.007  11.487  0.1318 -0.6246  0.5903
  184MOL0     C24721   8.239   8.859  11.477  0.1787  0.6616 -0.4428
  184MOL0     N24722   8.358   8.768  11.468  1.0866 -0.1167  0.0774
  184MOL0     C24723   8.468   8.773  11.386 -0.6519  0.0416  0.0137
  184MOL0     C24724   8.537   8.664  11.412 -0.1665  0.4739 -0.7441
  184MOL0     C24725   8.668   8.630  11.342 -0.6447  0.0323  1.2108
  184MOL0     C24726   8.783   8.683  11.420 -0.7008 -0.8873 -0.4785
  184MOL0     C24727   8.925   8.698  11.348  0.0025  0.5368 -0.8096
  184MOL0     C24728   9.046   8.701  11.434  0.0352 -0.2373 -0.1832
  184MOL0     O24729   9.175   8.749  11.367 -0.8241 -1.2349  0.0140
  184MOL0     C24730   9.289   8.761  11.438 -0.5846 -0.1940  0.2408
  184MOL0     C24731   9.413   8.780  11.374  0.0228  0.0184 -0.0075
  184MOL0     C24732   9.535   8.786  11.439 -1.2614 -0.2745 -0.5676
  184MOL0     C24733   9.533   8.763  11.588  0.1803 -0.0905 -0.3007
  184MOL0     C24734   9.657   8.779  11.660  0.6580  0.2244 -0.3039
  184MOL0     O24735   9.769   8.782  11.579  0.2213 -0.6449 -0.1758
  184MOL0     C24736   9.896   8.784  11.642  0.0707 -0.6774 -0.0806
  184MOL0     C24737   9.999   8.699  11.594 -0.1613 -0.2794 -0.8809
  184MOL0     C24738  10.131   8.709  11.637  0.6307 -0.5361  0.5567
  184MOL0     C24739  10.167   8.818  11.727  0.8423 -0.8019  0.1697
  184MOL0     O24740  10.291   8.841  11.765  0.3513  0.6311 -0.3777
  184MOL0     C24741  10.341   8.771  11.872 -1.0030 -0.8348  0.3577
  184MOL0     C24742  10.393   8.860  11.994  0.3326  0.2855  0.7100
  184MOL0     C24743  10.499   8.955  11.947  0.4871  0.7152 -1.1772
  184MOL0     C24744  10.567   9.012  12.077  0.0813  0.1287  0.8306
  184MOL0     C24745  10.683   9.111  12.042  0.0489 -0.5579  0.7865
  184MOL0     C24746  10.802   9.051  11.967  0.2690 -0.7466  0.3656
  184MOL0     C24747  10.888   9.161  11.905 -0.1880 -0.5749 -0.2907
  184MOL0     C24748  11.013   9.091  11.853 -0.7298  0.1131 -0.9214
  184MOL0    Cl24749  11.131   9.040  11.978  0.1011 -0.0024 -0.3815
  184MOL0     C24750  10.063   8.901  11.777 -0.0344 -0.2155 -0.1200
  184MOL0     C24751   9.932   8.875  11.737 -0.0446  0.4644  0.3388
  184MOL0     O24752   9.652   8.771  11.781  0.4586 -0.8302 -0.5339
  184MOL0     C24753   9.414   8.742  11.648  0.0828 -1.2035 -0.2689
  184MOL0     C24754   9.295   8.751  11.579 -0.1314 -0.4872  0.7444
  184MOL0     N24755   8.472   8.593  11.510 -0.3353  0.1458 -0.0717
  184MOL0     N24756   8.367   8.656  11.544  0.3640  0.1496 -0.0971
  184MOL0     C24757   7.492   9.441  11.011 -0.6977  0.0932  0.7176
  184MOL0     C24758   7.372   9.501  10.975 -0.5756  0.3118 -0.3313
  184MOL0     C24759   7.128   9.874  10.819  0.2582  0.7833  0.6959
  184MOL0     C24760   7.015   9.795  10.788 -0.5624 -0.4722  0.2879
  184MOL0     C24761   6.910   9.847  10.724  0.1609 -0.2348  0.8045
  184MOL0     C24762   6.886   9.986  10.704 -0.2662 -0.5032 -0.0616
  184MOL0     O24763   6.769  10.028  10.651  0.3090 -0.2350  0.4357
  184MOL0     C24764   6.759  10.172  10.636  0.0548 -1.1173  0.2016
  184MOL0     C24765   6.849  10.221  10.521  0.3352  0.4247 -0.0032
  184MOL0     C24766   6.774  10.204  10.387 -0.3869 -0.6723  0.0027
  184MOL0     C24767   6.860  10.260  10.273 -0.1856  0.1174  0.6194
  184MOL0     C24768   6.791  10.247  10.137 -0.4217 -0.3854 -0.4287
  184MOL0     C24769   6.749  10.244  10.023 -0.1223  0.2105  0.4263
  184MOL0     C24770   6.987  10.070  10.756 -0.2620  0.3005 -0.2688
  184MOL0     C24771   7.108  10.014  10.804  0.5003  0.3255 -0.2849
  184MOL0     C24772   7.215  10.117  10.849  0.3674 -0.6249 -0.5967
  184MOL0     H24773   7.460   9.681  10.716  3.3976  0.1470  0.2360
  184MOL0     H24774   7.675   9.542  10.739  0.2548  1.4191 -0.5467
  184MOL0     H24775   7.711   9.436  11.156 -1.0532 -2.1772  1.5727
  184MOL0     H24776   7.714   9.268  11.119  0.7529  0.4265  0.4283
  184MOL0     H24777   7.957   9.458  11.141  0.1693 -0.7151  1.4257
  184MOL0     H24778   7.969   9.330  11.030  4.3566  1.0866  2.7999
  184MOL0     H24779   7.866   9.192  11.244 -0.3775  1.9995 -1.7178
  184MOL0     H24780   7.928   9.342  11.320 -1.5924 -0.0877  0.4146
  184MOL0     H24781   8.083   9.171  11.133 -1.7433  3.1468 -2.4284
  184MOL0     H24782   8.148   9.305  11.225  2.4107 -1.0827 -5.4899
  184MOL0     H24783   8.072   9.197  11.442 -1.4413 -1.1601  0.4593
  184MOL0     H24784   8.035   9.046  11.348  1.2476 -0.8481  0.1077
  184MOL0     H24785   8.281   9.031  11.285 -1.1266 -1.8881  1.1710
  184MOL0     H24786   8.295   9.191  11.369  0.7549  0.1642 -0.0611
  184MOL0     H24787   8.201   9.051  11.563 -1.0270  0.4598 -0.9782
  184MOL0     H24788   8.371   9.026  11.513  0.1375  2.3034 -1.1535
  184MOL0     H24789   8.193   8.830  11.571 -0.4093 -0.1568 -0.9675
  184MOL0     H24790   8.166   8.839  11.397  0.1665 -2.2287  0.1791
  184MOL0     H24791   8.500   8.854  11.321  2.2661 -1.6644 -0.8636
  184MOL0     H24792   8.680   8.526  11.309  1.0855  1.1651 -2.1541
  184MOL0     H24793   8.665   8.678  11.244  2.2803 -2.5447 -0.3193
  184MOL0     H24794   8.763   8.790  11.433  1.5636 -0.0240 -3.0828
  184MOL0     H24795   8.782   8.638  11.520  0.3983  3.6652  1.8778
  184MOL0     H24796   8.921   8.791  11.291 -0.6047 -0.1209 -1.8652
  184MOL0     H24797   8.937   8.630  11.264  0.3752 -0.2309 -0.1539
  184MOL0     H24798   9.070   8.599  11.467 -2.4056 -2.0286 -3.3909
  184MOL0     H24799   9.013   8.765  11.516 -0.3849 -0.7238  0.0338
  184MOL0     H24800   9.395   8.784  11.267 -2.2294  0.5638  0.3347
  184MOL0     H24801   9.631   8.814  11.397 -0.5541  1.4495  1.9400
  184MOL0     H24802   9.977   8.631  11.512 -0.7310  1.2402 -2.0469
  184MOL0     H24803  10.199   8.632  11.601  0.0655 -0.0062 -1.8287
  184MOL0     H24804  10.271   8.695  11.908  0.1351 -0.5520  3.5312
  184MOL0     H24805  10.430   8.719  11.836  1.5901  2.2267  1.8183
  184MOL0     H24806  10.306   8.905  12.044 -0.7540 -2.4353  1.4245
  184MOL0     H24807  10.427   8.790  12.071  0.8857  3.2249  3.3482
  184MOL0     H24808  10.570   8.896  11.889 -0.8782 -1.0563 -1.0936
  184MOL0     H24809  10.459   9.031  11.879  1.6003  0.9139 -1.6413
  184MOL0     H24810  10.602   8.925  12.134 -1.0472 -0.4048  0.7340
  184MOL0     H24811  10.489   9.063  12.134 -2.0611  1.9229 -3.2770
  184MOL0     H24812  10.715   9.152  12.138  1.5780 -2.6149  1.2465
  184MOL0     H24813  10.652   9.200  11.986  0.8853 -1.4601 -1.2459
  184MOL0     H24814  10.861   8.988  12.035  2.5727  1.0758  0.1937
  184MOL0     H24815  10.772   8.992  11.880 -0.6717  2.8469 -1.9605
  184MOL0     H24816  10.923   9.235  11.977  1.9326  0.5120 -2.3289
  184MOL0     H24817  10.831   9.203  11.822  2.5937 -1.5412 -2.8463
  184MOL0     H24818  10.986   9.004  11.793 -1.7863  0.9211 -1.6427
  184MOL0     H24819  11.075   9.161  11.795  0.6318 -0.7187 -0.5285
  184MOL0     H24820  10.081   8.968  11.860 -1.4773 -1.9249  1.6722
  184MOL0     H24821   9.848   8.931  11.777 -1.5489 -2.1573  1.0495
  184MOL0     H24822   9.411   8.732  11.756  2.3989  0.9813  0.0868
  184MOL0     H24823   9.203   8.744  11.636 -0.4688  2.7120  0.7942
  184MOL0     H24824   7.513   9.363  11.084  3.6739  0.0202 -0.3705
  184MOL0     H24825   7.282   9.478  11.032  1.5308 -2.4771  2.2424
  184MOL0     H24826   7.021   9.687  10.781 -2.8807 -0.5119 -3.1329
  184MOL0     H24827   6.836   9.770  10.706  1.3384 -1.5048  1.2709
  184MOL0     H24828   6.779  10.224  10.730  2.3785  0.4845 -1.0719
  184MOL0     H24829   6.658  10.206  10.613 -0.2663 -0.9262  1.7788
  184MOL0     H24830   6.942  10.164  10.522  1.5783  2.3689  0.9506
  184MOL0     H24831   6.866  10.328  10.536 -1.3458  0.6692  0.4457
  184MOL0     H24832   6.688  10.272  10.384 -0.4605 -0.6174  2.1398
  184MOL0     H24833   6.744  10.101  10.367  1.2855 -1.1493 -0.1835
  184MOL0     H24834   6.897  10.362  10.285 -0.0779  0.4661 -2.0246
  184MOL0     H24835   6.961  10.218  10.265  0.0207  0.9155 -2.2307
  184MOL0     H24836   6.721  10.250   9.919  0.0744 -1.2731  0.2694
  184MOL0     H24837   6.980  10.177  10.774 -1.5174  0.0071  1.1577
  184MOL0     H24838   7.258  10.086  10.944  0.5033 -0.1705 -0.5093
  184MOL0     H24839   7.286  10.127  10.766 -2.4341  3.0524 -2.8252
  184MOL0     H24840   7.177  10.218  10.866  0.9658  0.1037 -3.1289
  185MOL0     O24841   4.012   5.727   9.161  0.5369  0.7924 -0.1153
  185MOL0     C24842   3.953   5.698   9.051  0.4588  0.0680 -0.9556
  185MOL0     O24843   3.999   5.605   8.964 -0.5228  0.1306  0.4205
  185MOL0     C24844   4.111   5.535   8.987 -0.6184 -0.0128  0.5071
  185MOL0     C24845   4.221   5.543   8.897  0.0488 -1.1572 -0.1544
  185MOL0     C24846   4.339   5.472   8.916  0.0516  0.7170  0.6234
  185MOL0     C24847   4.364   5.404   9.035 -0.7823 -1.4512 -0.3150
  185MOL0     O24848   4.488   5.342   9.054 -0.1865  0.5377  0.4683
  185MOL0     C24849   4.600   5.424   9.072 -0.5224 -0.3082  0.7080
  185MOL0     C24850   4.727   5.349   9.125 -0.7289 -0.1282  0.2748
  185MOL0     C24851   4.837   5.444   9.180 -1.0718  0.5178  0.2666
  185MOL0     C24852   4.793   5.486   9.321 -0.9210  0.5686  0.0050
  185MOL0     C24853   4.912   5.549   9.402  0.1143 -0.5935 -0.6055
  185MOL0     C24854   4.983   5.667   9.332  0.4378 -0.1172  1.0385
  185MOL0     C24855   5.068   5.735   9.433 -0.6796 -0.3464 -0.6212
  185MOL0     C24856   5.092   5.880   9.394 -0.0172 -0.5648 -0.4790
  185MOL0     N24857   5.211   5.941   9.456 -0.3642  0.4602  0.0752
  185MOL0     C24858   5.293   6.031   9.392  0.8886 -0.6276 -0.2649
  185MOL0     C24859   5.396   6.060   9.474  0.9405 -0.8195 -0.0947
  185MOL0     C24860   5.501   6.167   9.464 -0.1171  0.2791  0.3071
  185MOL0     C24861   5.641   6.112   9.460  0.2434  0.3866 -0.3702
  185MOL0     C24862   5.741   6.225   9.483 -0.4049 -0.4961 -0.0288
  185MOL0     C24863   5.886   6.181   9.469 -0.6382  0.4959  0.8122
  185MOL0     O24864   5.953   6.282   9.390  0.1017 -0.0052  0.0708
  185MOL0     C24865   6.089   6.265   9.375 -0.3036  0.7584 -0.3702
  185MOL0     C24866   6.150   6.357   9.292  0.1974  0.5893 -0.0463
  185MOL0     C24867   6.284   6.336   9.253 -0.1345  0.0717 -0.7330
  185MOL0     C24868   6.363   6.230   9.302 -0.8471 -0.3806 -1.0603
  185MOL0     C24869   6.497   6.203   9.243 -0.8170 -0.8000 -0.0078
  185MOL0     O24870   6.583   6.106   9.295 -0.2577  0.8935 -1.0112
  185MOL0     C24871   6.712   6.082   9.248  0.3178 -0.3808  0.5258
  185MOL0     C24872   6.737   6.036   9.123 -0.6690  0.7020 -0.9681
  185MOL0     C24873   6.871   6.040   9.077  0.4929  0.0908  0.6839
  185MOL0     C24874   6.976   6.084   9.153 -0.0903 -1.4591  0.0770
  185MOL0     O24875   7.099   6.055   9.103 -0.0158  0.1429  0.3470
  185MOL0     C24876   7.152   6.155   9.009  0.4129  0.0491  0.5464
  185MOL0     C24877   7.297   6.121   8.968 -0.6416 -0.7405  0.2395
  185MOL0     C24878   7.352   6.249   8.894 -0.2557 -0.2005 -0.3381
  185MOL0     C24879   7.282   6.291   8.767 -0.4062  0.2891 -0.8074
  185MOL0     C24880   7.262   6.181   8.656  0.1470  0.0906  0.7074
  185MOL0     C24881   7.396   6.148   8.601  0.0144  0.5554  0.8518
  185MOL0     C24882   7.385   6.067   8.473 -0.4817 -0.1769  0.3660
  185MOL0     C24883   7.310   5.932   8.480 -0.8315  0.4919 -0.1392
  185MOL0    Cl24884   7.390   5.826   8.590 -0.0411  0.0185  0.3019
  185MOL0     C24885   6.954   6.122   9.289  0.2514  0.2825 -0.6009
  185MOL0     C24886   6.818   6.119   9.335  0.3842  0.0656 -0.2188
  185MOL0     O24887   6.504   6.243   9.126  0.2517  0.7015  0.0153
  185MOL0     C24888   6.308   6.144   9.399 -0.1255 -0.8731  0.8985
  185MOL0     C24889   6.171   6.161   9.432 -0.2431 -0.0928 -0.9524
  185MOL0     N24890   5.377   5.985   9.586  0.4630  1.2362 -0.1069
  185MOL0     N24891   5.273   5.914   9.577  0.3969  0.0163 -0.1919
  185MOL0     C24892   4.267   5.404   9.132 -0.1840  0.2185  0.2374
  185MOL0     C24893   4.142   5.469   9.108  1.2443  0.3415  0.9700
  185MOL0     C24894   3.841   5.782   9.007  0.4631  0.6855  0.1348
  185MOL0     C24895   3.775   5.746   8.889  0.2276  1.1047  0.6482
  185MOL0     C24896   3.666   5.814   8.835  0.8121  0.1509  0.0068
  185MOL0     C24897   3.597   5.917   8.914  0.0319  0.0112 -0.2328
  185MOL0     O24898   3.489   5.994   8.882 -1.0517 -0.1283  0.3321
  185MOL0     C24899   3.425   5.989   8.755 -0.5376 -0.0005 -0.0579
  185MOL0     C24900   3.315   5.895   8.785 -0.3517  0.3271  0.2858
  185MOL0     C24901   3.225   5.887   8.661  0.1700  0.1926  0.8548
  185MOL0     C24902   3.122   5.998   8.644  0.4177 -0.2522 -0.5112
  185MOL0     C24903   3.072   5.996   8.507  0.7256 -0.0242 -1.0157
  185MOL0     C24904   3.026   5.980   8.401  0.9709  0.6470  0.6216
  185MOL0     C24905   3.669   5.962   9.026  0.3357 -0.2939  0.6846
  185MOL0     C24906   3.778   5.891   9.080  0.5192  0.0853 -0.2932
  185MOL0     C24907   3.814   5.940   9.220  0.4229  0.3643 -0.9244
  185MOL0     H24908   4.214   5.599   8.803  1.1445  0.7330  0.8185
  185MOL0     H24909   4.418   5.481   8.843  1.6849  0.9888  2.3666
  185MOL0     H24910   4.616   5.464   8.971 -0.2784 -2.4296 -0.1390
  185MOL0     H24911   4.573   5.509   9.136 -2.3434 -0.4157  0.1430
  185MOL0     H24912   4.771   5.286   9.047  0.0004  0.0527  0.5311
  185MOL0     H24913   4.689   5.284   9.205 -1.3504 -0.5741 -0.3701
  185MOL0     H24914   4.868   5.525   9.112 -0.0686  0.8757  1.1310
  185MOL0     H24915   4.924   5.380   9.197 -3.2360 -2.6495  0.1482
  185MOL0     H24916   4.717   5.565   9.315 -1.9215 -0.3156  0.6778
  185MOL0     H24917   4.754   5.396   9.370  2.0063 -0.4712  0.6178
  185MOL0     H24918   4.859   5.589   9.489 -3.1801 -1.8068 -1.9019
  185MOL0     H24919   4.989   5.476   9.427  0.7116  0.2653  0.1014
  185MOL0     H24920   5.044   5.624   9.251 -0.9026  1.0563 -0.6608
  185MOL0     H24921   4.902   5.725   9.287 -1.4288 -2.0393  1.7349
  185MOL0     H24922   5.166   5.685   9.433 -1.2125 -1.4595  0.9053
  185MOL0     H24923   5.032   5.723   9.536  1.0120  0.4703  0.1172
  185MOL0     H24924   5.096   5.892   9.286  4.3105  0.5389 -0.3987
  185MOL0     H24925   5.008   5.944   9.422 -0.9420 -2.2189  0.7156
  185MOL0     H24926   5.287   6.064   9.289  1.0938  4.0161  1.0223
  185MOL0     H24927   5.471   6.226   9.376  0.9738  0.6982  0.2113
  185MOL0     H24928   5.489   6.223   9.557 -0.9603 -1.5246  1.3256
  185MOL0     H24929   5.647   6.027   9.528 -0.3617 -0.2417 -1.0867
  185MOL0     H24930   5.666   6.063   9.366  0.2661  0.7089 -0.5363
  185MOL0     H24931   5.734   6.264   9.585 -2.6158 -2.0332  0.4838
  185MOL0     H24932   5.718   6.303   9.410  0.0902  2.1086  2.4295
  185MOL0     H24933   5.880   6.083   9.422 -2.9117  1.7065 -1.6375
  185MOL0     H24934   5.947   6.173   9.560  1.4100  1.8205 -0.3482
  185MOL0     H24935   6.093   6.435   9.241  0.1326  0.0341 -0.8424
  185MOL0     H24936   6.314   6.394   9.167 -1.7658 -2.5819 -3.2652
  185MOL0     H24937   6.659   6.016   9.050  0.4165  0.7336 -2.1927
  185MOL0     H24938   6.889   6.007   8.975 -0.2866  1.7281 -0.0196
  185MOL0     H24939   7.090   6.154   8.919  2.6000 -0.3917 -1.0432
  185MOL0     H24940   7.151   6.252   9.060 -0.2806  0.0224  0.5838
  185MOL0     H24941   7.350   6.107   9.062  0.1304 -0.5798 -0.1641
  185MOL0     H24942   7.311   6.034   8.904  2.4416  0.2259 -0.5556
  185MOL0     H24943   7.355   6.333   8.963 -0.3756 -0.6192  0.1791
  185MOL0     H24944   7.458   6.224   8.878  0.1424 -0.2394  1.9824
  185MOL0     H24945   7.327   6.381   8.725  0.2858 -0.2937 -1.3548
  185MOL0     H24946   7.182   6.324   8.796 -0.2008  0.9146 -0.8022
  185MOL0     H24947   7.197   6.222   8.577 -0.4128 -2.1869 -0.0766
  185MOL0     H24948   7.213   6.093   8.697 -1.6210  0.4762 -0.4589
  185MOL0     H24949   7.446   6.242   8.576  1.7315 -0.8234 -1.1489
  185MOL0     H24950   7.454   6.105   8.683  1.4340  4.3390  2.0376
  185MOL0     H24951   7.488   6.059   8.436 -0.6615 -2.1963  0.1837
  185MOL0     H24952   7.333   6.130   8.400  1.1976  3.6036  2.1738
  185MOL0     H24953   7.209   5.948   8.518 -1.3703  0.9352 -1.6664
  185MOL0     H24954   7.315   5.890   8.379 -1.7409 -2.2394  0.8521
  185MOL0     H24955   7.044   6.141   9.346  0.8686  0.2816 -1.5564
  185MOL0     H24956   6.788   6.150   9.435  0.2353 -0.5532 -0.0683
  185MOL0     H24957   6.368   6.065   9.443  1.9495  0.5440  0.7691
  185MOL0     H24958   6.120   6.095   9.501  1.8421 -0.4246  0.3448
  185MOL0     H24959   4.281   5.360   9.230 -0.4393  3.1434  1.6791
  185MOL0     H24960   4.058   5.461   9.177  0.7238 -1.6015  0.1748
  185MOL0     H24961   3.820   5.664   8.834  2.2679  3.3048 -1.1735
  185MOL0     H24962   3.619   5.770   8.748 -1.7736 -1.2279  1.9494
  185MOL0     H24963   3.497   5.952   8.681  1.1422 -0.7345  1.8283
  185MOL0     H24964   3.386   6.088   8.730  1.9064  0.5598 -2.1175
  185MOL0     H24965   3.265   5.926   8.877 -1.9962  0.3582 -0.5925
  185MOL0     H24966   3.363   5.797   8.793  1.0643  0.9969  0.2635
  185MOL0     H24967   3.168   5.794   8.666  0.4879 -0.1457 -0.9518
  185MOL0     H24968   3.291   5.882   8.574  0.2922 -1.5330  1.0232
  185MOL0     H24969   3.038   5.990   8.715 -1.2088  0.6665 -2.2467
  185MOL0     H24970   3.171   6.094   8.658  0.7874 -0.5125  0.0260
  185MOL0     H24971   2.987   5.948   8.306  1.1552 -0.8603  1.0293
  185MOL0     H24972   3.626   6.047   9.080 -0.7407  0.7916 -1.7186
  185MOL0     H24973   3.922   5.958   9.225  0.0383  2.8585 -0.4327
  185MOL0     H24974   3.752   6.020   9.260 -4.1139 -3.8838  1.7061
  185MOL0     H24975   3.795   5.857   9.289  1.9525  0.3219 -0.5066
  186MOL0     O24976   8.555   0.010   6.320 -0.0248 -0.0945 -0.6958
  186MOL0     C24977   8.506   0.090   6.400  0.9383 -0.3881  0.2796
  186MOL0     O24978   8.573   0.177   6.476 -0.0607  0.5153  0.1786
  186MOL0     C24979   8.708   0.178   6.465  0.1714  0.2557 -0.4445
  186MOL0     C24980   8.780   0.298   6.442 -0.0411 -0.6416 -0.1179
  186MOL0     C24981   8.920   0.305   6.459  0.2288  0.3912 -0.2441
  186MOL0     C24982   8.995   0.193   6.485 -0.2359  0.1468  0.5800
  186MOL0     O24983   9.128   0.186   6.495  0.0174  0.3248 -0.5283
  186MOL0     C24984   9.186   0.290   6.576 -0.6026 -0.3073  0.5493
  186MOL0     C24985   9.330   0.238   6.628  0.1787 -0.5154 -0.4140
  186MOL0     C24986   9.415   0.336   6.712 -0.0178  0.7659 -0.4150
  186MOL0     C24987   9.551   0.269   6.746 -0.1746  0.6096  0.2083
  186MOL0     C24988   9.632   0.346   6.850  0.8906 -0.5444 -0.7740
  186MOL0     C24989   9.758   0.274   6.896  0.2894  0.1403  0.2179
  186MOL0     C24990   9.823   0.354   7.009 -0.2489 -0.6526  0.0203
  186MOL0     C24991   9.958   0.294   7.039  0.5950  0.2123  0.2170
  186MOL0     N24992  10.048   0.404   7.093  0.4017  0.0667  0.4449
  186MOL0     C24993  10.049   0.479   7.211 -0.0723  0.6437  0.1772
  186MOL0     C24994  10.147   0.560   7.205 -0.2174 -0.4809  0.4998
  186MOL0     C24995  10.165   0.666   7.308  0.3233  0.4889 -0.4353
  186MOL0     C24996  10.252   0.620   7.423  0.9196 -0.0578 -0.3838
  186MOL0     C24997  10.280   0.722   7.533  0.1945 -0.9041 -0.9092
  186MOL0     C24998  10.384   0.819   7.493 -0.0687 -0.1785 -0.5200
  186MOL0     O24999  10.416   0.891   7.615 -0.3735 -0.1897  0.1949
  186MOL0     C25000  10.511   0.846   7.699  0.1843 -0.7625 -0.1367
  186MOL0     C25001  10.586   0.737   7.680 -0.7467 -0.5411  0.3865
  186MOL0     C25002  10.678   0.683   7.780  0.7420  0.0390  0.2633
  186MOL0     C25003  10.683   0.756   7.899  0.2629  0.1917  0.1860
  186MOL0     C25004  10.771   0.718   8.008  0.7930 -0.1160  0.0563
  186MOL0     O25005  10.886   0.647   7.974 -0.3504 -0.4406  0.3980
  186MOL0     C25006  10.975   0.596   8.063 -0.1168 -0.3206 -1.1319
  186MOL0     C25007  11.017   0.661   8.180  0.0142 -0.5600  0.1616
  186MOL0     C25008  11.129   0.615   8.258 -0.0083  1.1417 -0.8493
  186MOL0     C25009  11.196   0.498   8.225 -0.1380  0.8931  0.4062
  186MOL0     O25010  11.314   0.451   8.278  0.1589 -0.0987 -0.3892
  186MOL0     C25011  11.358   0.511   8.401  0.4353 -0.0112 -0.1381
  186MOL0     C25012  11.457   0.436   8.484 -0.4829  0.2152  0.4787
  186MOL0     C25013  11.594   0.392   8.422  0.4308 -0.1693 -0.4192
  186MOL0     C25014  11.592   0.285   8.319  0.0378  0.2120 -0.5475
  186MOL0     C25015  11.728   0.268   8.242  0.3291  0.0053 -0.0293
  186MOL0     C25016  11.837   0.214   8.342 -0.0865 -0.3755  0.3713
  186MOL0     C25017  11.971   0.197   8.280 -0.7247 -0.4737  0.1975
  186MOL0     C25018  12.099   0.232   8.365 -0.7471 -1.1732  0.1262
  186MOL0    Cl25019  12.125   0.408   8.368 -0.0347 -0.0027 -0.0565
  186MOL0     C25020  11.137   0.421   8.126 -0.1088 -0.1765 -0.4271
  186MOL0     C25021  11.032   0.476   8.050  0.7328 -0.2539  0.1166
  186MOL0     O25022  10.742   0.743   8.124  0.4062  0.2528  0.3244
  186MOL0     C25023  10.597   0.862   7.921 -0.1224  0.4744  0.1947
  186MOL0     C25024  10.513   0.908   7.824 -0.4833  0.3596  0.5414
  186MOL0     N25025  10.216   0.523   7.092 -0.6367 -0.2650  0.2813
  186MOL0     N25026  10.159   0.438   7.026 -0.2771 -0.5285 -0.1423
  186MOL0     C25027   8.922   0.074   6.495 -0.5640 -0.3584  0.4446
  186MOL0     C25028   8.780   0.061   6.498  0.0754 -0.7760  0.1788
  186MOL0     C25029   8.355   0.100   6.415  1.0764 -0.2716  0.0180
  186MOL0     C25030   8.280   0.029   6.313  0.2803 -0.7901  0.3831
  186MOL0     C25031   8.147   0.046   6.301  0.9533  0.1772 -0.1369
  186MOL0     C25032   8.061   0.118   6.393  0.5076  0.8167 -0.0175
  186MOL0     O25033   7.923   0.123   6.381  0.6452 -0.1144 -0.7906
  186MOL0     C25034   7.842   0.177   6.491 -0.4085  0.3074 -0.5439
  186MOL0     C25035   7.695   0.136   6.482  0.4667 -0.3710  0.1872
  186MOL0     C25036   7.673  -0.007   6.424  0.2275  0.0060  0.4340
  186MOL0     C25037   7.517  -0.035   6.415 -0.2569  0.5634  0.0178
  186MOL0     C25038   7.465  -0.066   6.546 -0.4517  1.0776 -0.3973
  186MOL0     C25039   7.437  -0.095   6.661 -0.7585 -0.8033 -0.3123
  186MOL0     C25040   8.133   0.181   6.500 -0.6862 -0.2764  0.4555
  186MOL0     C25041   8.277   0.170   6.517 -0.3269  0.8808  0.5880
  186MOL0     C25042   8.337   0.249   6.630  0.5164  0.2821 -0.0929
  186MOL0     H25043   8.719   0.385   6.420  0.5371 -0.0229  0.6594
  186MOL0     H25044   8.971   0.400   6.449  0.5441  0.1244 -1.3331
  186MOL0     H25045   9.203   0.383   6.521  1.0461  0.9039  2.9510
  186MOL0     H25046   9.116   0.315   6.656 -2.6672  0.5298 -1.4031
  186MOL0     H25047   9.393   0.227   6.540  2.6732  3.2228  0.7090
  186MOL0     H25048   9.318   0.142   6.679 -1.6339 -1.3400 -2.2249
  186MOL0     H25049   9.360   0.366   6.802  3.1119  2.2355  1.1703
  186MOL0     H25050   9.434   0.428   6.656  2.0704  1.5483  1.4428
  186MOL0     H25051   9.533   0.169   6.786 -1.3708  1.6063  2.2965
  186MOL0     H25052   9.611   0.247   6.657  0.4182  0.5283  0.6244
  186MOL0     H25053   9.659   0.441   6.803  2.5922 -0.4277  0.3585
  186MOL0     H25054   9.575   0.354   6.943 -0.5622 -1.0435 -1.5858
  186MOL0     H25055   9.752   0.170   6.931  0.4211 -0.5268 -1.6434
  186MOL0     H25056   9.825   0.263   6.810 -0.4311 -0.3493 -0.2917
  186MOL0     H25057   9.757   0.352   7.097 -0.7278 -2.4350 -0.3468
  186MOL0     H25058   9.824   0.461   6.985  0.1501 -0.3427  1.3446
  186MOL0     H25059   9.941   0.218   7.115 -0.0885  0.5415  0.3948
  186MOL0     H25060  10.005   0.249   6.951 -0.4132 -2.4041  0.9468
  186MOL0     H25061   9.982   0.471   7.296  0.6463 -0.9086  0.6343
  186MOL0     H25062  10.216   0.758   7.277  0.4743  0.6390  0.2347
  186MOL0     H25063  10.066   0.687   7.351  0.2125 -3.3065  1.5574
  186MOL0     H25064  10.202   0.538   7.475  0.0172  1.7300  1.7371
  186MOL0     H25065  10.347   0.588   7.380 -0.2000 -1.0399 -2.2522
  186MOL0     H25066  10.321   0.660   7.613  4.0050 -0.4899 -2.3448
  186MOL0     H25067  10.192   0.778   7.567 -1.7427 -2.3006 -3.2801
  186MOL0     H25068  10.340   0.887   7.420  0.2108 -0.7095 -1.1998
  186MOL0     H25069  10.461   0.752   7.454 -1.6187 -2.0672 -0.5533
  186MOL0     H25070  10.591   0.688   7.583  0.3363 -1.3006  0.8022
  186MOL0     H25071  10.735   0.593   7.757  4.2415  1.3047  3.1887
  186MOL0     H25072  10.968   0.753   8.212 -0.2284 -0.1876 -1.2264
  186MOL0     H25073  11.147   0.670   8.350 -3.0539  1.0800 -0.1338
  186MOL0     H25074  11.396   0.610   8.372 -3.9762  1.7936 -0.5727
  186MOL0     H25075  11.270   0.526   8.464 -0.2591  2.8945 -1.6446
  186MOL0     H25076  11.469   0.499   8.573  2.9487  0.9102 -0.3421
  186MOL0     H25077  11.411   0.342   8.516  2.5829 -1.3039  0.7738
  186MOL0     H25078  11.638   0.482   8.378 -0.0030 -0.7151 -2.0619
  186MOL0     H25079  11.654   0.358   8.506 -4.3447 -3.9013  2.0153
  186MOL0     H25080  11.516   0.318   8.247  0.2239 -2.0244 -1.8820
  186MOL0     H25081  11.573   0.183   8.352  1.0247 -0.9757 -3.2873
  186MOL0     H25082  11.747   0.365   8.194 -1.3308 -0.6400 -2.1554
  186MOL0     H25083  11.713   0.197   8.159  4.7743 -0.3324 -0.8417
  186MOL0     H25084  11.850   0.293   8.417 -0.5496 -0.3687  0.4462
  186MOL0     H25085  11.795   0.129   8.396  1.3391  0.5429  3.1047
  186MOL0     H25086  11.980   0.254   8.187 -4.8147 -1.2053 -0.8311
  186MOL0     H25087  11.967   0.094   8.244  0.1020 -0.6329  0.5421
  186MOL0     H25088  12.100   0.201   8.470  0.2091 -0.9862  0.1788
  186MOL0     H25089  12.187   0.190   8.315  1.2021  1.7447  0.8305
  186MOL0     H25090  11.173   0.321   8.104  0.9785 -0.3518  1.9050
  186MOL0     H25091  10.995   0.419   7.965 -2.5871  1.3541  0.3587
  186MOL0     H25092  10.592   0.908   8.019 -0.6602 -0.4382  0.6130
  186MOL0     H25093  10.442   0.988   7.844 -1.2076  0.1315 -1.0546
  186MOL0     H25094   8.981  -0.013   6.521 -2.9744 -2.1025  0.4170
  186MOL0     H25095   8.733  -0.032   6.527 -1.8792  0.2989  0.6228
  186MOL0     H25096   8.335  -0.026   6.238  1.2756 -0.7911  1.1028
  186MOL0     H25097   8.098  -0.003   6.218  1.2571  0.7579 -0.6635
  186MOL0     H25098   7.840   0.286   6.484 -1.1042  0.4434  1.2753
  186MOL0     H25099   7.889   0.146   6.585  1.1573 -0.8233 -1.6348
  186MOL0     H25100   7.637   0.206   6.422 -0.9186 -1.7981 -0.2202
  186MOL0     H25101   7.654   0.149   6.582 -1.3126 -0.6851 -0.4534
  186MOL0     H25102   7.716  -0.081   6.491 -1.2121 -1.2669  0.0170
  186MOL0     H25103   7.717  -0.013   6.324 -0.0734  2.5815  0.0730
  186MOL0     H25104   7.457   0.049   6.380 -0.7100 -0.2986 -1.3337
  186MOL0     H25105   7.507  -0.123   6.351 -1.0049 -0.5273  1.5777
  186MOL0     H25106   7.409  -0.126   6.760 -2.4806  0.8248 -0.2219
  186MOL0     H25107   8.074   0.240   6.569 -0.7616  0.6703 -0.4044
  186MOL0     H25108   8.408   0.319   6.586 -0.0091  0.1541 -1.1657
  186MOL0     H25109   8.257   0.309   6.675 -0.8716 -1.4997 -0.0622
  186MOL0     H25110   8.381   0.190   6.711 -1.2230  0.2788  0.9027
  187MOL0     O25111   8.407   3.629  10.910 -0.2761 -0.3468  0.6949
  187MOL0     C25112   8.326   3.694  10.972 -0.4392 -0.0506  0.6590
  187MOL0     O25113   8.357   3.825  11.023  0.1459  0.4421 -0.3709
  187MOL0     C25114   8.485   3.854  11.013 -1.3297 -0.0479 -1.6179
  187MOL0     C25115   8.541   3.931  10.918  0.8432 -0.6428 -0.1731
  187MOL0     C25116   8.677   3.973  10.913 -0.3658  0.2118  0.2790
  187MOL0     C25117   8.772   3.932  11.009 -0.0560 -0.0935  0.0258
  187MOL0     O25118   8.897   3.992  11.026 -0.2434  0.8629 -0.8735
  187MOL0     C25119   8.884   4.131  11.030 -0.0614 -0.0229  0.2831
  187MOL0     C25120   9.004   4.197  11.106 -0.0393 -0.1573 -0.6410
  187MOL0     C25121   9.107   4.255  11.006  0.5551 -0.3580 -0.1618
  187MOL0     C25122   9.235   4.313  11.069 -0.5645 -0.2094  0.3056
  187MOL0     C25123   9.353   4.333  10.968  0.7656  0.0724  0.2164
  187MOL0     C25124   9.449   4.439  11.015 -0.3247 -0.0033 -0.5851
  187MOL0     C25125   9.529   4.410  11.149  0.5636 -0.6207  0.1591
  187MOL0     C25126   9.620   4.522  11.189  0.5241 -0.3001 -0.5541
  187MOL0     N25127   9.712   4.558  11.081 -0.3452  0.6806 -0.6790
  187MOL0     C25128   9.789   4.463  11.021  1.2232  0.1450 -0.1233
  187MOL0     C25129   9.854   4.539  10.930 -0.6331  0.3439 -0.3502
  187MOL0     C25130   9.954   4.467  10.847 -0.5446  0.2591  0.3691
  187MOL0     C25131  10.094   4.531  10.858  0.1516 -0.0037  0.2211
  187MOL0     C25132  10.138   4.534  11.005  0.8542 -0.0178  0.8646
  187MOL0     C25133  10.288   4.564  11.008 -0.0299 -0.0925  0.2477
  187MOL0     O25134  10.327   4.674  10.930  0.4536  0.0638  0.4973
  187MOL0     C25135  10.462   4.695  10.899 -1.1987 -0.5436 -0.3071
  187MOL0     C25136  10.559   4.637  10.972  0.1143  0.4945  0.4636
  187MOL0     C25137  10.692   4.663  10.942  0.3426  0.0988  1.0953
  187MOL0     C25138  10.731   4.748  10.839  0.6367  0.2148  0.8683
  187MOL0     C25139  10.871   4.786  10.818 -0.3911  0.5957  0.2339
  187MOL0     O25140  10.912   4.845  10.706 -0.7343  0.8885 -0.2338
  187MOL0     C25141  11.050   4.865  10.689 -0.1626  0.0456 -0.3649
  187MOL0     C25142  11.128   4.785  10.616  0.0358  0.0007 -0.0120
  187MOL0     C25143  11.265   4.823  10.591  0.4877  0.0892 -0.2777
  187MOL0     C25144  11.322   4.938  10.646 -0.0740  0.3602 -0.0530
  187MOL0     O25145  11.460   4.946  10.632  0.2399  0.2843 -0.8226
  187MOL0     C25146  11.526   5.044  10.703 -0.1829 -0.3303  0.0615
  187MOL0     C25147  11.672   5.029  10.664  0.1285 -0.2168 -0.4295
  187MOL0     C25148  11.763   5.102  10.755  0.4962 -0.5204  0.3386
  187MOL0     C25149  11.909   5.106  10.697  0.4585  0.0032  0.5927
  187MOL0     C25150  12.012   5.157  10.801  0.6145  0.4761 -0.4944
  187MOL0     C25151  12.155   5.166  10.741 -0.2318  0.3004  0.0648
  187MOL0     C25152  12.241   5.252  10.825  0.0726  0.3549 -0.2309
  187MOL0     C25153  12.394   5.209  10.804  0.3575 -0.0798  0.4237
  187MOL0    Cl25154  12.483   5.310  10.927  0.1061 -0.4974 -0.0148
  187MOL0     C25155  11.244   5.028  10.713 -0.0270 -0.0010  0.8712
  187MOL0     C25156  11.111   4.991  10.740  0.2774 -0.3967  0.5113
  187MOL0     O25157  10.937   4.771  10.917  0.1216  0.8707  0.2451
  187MOL0     C25158  10.632   4.792  10.756  0.5380 -0.3803  0.3587
  187MOL0     C25159  10.495   4.765  10.781  0.4973  0.7216 -0.0780
  187MOL0     N25160   9.820   4.673  10.935 -0.0064  0.7348  0.5951
  187MOL0     N25161   9.730   4.677  11.029  0.5182 -0.0517 -0.2949
  187MOL0     C25162   8.717   3.848  11.109  0.5052  0.3954 -0.3466
  187MOL0     C25163   8.579   3.802  11.115 -0.6036  0.0858  0.8185
  187MOL0     C25164   8.197   3.631  11.007 -0.3561  0.1505 -0.0581
  187MOL0     C25165   8.078   3.712  11.011 -1.0767  0.5417 -0.3680
  187MOL0     C25166   7.956   3.654  11.036 -0.3307  0.2149  0.1319
  187MOL0     C25167   7.938   3.522  11.075  0.0216 -0.0023 -0.4177
  187MOL0     O25168   7.816   3.472  11.114 -0.5716  0.2510 -0.1945
  187MOL0     C25169   7.740   3.561  11.204  0.0096  0.0011  0.3604
  187MOL0     C25170   7.604   3.498  11.239 -1.1751  0.3248  0.0194
  187MOL0     C25171   7.542   3.548  11.369  0.3393 -0.0659  0.8464
  187MOL0     C25172   7.391   3.509  11.385 -0.0404  0.0029  0.3155
  187MOL0     C25173   7.308   3.601  11.295  0.0983  0.3903 -0.9515
  187MOL0     C25174   7.219   3.658  11.226 -0.6540  0.5396 -0.6887
  187MOL0     C25175   8.052   3.436  11.082 -0.2488 -0.9076 -0.3402
  187MOL0     C25176   8.182   3.489  11.042 -0.2778  0.7334 -0.4657
  187MOL0     C25177   8.299   3.385  11.042  0.2806 -0.0172  0.1285
  187MOL0     H25178   8.475   3.964  10.840  2.3513  0.1965 -1.1432
  187MOL0     H25179   8.726   4.031  10.836  0.8144  3.2328  3.0804
  187MOL0     H25180   8.883   4.172  10.929  0.1451  2.0074  1.0582
  187MOL0     H25181   8.790   4.160  11.079  1.1824  0.2770  2.6123
  187MOL0     H25182   9.050   4.130  11.179 -1.0907  0.1158  0.3122
  187MOL0     H25183   8.970   4.287  11.159  0.7503 -0.1347 -0.1683
  187MOL0     H25184   9.046   4.321  10.943  0.3413 -3.1668 -3.1898
  187MOL0     H25185   9.139   4.172  10.942 -1.4718 -1.9004  0.7155
  187MOL0     H25186   9.210   4.411  11.110 -1.8104 -0.6601  0.6585
  187MOL0     H25187   9.261   4.248  11.153  0.6000 -0.3010 -0.1076
  187MOL0     H25188   9.396   4.240  10.930 -1.3104 -1.2519  0.9452
  187MOL0     H25189   9.310   4.369  10.874 -0.1992 -1.1339  0.1758
  187MOL0     H25190   9.519   4.455  10.932  0.2516  0.1017 -0.0770
  187MOL0     H25191   9.398   4.536  11.021  1.3259  0.9212 -0.9527
  187MOL0     H25192   9.588   4.319  11.135 -2.6856 -2.6380 -1.7925
  187MOL0     H25193   9.465   4.379  11.232  0.5598 -4.6146 -1.1189
  187MOL0     H25194   9.566   4.614  11.210 -1.1528 -2.2130  5.4129
  187MOL0     H25195   9.671   4.495  11.282  2.2230  0.9072 -1.0936
  187MOL0     H25196   9.790   4.356  11.038 -3.7461  0.1627  2.1632
  187MOL0     H25197   9.970   4.362  10.874  0.1568 -0.0238 -1.0478
  187MOL0     H25198   9.920   4.471  10.744  2.9999  0.0044 -0.9510
  187MOL0     H25199  10.174   4.484  10.800  2.1198  0.9561  1.9929
  187MOL0     H25200  10.095   4.637  10.831  1.8217 -0.6303 -2.6529
  187MOL0     H25201  10.118   4.436  11.049  2.7836 -0.3284  1.1005
  187MOL0     H25202  10.076   4.603  11.063 -0.0778  0.0979 -0.2048
  187MOL0     H25203  10.347   4.478  10.973 -1.5824 -1.0356 -0.1496
  187MOL0     H25204  10.312   4.582  11.113  0.7805  2.2253 -0.2625
  187MOL0     H25205  10.537   4.575  11.059  2.8285  0.8480  1.4871
  187MOL0     H25206  10.774   4.619  10.998  1.7088  0.8722 -0.2406
  187MOL0     H25207  11.094   4.693  10.571 -1.0342  0.5554 -0.3883
  187MOL0     H25208  11.335   4.757  10.541 -0.4352 -0.8111 -0.4250
  187MOL0     H25209  11.488   5.142  10.676 -1.2557 -0.7568 -0.0174
  187MOL0     H25210  11.521   5.027  10.811  1.4204  0.6509  0.3281
  187MOL0     H25211  11.705   4.926  10.649  2.4708  0.1196  1.7277
  187MOL0     H25212  11.698   5.069  10.565 -1.0216 -0.3002 -0.7735
  187MOL0     H25213  11.740   5.208  10.767 -0.0534 -0.4841 -0.8701
  187MOL0     H25214  11.763   5.046  10.848  2.7190 -1.8533 -0.3835
  187MOL0     H25215  11.911   5.160  10.602 -0.7482 -3.5778 -1.6809
  187MOL0     H25216  11.939   5.002  10.680 -0.5157 -0.3453  0.9535
  187MOL0     H25217  12.001   5.092  10.888  2.8564  0.6904  0.0224
  187MOL0     H25218  11.985   5.259  10.830  1.4320  0.8718 -1.0831
  187MOL0     H25219  12.192   5.064  10.752  3.0158  1.4754  1.0598
  187MOL0     H25220  12.159   5.197  10.636 -0.2373  3.2003  0.8383
  187MOL0     H25221  12.224   5.249  10.933 -0.8069 -0.8645 -0.3909
  187MOL0     H25222  12.235   5.355  10.789  1.2689  0.5675  0.1110
  187MOL0     H25223  12.407   5.105  10.836 -1.1171 -0.0456  1.2331
  187MOL0     H25224  12.436   5.234  10.706  2.0450 -0.7118  0.9425
  187MOL0     H25225  11.275   5.117  10.767  0.1723 -1.0113  2.4943
  187MOL0     H25226  11.051   5.066  10.790  1.6213  1.2004 -0.1964
  187MOL0     H25227  10.649   4.848  10.665 -1.1305 -0.9505 -0.3449
  187MOL0     H25228  10.411   4.786  10.716 -1.1962 -0.1801  1.6859
  187MOL0     H25229   8.784   3.821  11.190  1.4956  3.3861 -0.0432
  187MOL0     H25230   8.560   3.731  11.195 -2.3871 -0.4720 -0.0314
  187MOL0     H25231   8.082   3.815  10.977 -2.2561  0.3455 -1.1740
  187MOL0     H25232   7.868   3.717  11.032 -0.5995 -0.0803  1.1694
  187MOL0     H25233   7.712   3.660  11.167 -4.5675 -0.7653  1.1712
  187MOL0     H25234   7.802   3.575  11.293 -0.8232 -2.2015  1.3394
  187MOL0     H25235   7.612   3.391  11.258 -0.0296  0.7224  1.9935
  187MOL0     H25236   7.536   3.515  11.155 -2.3216 -0.6743  0.7231
  187MOL0     H25237   7.549   3.657  11.374 -2.5534  0.4355 -2.1226
  187MOL0     H25238   7.609   3.512  11.447  2.2829 -1.0263 -1.1416
  187MOL0     H25239   7.371   3.402  11.372 -3.0368  0.3466  1.3145
  187MOL0     H25240   7.366   3.521  11.491 -2.0905 -2.4854  0.2200
  187MOL0     H25241   7.155   3.716  11.163 -0.3545  1.4975 -0.1464
  187MOL0     H25242   8.039   3.332  11.112  0.8469 -0.4893  1.7998
  187MOL0     H25243   8.386   3.434  11.087  0.2597 -0.9263  1.2105
  187MOL0     H25244   8.274   3.292  11.095  2.2735 -0.7702 -0.1686
  187MOL0     H25245   8.332   3.359  10.941  0.3994  0.5454  0.0224
  188MOL0     O25246   3.961   7.384  10.599 -0.4829  0.2850  0.0525
  188MOL0     C25247   3.991   7.466  10.509  0.2662  0.4795  0.1304
  188MOL0     O25248   4.110   7.521  10.470  0.5083  0.1549 -0.8868
  188MOL0     C25249   4.228   7.452  10.503  0.4747  0.8411 -0.1336
  188MOL0     C25250   4.344   7.530  10.502  0.2129  0.1440 -0.3557
  188MOL0     C25251   4.472   7.479  10.556  0.6060  0.5203  0.8850
  188MOL0     C25252   4.481   7.350  10.596 -0.3492  0.1753  0.8974
  188MOL0     O25253   4.602   7.298  10.648 -0.1030 -0.1963  0.2328
  188MOL0     C25254   4.718   7.382  10.670 -0.9632  0.4620  0.5582
  188MOL0     C25255   4.846   7.300  10.692  0.4309  0.3024  0.4964
  188MOL0     C25256   4.963   7.386  10.716  0.2975  0.1081  0.3300
  188MOL0     C25257   5.084   7.303  10.716  0.1794 -1.0839  0.1238
  188MOL0     C25258   5.227   7.368  10.726  0.2602 -0.2104 -0.3780
  188MOL0     C25259   5.227   7.500  10.803  0.8393 -0.4612 -1.0105
  188MOL0     C25260   5.351   7.590  10.793 -0.5676 -0.2712  0.0043
  188MOL0     C25261   5.479   7.513  10.839 -0.2478 -0.6293  1.4283
  188MOL0     N25262   5.590   7.531  10.744  0.0932 -0.4057 -0.0633
  188MOL0     C25263   5.664   7.647  10.710  0.4783  0.1014 -0.3585
  188MOL0     C25264   5.746   7.610  10.610  0.2519  0.0736 -1.0175
  188MOL0     C25265   5.829   7.713  10.531  0.7173  0.6675  0.2598
  188MOL0     C25266   5.959   7.744  10.590 -0.5873  0.0692 -0.4285
  188MOL0     C25267   6.041   7.618  10.565  0.3345  0.0631  0.4896
  188MOL0     C25268   6.179   7.661  10.521 -0.5439  0.6739 -0.4603
  188MOL0     O25269   6.177   7.678  10.380  0.2826  0.3234 -0.4934
  188MOL0     C25270   6.259   7.766  10.320 -0.4199 -0.1016 -0.8526
  188MOL0     C25271   6.370   7.834  10.382  0.5790  0.4780 -0.3454
  188MOL0     C25272   6.461   7.917  10.317  0.0530  0.6433 -0.6031
  188MOL0     C25273   6.444   7.925  10.177  0.3061  0.5335 -0.0122
  188MOL0     C25274   6.536   8.007  10.096 -0.6570 -0.1159  0.2267
  188MOL0     O25275   6.657   8.014  10.154 -0.9149 -0.1000  0.0890
  188MOL0     C25276   6.744   8.072  10.060 -0.0786 -1.2358  0.4314
  188MOL0     C25277   6.755   8.211  10.038  0.1509  0.1662 -0.5431
  188MOL0     C25278   6.862   8.271   9.972  0.4659  0.1615  0.7175
  188MOL0     C25279   6.966   8.189   9.921  0.3324 -0.2330 -0.2365
  188MOL0     O25280   7.069   8.249   9.855  0.4803 -0.9991 -0.1040
  188MOL0     C25281   7.078   8.394   9.840 -0.7103  0.8512 -0.4031
  188MOL0     C25282   7.213   8.407   9.765  0.4719 -0.2350  1.1212
  188MOL0     C25283   7.220   8.371   9.616 -0.2318  0.7851  0.2867
  188MOL0     C25284   7.321   8.452   9.533 -0.0131  0.1776  0.1195
  188MOL0     C25285   7.475   8.430   9.552 -0.3132 -0.2775  0.0632
  188MOL0     C25286   7.563   8.548   9.506  0.6333 -0.2886  0.0948
  188MOL0     C25287   7.713   8.523   9.539 -0.1930 -0.2192  0.0721
  188MOL0     C25288   7.798   8.603   9.438 -0.0098  0.8345 -1.2600
  188MOL0    Cl25289   7.804   8.530   9.274 -0.1946  0.0565 -0.0628
  188MOL0     C25290   6.960   8.054   9.947 -0.7751 -0.3678  0.7426
  188MOL0     C25291   6.851   8.002  10.007 -0.2221 -0.2608  0.5294
  188MOL0     O25292   6.500   8.057   9.989  0.3607  0.0252  0.3824
  188MOL0     C25293   6.344   7.840  10.117 -1.0270  0.2933 -0.4554
  188MOL0     C25294   6.252   7.764  10.185  0.0320  0.4488 -0.8360
  188MOL0     N25295   5.737   7.473  10.609 -0.0346 -0.0766 -0.6036
  188MOL0     N25296   5.639   7.430  10.679  0.0885  0.2840  0.9171
  188MOL0     C25297   4.371   7.267  10.578 -0.1486 -0.1499 -0.1933
  188MOL0     C25298   4.246   7.317  10.538 -1.2118  0.8396 -0.0557
  188MOL0     C25299   3.870   7.507  10.435 -0.3421 -0.0241  0.7786
  188MOL0     C25300   3.741   7.476  10.484 -0.5190 -0.0847 -0.0589
  188MOL0     C25301   3.620   7.519  10.428 -0.4173  0.0082  0.1745
  188MOL0     C25302   3.613   7.605  10.316 -0.6546 -0.6465  0.4904
  188MOL0     O25303   3.505   7.670  10.254  0.2742  0.6236 -0.5613
  188MOL0     C25304   3.382   7.601  10.276  0.0838 -0.0856 -0.3010
  188MOL0     C25305   3.299   7.676  10.379 -0.4359  0.8308  0.2649
  188MOL0     C25306   3.216   7.577  10.455  0.2765 -0.3794  0.4055
  188MOL0     C25307   3.123   7.488  10.369 -0.0500  0.2689  0.1137
  188MOL0     C25308   3.045   7.564  10.269  0.5548 -0.0324  0.4970
  188MOL0     C25309   2.970   7.618  10.188  0.4872  0.1288  0.0864
  188MOL0     C25310   3.740   7.617  10.262  0.6311 -0.8969  0.3885
  188MOL0     C25311   3.860   7.580  10.315 -0.2854 -0.2950 -0.3184
  188MOL0     C25312   3.977   7.614  10.233 -0.6692 -0.6876  1.1244
  188MOL0     H25313   4.330   7.630  10.464 -1.3330 -0.0417 -0.3278
  188MOL0     H25314   4.552   7.552  10.565  2.9261 -1.9492  1.3892
  188MOL0     H25315   4.733   7.452  10.586 -3.3983 -0.1001 -0.4248
  188MOL0     H25316   4.691   7.444  10.756 -1.5174  0.0042  0.7163
  188MOL0     H25317   4.861   7.241  10.601 -1.2491 -1.3737  1.2348
  188MOL0     H25318   4.827   7.245  10.784  1.4810 -0.0984  0.4771
  188MOL0     H25319   4.956   7.435  10.814  3.5823  2.0520 -0.2799
  188MOL0     H25320   4.962   7.456  10.633 -3.0456 -0.0930  0.0356
  188MOL0     H25321   5.071   7.241  10.806 -1.2642  0.1277  0.7834
  188MOL0     H25322   5.080   7.228  10.636 -1.6216 -0.8917  0.0005
  188MOL0     H25323   5.292   7.289  10.763 -0.8166 -1.3336 -0.8160
  188MOL0     H25324   5.266   7.381  10.625 -0.3769 -0.3937 -0.6515
  188MOL0     H25325   5.139   7.552  10.765 -0.6223 -0.6457  1.8160
  188MOL0     H25326   5.196   7.484  10.907 -1.4672  0.3368 -1.5074
  188MOL0     H25327   5.330   7.675  10.859  0.5152 -1.7293  2.3962
  188MOL0     H25328   5.362   7.624  10.690  1.2591 -0.7803 -0.0095
  188MOL0     H25329   5.502   7.554  10.938  0.3471 -0.4227  1.2059
  188MOL0     H25330   5.454   7.409  10.857  1.0144 -1.0391  0.9183
  188MOL0     H25331   5.668   7.749  10.747 -1.7676 -0.0161  0.3688
  188MOL0     H25332   5.837   7.680  10.427 -0.4072 -1.2625  0.7391
  188MOL0     H25333   5.771   7.806  10.527  0.9645  0.8617  1.0086
  188MOL0     H25334   5.991   7.836  10.541 -0.9242  0.4095 -0.0180
  188MOL0     H25335   5.945   7.776  10.694  0.3587  1.2989 -0.6489
  188MOL0     H25336   5.995   7.548  10.494  0.0016 -0.0273  0.7959
  188MOL0     H25337   6.056   7.564  10.659 -1.2220  1.2228  1.4585
  188MOL0     H25338   6.250   7.584  10.552 -0.8883  0.0511 -1.1910
  188MOL0     H25339   6.205   7.753  10.574 -0.3289  0.4298 -0.1401
  188MOL0     H25340   6.376   7.826  10.490 -0.1671 -1.2495 -0.4119
  188MOL0     H25341   6.536   7.971  10.374  0.3394 -1.1337  0.8130
  188MOL0     H25342   6.681   8.271  10.090  0.8935  0.0976  0.6286
  188MOL0     H25343   6.871   8.378   9.983  3.3548 -0.0776  1.4553
  188MOL0     H25344   6.990   8.431   9.786 -1.3589  1.0416  0.7605
  188MOL0     H25345   7.075   8.442   9.938 -0.6322 -1.1424  0.6262
  188MOL0     H25346   7.244   8.512   9.774  0.3060 -0.0256 -0.4182
  188MOL0     H25347   7.291   8.350   9.817  0.7724 -0.4476  0.4488
  188MOL0     H25348   7.236   8.264   9.604 -1.3625  0.7521 -1.3037
  188MOL0     H25349   7.126   8.405   9.569  0.4040 -0.6912 -2.2503
  188MOL0     H25350   7.301   8.556   9.561  1.0130  0.2393  0.6983
  188MOL0     H25351   7.295   8.434   9.428  1.8220  0.0121 -0.3377
  188MOL0     H25352   7.498   8.348   9.485 -1.3362 -2.2350  1.9809
  188MOL0     H25353   7.503   8.402   9.654 -1.2761  1.5402  0.8886
  188MOL0     H25354   7.549   8.560   9.398  0.0221 -2.7633 -0.1657
  188MOL0     H25355   7.525   8.631   9.565 -0.0975 -2.0027  2.1583
  188MOL0     H25356   7.729   8.415   9.551 -4.0419 -0.8642  0.8692
  188MOL0     H25357   7.721   8.569   9.638 -0.7916  2.4678 -1.0613
  188MOL0     H25358   7.765   8.707   9.433  0.5045  1.4687  3.7731
  188MOL0     H25359   7.898   8.607   9.480 -0.6038 -2.1548  0.7736
  188MOL0     H25360   7.036   7.984   9.911  0.2054  1.8347 -1.8234
  188MOL0     H25361   6.850   7.894   9.995 -2.1341 -0.3946  1.5163
  188MOL0     H25362   6.330   7.833  10.010 -2.4653 -0.5355 -0.2421
  188MOL0     H25363   6.176   7.705  10.134  0.3545 -0.3195 -0.4574
  188MOL0     H25364   4.378   7.165  10.616 -2.2781  0.1981  1.3101
  188MOL0     H25365   4.160   7.250  10.546 -1.1321  0.7946  0.5148
  188MOL0     H25366   3.735   7.417  10.575  0.5574  0.7009  0.5374
  188MOL0     H25367   3.532   7.489  10.485  0.6510 -0.2703  1.7235
  188MOL0     H25368   3.396   7.495  10.301  0.3521 -1.1246 -4.2163
  188MOL0     H25369   3.333   7.607  10.179  1.3757  0.4536 -0.9450
  188MOL0     H25370   3.238   7.750  10.327  0.1570  0.1944 -1.4404
  188MOL0     H25371   3.357   7.726  10.456 -0.5205 -0.1372  0.9778
  188MOL0     H25372   3.156   7.624  10.533  0.9291  0.7203  0.2734
  188MOL0     H25373   3.281   7.501  10.498 -3.6816 -2.3172  3.5636
  188MOL0     H25374   3.191   7.415  10.323  1.1177  2.2567 -1.4547
  188MOL0     H25375   3.046   7.437  10.429  0.4770 -0.3465  0.2853
  188MOL0     H25376   2.898   7.666  10.125  1.9924 -0.7554 -2.4531
  188MOL0     H25377   3.733   7.677  10.172 -1.6840 -2.4912 -0.6104
  188MOL0     H25378   4.024   7.705  10.272 -0.4323 -0.4892  0.4035
  188MOL0     H25379   4.053   7.535  10.238  1.3835  0.9772 -0.9971
  188MOL0     H25380   3.949   7.633  10.129  0.0670 -1.8866  0.6803
  189MOL0     O25381   0.642  10.636   0.110 -0.1507 -0.3814  0.8142
  189MOL0     C25382   0.576  10.668   0.201  0.2929 -0.8599 -0.0449
  189MOL0     O25383   0.605  10.778   0.281  0.6080 -0.3930  0.3731
  189MOL0     C25384   0.700  10.867   0.243 -0.5672 -0.3222 -0.1201
  189MOL0     C25385   0.693  10.944   0.128 -0.4605 -0.2345  0.3533
  189MOL0     C25386   0.795  11.028   0.088  0.5235 -0.6415  0.7446
  189MOL0     C25387   0.914  11.019   0.152 -0.2945  0.0075  0.4538
  189MOL0     O25388   1.029  11.092   0.108  0.4301  1.0047 -0.3332
  189MOL0     C25389   1.029  11.219   0.035 -0.3096 -0.8465 -1.0916
  189MOL0     C25390   1.175  11.277   0.043  0.3893 -0.9985  0.5304
  189MOL0     C25391   1.278  11.191  -0.030 -0.7392 -0.3128 -0.3787
  189MOL0     C25392   1.420  11.235   0.023  0.8162  0.4796 -0.1962
  189MOL0     C25393   1.520  11.127  -0.007  0.4109  0.7945  0.8201
  189MOL0     C25394   1.597  11.130  -0.136 -0.1539 -0.4640  0.5991
  189MOL0     C25395   1.692  11.266  -0.155 -0.5324 -0.4879 -0.1006
  189MOL0     C25396   1.833  11.253  -0.089 -0.0130 -0.6220  1.0608
  189MOL0     N25397   1.931  11.352  -0.135 -0.0007 -0.1597  0.6257
  189MOL0     C25398   1.932  11.432  -0.253 -0.4324  0.8452 -0.1858
  189MOL0     C25399   2.036  11.515  -0.242  0.0424 -0.3121 -0.1100
  189MOL0     C25400   2.086  11.598  -0.353  0.4826 -1.3469 -0.0398
  189MOL0     C25401   2.116  11.744  -0.305  0.0174  0.4189  0.6134
  189MOL0     C25402   2.152  11.837  -0.427  0.1820 -1.1203  0.2502
  189MOL0     C25403   2.274  11.807  -0.514 -0.0166 -0.1727 -0.1559
  189MOL0     O25404   2.367  11.909  -0.545  0.4047  0.6392 -0.6545
  189MOL0     C25405   2.442  11.971  -0.445 -0.5863  0.9387  1.4783
  189MOL0     C25406   2.455  11.917  -0.318 -0.1757 -0.4016  0.7232
  189MOL0     C25407   2.534  11.979  -0.217 -0.9165  0.2374 -0.3361
  189MOL0     C25408   2.612  12.094  -0.254  0.1720  0.8733  0.7974
  189MOL0     C25409   2.701  12.163  -0.163 -0.8249  0.6917  0.3510
  189MOL0     O25410   2.814  12.218  -0.217 -0.0774  0.5626  0.4103
  189MOL0     C25411   2.895  12.287  -0.131  0.4853 -1.1089  0.9219
  189MOL0     C25412   2.950  12.244  -0.004  0.8408  0.2622 -0.4123
  189MOL0     C25413   3.033  12.333   0.063  0.1651  1.2948  0.6343
  189MOL0     C25414   3.074  12.461   0.015  0.4375  0.1452 -0.3124
  189MOL0     O25415   3.164  12.534   0.090  0.9093 -0.3722  0.1777
  189MOL0     C25416   3.233  12.645   0.034  0.0225  0.2902  0.4992
  189MOL0     C25417   3.353  12.690   0.128  0.7432 -0.9765  0.6244
  189MOL0     C25418   3.414  12.818   0.086 -1.3319  0.4014 -0.0859
  189MOL0     C25419   3.520  12.873   0.187  0.1714  0.2469 -0.7984
  189MOL0     C25420   3.550  13.019   0.164 -0.0988  0.2040 -0.1276
  189MOL0     C25421   3.633  13.083   0.281 -0.8095 -0.4603 -0.4849
  189MOL0     C25422   3.781  13.037   0.296  0.0553  0.2319 -0.4257
  189MOL0     C25423   3.872  13.081   0.187  0.9475  0.8632 -0.1339
  189MOL0    Cl25424   3.945  13.236   0.208  0.0925  0.1149 -0.0929
  189MOL0     C25425   3.019  12.501  -0.108 -0.8765 -0.2639  0.0211
  189MOL0     C25426   2.931  12.416  -0.176  0.1321 -0.2074  0.6819
  189MOL0     O25427   2.667  12.159  -0.046 -0.3065  0.7210  0.9984
  189MOL0     C25428   2.605  12.137  -0.388  0.3372  1.0632  0.2756
  189MOL0     C25429   2.532  12.069  -0.488 -0.5863 -0.5266  0.3365
  189MOL0     N25430   2.094  11.495  -0.117 -0.0550 -0.2312 -0.4981
  189MOL0     N25431   2.042  11.395  -0.061  0.5209  0.1272 -0.3527
  189MOL0     C25432   0.924  10.943   0.266 -0.7274 -0.1134  0.2924
  189MOL0     C25433   0.815  10.869   0.308  0.3853  0.2069  0.3006
  189MOL0     C25434   0.458  10.591   0.222 -0.0253 -0.5736 -0.4631
  189MOL0     C25435   0.397  10.615   0.343  0.2021  0.3014 -0.0061
  189MOL0     C25436   0.277  10.548   0.376  0.0992  0.3143  0.5270
  189MOL0     C25437   0.225  10.447   0.286 -0.3375 -0.7279 -1.3114
  189MOL0     O25438   0.120  10.378   0.337 -0.5870 -0.0807 -0.7493
  189MOL0     C25439   0.152  10.297   0.451  0.8029 -0.2991 -0.7086
  189MOL0     C25440   0.019  10.233   0.506  0.1050  1.1319 -0.2908
  189MOL0     C25441   0.015  10.082   0.482  0.0487 -0.3205  0.8540
  189MOL0     C25442  -0.126  10.024   0.529 -0.1305 -0.0960  0.3908
  189MOL0     C25443  -0.123   9.886   0.493 -0.3523 -0.0807 -0.2718
  189MOL0     C25444  -0.118   9.766   0.485 -0.0922 -0.2668  1.3986
  189MOL0     C25445   0.281  10.440   0.166  0.0347  0.7381  0.7527
  189MOL0     C25446   0.405  10.497   0.130  0.2698  1.2141  0.2930
  189MOL0     C25447   0.449  10.479  -0.016 -0.1399 -0.1137 -0.2426
  189MOL0     H25448   0.597  10.949   0.078 -0.2808 -0.9454 -0.0667
  189MOL0     H25449   0.767  11.091   0.005  0.9440  1.7742  2.3540
  189MOL0     H25450   1.000  11.207  -0.070  3.1684  0.2551 -2.3272
  189MOL0     H25451   0.966  11.297   0.079 -0.4800 -1.8863  0.6073
  189MOL0     H25452   1.201  11.305   0.146  2.3166  3.8415 -0.9906
  189MOL0     H25453   1.169  11.371  -0.012 -3.3601 -0.9594  0.7732
  189MOL0     H25454   1.275  11.202  -0.139  0.2696 -2.8112 -0.7119
  189MOL0     H25455   1.254  11.086  -0.012  0.2694 -0.3781  0.6209
  189MOL0     H25456   1.442  11.331  -0.024  0.9252  0.7582  0.4163
  189MOL0     H25457   1.411  11.245   0.131  0.9613  1.2248 -0.2481
  189MOL0     H25458   1.594  11.120   0.074 -1.9829  2.3474  3.3187
  189MOL0     H25459   1.466  11.032  -0.003 -0.1453  0.8993 -2.0607
  189MOL0     H25460   1.658  11.040  -0.147  3.3256  1.4994  2.4243
  189MOL0     H25461   1.536  11.124  -0.227  2.7849 -0.6703 -1.4867
  189MOL0     H25462   1.647  11.360  -0.120  2.1624  1.1717 -0.7731
  189MOL0     H25463   1.701  11.271  -0.264 -1.1528 -2.5159 -0.2902
  189MOL0     H25464   1.819  11.269   0.018 -2.8551  0.6916  0.5911
  189MOL0     H25465   1.876  11.154  -0.109 -1.2626 -1.1814  1.1063
  189MOL0     H25466   1.857  11.421  -0.330 -0.9758 -0.0721  0.4564
  189MOL0     H25467   2.163  11.550  -0.414  1.8228  0.9935 -0.3468
  189MOL0     H25468   1.999  11.616  -0.417  1.8150 -2.2176 -2.2232
  189MOL0     H25469   2.020  11.778  -0.267 -0.6559 -0.6809 -0.0233
  189MOL0     H25470   2.195  11.732  -0.231  2.8812 -1.7905 -2.4616
  189MOL0     H25471   2.167  11.933  -0.377  1.1008 -0.0777 -1.9148
  189MOL0     H25472   2.064  11.829  -0.491  0.5698  3.2304 -1.1210
  189MOL0     H25473   2.239  11.764  -0.609  0.7786 -0.4917 -0.3116
  189MOL0     H25474   2.332  11.730  -0.464  1.6309 -0.3077 -2.1568
  189MOL0     H25475   2.405  11.825  -0.291  1.0923 -0.3916  3.4319
  189MOL0     H25476   2.547  11.932  -0.120 -1.3740 -1.5243 -1.0871
  189MOL0     H25477   2.933  12.144   0.035  1.7339 -0.4477 -1.7696
  189MOL0     H25478   3.067  12.275   0.148  0.9694 -1.4633 -1.4115
  189MOL0     H25479   3.267  12.629  -0.069 -1.3334  0.9914 -0.0814
  189MOL0     H25480   3.163  12.728   0.045  4.4113  4.1718  2.4667
  189MOL0     H25481   3.320  12.714   0.229  1.1116  0.9678  0.3246
  189MOL0     H25482   3.430  12.613   0.124  0.4692 -1.2009 -1.5761
  189MOL0     H25483   3.462  12.809  -0.012  0.6406  1.9862  0.6494
  189MOL0     H25484   3.335  12.893   0.072 -0.9522  0.4900 -2.0983
  189MOL0     H25485   3.594  12.794   0.193 -2.5162 -2.4042  0.1526
  189MOL0     H25486   3.484  12.867   0.290  2.5252 -1.9668 -0.0149
  189MOL0     H25487   3.457  13.076   0.156  0.0239  0.5717  0.8955
  189MOL0     H25488   3.596  13.029   0.065 -0.7785 -1.1242 -0.5998
  189MOL0     H25489   3.632  13.193   0.273 -0.6546 -0.1361  2.6055
  189MOL0     H25490   3.592  13.063   0.381 -0.3305  2.5430  0.4272
  189MOL0     H25491   3.798  12.932   0.273  1.2860  0.9837 -3.5077
  189MOL0     H25492   3.825  13.060   0.393 -1.3238 -2.1371  0.8450
  189MOL0     H25493   3.958  13.014   0.180 -2.3169 -3.6043 -1.9057
  189MOL0     H25494   3.819  13.066   0.093 -1.6811 -6.4894  1.8646
  189MOL0     H25495   3.037  12.599  -0.152 -0.8694 -0.7280 -1.0642
  189MOL0     H25496   2.892  12.442  -0.274  1.8017 -0.7353 -0.1619
  189MOL0     H25497   2.673  12.210  -0.431  1.8097 -1.5194 -2.0553
  189MOL0     H25498   2.522  12.102  -0.591  0.4934 -2.4282 -0.4291
  189MOL0     H25499   1.018  10.934   0.319 -0.4615 -2.0846 -0.4578
  189MOL0     H25500   0.827  10.792   0.384 -0.1804  0.2068  0.3892
  189MOL0     H25501   0.433  10.688   0.415  0.0836  0.7291 -0.3768
  189MOL0     H25502   0.228  10.585   0.465 -1.6538  3.1517 -1.4557
  189MOL0     H25503   0.197  10.358   0.530  1.2436  0.9388 -1.8799
  189MOL0     H25504   0.220  10.213   0.432  0.0214 -0.6764 -1.9009
  189MOL0     H25505  -0.072  10.265   0.454  0.5133 -1.2342 -2.6940
  189MOL0     H25506  -0.000  10.260   0.610 -0.6817  0.7298 -0.3241
  189MOL0     H25507   0.095  10.036   0.541 -0.2138  1.0854  2.3912
  189MOL0     H25508   0.033  10.063   0.376  0.2056 -2.6325  1.2307
  189MOL0     H25509  -0.143  10.032   0.637  0.4633  0.3666  0.4621
  189MOL0     H25510  -0.205  10.075   0.473  0.6383 -1.4386 -2.0830
  189MOL0     H25511  -0.101   9.660   0.484 -0.8246 -0.4972  4.2169
  189MOL0     H25512   0.252  10.358   0.101  1.5147  0.3944  0.4824
  189MOL0     H25513   0.372  10.439  -0.083 -0.2285  0.4520 -0.4829
  189MOL0     H25514   0.487  10.573  -0.057  2.7885 -0.4026  1.4983
  189MOL0     H25515   0.527  10.403  -0.023 -1.4640 -1.5050 -0.3616
  190MOL0     O25516   4.786   1.380   5.941  0.0966 -0.0023  0.6549
  190MOL0     C25517   4.786   1.269   5.879 -0.5642  0.1207 -1.5301
  190MOL0     O25518   4.684   1.225   5.787  1.2841 -0.4036 -0.1813
  190MOL0     C25519   4.608   1.311   5.710  0.1182 -0.1313  0.6761
  190MOL0     C25520   4.483   1.272   5.678  1.1254  0.0093  0.3085
  190MOL0     C25521   4.389   1.352   5.609  0.5931 -0.3804  0.3517
  190MOL0     C25522   4.431   1.479   5.568 -0.1129  0.0808 -1.3283
  190MOL0     O25523   4.338   1.561   5.500  0.0638  0.7472 -0.4245
  190MOL0     C25524   4.352   1.705   5.522  0.7098  0.5801 -0.2171
  190MOL0     C25525   4.221   1.787   5.535  0.4092  0.7190  0.2474
  190MOL0     C25526   4.254   1.941   5.529  0.0659 -0.3101  0.8467
  190MOL0     C25527   4.143   2.036   5.503 -1.1492 -0.7623 -0.3136
  190MOL0     C25528   4.194   2.179   5.550 -0.8474 -0.1728  0.1993
  190MOL0     C25529   4.103   2.297   5.523 -0.5527  0.1281 -0.1478
  190MOL0     C25530   4.178   2.427   5.562  0.3441  0.5156  0.1802
  190MOL0     C25531   4.153   2.547   5.474  0.0553  0.2599 -0.8072
  190MOL0     N25532   4.216   2.679   5.513  0.9459 -0.7269  0.5428
  190MOL0     C25533   4.290   2.715   5.624  0.0936  0.4475 -0.9157
  190MOL0     C25534   4.309   2.855   5.611 -0.3820  0.3335 -0.0543
  190MOL0     C25535   4.366   2.943   5.720 -0.5085  0.5370 -0.3823
  190MOL0     C25536   4.271   2.987   5.834  0.5411 -0.2801 -0.4250
  190MOL0     C25537   4.345   3.072   5.935  0.1618  1.3948 -0.5162
  190MOL0     C25538   4.322   3.223   5.905  0.4552 -0.3805  0.7133
  190MOL0     O25539   4.412   3.312   5.979 -0.3039 -0.5786 -0.5827
  190MOL0     C25540   4.549   3.314   5.946 -0.1574 -0.4744  0.1432
  190MOL0     C25541   4.606   3.266   5.820 -0.5544  0.1487 -0.3794
  190MOL0     C25542   4.746   3.282   5.800  0.3581 -0.4160  0.5568
  190MOL0     C25543   4.825   3.357   5.891 -0.0077 -0.3959  1.1113
  190MOL0     C25544   4.971   3.389   5.872 -0.3164 -0.1166 -0.2064
  190MOL0     O25545   5.027   3.374   5.752  0.7701  0.1708  0.5646
  190MOL0     C25546   5.162   3.366   5.725 -0.2212 -0.6291  0.2857
  190MOL0     C25547   5.199   3.388   5.595  0.9561 -0.3906 -0.3260
  190MOL0     C25548   5.327   3.371   5.537  0.5704 -0.5026  0.2129
  190MOL0     C25549   5.424   3.331   5.624 -0.7303 -0.2041 -0.2926
  190MOL0     O25550   5.549   3.300   5.588 -0.4376 -0.2297 -0.0358
  190MOL0     C25551   5.561   3.209   5.476 -0.0003 -0.9675  0.1319
  190MOL0     C25552   5.683   3.111   5.471 -0.3821  0.1075 -0.4852
  190MOL0     C25553   5.816   3.190   5.478 -0.0896 -0.4431 -0.2415
  190MOL0     C25554   5.936   3.092   5.491  0.6032  0.3381  0.2759
  190MOL0     C25555   6.062   3.164   5.532  0.2640 -0.6473 -0.5876
  190MOL0     C25556   6.176   3.060   5.552  0.1524  0.4552  0.2468
  190MOL0     C25557   6.170   2.984   5.685  0.3780 -0.2787  0.2398
  190MOL0     C25558   6.292   2.886   5.696  0.5128 -0.4621 -0.2243
  190MOL0    Cl25559   6.437   2.952   5.782  0.0225 -0.0104  0.0814
  190MOL0     C25560   5.390   3.305   5.757  0.1053 -0.1281 -0.9216
  190MOL0     C25561   5.266   3.317   5.808  0.5092 -0.8531 -0.1908
  190MOL0     O25562   5.028   3.423   5.979  0.2444 -0.1200  0.0089
  190MOL0     C25563   4.758   3.409   5.999  0.7056 -0.5034 -0.1578
  190MOL0     C25564   4.622   3.396   6.029  0.6237 -0.1995  0.1124
  190MOL0     N25565   4.260   2.890   5.484  0.8111  0.0776  0.3484
  190MOL0     N25566   4.203   2.783   5.427  0.3471  0.2832 -0.0291
  190MOL0     C25567   4.565   1.518   5.596 -0.0317  0.1113  0.6945
  190MOL0     C25568   4.648   1.442   5.673 -0.1738  1.2346 -0.7042
  190MOL0     C25569   4.910   1.179   5.896  0.0200  0.3540 -0.2670
  190MOL0     C25570   4.898   1.036   5.867 -0.6173  0.0960 -1.6800
  190MOL0     C25571   5.020   0.959   5.874  0.3520 -1.2644  0.1371
  190MOL0     C25572   5.140   1.002   5.920  0.9473 -0.7002 -0.4939
  190MOL0     O25573   5.242   0.927   5.958  0.2946  0.2138 -0.0532
  190MOL0     C25574   5.234   0.780   5.944 -0.4543 -0.6980  1.1184
  190MOL0     C25575   5.365   0.727   6.008  0.0069 -0.1008 -0.4545
  190MOL0     C25576   5.493   0.784   5.934  0.0395  0.0235  0.5201
  190MOL0     C25577   5.616   0.810   6.021 -0.6986 -0.0678  0.6879
  190MOL0     C25578   5.735   0.833   5.934 -0.1812  0.5676 -0.2969
  190MOL0     C25579   5.822   0.853   5.859  0.2387 -0.4418  0.1513
  190MOL0     C25580   5.152   1.140   5.954  0.1291  1.1815 -0.1209
  190MOL0     C25581   5.040   1.226   5.938 -0.2741 -0.2379  0.2768
  190MOL0     C25582   5.069   1.374   5.958 -0.4789  0.0354  0.4193
  190MOL0     H25583   4.448   1.172   5.702  1.4040 -0.1240  0.1721
  190MOL0     H25584   4.288   1.318   5.590  0.0910  1.0431  0.3343
  190MOL0     H25585   4.414   1.720   5.611  0.6833  4.9737 -0.7254
  190MOL0     H25586   4.410   1.751   5.442  0.3925 -1.8896 -1.9747
  190MOL0     H25587   4.169   1.759   5.627 -1.0882 -0.5325 -0.9038
  190MOL0     H25588   4.155   1.761   5.451  1.5740 -0.7927 -0.2579
  190MOL0     H25589   4.330   1.964   5.453 -0.7102  2.0721  0.7255
  190MOL0     H25590   4.294   1.955   5.630 -0.1643 -1.1252  1.0586
  190MOL0     H25591   4.122   2.029   5.396  1.4070 -1.6418 -0.8279
  190MOL0     H25592   4.047   2.009   5.548 -1.0736  0.5358  0.6883
  190MOL0     H25593   4.212   2.178   5.658 -1.6709  5.0381  0.6609
  190MOL0     H25594   4.294   2.197   5.512 -0.5628 -1.1985  0.4415
  190MOL0     H25595   4.082   2.280   5.417  1.3930 -0.1666 -0.5301
  190MOL0     H25596   4.005   2.290   5.571 -0.5471  0.5542 -0.0661
  190MOL0     H25597   4.286   2.414   5.572  0.1356  0.2946  2.9240
  190MOL0     H25598   4.140   2.441   5.664  2.3190  0.5902  0.9387
  190MOL0     H25599   4.191   2.528   5.374  1.4172  0.1325 -0.2888
  190MOL0     H25600   4.047   2.574   5.479 -0.5215 -1.7336  4.1794
  190MOL0     H25601   4.313   2.639   5.699  1.2661  1.7310  0.0795
  190MOL0     H25602   4.446   2.883   5.763 -3.0693 -1.9371  1.1911
  190MOL0     H25603   4.412   3.025   5.663 -0.2598 -0.7417 -2.0897
  190MOL0     H25604   4.183   3.040   5.797 -0.3234  0.1187  2.0526
  190MOL0     H25605   4.232   2.893   5.874 -1.6390 -0.3328 -2.4316
  190MOL0     H25606   4.449   3.037   5.936 -0.8896 -2.2517 -1.0899
  190MOL0     H25607   4.311   3.057   6.038 -3.4762  1.8982 -1.5098
  190MOL0     H25608   4.220   3.246   5.935  1.3705 -0.2684  4.2227
  190MOL0     H25609   4.332   3.238   5.797 -1.2936  1.6390  0.7741
  190MOL0     H25610   4.540   3.211   5.754 -1.6213  0.4145  0.4461
  190MOL0     H25611   4.795   3.229   5.718 -0.7114 -2.4764  1.1745
  190MOL0     H25612   5.115   3.417   5.532 -0.9182 -2.8427  0.9205
  190MOL0     H25613   5.356   3.389   5.434 -1.1654 -4.1975 -1.0992
  190MOL0     H25614   5.470   3.147   5.471 -0.1434 -0.6965 -0.9951
  190MOL0     H25615   5.562   3.266   5.382 -3.1366 -0.2398  0.4426
  190MOL0     H25616   5.675   3.047   5.559 -1.8756  2.8740  1.5562
  190MOL0     H25617   5.698   3.054   5.378 -0.4591 -1.2208  0.2941
  190MOL0     H25618   5.834   3.255   5.392  2.3867  0.1282  0.6278
  190MOL0     H25619   5.817   3.253   5.567  0.3447  1.1865 -1.3678
  190MOL0     H25620   5.939   3.036   5.397 -2.3518  0.1099  0.2236
  190MOL0     H25621   5.918   3.019   5.570 -0.8179  1.8895  1.4645
  190MOL0     H25622   6.045   3.230   5.618 -0.5066 -0.2363 -1.0396
  190MOL0     H25623   6.087   3.240   5.458  1.3039 -0.6895 -0.2998
  190MOL0     H25624   6.174   2.990   5.469  1.2856  2.4860 -1.5747
  190MOL0     H25625   6.277   3.101   5.551  1.4003 -2.4666 -0.8024
  190MOL0     H25626   6.075   2.929   5.682  0.9697 -1.3074 -0.4337
  190MOL0     H25627   6.162   3.052   5.770 -3.3755  2.7490 -2.1769
  190MOL0     H25628   6.252   2.822   5.776 -0.3433  0.8681  0.4627
  190MOL0     H25629   6.311   2.831   5.604 -0.2420 -2.6226  0.8398
  190MOL0     H25630   5.469   3.263   5.818 -1.5747  1.7678  2.9333
  190MOL0     H25631   5.256   3.287   5.911 -1.0157  1.5057  0.4285
  190MOL0     H25632   4.819   3.471   6.063  0.7080  0.4489 -1.0481
  190MOL0     H25633   4.578   3.446   6.115  2.7814  0.7997  0.7035
  190MOL0     H25634   4.600   1.611   5.552 -3.4477 -0.0532 -2.8445
  190MOL0     H25635   4.747   1.481   5.697  1.1167 -1.3353 -1.4731
  190MOL0     H25636   4.799   0.997   5.844 -0.8716  0.3233 -0.9955
  190MOL0     H25637   5.016   0.854   5.850  0.6871 -1.3061  0.2613
  190MOL0     H25638   5.232   0.751   5.838 -2.5526  1.1657  0.5794
  190MOL0     H25639   5.143   0.742   5.991 -2.8986  1.5065 -1.4268
  190MOL0     H25640   5.367   0.618   6.007 -3.8844 -0.3468  0.4736
  190MOL0     H25641   5.371   0.750   6.115 -0.9918 -2.8966  0.2876
  190MOL0     H25642   5.464   0.878   5.886 -1.3909 -0.8197 -0.3519
  190MOL0     H25643   5.519   0.707   5.861  0.2250  0.3340  0.2534
  190MOL0     H25644   5.600   0.905   6.075 -1.1076  0.3372 -0.1233
  190MOL0     H25645   5.646   0.724   6.081 -0.1701 -0.2220  0.2036
  190MOL0     H25646   5.898   0.897   5.797  1.0230  0.8368  1.9234
  190MOL0     H25647   5.250   1.167   5.991  0.6803  0.0191 -0.6994
  190MOL0     H25648   5.028   1.407   6.054  0.7020  1.0675  0.5995
  190MOL0     H25649   5.177   1.392   5.955 -0.5580  0.4882  0.2683
  190MOL0     H25650   5.038   1.447   5.883 -0.7738  1.1266  1.5620
  191MOL0     O25651   6.809   5.157   2.837 -0.7427 -0.1647 -0.7764
  191MOL0     C25652   6.823   5.253   2.913 -0.0732 -0.1987  0.1489
  191MOL0     O25653   6.932   5.331   2.920  0.3640  0.5294 -0.1506
  191MOL0     C25654   7.045   5.283   2.859 -0.6261  0.9267  0.0369
  191MOL0     C25655   7.079   5.312   2.722 -0.6726  0.0217  0.1513
  191MOL0     C25656   7.200   5.266   2.666 -0.7374 -0.7200  0.1339
  191MOL0     C25657   7.297   5.195   2.739 -1.3598  0.3964  0.1819
  191MOL0     O25658   7.418   5.139   2.699  0.1165 -0.8017  0.4856
  191MOL0     C25659   7.451   5.159   2.557  0.2069  0.0058  0.0358
  191MOL0     C25660   7.597   5.105   2.528  1.0464 -0.5063  0.2398
  191MOL0     C25661   7.598   4.950   2.529  0.8975 -0.6606 -0.6225
  191MOL0     C25662   7.746   4.910   2.505 -0.2838 -0.0250  0.0634
  191MOL0     C25663   7.770   4.768   2.550  0.3939 -0.4232  0.6399
  191MOL0     C25664   7.897   4.705   2.504 -0.6314 -0.2916  1.0963
  191MOL0     C25665   7.951   4.603   2.608  0.2335  0.8557 -0.4014
  191MOL0     C25666   8.032   4.482   2.547 -0.0844 -0.1338 -0.3556
  191MOL0     N25667   8.156   4.527   2.486  0.2418  0.3626  0.0599
  191MOL0     C25668   8.256   4.607   2.535 -0.4062  0.2929 -0.0276
  191MOL0     C25669   8.358   4.609   2.445  0.2925  1.1157  0.4454
  191MOL0     C25670   8.496   4.677   2.460 -0.3444  0.2717  0.0975
  191MOL0     C25671   8.593   4.589   2.534  0.3567 -0.1343 -0.8105
  191MOL0     C25672   8.724   4.674   2.539 -0.2121  0.3080  0.1147
  191MOL0     C25673   8.843   4.582   2.589 -0.6286 -0.0944  0.8160
  191MOL0     O25674   8.965   4.600   2.501 -0.0295 -0.0592  0.2713
  191MOL0     C25675   9.079   4.522   2.519 -0.3138  0.0835  0.7143
  191MOL0     C25676   9.086   4.410   2.614  0.3612 -0.5542 -0.1693
  191MOL0     C25677   9.188   4.320   2.618 -0.5743 -0.3218  0.0636
  191MOL0     C25678   9.308   4.355   2.552 -0.2945  0.0259  0.6937
  191MOL0     C25679   9.430   4.266   2.550 -0.7556 -0.4531 -0.3295
  191MOL0     O25680   9.548   4.316   2.503  0.2150 -0.8601  0.9114
  191MOL0     C25681   9.662   4.239   2.502  0.8284  0.5337 -1.2175
  191MOL0     C25682   9.662   4.118   2.434 -0.5574  0.2450  0.4332
  191MOL0     C25683   9.780   4.049   2.434  0.2010 -0.5630  0.7614
  191MOL0     C25684   9.903   4.098   2.480 -0.2166  0.0098  0.3964
  191MOL0     O25685  10.013   4.010   2.464  0.3249 -0.1361 -0.4456
  191MOL0     C25686  10.144   4.053   2.493 -0.6311  0.3223 -0.0415
  191MOL0     C25687  10.237   3.928   2.500 -0.3584  0.2325  0.3877
  191MOL0     C25688  10.383   3.964   2.540  0.0370 -0.6834  0.2000
  191MOL0     C25689  10.480   3.865   2.474 -0.7587  0.0444 -0.4355
  191MOL0     C25690  10.625   3.878   2.505  0.2719  0.4097  0.9449
  191MOL0     C25691  10.702   3.752   2.460  0.4998 -0.7624 -0.1979
  191MOL0     C25692  10.854   3.771   2.468 -0.4336 -0.7368  0.3349
  191MOL0     C25693  10.935   3.664   2.391  0.0448  0.2032  0.3843
  191MOL0    Cl25694  11.110   3.662   2.405  0.3601  0.0735 -0.0981
  191MOL0     C25695   9.903   4.223   2.549  0.1870 -0.2580 -0.1375
  191MOL0     C25696   9.781   4.294   2.553 -0.6728  0.8338 -0.1439
  191MOL0     O25697   9.415   4.154   2.598  0.4933  0.0133  0.0433
  191MOL0     C25698   9.311   4.470   2.465  0.4513 -0.5343  0.1368
  191MOL0     C25699   9.197   4.547   2.449 -0.4791 -0.5672  0.2823
  191MOL0     N25700   8.322   4.506   2.354  0.0572 -0.2023  0.7129
  191MOL0     N25701   8.205   4.460   2.383 -0.1081  0.0566 -0.3434
  191MOL0     C25702   7.259   5.171   2.870  0.0138  0.1120 -0.4407
  191MOL0     C25703   7.143   5.215   2.936  1.0312 -0.4263  0.1256
  191MOL0     C25704   6.707   5.298   2.989 -0.4134 -0.0107  0.3717
  191MOL0     C25705   6.632   5.196   3.059 -0.2010 -0.8698 -0.8301
  191MOL0     C25706   6.534   5.222   3.161 -0.1518  0.5854  0.0566
  191MOL0     C25707   6.517   5.352   3.190  0.0759 -0.7284 -0.4026
  191MOL0     O25708   6.434   5.391   3.288  0.4546  0.3955  0.3188
  191MOL0     C25709   6.390   5.309   3.396  0.0840 -0.2962  0.1643
  191MOL0     C25710   6.508   5.287   3.497 -0.0446  0.7485  0.8066
  191MOL0     C25711   6.532   5.414   3.585  0.1255 -0.3837 -0.0426
  191MOL0     C25712   6.680   5.415   3.625  0.4524  0.3413  0.7527
  191MOL0     C25713   6.712   5.541   3.687  0.4864 -0.5608  0.0485
  191MOL0     C25714   6.734   5.655   3.726  0.5682  0.5401 -0.2881
  191MOL0     C25715   6.591   5.456   3.127 -0.0408  0.4496  0.7152
  191MOL0     C25716   6.691   5.433   3.028  0.8816 -0.0491 -0.8173
  191MOL0     C25717   6.775   5.551   2.994 -0.0935 -0.0457 -0.5760
  191MOL0     H25718   7.004   5.358   2.658  2.5799  0.1439 -3.9744
  191MOL0     H25719   7.216   5.292   2.561 -1.8453 -0.6950 -0.0352
  191MOL0     H25720   7.384   5.102   2.492  3.0216 -2.4383 -0.9697
  191MOL0     H25721   7.454   5.267   2.536 -0.7675  0.4433  1.9884
  191MOL0     H25722   7.665   5.151   2.601 -1.0381  0.9792  1.3432
  191MOL0     H25723   7.637   5.129   2.430  1.5043 -0.8021  0.3488
  191MOL0     H25724   7.532   4.910   2.451  0.3549 -1.9690  0.4843
  191MOL0     H25725   7.557   4.921   2.626 -1.1636  3.2958 -0.0964
  191MOL0     H25726   7.768   4.913   2.398  2.8896  0.4730  0.6428
  191MOL0     H25727   7.814   4.976   2.559  1.6444 -1.7186 -0.1969
  191MOL0     H25728   7.781   4.768   2.659 -0.5416  0.7298  0.7486
  191MOL0     H25729   7.682   4.719   2.508 -0.5471  4.2307 -3.8503
  191MOL0     H25730   7.886   4.667   2.402 -0.2132 -1.2574  1.3987
  191MOL0     H25731   7.955   4.797   2.498 -1.4705  0.1876 -0.2082
  191MOL0     H25732   7.867   4.564   2.666 -1.2890  1.6961 -1.9439
  191MOL0     H25733   8.021   4.649   2.677  1.1639 -3.9928  2.3524
  191MOL0     H25734   8.072   4.427   2.633  0.9994 -0.9041 -1.3257
  191MOL0     H25735   7.974   4.407   2.492  0.2639 -1.4013  0.9482
  191MOL0     H25736   8.249   4.668   2.625 -2.0338  1.7403 -1.0532
  191MOL0     H25737   8.537   4.707   2.363  0.1712 -0.6632  0.0096
  191MOL0     H25738   8.481   4.769   2.517 -0.9304  0.8105 -0.9120
  191MOL0     H25739   8.550   4.565   2.632 -3.8374 -2.0846 -2.8369
  191MOL0     H25740   8.610   4.496   2.479  1.4021  0.7845 -2.1127
  191MOL0     H25741   8.710   4.756   2.609 -2.7858  0.7348 -0.7988
  191MOL0     H25742   8.748   4.708   2.438  3.6225 -1.4031  0.2898
  191MOL0     H25743   8.817   4.476   2.578  1.7245 -0.5515 -1.4788
  191MOL0     H25744   8.866   4.597   2.694 -2.9669 -0.4864  1.4462
  191MOL0     H25745   9.003   4.388   2.680 -2.0380  1.0667 -2.4317
  191MOL0     H25746   9.180   4.230   2.679 -0.2740 -0.5347 -0.2028
  191MOL0     H25747   9.575   4.077   2.383 -0.1095  0.6217 -0.6642
  191MOL0     H25748   9.799   3.955   2.384  0.4432 -1.8378  3.1457
  191MOL0     H25749  10.186   4.127   2.425  0.0715  0.3845  0.4465
  191MOL0     H25750  10.135   4.089   2.596  0.1911  1.4112 -0.3289
  191MOL0     H25751  10.195   3.851   2.564 -2.3136  1.4498  0.6457
  191MOL0     H25752  10.238   3.878   2.402  0.8760 -2.9086  1.8882
  191MOL0     H25753  10.412   4.068   2.526  0.3241 -0.8541 -0.5236
  191MOL0     H25754  10.395   3.953   2.648  1.2918  0.1105  0.1561
  191MOL0     H25755  10.481   3.879   2.365 -0.3292 -0.3187 -0.4805
  191MOL0     H25756  10.447   3.764   2.499  0.2648 -0.1464  0.1795
  191MOL0     H25757  10.634   3.885   2.614 -1.0964  0.4735  1.0773
  191MOL0     H25758  10.652   3.974   2.460 -2.0521  0.5392 -0.3513
  191MOL0     H25759  10.666   3.671   2.524  1.2168  0.0356  1.2642
  191MOL0     H25760  10.669   3.727   2.359 -0.8225  0.3126 -0.0712
  191MOL0     H25761  10.878   3.780   2.575 -2.1846  1.4377  0.6102
  191MOL0     H25762  10.884   3.867   2.425  1.1373 -1.4864 -0.3398
  191MOL0     H25763  10.895   3.567   2.420 -2.1879 -0.0654 -3.0090
  191MOL0     H25764  10.923   3.668   2.283  1.0496  0.8784  0.2874
  191MOL0     H25765   9.996   4.259   2.590  0.1190  1.0870 -1.0981
  191MOL0     H25766   9.773   4.390   2.603 -2.9512  1.5530 -1.7162
  191MOL0     H25767   9.406   4.498   2.421 -0.9051  1.0878 -2.0183
  191MOL0     H25768   9.199   4.637   2.387 -1.3973 -1.2691 -0.7893
  191MOL0     H25769   7.322   5.107   2.930  1.3264  0.0362 -1.8376
  191MOL0     H25770   7.121   5.186   3.038 -0.7829  0.4530  0.0305
  191MOL0     H25771   6.656   5.091   3.043 -1.7784 -1.1165 -1.7761
  191MOL0     H25772   6.489   5.145   3.222  1.0420  1.3868  2.0460
  191MOL0     H25773   6.351   5.214   3.359 -0.3529  1.2432 -3.9285
  191MOL0     H25774   6.308   5.366   3.439  0.5434  1.2886 -0.9348
  191MOL0     H25775   6.596   5.261   3.436  0.5076  0.8673  1.5434
  191MOL0     H25776   6.494   5.201   3.563  1.7273 -1.2223 -1.2095
  191MOL0     H25777   6.473   5.412   3.677 -0.1790 -0.2143 -0.2291
  191MOL0     H25778   6.511   5.508   3.533  2.7292 -0.6644 -1.7656
  191MOL0     H25779   6.704   5.341   3.702  0.0815  0.3451  0.8699
  191MOL0     H25780   6.749   5.403   3.541  1.8551  4.1095  1.1548
  191MOL0     H25781   6.758   5.750   3.769  1.6322  0.6829 -1.1223
  191MOL0     H25782   6.587   5.552   3.176 -1.5692  0.2227  1.0796
  191MOL0     H25783   6.815   5.542   2.893  2.0636 -1.2049  0.2879
  191MOL0     H25784   6.714   5.641   3.005 -1.9007 -1.3667  1.0140
  191MOL0     H25785   6.861   5.573   3.058  0.3120  3.2738 -2.0771
  192MOL0     O25786   6.583   9.832  10.371 -0.0150  0.5019  0.2217
  192MOL0     C25787   6.620   9.727  10.318 -0.1206 -0.5301  0.3778
  192MOL0     O25788   6.572   9.677  10.205 -0.0763  0.7205  0.1277
  192MOL0     C25789   6.471   9.753  10.144  0.3045  0.2565  0.4628
  192MOL0     C25790   6.348   9.784  10.207  0.3033  0.0942  0.2679
  192MOL0     C25791   6.239   9.817  10.131  0.0994  0.1929 -0.1082
  192MOL0     C25792   6.246   9.813   9.992 -0.6887 -0.3380 -0.0299
  192MOL0     O25793   6.137   9.840   9.919 -0.4941 -0.0621 -0.0657
  192MOL0     C25794   6.085   9.720   9.856 -0.8468 -0.2042 -0.4410
  192MOL0     C25795   5.987   9.756   9.750  1.0005 -0.2035  0.6870
  192MOL0     C25796   5.909   9.635   9.690  0.7940  0.1725 -0.2083
  192MOL0     C25797   5.789   9.664   9.602  0.0275  0.6888  0.0248
  192MOL0     C25798   5.717   9.547   9.528  0.2069 -0.2685 -0.3420
  192MOL0     C25799   5.594   9.599   9.449  0.1822  0.5941  0.7374
  192MOL0     C25800   5.489   9.498   9.390  0.9341 -0.1700  0.7621
  192MOL0     C25801   5.378   9.573   9.300  0.2127  0.3989 -0.4649
  192MOL0     N25802   5.280   9.491   9.231  0.2256 -0.0699  0.8658
  192MOL0     C25803   5.170   9.535   9.169  0.0224 -0.2266 -0.2926
  192MOL0     C25804   5.139   9.437   9.082  1.6372  0.1259  1.0460
  192MOL0     C25805   5.011   9.437   8.994  0.0275  0.1697 -0.4730
  192MOL0     C25806   5.046   9.440   8.844 -0.1676 -0.4586 -0.1563
  192MOL0     C25807   5.110   9.572   8.792  0.1102  0.6744 -0.0891
  192MOL0     C25808   5.173   9.540   8.657  0.1214 -0.1822 -0.1865
  192MOL0     O25809   5.301   9.471   8.647  0.1976 -0.3021 -0.1046
  192MOL0     C25810   5.388   9.522   8.742 -0.2224 -0.1489 -0.3133
  192MOL0     C25811   5.425   9.444   8.853  1.2630  0.6196  0.5799
  192MOL0     C25812   5.505   9.503   8.950  0.2078  0.4230  0.5716
  192MOL0     C25813   5.563   9.628   8.934  0.2474  0.4711  0.5529
  192MOL0     C25814   5.664   9.670   9.032  0.0037  0.0174  0.2122
  192MOL0     O25815   5.742   9.778   8.998 -0.2615 -0.0196  0.7374
  192MOL0     C25816   5.854   9.809   9.070 -0.0754  0.2693 -0.1029
  192MOL0     C25817   5.964   9.723   9.073 -0.0241 -0.4101 -0.1573
  192MOL0     C25818   6.072   9.775   9.147  0.1146  0.6584  0.4518
  192MOL0     C25819   6.079   9.898   9.214 -1.6933  0.3598  0.6195
  192MOL0     O25820   6.199   9.942   9.272 -0.3891  0.4813  0.1816
  192MOL0     C25821   6.181   9.925   9.411  0.1546  0.3985  0.4713
  192MOL0     C25822   6.316   9.932   9.483  0.0569 -0.2337 -0.0322
  192MOL0     C25823   6.420   9.832   9.426  0.0315 -0.7827 -0.1680
  192MOL0     C25824   6.558   9.877   9.478 -0.7658  0.9349  0.6773
  192MOL0     C25825   6.681   9.796   9.431  0.6932 -0.6703 -0.1209
  192MOL0     C25826   6.809   9.839   9.502 -0.0720  1.1434 -0.1862
  192MOL0     C25827   6.934   9.777   9.443 -0.2138  0.1284  0.6359
  192MOL0     C25828   7.061   9.843   9.491 -0.2043  0.2260 -0.0027
  192MOL0    Cl25829   7.142   9.916   9.359 -0.2264 -0.1960  0.1773
  192MOL0     C25830   5.966   9.977   9.211  0.9416 -0.8396 -0.6507
  192MOL0     C25831   5.854   9.937   9.137  0.5233 -0.2593 -0.4772
  192MOL0     O25832   5.681   9.606   9.132  0.0045 -0.5703 -0.0203
  192MOL0     C25833   5.521   9.704   8.823  0.4863  0.3401  0.6043
  192MOL0     C25834   5.425   9.649   8.737 -0.1144  0.2459 -0.1401
  192MOL0     N25835   5.232   9.338   9.083 -0.1990  0.0916  0.3011
  192MOL0     N25836   5.320   9.378   9.172  0.6794  0.5506  0.1589
  192MOL0     C25837   6.366   9.786   9.926 -1.0487 -0.2419 -0.3037
  192MOL0     C25838   6.472   9.754  10.007 -1.2204  0.0006 -0.3550
  192MOL0     C25839   6.726   9.654  10.388  0.3436 -0.1380  0.5505
  192MOL0     C25840   6.686   9.532  10.439 -1.1861  0.1927 -0.1082
  192MOL0     C25841   6.771   9.477  10.529  0.0840  0.4261  0.5908
  192MOL0     C25842   6.893   9.527  10.569  0.6564 -0.3006 -0.7251
  192MOL0     O25843   6.980   9.473  10.661 -0.1031 -0.4305  0.8831
  192MOL0     C25844   7.083   9.394  10.599  0.5007 -0.3885 -0.0143
  192MOL0     C25845   7.139   9.305  10.709 -0.0863  0.0131 -0.1576
  192MOL0     C25846   7.236   9.194  10.658 -0.0098 -0.5887 -0.0086
  192MOL0     C25847   7.299   9.124  10.779 -0.2074  0.0992 -0.7509
  192MOL0     C25848   7.388   9.024  10.729  0.8357 -0.1027  0.1173
  192MOL0     C25849   7.465   8.937  10.707 -1.1188  0.8004 -0.0682
  192MOL0     C25850   6.944   9.633  10.502 -0.8224 -0.5115 -0.5356
  192MOL0     C25851   6.859   9.705  10.421  0.7974 -0.5528  0.3162
  192MOL0     C25852   6.913   9.835  10.368  0.3195  0.0850 -0.3145
  192MOL0     H25853   6.337   9.757  10.311 -1.1511 -0.2368  0.0499
  192MOL0     H25854   6.142   9.812  10.179  0.2296 -2.7524  0.0451
  192MOL0     H25855   6.156   9.652   9.808 -1.6610 -0.3349 -1.5064
  192MOL0     H25856   6.048   9.648   9.929 -2.5345  0.6331 -0.4314
  192MOL0     H25857   6.032   9.814   9.669 -0.0750 -0.5797 -0.1902
  192MOL0     H25858   5.921   9.830   9.797  0.6735  0.7945 -1.2486
  192MOL0     H25859   5.864   9.583   9.775 -1.4761  1.2798 -0.6722
  192MOL0     H25860   5.976   9.572   9.630  1.0848  0.5674 -0.3045
  192MOL0     H25861   5.716   9.714   9.666 -0.6981 -0.5937  0.2406
  192MOL0     H25862   5.821   9.731   9.522  0.9990  2.2160  1.6135
  192MOL0     H25863   5.796   9.510   9.463  0.9994  0.8795 -0.0627
  192MOL0     H25864   5.680   9.471   9.598 -3.8340 -0.8909 -2.7942
  192MOL0     H25865   5.538   9.658   9.522  0.8800 -1.2642  2.9024
  192MOL0     H25866   5.635   9.663   9.371  1.1993 -0.3791  0.4474
  192MOL0     H25867   5.447   9.424   9.458  2.8734 -2.5379 -0.4554
  192MOL0     H25868   5.545   9.440   9.316  1.5440  1.7552 -0.3317
  192MOL0     H25869   5.320   9.631   9.373 -3.8150 -0.6104 -2.6163
  192MOL0     H25870   5.434   9.627   9.223 -0.1694  1.9996  0.3392
  192MOL0     H25871   5.117   9.629   9.176 -1.7000 -1.2129  0.6456
  192MOL0     H25872   4.950   9.349   9.015  1.4097 -0.9047 -0.8159
  192MOL0     H25873   4.952   9.526   9.016 -0.8552 -0.2892 -0.9295
  192MOL0     H25874   5.101   9.351   8.810 -2.1153 -1.3898 -0.9992
  192MOL0     H25875   4.953   9.431   8.787  0.3893 -3.2727 -0.8035
  192MOL0     H25876   5.178   9.616   8.866 -1.0091 -1.0045  2.0606
  192MOL0     H25877   5.034   9.649   8.773 -0.6643  0.1359  0.7085
  192MOL0     H25878   5.190   9.630   8.596  2.0045  0.0162  0.5598
  192MOL0     H25879   5.100   9.479   8.603  1.0830 -1.7303  0.2014
  192MOL0     H25880   5.381   9.346   8.868 -0.2534  1.5133  2.4693
  192MOL0     H25881   5.530   9.440   9.035  0.5103 -1.1167 -0.6109
  192MOL0     H25882   5.970   9.628   9.022  0.2257 -0.5032  0.0436
  192MOL0     H25883   6.159   9.711   9.150 -0.1421  0.3093  0.5503
  192MOL0     H25884   6.117  10.010   9.439 -3.7383 -3.2085  4.0069
  192MOL0     H25885   6.117   9.841   9.440 -2.2909  1.9082 -0.1896
  192MOL0     H25886   6.350  10.034   9.462 -0.4120 -0.5384 -2.6476
  192MOL0     H25887   6.307   9.905   9.589  0.8829 -2.9294 -0.5743
  192MOL0     H25888   6.403   9.728   9.455  0.7246 -1.4396 -1.9702
  192MOL0     H25889   6.421   9.833   9.316  1.5633  0.4462 -0.1795
  192MOL0     H25890   6.554   9.901   9.585  1.9691 -2.1367  1.6351
  192MOL0     H25891   6.569   9.977   9.435  0.4889 -0.1962 -1.8999
  192MOL0     H25892   6.695   9.815   9.324  0.5491  0.7587  0.0880
  192MOL0     H25893   6.664   9.690   9.451 -0.1184 -0.1976  1.9149
  192MOL0     H25894   6.825   9.946   9.486 -1.4657  1.1471 -1.8295
  192MOL0     H25895   6.792   9.831   9.610 -3.0536  0.6131 -0.6156
  192MOL0     H25896   6.917   9.788   9.336  3.0130 -0.1317 -0.0104
  192MOL0     H25897   6.947   9.669   9.454 -0.2246  0.0604  0.0092
  192MOL0     H25898   7.040   9.926   9.558  0.7408 -1.0795  2.0252
  192MOL0     H25899   7.122   9.774   9.550  1.5102  1.1701 -0.6076
  192MOL0     H25900   5.948  10.063   9.275  1.4964 -0.9614 -0.3270
  192MOL0     H25901   5.761   9.993   9.130 -0.5242 -1.3344  2.8864
  192MOL0     H25902   5.556   9.806   8.813 -2.8417  1.6328  0.7661
  192MOL0     H25903   5.370   9.702   8.660 -2.5688 -1.8975 -0.0391
  192MOL0     H25904   6.357   9.780   9.818 -1.0793 -0.5263 -0.2851
  192MOL0     H25905   6.568   9.729   9.965 -1.0432 -0.2689  0.2099
  192MOL0     H25906   6.593   9.481  10.416 -0.7273  0.1496 -2.0384
  192MOL0     H25907   6.739   9.380  10.565 -2.0603  1.5434  1.9275
  192MOL0     H25908   7.148   9.465  10.547 -0.7639 -0.5206 -1.9113
  192MOL0     H25909   7.043   9.333  10.517 -2.0128  0.4419  0.5174
  192MOL0     H25910   7.052   9.263  10.760 -1.8699  1.2191 -2.0243
  192MOL0     H25911   7.191   9.371  10.778 -0.0396  0.7796 -0.9108
  192MOL0     H25912   7.314   9.242  10.599 -2.1921  2.4430 -0.6682
  192MOL0     H25913   7.182   9.116  10.603 -2.0717  0.6876  0.0975
  192MOL0     H25914   7.363   9.201  10.823  2.8745 -0.6014 -3.6137
  192MOL0     H25915   7.218   9.081  10.839 -2.9392  0.9264 -3.5707
  192MOL0     H25916   7.541   8.867  10.679  0.0753  1.7370  0.7464
  192MOL0     H25917   7.046   9.669  10.510 -0.8210  0.3350 -3.3872
  192MOL0     H25918   6.846   9.876  10.292 -0.3937 -0.4009  0.0316
  192MOL0     H25919   6.904   9.915  10.442  2.6571  0.3036 -0.1973
  192MOL0     H25920   7.020   9.831  10.349  0.5580 -2.5339  1.1007
  193MOL0     O25921   5.421   6.637   7.002  0.0582 -0.4697 -0.9903
  193MOL0     C25922   5.408   6.621   7.121  0.2809 -0.1051  0.3893
  193MOL0     O25923   5.513   6.579   7.204 -0.1588 -0.0180  0.9421
  193MOL0     C25924   5.641   6.575   7.147 -0.7573  0.3466 -0.1465
  193MOL0     C25925   5.737   6.664   7.192  0.4125  0.3188  0.0671
  193MOL0     C25926   5.870   6.658   7.157  0.7681 -0.3164  0.9958
  193MOL0     C25927   5.904   6.552   7.065  0.0277  0.4707  0.1359
  193MOL0     O25928   6.037   6.548   7.021 -0.5752 -0.5710 -0.0261
  193MOL0     C25929   6.078   6.469   6.912  0.0871 -0.8096 -0.2929
  193MOL0     C25930   6.217   6.523   6.865  0.6765  0.9321 -0.1669
  193MOL0     C25931   6.327   6.491   6.960 -0.0090 -0.0513 -0.1188
  193MOL0     C25932   6.459   6.516   6.890 -0.8093 -0.3980  1.1168
  193MOL0     C25933   6.572   6.491   6.989  0.1607  0.3927  0.0025
  193MOL0     C25934   6.711   6.520   6.920 -0.8012 -0.1676 -0.6511
  193MOL0     C25935   6.837   6.532   7.018 -0.1646 -0.3132  0.2780
  193MOL0     C25936   6.859   6.401   7.102 -0.0397  0.3919 -0.0148
  193MOL0     N25937   7.003   6.390   7.145 -0.4834 -0.7500  0.4136
  193MOL0     C25938   7.070   6.434   7.260  0.1961 -0.5398 -0.1381
  193MOL0     C25939   7.199   6.417   7.229 -0.7560  0.0396 -0.1884
  193MOL0     C25940   7.312   6.420   7.336 -0.2428  0.3077  0.8061
  193MOL0     C25941   7.343   6.273   7.390  0.8676 -0.4434  0.0778
  193MOL0     C25942   7.380   6.273   7.538 -0.1855  0.4545  0.8492
  193MOL0     C25943   7.465   6.157   7.572  0.9880 -1.0361  0.4089
  193MOL0     O25944   7.590   6.163   7.503  0.4359 -0.4979 -0.0210
  193MOL0     C25945   7.694   6.082   7.558 -0.1157  0.1651 -0.4098
  193MOL0     C25946   7.679   5.975   7.644  0.0004  0.0513 -0.2998
  193MOL0     C25947   7.789   5.926   7.721  0.9083 -0.1279 -0.0233
  193MOL0     C25948   7.916   5.977   7.718 -0.1975  0.2677 -0.1774
  193MOL0     C25949   8.029   5.933   7.799 -0.5280  0.1762 -0.5418
  193MOL0     O25950   8.132   6.022   7.819 -0.6647 -0.5130 -0.3830
  193MOL0     C25951   8.245   5.985   7.881 -0.1163 -0.2594 -0.1627
  193MOL0     C25952   8.299   6.070   7.981  1.1419 -0.0382  0.2766
  193MOL0     C25953   8.425   6.053   8.031  0.2529 -0.4915  0.1900
  193MOL0     C25954   8.497   5.935   8.006  0.1520  0.2924 -0.2845
  193MOL0     O25955   8.623   5.905   8.061  0.9511 -0.3673  0.4557
  193MOL0     C25956   8.723   6.004   8.052 -0.3855 -1.1994  0.2597
  193MOL0     C25957   8.856   5.960   8.133  0.6642  0.6000  0.6546
  193MOL0     C25958   8.958   6.071   8.156  0.2080  0.2097 -0.4197
  193MOL0     C25959   9.028   6.120   8.030 -0.5282  0.0590 -0.0248
  193MOL0     C25960   9.141   6.207   8.089 -1.3705 -0.8478  0.6396
  193MOL0     C25961   9.216   6.290   7.979 -0.0737 -0.2354  0.2241
  193MOL0     C25962   9.303   6.208   7.881  1.1611  0.1937 -0.5038
  193MOL0     C25963   9.425   6.127   7.931  0.0964 -0.1297  0.6136
  193MOL0    Cl25964   9.566   6.243   7.923 -0.2298  0.2777  0.4582
  193MOL0     C25965   8.437   5.835   7.927 -0.7017  0.8044  0.4381
  193MOL0     C25966   8.309   5.862   7.861 -0.9213 -0.2377  0.3590
  193MOL0     O25967   8.012   5.830   7.868  0.4260 -0.7631  0.9976
  193MOL0     C25968   7.940   6.084   7.628  0.3653 -0.5787  0.3351
  193MOL0     C25969   7.832   6.127   7.547 -0.3384  0.1889 -0.2946
  193MOL0     N25970   7.211   6.368   7.105 -0.7279 -0.4774  0.0211
  193MOL0     N25971   7.095   6.347   7.049  0.5779  0.0943 -0.1624
  193MOL0     C25972   5.816   6.457   7.020  0.1632  0.2356  0.0327
  193MOL0     C25973   5.680   6.470   7.055  0.6926  0.0548  0.0279
  193MOL0     C25974   5.277   6.653   7.188 -1.3902 -0.0624  0.1761
  193MOL0     C25975   5.286   6.700   7.323 -0.0593 -0.2593  0.8066
  193MOL0     C25976   5.174   6.723   7.391  0.1787 -0.4189 -0.0402
  193MOL0     C25977   5.043   6.704   7.351 -0.3532  0.2699  0.4732
  193MOL0     O25978   4.933   6.745   7.421  0.2764 -0.5584 -0.8138
  193MOL0     C25979   4.945   6.781   7.567  0.4822 -0.2679 -0.7646
  193MOL0     C25980   4.826   6.726   7.641  0.1660  0.6432  1.8495
  193MOL0     C25981   4.833   6.769   7.789 -0.3625  1.0013  0.6301
  193MOL0     C25982   4.723   6.708   7.873 -0.1992 -0.2986  0.4898
  193MOL0     C25983   4.759   6.735   8.014  0.1167  0.4260 -0.8253
  193MOL0     C25984   4.783   6.734   8.136  0.2161 -0.4987  0.3640
  193MOL0     C25985   5.031   6.661   7.216 -0.8808 -0.2580 -0.3552
  193MOL0     C25986   5.146   6.636   7.131 -0.4882  0.1541 -0.0249
  193MOL0     C25987   5.129   6.570   6.998  0.1523  0.2803  0.4749
  193MOL0     H25988   5.709   6.750   7.253 -1.7877  0.5683 -1.1995
  193MOL0     H25989   5.953   6.722   7.185  1.9106 -1.0547 -0.5212
  193MOL0     H25990   6.078   6.370   6.960 -0.3261 -0.2956  0.8228
  193MOL0     H25991   6.011   6.466   6.826  0.1613 -0.5530 -0.3577
  193MOL0     H25992   6.192   6.629   6.853 -1.0396  1.0623  3.3302
  193MOL0     H25993   6.235   6.465   6.774  1.9242 -2.9622  2.3622
  193MOL0     H25994   6.325   6.384   6.982 -1.2831 -0.3550 -1.5371
  193MOL0     H25995   6.318   6.551   7.051 -2.7227 -2.1383  1.1535
  193MOL0     H25996   6.463   6.448   6.805 -1.5354  0.7035  0.1753
  193MOL0     H25997   6.466   6.617   6.850  1.4426 -0.9300  0.0039
  193MOL0     H25998   6.565   6.559   7.074  0.2157 -0.9234  1.0840
  193MOL0     H25999   6.565   6.387   7.020 -0.6383 -0.2041 -1.9900
  193MOL0     H26000   6.740   6.431   6.863  1.4489  1.2785 -1.9200
  193MOL0     H26001   6.703   6.607   6.853 -0.5769  0.2390 -0.1552
  193MOL0     H26002   6.816   6.620   7.079 -0.0221  0.4037 -0.6725
  193MOL0     H26003   6.926   6.549   6.957  0.5098 -1.1064  1.0159
  193MOL0     H26004   6.797   6.398   7.192 -2.2827  0.1985 -1.5137
  193MOL0     H26005   6.833   6.313   7.043 -3.4839 -0.2824  2.2010
  193MOL0     H26006   7.030   6.465   7.355 -2.4897 -1.1520 -0.9663
  193MOL0     H26007   7.399   6.459   7.282 -1.1178  0.4387 -0.5823
  193MOL0     H26008   7.281   6.478   7.423 -1.3871  1.2910 -0.2082
  193MOL0     H26009   7.268   6.199   7.360 -1.0262  1.2390  0.4347
  193MOL0     H26010   7.435   6.251   7.336  1.8118  0.9769  1.0373
  193MOL0     H26011   7.293   6.274   7.605 -0.9020  0.0202 -0.0390
  193MOL0     H26012   7.440   6.359   7.567  0.5817 -0.5902  2.5084
  193MOL0     H26013   7.400   6.074   7.543 -1.8945  1.7922 -1.9306
  193MOL0     H26014   7.481   6.154   7.680 -1.2750  1.9031  0.9589
  193MOL0     H26015   7.581   5.928   7.642 -1.2886  2.5470  0.2867
  193MOL0     H26016   7.761   5.839   7.778 -1.5138  0.5090 -0.1406
  193MOL0     H26017   8.241   6.159   8.001  1.3725  0.5057 -1.3152
  193MOL0     H26018   8.457   6.127   8.104 -2.9307 -0.2413  1.4967
  193MOL0     H26019   8.753   6.020   7.948  1.1639 -1.0094  0.7123
  193MOL0     H26020   8.694   6.104   8.086 -0.5133 -0.9246 -0.6148
  193MOL0     H26021   8.834   5.906   8.226  0.0854  0.8540  0.6699
  193MOL0     H26022   8.901   5.877   8.077 -1.2796 -0.1724  0.1683
  193MOL0     H26023   8.903   6.158   8.192  2.7148  1.3859  0.8177
  193MOL0     H26024   9.040   6.046   8.223  0.7580  0.3078 -1.0410
  193MOL0     H26025   8.971   6.185   7.963 -0.1332  1.6954  1.1641
  193MOL0     H26026   9.071   6.037   7.974  1.9353  1.2997 -0.1191
  193MOL0     H26027   9.211   6.159   8.158 -2.1134  2.1463  3.7906
  193MOL0     H26028   9.099   6.281   8.158 -3.3488 -0.1401 -1.2121
  193MOL0     H26029   9.146   6.353   7.923  0.9152  0.4553 -0.2807
  193MOL0     H26030   9.290   6.355   8.027 -1.1938  0.4052  1.1242
  193MOL0     H26031   9.325   6.281   7.803 -0.6165  0.7884 -0.4964
  193MOL0     H26032   9.239   6.133   7.835  2.0619 -0.0030 -1.4934
  193MOL0     H26033   9.402   6.096   8.033 -2.4866  0.6389  0.3319
  193MOL0     H26034   9.444   6.047   7.860 -0.7335 -0.5276  0.8338
  193MOL0     H26035   8.497   5.751   7.893  0.4005  1.6411  0.2537
  193MOL0     H26036   8.280   5.795   7.780 -0.4328  0.0050 -0.0220
  193MOL0     H26037   8.036   6.131   7.605  0.7399 -1.8415 -0.8286
  193MOL0     H26038   7.853   6.212   7.482 -1.2046  0.2360 -0.5248
  193MOL0     H26039   5.842   6.374   6.955  0.5391 -0.3148  0.8612
  193MOL0     H26040   5.611   6.403   7.005  0.5633  0.0268  0.2396
  193MOL0     H26041   5.371   6.696   7.391  0.6978 -0.2431 -0.1159
  193MOL0     H26042   5.198   6.750   7.493 -1.7118 -0.4549  0.4425
  193MOL0     H26043   4.954   6.888   7.584  0.1492 -0.5774  1.7928
  193MOL0     H26044   5.035   6.742   7.616 -0.4642 -1.0959  0.3445
  193MOL0     H26045   4.819   6.617   7.634  2.8104  0.5195 -1.2205
  193MOL0     H26046   4.736   6.760   7.589  2.9898 -0.0733 -4.5178
  193MOL0     H26047   4.824   6.878   7.787  0.4307  1.0887 -1.2118
  193MOL0     H26048   4.933   6.748   7.827 -0.6241 -1.0872  0.2528
  193MOL0     H26049   4.636   6.768   7.844  1.5621  2.6257  0.8622
  193MOL0     H26050   4.723   6.601   7.852  2.2925 -0.3014  0.1824
  193MOL0     H26051   4.796   6.727   8.242 -1.2039  0.8586  0.6686
  193MOL0     H26052   4.935   6.652   7.167 -2.4417  1.2319  2.2288
  193MOL0     H26053   5.213   6.530   6.941  0.9742  3.7331 -0.9663
  193MOL0     H26054   5.058   6.488   7.012  1.0958 -0.9051 -1.3810
  193MOL0     H26055   5.082   6.650   6.940 -1.5177 -0.0128  1.3560
  194MOL0     O26056   4.385   2.125   7.522 -0.3127  0.9063  0.5428
  194MOL0     C26057   4.293   2.193   7.565  0.1706 -0.4366 -0.8253
  194MOL0     O26058   4.273   2.233   7.693  0.3080 -0.4765  0.1462
  194MOL0     C26059   4.375   2.191   7.774  0.1559  0.0672  0.6453
  194MOL0     C26060   4.504   2.261   7.772  0.2735 -0.0668 -0.1886
  194MOL0     C26061   4.607   2.223   7.853 -1.1114  1.7948  0.0107
  194MOL0     C26062   4.597   2.098   7.922 -1.0596 -0.3555 -0.2603
  194MOL0     O26063   4.700   2.032   7.989 -0.1394  0.0698 -0.1114
  194MOL0     C26064   4.830   2.066   7.947  0.5652  0.1996  0.0283
  194MOL0     C26065   4.934   1.970   7.992  0.3123  0.0816 -0.0719
  194MOL0     C26066   5.080   2.024   7.968 -0.1325  1.1046  1.3133
  194MOL0     C26067   5.182   1.907   7.968 -0.1670 -0.2485  0.0652
  194MOL0     C26068   5.327   1.950   7.959  0.6449  0.5174  0.0593
  194MOL0     C26069   5.358   2.012   7.823  0.3779 -0.4090 -1.0018
  194MOL0     C26070   5.503   2.041   7.800 -0.2334  0.1106  0.3825
  194MOL0     C26071   5.573   1.922   7.720  0.8145  0.5550 -1.4430
  194MOL0     N26072   5.721   1.925   7.736 -0.0789 -0.1575  0.1751
  194MOL0     C26073   5.798   2.030   7.692 -0.6986 -0.2002 -0.0676
  194MOL0     C26074   5.924   1.984   7.718 -0.5821 -0.0235 -0.6063
  194MOL0     C26075   6.050   2.065   7.690 -0.0520  0.0625 -0.6408
  194MOL0     C26076   6.075   2.160   7.797 -0.1334 -1.5271  0.0601
  194MOL0     C26077   6.188   2.266   7.755 -0.1998  0.2913  0.1516
  194MOL0     C26078   6.314   2.205   7.693  0.0262  0.1841  0.0775
  194MOL0     O26079   6.396   2.322   7.659 -0.4375 -0.0534 -0.2665
  194MOL0     C26080   6.531   2.296   7.661  0.7451 -0.0623  0.0379
  194MOL0     C26081   6.582   2.169   7.635  0.2646  0.0369  0.2038
  194MOL0     C26082   6.720   2.140   7.628  0.6995 -0.6364  0.1426
  194MOL0     C26083   6.813   2.245   7.606  0.4073  0.4767 -0.3989
  194MOL0     C26084   6.954   2.225   7.583 -0.3292  0.6269  0.6637
  194MOL0     O26085   7.043   2.321   7.635  0.4020 -0.2927  0.0294
  194MOL0     C26086   7.180   2.323   7.612 -0.0293  0.0835  0.0504
  194MOL0     C26087   7.237   2.447   7.623 -0.0689 -0.7734 -0.2857
  194MOL0     C26088   7.377   2.467   7.617 -0.0634  0.0746  0.6261
  194MOL0     C26089   7.454   2.358   7.572  0.4413  0.1526  0.6667
  194MOL0     O26090   7.581   2.399   7.548  0.0759  0.2387  1.7087
  194MOL0     C26091   7.673   2.303   7.490 -0.4755 -0.2367 -0.0909
  194MOL0     C26092   7.801   2.376   7.480 -0.1900 -0.8305 -0.6538
  194MOL0     C26093   7.909   2.277   7.434  0.1720  0.2174 -0.3421
  194MOL0     C26094   8.046   2.331   7.407 -0.2155 -0.3527  0.4954
  194MOL0     C26095   8.122   2.402   7.526  0.9034  0.9767  0.5501
  194MOL0     C26096   8.151   2.303   7.635  0.1580  0.7570 -0.1349
  194MOL0     C26097   8.202   2.376   7.757 -0.4957 -0.0797  0.6068
  194MOL0     C26098   8.241   2.285   7.873  0.7988 -0.2608 -0.3386
  194MOL0    Cl26099   8.405   2.239   7.825  0.1142  0.1111 -0.0348
  194MOL0     C26100   7.389   2.245   7.523 -0.3987  0.3281  0.8445
  194MOL0     C26101   7.260   2.219   7.551 -0.2851  0.1520 -0.1496
  194MOL0     O26102   6.980   2.126   7.519  0.5787  0.1990  0.2438
  194MOL0     C26103   6.755   2.369   7.624 -0.6468  0.3251  0.2252
  194MOL0     C26104   6.624   2.397   7.660 -0.7635 -0.2045 -0.7824
  194MOL0     N26105   5.914   1.860   7.781  0.3167  0.0314 -0.2423
  194MOL0     N26106   5.792   1.828   7.798 -0.1767 -0.6959  0.3101
  194MOL0     C26107   4.474   2.026   7.927 -0.7574 -0.1260 -0.8974
  194MOL0     C26108   4.363   2.080   7.867 -0.4325 -0.4556 -0.4059
  194MOL0     C26109   4.205   2.246   7.463  0.3319 -0.3265  0.4947
  194MOL0     C26110   4.183   2.170   7.351  0.2714  1.3574 -0.2491
  194MOL0     C26111   4.095   2.213   7.258 -0.2040  0.2494 -0.1253
  194MOL0     C26112   4.042   2.342   7.250 -1.0685 -0.3136  0.5524
  194MOL0     O26113   3.967   2.372   7.150  0.3812 -0.1212  0.2244
  194MOL0     C26114   3.958   2.517   7.127  0.1399  0.6904  0.4792
  194MOL0     C26115   3.887   2.534   6.992 -0.5835  0.7712 -0.1364
  194MOL0     C26116   3.821   2.672   7.011  0.7155  0.7441 -0.3605
  194MOL0     C26117   3.785   2.722   6.868 -0.0967 -0.4388 -1.2016
  194MOL0     C26118   3.896   2.802   6.812  0.1334 -0.1872  0.0656
  194MOL0     C26119   3.991   2.858   6.758  0.0043 -0.4408  0.0962
  194MOL0     C26120   4.075   2.423   7.361  0.4958 -0.1940  0.0680
  194MOL0     C26121   4.148   2.376   7.469 -0.5095  0.2328  0.5132
  194MOL0     C26122   4.196   2.470   7.573 -0.2276  0.6762 -0.7585
  194MOL0     H26123   4.506   2.363   7.736 -4.7531  0.3066 -0.1888
  194MOL0     H26124   4.698   2.283   7.856 -0.9376  1.6341 -1.3489
  194MOL0     H26125   4.828   2.063   7.838  3.8504 -0.2392 -0.1277
  194MOL0     H26126   4.856   2.167   7.982  1.5011  0.2079 -0.6700
  194MOL0     H26127   4.917   1.875   7.940  2.3829  0.4759 -1.5953
  194MOL0     H26128   4.919   1.967   8.100  0.1358  2.9674  0.0462
  194MOL0     H26129   5.104   2.102   8.041 -0.1913 -1.2980  4.0817
  194MOL0     H26130   5.090   2.082   7.875  1.3329  0.1508  0.8421
  194MOL0     H26131   5.171   1.854   8.063  1.0423 -2.2989 -0.8653
  194MOL0     H26132   5.155   1.839   7.886  0.4890  1.8013 -1.9466
  194MOL0     H26133   5.338   2.015   8.047 -0.8065 -1.3974  1.7433
  194MOL0     H26134   5.392   1.865   7.985  0.1178  0.6762  2.1056
  194MOL0     H26135   5.310   1.964   7.738 -1.9494  0.4105 -0.2211
  194MOL0     H26136   5.312   2.111   7.826 -2.2278 -1.5710  0.7344
  194MOL0     H26137   5.559   2.066   7.890  3.2132 -0.6278 -1.3926
  194MOL0     H26138   5.519   2.129   7.737  2.5003  1.5673  2.8639
  194MOL0     H26139   5.535   1.822   7.745 -1.1026  1.2532 -1.4390
  194MOL0     H26140   5.556   1.933   7.612  0.5883 -1.8997 -1.7252
  194MOL0     H26141   5.770   2.122   7.643  2.2654  0.6307 -0.3378
  194MOL0     H26142   6.132   1.995   7.671 -0.9734 -1.3904  0.5908
  194MOL0     H26143   6.018   2.117   7.599  0.3797 -0.5002 -1.1215
  194MOL0     H26144   5.984   2.213   7.827  0.3681 -0.6239  0.0091
  194MOL0     H26145   6.096   2.112   7.893  0.4635  0.0223  0.7456
  194MOL0     H26146   6.225   2.328   7.838 -0.0402  1.3223 -0.6646
  194MOL0     H26147   6.155   2.341   7.683  2.9050  0.3142 -1.4235
  194MOL0     H26148   6.287   2.156   7.600  1.9738  4.2525 -2.9829
  194MOL0     H26149   6.369   2.142   7.764  1.5378 -0.3149 -1.4574
  194MOL0     H26150   6.517   2.084   7.618 -2.4149  2.2570 -1.4465
  194MOL0     H26151   6.742   2.034   7.640  0.5678 -0.7087 -0.2534
  194MOL0     H26152   7.175   2.526   7.664  1.6418  0.8125 -0.5832
  194MOL0     H26153   7.418   2.566   7.633 -1.6049  0.8396  0.0807
  194MOL0     H26154   7.677   2.227   7.569  0.0138  0.1494  0.2627
  194MOL0     H26155   7.643   2.260   7.394  1.1921 -1.8862  0.0684
  194MOL0     H26156   7.789   2.454   7.403 -0.1165 -0.3257 -0.1596
  194MOL0     H26157   7.829   2.419   7.576 -2.1560 -0.9275 -0.0063
  194MOL0     H26158   7.920   2.188   7.497 -0.0036  1.4949  1.5754
  194MOL0     H26159   7.877   2.232   7.340 -1.2678 -0.7627  0.5717
  194MOL0     H26160   8.029   2.408   7.331 -0.9997 -0.7212  0.2832
  194MOL0     H26161   8.100   2.258   7.347 -1.1166 -0.7005  0.0919
  194MOL0     H26162   8.064   2.490   7.556 -1.1883 -0.2844  0.3628
  194MOL0     H26163   8.219   2.433   7.485  0.6027  0.4994 -0.5706
  194MOL0     H26164   8.065   2.248   7.673 -0.4006  2.7736  1.7922
  194MOL0     H26165   8.232   2.239   7.598  1.5795  0.9510  2.4130
  194MOL0     H26166   8.130   2.451   7.792 -0.5850 -0.2612  0.8139
  194MOL0     H26167   8.291   2.432   7.727 -2.4345  3.1189  0.3128
  194MOL0     H26168   8.249   2.337   7.969 -0.3578  0.0288 -0.3842
  194MOL0     H26169   8.172   2.201   7.889 -0.2565  0.7108  0.3284
  194MOL0     H26170   7.460   2.171   7.485 -0.2145 -0.1149  2.0004
  194MOL0     H26171   7.219   2.124   7.518  1.4977 -0.7749  0.1946
  194MOL0     H26172   6.819   2.455   7.609 -1.3038  0.8623  0.4336
  194MOL0     H26173   6.590   2.500   7.657 -0.2311  0.0027 -0.0349
  194MOL0     H26174   4.449   1.937   7.983 -3.0091  1.7104  1.2866
  194MOL0     H26175   4.274   2.020   7.883 -1.6216  1.0678 -1.1369
  194MOL0     H26176   4.220   2.068   7.355 -1.8161  0.6008  1.6573
  194MOL0     H26177   4.091   2.147   7.171  2.4252  0.8527 -0.8023
  194MOL0     H26178   4.059   2.558   7.134  0.5862 -0.3405  0.1440
  194MOL0     H26179   3.893   2.564   7.202 -0.3898 -0.5942  0.8603
  194MOL0     H26180   3.810   2.458   6.977  2.8973 -3.2535  0.7667
  194MOL0     H26181   3.960   2.540   6.912 -2.1096 -0.6958 -1.7093
  194MOL0     H26182   3.892   2.748   7.046  1.0205  1.0188 -1.5228
  194MOL0     H26183   3.732   2.662   7.075  1.7753  2.6917  1.5686
  194MOL0     H26184   3.762   2.629   6.814  0.1486 -0.9527 -0.4310
  194MOL0     H26185   3.696   2.786   6.862  0.1867  0.1520  0.6054
  194MOL0     H26186   4.059   2.916   6.699 -1.1875  0.0488 -0.8336
  194MOL0     H26187   4.045   2.527   7.357  2.2374  0.3905  1.1116
  194MOL0     H26188   4.137   2.450   7.663 -0.3183 -0.8795 -1.1383
  194MOL0     H26189   4.302   2.462   7.596 -0.3858 -3.7496 -0.7198
  194MOL0     H26190   4.171   2.573   7.542  0.3881  1.4633  1.2370
  195MOL0     O26191   1.306  10.826   6.005  0.3087 -0.2860  0.4274
  195MOL0     C26192   1.252  10.873   5.901  0.0449  0.3101  0.4699
  195MOL0     O26193   1.325  10.906   5.786 -0.2228 -0.3279  0.2122
  195MOL0     C26194   1.460  10.891   5.782 -0.4328  0.3550  0.7967
  195MOL0     C26195   1.501  10.843   5.660  0.5057 -1.2687  0.1293
  195MOL0     C26196   1.637  10.822   5.638 -0.3134  0.2260  0.3886
  195MOL0     C26197   1.726  10.836   5.738  0.6461  0.8746  0.3441
  195MOL0     O26198   1.855  10.812   5.704 -0.3234 -0.1764  0.5709
  195MOL0     C26199   1.962  10.872   5.783  0.4314  0.3225  0.6706
  195MOL0     C26200   2.096  10.855   5.695 -0.5604 -1.1069  0.1934
  195MOL0     C26201   2.189  10.973   5.738  0.0804  0.2661  0.0008
  195MOL0     C26202   2.333  10.939   5.683 -0.4622  0.1304  0.0144
  195MOL0     C26203   2.417  10.849   5.781 -0.6612  0.3131 -0.0832
  195MOL0     C26204   2.575  10.868   5.779 -0.4235 -0.3311  0.2241
  195MOL0     C26205   2.640  10.843   5.646  1.2606  0.4588 -0.3143
  195MOL0     C26206   2.792  10.864   5.650  0.4397  1.2810 -0.5632
  195MOL0     N26207   2.870  10.758   5.725  0.1562  0.3399 -0.0435
  195MOL0     C26208   2.931  10.781   5.848 -0.5525  0.5636  1.6501
  195MOL0     C26209   2.996  10.672   5.875 -0.0946  0.5346 -0.0008
  195MOL0     C26210   3.086  10.647   5.997  0.1030 -0.0045 -0.4067
  195MOL0     C26211   3.200  10.561   5.973  0.3199  0.0306 -0.0325
  195MOL0     C26212   3.266  10.516   6.098 -0.2167  0.1490 -0.1146
  195MOL0     C26213   3.395  10.438   6.090  0.6254  0.8097  0.8302
  195MOL0     O26214   3.490  10.530   6.047  0.4307 -0.4405  0.1100
  195MOL0     C26215   3.622  10.496   6.069 -0.8821 -0.6924  0.0311
  195MOL0     C26216   3.673  10.363   6.048 -0.4072  0.3784 -0.0896
  195MOL0     C26217   3.805  10.332   6.049 -0.2870  0.9199  0.6237
  195MOL0     C26218   3.900  10.435   6.069  0.6272 -0.2063 -0.5049
  195MOL0     C26219   4.039  10.409   6.067  0.1921 -0.3522 -0.2242
  195MOL0     O26220   4.116  10.518   6.080  0.3045  0.6418  0.3487
  195MOL0     C26221   4.249  10.521   6.047 -0.6141 -0.1290 -0.7057
  195MOL0     C26222   4.303  10.646   6.090 -0.6088  0.9372 -0.0112
  195MOL0     C26223   4.437  10.674   6.074 -0.6240 -0.2902  0.4820
  195MOL0     C26224   4.520  10.576   6.015 -0.4763  0.3421  0.6379
  195MOL0     O26225   4.656  10.585   5.998 -0.2161  0.4552 -0.2673
  195MOL0     C26226   4.715  10.712   6.006  0.2270  0.1825  0.0862
  195MOL0     C26227   4.757  10.744   6.144 -0.7892 -0.9405  0.2046
  195MOL0     C26228   4.861  10.655   6.217  0.3390  0.1918 -1.0714
  195MOL0     C26229   4.802  10.515   6.267 -0.1010  0.2841 -0.7494
  195MOL0     C26230   4.903  10.405   6.302 -0.0322 -0.3668  0.2093
  195MOL0     C26231   4.833  10.298   6.394 -0.0395  0.2209  0.0996
  195MOL0     C26232   4.700  10.224   6.351  0.8981 -0.6592  0.9947
  195MOL0     C26233   4.703  10.145   6.220  0.5476 -0.3883  0.2877
  195MOL0    Cl26234   4.833  10.020   6.236  0.2384  0.1890 -0.0314
  195MOL0     C26235   4.472  10.446   5.976  1.0957  0.1228  0.4726
  195MOL0     C26236   4.337  10.419   5.995  0.0050 -0.4643  0.6850
  195MOL0     O26237   4.076  10.293   6.062  0.2294  0.1411  0.7008
  195MOL0     C26238   3.857  10.570   6.083 -0.3147 -0.3112  0.0422
  195MOL0     C26239   3.722  10.597   6.082 -0.0227 -0.3697  0.5039
  195MOL0     N26240   2.985  10.583   5.772  0.4140 -0.1103  1.1645
  195MOL0     N26241   2.906  10.632   5.685  0.0050 -0.5840 -0.0113
  195MOL0     C26242   1.686  10.888   5.861 -0.7877  0.7261 -1.4603
  195MOL0     C26243   1.549  10.918   5.887  0.3758 -0.0826  0.5560
  195MOL0     C26244   1.102  10.902   5.894 -0.0494  0.0678 -0.5563
  195MOL0     C26245   1.050  10.930   5.769  0.4843  0.1059  0.6155
  195MOL0     C26246   0.924  10.978   5.759  0.1292  0.5595  0.2410
  195MOL0     C26247   0.844  11.008   5.866  0.1165 -0.2970  0.1784
  195MOL0     O26248   0.728  11.074   5.858  0.2560  0.0547 -0.0901
  195MOL0     C26249   0.644  11.069   5.742 -0.0441  0.0665  0.3819
  195MOL0     C26250   0.497  11.083   5.798 -0.4627 -0.0535 -0.3131
  195MOL0     C26251   0.455  10.967   5.887 -0.5093 -0.3326  0.5708
  195MOL0     C26252   0.416  11.005   6.035 -0.2820 -0.2541  0.3038
  195MOL0     C26253   0.518  11.086   6.105  0.3266 -1.1103  0.5903
  195MOL0     C26254   0.601  11.169   6.153 -0.2671 -1.0424  1.1937
  195MOL0     C26255   0.895  10.989   5.993 -0.8371 -0.1791  0.1346
  195MOL0     C26256   1.024  10.933   6.004  0.9034 -0.4058 -0.4501
  195MOL0     C26257   1.077  10.936   6.151  0.6772  0.0610  0.2193
  195MOL0     H26258   1.419  10.822   5.591 -1.0014  2.1036  0.7046
  195MOL0     H26259   1.688  10.782   5.551  2.7339  1.5364  1.4382
  195MOL0     H26260   1.939  10.978   5.800  0.4100  0.2312  1.2156
  195MOL0     H26261   1.977  10.817   5.876  1.3102 -0.1831  0.2458
  195MOL0     H26262   2.069  10.873   5.591  1.6960  0.2456 -0.2273
  195MOL0     H26263   2.144  10.758   5.711 -1.2824 -1.6800 -0.9870
  195MOL0     H26264   2.177  10.980   5.847  1.1687 -1.0663  0.2312
  195MOL0     H26265   2.155  11.068   5.697  3.0031  1.1480 -0.5700
  195MOL0     H26266   2.318  10.886   5.589  0.6416  1.7203 -1.1279
  195MOL0     H26267   2.392  11.031   5.669  0.4548 -0.4733 -0.1564
  195MOL0     H26268   2.389  10.862   5.886  0.5697 -2.4748  0.6745
  195MOL0     H26269   2.398  10.744   5.758 -0.2049  0.2910 -0.3650
  195MOL0     H26270   2.592  10.970   5.815 -1.0301 -0.2222  0.2158
  195MOL0     H26271   2.618  10.795   5.848 -2.1153  1.3730  3.3083
  195MOL0     H26272   2.613  10.913   5.566  2.3455  0.2121 -0.9173
  195MOL0     H26273   2.610  10.746   5.606  2.7946  0.9178 -2.7980
  195MOL0     H26274   2.817  10.860   5.544 -0.2407  0.3910 -0.7012
  195MOL0     H26275   2.828  10.958   5.693  0.5359  0.0926  2.1475
  195MOL0     H26276   2.926  10.866   5.915  0.9356  0.1131  2.3691
  195MOL0     H26277   3.125  10.745   6.023  0.5078  0.1934 -1.7099
  195MOL0     H26278   3.021  10.606   6.075 -2.6072  1.1807 -1.9060
  195MOL0     H26279   3.168  10.467   5.927  0.8225  0.4836 -1.3148
  195MOL0     H26280   3.267  10.619   5.910 -1.5621  3.0363  0.4771
  195MOL0     H26281   3.192  10.476   6.168 -4.2224  2.3431 -2.7450
  195MOL0     H26282   3.300  10.607   6.149 -1.9180  1.4360 -1.1799
  195MOL0     H26283   3.370  10.350   6.030 -3.7575  3.1448 -1.2577
  195MOL0     H26284   3.409  10.407   6.195  2.0260  0.9429  0.6977
  195MOL0     H26285   3.603  10.284   6.025 -0.9286  1.8500 -4.4466
  195MOL0     H26286   3.840  10.230   6.042 -0.7316  0.8968 -3.1438
  195MOL0     H26287   4.242  10.720   6.140  0.1970  2.0543 -0.6465
  195MOL0     H26288   4.478  10.773   6.094 -0.4574  0.4251 -2.8021
  195MOL0     H26289   4.799  10.724   5.937  0.7993 -1.0015  0.5485
  195MOL0     H26290   4.648  10.791   5.970  1.3425  2.0574  1.8472
  195MOL0     H26291   4.799  10.844   6.131 -1.5544 -0.4647  1.2155
  195MOL0     H26292   4.666  10.754   6.204 -2.1047 -2.1341 -1.4983
  195MOL0     H26293   4.940  10.641   6.143  1.3596 -0.1060  0.0401
  195MOL0     H26294   4.899  10.712   6.302 -0.1762 -1.0949  0.0608
  195MOL0     H26295   4.746  10.475   6.182 -0.3900  1.4693 -1.1263
  195MOL0     H26296   4.743  10.534   6.356  1.0530 -1.4733  0.4697
  195MOL0     H26297   4.973  10.455   6.369 -2.2212  2.4749  0.5559
  195MOL0     H26298   4.949  10.355   6.216 -0.2285  1.1125 -0.7884
  195MOL0     H26299   4.906  10.222   6.421 -1.4298 -1.4795 -0.7611
  195MOL0     H26300   4.811  10.350   6.488 -1.1619 -2.3917  1.3611
  195MOL0     H26301   4.617  10.292   6.330  0.1993 -2.5878 -3.7296
  195MOL0     H26302   4.676  10.160   6.437 -0.7094 -1.5080 -0.0223
  195MOL0     H26303   4.607  10.097   6.197  0.4549  0.1928 -0.5744
  195MOL0     H26304   4.736  10.203   6.134 -0.8743  1.3542  0.8446
  195MOL0     H26305   4.538  10.371   5.933  0.4307 -0.0056 -0.3579
  195MOL0     H26306   4.300  10.325   5.956  0.8930 -1.4982  2.2220
  195MOL0     H26307   3.921  10.658   6.083  0.2511 -0.6272 -2.5977
  195MOL0     H26308   3.696  10.702   6.094 -1.2491 -0.3858 -1.6181
  195MOL0     H26309   1.766  10.895   5.934  0.0582 -1.0692 -2.1703
  195MOL0     H26310   1.519  10.967   5.979 -0.1273  0.2044  0.2394
  195MOL0     H26311   1.105  10.912   5.678  0.6163 -2.2351  1.1057
  195MOL0     H26312   0.882  11.003   5.662  0.7131  2.3389  0.4211
  195MOL0     H26313   0.660  10.972   5.695  0.3907  0.4373 -0.2406
  195MOL0     H26314   0.655  11.144   5.663  0.1477 -1.7278 -1.3639
  195MOL0     H26315   0.437  11.079   5.707  1.0041  0.1091 -1.3218
  195MOL0     H26316   0.484  11.178   5.851  0.1347  0.5935 -1.2948
  195MOL0     H26317   0.536  10.894   5.891 -0.6963 -0.4999  1.7874
  195MOL0     H26318   0.373  10.917   5.834  0.8057 -1.6364 -0.2977
  195MOL0     H26319   0.322  11.060   6.031 -1.2866 -1.9875 -3.5975
  195MOL0     H26320   0.398  10.916   6.097 -0.0357  1.0324  2.3338
  195MOL0     H26321   0.683  11.223   6.196  0.5281 -1.0385 -0.2608
  195MOL0     H26322   0.847  11.021   6.085  0.7854 -0.6990  1.2116
  195MOL0     H26323   1.080  10.841   6.205 -1.1405  0.0224  0.3359
  195MOL0     H26324   1.172  10.990   6.149  0.5867  0.2107 -0.2892
  195MOL0     H26325   1.009  11.004   6.204  0.5778  0.4975 -0.4553
  196MOL0     O26326   4.637   8.386   8.491 -0.2286  0.7830 -0.6004
  196MOL0     C26327   4.591   8.453   8.582 -0.2764  0.3524 -0.5950
  196MOL0     O26328   4.649   8.557   8.648  0.0834 -0.4182  0.2262
  196MOL0     C26329   4.783   8.590   8.629  0.0412 -0.8188  0.8345
  196MOL0     C26330   4.825   8.717   8.665 -0.1707  0.0802 -0.6974
  196MOL0     C26331   4.960   8.744   8.684 -0.1879  0.2929  0.3186
  196MOL0     C26332   5.060   8.652   8.652 -0.4033  0.2916  0.2791
  196MOL0     O26333   5.190   8.681   8.655 -0.3105  0.2511 -0.2904
  196MOL0     C26334   5.289   8.577   8.664  0.2451  0.7517  0.8160
  196MOL0     C26335   5.423   8.641   8.662  0.4770  0.3343  0.3953
  196MOL0     C26336   5.469   8.681   8.526  0.0645 -0.5733 -0.1976
  196MOL0     C26337   5.573   8.590   8.458  0.0204 -0.2574  0.1549
  196MOL0     C26338   5.627   8.650   8.323  1.0968  0.4474  0.2892
  196MOL0     C26339   5.739   8.572   8.260 -0.3629  0.5450 -0.0155
  196MOL0     C26340   5.788   8.638   8.125  0.0421  0.0447  0.9911
  196MOL0     C26341   5.880   8.540   8.049  0.8161 -0.8458  0.0387
  196MOL0     N26342   6.000   8.503   8.115 -0.5298 -0.5206 -0.5731
  196MOL0     C26343   6.081   8.593   8.197 -0.1361  0.1737  0.0775
  196MOL0     C26344   6.175   8.511   8.248  0.2064  0.1362  0.6600
  196MOL0     C26345   6.281   8.549   8.343 -0.4616  0.9735  0.0601
  196MOL0     C26346   6.266   8.488   8.483 -0.1833  0.6911  0.4669
  196MOL0     C26347   6.369   8.537   8.583 -0.6247 -0.7241 -0.5849
  196MOL0     C26348   6.516   8.512   8.551 -0.6564  0.0741 -0.1626
  196MOL0     O26349   6.548   8.371   8.555 -0.0865 -0.2099 -0.0414
  196MOL0     C26350   6.669   8.341   8.513  0.0612 -0.0508 -0.0028
  196MOL0     C26351   6.694   8.338   8.374  0.5667 -1.0196 -0.4613
  196MOL0     C26352   6.825   8.313   8.325 -0.4161 -0.4948 -0.3862
  196MOL0     C26353   6.926   8.276   8.419  0.2355 -0.2829 -0.3567
  196MOL0     C26354   7.059   8.228   8.382  0.0432 -0.1896  0.1859
  196MOL0     O26355   7.136   8.182   8.482 -0.0447  0.1532 -0.1079
  196MOL0     C26356   7.263   8.160   8.454  0.4009 -0.6827  0.1935
  196MOL0     C26357   7.295   8.051   8.372  0.0885  0.4515  0.8728
  196MOL0     C26358   7.425   8.015   8.349 -0.0414 -0.3432  0.2221
  196MOL0     C26359   7.531   8.090   8.401 -0.6714 -0.3226  0.5129
  196MOL0     O26360   7.663   8.041   8.391  0.3521  0.3036 -0.7371
  196MOL0     C26361   7.691   7.906   8.356 -0.1971  0.2631 -0.2329
  196MOL0     C26362   7.831   7.883   8.414 -0.0386 -0.3267  0.1402
  196MOL0     C26363   7.912   7.780   8.333 -0.3990 -0.1550  0.4017
  196MOL0     C26364   8.061   7.799   8.356 -0.6638  0.9153  0.8759
  196MOL0     C26365   8.120   7.915   8.284  0.3125  0.0203 -0.0073
  196MOL0     C26366   8.273   7.919   8.311 -0.1238 -0.2784 -0.7754
  196MOL0     C26367   8.343   8.034   8.229 -0.0296  0.4014  0.2321
  196MOL0     C26368   8.492   8.005   8.217 -1.4292  0.3682 -0.3708
  196MOL0    Cl26369   8.563   8.025   8.380  0.0429  0.2303  0.0114
  196MOL0     C26370   7.501   8.206   8.469 -0.4881  0.0524  0.7705
  196MOL0     C26371   7.370   8.240   8.502  0.4177 -0.0421  0.2415
  196MOL0     O26372   7.096   8.243   8.264  0.4599 -0.6427 -0.5610
  196MOL0     C26373   6.890   8.274   8.554 -0.8685  0.0393  0.0103
  196MOL0     C26374   6.763   8.308   8.601 -0.6693  0.0825 -0.1205
  196MOL0     N26375   6.158   8.381   8.212 -0.1561 -0.0262 -0.3541
  196MOL0     N26376   6.049   8.372   8.137 -0.5437  0.2304  0.0446
  196MOL0     C26377   5.017   8.523   8.606  0.6275 -0.8797 -0.1096
  196MOL0     C26378   4.878   8.496   8.593  0.3654  0.2248  0.5003
  196MOL0     C26379   4.446   8.433   8.611  0.1858 -0.5211  0.2173
  196MOL0     C26380   4.401   8.460   8.744  0.3323 -0.3968 -0.1215
  196MOL0     C26381   4.276   8.430   8.783 -0.0901  0.0087  0.0192
  196MOL0     C26382   4.177   8.389   8.699 -0.3889  1.0266  0.0329
  196MOL0     O26383   4.050   8.375   8.733  0.6730  0.2124  0.3119
  196MOL0     C26384   3.988   8.417   8.853  0.1518  0.5006 -0.5109
  196MOL0     C26385   3.981   8.566   8.878 -0.0326 -0.4280  0.2028
  196MOL0     C26386   3.896   8.600   9.006 -0.5977  0.5838  0.5706
  196MOL0     C26387   3.756   8.617   8.966  0.6584  0.2085 -0.3089
  196MOL0     C26388   3.677   8.682   9.072  0.3527  0.7159 -0.4701
  196MOL0     C26389   3.618   8.735   9.165 -0.0357 -0.1981 -0.9230
  196MOL0     C26390   4.218   8.358   8.574 -0.0477 -0.4101 -0.0185
  196MOL0     C26391   4.349   8.378   8.522 -0.2445  0.2054 -0.2776
  196MOL0     C26392   4.378   8.364   8.373 -0.3196 -0.5459  0.7134
  196MOL0     H26393   4.755   8.792   8.701  0.2956  0.6253 -0.9249
  196MOL0     H26394   4.991   8.841   8.722  2.4897 -1.5741  3.4374
  196MOL0     H26395   5.265   8.513   8.749 -1.4789 -2.2115 -1.6942
  196MOL0     H26396   5.291   8.519   8.571  0.0025  0.7050  0.8407
  196MOL0     H26397   5.494   8.563   8.690  1.7396  0.5786 -1.9045
  196MOL0     H26398   5.422   8.721   8.737 -0.7464 -2.1228  3.2248
  196MOL0     H26399   5.518   8.779   8.528  1.4031 -1.1808 -1.0598
  196MOL0     H26400   5.378   8.687   8.466 -1.1610 -1.5405  1.4872
  196MOL0     H26401   5.656   8.573   8.527 -0.5545  1.0549  1.2093
  196MOL0     H26402   5.534   8.488   8.446 -0.5534 -0.1463  0.9478
  196MOL0     H26403   5.540   8.659   8.256  0.2310  1.5285  1.5136
  196MOL0     H26404   5.655   8.755   8.335  0.7994  0.8074 -1.7423
  196MOL0     H26405   5.822   8.551   8.329 -0.3194 -2.7016 -0.8821
  196MOL0     H26406   5.707   8.468   8.248 -1.1821  0.3426  3.1459
  196MOL0     H26407   5.834   8.736   8.139 -2.1220  1.2735 -0.0699
  196MOL0     H26408   5.699   8.660   8.066  0.8411  0.4195 -0.1115
  196MOL0     H26409   5.827   8.447   8.025 -1.8816 -0.0051  2.2399
  196MOL0     H26410   5.904   8.596   7.958 -1.1314  0.5520  0.3269
  196MOL0     H26411   6.059   8.698   8.212  5.5211  1.8316 -0.9958
  196MOL0     H26412   6.372   8.511   8.295 -1.6617 -1.6909 -0.2756
  196MOL0     H26413   6.271   8.658   8.348 -2.9182  0.9635 -2.2538
  196MOL0     H26414   6.165   8.519   8.511 -2.0401 -3.6024 -0.6446
  196MOL0     H26415   6.262   8.379   8.488  5.7604  0.2443  3.5596
  196MOL0     H26416   6.358   8.480   8.676 -3.7869  3.7003  2.1556
  196MOL0     H26417   6.359   8.643   8.608  0.4303 -0.5030 -1.0496
  196MOL0     H26418   6.573   8.558   8.633  2.4019  1.7357 -2.9947
  196MOL0     H26419   6.541   8.564   8.458  1.7542  0.8036  0.8201
  196MOL0     H26420   6.622   8.372   8.301 -1.7461 -0.5522  1.8723
  196MOL0     H26421   6.835   8.302   8.218 -1.7978  1.8846 -0.8232
  196MOL0     H26422   7.221   7.989   8.322  1.6090 -0.8310  0.1565
  196MOL0     H26423   7.440   7.934   8.277 -0.2369  0.4121 -0.6837
  196MOL0     H26424   7.618   7.835   8.395  0.7264 -0.1513  0.7961
  196MOL0     H26425   7.696   7.912   8.247 -2.7553  1.2088 -0.3592
  196MOL0     H26426   7.873   7.984   8.422  1.3938 -0.3457 -4.3533
  196MOL0     H26427   7.821   7.850   8.518  0.5871  2.3537  1.1222
  196MOL0     H26428   7.873   7.680   8.353 -0.9675 -0.1250 -0.5171
  196MOL0     H26429   7.885   7.808   8.231  0.5842 -0.1441  0.1278
  196MOL0     H26430   8.108   7.709   8.316 -0.6474  1.5350 -0.5769
  196MOL0     H26431   8.103   7.800   8.456  2.9357  0.5696 -0.4838
  196MOL0     H26432   8.071   7.999   8.333 -0.6069 -1.4748  1.7445
  196MOL0     H26433   8.095   7.914   8.177 -0.1650  0.7841  0.0903
  196MOL0     H26434   8.287   7.944   8.417  0.7177  0.3478 -1.0279
  196MOL0     H26435   8.317   7.821   8.293 -1.3811 -1.1687  0.7475
  196MOL0     H26436   8.336   8.128   8.286 -0.8754  1.0450 -0.8721
  196MOL0     H26437   8.293   8.034   8.131  0.1791 -0.3810  0.1186
  196MOL0     H26438   8.512   7.908   8.171  1.1454  0.3581  0.5651
  196MOL0     H26439   8.539   8.086   8.159 -0.1522  0.1283  0.2816
  196MOL0     H26440   7.572   8.269   8.522 -1.6907  1.4587  0.7907
  196MOL0     H26441   7.344   8.317   8.574 -2.1932  0.3236 -0.9533
  196MOL0     H26442   6.952   8.234   8.634 -2.9582 -3.8916 -0.0930
  196MOL0     H26443   6.732   8.295   8.704  0.7222  0.6188  0.3893
  196MOL0     H26444   5.083   8.445   8.571  0.3514 -0.4350 -1.7126
  196MOL0     H26445   4.861   8.394   8.558  3.2122  0.5304 -2.1864
  196MOL0     H26446   4.460   8.506   8.822 -1.1212  0.8952  0.2652
  196MOL0     H26447   4.256   8.444   8.888 -0.2565 -2.7760  0.4322
  196MOL0     H26448   4.029   8.364   8.940  0.1898  1.8792  0.3331
  196MOL0     H26449   3.885   8.383   8.838  0.3010  0.8478 -2.6022
  196MOL0     H26450   3.925   8.592   8.789 -3.2697 -0.8826  1.9648
  196MOL0     H26451   4.080   8.614   8.883  0.7649 -1.9930  0.2015
  196MOL0     H26452   3.934   8.693   9.048 -1.3260  1.2363 -0.1628
  196MOL0     H26453   3.898   8.517   9.077 -2.0117 -2.0576 -2.1796
  196MOL0     H26454   3.745   8.684   8.881  1.5713  3.9271  2.2759
  196MOL0     H26455   3.705   8.521   8.952  0.6421  0.5493 -3.0239
  196MOL0     H26456   3.567   8.782   9.246  0.6064 -0.9963 -0.0430
  196MOL0     H26457   4.134   8.309   8.525  1.3177 -2.1895 -0.6518
  196MOL0     H26458   4.416   8.455   8.325 -1.0489  1.3180  3.3971
  196MOL0     H26459   4.457   8.292   8.351 -0.7588 -0.9300  0.3907
  196MOL0     H26460   4.298   8.332   8.307  1.7262 -0.4524 -1.9664
  197MOL0     O26461   8.368   9.967   4.746 -0.2688  0.2485  0.1396
  197MOL0     C26462   8.333  10.082   4.720 -0.0548 -0.7830  0.9105
  197MOL0     O26463   8.266  10.165   4.802  0.1316 -0.1603 -0.2862
  197MOL0     C26464   8.245  10.130   4.931  1.0542  0.6702 -0.0891
  197MOL0     C26465   8.115  10.147   4.986  0.6444 -0.5908 -0.0086
  197MOL0     C26466   8.093  10.113   5.116  0.0884 -0.8437  0.1501
  197MOL0     C26467   8.194  10.065   5.194 -0.5444 -0.1691 -0.9531
  197MOL0     O26468   8.166  10.031   5.328 -0.0748 -0.6462  0.0068
  197MOL0     C26469   8.119  10.145   5.403  0.3976 -0.2600  0.1699
  197MOL0     C26470   8.166  10.131   5.550  0.2591 -0.2274  0.3200
  197MOL0     C26471   8.316  10.115   5.561  0.4080  0.2113 -1.0709
  197MOL0     C26472   8.394  10.254   5.533  0.0374 -0.6745 -0.2874
  197MOL0     C26473   8.539  10.233   5.502  0.1531 -0.9687 -0.4639
  197MOL0     C26474   8.625  10.161   5.615  0.3132 -0.3168  0.3708
  197MOL0     C26475   8.648  10.229   5.753 -0.0907  0.5387  0.7928
  197MOL0     C26476   8.764  10.152   5.826 -0.0243  0.4009  0.9371
  197MOL0     N26477   8.793  10.204   5.964  0.1270 -0.8175 -0.6242
  197MOL0     C26478   8.916  10.246   6.007 -0.4975 -0.4876 -0.5067
  197MOL0     C26479   8.929  10.203   6.134  0.5320 -0.2911 -0.5186
  197MOL0     C26480   9.064  10.209   6.200  0.4035 -0.4195 -0.1351
  197MOL0     C26481   9.102  10.353   6.231  0.3379  0.3219  0.4600
  197MOL0     C26482   9.207  10.415   6.129 -0.0306  0.1431 -0.7833
  197MOL0     C26483   9.339  10.342   6.111 -0.1007  0.3952 -0.5380
  197MOL0     O26484   9.440  10.422   6.038  0.0135  0.0229 -0.7602
  197MOL0     C26485   9.557  10.436   6.101  0.1795  0.1432  0.2325
  197MOL0     C26486   9.634  10.322   6.146  0.3031 -0.9279  0.4347
  197MOL0     C26487   9.746  10.339   6.217 -0.0115 -0.0814 -0.1775
  197MOL0     C26488   9.799  10.469   6.254  0.7879  0.0847  0.0559
  197MOL0     C26489   9.936  10.466   6.320 -0.1407  0.2051 -0.9317
  197MOL0     O26490  10.005  10.349   6.320  0.5524  0.0137  0.5137
  197MOL0     C26491  10.140  10.350   6.325  0.4107  0.5645 -0.4183
  197MOL0     C26492  10.234  10.447   6.302  0.0491 -0.4584  0.6301
  197MOL0     C26493  10.363  10.427   6.331  0.7563 -0.3773  1.1079
  197MOL0     C26494  10.419  10.308   6.381 -0.3720 -0.3101  0.7701
  197MOL0     O26495  10.545  10.260   6.393  0.2505 -0.0384  0.4169
  197MOL0     C26496  10.641  10.329   6.315 -0.1966  0.6023 -0.1256
  197MOL0     C26497  10.768  10.240   6.304  0.9092 -0.0803  1.0227
  197MOL0     C26498  10.856  10.280   6.190 -0.0912  1.1307  0.5679
  197MOL0     C26499  10.968  10.174   6.172 -1.2000  0.2921  0.1655
  197MOL0     C26500  11.056  10.196   6.046 -0.4323 -1.4105 -1.0957
  197MOL0     C26501  11.151  10.074   6.026  0.7500 -0.6101  0.7201
  197MOL0     C26502  11.252  10.055   6.150 -0.1953 -0.1880 -0.1572
  197MOL0     C26503  11.385  10.006   6.100 -0.7664 -0.1446 -0.1708
  197MOL0    Cl26504  11.366   9.832   6.061  0.2242 -0.3276 -0.3316
  197MOL0     C26505  10.326  10.212   6.401  0.2090 -0.4473  0.1580
  197MOL0     C26506  10.185  10.229   6.369 -0.1717 -0.0301 -0.4133
  197MOL0     O26507   9.963  10.574   6.375 -0.3156  0.0191 -0.0877
  197MOL0     C26508   9.729  10.583   6.203 -0.3714  1.1585 -1.0212
  197MOL0     C26509   9.607  10.566   6.137  0.2586  0.4263  0.2198
  197MOL0     N26510   8.808  10.152   6.176  0.0430 -0.7148 -0.4496
  197MOL0     N26511   8.734  10.158   6.074  0.1066  0.7740 -0.3968
  197MOL0     C26512   8.326  10.045   5.143  0.6749 -0.5824  0.2779
  197MOL0     C26513   8.351  10.078   5.014 -0.0143 -0.6879 -0.1139
  197MOL0     C26514   8.344  10.131   4.574 -1.2811  0.4503 -0.1308
  197MOL0     C26515   8.257  10.232   4.540 -0.2493  0.7991  0.2375
  197MOL0     C26516   8.247  10.291   4.418  0.3347  0.5792  0.8305
  197MOL0     C26517   8.330  10.244   4.319  1.5883 -0.3378  0.4622
  197MOL0     O26518   8.342  10.296   4.188  0.1531 -0.8128  0.0439
  197MOL0     C26519   8.240  10.383   4.138 -0.5517 -0.0521  0.1146
  197MOL0     C26520   8.118  10.312   4.079 -0.4306  0.4952  0.2081
  197MOL0     C26521   8.136  10.192   3.997  0.1573  0.1135 -1.1761
  197MOL0     C26522   8.001  10.142   3.949 -0.8432  0.4551  0.9416
  197MOL0     C26523   7.927  10.072   4.052  0.1284 -0.1062 -0.8972
  197MOL0     C26524   7.862  10.006   4.131 -0.9115 -0.0838  0.0640
  197MOL0     C26525   8.417  10.144   4.345 -0.2450 -0.4404  0.3356
  197MOL0     C26526   8.428  10.082   4.474 -0.0162  0.6584  0.0930
  197MOL0     C26527   8.523   9.971   4.489 -0.1001  0.4788 -0.5906
  197MOL0     H26528   8.028  10.179   4.929 -2.5418 -0.9254  4.2000
  197MOL0     H26529   7.991  10.128   5.150  0.0203 -4.0501  1.7418
  197MOL0     H26530   8.138  10.239   5.350 -0.7399  0.8526  1.6436
  197MOL0     H26531   8.010  10.133   5.401  0.2084  1.1710  0.7971
  197MOL0     H26532   8.120  10.042   5.592  0.5222 -0.7984 -0.5819
  197MOL0     H26533   8.131  10.224   5.597 -0.3398  1.1958 -2.7178
  197MOL0     H26534   8.351  10.033   5.498 -2.0547 -1.5092 -0.3397
  197MOL0     H26535   8.337  10.079   5.662 -3.4569 -0.7653 -0.4479
  197MOL0     H26536   8.347  10.291   5.441  0.0381 -0.8459 -0.3572
  197MOL0     H26537   8.371  10.324   5.613 -0.8588  0.5999 -1.6173
  197MOL0     H26538   8.552  10.171   5.413  1.8860 -1.9407  0.4141
  197MOL0     H26539   8.580  10.333   5.488  1.5566 -1.2946  0.9836
  197MOL0     H26540   8.579  10.062   5.624  1.3784 -0.8470  0.1276
  197MOL0     H26541   8.722  10.137   5.571 -0.9734  0.1741 -3.0007
  197MOL0     H26542   8.563  10.232   5.820 -1.1793  4.3276 -0.5089
  197MOL0     H26543   8.688  10.329   5.737  2.5999 -0.8556 -2.6887
  197MOL0     H26544   8.742  10.045   5.820 -0.3358  0.5305 -0.4973
  197MOL0     H26545   8.853  10.159   5.762 -0.1956  1.4450  0.7889
  197MOL0     H26546   8.990  10.290   5.941 -1.4366  0.5792 -0.8654
  197MOL0     H26547   9.047  10.161   6.297 -0.5648  2.8777  1.4577
  197MOL0     H26548   9.133  10.154   6.134  1.8307  2.4793 -1.2404
  197MOL0     H26549   9.002  10.395   6.231 -0.3363 -1.0855 -1.8719
  197MOL0     H26550   9.147  10.364   6.330  2.0690 -1.0404 -0.1188
  197MOL0     H26551   9.221  10.515   6.170 -2.7138  0.6303 -0.8697
  197MOL0     H26552   9.156  10.426   6.033 -2.1453  0.2126  0.2862
  197MOL0     H26553   9.327  10.246   6.060 -0.4841 -1.1320  2.2269
  197MOL0     H26554   9.361  10.308   6.212 -1.4483 -0.1327 -0.4029
  197MOL0     H26555   9.603  10.219   6.130 -0.7988 -0.2290 -2.5204
  197MOL0     H26556   9.806  10.250   6.234  2.9217  1.8533  0.2698
  197MOL0     H26557  10.207  10.544   6.260 -0.2469 -1.2526 -1.0742
  197MOL0     H26558  10.432  10.501   6.293 -0.5976 -0.2878 -1.3409
  197MOL0     H26559  10.603  10.345   6.214 -2.9984 -1.0011  0.5415
  197MOL0     H26560  10.663  10.420   6.371 -0.6727  0.5364  0.1806
  197MOL0     H26561  10.828  10.244   6.395  1.9882 -0.7300  0.3548
  197MOL0     H26562  10.743  10.135   6.286 -1.4382  0.3370  1.5060
  197MOL0     H26563  10.803  10.291   6.096  0.8725  1.0303  0.0015
  197MOL0     H26564  10.894  10.379   6.219 -0.9741  2.5699 -2.7445
  197MOL0     H26565  10.921  10.076   6.159 -2.0060  0.7332 -0.3211
  197MOL0     H26566  11.026  10.161   6.264 -0.3171 -1.3558 -0.5626
  197MOL0     H26567  11.100  10.294   6.066 -0.3242 -0.7361 -4.1623
  197MOL0     H26568  10.990  10.202   5.959  1.3211 -1.5406 -2.4904
  197MOL0     H26569  11.088   9.989   6.000  0.2474 -0.4627  1.4171
  197MOL0     H26570  11.212  10.096   5.938  0.4990 -1.2367  0.3836
  197MOL0     H26571  11.218   9.996   6.236  1.0203  1.9354  1.8890
  197MOL0     H26572  11.263  10.157   6.188  0.0535 -0.5843  0.8845
  197MOL0     H26573  11.412  10.058   6.007  0.5949  0.7592  0.6972
  197MOL0     H26574  11.462  10.028   6.175 -0.9229  0.3794 -0.1595
  197MOL0     H26575  10.350  10.113   6.437 -1.4650 -0.4703  1.3355
  197MOL0     H26576  10.112  10.150   6.385 -0.5583  0.2804 -0.6311
  197MOL0     H26577   9.767  10.680   6.231  1.8759  0.1406 -0.2906
  197MOL0     H26578   9.564  10.661   6.110 -1.0946  0.5642  2.5409
  197MOL0     H26579   8.407  10.004   5.203  0.0595  0.4134  1.8402
  197MOL0     H26580   8.448  10.083   4.965  0.0006  2.6889 -0.0048
  197MOL0     H26581   8.179  10.275   4.602  0.3506  3.9268 -1.0304
  197MOL0     H26582   8.161  10.357   4.407 -0.8960 -1.3572 -2.9034
  197MOL0     H26583   8.269  10.439   4.049  0.0812 -1.4983 -0.6122
  197MOL0     H26584   8.215  10.459   4.213  0.7271 -0.3888  0.9169
  197MOL0     H26585   8.065  10.388   4.021 -3.8379 -0.3661  1.9558
  197MOL0     H26586   8.055  10.289   4.165 -1.6392 -0.4997 -0.9089
  197MOL0     H26587   8.190  10.119   4.059 -0.2844  0.7414 -0.0139
  197MOL0     H26588   8.206  10.208   3.914  2.6125 -0.6991  0.6089
  197MOL0     H26589   7.945  10.224   3.904 -0.8473  0.0789  0.2608
  197MOL0     H26590   8.026  10.069   3.872  3.5027  1.7648  0.8359
  197MOL0     H26591   7.805   9.947   4.199 -0.5113 -1.7431 -0.9810
  197MOL0     H26592   8.484  10.122   4.262 -2.8063 -0.9776 -1.7553
  197MOL0     H26593   8.550   9.937   4.388 -0.8310 -2.3733  0.0650
  197MOL0     H26594   8.610  10.011   4.541 -0.5002  1.8216 -0.9331
  197MOL0     H26595   8.492   9.882   4.544 -1.0046  1.3315  0.2997
  198MOL0     O26596   2.077   3.440   6.329  0.6610 -0.5011 -0.1991
  198MOL0     C26597   2.031   3.483   6.227 -0.6445 -0.1257  0.9927
  198MOL0     O26598   2.064   3.431   6.101 -0.0315  0.4377  0.2063
  198MOL0     C26599   2.162   3.337   6.095  0.0010  0.6381 -0.0912
  198MOL0     C26600   2.170   3.219   6.168  0.1195 -1.4933  0.3836
  198MOL0     C26601   2.271   3.134   6.138 -0.6947 -0.0422 -0.5529
  198MOL0     C26602   2.371   3.159   6.044 -0.3126  0.1600 -0.1605
  198MOL0     O26603   2.470   3.065   6.033 -0.0255  0.0897 -0.3099
  198MOL0     C26604   2.573   3.085   5.939 -0.2999 -0.0868 -0.6997
  198MOL0     C26605   2.672   2.971   5.963 -0.6692  0.2509  0.1133
  198MOL0     C26606   2.746   2.999   6.094 -0.4278  0.1693  1.3005
  198MOL0     C26607   2.839   2.882   6.123 -0.3888 -0.5506 -0.6089
  198MOL0     C26608   2.973   2.890   6.053 -0.1577 -1.1753  0.1764
  198MOL0     C26609   3.053   2.764   6.057 -0.5769 -0.0045  0.3194
  198MOL0     C26610   3.176   2.746   5.973  0.0524 -1.2450  0.8125
  198MOL0     C26611   3.139   2.743   5.818  0.7854  0.3156  0.0731
  198MOL0     N26612   3.252   2.740   5.736  0.5635 -0.2262  0.1091
  198MOL0     C26613   3.356   2.832   5.747 -0.7185  0.2177 -0.2862
  198MOL0     C26614   3.458   2.769   5.687 -0.6544  0.6852  0.2917
  198MOL0     C26615   3.600   2.830   5.687 -0.5960  0.4485 -0.5147
  198MOL0     C26616   3.703   2.753   5.608  0.2607  0.6398  0.7478
  198MOL0     C26617   3.836   2.825   5.625  0.7282 -0.1567  0.7361
  198MOL0     C26618   3.899   2.837   5.763  1.0456 -0.2496  0.0554
  198MOL0     O26619   3.921   2.708   5.822  0.4383  1.1217  0.1044
  198MOL0     C26620   3.933   2.705   5.960  0.1345  0.5581 -0.1986
  198MOL0     C26621   3.905   2.803   6.052  0.0388 -0.4080  0.0202
  198MOL0     C26622   3.933   2.774   6.188  0.6026  0.2264  0.3152
  198MOL0     C26623   3.982   2.653   6.231  0.3817  0.8233 -0.0819
  198MOL0     C26624   4.015   2.621   6.371  0.0471  0.5207  0.3228
  198MOL0     O26625   4.065   2.492   6.401  1.1443 -0.6286 -0.3752
  198MOL0     C26626   4.109   2.466   6.528  0.0710  0.4155 -0.0962
  198MOL0     C26627   4.195   2.542   6.608  0.0350  0.0571 -0.3046
  198MOL0     C26628   4.254   2.472   6.717 -0.4584  0.7362  0.2173
  198MOL0     C26629   4.213   2.340   6.751 -0.2822 -0.2368  0.5308
  198MOL0     O26630   4.268   2.269   6.855 -0.1496 -0.2498  0.2041
  198MOL0     C26631   4.389   2.309   6.926  0.8092  0.0378 -0.1645
  198MOL0     C26632   4.511   2.282   6.837  0.4277  0.2043  0.4777
  198MOL0     C26633   4.643   2.284   6.921 -0.0642 -0.1618  0.0276
  198MOL0     C26634   4.677   2.420   6.980  0.6548 -1.2655  0.1152
  198MOL0     C26635   4.817   2.424   7.046 -0.0266 -1.0221  0.2917
  198MOL0     C26636   4.844   2.323   7.155  0.5652  0.0766  0.0469
  198MOL0     C26637   4.976   2.370   7.243  0.4625 -0.2452  0.1511
  198MOL0     C26638   5.103   2.414   7.175  0.3279 -0.3794  0.2044
  198MOL0    Cl26639   5.181   2.287   7.075 -0.3335  0.2010 -0.0536
  198MOL0     C26640   4.114   2.276   6.677 -0.3678  0.0053 -0.1486
  198MOL0     C26641   4.071   2.337   6.566 -0.5378  0.9003  0.1967
  198MOL0     O26642   3.984   2.705   6.456  0.9244 -0.0291 -0.7879
  198MOL0     C26643   3.993   2.555   6.134  0.3886  0.8965  0.2481
  198MOL0     C26644   3.968   2.575   6.002 -0.4884  0.1718 -0.6916
  198MOL0     N26645   3.413   2.659   5.621  0.0143  0.0108 -0.3340
  198MOL0     N26646   3.285   2.640   5.650  0.2215  0.2089 -0.7716
  198MOL0     C26647   2.364   3.277   5.965  0.2088 -0.3145  0.0927
  198MOL0     C26648   2.258   3.363   5.990  1.2953 -0.1928 -0.7114
  198MOL0     C26649   1.905   3.578   6.233  0.1190  0.6459  0.6548
  198MOL0     C26650   1.825   3.594   6.112 -0.9627  0.3575  0.2618
  198MOL0     C26651   1.717   3.672   6.113 -0.5269 -0.1217  0.2719
  198MOL0     C26652   1.671   3.743   6.225  0.0489 -0.1248 -0.0455
  198MOL0     O26653   1.553   3.821   6.230  0.8122 -0.6015  0.2161
  198MOL0     C26654   1.461   3.812   6.117  0.0899 -0.4637  0.0179
  198MOL0     C26655   1.326   3.867   6.152 -0.4828 -0.4165  0.3177
  198MOL0     C26656   1.236   3.771   6.223  0.1334  0.2909  0.0147
  198MOL0     C26657   1.111   3.842   6.276  0.2419 -0.1659 -0.2500
  198MOL0     C26658   1.010   3.756   6.341 -0.0819 -0.1300  0.7351
  198MOL0     C26659   0.938   3.678   6.398 -0.3028 -0.3825 -0.4486
  198MOL0     C26660   1.746   3.738   6.340  0.5301  0.4401 -0.2289
  198MOL0     C26661   1.854   3.643   6.349 -0.2597 -0.3872 -0.6676
  198MOL0     C26662   1.926   3.619   6.479  0.1846  0.3711  0.2372
  198MOL0     H26663   2.097   3.202   6.247  1.1989  2.4664  2.5158
  198MOL0     H26664   2.267   3.045   6.200 -1.4276  1.0862  1.0983
  198MOL0     H26665   2.532   3.077   5.838  0.5234 -1.3170 -0.9498
  198MOL0     H26666   2.628   3.179   5.954 -0.7212 -0.1004  1.0915
  198MOL0     H26667   2.741   2.967   5.878  0.6212 -2.0603  1.1621
  198MOL0     H26668   2.628   2.871   5.973 -0.6762  0.3809  1.6261
  198MOL0     H26669   2.670   3.008   6.173  0.2882 -2.3325  2.3894
  198MOL0     H26670   2.800   3.093   6.077  0.6231 -0.0296  3.2626
  198MOL0     H26671   2.859   2.873   6.230  1.7204  2.3995 -0.6375
  198MOL0     H26672   2.797   2.785   6.093 -1.6806 -0.2653  0.2314
  198MOL0     H26673   2.972   2.940   5.956 -0.7041 -0.3170  0.6141
  198MOL0     H26674   3.036   2.961   6.107  0.1156  1.5781 -3.3943
  198MOL0     H26675   3.081   2.742   6.161  1.0799 -0.7473 -0.2480
  198MOL0     H26676   2.989   2.680   6.026 -0.0610  0.0377 -0.8974
  198MOL0     H26677   3.234   2.656   5.995 -2.3446 -2.4243  2.8343
  198MOL0     H26678   3.237   2.834   5.999  1.4087 -1.9865  0.2449
  198MOL0     H26679   3.073   2.658   5.796  1.3630 -0.1891  0.2394
  198MOL0     H26680   3.072   2.826   5.793 -0.3496 -0.7577 -0.5585
  198MOL0     H26681   3.352   2.928   5.798  0.8166  0.1101  0.0818
  198MOL0     H26682   3.604   2.936   5.660  1.0546  1.5060  3.1632
  198MOL0     H26683   3.630   2.833   5.792  1.3718  0.7244 -1.0486
  198MOL0     H26684   3.713   2.649   5.641 -0.8763  0.0503 -0.6814
  198MOL0     H26685   3.672   2.749   5.504 -0.3225 -1.0919  0.9630
  198MOL0     H26686   3.828   2.930   5.593  2.6346  0.0393  0.7811
  198MOL0     H26687   3.911   2.791   5.553  0.8360 -0.7968  1.1503
  198MOL0     H26688   3.830   2.901   5.820  1.0981  0.5161 -0.7196
  198MOL0     H26689   3.994   2.891   5.756  1.1319 -0.6021 -2.5156
  198MOL0     H26690   3.860   2.895   6.018  0.6303 -1.3187 -3.7061
  198MOL0     H26691   3.908   2.853   6.258  1.6924  0.3980  0.5153
  198MOL0     H26692   4.221   2.647   6.595 -0.0315  0.2321  0.8353
  198MOL0     H26693   4.331   2.522   6.775  0.5911 -2.0168  1.3724
  198MOL0     H26694   4.382   2.413   6.958 -0.5443  0.1929 -0.9190
  198MOL0     H26695   4.389   2.234   7.006 -2.1311 -0.6467 -0.7156
  198MOL0     H26696   4.502   2.184   6.789 -3.5342  0.0537  1.1153
  198MOL0     H26697   4.511   2.362   6.763  1.1442  1.0380  1.3597
  198MOL0     H26698   4.633   2.212   7.003  0.1842  0.0844  0.2726
  198MOL0     H26699   4.723   2.260   6.850  1.0927 -0.1866  1.3047
  198MOL0     H26700   4.595   2.449   7.045  0.0940  0.1092 -1.1467
  198MOL0     H26701   4.680   2.494   6.900  0.4681 -3.1834 -1.7540
  198MOL0     H26702   4.831   2.521   7.094  1.2162 -0.1773 -1.6975
  198MOL0     H26703   4.898   2.422   6.973  0.3522  3.6643  0.2626
  198MOL0     H26704   4.753   2.303   7.214  2.2432 -0.2677  2.7003
  198MOL0     H26705   4.863   2.232   7.098 -2.8995 -0.5958 -0.2685
  198MOL0     H26706   4.992   2.292   7.318 -3.5771  0.6947  2.2875
  198MOL0     H26707   4.925   2.446   7.303 -2.7583 -0.0497 -2.5228
  198MOL0     H26708   5.088   2.508   7.121  0.8546 -0.1775  0.4017
  198MOL0     H26709   5.178   2.438   7.250  1.8149 -1.6020 -0.8330
  198MOL0     H26710   4.085   2.172   6.688  0.4661 -0.1794  0.3701
  198MOL0     H26711   4.008   2.279   6.499 -0.8013  2.3151 -0.8190
  198MOL0     H26712   4.017   2.452   6.157  1.4407  1.2822  0.9234
  198MOL0     H26713   3.983   2.491   5.936  0.6334 -1.3877  1.4545
  198MOL0     H26714   2.422   3.304   5.877  1.6486 -0.5113  0.9525
  198MOL0     H26715   2.235   3.454   5.936  0.6216  0.2204  0.2354
  198MOL0     H26716   1.856   3.539   6.023  0.8063  0.0541  1.0252
  198MOL0     H26717   1.657   3.674   6.023 -2.4565  1.7688  1.5005
  198MOL0     H26718   1.445   3.710   6.080 -1.4602  0.1350 -1.0633
  198MOL0     H26719   1.511   3.862   6.034 -1.7595 -1.0393 -1.5374
  198MOL0     H26720   1.287   3.897   6.054  2.3147  1.5827 -0.3203
  198MOL0     H26721   1.340   3.958   6.209 -1.8023  1.0313 -1.5442
  198MOL0     H26722   1.277   3.719   6.310 -2.6210  2.2946  2.7129
  198MOL0     H26723   1.203   3.702   6.145  1.3877 -0.7202  0.3426
  198MOL0     H26724   1.144   3.909   6.356 -0.2376 -3.2899  2.7753
  198MOL0     H26725   1.079   3.912   6.198 -0.3994  1.3969  1.3493
  198MOL0     H26726   0.873   3.616   6.456 -0.7200 -3.2807 -3.6936
  198MOL0     H26727   1.706   3.786   6.428 -0.1030 -0.2332 -0.1376
  198MOL0     H26728   2.035   3.632   6.477  0.2290 -0.0486 -0.5535
  198MOL0     H26729   1.882   3.673   6.563 -1.1893  0.9954 -0.8492
  198MOL0     H26730   1.911   3.513   6.503 -1.0788  0.8150  1.4791
  199MOL0     O26731   9.423   9.572  10.187 -0.1171 -0.2533  0.5247
  199MOL0     C26732   9.363   9.653  10.255  1.0977 -0.6832  0.6901
  199MOL0     O26733   9.421   9.728  10.350 -0.4312  0.6723  0.1448
  199MOL0     C26734   9.551   9.695  10.387  0.2881  0.0749 -0.6650
  199MOL0     C26735   9.570   9.614  10.507  0.3314  0.0103  0.5147
  199MOL0     C26736   9.705   9.579  10.538 -0.6130 -0.3221 -0.0482
  199MOL0     C26737   9.818   9.648  10.485  1.0979  0.0696  0.3133
  199MOL0     O26738   9.950   9.623  10.522  0.5196  0.0439  0.7088
  199MOL0     C26739   9.979   9.500  10.583 -0.1071  0.0209  0.3197
  199MOL0     C26740  10.135   9.511  10.619 -0.7662  0.1359  1.1942
  199MOL0     C26741  10.204   9.384  10.640 -0.2760  0.1944  0.4428
  199MOL0     C26742  10.201   9.346  10.790 -1.0342  0.2205  0.5474
  199MOL0     C26743  10.257   9.201  10.827 -0.6927  0.2195  0.0858
  199MOL0     C26744  10.268   9.191  10.979  0.8368 -0.3715 -0.5025
  199MOL0     C26745  10.342   9.060  11.024 -0.2955 -0.1162 -0.2889
  199MOL0     C26746  10.471   9.029  10.953 -0.3217 -0.0184  0.1188
  199MOL0     N26747  10.567   9.135  10.975  0.5781  0.0466 -0.8487
  199MOL0     C26748  10.574   9.257  10.910 -0.9262 -0.1163 -0.2816
  199MOL0     C26749  10.651   9.338  10.992 -0.9393  0.0094 -0.2909
  199MOL0     C26750  10.702   9.477  10.971  1.3992 -0.2934 -0.1440
  199MOL0     C26751  10.797   9.497  10.851 -0.3916  0.4185  0.7314
  199MOL0     C26752  10.916   9.412  10.836  0.0041 -0.0527  0.2726
  199MOL0     C26753  11.037   9.460  10.918  0.6154  0.1499 -0.3558
  199MOL0     O26754  11.124   9.354  10.921  0.1608  0.7739  0.2498
  199MOL0     C26755  11.238   9.371  10.985 -0.3595 -0.0807  0.1202
  199MOL0     C26756  11.314   9.250  10.998  0.1361 -0.0755 -0.7488
  199MOL0     C26757  11.447   9.250  11.031  1.2581  0.7447  0.0071
  199MOL0     C26758  11.511   9.372  11.062  0.9884 -0.1635  0.2596
  199MOL0     C26759  11.647   9.377  11.102  1.0129 -0.0051 -0.0737
  199MOL0     O26760  11.710   9.497  11.090  0.4005 -0.3040 -0.3970
  199MOL0     C26761  11.842   9.528  11.097 -0.4916 -0.5258 -0.2412
  199MOL0     C26762  11.944   9.434  11.089  0.4838 -0.2978 -0.1132
  199MOL0     C26763  12.078   9.475  11.072  1.1026 -0.5757 -0.1117
  199MOL0     C26764  12.112   9.609  11.058  0.2348 -0.7742 -1.2190
  199MOL0     O26765  12.236   9.668  11.039  0.5979 -0.1037 -0.0651
  199MOL0     C26766  12.295   9.728  11.158 -0.0064 -0.9321  0.0418
  199MOL0     C26767  12.426   9.788  11.103  1.5091  0.7872 -0.0854
  199MOL0     C26768  12.506   9.844  11.222 -0.4353 -1.4729 -0.6183
  199MOL0     C26769  12.655   9.877  11.174 -0.1011 -0.8642 -1.0922
  199MOL0     C26770  12.749   9.930  11.290 -0.3921  0.3320  0.2200
  199MOL0     C26771  12.897   9.956  11.235  0.1300 -0.3535  0.0091
  199MOL0     C26772  12.999   9.957  11.351  0.1929 -0.1911 -0.1831
  199MOL0     C26773  13.115  10.055  11.329 -0.4808  0.3006  0.1072
  199MOL0    Cl26774  13.251   9.993  11.428 -0.0696 -0.3018  0.1016
  199MOL0     C26775  12.006   9.709  11.072 -0.7065  0.4360  0.6286
  199MOL0     C26776  11.873   9.665  11.089 -0.1553  0.2156  0.5360
  199MOL0     O26777  11.704   9.271  11.116 -0.1812  0.6861 -0.6473
  199MOL0     C26778  11.438   9.497  11.056  0.2710  0.6924  0.3306
  199MOL0     C26779  11.306   9.499  11.010 -0.5875 -0.1495 -0.2091
  199MOL0     N26780  10.696   9.261  11.101  0.1520 -0.6528 -0.0051
  199MOL0     N26781  10.632   9.153  11.097  0.1514 -0.0251  0.1699
  199MOL0     C26782   9.797   9.740  10.382 -0.3514 -0.2192 -0.1538
  199MOL0     C26783   9.669   9.763  10.330  0.3900 -0.2217  0.1043
  199MOL0     C26784   9.223   9.689  10.216 -0.3861 -0.3909 -0.5903
  199MOL0     C26785   9.172   9.810  10.274 -0.0581  0.4542  0.1273
  199MOL0     C26786   9.046   9.860  10.228  0.6824 -0.1230 -0.1906
  199MOL0     C26787   8.959   9.784  10.154 -0.1459 -0.0348  0.2723
  199MOL0     O26788   8.835   9.834  10.122  0.0619  0.0995  0.2199
  199MOL0     C26789   8.724   9.754  10.149 -0.1199  0.6062  0.0569
  199MOL0     C26790   8.608   9.845  10.129  0.0113 -0.1410  0.1701
  199MOL0     C26791   8.472   9.786  10.171  0.6376 -0.2559 -0.6939
  199MOL0     C26792   8.360   9.878  10.122 -0.3780 -1.0170  0.0530
  199MOL0     C26793   8.244   9.870  10.202 -0.0840  0.2525 -0.4148
  199MOL0     C26794   8.145   9.857  10.273 -0.1310  0.0816  1.0899
  199MOL0     C26795   9.008   9.669  10.099  0.0751  0.3544 -0.1463
  199MOL0     C26796   9.132   9.619  10.125 -0.4078 -0.1046  0.2390
  199MOL0     C26797   9.184   9.512  10.031 -0.2349 -0.0605 -0.3360
  199MOL0     H26798   9.488   9.555  10.548  2.3980 -1.9115  2.1544
  199MOL0     H26799   9.718   9.504  10.615  1.0493  0.9061  0.9470
  199MOL0     H26800   9.930   9.495  10.680 -0.2466  1.9497  0.3961
  199MOL0     H26801   9.960   9.421  10.510  1.3812  0.3441 -0.4690
  199MOL0     H26802  10.148   9.585  10.698 -2.6141  0.2595  1.4169
  199MOL0     H26803  10.179   9.557  10.530  0.0941  2.4072  2.6844
  199MOL0     H26804  10.310   9.379  10.613 -0.4256  0.0987 -0.1414
  199MOL0     H26805  10.162   9.299  10.584  2.9994  0.2033 -2.3446
  199MOL0     H26806  10.239   9.431  10.848 -0.3484  0.7744 -0.6845
  199MOL0     H26807  10.093   9.337  10.802 -0.8971 -1.1103  0.9353
  199MOL0     H26808  10.188   9.125  10.789  2.0653 -2.3148 -0.2590
  199MOL0     H26809  10.350   9.180  10.773 -1.5484  1.2016 -1.8696
  199MOL0     H26810  10.322   9.276  11.021 -1.7376  1.3153 -0.3445
  199MOL0     H26811  10.172   9.200  11.032  1.6158  1.2526  0.6970
  199MOL0     H26812  10.277   8.975  11.002 -0.8706  0.2689 -0.0757
  199MOL0     H26813  10.362   9.066  11.131 -0.4669  0.6725 -0.2957
  199MOL0     H26814  10.521   8.948  11.008  1.9427  0.1004 -1.6362
  199MOL0     H26815  10.464   9.002  10.847  3.8431 -0.4250 -0.2248
  199MOL0     H26816  10.533   9.275  10.811 -0.8023  2.9322  0.1267
  199MOL0     H26817  10.615   9.539  10.949  1.3313 -0.2116  0.3316
  199MOL0     H26818  10.751   9.505  11.065  1.2972  0.7214 -0.3898
  199MOL0     H26819  10.742   9.496  10.756  1.0187 -1.1440 -0.1275
  199MOL0     H26820  10.829   9.602  10.859 -1.4027  0.7211  0.9870
  199MOL0     H26821  10.943   9.408  10.730 -0.4109  0.0528  0.1618
  199MOL0     H26822  10.891   9.312  10.871 -2.0689 -0.5831 -2.3494
  199MOL0     H26823  11.006   9.475  11.022  2.1921  0.5885  0.0627
  199MOL0     H26824  11.075   9.555  10.882  3.3003 -0.1162  1.5328
  199MOL0     H26825  11.270   9.155  10.971 -0.5077 -0.2828  0.8879
  199MOL0     H26826  11.492   9.151  11.038 -2.4855 -1.0619  1.0310
  199MOL0     H26827  11.924   9.328  11.098  1.0631 -0.4915 -1.0163
  199MOL0     H26828  12.160   9.404  11.074 -0.0289 -1.9531  2.1185
  199MOL0     H26829  12.232   9.806  11.201  0.0317 -0.6231 -0.4626
  199MOL0     H26830  12.318   9.656  11.237  1.9660 -0.7522 -0.3026
  199MOL0     H26831  12.484   9.708  11.057 -2.5067 -2.1410 -0.6381
  199MOL0     H26832  12.403   9.868  11.031  0.5592  0.3514 -0.2848
  199MOL0     H26833  12.470   9.937  11.265  3.0324 -1.1304  1.9506
  199MOL0     H26834  12.510   9.777  11.308 -0.9169  0.4334  0.9505
  199MOL0     H26835  12.658   9.946  11.090  0.1820 -1.2750 -1.4259
  199MOL0     H26836  12.688   9.775  11.150 -2.8715 -2.2512  0.4297
  199MOL0     H26837  12.752   9.851  11.365 -0.9402  1.3102  1.3008
  199MOL0     H26838  12.703  10.015  11.340 -1.1079  0.1297 -0.0831
  199MOL0     H26839  12.929   9.871  11.175  1.7477 -1.2830  2.0644
  199MOL0     H26840  12.891  10.046  11.172  1.0677  0.5191  1.1026
  199MOL0     H26841  13.034   9.855  11.365 -0.0941 -0.3378 -0.5157
  199MOL0     H26842  12.940   9.980  11.441 -1.0265  2.3603 -1.5066
  199MOL0     H26843  13.153  10.069  11.227  0.1002  1.9434  0.5136
  199MOL0     H26844  13.085  10.159  11.347  1.5927  0.6722  1.8894
  199MOL0     H26845  12.025   9.814  11.055 -0.1476 -0.0247 -2.0780
  199MOL0     H26846  11.805   9.750  11.093  3.9313  3.8113  3.8242
  199MOL0     H26847  11.502   9.584  11.066 -0.0874  0.7664  2.4533
  199MOL0     H26848  11.247   9.590  11.009 -1.0516 -0.4437 -1.7706
  199MOL0     H26849   9.888   9.787  10.344  1.0464 -2.9890 -0.4626
  199MOL0     H26850   9.646   9.829  10.247 -1.6912 -0.2553  0.5997
  199MOL0     H26851   9.238   9.873  10.332  0.2717  0.0292  0.2143
  199MOL0     H26852   9.020   9.960  10.260  2.7191  1.4337 -2.9833
  199MOL0     H26853   8.734   9.723  10.253  0.1958  0.3242 -0.0550
  199MOL0     H26854   8.725   9.667  10.082  1.5835 -0.2848  1.1693
  199MOL0     H26855   8.610   9.878  10.025  1.1540 -1.1129 -0.1309
  199MOL0     H26856   8.623   9.928  10.200  1.4624 -0.3884  0.1902
  199MOL0     H26857   8.470   9.778  10.280  2.0067 -0.9141 -0.6925
  199MOL0     H26858   8.461   9.686  10.127 -2.1245 -1.8121  2.9797
  199MOL0     H26859   8.390   9.983  10.125 -1.1739 -0.8171  1.4901
  199MOL0     H26860   8.322   9.847  10.024 -0.8936 -1.4651  0.3925
  199MOL0     H26861   8.052   9.836  10.323 -1.4321  0.1996 -1.1444
  199MOL0     H26862   8.945   9.614  10.029  1.1333  0.1616 -0.9819
  199MOL0     H26863   9.228   9.564   9.945  1.1082 -0.0802  0.3041
  199MOL0     H26864   9.258   9.445  10.077 -0.9014 -2.0101 -1.9690
  199MOL0     H26865   9.112   9.441   9.989 -0.1568  0.2315 -0.9747
  200MOL0     O26866  10.931   0.161   1.781 -0.5777  0.0542  0.0851
  200MOL0     C26867  10.997   0.063   1.745 -0.5176 -0.1846  0.6297
  200MOL0     O26868  10.969  -0.066   1.772  0.1858  0.3121  0.0549
  200MOL0     C26869  10.839  -0.095   1.786 -1.1182 -0.2859 -0.2154
  200MOL0     C26870  10.756  -0.118   1.677 -0.1750  0.0321  0.3659
  200MOL0     C26871  10.628  -0.168   1.693  0.8395 -0.1837  0.0493
  200MOL0     C26872  10.573  -0.177   1.826  0.0357 -1.0174  0.4210
  200MOL0     O26873  10.456  -0.228   1.860 -0.0251 -0.0237 -0.3437
  200MOL0     C26874  10.350  -0.190   1.765  0.1262 -0.2701  0.2049
  200MOL0     C26875  10.220  -0.235   1.832  0.7396  0.1382  0.4648
  200MOL0     C26876  10.092  -0.207   1.747  0.9535  0.3760  0.0376
  200MOL0     C26877  10.028  -0.077   1.781 -1.1057 -0.0180  0.8658
  200MOL0     C26878   9.911  -0.037   1.685 -0.3173  0.1168  0.1382
  200MOL0     C26879   9.782  -0.116   1.702  0.2038  0.2157 -0.0764
  200MOL0     C26880   9.670  -0.095   1.592  0.6380  0.2314  0.3683
  200MOL0     C26881   9.709  -0.137   1.447  0.3972 -0.0265 -0.9143
  200MOL0     N26882   9.727  -0.276   1.412  0.8955 -0.2895 -0.1581
  200MOL0     C26883   9.628  -0.366   1.433  0.8665 -0.3651 -0.8418
  200MOL0     C26884   9.669  -0.489   1.406  0.1784  0.2568  0.0809
  200MOL0     C26885   9.613  -0.625   1.434  0.0255  0.6063  0.1699
  200MOL0     C26886   9.557  -0.700   1.318 -0.5034  0.0587  0.6523
  200MOL0     C26887   9.659  -0.780   1.235 -0.0700  0.2454  0.3463
  200MOL0     C26888   9.798  -0.734   1.220  0.8139  0.9901 -0.4064
  200MOL0     O26889   9.866  -0.809   1.119 -0.3762 -1.1136 -0.5915
  200MOL0     C26890   9.987  -0.772   1.071 -0.1040 -0.0569  0.5598
  200MOL0     C26891  10.063  -0.664   1.116 -0.0870 -0.4682  0.2109
  200MOL0     C26892  10.193  -0.646   1.053 -0.2460 -0.2434  0.9828
  200MOL0     C26893  10.245  -0.741   0.956  0.1060 -0.1203 -0.7572
  200MOL0     C26894  10.382  -0.726   0.906 -0.4864 -0.4420  1.0199
  200MOL0     O26895  10.420  -0.812   0.813 -0.2742  0.3529 -0.0538
  200MOL0     C26896  10.534  -0.794   0.734  0.8419  0.2321  0.4009
  200MOL0     C26897  10.588  -0.912   0.671  1.1113 -0.6847 -0.3313
  200MOL0     C26898  10.703  -0.899   0.595 -0.7243  0.1813  0.8428
  200MOL0     C26899  10.768  -0.779   0.572 -0.2285  0.3305 -0.1662
  200MOL0     O26900  10.875  -0.777   0.486  0.6355 -0.0618  0.8415
  200MOL0     C26901  10.951  -0.662   0.462 -0.0280 -0.5017  0.6868
  200MOL0     C26902  11.078  -0.709   0.380  0.4623 -0.1090  0.1469
  200MOL0     C26903  11.197  -0.619   0.401 -0.2146  0.3027 -0.2073
  200MOL0     C26904  11.174  -0.471   0.385 -0.3855 -0.3959 -0.3307
  200MOL0     C26905  11.303  -0.378   0.365  0.6000 -0.7524  0.4349
  200MOL0     C26906  11.432  -0.430   0.437 -0.0669 -0.4097 -0.6829
  200MOL0     C26907  11.531  -0.314   0.476  0.2807  0.3110  0.0508
  200MOL0     C26908  11.561  -0.214   0.367 -1.4481  0.1003  0.1514
  200MOL0    Cl26909  11.659  -0.301   0.239  0.2374 -0.0880 -0.0193
  200MOL0     C26910  10.714  -0.664   0.629  0.1042  0.6026  0.2183
  200MOL0     C26911  10.605  -0.669   0.712  0.1910  0.7755  0.4454
  200MOL0     O26912  10.457  -0.639   0.951 -0.6661 -0.6485  0.6441
  200MOL0     C26913  10.162  -0.846   0.923 -0.1711  0.5596  0.0806
  200MOL0     C26914  10.033  -0.853   0.967 -0.6906 -0.4491 -0.0754
  200MOL0     N26915   9.798  -0.469   1.357  0.3072 -0.1649  0.1737
  200MOL0     N26916   9.836  -0.343   1.366  0.1603 -0.0122  1.0169
  200MOL0     C26917  10.653  -0.135   1.930  0.3350  0.3816  0.3797
  200MOL0     C26918  10.785  -0.103   1.913  0.0405 -0.4393  0.1016
  200MOL0     C26919  11.128   0.089   1.679  0.2612 -0.4194  0.1843
  200MOL0     C26920  11.224  -0.019   1.662 -0.1542  0.3282  0.3963
  200MOL0     C26921  11.358   0.009   1.620  1.1667  0.7911  0.2494
  200MOL0     C26922  11.394   0.139   1.571  0.8230  0.2706 -0.7481
  200MOL0     O26923  11.524   0.163   1.526 -0.2031  0.3729 -0.4235
  200MOL0     C26924  11.631   0.115   1.619  0.0532 -0.2880  0.1823
  200MOL0     C26925  11.746   0.218   1.611 -0.7345  0.6907  0.8134
  200MOL0     C26926  11.714   0.334   1.712 -0.6215  0.3263 -0.3023
  200MOL0     C26927  11.842   0.420   1.714  0.1332  0.2737 -0.2873
  200MOL0     C26928  11.829   0.536   1.805  0.1731  1.0150 -0.7000
  200MOL0     C26929  11.809   0.634   1.870  0.2626  0.6565  0.3368
  200MOL0     C26930  11.292   0.237   1.564  0.8308 -0.5232  0.3973
  200MOL0     C26931  11.161   0.214   1.615 -0.3660  0.5777  0.6377
  200MOL0     C26932  11.063   0.339   1.604 -0.6299  0.3848  0.2880
  200MOL0     H26933  10.789  -0.109   1.574 -1.2769  1.1997  0.0884
  200MOL0     H26934  10.575  -0.203   1.605  0.6055  0.4447 -0.0592
  200MOL0     H26935  10.359  -0.084   1.740 -1.4493 -0.5627 -2.0155
  200MOL0     H26936  10.357  -0.237   1.666  2.8626  1.1429 -0.3648
  200MOL0     H26937  10.218  -0.193   1.933 -0.2546 -1.8380  1.3349
  200MOL0     H26938  10.222  -0.342   1.853 -2.7186  0.4460  3.4393
  200MOL0     H26939  10.021  -0.286   1.776  2.8564 -0.8165  1.7272
  200MOL0     H26940  10.111  -0.217   1.640 -0.8794 -0.7603 -0.2394
  200MOL0     H26941  10.005  -0.072   1.888  1.6382  0.9836  1.4796
  200MOL0     H26942  10.099   0.005   1.787 -1.7958  0.9256 -2.3554
  200MOL0     H26943   9.903   0.072   1.690  3.6076  0.4968  2.3508
  200MOL0     H26944   9.949  -0.065   1.586  1.2145 -0.0904  0.7539
  200MOL0     H26945   9.806  -0.223   1.701 -1.0527 -0.0801  0.2086
  200MOL0     H26946   9.747  -0.077   1.798  2.8904  3.6576 -0.3001
  200MOL0     H26947   9.638   0.009   1.596  1.1803  0.3823  1.0416
  200MOL0     H26948   9.578  -0.148   1.619 -1.3583  1.6791 -2.9846
  200MOL0     H26949   9.631  -0.094   1.384  1.9388  0.8978 -2.2939
  200MOL0     H26950   9.798  -0.075   1.433 -0.0460  0.9394  0.3551
  200MOL0     H26951   9.537  -0.328   1.479  2.3592 -0.1789  2.1954
  200MOL0     H26952   9.680  -0.692   1.491  0.3260  1.0712  0.3680
  200MOL0     H26953   9.529  -0.606   1.501  0.2867  0.6091  0.5029
  200MOL0     H26954   9.480  -0.769   1.353 -2.2591  0.2230 -2.5611
  200MOL0     H26955   9.497  -0.634   1.255 -0.3882 -0.7595 -0.3477
  200MOL0     H26956   9.620  -0.781   1.133  0.6879  1.5821  0.0176
  200MOL0     H26957   9.653  -0.886   1.260 -1.5240  0.5558  1.4662
  200MOL0     H26958   9.855  -0.736   1.314  0.1137  0.2288  0.0096
  200MOL0     H26959   9.788  -0.631   1.183 -1.0217  1.3366  0.9212
  200MOL0     H26960  10.022  -0.601   1.195 -1.5749  1.0130 -1.6631
  200MOL0     H26961  10.250  -0.559   1.085  1.6047 -1.1732  0.3570
  200MOL0     H26962  10.538  -1.006   0.690 -4.1067  1.6446 -0.8011
  200MOL0     H26963  10.741  -0.994   0.558 -2.3290 -1.6586  3.5096
  200MOL0     H26964  10.900  -0.589   0.398  0.6464  0.9006  1.7015
  200MOL0     H26965  10.987  -0.618   0.555  1.4379 -3.2492  1.5563
  200MOL0     H26966  11.113  -0.804   0.422  0.8485 -1.0458 -2.1248
  200MOL0     H26967  11.065  -0.728   0.273  0.1998 -1.8110  0.4492
  200MOL0     H26968  11.233  -0.642   0.501  0.6872 -0.7499 -0.7478
  200MOL0     H26969  11.282  -0.647   0.337 -0.8512 -1.6776 -0.2306
  200MOL0     H26970  11.120  -0.437   0.474 -1.9724 -0.3623 -1.2801
  200MOL0     H26971  11.116  -0.455   0.294  0.3797  0.4753 -0.6741
  200MOL0     H26972  11.277  -0.280   0.406  0.2443 -0.5587 -0.2371
  200MOL0     H26973  11.312  -0.365   0.257  0.5548  1.0392  0.6180
  200MOL0     H26974  11.413  -0.486   0.529  0.1259  0.1056 -0.3196
  200MOL0     H26975  11.479  -0.489   0.358 -0.0110  1.7336 -2.3568
  200MOL0     H26976  11.622  -0.371   0.498  0.5853  1.3849  1.8296
  200MOL0     H26977  11.501  -0.269   0.572 -3.5365 -1.5519 -0.0669
  200MOL0     H26978  11.475  -0.160   0.326 -0.5576  1.6733  0.2835
  200MOL0     H26979  11.625  -0.135   0.408 -1.6447  0.2300  0.2105
  200MOL0     H26980  10.763  -0.568   0.612  1.4926  0.0433  0.9504
  200MOL0     H26981  10.561  -0.579   0.752 -0.9924 -0.4603  2.0894
  200MOL0     H26982  10.211  -0.925   0.866  0.7133 -0.3790  2.0275
  200MOL0     H26983   9.967  -0.938   0.951  0.9164 -1.9911  1.0114
  200MOL0     H26984  10.607  -0.131   2.028 -1.7484  1.2329 -0.5556
  200MOL0     H26985  10.844  -0.082   2.002 -2.0008 -1.5060  1.8170
  200MOL0     H26986  11.203  -0.118   1.702 -2.0086  1.0412  1.3120
  200MOL0     H26987  11.435  -0.067   1.614  1.0186  0.7433 -1.5776
  200MOL0     H26988  11.664   0.015   1.590  0.4736 -0.3860  0.9905
  200MOL0     H26989  11.594   0.112   1.722  1.1966 -0.2787  0.6072
  200MOL0     H26990  11.748   0.250   1.506  1.3868  1.1804  0.9703
  200MOL0     H26991  11.841   0.170   1.634  0.1738  2.1074  0.1463
  200MOL0     H26992  11.709   0.290   1.812 -2.0156 -2.2716 -1.4020
  200MOL0     H26993  11.620   0.381   1.684 -0.8194  1.0215  1.4440
  200MOL0     H26994  11.916   0.353   1.760 -0.7294 -0.6533 -0.2020
  200MOL0     H26995  11.878   0.451   1.616  1.7621 -0.2397  0.1036
  200MOL0     H26996  11.776   0.710   1.938 -0.8050  0.1597  0.3775
  200MOL0     H26997  11.318   0.334   1.525  0.5892 -0.5248  0.2313
  200MOL0     H26998  10.964   0.308   1.567 -1.5110  2.0085  1.1541
  200MOL0     H26999  11.052   0.393   1.698 -0.4264  0.4285  0.2856
  200MOL0     H27000  11.103   0.408   1.529  0.6856  1.4163  1.8756
  201MOL0     O27001   5.274   2.208   3.924  0.1702  0.2411  0.7197
  201MOL0     C27002   5.182   2.130   3.946 -0.1795  0.1543  0.3019
  201MOL0     O27003   5.191   2.027   4.038  0.5553 -0.2660 -0.2946
  201MOL0     C27004   5.304   2.004   4.089 -0.4248  0.2842  0.2995
  201MOL0     C27005   5.347   2.046   4.216  0.6603  0.5082  0.2303
  201MOL0     C27006   5.481   2.027   4.248  1.1533  1.1212  0.1226
  201MOL0     C27007   5.564   1.947   4.172  0.1135 -0.2245 -0.6746
  201MOL0     O27008   5.691   1.932   4.218  0.5339  0.0120  0.2223
  201MOL0     C27009   5.798   1.855   4.153  0.5084 -0.2986 -0.1813
  201MOL0     C27010   5.926   1.902   4.220  0.1257  0.0435 -0.0126
  201MOL0     C27011   6.035   1.794   4.187  0.4474  0.0078 -0.1162
  201MOL0     C27012   6.045   1.695   4.305 -0.4110 -0.2738 -0.5998
  201MOL0     C27013   6.140   1.571   4.267 -0.3626 -0.7915  0.8590
  201MOL0     C27014   6.130   1.466   4.382 -0.0207 -0.7069 -0.0658
  201MOL0     C27015   6.213   1.350   4.358 -0.0592 -0.3837 -0.2881
  201MOL0     C27016   6.366   1.371   4.367  0.1004 -0.3070 -0.2685
  201MOL0     N27017   6.429   1.242   4.360 -0.5825 -0.4483  0.4404
  201MOL0     C27018   6.410   1.149   4.462 -0.2762  0.2250  0.5447
  201MOL0     C27019   6.461   1.032   4.413 -0.4963  0.5003  0.3758
  201MOL0     C27020   6.487   0.910   4.495  1.0011 -0.2058 -0.7737
  201MOL0     C27021   6.508   0.784   4.411 -0.4371  0.1232 -0.3716
  201MOL0     C27022   6.500   0.652   4.485  0.9389  0.8274 -0.1447
  201MOL0     C27023   6.642   0.602   4.520 -0.6159  0.1098 -1.3878
  201MOL0     O27024   6.707   0.706   4.598  0.1423 -0.0417 -0.1774
  201MOL0     C27025   6.843   0.734   4.594  0.3765  0.8732  0.3532
  201MOL0     C27026   6.897   0.813   4.691  0.0675 -0.2427  0.5257
  201MOL0     C27027   7.029   0.854   4.675  0.5277 -0.4384 -0.6019
  201MOL0     C27028   7.099   0.832   4.560 -0.3275  0.0454 -0.1478
  201MOL0     C27029   7.240   0.886   4.541 -0.2926  0.1192  1.0225
  201MOL0     O27030   7.281   0.871   4.420  0.2827 -0.1151 -0.6902
  201MOL0     C27031   7.410   0.879   4.373 -0.3137 -0.2326  1.3463
  201MOL0     C27032   7.462   0.806   4.261 -0.1206  0.4083  0.2736
  201MOL0     C27033   7.597   0.838   4.218 -0.0347 -0.4687  0.4936
  201MOL0     C27034   7.674   0.941   4.275 -0.0172  0.0445  0.4820
  201MOL0     O27035   7.802   0.972   4.238  0.4728 -0.0165 -0.0957
  201MOL0     C27036   7.877   0.882   4.155 -0.1397  0.0815 -1.2304
  201MOL0     C27037   7.935   0.753   4.235 -0.3747  0.6126 -0.3279
  201MOL0     C27038   8.051   0.779   4.329 -0.1115 -0.3208  0.1747
  201MOL0     C27039   8.188   0.769   4.272 -0.3421  0.3631 -0.8000
  201MOL0     C27040   8.234   0.900   4.214  0.4222  0.2285 -0.6346
  201MOL0     C27041   8.384   0.895   4.171  0.0146  0.2505 -0.1623
  201MOL0     C27042   8.480   0.870   4.288 -0.0269  0.0100 -0.2509
  201MOL0     C27043   8.618   0.911   4.230  0.2588 -0.3334  0.2939
  201MOL0    Cl27044   8.614   1.080   4.218  0.0244 -0.3607 -0.0254
  201MOL0     C27045   7.618   1.018   4.374  0.3201  0.2435  0.7858
  201MOL0     C27046   7.492   0.983   4.419 -1.2764 -0.8732  0.3044
  201MOL0     O27047   7.309   0.909   4.639  0.7740  0.1380  0.0156
  201MOL0     C27048   7.041   0.752   4.454  0.0041  1.0912 -0.1176
  201MOL0     C27049   6.914   0.698   4.477 -0.0399 -0.1967  0.1246
  201MOL0     N27050   6.500   1.048   4.284  0.2848  0.3555  0.2404
  201MOL0     N27051   6.483   1.175   4.250  0.0044 -0.0009  0.2751
  201MOL0     C27052   5.521   1.902   4.048  0.7111 -0.2000  0.1280
  201MOL0     C27053   5.392   1.931   4.004  0.1970 -0.7970  1.2420
  201MOL0     C27054   5.046   2.155   3.896 -0.2528 -0.8176 -0.2010
  201MOL0     C27055   4.943   2.065   3.939 -0.6674 -0.2085  0.8280
  201MOL0     C27056   4.809   2.085   3.897  0.3418 -0.9428 -0.1209
  201MOL0     C27057   4.763   2.202   3.834 -1.0621  0.1062  0.1386
  201MOL0     O27058   4.634   2.228   3.797  0.3867  0.0490 -0.2377
  201MOL0     C27059   4.531   2.162   3.873 -0.4707 -0.3777 -0.2053
  201MOL0     C27060   4.471   2.038   3.808 -0.6473 -0.1526 -0.5719
  201MOL0     C27061   4.346   1.991   3.883 -0.1520  0.0529  0.6289
  201MOL0     C27062   4.274   1.887   3.791  0.6104  0.7010 -0.4643
  201MOL0     C27063   4.146   1.857   3.865  0.2730 -0.0771 -0.0737
  201MOL0     C27064   4.049   1.847   3.935 -0.2927 -0.5322  1.0602
  201MOL0     C27065   4.866   2.286   3.800 -0.1568  0.1341 -0.5007
  201MOL0     C27066   5.005   2.268   3.818 -0.6943 -0.2275 -0.2869
  201MOL0     C27067   5.099   2.374   3.758 -0.4615  0.1310  0.4730
  201MOL0     H27068   5.282   2.100   4.284 -2.7562 -3.1858  0.2683
  201MOL0     H27069   5.522   2.071   4.339 -1.0558  2.3845  0.5790
  201MOL0     H27070   5.777   1.748   4.165 -1.3999 -0.0700 -1.0092
  201MOL0     H27071   5.806   1.876   4.046 -0.1312 -0.6446 -0.3089
  201MOL0     H27072   5.911   1.906   4.329  1.3428  0.5273  0.1600
  201MOL0     H27073   5.956   1.995   4.170  0.7114  2.0490  3.6603
  201MOL0     H27074   6.126   1.850   4.164  2.3926 -2.6831  0.5303
  201MOL0     H27075   6.001   1.736   4.100  0.9521 -0.3319 -0.0895
  201MOL0     H27076   6.091   1.738   4.395  4.5255 -2.9328 -1.4802
  201MOL0     H27077   5.948   1.659   4.340 -0.5206  1.6198  1.2676
  201MOL0     H27078   6.096   1.519   4.182  1.2327 -0.2856 -0.3415
  201MOL0     H27079   6.243   1.604   4.250 -1.3170  1.1898 -1.6495
  201MOL0     H27080   6.170   1.511   4.473  0.8833  1.2790 -1.3559
  201MOL0     H27081   6.029   1.428   4.401 -0.0823 -0.0963  0.8492
  201MOL0     H27082   6.191   1.298   4.264 -0.3811 -0.4109 -0.1975
  201MOL0     H27083   6.187   1.276   4.434 -2.4493 -0.6103 -1.2457
  201MOL0     H27084   6.412   1.440   4.295 -1.8392 -1.8003 -3.1548
  201MOL0     H27085   6.405   1.415   4.459  2.5386  1.4061 -1.9966
  201MOL0     H27086   6.367   1.156   4.561 -4.0832  0.3871 -0.9529
  201MOL0     H27087   6.563   0.939   4.568  0.3763  0.7418 -0.4842
  201MOL0     H27088   6.400   0.889   4.558  1.4107  0.7475  0.1379
  201MOL0     H27089   6.431   0.797   4.335 -0.8279  0.3141  0.0550
  201MOL0     H27090   6.608   0.785   4.368  0.3837  0.3177  1.4373
  201MOL0     H27091   6.450   0.575   4.426  0.5341  1.0840 -0.1327
  201MOL0     H27092   6.449   0.671   4.579 -0.6707  1.1065 -1.0389
  201MOL0     H27093   6.688   0.590   4.422 -1.6179  0.5383 -1.9306
  201MOL0     H27094   6.635   0.507   4.574 -0.7014  0.5956 -0.5234
  201MOL0     H27095   6.848   0.831   4.787  0.2835  1.3309  0.3773
  201MOL0     H27096   7.066   0.909   4.761 -0.1443 -0.2911 -0.4004
  201MOL0     H27097   7.404   0.733   4.207  0.3247  1.7842 -2.2180
  201MOL0     H27098   7.643   0.778   4.140  0.7140  1.1517 -0.3389
  201MOL0     H27099   7.822   0.861   4.062 -3.4110 -0.1439  0.5844
  201MOL0     H27100   7.967   0.939   4.133  1.4844 -1.6607  0.5221
  201MOL0     H27101   7.860   0.704   4.298  2.6187 -1.1597  2.2014
  201MOL0     H27102   7.975   0.684   4.160 -0.1184  0.9223 -0.4771
  201MOL0     H27103   8.039   0.876   4.378  2.0106 -0.9462  2.0870
  201MOL0     H27104   8.044   0.707   4.412 -0.9226 -1.4334 -0.8146
  201MOL0     H27105   8.196   0.693   4.193  0.3497 -0.8937  0.4451
  201MOL0     H27106   8.256   0.750   4.355 -0.4813  0.2158 -0.7213
  201MOL0     H27107   8.221   0.980   4.288 -0.9749 -0.7350  0.2055
  201MOL0     H27108   8.182   0.929   4.122  1.5893 -1.1440 -1.7669
  201MOL0     H27109   8.388   0.814   4.098 -0.7907 -1.0974  1.2382
  201MOL0     H27110   8.399   0.995   4.128 -0.2962  1.1239  1.6675
  201MOL0     H27111   8.484   0.763   4.311 -1.5403 -0.2378 -1.0280
  201MOL0     H27112   8.452   0.921   4.381 -0.0492  1.3607 -0.9707
  201MOL0     H27113   8.698   0.883   4.300 -1.2762 -1.4506  1.6739
  201MOL0     H27114   8.642   0.845   4.147 -3.0235 -3.2971  1.4434
  201MOL0     H27115   7.681   1.093   4.421 -1.0822  0.7344  1.9810
  201MOL0     H27116   7.472   1.042   4.508 -1.2792 -1.0817  0.4413
  201MOL0     H27117   7.099   0.726   4.366  0.3805  0.5076  0.2892
  201MOL0     H27118   6.883   0.635   4.394  0.4176 -0.2863  0.0216
  201MOL0     H27119   5.578   1.830   3.991 -0.3246  2.2556 -4.4997
  201MOL0     H27120   5.344   1.892   3.914 -1.3383  1.8231  0.8150
  201MOL0     H27121   4.976   1.973   3.987 -2.3685 -1.7158 -0.7548
  201MOL0     H27122   4.748   2.000   3.925  1.6037 -1.7237  0.3833
  201MOL0     H27123   4.448   2.233   3.874 -0.8202 -0.4267 -4.8516
  201MOL0     H27124   4.567   2.135   3.973 -0.0107  0.7402 -0.0441
  201MOL0     H27125   4.555   1.967   3.804  1.2067  1.6902  2.2003
  201MOL0     H27126   4.453   2.062   3.703  1.7464  0.4804 -0.8781
  201MOL0     H27127   4.276   2.074   3.890  0.7250  1.5122 -4.0836
  201MOL0     H27128   4.367   1.938   3.976 -0.2578 -0.9786  0.0822
  201MOL0     H27129   4.247   1.928   3.693 -0.2225  1.5219  0.0974
  201MOL0     H27130   4.327   1.792   3.787 -0.9245 -0.1969 -0.0387
  201MOL0     H27131   3.969   1.835   4.005  0.2629 -3.5109  1.3343
  201MOL0     H27132   4.836   2.377   3.748  0.3749 -1.6290 -4.2111
  201MOL0     H27133   5.191   2.331   3.717  0.2279  1.5537  0.4907
  201MOL0     H27134   5.054   2.433   3.678  1.6763  1.4754  0.1984
  201MOL0     H27135   5.136   2.438   3.839 -0.5859  0.3522  0.3544
  202MOL0     O27136   7.544  10.624   5.718  0.8451  0.2911 -0.8438
  202MOL0     C27137   7.527  10.630   5.598 -0.1990  0.1185 -0.1138
  202MOL0     O27138   7.623  10.670   5.504  0.1723 -0.6543 -0.3741
  202MOL0     C27139   7.739  10.741   5.548  0.0947 -1.6160  0.2144
  202MOL0     C27140   7.817  10.720   5.658 -0.6133 -0.4193 -0.6919
  202MOL0     C27141   7.934  10.795   5.690 -0.0221 -0.2634  0.2137
  202MOL0     C27142   7.973  10.900   5.597 -0.2782 -0.0322 -0.2610
  202MOL0     O27143   8.070  10.999   5.629  0.1028  0.2531  0.1631
  202MOL0     C27144   8.149  10.995   5.751 -0.9133  0.8354  0.4300
  202MOL0     C27145   8.278  11.078   5.716 -0.7675  0.1956  0.3130
  202MOL0     C27146   8.381  11.079   5.819 -1.0859 -0.1801  0.3113
  202MOL0     C27147   8.500  11.153   5.763  0.0307 -0.0883 -0.5164
  202MOL0     C27148   8.599  11.185   5.873 -0.3289  0.5529  0.3036
  202MOL0     C27149   8.708  11.279   5.827 -0.1716 -0.0935  0.3252
  202MOL0     C27150   8.803  11.200   5.743 -0.3747 -0.6226  0.4099
  202MOL0     C27151   8.947  11.248   5.754  0.5187  0.0706  0.7257
  202MOL0     N27152   9.026  11.214   5.625 -0.1940  0.2849 -0.6603
  202MOL0     C27153   9.052  11.285   5.516  0.2956 -0.7950  0.2925
  202MOL0     C27154   9.154  11.222   5.449 -0.1679 -0.1352 -0.2247
  202MOL0     C27155   9.201  11.275   5.314  0.5954 -0.2637  0.4952
  202MOL0     C27156   9.350  11.274   5.296 -0.9857  0.7359  0.1659
  202MOL0     C27157   9.425  11.349   5.413 -0.1543  1.4935 -0.2970
  202MOL0     C27158   9.570  11.386   5.386  0.6626 -0.3895 -0.2827
  202MOL0     O27159   9.634  11.274   5.350 -0.2577  0.2838 -0.2083
  202MOL0     C27160   9.777  11.281   5.349 -0.0204  0.0167 -0.1517
  202MOL0     C27161   9.849  11.399   5.367 -0.1403 -1.1729  0.4295
  202MOL0     C27162   9.983  11.398   5.344  0.0528 -0.1359 -0.8086
  202MOL0     C27163  10.055  11.284   5.317  0.1222 -0.0633 -0.5975
  202MOL0     C27164  10.193  11.296   5.294 -0.6040 -0.4583 -1.2848
  202MOL0     O27165  10.264  11.176   5.301 -0.4504 -0.7868  0.1113
  202MOL0     C27166  10.396  11.194   5.283  0.1356 -0.9729 -0.1305
  202MOL0     C27167  10.449  11.143   5.162 -0.0673 -0.0992 -0.2446
  202MOL0     C27168  10.587  11.158   5.137 -0.8317 -0.7320 -0.4931
  202MOL0     C27169  10.678  11.202   5.240  0.9574 -0.2398  0.2095
  202MOL0     O27170  10.812  11.205   5.217 -0.1306 -0.0243  0.1298
  202MOL0     C27171  10.908  11.268   5.296  0.5277 -0.5993 -0.4223
  202MOL0     C27172  11.048  11.251   5.234 -0.2214  0.4029  0.3435
  202MOL0     C27173  11.149  11.237   5.344 -0.5056 -0.0004  0.6303
  202MOL0     C27174  11.283  11.187   5.289 -0.1620 -0.1110 -0.2360
  202MOL0     C27175  11.383  11.167   5.408  0.4922  0.3716 -0.0123
  202MOL0     C27176  11.440  11.308   5.446  0.2578 -0.6284 -0.4733
  202MOL0     C27177  11.539  11.294   5.567  1.2849 -0.3509 -0.9379
  202MOL0     C27178  11.598  11.428   5.619  0.4095 -0.6145 -0.4245
  202MOL0    Cl27179  11.720  11.478   5.503  0.1434  0.1419  0.1680
  202MOL0     C27180  10.622  11.233   5.366  0.3155 -0.0040  1.2938
  202MOL0     C27181  10.482  11.239   5.383 -1.0727  0.0158 -0.6192
  202MOL0     O27182  10.245  11.405   5.292 -0.6041 -0.2333  0.7724
  202MOL0     C27183   9.986  11.165   5.304  0.9492 -0.3732 -0.2830
  202MOL0     C27184   9.843  11.163   5.318 -0.6429 -0.1724 -0.1639
  202MOL0     N27185   9.182  11.102   5.515  0.0090 -0.4466 -0.6703
  202MOL0     N27186   9.103  11.100   5.622 -0.7533 -0.7735 -0.0048
  202MOL0     C27187   7.894  10.926   5.485  0.4496 -0.8279 -0.5840
  202MOL0     C27188   7.779  10.849   5.465 -0.3961 -0.1158  0.2118
  202MOL0     C27189   7.383  10.605   5.557 -0.0020 -0.4819  1.0735
  202MOL0     C27190   7.301  10.543   5.649  0.2104  0.0041  0.5057
  202MOL0     C27191   7.168  10.521   5.609  0.9363  0.4471  0.4533
  202MOL0     C27192   7.112  10.561   5.484  0.4362 -0.2022 -0.0992
  202MOL0     O27193   6.978  10.544   5.470 -0.0281  0.6370 -0.1537
  202MOL0     C27194   6.914  10.545   5.344  0.2900 -0.5793 -0.3012
  202MOL0     C27195   6.970  10.449   5.239 -0.8856 -0.0776 -0.0717
  202MOL0     C27196   6.884  10.440   5.110  0.3814 -0.1924 -0.1406
  202MOL0     C27197   6.740  10.404   5.137  0.1934  0.3320  0.0319
  202MOL0     C27198   6.661  10.425   5.017  0.6622  0.9266  0.3339
  202MOL0     C27199   6.589  10.434   4.920  0.3030  0.7018  0.5654
  202MOL0     C27200   7.198  10.620   5.389  0.6365  0.5840 -0.2808
  202MOL0     C27201   7.330  10.642   5.425 -0.0750 -1.0275 -0.3293
  202MOL0     C27202   7.418  10.706   5.315 -0.2137 -0.2488  0.5215
  202MOL0     H27203   7.795  10.652   5.740 -0.1912 -0.7232 -0.8292
  202MOL0     H27204   7.993  10.764   5.776 -2.4358 -2.3902  1.2358
  202MOL0     H27205   8.091  11.045   5.829  0.9776  2.1994  1.0394
  202MOL0     H27206   8.175  10.897   5.791  0.4572  0.5838 -0.9719
  202MOL0     H27207   8.242  11.181   5.703 -3.7697 -0.2104  3.7185
  202MOL0     H27208   8.324  11.031   5.629 -1.7320  0.1969 -0.2148
  202MOL0     H27209   8.411  10.976   5.838  1.9615  0.4024 -0.8645
  202MOL0     H27210   8.343  11.127   5.910 -0.7878  0.9608 -0.1574
  202MOL0     H27211   8.533  11.099   5.673 -2.7829  2.8760 -3.6427
  202MOL0     H27212   8.461  11.252   5.737 -1.7670 -0.7149 -0.3758
  202MOL0     H27213   8.529  11.236   5.940  0.3206  4.3455 -1.6197
  202MOL0     H27214   8.639  11.094   5.919 -0.6403  1.3258  2.2401
  202MOL0     H27215   8.672  11.362   5.765 -0.1666 -0.1972  0.1829
  202MOL0     H27216   8.762  11.314   5.915  1.0041 -3.2480  0.9902
  202MOL0     H27217   8.777  11.210   5.637 -1.3629  2.5627  0.8378
  202MOL0     H27218   8.801  11.093   5.766  1.6578 -0.8128 -0.0961
  202MOL0     H27219   8.949  11.358   5.753 -1.5820  0.1780 -0.4780
  202MOL0     H27220   9.001  11.217   5.843  2.5274  3.9932  1.0975
  202MOL0     H27221   9.008  11.383   5.499 -0.2409 -0.8217  1.4822
  202MOL0     H27222   9.156  11.213   5.236 -0.2029  0.4687  0.3613
  202MOL0     H27223   9.164  11.377   5.302  1.1239  0.0078  1.1245
  202MOL0     H27224   9.385  11.171   5.296  3.4352  2.0296 -0.7039
  202MOL0     H27225   9.389  11.325   5.208  3.8026  1.4388  2.3912
  202MOL0     H27226   9.417  11.269   5.488 -1.2028  1.0174 -0.8817
  202MOL0     H27227   9.364  11.432   5.450 -0.4450  0.1431  2.5055
  202MOL0     H27228   9.609  11.435   5.476  0.8592 -1.4686  0.2411
  202MOL0     H27229   9.589  11.457   5.305  0.7807  1.1037  1.0099
  202MOL0     H27230   9.801  11.495   5.386  2.2844  0.3664 -0.6431
  202MOL0     H27231  10.018  11.499   5.360 -2.7967  1.1105 -1.7711
  202MOL0     H27232  10.390  11.101   5.081  0.6476  1.0287 -1.3900
  202MOL0     H27233  10.631  11.123   5.043  1.5322 -2.0799  1.0045
  202MOL0     H27234  10.890  11.375   5.311 -0.0701 -0.8455  0.7350
  202MOL0     H27235  10.907  11.225   5.397 -2.4730 -3.1187 -1.3543
  202MOL0     H27236  11.058  11.161   5.172  1.3714  0.5215  0.3953
  202MOL0     H27237  11.077  11.336   5.172 -3.3504  0.9341 -0.5566
  202MOL0     H27238  11.164  11.335   5.390 -3.2508  1.2848 -0.9702
  202MOL0     H27239  11.117  11.165   5.419  1.3558 -1.3599  0.1739
  202MOL0     H27240  11.336  11.260   5.227  1.7098  0.2080  1.6109
  202MOL0     H27241  11.280  11.090   5.240  2.5913 -1.1574  1.4126
  202MOL0     H27242  11.471  11.104   5.387 -0.6046 -1.8754  1.7079
  202MOL0     H27243  11.337  11.126   5.499 -1.3338 -0.7113 -1.3598
  202MOL0     H27244  11.488  11.359   5.363 -2.9369  2.0583 -0.8860
  202MOL0     H27245  11.359  11.374   5.481  1.4882  0.7014 -0.0155
  202MOL0     H27246  11.624  11.236   5.529 -0.1278 -1.8677 -1.9019
  202MOL0     H27247  11.500  11.239   5.652 -0.5105  1.1009 -0.7717
  202MOL0     H27248  11.525  11.510   5.629  1.2729  0.1287 -0.0508
  202MOL0     H27249  11.643  11.420   5.718  0.4674  2.9962 -0.0071
  202MOL0     H27250  10.682  11.259   5.454  0.5522 -0.1555  1.1786
  202MOL0     H27251  10.438  11.268   5.478 -4.4593 -1.2879 -1.6539
  202MOL0     H27252  10.034  11.072   5.274  0.3536 -0.3039 -1.5065
  202MOL0     H27253   9.782  11.074   5.309  0.6058 -1.2363  1.2811
  202MOL0     H27254   7.901  11.018   5.428  0.4113 -0.9540 -0.7939
  202MOL0     H27255   7.710  10.880   5.388 -0.3912  1.2992  0.7399
  202MOL0     H27256   7.325  10.501   5.747 -2.1308 -1.0000  0.7183
  202MOL0     H27257   7.109  10.463   5.679  2.9934 -0.2255  1.7293
  202MOL0     H27258   6.925  10.647   5.308 -1.2351  0.4230  1.7971
  202MOL0     H27259   6.811  10.513   5.366  0.2873 -0.4939 -0.1896
  202MOL0     H27260   6.984  10.352   5.287  0.4290  0.0132 -0.2381
  202MOL0     H27261   7.069  10.476   5.201 -1.7561  0.2462 -2.2315
  202MOL0     H27262   6.931  10.373   5.038 -0.4856 -1.6983  0.6512
  202MOL0     H27263   6.889  10.538   5.061 -0.2604  0.2337  0.6084
  202MOL0     H27264   6.735  10.304   5.181 -0.4553  1.7944  3.5954
  202MOL0     H27265   6.689  10.470   5.207 -0.7513 -0.7499  0.3976
  202MOL0     H27266   6.523  10.435   4.836  1.1622 -0.7899 -0.1526
  202MOL0     H27267   7.164  10.638   5.288 -0.3898 -2.0593 -0.4826
  202MOL0     H27268   7.360  10.724   5.224 -0.3079  2.3117  1.0015
  202MOL0     H27269   7.459  10.804   5.342  0.8201 -0.2451 -0.9478
  202MOL0     H27270   7.509  10.652   5.287  1.0553  1.9596  0.1880
  203MOL0     O27271   2.341   1.968   6.484 -0.0356 -0.4740 -0.5776
  203MOL0     C27272   2.374   2.077   6.434  0.9132  0.5051 -0.2285
  203MOL0     O27273   2.491   2.151   6.459 -0.7707  0.4998 -0.0571
  203MOL0     C27274   2.603   2.088   6.506  0.2578 -0.2858 -0.7156
  203MOL0     C27275   2.691   2.172   6.574  0.7693  0.2931 -0.6343
  203MOL0     C27276   2.804   2.119   6.624  0.3933 -0.2662  0.0952
  203MOL0     C27277   2.842   1.987   6.599 -0.3223  0.7225 -0.6338
  203MOL0     O27278   2.950   1.949   6.662  0.0073 -0.5858  0.5887
  203MOL0     C27279   3.047   1.938   6.561 -0.2650  1.0370 -0.2773
  203MOL0     C27280   3.187   1.935   6.620  0.0842 -0.3194 -0.4933
  203MOL0     C27281   3.256   2.073   6.596  0.2067 -0.1903 -0.1957
  203MOL0     C27282   3.399   2.065   6.662 -0.2149  0.4951  1.0145
  203MOL0     C27283   3.394   2.091   6.813  0.8604 -0.0533  0.2315
  203MOL0     C27284   3.538   2.099   6.869  0.5834  0.9474 -0.3971
  203MOL0     C27285   3.523   2.073   7.020  0.5339 -0.1074  0.0247
  203MOL0     C27286   3.650   2.126   7.098 -0.3146 -0.1340  0.2016
  203MOL0     N27287   3.754   2.031   7.098 -0.4989  0.0129  0.4206
  203MOL0     C27288   3.847   2.009   6.994  0.7282  0.1790 -0.0815
  203MOL0     C27289   3.932   1.916   7.044 -0.4839 -0.3562 -0.0298
  203MOL0     C27290   4.026   1.832   6.965 -0.0731  0.3489  0.9863
  203MOL0     C27291   4.173   1.883   6.977 -0.0422 -0.5065 -0.6640
  203MOL0     C27292   4.238   1.837   7.106 -0.6273  0.3809  0.1062
  203MOL0     C27293   4.384   1.820   7.074  0.7650  0.3720  0.3398
  203MOL0     O27294   4.445   1.945   7.079 -0.1557 -1.2118  0.4964
  203MOL0     C27295   4.580   1.937   7.062  0.7533  0.2513  0.4835
  203MOL0     C27296   4.648   1.947   6.939 -0.3609  0.0857  0.3983
  203MOL0     C27297   4.790   1.919   6.929  0.4963 -0.1414  0.2098
  203MOL0     C27298   4.870   1.895   7.039 -1.3539 -0.1506 -0.4018
  203MOL0     C27299   5.010   1.881   7.020  0.6143  0.7773  0.7206
  203MOL0     O27300   5.064   1.882   6.891  0.1625 -0.4813  0.1117
  203MOL0     C27301   5.194   1.867   6.880  0.9243 -0.4255  0.2569
  203MOL0     C27302   5.250   1.738   6.894  0.3690  0.2776 -0.8931
  203MOL0     C27303   5.387   1.719   6.871  0.3686 -0.5078 -0.2766
  203MOL0     C27304   5.473   1.826   6.834 -0.0051  0.1997  0.0155
  203MOL0     O27305   5.606   1.793   6.814  0.5874 -0.1784 -0.2401
  203MOL0     C27306   5.693   1.904   6.842  0.4127 -0.1962 -0.4694
  203MOL0     C27307   5.843   1.862   6.839  0.5367 -0.0863 -0.2106
  203MOL0     C27308   5.941   1.975   6.868  0.4549 -0.4995 -0.2180
  203MOL0     C27309   6.081   1.939   6.836  0.7290  0.4865 -1.3330
  203MOL0     C27310   6.172   2.048   6.868 -0.1765  0.1140 -0.6682
  203MOL0     C27311   6.318   2.004   6.823  0.6453 -0.5576 -0.2215
  203MOL0     C27312   6.385   1.925   6.935  0.4621 -0.4064 -0.6808
  203MOL0     C27313   6.537   1.901   6.932  0.3578  0.0706  0.4983
  203MOL0    Cl27314   6.569   1.796   6.797 -0.0697  0.0987 -0.2464
  203MOL0     C27315   5.419   1.958   6.827  0.1204 -0.3445  0.3303
  203MOL0     C27316   5.280   1.978   6.852  0.8252  0.4460  0.3242
  203MOL0     O27317   5.077   1.836   7.114 -0.1091 -0.4040 -0.4975
  203MOL0     C27318   4.806   1.905   7.163 -0.3897 -0.2997  0.4199
  203MOL0     C27319   4.664   1.921   7.178 -0.3630 -0.1030 -0.2942
  203MOL0     N27320   3.912   1.894   7.176  0.3475 -0.3247  0.4713
  203MOL0     N27321   3.803   1.956   7.205  0.1098 -0.4201  0.8036
  203MOL0     C27322   2.757   1.902   6.525 -0.7801 -1.0135 -0.0948
  203MOL0     C27323   2.637   1.958   6.480  0.3166  0.4570  0.2053
  203MOL0     C27324   2.276   2.141   6.349  0.0312 -0.5124  0.5338
  203MOL0     C27325   2.143   2.158   6.394  0.0268 -0.2618 -0.5216
  203MOL0     C27326   2.037   2.195   6.310 -0.1322 -1.2909 -0.7517
  203MOL0     C27327   2.068   2.248   6.187 -1.2554  1.1765 -0.0657
  203MOL0     O27328   1.977   2.295   6.104 -1.0223  0.0400  0.0913
  203MOL0     C27329   1.841   2.306   6.137  0.6459  0.6539  0.0999
  203MOL0     C27330   1.766   2.370   6.021  0.2040  0.0151  0.4086
  203MOL0     C27331   1.779   2.521   6.036  0.6052  0.9676  1.4538
  203MOL0     C27332   1.686   2.604   5.940 -0.4367 -0.3297 -0.2237
  203MOL0     C27333   1.563   2.546   5.890 -1.0076 -0.4305 -0.0844
  203MOL0     C27334   1.452   2.505   5.852 -0.1468  0.0199 -0.7763
  203MOL0     C27335   2.201   2.245   6.143 -0.1893 -0.0890  0.0231
  203MOL0     C27336   2.308   2.189   6.221  0.1918  0.3231 -0.0310
  203MOL0     C27337   2.450   2.199   6.168  0.5970 -1.5268 -0.4293
  203MOL0     H27338   2.662   2.273   6.600 -2.2671 -0.2369 -1.5571
  203MOL0     H27339   2.866   2.179   6.689 -3.1931 -0.3451  4.0076
  203MOL0     H27340   3.039   1.842   6.508  0.2176  0.9017 -0.1057
  203MOL0     H27341   3.046   2.018   6.487  2.4483 -0.4989 -2.1357
  203MOL0     H27342   3.244   1.849   6.585 -0.5849 -1.9026  2.0773
  203MOL0     H27343   3.176   1.925   6.728 -0.1169  1.4792 -0.3099
  203MOL0     H27344   3.200   2.153   6.646 -2.7150 -0.1462 -3.1448
  203MOL0     H27345   3.265   2.097   6.489  0.0294 -0.2354 -0.2215
  203MOL0     H27346   3.443   1.969   6.636 -0.6457  0.7790 -0.8763
  203MOL0     H27347   3.460   2.146   6.621  0.8004 -0.3391  0.8449
  203MOL0     H27348   3.328   2.173   6.843 -0.3572 -1.0459  0.4095
  203MOL0     H27349   3.347   2.000   6.854  0.3528  0.4433  0.7701
  203MOL0     H27350   3.599   2.019   6.826 -0.6790 -0.8195  0.9662
  203MOL0     H27351   3.581   2.196   6.844  0.1142  0.6267 -2.7514
  203MOL0     H27352   3.499   1.968   7.036 -1.4851  0.3115 -0.0771
  203MOL0     H27353   3.437   2.125   7.062 -0.8996 -3.1896  1.1845
  203MOL0     H27354   3.688   2.216   7.049 -0.7880 -0.6144 -1.1149
  203MOL0     H27355   3.615   2.151   7.199 -0.3120  1.1060 -0.0976
  203MOL0     H27356   3.858   2.052   6.894  0.6273  1.3185  0.3800
  203MOL0     H27357   4.014   1.729   6.999  1.2462  0.5114  2.0255
  203MOL0     H27358   3.990   1.834   6.861  0.4690 -0.6726  0.7681
  203MOL0     H27359   4.230   1.859   6.886  2.5153  1.4122  0.3167
  203MOL0     H27360   4.167   1.991   6.994  3.1460 -0.3892  0.3541
  203MOL0     H27361   4.204   1.747   7.158 -0.9896  1.5529  1.9665
  203MOL0     H27362   4.223   1.914   7.182  0.4968  0.9006 -0.1832
  203MOL0     H27363   4.396   1.765   6.980  1.6252  0.9780  0.0878
  203MOL0     H27364   4.417   1.761   7.160 -1.8819 -0.2215  1.0692
  203MOL0     H27365   4.591   1.945   6.847  1.9159 -0.9714 -1.0813
  203MOL0     H27366   4.836   1.918   6.831  2.4362  2.7459  0.9634
  203MOL0     H27367   5.177   1.659   6.908 -2.5629  2.8887 -0.0371
  203MOL0     H27368   5.428   1.620   6.890 -2.2903 -1.1420  3.3295
  203MOL0     H27369   5.676   1.980   6.765  0.5209  1.6476  1.2666
  203MOL0     H27370   5.671   1.942   6.942  0.8625 -2.0136  0.3531
  203MOL0     H27371   5.872   1.782   6.907  0.4027 -0.6760 -0.8368
  203MOL0     H27372   5.862   1.826   6.737  0.5366 -0.6174 -0.0216
  203MOL0     H27373   5.910   2.065   6.814 -1.7895  2.2641  4.9637
  203MOL0     H27374   5.937   2.011   6.971 -0.3862  0.7889 -0.6838
  203MOL0     H27375   6.092   1.919   6.729 -0.5300 -2.3123 -1.0246
  203MOL0     H27376   6.115   1.853   6.895 -3.3698  0.7742  1.9534
  203MOL0     H27377   6.171   2.061   6.976 -3.7278 -0.9797 -0.4195
  203MOL0     H27378   6.142   2.143   6.822 -0.1081 -0.1600 -1.2893
  203MOL0     H27379   6.325   1.947   6.730  2.8454  0.1196 -0.5370
  203MOL0     H27380   6.374   2.095   6.799 -2.1418  1.9359  1.9847
  203MOL0     H27381   6.341   1.828   6.963  1.1786 -0.1720  1.4139
  203MOL0     H27382   6.370   1.982   7.027  1.8174  0.3751 -0.9139
  203MOL0     H27383   6.592   1.995   6.926 -0.3999  0.8591  4.0613
  203MOL0     H27384   6.565   1.850   7.024 -0.8009 -2.5184 -0.4678
  203MOL0     H27385   5.469   2.052   6.810 -0.0677 -0.7090 -2.8804
  203MOL0     H27386   5.238   2.078   6.859 -0.2695 -0.1147  2.6819
  203MOL0     H27387   4.874   1.898   7.248 -3.6073  0.3329  3.2589
  203MOL0     H27388   4.631   1.939   7.279 -1.2281 -0.3560 -0.5257
  203MOL0     H27389   2.786   1.801   6.497 -0.1152 -0.3442 -1.9876
  203MOL0     H27390   2.572   1.892   6.425 -1.0048  1.7484  0.1622
  203MOL0     H27391   2.125   2.124   6.495  0.9346  3.3756  1.0272
  203MOL0     H27392   1.937   2.194   6.353 -0.0149  0.3453 -0.3830
  203MOL0     H27393   1.831   2.367   6.228  1.9750  3.5795 -1.5651
  203MOL0     H27394   1.798   2.207   6.154  1.2376  0.7640  2.7969
  203MOL0     H27395   1.660   2.342   6.032  0.6538 -2.0794 -0.1877
  203MOL0     H27396   1.797   2.330   5.924  0.5154  3.1767 -0.9049
  203MOL0     H27397   1.878   2.550   6.001 -0.5884  2.0097 -1.3203
  203MOL0     H27398   1.761   2.547   6.141 -0.3233  0.7938  1.3486
  203MOL0     H27399   1.645   2.688   5.997 -0.8368 -1.4406  1.2093
  203MOL0     H27400   1.734   2.646   5.852 -2.2603  1.0334 -0.6256
  203MOL0     H27401   1.352   2.480   5.822 -0.0764 -0.2154 -0.8135
  203MOL0     H27402   2.228   2.293   6.050  1.9419  0.5210  0.8823
  203MOL0     H27403   2.514   2.258   6.235  0.2152 -3.1315  1.4410
  203MOL0     H27404   2.498   2.101   6.172  0.7582 -1.4383  3.3492
  203MOL0     H27405   2.450   2.249   6.071 -1.9897 -2.2847 -0.8746
  204MOL0     O27406   7.715   2.247   8.103  0.3056 -0.3054  0.2373
  204MOL0     C27407   7.779   2.203   8.009  1.1490 -0.5508 -0.1711
  204MOL0     O27408   7.908   2.215   7.991 -0.4256  0.0325  0.4128
  204MOL0     C27409   7.998   2.266   8.086 -1.0794 -0.5333  0.9856
  204MOL0     C27410   8.089   2.179   8.143 -0.1872  0.2088  0.3781
  204MOL0     C27411   8.174   2.213   8.246  0.0327  0.1031  0.1401
  204MOL0     C27412   8.182   2.348   8.289  0.2138 -0.0828 -0.6483
  204MOL0     O27413   8.287   2.394   8.374  0.2261  0.7311 -0.6814
  204MOL0     C27414   8.268   2.526   8.434  0.6398  0.2961 -0.4559
  204MOL0     C27415   8.334   2.535   8.571 -0.1668 -0.0322 -0.3998
  204MOL0     C27416   8.485   2.527   8.558 -0.0158 -0.1524 -0.2322
  204MOL0     C27417   8.553   2.660   8.523  0.4721  0.8405  0.0136
  204MOL0     C27418   8.697   2.654   8.509  0.2270  0.0095 -0.2958
  204MOL0     C27419   8.732   2.771   8.415  0.7606  0.0958 -0.4279
  204MOL0     C27420   8.885   2.767   8.395  0.0627  0.4994  0.3854
  204MOL0     C27421   8.923   2.879   8.299  0.2962  0.1776 -0.2643
  204MOL0     N27422   9.071   2.883   8.292 -0.0743  0.1890 -0.1130
  204MOL0     C27423   9.158   2.896   8.396  0.6629 -0.2593  0.4949
  204MOL0     C27424   9.278   2.903   8.342 -0.6926  0.4008 -0.3358
  204MOL0     C27425   9.401   2.937   8.433  0.9620 -0.2374  0.2054
  204MOL0     C27426   9.530   2.937   8.352  0.2396 -0.0941  0.0039
  204MOL0     C27427   9.652   2.994   8.423  0.5563  0.7353  0.6893
  204MOL0     C27428   9.763   2.974   8.319  0.0633  0.2618 -0.3362
  204MOL0     O27429   9.863   3.068   8.351  0.4375  0.3700 -0.3514
  204MOL0     C27430   9.980   3.066   8.277  0.8183  0.2423  0.1902
  204MOL0     C27431   9.999   2.993   8.154 -0.6316  0.2246 -0.4325
  204MOL0     C27432  10.130   2.993   8.098  1.9065 -0.7991 -0.0588
  204MOL0     C27433  10.240   3.051   8.166  0.2838 -0.5520  0.3527
  204MOL0     C27434  10.376   3.024   8.124 -0.2127  0.2162 -0.6580
  204MOL0     O27435  10.479   3.112   8.165 -0.2431 -0.5698  0.3724
  204MOL0     C27436  10.610   3.069   8.150 -1.1002 -0.3745 -0.1510
  204MOL0     C27437  10.693   3.162   8.094 -1.2811  0.1564  0.4787
  204MOL0     C27438  10.831   3.138   8.070 -0.1043  0.2715 -0.0596
  204MOL0     C27439  10.880   3.016   8.111  0.6561  0.4359  0.6124
  204MOL0     O27440  11.013   2.983   8.081  0.0990 -0.2930 -0.3382
  204MOL0     C27441  11.083   2.887   8.154 -0.6422 -0.0930  0.1225
  204MOL0     C27442  11.231   2.903   8.124 -0.1814  0.9714 -0.0537
  204MOL0     C27443  11.305   2.785   8.193 -0.6336  0.2426 -0.8531
  204MOL0     C27444  11.447   2.760   8.147 -0.5846  0.6342 -0.7230
  204MOL0     C27445  11.535   2.675   8.240 -0.7331 -0.5824  0.6203
  204MOL0     C27446  11.474   2.546   8.304 -0.2175 -0.4030  0.0548
  204MOL0     C27447  11.430   2.434   8.200 -1.0024 -0.5058 -0.0331
  204MOL0     C27448  11.377   2.307   8.259 -0.1218 -0.6340 -0.1234
  204MOL0    Cl27449  11.231   2.361   8.341 -0.1662  0.0306  0.3793
  204MOL0     C27450  10.799   2.927   8.186 -0.7153  0.8079 -0.3693
  204MOL0     C27451  10.665   2.959   8.214 -0.0131 -0.2415 -0.4424
  204MOL0     O27452  10.387   2.912   8.082 -0.3557  1.1508  0.8928
  204MOL0     C27453  10.212   3.131   8.277 -0.5672  0.5249 -0.6932
  204MOL0     C27454  10.083   3.145   8.331  0.9561  0.3321  0.8664
  204MOL0     N27455   9.267   2.890   8.206  0.3246 -0.3639  0.3756
  204MOL0     N27456   9.137   2.881   8.176 -0.5429  0.7236  0.0816
  204MOL0     C27457   8.108   2.438   8.210  0.7486 -0.9116  0.9198
  204MOL0     C27458   8.017   2.403   8.107 -0.4022  1.0737 -0.4897
  204MOL0     C27459   7.715   2.121   7.907  0.6806 -0.7278 -0.5422
  204MOL0     C27460   7.793   2.037   7.820  0.5610 -0.1219  0.4555
  204MOL0     C27461   7.739   1.970   7.708 -0.1761  1.1547  0.1241
  204MOL0     C27462   7.603   1.978   7.686 -0.0921 -1.0966  0.5897
  204MOL0     O27463   7.539   1.911   7.577 -0.5957 -0.4772 -0.2064
  204MOL0     C27464   7.563   1.771   7.551 -0.0621  0.0708 -0.5452
  204MOL0     C27465   7.460   1.716   7.456  0.0608  0.0501  0.6892
  204MOL0     C27466   7.517   1.709   7.314  0.1081  0.1005  0.0853
  204MOL0     C27467   7.424   1.664   7.204  0.5764 -0.4555 -0.0671
  204MOL0     C27468   7.332   1.550   7.230  0.4131 -0.0737 -0.0374
  204MOL0     C27469   7.259   1.464   7.275 -0.0252  0.5718  1.1908
  204MOL0     C27470   7.526   2.072   7.755 -0.1753  0.2397  0.6158
  204MOL0     C27471   7.579   2.140   7.861  0.3287 -0.8110  0.0303
  204MOL0     C27472   7.486   2.246   7.923  0.2046 -0.4583  1.0774
  204MOL0     H27473   8.078   2.078   8.107  0.8954  0.3913 -0.4960
  204MOL0     H27474   8.234   2.140   8.300  0.2847  1.3675  1.6406
  204MOL0     H27475   8.296   2.609   8.368 -1.0062  0.3587 -1.1185
  204MOL0     H27476   8.160   2.530   8.451  0.6204 -3.9661  1.9306
  204MOL0     H27477   8.294   2.455   8.634  2.4338 -0.4223  0.8789
  204MOL0     H27478   8.311   2.624   8.629 -0.6295 -0.4461  0.0674
  204MOL0     H27479   8.509   2.456   8.478 -0.5112  3.3055 -3.7477
  204MOL0     H27480   8.528   2.496   8.654 -0.5408 -1.0472 -0.2824
  204MOL0     H27481   8.508   2.689   8.427  1.4312 -0.5383 -0.9087
  204MOL0     H27482   8.520   2.732   8.598 -0.0127 -0.0098  0.6377
  204MOL0     H27483   8.753   2.655   8.603 -0.2863  0.0711  0.0148
  204MOL0     H27484   8.722   2.559   8.460 -5.5134 -3.3095  2.0450
  204MOL0     H27485   8.692   2.747   8.316 -0.7585  1.1040 -0.1057
  204MOL0     H27486   8.696   2.870   8.448  0.5199  0.7614 -2.5389
  204MOL0     H27487   8.908   2.671   8.348 -2.6158  1.0278 -2.3350
  204MOL0     H27488   8.927   2.782   8.495  0.9456 -2.1129  0.4983
  204MOL0     H27489   8.877   2.869   8.200  0.0892 -2.6433  0.0193
  204MOL0     H27490   8.876   2.972   8.333  1.3099 -0.0288  1.8069
  204MOL0     H27491   9.122   2.902   8.498 -0.6021 -0.4711  0.0744
  204MOL0     H27492   9.374   3.035   8.472 -1.7648 -0.4145 -0.9841
  204MOL0     H27493   9.412   2.870   8.519  3.7820  0.6883  0.6562
  204MOL0     H27494   9.558   2.834   8.327  3.6141  0.8736 -0.7958
  204MOL0     H27495   9.510   2.990   8.259  0.7935 -2.0267 -1.2780
  204MOL0     H27496   9.670   2.941   8.517 -1.3893 -0.1350  0.6336
  204MOL0     H27497   9.631   3.100   8.441  0.8334  0.9126 -0.0202
  204MOL0     H27498   9.720   3.002   8.222  4.1122  1.6545 -1.9094
  204MOL0     H27499   9.805   2.874   8.311  1.6970  0.7910  1.0213
  204MOL0     H27500   9.911   2.940   8.118 -3.2646  2.7683  1.7755
  204MOL0     H27501  10.147   2.935   8.008  1.9663 -0.8223 -0.0335
  204MOL0     H27502  10.643   3.255   8.067  0.2650  1.0617  0.6441
  204MOL0     H27503  10.894   3.212   8.022 -0.6323  1.3954  0.9350
  204MOL0     H27504  11.066   2.897   8.262 -3.1656  0.7573 -0.2914
  204MOL0     H27505  11.046   2.789   8.123  0.2925  0.2883 -2.4537
  204MOL0     H27506  11.246   2.882   8.018 -2.0256 -2.5150  0.2268
  204MOL0     H27507  11.268   3.003   8.150  1.6481  0.4945 -0.6682
  204MOL0     H27508  11.317   2.814   8.298  0.3290 -1.4531 -0.4733
  204MOL0     H27509  11.245   2.694   8.204  0.7007 -0.5012  0.8868
  204MOL0     H27510  11.504   2.853   8.147  1.0793 -0.2110  2.6665
  204MOL0     H27511  11.439   2.716   8.047  0.0673 -0.2716 -0.3815
  204MOL0     H27512  11.581   2.745   8.310  1.4133  0.4511 -1.6569
  204MOL0     H27513  11.624   2.649   8.182 -1.5320 -0.8821 -0.4953
  204MOL0     H27514  11.554   2.504   8.365  0.2870  0.9598  0.3776
  204MOL0     H27515  11.397   2.582   8.373  1.3272  1.3696  0.9528
  204MOL0     H27516  11.518   2.424   8.136 -0.5198 -0.7570  0.6634
  204MOL0     H27517  11.351   2.479   8.139 -1.0674  0.2478  0.5913
  204MOL0     H27518  11.347   2.222   8.198 -1.0593 -0.1136 -0.4139
  204MOL0     H27519  11.465   2.274   8.315  2.3426  2.8012 -1.5785
  204MOL0     H27520  10.839   2.838   8.233 -1.8152 -0.2589 -1.4000
  204MOL0     H27521  10.599   2.906   8.281 -0.6580  1.2036  0.1142
  204MOL0     H27522  10.287   3.190   8.329 -2.7910  1.9280  1.1557
  204MOL0     H27523  10.069   3.211   8.416 -0.5616 -3.7454  4.1749
  204MOL0     H27524   8.139   2.542   8.217  0.9119 -0.8112 -0.9187
  204MOL0     H27525   7.970   2.486   8.056  0.7441  1.3131 -1.1744
  204MOL0     H27526   7.896   2.021   7.849  0.3017  0.3979  1.7436
  204MOL0     H27527   7.805   1.909   7.646 -0.2511  0.1834  0.9787
  204MOL0     H27528   7.563   1.720   7.648  0.3564 -2.4896 -1.8066
  204MOL0     H27529   7.661   1.762   7.502  0.7506  2.1773  0.5465
  204MOL0     H27530   7.370   1.778   7.457 -0.0547 -0.1010 -0.0143
  204MOL0     H27531   7.432   1.615   7.486 -0.9422 -0.1695 -0.8706
  204MOL0     H27532   7.597   1.635   7.320 -1.9209 -2.2412  0.0546
  204MOL0     H27533   7.561   1.805   7.285  0.2776 -0.2763 -0.9492
  204MOL0     H27534   7.364   1.749   7.171  1.6223  1.6853  3.0413
  204MOL0     H27535   7.487   1.629   7.121  0.2768  1.6406 -1.2221
  204MOL0     H27536   7.196   1.384   7.308  0.3189  0.2282  1.0131
  204MOL0     H27537   7.425   2.088   7.719  0.1749  1.3574  0.0920
  204MOL0     H27538   7.445   2.224   8.022 -2.5767  0.4283  0.2327
  204MOL0     H27539   7.537   2.343   7.927 -1.8870  0.8449 -0.9893
  204MOL0     H27540   7.405   2.278   7.856  1.2823 -0.8097 -0.4476
  205MOL0     O27541   5.472  10.558   0.102  0.7251  0.2464  0.1251
  205MOL0     C27542   5.390  10.539   0.183 -0.3792 -1.2174 -0.0775
  205MOL0     O27543   5.418  10.551   0.318 -0.5592  0.6201 -0.1982
  205MOL0     C27544   5.536  10.607   0.352 -0.5695  0.0385 -0.7397
  205MOL0     C27545   5.630  10.532   0.420  0.2340  0.8866 -0.2158
  205MOL0     C27546   5.757  10.581   0.445  0.7669  0.2066  0.9452
  205MOL0     C27547   5.794  10.706   0.410 -0.0457 -0.8729  0.0911
  205MOL0     O27548   5.923  10.755   0.428  0.2628  0.2946  0.2775
  205MOL0     C27549   5.942  10.903   0.405 -1.1334 -0.1112  0.4660
  205MOL0     C27550   6.095  10.930   0.413  0.2982 -0.2823  1.3229
  205MOL0     C27551   6.175  10.858   0.296 -1.4303 -0.1478 -0.5258
  205MOL0     C27552   6.316  10.799   0.350 -0.2713  1.0033  0.4484
  205MOL0     C27553   6.377  10.710   0.234 -0.2372 -0.5571  0.2231
  205MOL0     C27554   6.497  10.629   0.299 -0.7678  0.4189 -0.4824
  205MOL0     C27555   6.459  10.518   0.388  0.0673 -0.1446  1.0291
  205MOL0     C27556   6.589  10.463   0.438 -0.6158  0.5726  0.7917
  205MOL0     N27557   6.565  10.402   0.579  0.3880  0.4580  0.8349
  205MOL0     C27558   6.673  10.374   0.661  0.7415  0.2041  0.3684
  205MOL0     C27559   6.625  10.308   0.769 -0.3939 -0.3835  0.1368
  205MOL0     C27560   6.698  10.273   0.899  1.0235 -1.2028  0.4158
  205MOL0     C27561   6.812  10.181   0.858  0.3194  0.5010  0.2058
  205MOL0     C27562   6.927  10.176   0.953 -0.0765 -0.5151  0.2323
  205MOL0     C27563   7.033  10.070   0.919  0.1776 -0.3357 -0.0918
  205MOL0     O27564   7.122  10.120   0.816 -0.6532 -0.2564  0.2143
  205MOL0     C27565   7.236  10.039   0.789  0.2543 -0.4730  0.1089
  205MOL0     C27566   7.358  10.094   0.828  0.5041  0.6642 -0.2184
  205MOL0     C27567   7.475  10.025   0.814 -0.4447  0.1520  0.2235
  205MOL0     C27568   7.474   9.895   0.750  0.1640 -0.4752 -0.1153
  205MOL0     C27569   7.603   9.830   0.730  0.1223  1.2537 -0.4598
  205MOL0     O27570   7.711   9.884   0.795 -0.5525  0.4021  0.3523
  205MOL0     C27571   7.839   9.841   0.768 -0.1812  0.1130 -0.2618
  205MOL0     C27572   7.872   9.709   0.746  1.1643  0.1031  0.6056
  205MOL0     C27573   8.003   9.680   0.704  0.3555  0.1811 -0.3679
  205MOL0     C27574   8.099   9.780   0.678  0.1348  0.0894 -0.3458
  205MOL0     O27575   8.224   9.757   0.632 -0.2092  0.8241 -0.3146
  205MOL0     C27576   8.331   9.717   0.719  0.0087 -0.6874 -0.6791
  205MOL0     C27577   8.465   9.716   0.651  0.1738 -0.2256 -0.1953
  205MOL0     C27578   8.582   9.691   0.742 -0.0156 -0.0858 -0.2622
  205MOL0     C27579   8.715   9.641   0.682  0.6293  0.3386 -0.2302
  205MOL0     C27580   8.723   9.487   0.664 -0.1024 -0.2712 -0.2266
  205MOL0     C27581   8.613   9.421   0.572 -0.2628 -0.6702 -0.0938
  205MOL0     C27582   8.646   9.270   0.531  0.1117 -0.0998  1.2732
  205MOL0     C27583   8.616   9.181   0.653 -0.4029  0.3133 -0.7268
  205MOL0    Cl27584   8.437   9.159   0.671 -0.0397 -0.1687 -0.5265
  205MOL0     C27585   8.062   9.911   0.698  0.2669  0.7445  0.1525
  205MOL0     C27586   7.937   9.944   0.744  0.5762 -0.6431 -0.0423
  205MOL0     O27587   7.607   9.733   0.651 -0.1098  0.2127  0.6724
  205MOL0     C27588   7.349   9.839   0.705  0.6456  0.8737 -0.5763
  205MOL0     C27589   7.229   9.912   0.727 -0.5121  0.1303  0.4121
  205MOL0     N27590   6.496  10.285   0.739  0.0226 -0.4914 -0.2525
  205MOL0     N27591   6.456  10.335   0.627 -0.7550  0.5562  0.1314
  205MOL0     C27592   5.692  10.795   0.356 -0.1053  0.9717 -0.1066
  205MOL0     C27593   5.568  10.743   0.326  0.2267  0.7476 -1.2443
  205MOL0     C27594   5.258  10.491   0.146  0.0098 -0.2171  0.8764
  205MOL0     C27595   5.181  10.437   0.244 -0.5572 -0.0468 -0.2428
  205MOL0     C27596   5.058  10.382   0.220  0.0849  0.4996  0.0384
  205MOL0     C27597   5.001  10.374   0.094 -0.3380  0.3893  0.0837
  205MOL0     O27598   4.878  10.307   0.087 -0.7599 -0.6596 -0.3053
  205MOL0     C27599   4.838  10.259  -0.033 -0.1121  0.5144 -0.1574
  205MOL0     C27600   4.745  10.139  -0.014 -0.7111  0.1853  0.3920
  205MOL0     C27601   4.606  10.186   0.057  0.5526 -0.3425 -0.0423
  205MOL0     C27602   4.509  10.068   0.069  0.2648  0.7067  0.2317
  205MOL0     C27603   4.396  10.105   0.146 -0.0355  0.7152 -0.0338
  205MOL0     C27604   4.292  10.133   0.198  0.1250  0.3187 -0.4201
  205MOL0     C27605   5.094  10.411  -0.010  0.9267 -0.3400 -0.4958
  205MOL0     C27606   5.209  10.475   0.015  0.3806  0.5718  0.8082
  205MOL0     C27607   5.293  10.528  -0.106  0.1110  0.0103  0.3619
  205MOL0     H27608   5.596  10.436   0.459 -0.9667  1.3412 -0.1054
  205MOL0     H27609   5.831  10.517   0.490  0.6802  0.2399  1.1398
  205MOL0     H27610   5.904  10.944   0.311 -0.8635  0.5474  0.6320
  205MOL0     H27611   5.901  10.966   0.484 -0.9881 -1.3778  1.5835
  205MOL0     H27612   6.123  10.899   0.514  2.7942  4.3142  2.3491
  205MOL0     H27613   6.109  11.039   0.414 -2.4344  0.1898 -0.8076
  205MOL0     H27614   6.185  10.934   0.219 -2.4895 -0.3927 -0.9106
  205MOL0     H27615   6.106  10.783   0.257 -3.3934 -0.5607  3.2873
  205MOL0     H27616   6.380  10.881   0.385 -0.5207  1.1164  0.6488
  205MOL0     H27617   6.290  10.751   0.445  0.6085 -0.9845 -0.2606
  205MOL0     H27618   6.314  10.632   0.191 -0.4960 -0.3170  0.1670
  205MOL0     H27619   6.411  10.786   0.164  0.5808 -0.0428  1.1464
  205MOL0     H27620   6.560  10.597   0.215  2.2481  2.3489  0.8540
  205MOL0     H27621   6.565  10.701   0.346 -1.4759  1.7191 -1.3756
  205MOL0     H27622   6.405  10.441   0.332  0.9932  1.3069 -2.0869
  205MOL0     H27623   6.394  10.544   0.472 -1.2788  1.2892 -0.3803
  205MOL0     H27624   6.625  10.388   0.367 -0.7618  0.2848  1.0153
  205MOL0     H27625   6.675  10.529   0.451  1.2485 -0.6948 -3.5192
  205MOL0     H27626   6.773  10.415   0.650 -0.7224  3.6962 -1.5908
  205MOL0     H27627   6.725  10.367   0.946  1.2236 -0.5317 -0.9862
  205MOL0     H27628   6.631  10.227   0.972 -0.4872  0.3853  0.1042
  205MOL0     H27629   6.769  10.082   0.841  1.4833 -0.4681  2.4630
  205MOL0     H27630   6.852  10.213   0.761 -0.8532  0.0881 -0.4293
  205MOL0     H27631   6.894  10.146   1.054  2.0571 -0.7253  0.9102
  205MOL0     H27632   6.968  10.276   0.969 -0.7684 -0.0547 -0.8106
  205MOL0     H27633   6.994   9.971   0.890  3.0379 -1.8296  0.8110
  205MOL0     H27634   7.085  10.056   1.014  0.1122  0.0315 -0.0006
  205MOL0     H27635   7.356  10.194   0.871  3.6498  1.2970 -1.2276
  205MOL0     H27636   7.563  10.085   0.838  0.0650  0.1368 -1.4650
  205MOL0     H27637   7.801   9.628   0.752  0.1233  0.7284 -1.9440
  205MOL0     H27638   8.034   9.576   0.702  1.0018  0.1331  3.7611
  205MOL0     H27639   8.336   9.781   0.807  2.3725  1.5496 -2.2669
  205MOL0     H27640   8.312   9.617   0.758 -0.3111 -0.7894 -1.0891
  205MOL0     H27641   8.478   9.644   0.570 -0.4503 -1.5744  0.8547
  205MOL0     H27642   8.467   9.816   0.608 -1.0749 -0.4702 -0.8791
  205MOL0     H27643   8.594   9.786   0.796 -1.3569  0.7573 -1.3702
  205MOL0     H27644   8.551   9.613   0.812  1.8892  0.5665  1.3989
  205MOL0     H27645   8.804   9.676   0.735  0.8128 -0.0358 -0.2878
  205MOL0     H27646   8.724   9.677   0.579  1.0399 -1.0936 -0.7133
  205MOL0     H27647   8.726   9.439   0.762  0.3335  0.7794  0.2926
  205MOL0     H27648   8.822   9.472   0.617 -0.6455  1.1011 -1.9158
  205MOL0     H27649   8.510   9.417   0.610  0.4023 -4.1686  1.7597
  205MOL0     H27650   8.602   9.483   0.483 -1.0887  1.6427  1.5020
  205MOL0     H27651   8.749   9.260   0.495 -0.5076  0.3170 -0.7194
  205MOL0     H27652   8.584   9.237   0.447 -1.3567 -0.7400  2.5569
  205MOL0     H27653   8.671   9.087   0.650  1.0094  0.9185  2.3163
  205MOL0     H27654   8.662   9.220   0.744  1.6456 -2.3658 -0.4679
  205MOL0     H27655   8.143   9.981   0.683 -0.2099  0.6558 -3.6501
  205MOL0     H27656   7.908  10.049   0.751  0.4604 -0.6740 -0.0525
  205MOL0     H27657   7.344   9.742   0.656  0.0638 -0.3671  1.7992
  205MOL0     H27658   7.140   9.855   0.701 -0.4970  0.3063 -0.0313
  205MOL0     H27659   5.706  10.900   0.335  0.4631  0.6340 -1.5916
  205MOL0     H27660   5.482  10.793   0.281 -0.8170  1.9932  1.8220
  205MOL0     H27661   5.209  10.435   0.349  0.6398 -1.0493 -0.5626
  205MOL0     H27662   4.993  10.338   0.294 -0.3597  0.0237 -0.6282
  205MOL0     H27663   4.921  10.215  -0.090  1.3518  1.8284  0.8811
  205MOL0     H27664   4.788  10.335  -0.094 -0.6012  0.6201  0.3701
  205MOL0     H27665   4.792  10.068   0.055 -3.1311 -0.7941  1.1251
  205MOL0     H27666   4.734  10.074  -0.100  2.3787 -1.3406  1.0124
  205MOL0     H27667   4.573  10.274   0.001 -2.6939  0.1866  2.3678
  205MOL0     H27668   4.622  10.239   0.152  2.7744  1.9452 -1.5464
  205MOL0     H27669   4.484  10.034  -0.032  1.2555 -0.1630  0.2639
  205MOL0     H27670   4.565   9.990   0.123 -0.1479  0.1888 -0.0710
  205MOL0     H27671   4.200  10.154   0.249 -0.3592 -0.3885 -0.9796
  205MOL0     H27672   5.058  10.406  -0.113 -0.5188  1.1576 -0.1018
  205MOL0     H27673   5.322  10.632  -0.087 -1.6186  0.7075 -0.6098
  205MOL0     H27674   5.384  10.469  -0.120 -0.3980 -0.6745 -0.1349
  205MOL0     H27675   5.224  10.534  -0.190 -0.2159  2.1433  0.7217
  206MOL0     O27676   7.838   1.462   7.804 -0.1261  0.2665 -0.1618
  206MOL0     C27677   7.842   1.519   7.694 -0.5570 -0.6879 -0.7389
  206MOL0     O27678   7.936   1.620   7.665 -0.1740 -0.8196  0.1609
  206MOL0     C27679   8.016   1.680   7.762  0.1006  0.4137 -0.8315
  206MOL0     C27680   8.154   1.676   7.749 -0.9087 -0.2017 -0.2352
  206MOL0     C27681   8.229   1.759   7.832 -0.3964  0.9666  0.7217
  206MOL0     C27682   8.178   1.824   7.947 -0.3055 -0.4172  0.0047
  206MOL0     O27683   8.250   1.904   8.028 -0.4815 -0.3862 -0.1843
  206MOL0     C27684   8.395   1.931   8.016  0.1964 -0.2395 -0.4694
  206MOL0     C27685   8.436   2.019   8.140  0.3569 -0.2207 -0.3957
  206MOL0     C27686   8.588   2.057   8.145  0.5546  0.0800  0.1392
  206MOL0     C27687   8.594   2.156   8.264 -0.6584 -0.0455  0.4338
  206MOL0     C27688   8.693   2.269   8.239  0.6131  0.1284 -0.5056
  206MOL0     C27689   8.670   2.374   8.132  0.0622 -0.1221  0.7240
  206MOL0     C27690   8.567   2.489   8.165 -0.5057  0.9572 -0.4188
  206MOL0     C27691   8.547   2.576   8.047  0.8346 -1.7965  0.6168
  206MOL0     N27692   8.426   2.664   8.065  0.3659  1.1784  0.0369
  206MOL0     C27693   8.407   2.751   8.162  0.5067 -0.6677 -0.0486
  206MOL0     C27694   8.277   2.799   8.146 -0.3846  0.3749 -0.3075
  206MOL0     C27695   8.208   2.909   8.229  0.2605  0.0345  0.1055
  206MOL0     C27696   8.213   3.049   8.172  0.6643 -0.3556 -0.8389
  206MOL0     C27697   8.146   3.054   8.033  0.2586  0.1139 -0.5750
  206MOL0     C27698   7.991   3.049   8.040 -0.6886  0.0247 -0.0659
  206MOL0     O27699   7.944   3.158   8.114 -0.4291 -0.1357 -0.4497
  206MOL0     C27700   7.814   3.150   8.153 -0.3875 -1.1836  0.1477
  206MOL0     C27701   7.729   3.036   8.148 -0.9220 -0.7417  0.4062
  206MOL0     C27702   7.608   3.034   8.212 -0.5920 -0.0899  0.2680
  206MOL0     C27703   7.570   3.140   8.292  0.6125 -0.5600 -0.4497
  206MOL0     C27704   7.441   3.130   8.362  0.3409  0.0070 -0.1672
  206MOL0     O27705   7.392   3.000   8.379 -0.3023 -1.0721  0.1556
  206MOL0     C27706   7.269   2.987   8.438 -0.0033 -0.2741  0.1907
  206MOL0     C27707   7.264   2.866   8.499 -0.0212  0.2390  0.0618
  206MOL0     C27708   7.153   2.822   8.579 -1.2494 -0.7002 -0.1232
  206MOL0     C27709   7.044   2.911   8.584  0.4637  0.8159  0.3721
  206MOL0     O27710   6.935   2.867   8.661 -0.4306 -0.4975 -0.6349
  206MOL0     C27711   6.825   2.961   8.688  0.1402  0.2253  0.8224
  206MOL0     C27712   6.869   3.055   8.796 -0.2638 -0.5224  0.3403
  206MOL0     C27713   6.782   3.173   8.811  0.1731  0.1818 -0.8340
  206MOL0     C27714   6.673   3.128   8.913 -0.9643  0.0962  0.4516
  206MOL0     C27715   6.581   3.244   8.946 -0.3264 -0.1737  1.1665
  206MOL0     C27716   6.658   3.362   9.016 -0.1291 -0.5953  0.2792
  206MOL0     C27717   6.562   3.462   9.085  0.1417  0.4671 -0.4021
  206MOL0     C27718   6.581   3.607   9.073 -0.0317  1.1013 -0.0074
  206MOL0    Cl27719   6.446   3.693   9.131  0.0886 -0.1759  0.5520
  206MOL0     C27720   7.046   3.037   8.517 -0.4929 -0.1044 -0.5173
  206MOL0     C27721   7.160   3.080   8.451 -0.3350 -0.7216  0.1198
  206MOL0     O27722   7.392   3.231   8.416  0.5506  0.1826  0.4238
  206MOL0     C27723   7.648   3.254   8.292  0.0049 -0.1671  0.0888
  206MOL0     C27724   7.769   3.265   8.214  0.4804  0.5181 -0.0174
  206MOL0     N27725   8.222   2.726   8.041 -0.6097  0.3324 -0.1831
  206MOL0     N27726   8.304   2.633   8.007  0.2464 -0.4009 -0.2919
  206MOL0     C27727   8.040   1.807   7.963 -0.8262  0.1767 -0.7858
  206MOL0     C27728   7.958   1.743   7.873  0.1306  0.7181 -0.1001
  206MOL0     C27729   7.779   1.465   7.574  0.0512 -1.0980  0.8278
  206MOL0     C27730   7.845   1.459   7.447  0.0375 -0.4245  0.3442
  206MOL0     C27731   7.784   1.411   7.336 -0.0679  0.3058 -0.3571
  206MOL0     C27732   7.660   1.350   7.350 -0.1343  0.5503 -0.0344
  206MOL0     O27733   7.590   1.290   7.254  0.6312  0.3239  0.4357
  206MOL0     C27734   7.657   1.239   7.135 -0.3412  0.0858  0.4041
  206MOL0     C27735   7.660   1.339   7.014  0.4459  1.1680  0.5016
  206MOL0     C27736   7.517   1.347   6.949 -0.2116 -0.5600  0.6296
  206MOL0     C27737   7.466   1.218   6.885 -0.7758  0.5368 -0.7306
  206MOL0     C27738   7.345   1.244   6.806  0.0973 -0.1131  0.4092
  206MOL0     C27739   7.249   1.289   6.742  0.2401 -0.1231 -0.4103
  206MOL0     C27740   7.598   1.345   7.480 -0.1712  0.6915  0.0025
  206MOL0     C27741   7.649   1.409   7.592 -0.0693  0.2291 -1.1992
  206MOL0     C27742   7.555   1.420   7.711  0.1714 -0.5269 -0.1457
  206MOL0     H27743   8.193   1.611   7.671  0.7343  0.7359 -0.2391
  206MOL0     H27744   8.333   1.780   7.810 -1.0296  0.3907 -3.9395
  206MOL0     H27745   8.460   1.844   8.004 -1.3985 -1.4578 -0.6551
  206MOL0     H27746   8.413   1.985   7.923  3.1061  0.4057  0.3714
  206MOL0     H27747   8.408   1.965   8.231  0.4838 -0.8225 -0.7089
  206MOL0     H27748   8.380   2.112   8.123  0.4764 -0.3396 -1.5196
  206MOL0     H27749   8.616   2.106   8.052  2.2601  0.4746  0.8238
  206MOL0     H27750   8.656   1.974   8.164 -0.0466 -0.2107  1.0935
  206MOL0     H27751   8.497   2.203   8.281 -1.2977  0.0332 -2.7113
  206MOL0     H27752   8.623   2.098   8.352  0.1268 -1.6820 -0.8437
  206MOL0     H27753   8.721   2.318   8.333  0.8937  0.1271 -0.5892
  206MOL0     H27754   8.787   2.224   8.207  1.2423 -0.2045  1.6136
  206MOL0     H27755   8.753   2.434   8.094 -1.7402 -0.7415 -5.1904
  206MOL0     H27756   8.636   2.314   8.046  0.1442 -2.3200  2.1363
  206MOL0     H27757   8.608   2.546   8.249 -1.6105 -1.6546  2.0622
  206MOL0     H27758   8.470   2.451   8.198 -0.5205  1.8277  0.5784
  206MOL0     H27759   8.632   2.644   8.035 -0.9840  0.4180 -0.3847
  206MOL0     H27760   8.535   2.522   7.953  0.1360  1.5596 -1.4176
  206MOL0     H27761   8.477   2.783   8.238 -0.0943  0.9993 -0.1632
  206MOL0     H27762   8.105   2.877   8.243 -0.1432  0.7282 -1.1222
  206MOL0     H27763   8.245   2.924   8.330  1.2586  3.5407 -0.6529
  206MOL0     H27764   8.166   3.124   8.236  2.5212  1.1808 -1.1967
  206MOL0     H27765   8.318   3.079   8.163  0.2764  3.0940  3.0126
  206MOL0     H27766   8.169   2.959   7.984  1.6138 -0.3323  0.8440
  206MOL0     H27767   8.180   3.135   7.967  2.8509 -0.2408  0.2073
  206MOL0     H27768   7.967   2.953   8.087 -0.3137  0.7723  1.7368
  206MOL0     H27769   7.941   3.063   7.943 -0.0301 -0.2705 -0.4552
  206MOL0     H27770   7.758   2.950   8.088  2.2031  3.0410 -4.2786
  206MOL0     H27771   7.546   2.945   8.205 -1.0915  0.2801 -0.1640
  206MOL0     H27772   7.350   2.801   8.491 -1.6332 -1.8793 -1.1697
  206MOL0     H27773   7.149   2.719   8.612 -0.7514 -0.8500 -0.5190
  206MOL0     H27774   6.793   3.013   8.598 -0.8108 -3.3649 -1.1150
  206MOL0     H27775   6.734   2.909   8.720 -0.7881  2.1383  1.4440
  206MOL0     H27776   6.882   3.009   8.895 -1.3935  1.1073  1.2897
  206MOL0     H27777   6.967   3.102   8.785 -0.3230  0.2520  2.6259
  206MOL0     H27778   6.839   3.255   8.856 -1.7175  1.4521 -0.6666
  206MOL0     H27779   6.722   3.202   8.725 -4.3352 -0.6322  1.7294
  206MOL0     H27780   6.720   3.093   9.005  0.8108  0.0246 -0.4375
  206MOL0     H27781   6.620   3.041   8.873  3.2861 -1.4334 -2.6460
  206MOL0     H27782   6.504   3.214   9.018  0.1105 -1.1709  1.2314
  206MOL0     H27783   6.530   3.287   8.859  0.1753 -0.6176  0.6439
  206MOL0     H27784   6.731   3.328   9.091  2.2277  2.4910 -0.4108
  206MOL0     H27785   6.726   3.415   8.948  1.5247 -2.5459  0.2930
  206MOL0     H27786   6.562   3.440   9.192  0.5077 -0.6894 -0.6218
  206MOL0     H27787   6.458   3.436   9.062 -1.5442  4.2638  1.9451
  206MOL0     H27788   6.673   3.628   9.129 -0.4323  2.7423  0.0763
  206MOL0     H27789   6.593   3.637   8.968  2.6016  1.7021  0.4018
  206MOL0     H27790   6.968   3.110   8.537  0.2464  0.5445  0.1103
  206MOL0     H27791   7.162   3.178   8.403 -1.4368 -0.2910  0.9189
  206MOL0     H27792   7.618   3.338   8.353 -1.7323  0.0279 -0.9660
  206MOL0     H27793   7.826   3.356   8.227  1.2118  0.4402 -2.3160
  206MOL0     H27794   7.994   1.847   8.053 -3.4445 -3.4096 -0.3270
  206MOL0     H27795   7.851   1.742   7.896 -0.2947  1.6731 -1.8381
  206MOL0     H27796   7.948   1.493   7.443  0.7645 -2.2222  2.0659
  206MOL0     H27797   7.833   1.416   7.240  2.0363 -0.0492  0.6432
  206MOL0     H27798   7.622   1.138   7.114  1.7509 -0.2143 -2.1833
  206MOL0     H27799   7.764   1.221   7.154 -0.6785 -0.7202  1.6843
  206MOL0     H27800   7.737   1.312   6.941 -0.2962 -0.7935  0.3701
  206MOL0     H27801   7.683   1.438   7.055 -3.2967  1.3889  2.4621
  206MOL0     H27802   7.521   1.424   6.871  0.2062  1.5683  2.6506
  206MOL0     H27803   7.450   1.386   7.026 -0.4974 -0.5239  0.3633
  206MOL0     H27804   7.538   1.180   6.811 -0.6380 -0.8780  0.0967
  206MOL0     H27805   7.443   1.146   6.964  2.0427  2.5520  2.1765
  206MOL0     H27806   7.169   1.315   6.675 -0.1214  1.0851  0.4532
  206MOL0     H27807   7.509   1.283   7.489  1.0705 -1.2138 -0.1415
  206MOL0     H27808   7.537   1.323   7.756  3.0280 -0.7938  0.6342
  206MOL0     H27809   7.595   1.478   7.795 -3.6571 -1.2037  2.3538
  206MOL0     H27810   7.458   1.460   7.680 -1.0038 -4.3688 -2.0946
  207MOL0     O27811   1.674  11.160   0.600  0.2406 -0.5461 -1.0695
  207MOL0     C27812   1.592  11.140   0.511 -0.7322 -0.6994  0.0492
  207MOL0     O27813   1.638  11.106   0.387  0.1467  0.3308  0.5068
  207MOL0     C27814   1.764  11.140   0.342  0.1278  0.6158  0.4760
  207MOL0     C27815   1.816  11.263   0.374  0.2257 -0.1409  0.6484
  207MOL0     C27816   1.955  11.292   0.348  0.1047  0.3441 -0.5651
  207MOL0     C27817   2.023  11.202   0.260 -0.0236 -0.7948 -0.5131
  207MOL0     O27818   2.135  11.235   0.192  0.1474 -0.1929  1.0490
  207MOL0     C27819   2.205  11.359   0.227 -1.3106  0.0827 -0.0103
  207MOL0     C27820   2.274  11.349   0.368  0.1511  0.2017  0.2354
  207MOL0     C27821   2.390  11.449   0.395 -0.7192  0.4024  0.1013
  207MOL0     C27822   2.503  11.388   0.481  0.4031 -0.4621 -0.2429
  207MOL0     C27823   2.643  11.462   0.497 -0.2061 -0.1361  0.5138
  207MOL0     C27824   2.751  11.371   0.546 -0.7472 -0.9234  0.4845
  207MOL0     C27825   2.894  11.428   0.569 -0.4551 -0.5450 -0.2052
  207MOL0     C27826   2.903  11.571   0.627 -0.0321 -0.0902 -0.1113
  207MOL0     N27827   3.052  11.610   0.647 -0.1544 -0.1117 -0.3405
  207MOL0     C27828   3.153  11.526   0.676  0.1709 -0.8561 -0.0368
  207MOL0     C27829   3.260  11.606   0.707  1.1069  0.2175 -0.8721
  207MOL0     C27830   3.392  11.560   0.742  1.1718 -0.2362 -0.3327
  207MOL0     C27831   3.492  11.628   0.651 -0.4096  0.2673  0.0719
  207MOL0     C27832   3.626  11.583   0.707 -0.4546 -0.0045 -0.3415
  207MOL0     C27833   3.744  11.624   0.622  0.0048 -0.7411  0.1063
  207MOL0     O27834   3.734  11.762   0.605  0.0058 -0.2029  0.9395
  207MOL0     C27835   3.825  11.824   0.524  0.1864 -0.2519  0.2730
  207MOL0     C27836   3.901  11.768   0.419 -0.1645  0.3064 -0.1051
  207MOL0     C27837   4.000  11.833   0.352  0.6233 -0.5018 -0.5306
  207MOL0     C27838   4.031  11.965   0.379 -0.7901 -0.7691 -0.1264
  207MOL0     C27839   4.120  12.043   0.290 -0.4637 -0.1994  0.2144
  207MOL0     O27840   4.152  12.177   0.317  0.2138  0.4483 -0.6742
  207MOL0     C27841   4.197  12.255   0.213  0.2139  0.4655 -0.6520
  207MOL0     C27842   4.331  12.271   0.185  0.3232 -0.0773 -0.5117
  207MOL0     C27843   4.360  12.355   0.083  0.1811 -0.4470 -0.3620
  207MOL0     C27844   4.267  12.438   0.015  0.0924  0.1180  0.0911
  207MOL0     O27845   4.312  12.512  -0.096 -0.3185  0.7387  0.1560
  207MOL0     C27846   4.239  12.622  -0.141  0.5220 -0.8036 -0.2240
  207MOL0     C27847   4.319  12.682  -0.261 -0.3491  0.4402  0.2232
  207MOL0     C27848   4.430  12.773  -0.225 -0.1867  0.7109 -0.1237
  207MOL0     C27849   4.492  12.823  -0.351  0.1359 -0.2445  0.9502
  207MOL0     C27850   4.600  12.922  -0.320  0.2277  0.2410 -0.1105
  207MOL0     C27851   4.726  12.920  -0.411  0.3023 -0.3967  0.6960
  207MOL0     C27852   4.825  13.017  -0.357  0.0557 -0.3182 -0.1251
  207MOL0     C27853   4.949  13.033  -0.450  0.5688 -0.2917  0.0621
  207MOL0    Cl27854   4.904  13.107  -0.610 -0.0467 -0.2670 -0.2352
  207MOL0     C27855   4.128  12.431   0.060 -0.1260  0.4153 -0.9588
  207MOL0     C27856   4.093  12.335   0.159 -0.6085  0.7404  0.0849
  207MOL0     O27857   4.156  11.988   0.188  0.4034  0.0475  0.0992
  207MOL0     C27858   3.945  12.029   0.471  0.7914  0.4482  0.1008
  207MOL0     C27859   3.846  11.966   0.542 -0.2568 -0.0634  0.1932
  207MOL0     N27860   3.215  11.735   0.687 -0.3214 -0.5986 -0.4975
  207MOL0     N27861   3.093  11.739   0.667 -0.1826 -0.5457  0.1322
  207MOL0     C27862   1.961  11.084   0.218 -0.2740  0.2296 -0.3379
  207MOL0     C27863   1.838  11.045   0.271  0.0386  0.0304  0.7115
  207MOL0     C27864   1.446  11.149   0.529  0.1384 -0.2676  0.5262
  207MOL0     C27865   1.373  11.134   0.413  0.2043 -1.1621 -0.1682
  207MOL0     C27866   1.234  11.138   0.417 -0.4197  0.7386  0.5513
  207MOL0     C27867   1.165  11.156   0.534 -0.1533  0.5076 -0.0114
  207MOL0     O27868   1.031  11.155   0.515 -0.5177  0.0113 -0.3608
  207MOL0     C27869   0.952  11.134   0.632  0.0955  0.2798 -0.1680
  207MOL0     C27870   0.806  11.095   0.609  0.5487 -0.8837  0.2683
  207MOL0     C27871   0.737  11.179   0.500  0.9514 -0.6937  0.0389
  207MOL0     C27872   0.588  11.141   0.484 -0.8538  0.0135 -0.8998
  207MOL0     C27873   0.509  11.198   0.601 -0.2741  0.6540  0.4255
  207MOL0     C27874   0.440  11.226   0.697 -0.8219 -1.3671  0.2273
  207MOL0     C27875   1.230  11.172   0.652 -0.5419  0.0305 -0.2360
  207MOL0     C27876   1.368  11.160   0.651 -0.8013 -0.0241 -0.2113
  207MOL0     C27877   1.449  11.177   0.775  0.8457 -0.1275 -0.4660
  207MOL0     H27878   1.757  11.328   0.437 -0.9993  0.3518 -0.9183
  207MOL0     H27879   2.005  11.382   0.383 -2.6958  3.3399 -3.5016
  207MOL0     H27880   2.276  11.392   0.150 -3.4210  1.0406 -1.6526
  207MOL0     H27881   2.138  11.445   0.223  3.4498  4.3903  0.9874
  207MOL0     H27882   2.313  11.249   0.391  3.2094  0.8607 -1.5278
  207MOL0     H27883   2.194  11.366   0.441 -0.6875  3.5387 -1.2712
  207MOL0     H27884   2.356  11.536   0.453  1.8764 -0.0758  2.5414
  207MOL0     H27885   2.422  11.483   0.296  1.5786 -2.3160 -0.1903
  207MOL0     H27886   2.456  11.364   0.576 -0.8759 -1.4835 -1.1041
  207MOL0     H27887   2.526  11.287   0.446  4.3014  0.3034 -0.4015
  207MOL0     H27888   2.670  11.497   0.397 -4.6142  2.1719 -0.1246
  207MOL0     H27889   2.632  11.539   0.574 -0.7588  0.1332  0.1734
  207MOL0     H27890   2.702  11.339   0.639 -0.8807 -0.4140  0.5923
  207MOL0     H27891   2.755  11.292   0.470 -1.3195  0.2402 -0.8099
  207MOL0     H27892   2.947  11.413   0.475  1.9375 -1.8651  1.2635
  207MOL0     H27893   2.941  11.356   0.637 -1.9663 -0.6678  0.7534
  207MOL0     H27894   2.863  11.642   0.554 -1.6455  1.1680  1.8943
  207MOL0     H27895   2.843  11.582   0.718  2.0836  1.1722  1.1872
  207MOL0     H27896   3.141  11.420   0.699 -0.0859 -1.2893 -2.0459
  207MOL0     H27897   3.420  11.586   0.845  0.8405 -1.6273  0.1289
  207MOL0     H27898   3.383  11.452   0.729 -3.1789 -0.1135  0.0969
  207MOL0     H27899   3.476  11.583   0.552 -0.2243 -0.1446  0.2257
  207MOL0     H27900   3.491  11.737   0.649 -0.4514  0.2780 -2.5605
  207MOL0     H27901   3.639  11.475   0.721  1.6357  0.3661  1.0067
  207MOL0     H27902   3.643  11.629   0.805  3.8031  0.0021 -0.8858
  207MOL0     H27903   3.730  11.590   0.518 -0.4014  0.5843 -0.2877
  207MOL0     H27904   3.836  11.589   0.670  1.2508  2.6324  0.4310
  207MOL0     H27905   3.889  11.667   0.381  0.8624  0.8133 -1.9107
  207MOL0     H27906   4.037  11.781   0.265 -1.2404  0.3063 -1.8912
  207MOL0     H27907   4.401  12.212   0.243  0.6839 -0.9528 -1.7932
  207MOL0     H27908   4.459  12.365   0.041  0.9047 -3.2376  0.4509
  207MOL0     H27909   4.136  12.600  -0.169  0.1984  0.3459  0.0462
  207MOL0     H27910   4.232  12.702  -0.067 -0.5249 -1.1279  0.0407
  207MOL0     H27911   4.347  12.602  -0.330  0.7394  2.1367 -1.4203
  207MOL0     H27912   4.244  12.748  -0.307 -0.9639 -0.2324  0.2300
  207MOL0     H27913   4.398  12.857  -0.163 -2.0093  2.6003 -3.3000
  207MOL0     H27914   4.505  12.734  -0.156 -0.0338  2.9444  1.0461
  207MOL0     H27915   4.412  12.862  -0.415 -0.5487 -1.8200  0.7893
  207MOL0     H27916   4.538  12.743  -0.410  0.4450  1.5599 -1.3685
  207MOL0     H27917   4.620  12.925  -0.212 -2.0346 -0.7788  0.4041
  207MOL0     H27918   4.538  13.011  -0.332 -1.8168 -0.7933  1.8959
  207MOL0     H27919   4.766  12.818  -0.414  0.8216 -0.1721 -0.6018
  207MOL0     H27920   4.694  12.952  -0.510 -0.4299 -0.7208  0.8208
  207MOL0     H27921   4.850  12.987  -0.255 -0.8806  2.7293  1.0903
  207MOL0     H27922   4.790  13.119  -0.340  0.3375 -0.5654  2.2769
  207MOL0     H27923   5.028  13.098  -0.411  1.0578  2.4022 -4.5818
  207MOL0     H27924   4.978  12.928  -0.456 -4.5871 -2.2679  3.2541
  207MOL0     H27925   4.035  12.466   0.015 -1.0197  2.4399  2.1012
  207MOL0     H27926   3.990  12.319   0.189 -0.5464 -0.3530 -0.2700
  207MOL0     H27927   3.962  12.133   0.500  3.5385 -0.1479  0.9763
  207MOL0     H27928   3.791  12.022   0.617  0.2898  1.5945 -0.5855
  207MOL0     H27929   2.001  11.018   0.142  0.1496 -1.1982  1.0692
  207MOL0     H27930   1.797  10.948   0.244  3.7540 -1.2910 -0.7721
  207MOL0     H27931   1.411  11.110   0.315 -1.1970 -2.5852 -0.3906
  207MOL0     H27932   1.168  11.120   0.332  0.9702  0.2408 -0.4488
  207MOL0     H27933   0.964  11.227   0.689 -0.7176  0.7116 -0.6682
  207MOL0     H27934   0.984  11.053   0.698  2.9873  2.7909  1.8084
  207MOL0     H27935   0.752  11.112   0.702  0.1572  0.4631 -0.1883
  207MOL0     H27936   0.798  10.987   0.590  1.4332 -0.4927 -3.0201
  207MOL0     H27937   0.789  11.149   0.409 -0.1122  0.6894 -1.0842
  207MOL0     H27938   0.752  11.286   0.517 -2.1781  0.3923 -2.8154
  207MOL0     H27939   0.543  11.179   0.391 -1.8437  0.9647 -0.0654
  207MOL0     H27940   0.584  11.032   0.479  2.5627 -0.2326 -0.3631
  207MOL0     H27941   0.400  11.258   0.791 -0.2013 -0.1664  0.1084
  207MOL0     H27942   1.188  11.196   0.749  0.0375 -2.5442  0.7494
  207MOL0     H27943   1.494  11.079   0.792 -2.9911 -1.8531  0.9976
  207MOL0     H27944   1.520  11.260   0.773  1.4522 -0.6242  0.0194
  207MOL0     H27945   1.388  11.189   0.865 -0.3944 -0.8820 -1.1859
  208MOL0     O27946   0.733   4.245   5.580 -0.1088 -0.0519 -0.8855
  208MOL0     C27947   0.668   4.343   5.547  0.7408 -0.3434  0.6631
  208MOL0     O27948   0.705   4.444   5.460 -0.6742 -0.2589 -0.0675
  208MOL0     C27949   0.837   4.483   5.442 -0.0344  0.3264 -0.0067
  208MOL0     C27950   0.955   4.445   5.513 -1.0126  0.7268  0.3583
  208MOL0     C27951   1.079   4.515   5.487  0.7475  0.0199 -0.7809
  208MOL0     C27952   1.090   4.612   5.391  0.1502  0.7023  0.5156
  208MOL0     O27953   1.207   4.665   5.342 -0.0506 -0.5851  0.1840
  208MOL0     C27954   1.331   4.599   5.369 -0.2687 -0.9152  0.3342
  208MOL0     C27955   1.438   4.675   5.287  0.2716  0.9336 -0.2383
  208MOL0     C27956   1.586   4.617   5.291  0.1100 -0.0446 -0.0611
  208MOL0     C27957   1.682   4.659   5.178 -0.3072 -0.3195 -1.1377
  208MOL0     C27958   1.795   4.558   5.168 -0.0142  0.3600 -0.8465
  208MOL0     C27959   1.897   4.586   5.054  0.1147 -0.1172 -0.0502
  208MOL0     C27960   2.026   4.502   5.072 -0.0151 -0.4525 -0.5281
  208MOL0     C27961   2.130   4.527   4.957 -1.1123  0.4169  0.4208
  208MOL0     N27962   2.260   4.468   5.001  0.4107 -0.5466 -0.9957
  208MOL0     C27963   2.364   4.542   5.051  0.1177  0.5049 -0.2579
  208MOL0     C27964   2.456   4.449   5.095  0.0717  0.3507  0.5973
  208MOL0     C27965   2.588   4.478   5.147  0.6349 -0.7655 -0.7967
  208MOL0     C27966   2.676   4.543   5.040 -0.9256  0.6877 -0.5791
  208MOL0     C27967   2.833   4.535   5.074 -0.4457 -0.6401 -0.4432
  208MOL0     C27968   2.911   4.407   5.044  0.8072 -0.5369 -0.0074
  208MOL0     O27969   3.020   4.392   5.134  0.0233  0.1021 -0.3562
  208MOL0     C27970   3.147   4.399   5.078  0.3470  1.0011 -0.3243
  208MOL0     C27971   3.188   4.417   4.948 -0.1990 -0.3806  0.0089
  208MOL0     C27972   3.323   4.427   4.917 -0.2475  0.3721 -0.1776
  208MOL0     C27973   3.419   4.422   5.026  0.0189 -0.0751 -0.4302
  208MOL0     C27974   3.562   4.430   4.992 -0.6329  0.1802  0.1385
  208MOL0     O27975   3.656   4.345   5.060 -0.5661 -0.1767  0.4971
  208MOL0     C27976   3.797   4.361   5.051  0.1441  1.0809 -0.4628
  208MOL0     C27977   3.863   4.296   5.157  0.3313 -0.0243 -0.2047
  208MOL0     C27978   4.006   4.304   5.165 -0.2321  0.6215 -0.6647
  208MOL0     C27979   4.083   4.382   5.074  0.2870 -0.6630  0.5298
  208MOL0     O27980   4.211   4.406   5.080 -0.8650 -0.4937 -0.0794
  208MOL0     C27981   4.285   4.360   5.200 -0.2279  0.3437 -0.2687
  208MOL0     C27982   4.441   4.385   5.172  0.9022 -0.2120 -0.2278
  208MOL0     C27983   4.478   4.534   5.183  0.8153  0.5802 -0.3086
  208MOL0     C27984   4.626   4.565   5.137  0.2940 -0.5722 -0.6068
  208MOL0     C27985   4.727   4.492   5.225 -0.6832  0.2820  0.0587
  208MOL0     C27986   4.868   4.525   5.169  0.5131 -0.1320 -0.5420
  208MOL0     C27987   4.973   4.480   5.272  0.3611 -0.6442  0.2457
  208MOL0     C27988   5.119   4.526   5.226  0.6522 -0.5246 -0.4990
  208MOL0    Cl27989   5.164   4.453   5.077 -0.0408  0.2102 -0.0016
  208MOL0     C27990   4.007   4.455   4.981 -0.9094 -0.1219  0.8711
  208MOL0     C27991   3.871   4.448   4.973  0.4379 -0.0801 -0.0992
  208MOL0     O27992   3.589   4.499   4.895 -0.3027  0.0416 -0.9121
  208MOL0     C27993   3.379   4.389   5.155 -0.9014  1.4207  0.0583
  208MOL0     C27994   3.244   4.378   5.179  0.0799  0.1857  0.1285
  208MOL0     N27995   2.393   4.323   5.076  0.4927 -0.1222  0.3473
  208MOL0     N27996   2.283   4.330   5.016 -0.0496  0.1366  0.0176
  208MOL0     C27997   0.974   4.645   5.321 -0.2591 -0.2725 -0.5726
  208MOL0     C27998   0.853   4.579   5.344  0.0814  0.0084  0.3783
  208MOL0     C27999   0.534   4.351   5.617  0.2949  0.3683  0.0784
  208MOL0     C28000   0.455   4.239   5.626  1.1930 -0.1026  0.2371
  208MOL0     C28001   0.326   4.237   5.676 -0.1363 -0.1847  0.1404
  208MOL0     C28002   0.263   4.362   5.718  0.2416  0.5031  0.3827
  208MOL0     O28003   0.127   4.373   5.752  0.2987 -0.9951 -0.1194
  208MOL0     C28004   0.056   4.249   5.770 -0.3487 -0.6086 -0.0361
  208MOL0     C28005  -0.082   4.271   5.789  1.7261  0.7755 -0.1837
  208MOL0     C28006  -0.152   4.317   5.661  0.7083 -0.8257 -0.7275
  208MOL0     C28007  -0.306   4.326   5.680  0.2665  0.3058 -0.0173
  208MOL0     C28008  -0.366   4.355   5.547 -1.0708 -0.4725 -0.4784
  208MOL0     C28009  -0.416   4.384   5.443  0.5354  0.4357 -0.9499
  208MOL0     C28010   0.345   4.472   5.701  1.0581  0.3767 -0.7776
  208MOL0     C28011   0.484   4.472   5.664  0.7967  0.2299  0.0045
  208MOL0     C28012   0.558   4.597   5.666  0.1112  0.1109 -0.2113
  208MOL0     H28013   0.969   4.376   5.596  0.7193 -0.6713 -1.0269
  208MOL0     H28014   1.174   4.496   5.536 -0.0963 -1.8163  0.3013
  208MOL0     H28015   1.366   4.595   5.472  1.4797  1.5013 -0.0905
  208MOL0     H28016   1.333   4.500   5.323  1.4754 -1.3742  1.3356
  208MOL0     H28017   1.432   4.777   5.328 -1.0818  0.6417  0.3201
  208MOL0     H28018   1.395   4.671   5.187  0.7471 -2.0223 -0.3919
  208MOL0     H28019   1.584   4.507   5.289 -0.9489 -0.0292 -0.3821
  208MOL0     H28020   1.627   4.642   5.390  0.7256 -2.4957  0.3699
  208MOL0     H28021   1.625   4.680   5.086  0.0136 -1.6702 -1.6634
  208MOL0     H28022   1.717   4.753   5.222 -3.6566 -0.1077  1.4856
  208MOL0     H28023   1.845   4.547   5.265 -0.6448 -0.7880 -0.6345
  208MOL0     H28024   1.760   4.457   5.144  0.0217  0.7965 -2.8853
  208MOL0     H28025   1.860   4.573   4.952 -0.6386  0.3287  0.1541
  208MOL0     H28026   1.916   4.694   5.057  0.4607 -0.1750 -0.1473
  208MOL0     H28027   2.020   4.394   5.083 -0.4320 -0.6291 -2.1636
  208MOL0     H28028   2.066   4.540   5.166 -3.0806  1.4697  0.1543
  208MOL0     H28029   2.088   4.473   4.872 -1.1587 -0.0447  0.7294
  208MOL0     H28030   2.136   4.633   4.933 -0.6480  0.4678  0.7482
  208MOL0     H28031   2.372   4.650   5.061 -0.8188  0.6135 -0.6006
  208MOL0     H28032   2.574   4.558   5.220  3.4579 -2.6155  2.0842
  208MOL0     H28033   2.626   4.383   5.186  0.1976 -1.1244 -1.2239
  208MOL0     H28034   2.659   4.494   4.943  2.3320 -2.3200  0.1910
  208MOL0     H28035   2.634   4.644   5.038 -3.4633 -0.2989 -0.9507
  208MOL0     H28036   2.845   4.551   5.181  1.4090 -0.2043 -0.6955
  208MOL0     H28037   2.876   4.621   5.023 -0.2564  0.2501  1.1479
  208MOL0     H28038   2.931   4.400   4.936 -0.6480  0.9735 -0.4193
  208MOL0     H28039   2.844   4.329   5.081  0.5979  1.1516  3.5290
  208MOL0     H28040   3.117   4.450   4.873  0.2692 -1.7147 -1.0625
  208MOL0     H28041   3.363   4.454   4.820  2.2541 -0.4359  0.5613
  208MOL0     H28042   3.808   4.229   5.223  0.0948 -0.6955 -1.0675
  208MOL0     H28043   4.055   4.251   5.247 -0.2706  0.9610 -0.4209
  208MOL0     H28044   4.256   4.423   5.284  3.2165  0.5648  0.8867
  208MOL0     H28045   4.267   4.253   5.213 -2.2714  0.5496 -0.9706
  208MOL0     H28046   4.503   4.337   5.249  1.4668  0.1610 -0.4513
  208MOL0     H28047   4.472   4.340   5.078  2.5274 -2.6134  1.3216
  208MOL0     H28048   4.411   4.602   5.129  1.6663  0.6219 -1.3718
  208MOL0     H28049   4.466   4.564   5.287 -1.3249 -2.5067  0.4750
  208MOL0     H28050   4.639   4.673   5.140 -1.9528 -0.1428 -2.9540
  208MOL0     H28051   4.647   4.528   5.037  1.0037  2.3251 -1.6275
  208MOL0     H28052   4.726   4.382   5.222  0.6083  0.1120  2.7703
  208MOL0     H28053   4.723   4.518   5.331 -1.1730 -0.4161  0.2173
  208MOL0     H28054   4.870   4.476   5.070  1.8201  1.9197 -1.5993
  208MOL0     H28055   4.879   4.633   5.158  1.7997 -0.0213  1.3225
  208MOL0     H28056   4.960   4.371   5.269 -2.4018 -0.3807 -1.5090
  208MOL0     H28057   4.950   4.515   5.374 -0.0036  1.7693 -0.6000
  208MOL0     H28058   5.113   4.635   5.223 -3.1130 -0.5929 -0.5613
  208MOL0     H28059   5.179   4.483   5.307 -1.1750 -0.4702  0.9590
  208MOL0     H28060   4.057   4.539   4.933 -0.6889 -0.3312  0.7340
  208MOL0     H28061   3.815   4.516   4.911 -2.3431 -1.9495  0.1779
  208MOL0     H28062   3.451   4.369   5.234 -0.0066  0.6039 -0.9244
  208MOL0     H28063   3.214   4.355   5.281  0.6016  2.2657  0.8165
  208MOL0     H28064   0.975   4.706   5.231  0.5198  0.7910  0.1288
  208MOL0     H28065   0.766   4.605   5.285  1.1424  1.9959 -0.4112
  208MOL0     H28066   0.502   4.146   5.597  0.4984 -1.7042  3.7075
  208MOL0     H28067   0.272   4.143   5.680 -2.8755  1.3059  3.1019
  208MOL0     H28068   0.098   4.195   5.855 -1.7339  0.2720  1.2464
  208MOL0     H28069   0.068   4.179   5.686  0.0565 -2.0644  1.2000
  208MOL0     H28070  -0.094   4.338   5.873  0.6268 -1.1665  1.3106
  208MOL0     H28071  -0.125   4.175   5.821  0.9319  0.7815 -1.1675
  208MOL0     H28072  -0.138   4.257   5.570  0.4549 -0.7805 -0.7987
  208MOL0     H28073  -0.116   4.419   5.644 -0.5882 -0.1318  0.4974
  208MOL0     H28074  -0.357   4.234   5.710  1.6438  0.0490  1.7145
  208MOL0     H28075  -0.332   4.403   5.752  1.5933  0.5775  0.2080
  208MOL0     H28076  -0.463   4.414   5.352 -0.0550 -1.8031 -1.4365
  208MOL0     H28077   0.296   4.558   5.745  0.3476  0.0827 -0.9893
  208MOL0     H28078   0.554   4.636   5.768  0.9952  0.6987 -0.3896
  208MOL0     H28079   0.663   4.577   5.644  0.3798  1.2138  0.0271
  208MOL0     H28080   0.508   4.669   5.600 -0.8698 -0.0804  0.2962
  209MOL0     O28081   3.279   8.781   6.625 -0.0001  0.2280  0.5285
  209MOL0     C28082   3.367   8.746   6.548  0.0832 -0.2276 -0.3235
  209MOL0     O28083   3.376   8.779   6.415 -0.3505  0.1282  0.0021
  209MOL0     C28084   3.266   8.825   6.346  0.3925  0.0382 -0.5073
  209MOL0     C28085   3.289   8.909   6.237 -0.1357  0.4789 -0.0718
  209MOL0     C28086   3.183   8.966   6.162 -0.8938  0.0178  0.5082
  209MOL0     C28087   3.056   8.930   6.187  0.1437  0.7364 -0.4121
  209MOL0     O28088   2.960   8.987   6.109 -0.3665 -0.1516 -0.0758
  209MOL0     C28089   2.831   8.926   6.115  0.6658  0.1023 -0.7568
  209MOL0     C28090   2.744   8.978   6.015  0.6914  0.0543  0.6078
  209MOL0     C28091   2.609   8.913   6.042 -0.4401  0.0625 -0.5952
  209MOL0     C28092   2.502   8.932   5.931 -0.2793 -0.3330 -0.0001
  209MOL0     C28093   2.373   8.859   5.946  0.1344 -0.4706  0.0807
  209MOL0     C28094   2.395   8.708   5.935 -0.3735  0.0142  0.3165
  209MOL0     C28095   2.265   8.643   5.905 -0.3897 -0.2266 -0.5007
  209MOL0     C28096   2.222   8.643   5.759  0.2521 -0.1325  0.5059
  209MOL0     N28097   2.279   8.555   5.657 -1.3417  0.0876  0.6463
  209MOL0     C28098   2.300   8.416   5.670  0.2921  1.2960 -0.6180
  209MOL0     C28099   2.354   8.375   5.555 -0.5994  0.0543 -0.1460
  209MOL0     C28100   2.416   8.242   5.526  0.5219  0.5417  0.2816
  209MOL0     C28101   2.567   8.255   5.562 -0.0121  0.6064  0.1825
  209MOL0     C28102   2.642   8.127   5.518  0.8664 -0.0939  0.1903
  209MOL0     C28103   2.795   8.139   5.528 -0.0087 -0.1639  0.4888
  209MOL0     O28104   2.856   8.219   5.428  0.4994  0.1739 -0.2653
  209MOL0     C28105   2.991   8.224   5.418  1.0475  0.0560  0.2688
  209MOL0     C28106   3.032   8.300   5.307 -0.0295  0.5555  0.2024
  209MOL0     C28107   3.171   8.296   5.272 -0.2173  0.1318  0.3893
  209MOL0     C28108   3.260   8.221   5.341 -0.1173 -0.8819 -0.3129
  209MOL0     C28109   3.399   8.213   5.304 -0.0229  0.2329 -0.3044
  209MOL0     O28110   3.433   8.231   5.173  0.8938 -0.4067 -0.9725
  209MOL0     C28111   3.561   8.252   5.150  0.8570 -0.1170  0.3102
  209MOL0     C28112   3.614   8.382   5.146  1.0330 -0.1373 -0.0669
  209MOL0     C28113   3.751   8.407   5.119 -0.1222 -0.2604 -0.7795
  209MOL0     C28114   3.836   8.307   5.091 -0.2567  0.5854 -0.0427
  209MOL0     O28115   3.973   8.314   5.063  0.0958 -0.2411  0.1901
  209MOL0     C28116   4.031   8.429   5.127  0.3965 -0.6427  1.2321
  209MOL0     C28117   4.171   8.460   5.068 -0.1678 -0.1466  1.0723
  209MOL0     C28118   4.250   8.566   5.150 -0.2016  0.5983  0.3536
  209MOL0     C28119   4.385   8.599   5.089 -0.1828  0.4170 -0.3155
  209MOL0     C28120   4.439   8.723   5.164  0.6822 -1.0022 -0.8594
  209MOL0     C28121   4.572   8.756   5.112 -0.5162  0.5946  0.2299
  209MOL0     C28122   4.647   8.881   5.186  0.1176  0.8622  0.5544
  209MOL0     C28123   4.775   8.917   5.106  0.0978 -0.1922  1.1270
  209MOL0    Cl28124   4.733   9.010   4.959  0.2440  0.0652 -0.1538
  209MOL0     C28125   3.782   8.178   5.096 -0.0183  1.0042 -0.1952
  209MOL0     C28126   3.646   8.153   5.124 -0.4954  0.9537 -0.6020
  209MOL0     O28127   3.487   8.204   5.394  0.2448 -0.9829 -0.4715
  209MOL0     C28128   3.221   8.149   5.454 -0.3037  0.2553  0.2672
  209MOL0     C28129   3.083   8.152   5.494 -1.2859  0.7346  0.8025
  209MOL0     N28130   2.361   8.493   5.475 -0.1585 -0.0404 -0.9754
  209MOL0     N28131   2.310   8.597   5.534 -0.4069  0.4354 -0.2115
  209MOL0     C28132   3.030   8.835   6.283 -0.4261 -0.3570 -0.2404
  209MOL0     C28133   3.130   8.794   6.370  0.6848  0.6965 -0.1104
  209MOL0     C28134   3.486   8.666   6.603 -0.0412 -0.3261  0.5326
  209MOL0     C28135   3.620   8.702   6.579 -0.1524  0.8069 -0.5521
  209MOL0     C28136   3.730   8.618   6.615 -0.1390  0.5853 -0.1024
  209MOL0     C28137   3.709   8.495   6.679 -0.3655  0.5567  0.3500
  209MOL0     O28138   3.804   8.408   6.720  0.0722 -0.0527  0.5216
  209MOL0     C28139   3.941   8.455   6.743 -0.0314  0.1648  0.1016
  209MOL0     C28140   4.003   8.357   6.839  0.0607  0.2986  0.3236
  209MOL0     C28141   3.919   8.339   6.970 -0.4861 -0.5120 -0.3099
  209MOL0     C28142   3.920   8.191   7.031 -0.0523 -0.5583  0.7299
  209MOL0     C28143   4.058   8.134   7.044  0.9073  0.4155  0.5319
  209MOL0     C28144   4.158   8.078   7.053 -0.7413  0.0103 -0.0479
  209MOL0     C28145   3.574   8.462   6.701 -1.0020  0.4389  0.6234
  209MOL0     C28146   3.465   8.546   6.668  0.0776 -0.0389 -0.2023
  209MOL0     C28147   3.325   8.495   6.693 -0.5720  0.9336 -0.4760
  209MOL0     H28148   3.393   8.932   6.219  0.0990 -1.0640 -0.9344
  209MOL0     H28149   3.203   9.041   6.086 -0.4805 -1.1207 -0.5313
  209MOL0     H28150   2.843   8.824   6.079  2.0955  0.8328 -2.4626
  209MOL0     H28151   2.780   8.931   6.212  2.3064 -1.5581  0.2541
  209MOL0     H28152   2.781   8.946   5.917  2.2230  1.6743  0.6152
  209MOL0     H28153   2.743   9.087   6.012 -1.6161  0.0939  0.8968
  209MOL0     H28154   2.569   8.952   6.136  0.6999 -0.9018  0.3170
  209MOL0     H28155   2.630   8.807   6.062  1.5856  0.7886  1.5061
  209MOL0     H28156   2.471   9.036   5.924 -1.1790 -0.5616  0.4765
  209MOL0     H28157   2.552   8.910   5.836 -1.2707  0.2850 -0.6785
  209MOL0     H28158   2.324   8.881   6.042  1.3916 -1.4233  0.9790
  209MOL0     H28159   2.299   8.892   5.873 -2.6387 -1.6288  2.1843
  209MOL0     H28160   2.473   8.679   5.864 -0.1409  1.1510  0.0893
  209MOL0     H28161   2.434   8.667   6.028 -1.5841 -1.2801  0.2868
  209MOL0     H28162   2.177   8.688   5.952 -0.4018 -0.6992 -0.0640
  209MOL0     H28163   2.268   8.538   5.935  0.5014 -0.0939 -0.1124
  209MOL0     H28164   2.117   8.614   5.748  0.2127  0.1818  0.0071
  209MOL0     H28165   2.214   8.746   5.722 -1.7415 -0.5331 -0.2987
  209MOL0     H28166   2.291   8.351   5.756 -1.4095  0.6636 -1.2286
  209MOL0     H28167   2.371   8.162   5.587 -0.5370  1.0203  0.1522
  209MOL0     H28168   2.403   8.211   5.422  0.1786  2.5066 -0.2907
  209MOL0     H28169   2.608   8.334   5.499 -0.2312  0.7301  0.1945
  209MOL0     H28170   2.577   8.282   5.668 -2.7967  3.4646 -0.1325
  209MOL0     H28171   2.608   8.105   5.416  0.7314  0.8115  0.0377
  209MOL0     H28172   2.601   8.042   5.574  0.4884 -0.2358 -0.2922
  209MOL0     H28173   2.839   8.039   5.517  1.2845 -0.0813  3.8352
  209MOL0     H28174   2.814   8.170   5.631 -0.4798 -1.6320  1.0470
  209MOL0     H28175   2.963   8.367   5.257  0.6827  1.3410  0.2394
  209MOL0     H28176   3.206   8.353   5.187  0.8639  0.4295  1.0240
  209MOL0     H28177   3.544   8.459   5.177  1.4024  0.9053 -1.7354
  209MOL0     H28178   3.776   8.513   5.116 -0.4569 -0.1816 -0.8356
  209MOL0     H28179   3.972   8.516   5.096  2.2514 -0.5256 -2.6249
  209MOL0     H28180   4.052   8.420   5.234 -1.7759 -2.1634  1.5847
  209MOL0     H28181   4.232   8.369   5.072  0.7241  0.4658  3.5389
  209MOL0     H28182   4.168   8.500   4.966  1.1788  1.9965  1.7981
  209MOL0     H28183   4.189   8.654   5.172  0.2425  0.9213  0.3020
  209MOL0     H28184   4.272   8.516   5.245  0.9817  1.0953  0.3593
  209MOL0     H28185   4.366   8.624   4.984  2.6317  3.9708 -0.1366
  209MOL0     H28186   4.441   8.509   5.117 -2.5605 -0.4578  2.0839
  209MOL0     H28187   4.436   8.711   5.273  1.2256  1.3347 -0.5488
  209MOL0     H28188   4.376   8.809   5.140  4.0828  2.5038  1.5211
  209MOL0     H28189   4.626   8.662   5.125  0.9188  1.3040 -0.2512
  209MOL0     H28190   4.550   8.779   5.007 -0.6286  1.2247  0.3867
  209MOL0     H28191   4.666   8.853   5.290  0.3170 -0.1849  0.2497
  209MOL0     H28192   4.581   8.968   5.177 -0.8911  0.0090 -0.5324
  209MOL0     H28193   4.843   8.972   5.172  0.6540 -0.0117  0.4184
  209MOL0     H28194   4.832   8.827   5.083  0.3685  0.0268  0.9295
  209MOL0     H28195   3.842   8.091   5.071 -0.2096 -2.0938  7.5592
  209MOL0     H28196   3.601   8.054   5.133  0.4103  0.3800 -2.0519
  209MOL0     H28197   3.294   8.087   5.506 -0.4734 -0.8971 -0.8334
  209MOL0     H28198   3.060   8.087   5.577 -1.1526 -1.7040 -0.9684
  209MOL0     H28199   2.930   8.794   6.298 -1.0194  0.5705 -1.4882
  209MOL0     H28200   3.103   8.730   6.454  2.7874  2.9565  2.4722
  209MOL0     H28201   3.643   8.798   6.533  2.1394 -0.8682 -3.2842
  209MOL0     H28202   3.828   8.662   6.599 -0.6593  1.4914 -0.9019
  209MOL0     H28203   3.931   8.553   6.789 -2.1959 -0.5495  1.3197
  209MOL0     H28204   3.988   8.465   6.645 -1.3660 -0.5082 -0.6421
  209MOL0     H28205   4.107   8.386   6.859  0.5201 -0.5568 -0.7155
  209MOL0     H28206   4.006   8.261   6.787 -2.0469 -0.5154  1.5699
  209MOL0     H28207   3.816   8.352   6.935 -0.5074 -0.9091 -0.3978
  209MOL0     H28208   3.957   8.412   7.042 -0.9848 -1.6627  1.1510
  209MOL0     H28209   3.879   8.179   7.132  0.1873  0.6740  0.9940
  209MOL0     H28210   3.863   8.131   6.960 -0.7540 -0.2043  0.9816
  209MOL0     H28211   4.256   8.035   7.050 -0.2420  1.1701 -1.2079
  209MOL0     H28212   3.554   8.365   6.747  0.3272  0.0391  0.4056
  209MOL0     H28213   3.276   8.462   6.600  1.3657 -1.5541 -0.7076
  209MOL0     H28214   3.318   8.410   6.762 -0.3597  0.5521 -0.9134
  209MOL0     H28215   3.266   8.574   6.740  0.1139  2.1064 -1.5338
  210MOL0     O28216   8.444   4.311   1.262 -0.5529 -0.2671  0.2345
  210MOL0     C28217   8.369   4.242   1.194  0.0978 -0.8151 -1.1257
  210MOL0     O28218   8.400   4.126   1.132 -0.1661  0.4270 -0.1378
  210MOL0     C28219   8.536   4.083   1.139  0.0559 -0.5775  0.6939
  210MOL0     C28220   8.638   4.162   1.085  0.4858  0.3850 -0.4602
  210MOL0     C28221   8.767   4.109   1.065  0.2389  0.0381  0.4438
  210MOL0     C28222   8.794   3.974   1.118 -0.6573  0.0233  0.5191
  210MOL0     O28223   8.925   3.921   1.130  1.2330 -0.6615 -0.1231
  210MOL0     C28224   8.946   3.786   1.138 -0.9455  0.8848  0.7754
  210MOL0     C28225   9.089   3.764   1.140 -0.1123  0.4330 -0.3632
  210MOL0     C28226   9.107   3.615   1.160 -0.8423 -0.1298  0.0611
  210MOL0     C28227   9.255   3.569   1.174 -0.1853  0.5236 -0.5001
  210MOL0     C28228   9.280   3.409   1.186  0.1441 -0.1754  0.3619
  210MOL0     C28229   9.189   3.334   1.274 -0.0405  0.4468  0.1805
  210MOL0     C28230   9.258   3.222   1.351  0.1128 -0.1115  0.3970
  210MOL0     C28231   9.314   3.119   1.252  1.0067 -0.3250 -0.0363
  210MOL0     N28232   9.406   3.032   1.334  0.3582 -0.4872  0.4997
  210MOL0     C28233   9.539   3.054   1.357 -0.1255 -1.3971 -0.8670
  210MOL0     C28234   9.573   2.959   1.445 -0.9265 -0.5116  0.5117
  210MOL0     C28235   9.719   2.943   1.483  0.4068 -0.6294 -0.6256
  210MOL0     C28236   9.758   2.815   1.538 -0.1772 -0.0829 -0.9777
  210MOL0     C28237   9.700   2.793   1.676 -0.6430  0.7365 -0.7113
  210MOL0     C28238   9.772   2.878   1.781  0.4591 -0.3539 -0.4961
  210MOL0     O28239   9.752   2.823   1.910 -0.3832 -0.6080 -0.0649
  210MOL0     C28240   9.851   2.761   1.973 -0.5928 -0.5328  0.0280
  210MOL0     C28241   9.943   2.835   2.041 -0.1201 -1.0507 -0.0610
  210MOL0     C28242  10.050   2.776   2.106  0.6622  1.0733 -0.5988
  210MOL0     C28243  10.072   2.638   2.084 -0.8062  0.2356 -0.3828
  210MOL0     C28244  10.180   2.565   2.156 -0.0095 -0.5140 -0.1956
  210MOL0     O28245  10.178   2.427   2.166 -0.0619  0.7845 -0.0681
  210MOL0     C28246  10.271   2.375   2.248 -0.1042  0.4980 -0.1958
  210MOL0     C28247  10.380   2.314   2.188  0.2452 -0.6079 -0.1850
  210MOL0     C28248  10.490   2.271   2.262  0.6489 -0.9225 -0.1528
  210MOL0     C28249  10.487   2.282   2.402  0.0919  0.0188  0.0208
  210MOL0     O28250  10.589   2.243   2.483 -0.3913 -0.1615  0.0306
  210MOL0     C28251  10.672   2.136   2.452  0.1677 -0.5762  0.4596
  210MOL0     C28252  10.762   2.118   2.572 -0.5665 -0.3726 -0.5018
  210MOL0     C28253  10.819   1.978   2.560 -0.5425 -0.3922  0.0009
  210MOL0     C28254  10.915   1.959   2.675  0.6114 -0.1074  1.1973
  210MOL0     C28255  10.986   1.827   2.649 -0.1318  0.1402 -0.8898
  210MOL0     C28256  11.058   1.771   2.779 -1.3504  0.0427  0.5072
  210MOL0     C28257  11.162   1.660   2.748 -0.3986  0.8134  0.0509
  210MOL0     C28258  11.300   1.730   2.716 -0.4366  0.3754  0.1121
  210MOL0    Cl28259  11.426   1.613   2.664 -0.0946  0.1731  0.0694
  210MOL0     C28260  10.367   2.344   2.459  0.0883 -0.1680 -0.2159
  210MOL0     C28261  10.258   2.387   2.385  0.0323  0.0863 -0.6988
  210MOL0     O28262  10.275   2.635   2.193  1.2795  0.1866 -0.1017
  210MOL0     C28263   9.985   2.561   2.005 -0.7263 -0.2368  0.0034
  210MOL0     C28264   9.875   2.628   1.953 -0.7759  0.2027  0.8169
  210MOL0     N28265   9.465   2.873   1.462 -0.8233 -0.5423 -0.1767
  210MOL0     N28266   9.366   2.926   1.406 -0.9593  0.8523 -0.0175
  210MOL0     C28267   8.683   3.902   1.171  0.0963 -0.5422  0.3902
  210MOL0     C28268   8.553   3.955   1.187 -0.2065  0.0293 -0.1483
  210MOL0     C28269   8.233   4.279   1.200  0.0440  0.5591  0.2019
  210MOL0     C28270   8.188   4.344   1.315 -0.5450 -0.9023  0.8335
  210MOL0     C28271   8.061   4.386   1.330  0.7597 -0.1835 -0.5505
  210MOL0     C28272   7.962   4.359   1.238 -0.3876  0.3436 -0.6951
  210MOL0     O28273   7.832   4.401   1.271 -0.6302 -0.3865 -0.6443
  210MOL0     C28274   7.725   4.367   1.178 -0.1218  1.1266 -0.0466
  210MOL0     C28275   7.665   4.227   1.218 -0.3289  0.1645  0.2027
  210MOL0     C28276   7.611   4.225   1.361 -0.3734 -0.4127 -0.6001
  210MOL0     C28277   7.602   4.087   1.424 -0.1705 -0.6666  1.2563
  210MOL0     C28278   7.504   3.996   1.364  0.2007  0.2321  1.8563
  210MOL0     C28279   7.424   3.934   1.303  0.9452 -0.0467 -0.8953
  210MOL0     C28280   8.005   4.292   1.122  1.1575  0.1427  0.9740
  210MOL0     C28281   8.142   4.254   1.104 -0.4794  0.9052  1.0178
  210MOL0     C28282   8.181   4.197   0.969  0.1939  0.3584  0.1880
  210MOL0     H28283   8.614   4.261   1.046  0.5655  0.6469  0.1404
  210MOL0     H28284   8.846   4.157   1.007 -0.9106  1.4342 -0.0316
  210MOL0     H28285   8.897   3.743   1.226  0.6309 -2.1768  0.3058
  210MOL0     H28286   8.901   3.736   1.052 -2.4826  1.6994  1.0529
  210MOL0     H28287   9.140   3.825   1.216 -0.0171  2.0417 -1.6592
  210MOL0     H28288   9.135   3.791   1.045 -0.0633  1.1148 -0.1556
  210MOL0     H28289   9.066   3.566   1.071  0.3821 -0.6208 -0.2422
  210MOL0     H28290   9.055   3.594   1.254  0.0814 -0.5057  0.4946
  210MOL0     H28291   9.320   3.610   1.096  0.1605  1.8661  0.4476
  210MOL0     H28292   9.290   3.618   1.265  0.4841 -0.2025 -0.3557
  210MOL0     H28293   9.282   3.376   1.082  2.0586  0.6427  0.0837
  210MOL0     H28294   9.378   3.382   1.226 -0.3486 -1.1420  0.9565
  210MOL0     H28295   9.149   3.403   1.350  0.1732  1.8982 -0.9916
  210MOL0     H28296   9.104   3.288   1.223 -0.7190  0.5718  1.1616
  210MOL0     H28297   9.186   3.189   1.426  0.3943  0.5208  0.9523
  210MOL0     H28298   9.350   3.262   1.394  1.2083 -1.6236 -0.4309
  210MOL0     H28299   9.231   3.063   1.208  1.6093 -0.4339 -1.0459
  210MOL0     H28300   9.368   3.164   1.169  1.0788  1.7687  1.0779
  210MOL0     H28301   9.599   3.135   1.317 -0.5198 -0.7054 -0.0901
  210MOL0     H28302   9.784   2.952   1.395  2.5954 -0.0524  0.9437
  210MOL0     H28303   9.749   3.021   1.553 -2.1981  0.4851 -0.6494
  210MOL0     H28304   9.727   2.737   1.467  3.5536  0.1130 -3.1074
  210MOL0     H28305   9.867   2.802   1.542  0.0113  0.4147 -3.1944
  210MOL0     H28306   9.722   2.688   1.699  1.5265  0.7060 -2.5862
  210MOL0     H28307   9.593   2.813   1.677 -0.4021  2.1632 -1.2038
  210MOL0     H28308   9.721   2.974   1.789 -0.6407 -0.8441 -1.2985
  210MOL0     H28309   9.877   2.891   1.755  0.8603  1.6165  1.7573
  210MOL0     H28310   9.918   2.939   2.059  1.2116 -0.8706  0.8899
  210MOL0     H28311  10.114   2.829   2.176 -0.0060  1.1725 -0.0474
  210MOL0     H28312  10.389   2.313   2.080  0.8616 -1.2850 -0.1310
  210MOL0     H28313  10.581   2.243   2.209  0.5095  1.0523 -1.5592
  210MOL0     H28314  10.618   2.043   2.430 -0.2730 -0.3813  0.7124
  210MOL0     H28315  10.744   2.162   2.373  0.1021  0.2266  0.6558
  210MOL0     H28316  10.837   2.198   2.578 -1.9110  0.8949  0.0151
  210MOL0     H28317  10.698   2.117   2.661 -0.4377  1.6726 -0.3344
  210MOL0     H28318  10.734   1.908   2.564 -0.2696 -1.3551 -4.7926
  210MOL0     H28319  10.870   1.961   2.465  3.1497  1.7444  1.4327
  210MOL0     H28320  10.854   1.954   2.767 -2.1561  0.1487 -0.5007
  210MOL0     H28321  10.987   2.041   2.677 -0.4471  0.9133 -0.2710
  210MOL0     H28322  11.067   1.835   2.575  0.4372 -3.6980 -0.8771
  210MOL0     H28323  10.916   1.752   2.611  0.2807 -0.7390  0.0228
  210MOL0     H28324  11.114   1.856   2.821  4.7189 -2.0744 -2.1856
  210MOL0     H28325  10.982   1.749   2.855 -0.4347  0.6199  1.6242
  210MOL0     H28326  11.131   1.597   2.665 -0.1515 -1.1846  1.4031
  210MOL0     H28327  11.195   1.589   2.824  0.9408  0.4207 -0.8672
  210MOL0     H28328  11.296   1.803   2.634 -0.2194 -2.1979 -2.3464
  210MOL0     H28329  11.335   1.779   2.807 -1.6622  1.5115  0.0156
  210MOL0     H28330  10.379   2.363   2.565 -0.5065 -1.5516  0.1182
  210MOL0     H28331  10.171   2.430   2.434  1.5890  1.5159  0.9531
  210MOL0     H28332   9.993   2.456   1.979  0.7023 -0.2118  0.2566
  210MOL0     H28333   9.798   2.587   1.889 -2.1573  3.7734 -0.0739
  210MOL0     H28334   8.703   3.802   1.210  0.1230 -0.5057  0.4709
  210MOL0     H28335   8.480   3.897   1.243 -0.1145  0.6302  0.6154
  210MOL0     H28336   8.257   4.368   1.395 -0.9540  2.6365  0.2633
  210MOL0     H28337   8.036   4.443   1.418  0.5632 -0.4282 -0.4492
  210MOL0     H28338   7.759   4.365   1.074  0.0304 -2.0442 -0.0247
  210MOL0     H28339   7.642   4.436   1.190 -0.6924  0.9604 -2.4703
  210MOL0     H28340   7.744   4.152   1.209  0.0776  0.5846  0.2570
  210MOL0     H28341   7.583   4.215   1.147 -0.7712  0.3183  0.6789
  210MOL0     H28342   7.514   4.274   1.373  0.0153 -0.1768  2.3760
  210MOL0     H28343   7.684   4.280   1.422 -1.1377 -0.5001  0.4278
  210MOL0     H28344   7.707   4.058   1.420  1.3895  4.1589 -1.5363
  210MOL0     H28345   7.576   4.093   1.530 -0.9132 -2.3801  1.1987
  210MOL0     H28346   7.353   3.878   1.244  1.0800 -0.9789 -0.1905
  210MOL0     H28347   7.937   4.274   1.039  2.1111  0.5338  0.0799
  210MOL0     H28348   8.218   4.094   0.964  0.1409  0.3869 -3.7830
  210MOL0     H28349   8.091   4.197   0.908  0.8876  1.2038 -0.8557
  210MOL0     H28350   8.259   4.261   0.927  0.1252  0.8312  0.7678
  211MOL0     O28351  10.580   6.055   6.288 -0.7900  0.2506  0.6218
  211MOL0     C28352  10.464   6.083   6.272 -0.1638 -0.2896  1.2563
  211MOL0     O28353  10.396   6.181   6.338  0.3244 -0.1602 -0.1128
  211MOL0     C28354  10.470   6.248   6.429  0.7126  1.3851  0.9265
  211MOL0     C28355  10.491   6.189   6.553 -0.2990  0.2563  0.4088
  211MOL0     C28356  10.559   6.266   6.644 -0.5863  0.0865 -1.2655
  211MOL0     C28357  10.595   6.399   6.634 -0.2662  0.2732  0.9124
  211MOL0     O28358  10.661   6.490   6.723 -0.3737  0.3729 -0.7953
  211MOL0     C28359  10.709   6.429   6.845  0.0744  0.4914 -0.1391
  211MOL0     C28360  10.755   6.549   6.922  0.6044  0.0610  0.7496
  211MOL0     C28361  10.856   6.517   7.029 -0.7222 -0.7604  0.7179
  211MOL0     C28362  10.978   6.617   7.017  0.4467 -0.7915  0.3228
  211MOL0     C28363  11.058   6.613   7.147  0.3980  0.7351  0.1669
  211MOL0     C28364  11.189   6.707   7.150  0.4935 -0.6323  0.4859
  211MOL0     C28365  11.281   6.671   7.264  0.2375  1.1899 -0.3407
  211MOL0     C28366  11.383   6.779   7.297 -0.2486  0.6833  0.0954
  211MOL0     N28367  11.483   6.729   7.387 -1.6729 -0.3424 -0.2215
  211MOL0     C28368  11.488   6.609   7.458  0.5160  0.0220 -0.1861
  211MOL0     C28369  11.603   6.624   7.527  0.6446 -0.8427 -0.0848
  211MOL0     C28370  11.667   6.522   7.625  0.0703  0.8711 -0.4183
  211MOL0     C28371  11.773   6.420   7.554 -0.1440 -0.6300 -0.1209
  211MOL0     C28372  11.744   6.274   7.582  0.6557 -1.0500  0.4988
  211MOL0     C28373  11.720   6.234   7.732  0.1840 -0.0040 -0.3367
  211MOL0     O28374  11.784   6.312   7.839 -0.2372  0.5193 -0.1231
  211MOL0     C28375  11.922   6.319   7.861  0.4222  0.0148  0.3857
  211MOL0     C28376  12.028   6.271   7.782  0.3583  1.2235 -0.7618
  211MOL0     C28377  12.161   6.294   7.817  1.4120 -0.5101 -0.1686
  211MOL0     C28378  12.192   6.375   7.935  0.0720 -0.1765  1.2516
  211MOL0     C28379  12.338   6.411   7.959 -0.1433  0.0465 -0.4691
  211MOL0     O28380  12.355   6.459   8.094 -0.0112  0.4273  0.3546
  211MOL0     C28381  12.472   6.495   8.150  0.2992  0.1189  0.1875
  211MOL0     C28382  12.472   6.572   8.260 -0.4677 -0.4154  0.1722
  211MOL0     C28383  12.586   6.599   8.330 -0.2228  0.4554 -0.2014
  211MOL0     C28384  12.709   6.537   8.297  0.5614 -0.2680 -0.2791
  211MOL0     O28385  12.825   6.556   8.375 -0.3854 -0.1952 -0.0533
  211MOL0     C28386  12.831   6.648   8.481  0.2175 -0.4508 -0.9672
  211MOL0     C28387  12.983   6.676   8.521 -0.6923  0.2495  0.6641
  211MOL0     C28388  13.056   6.547   8.556 -0.3807 -0.1865  0.0881
  211MOL0     C28389  13.209   6.567   8.566  0.1188 -0.2053  0.2639
  211MOL0     C28390  13.276   6.428   8.586 -0.4836 -0.4407 -0.0350
  211MOL0     C28391  13.417   6.437   8.523 -0.0568  0.0866 -0.4824
  211MOL0     C28392  13.512   6.550   8.561 -0.3441  0.1664  0.0933
  211MOL0     C28393  13.658   6.507   8.529 -0.5076  0.2650  0.0348
  211MOL0    Cl28394  13.708   6.408   8.663  0.4530 -0.3547  0.0695
  211MOL0     C28395  12.715   6.470   8.178  0.0353  0.5623  0.5579
  211MOL0     C28396  12.592   6.437   8.108 -0.5360  0.3184  0.2767
  211MOL0     O28397  12.429   6.389   7.876 -0.4375  0.1584 -0.5557
  211MOL0     C28398  12.082   6.414   8.016  0.5924  0.8383 -0.0236
  211MOL0     C28399  11.948   6.388   7.977  0.3664 -0.6285 -0.4669
  211MOL0     N28400  11.666   6.744   7.487 -0.8072  0.2723  0.0261
  211MOL0     N28401  11.592   6.808   7.413 -0.3478 -0.7043 -0.0026
  211MOL0     C28402  10.558   6.456   6.519 -1.1382  0.4924 -0.0197
  211MOL0     C28403  10.506   6.382   6.417  0.2340  0.3694  0.0593
  211MOL0     C28404  10.397   6.003   6.156 -0.5827 -1.1151 -0.1416
  211MOL0     C28405  10.483   5.961   6.052  0.1261  0.9182  0.3463
  211MOL0     C28406  10.429   5.895   5.936 -0.0403 -1.0047 -0.7977
  211MOL0     C28407  10.295   5.880   5.922  0.3225 -0.3368  0.2686
  211MOL0     O28408  10.252   5.822   5.800  0.5746 -0.1029 -0.1848
  211MOL0     C28409  10.110   5.809   5.786 -0.6508 -0.6675  0.2546
  211MOL0     C28410  10.071   5.668   5.837  0.1689 -0.0393  0.1181
  211MOL0     C28411   9.929   5.626   5.801  0.2224  0.3399  0.4835
  211MOL0     C28412   9.900   5.651   5.649  0.2045  0.0723 -0.4359
  211MOL0     C28413   9.772   5.587   5.612 -0.3017  0.2153 -0.2050
  211MOL0     C28414   9.676   5.524   5.570 -0.4444 -1.0947 -0.5634
  211MOL0     C28415  10.202   5.924   6.029 -0.0476 -0.3670 -0.6347
  211MOL0     C28416  10.258   5.993   6.146  0.6743 -0.0223  0.4065
  211MOL0     C28417  10.163   6.040   6.254  0.2626  0.1037  0.4873
  211MOL0     H28418  10.474   6.084   6.576  0.1660  0.3406  1.1553
  211MOL0     H28419  10.592   6.214   6.734 -1.0501  1.8878  0.0046
  211MOL0     H28420  10.634   6.368   6.896  2.4662 -2.3173  0.2552
  211MOL0     H28421  10.796   6.373   6.810 -0.0788  0.4070 -0.3803
  211MOL0     H28422  10.660   6.588   6.961 -0.1360  0.4649 -1.3141
  211MOL0     H28423  10.794   6.626   6.855  0.9388 -0.7445 -0.0031
  211MOL0     H28424  10.910   6.423   7.020  0.9746  0.1354  1.0046
  211MOL0     H28425  10.812   6.522   7.129 -1.4191 -1.2891  0.4435
  211MOL0     H28426  11.032   6.590   6.926 -0.7934  2.2892 -1.5230
  211MOL0     H28427  10.936   6.716   6.996 -1.1182 -1.8396 -2.0091
  211MOL0     H28428  10.997   6.639   7.234  0.4441  1.6553 -0.0712
  211MOL0     H28429  11.093   6.509   7.148 -2.7296 -0.4221 -0.0535
  211MOL0     H28430  11.248   6.699   7.058  0.2463  0.4638  0.2115
  211MOL0     H28431  11.158   6.813   7.152 -1.3912 -0.9808 -2.6520
  211MOL0     H28432  11.339   6.585   7.229  0.4163  1.0347  0.3309
  211MOL0     H28433  11.222   6.653   7.354  0.1740  0.7996 -0.4600
  211MOL0     H28434  11.427   6.821   7.206 -2.0810  0.9846 -0.6850
  211MOL0     H28435  11.328   6.860   7.346  0.2544  3.5713 -3.6793
  211MOL0     H28436  11.419   6.526   7.465  0.9670 -0.2503  1.4469
  211MOL0     H28437  11.723   6.577   7.701 -2.1930  2.3432  0.2709
  211MOL0     H28438  11.591   6.460   7.673  2.4446 -2.0013 -0.0998
  211MOL0     H28439  11.785   6.439   7.447  0.7216  0.6109  0.1769
  211MOL0     H28440  11.867   6.439   7.607 -1.2727  0.2516  1.6661
  211MOL0     H28441  11.816   6.212   7.528  0.5337 -0.0555 -0.8676
  211MOL0     H28442  11.647   6.249   7.538 -0.3953 -1.3774  2.8699
  211MOL0     H28443  11.739   6.126   7.743  0.8364  0.0137 -1.0957
  211MOL0     H28444  11.612   6.246   7.744  0.4476  0.5382  1.9956
  211MOL0     H28445  12.012   6.210   7.693 -2.3260 -2.0547  1.6840
  211MOL0     H28446  12.237   6.258   7.747 -0.3585 -2.1300 -1.3650
  211MOL0     H28447  12.377   6.608   8.299 -0.5893 -0.3889 -0.1481
  211MOL0     H28448  12.573   6.656   8.422 -2.2436  1.0279 -0.8095
  211MOL0     H28449  12.777   6.737   8.446 -0.6962 -1.1084 -1.2649
  211MOL0     H28450  12.774   6.607   8.565 -0.6964  1.2025 -0.7339
  211MOL0     H28451  13.035   6.738   8.447  1.0173 -1.0728  0.6988
  211MOL0     H28452  12.998   6.725   8.618 -0.2848 -1.2592  1.3866
  211MOL0     H28453  13.002   6.504   8.640 -4.1559  0.7607 -1.6676
  211MOL0     H28454  13.044   6.478   8.472  2.1274  0.6758 -1.0722
  211MOL0     H28455  13.227   6.641   8.645  1.0677 -0.8213  0.6408
  211MOL0     H28456  13.250   6.615   8.477  0.1181 -1.4283 -0.4154
  211MOL0     H28457  13.217   6.349   8.539  0.9951 -1.1481 -0.7507
  211MOL0     H28458  13.280   6.395   8.690  0.9903 -1.3634 -0.3452
  211MOL0     H28459  13.458   6.339   8.551 -1.2052 -0.4930 -0.7691
  211MOL0     H28460  13.411   6.448   8.414 -1.6915 -1.9731 -0.6586
  211MOL0     H28461  13.503   6.567   8.669 -0.8522 -1.8720  0.4087
  211MOL0     H28462  13.479   6.645   8.518 -0.4976  0.8226  1.5886
  211MOL0     H28463  13.659   6.435   8.446  1.4786 -2.8011  2.4465
  211MOL0     H28464  13.716   6.598   8.516 -1.2085  0.9837  1.6120
  211MOL0     H28465  12.808   6.415   8.169 -0.2698  0.2982 -1.4408
  211MOL0     H28466  12.601   6.365   8.027 -0.4210 -1.9529  2.2112
  211MOL0     H28467  12.103   6.476   8.103 -0.9973 -0.1678  1.1341
  211MOL0     H28468  11.863   6.409   8.041  0.6972 -0.4303 -0.0859
  211MOL0     H28469  10.571   6.564   6.516 -0.1574  0.3839 -0.1694
  211MOL0     H28470  10.490   6.427   6.320  0.3514 -1.8848 -1.0737
  211MOL0     H28471  10.588   5.981   6.069  1.0187 -3.7799  1.8832
  211MOL0     H28472  10.497   5.864   5.858 -1.7486 -3.7589 -1.3350
  211MOL0     H28473  10.096   5.816   5.678  1.8653  1.3250 -0.0394
  211MOL0     H28474  10.058   5.900   5.818 -0.0758  0.7846 -2.5962
  211MOL0     H28475  10.097   5.661   5.943 -0.2173 -1.7583  0.1259
  211MOL0     H28476  10.130   5.591   5.786  0.0840 -0.0357  0.0148
  211MOL0     H28477   9.852   5.678   5.858 -0.8900 -1.5199  0.7981
  211MOL0     H28478   9.904   5.521   5.820  0.7890 -0.3128 -1.9575
  211MOL0     H28479   9.893   5.759   5.637 -0.2196  0.4494  2.4714
  211MOL0     H28480   9.978   5.606   5.586 -1.6515 -2.7293 -0.9159
  211MOL0     H28481   9.593   5.469   5.532 -0.9435 -0.9470  0.2878
  211MOL0     H28482  10.094   5.920   6.021 -0.0575  0.2020 -0.8293
  211MOL0     H28483  10.147   6.148   6.259 -1.2101 -0.1290  1.8143
  211MOL0     H28484  10.064   5.994   6.243  1.5085 -2.4712 -0.6755
  211MOL0     H28485  10.198   6.004   6.351  0.3682 -1.2394 -0.0300
  212MOL0     O28486   6.168   0.647   4.661  0.5899  0.4754 -0.5861
  212MOL0     C28487   6.125   0.625   4.770  0.7779 -0.0067 -0.4723
  212MOL0     O28488   6.201   0.638   4.884  0.2052  0.8207 -0.0306
  212MOL0     C28489   6.307   0.726   4.877 -0.4067 -0.2284 -0.5913
  212MOL0     C28490   6.288   0.866   4.887  0.2411  0.0983 -0.1690
  212MOL0     C28491   6.396   0.950   4.902  0.3576  0.5124 -0.0977
  212MOL0     C28492   6.529   0.899   4.910 -0.3441  0.3328  1.4383
  212MOL0     O28493   6.639   0.981   4.925 -0.5562  0.3267  0.5421
  212MOL0     C28494   6.644   1.124   4.953  0.4239 -0.1986  0.0933
  212MOL0     C28495   6.613   1.207   4.837 -0.1456  0.1981  0.0895
  212MOL0     C28496   6.723   1.170   4.722  0.6214  0.0498 -0.2226
  212MOL0     C28497   6.729   1.277   4.618 -0.2260  0.2088 -0.0039
  212MOL0     C28498   6.844   1.255   4.520 -0.1155  0.6235  0.0249
  212MOL0     C28499   6.812   1.149   4.417 -0.3667  0.8355  0.3024
  212MOL0     C28500   6.940   1.114   4.334  0.2525 -0.4893  0.3570
  212MOL0     C28501   6.896   1.025   4.228  0.4614 -0.3425 -0.1970
  212MOL0     N28502   6.999   1.004   4.124  0.6448  0.1602  1.0267
  212MOL0     C28503   7.043   1.091   4.045 -0.2778 -0.4415  0.5771
  212MOL0     C28504   7.142   1.029   3.976  0.4063 -0.6550  0.7585
  212MOL0     C28505   7.216   1.097   3.858 -0.2218  1.0952 -0.8192
  212MOL0     C28506   7.365   1.062   3.847  0.0025  0.1680  0.0297
  212MOL0     C28507   7.396   0.910   3.834 -0.0555  0.5547  0.8235
  212MOL0     C28508   7.542   0.902   3.788 -0.4160 -0.8120  0.0408
  212MOL0     O28509   7.610   0.775   3.814  0.2529  0.4527 -0.3543
  212MOL0     C28510   7.739   0.765   3.838 -0.1266  1.0809  0.5927
  212MOL0     C28511   7.831   0.861   3.793 -0.6721  0.2669  0.7170
  212MOL0     C28512   7.966   0.828   3.801  0.3449  0.1887  0.9232
  212MOL0     C28513   8.021   0.708   3.856  0.5811  0.0482 -0.4492
  212MOL0     C28514   8.167   0.682   3.858 -0.1150  0.7209 -0.3540
  212MOL0     O28515   8.208   0.560   3.899  1.2213  0.3066 -1.0634
  212MOL0     C28516   8.332   0.493   3.899  0.0615 -0.7723  0.3065
  212MOL0     C28517   8.449   0.541   3.844 -0.2475 -0.8682  0.3030
  212MOL0     C28518   8.554   0.461   3.815  0.2483 -0.0317 -0.2278
  212MOL0     C28519   8.548   0.321   3.848 -1.0852 -0.5990  0.2406
  212MOL0     O28520   8.648   0.225   3.819 -0.1084  0.2970 -0.3424
  212MOL0     C28521   8.782   0.273   3.804 -0.0408 -0.5899  0.0011
  212MOL0     C28522   8.886   0.165   3.798 -0.5117 -0.7025  0.2241
  212MOL0     C28523   8.913   0.107   3.936 -0.4446  0.3903  0.5139
  212MOL0     C28524   9.049   0.145   3.988 -0.6240 -0.1118  0.1232
  212MOL0     C28525   9.098   0.083   4.125 -0.0316 -0.0044  0.5807
  212MOL0     C28526   9.217   0.151   4.197 -0.3579  0.6302  0.3979
  212MOL0     C28527   9.348   0.145   4.116  0.1267 -0.4683  0.0788
  212MOL0     C28528   9.473   0.174   4.205 -0.1791  0.5274 -1.4276
  212MOL0    Cl28529   9.507   0.020   4.298 -0.0134  0.5719  0.0370
  212MOL0     C28530   8.435   0.271   3.919 -1.0571  0.7597 -0.6309
  212MOL0     C28531   8.323   0.355   3.938  0.2739  0.4263  0.5987
  212MOL0     O28532   8.241   0.753   3.796 -0.4161 -1.3700 -0.2612
  212MOL0     C28533   7.921   0.616   3.908  0.3016  0.4011  0.1191
  212MOL0     C28534   7.786   0.647   3.896 -0.7176 -0.1435  0.5416
  212MOL0     N28535   7.154   0.896   4.003 -0.0693  0.4096 -0.7732
  212MOL0     N28536   7.073   0.885   4.100  0.3765  0.5508 -0.5716
  212MOL0     C28537   6.545   0.764   4.886  0.0711  0.0810 -0.2467
  212MOL0     C28538   6.441   0.677   4.878 -0.0416 -0.5446  0.0480
  212MOL0     C28539   5.990   0.561   4.774  0.3263  0.2784 -0.1082
  212MOL0     C28540   5.941   0.491   4.658 -0.1226 -0.7875 -0.1382
  212MOL0     C28541   5.816   0.442   4.667 -0.1109  0.6404  0.0406
  212MOL0     C28542   5.723   0.453   4.772 -0.7756 -0.7447  0.1812
  212MOL0     O28543   5.603   0.409   4.786 -0.3223  1.2582  0.1973
  212MOL0     C28544   5.563   0.330   4.675 -0.0646 -0.5806  0.6660
  212MOL0     C28545   5.409   0.301   4.692 -0.7111  0.0469  0.5645
  212MOL0     C28546   5.317   0.427   4.686 -0.7827  0.0815  0.1733
  212MOL0     C28547   5.180   0.365   4.696  0.7406 -0.5474  0.1902
  212MOL0     C28548   5.140   0.336   4.835 -0.2029  0.4598 -0.7183
  212MOL0     C28549   5.128   0.299   4.955 -0.5717 -0.0531  0.2852
  212MOL0     C28550   5.771   0.533   4.869 -1.2465  0.0702  0.1275
  212MOL0     C28551   5.903   0.583   4.887  0.2154  0.0670 -0.6134
  212MOL0     C28552   5.918   0.678   5.009 -0.4474  0.2646  1.0919
  212MOL0     H28553   6.189   0.909   4.900 -0.0936 -0.2401 -1.4626
  212MOL0     H28554   6.377   1.052   4.934 -1.0040 -0.8497  4.1369
  212MOL0     H28555   6.576   1.144   5.036  1.1806  3.0350  0.0824
  212MOL0     H28556   6.748   1.145   4.982  0.0723  1.3809  0.2800
  212MOL0     H28557   6.619   1.309   4.875  0.1682 -0.5502  2.1656
  212MOL0     H28558   6.510   1.187   4.807  0.5572 -0.6503 -1.9362
  212MOL0     H28559   6.690   1.078   4.672  2.0096  0.2737 -1.6605
  212MOL0     H28560   6.826   1.152   4.755  0.3621  1.0178  1.1812
  212MOL0     H28561   6.635   1.291   4.564 -1.5958  2.3809  2.7123
  212MOL0     H28562   6.756   1.357   4.688 -1.6632 -1.3382  2.4664
  212MOL0     H28563   6.852   1.355   4.477 -2.5477  0.7509 -0.2847
  212MOL0     H28564   6.937   1.234   4.573 -0.2776  1.7666  0.8096
  212MOL0     H28565   6.779   1.055   4.462 -0.2203  0.6392  0.0134
  212MOL0     H28566   6.731   1.192   4.358 -0.4546  0.8139  0.4070
  212MOL0     H28567   7.013   1.073   4.404  0.9400  2.1993  1.3715
  212MOL0     H28568   6.975   1.211   4.296 -2.9171  0.1095 -1.3881
  212MOL0     H28569   6.866   0.935   4.283  0.8753 -0.8152 -0.7373
  212MOL0     H28570   6.809   1.063   4.173  1.4268 -0.2341 -1.7224
  212MOL0     H28571   7.004   1.190   4.026  1.7783 -0.1239 -2.8462
  212MOL0     H28572   7.167   1.062   3.767 -1.0222 -1.1811  0.3936
  212MOL0     H28573   7.220   1.204   3.878  0.5226  1.1836 -1.4342
  212MOL0     H28574   7.402   1.121   3.763  4.5203 -1.3596  0.6159
  212MOL0     H28575   7.411   1.096   3.940  1.6884 -0.0076 -0.6967
  212MOL0     H28576   7.339   0.878   3.746 -0.5295  1.4307  0.7964
  212MOL0     H28577   7.375   0.840   3.915  1.1344 -0.5307  0.2410
  212MOL0     H28578   7.596   0.985   3.834  1.1685  0.4136 -3.5993
  212MOL0     H28579   7.552   0.922   3.680  2.0851  1.8530  0.6370
  212MOL0     H28580   7.802   0.955   3.747  0.5350  1.8711  3.0266
  212MOL0     H28581   8.031   0.892   3.743 -0.3353 -0.0077 -0.0677
  212MOL0     H28582   8.465   0.645   3.818 -2.1872  0.2177  3.0344
  212MOL0     H28583   8.644   0.508   3.778 -0.5313  0.2444 -1.8562
  212MOL0     H28584   8.789   0.322   3.707 -0.5552 -0.2838  0.1144
  212MOL0     H28585   8.816   0.351   3.873 -1.3345  0.0224 -0.0372
  212MOL0     H28586   8.852   0.088   3.728  1.0943 -0.2451 -1.1118
  212MOL0     H28587   8.979   0.198   3.753 -0.1662 -0.7812  0.8579
  212MOL0     H28588   8.835   0.140   4.006 -3.8425  1.3271 -3.3487
  212MOL0     H28589   8.898  -0.001   3.931  3.0782 -0.2737  1.7090
  212MOL0     H28590   9.059   0.254   3.989 -1.2371 -0.0377  1.9988
  212MOL0     H28591   9.124   0.115   3.914 -1.2217  0.8248 -0.8946
  212MOL0     H28592   9.127  -0.021   4.107  0.3502 -0.0260  1.2815
  212MOL0     H28593   9.005   0.093   4.181 -0.8307  2.6896 -0.9756
  212MOL0     H28594   9.187   0.255   4.218 -3.7120 -0.1113 -0.1453
  212MOL0     H28595   9.238   0.108   4.295  1.7829 -1.9610 -1.0705
  212MOL0     H28596   9.349   0.209   4.028 -0.0256 -1.9471 -1.0354
  212MOL0     H28597   9.366   0.049   4.067 -0.3326 -0.4041 -0.2267
  212MOL0     H28598   9.555   0.194   4.135 -0.3267  1.3889 -1.3723
  212MOL0     H28599   9.471   0.268   4.261  1.6963 -0.4614  0.4349
  212MOL0     H28600   8.428   0.166   3.948 -0.3594  1.3670  1.9749
  212MOL0     H28601   8.227   0.319   3.972  0.9426 -1.8446  0.2948
  212MOL0     H28602   7.950   0.516   3.936 -1.9356  0.0859  1.5555
  212MOL0     H28603   7.711   0.576   3.929 -0.9437 -0.1506  0.0194
  212MOL0     H28604   6.647   0.726   4.892 -0.3052 -1.2308 -1.4600
  212MOL0     H28605   6.452   0.569   4.877 -0.3592 -0.5944 -1.7577
  212MOL0     H28606   6.005   0.486   4.570 -0.5479 -1.2884 -0.4240
  212MOL0     H28607   5.787   0.385   4.579  3.8938 -1.0616 -0.4233
  212MOL0     H28608   5.609   0.234   4.650 -1.5448 -1.6477  1.8016
  212MOL0     H28609   5.576   0.388   4.584 -1.7735 -0.5651  0.3963
  212MOL0     H28610   5.401   0.259   4.793 -1.8794 -0.8797  0.1119
  212MOL0     H28611   5.391   0.232   4.609 -0.7285 -0.3584  0.9009
  212MOL0     H28612   5.332   0.471   4.587 -0.2577  0.3919  0.3857
  212MOL0     H28613   5.348   0.511   4.749  0.0165  0.9106 -1.2730
  212MOL0     H28614   5.114   0.439   4.649  1.1294 -0.8735 -0.8925
  212MOL0     H28615   5.165   0.275   4.636 -2.9522 -1.2122  1.8199
  212MOL0     H28616   5.118   0.275   5.059  1.7029  0.8431  0.7588
  212MOL0     H28617   5.705   0.562   4.950 -2.6042  1.4201 -1.3789
  212MOL0     H28618   5.914   0.631   5.107 -1.2932  3.0612  2.5206
  212MOL0     H28619   6.012   0.734   5.007 -0.2347 -0.1084  0.3565
  212MOL0     H28620   5.834   0.749   5.001  0.4766  1.3070  0.1869
  213MOL0     O28621   9.543   3.538   4.414 -0.4542  0.1107 -0.5261
  213MOL0     C28622   9.583   3.577   4.302 -0.5543  0.7403 -0.8366
  213MOL0     O28623   9.709   3.556   4.248  1.4747 -0.2556 -0.7370
  213MOL0     C28624   9.795   3.467   4.312 -0.2538  0.5021  0.2916
  213MOL0     C28625   9.779   3.328   4.293 -0.9412  0.4817  0.0465
  213MOL0     C28626   9.871   3.241   4.353 -0.0325  0.0332 -0.5184
  213MOL0     C28627   9.982   3.292   4.420 -0.9865 -0.1092 -0.9944
  213MOL0     O28628  10.079   3.201   4.465  0.0718  0.3387  0.1555
  213MOL0     C28629  10.200   3.245   4.529  1.0268 -0.0648 -0.1840
  213MOL0     C28630  10.276   3.116   4.568 -0.4664 -0.8018 -0.3634
  213MOL0     C28631  10.402   3.161   4.641 -0.3091  0.0438  0.3146
  213MOL0     C28632  10.492   3.039   4.691  0.1617 -0.3194  0.3763
  213MOL0     C28633  10.621   3.086   4.753  0.1540  0.0694  0.7655
  213MOL0     C28634  10.717   2.967   4.784 -0.0699  0.2834 -0.4924
  213MOL0     C28635  10.842   3.036   4.842 -0.0616  0.3965  0.5518
  213MOL0     C28636  10.968   2.957   4.852 -0.1032  0.8561 -0.0595
  213MOL0     N28637  11.063   3.055   4.906  0.3130  0.1741  0.6230
  213MOL0     C28638  11.146   3.124   4.821 -0.4037 -0.0103 -0.3779
  213MOL0     C28639  11.250   3.169   4.904 -0.3395 -1.0506 -0.2952
  213MOL0     C28640  11.372   3.249   4.867 -0.9411  0.7323  0.3851
  213MOL0     C28641  11.502   3.179   4.919 -0.2825  0.3074 -0.5498
  213MOL0     C28642  11.637   3.262   4.927 -0.4313 -0.0520 -0.6174
  213MOL0     C28643  11.706   3.261   4.799  0.2428  0.7733 -0.2668
  213MOL0     O28644  11.772   3.130   4.787 -0.0309 -0.1784  1.3053
  213MOL0     C28645  11.909   3.127   4.788  0.3806  0.5420 -0.8085
  213MOL0     C28646  12.001   3.227   4.829 -0.2675  0.2321  0.5766
  213MOL0     C28647  12.136   3.207   4.837 -0.9454  0.2302 -0.2964
  213MOL0     C28648  12.190   3.084   4.809 -0.1775  0.1836 -0.6867
  213MOL0     C28649  12.340   3.059   4.819  0.1371 -0.4057 -0.4288
  213MOL0     O28650  12.375   2.934   4.839 -0.4952  0.2235  0.0742
  213MOL0     C28651  12.507   2.913   4.873 -0.1932  0.6725 -0.8284
  213MOL0     C28652  12.616   2.937   4.785  0.6367 -0.0896 -0.1217
  213MOL0     C28653  12.743   2.897   4.814 -0.4968  0.4960 -0.2389
  213MOL0     C28654  12.779   2.835   4.937 -0.2892  0.0445  0.0158
  213MOL0     O28655  12.907   2.798   4.978 -0.1884 -0.1787  0.5544
  213MOL0     C28656  13.018   2.830   4.895 -0.1862 -0.2075  0.0667
  213MOL0     C28657  13.153   2.817   4.969  0.1175 -0.2997  0.5397
  213MOL0     C28658  13.187   2.674   5.011 -0.0349 -0.2830  0.2272
  213MOL0     C28659  13.325   2.661   5.069 -0.2786  0.0070 -0.2529
  213MOL0     C28660  13.348   2.528   5.147  0.3798 -0.3250  0.5803
  213MOL0     C28661  13.491   2.498   5.180 -0.1430 -0.6261 -0.7637
  213MOL0     C28662  13.508   2.356   5.239  0.0458 -0.0545 -0.2006
  213MOL0     C28663  13.658   2.318   5.269 -0.5618  0.2651 -0.2159
  213MOL0    Cl28664  13.721   2.416   5.400 -0.3785  0.0457 -0.4620
  213MOL0     C28665  12.672   2.804   5.017 -0.7329 -0.0091 -0.4061
  213MOL0     C28666  12.539   2.843   4.991 -0.7205  0.8685 -0.3497
  213MOL0     O28667  12.415   3.158   4.800 -0.0460 -0.4806 -0.1799
  213MOL0     C28668  12.104   2.980   4.779 -0.1739  0.5773 -0.5468
  213MOL0     C28669  11.966   2.995   4.767 -0.6705 -0.0411 -0.3573
  213MOL0     N28670  11.227   3.122   5.028  0.4141  0.4325 -0.3344
  213MOL0     N28671  11.110   3.057   5.041  0.3827  1.0108 -0.3535
  213MOL0     C28672   9.997   3.431   4.433 -0.4946 -0.1125  0.2241
  213MOL0     C28673   9.909   3.520   4.380  0.0380 -0.3630  0.3892
  213MOL0     C28674   9.491   3.650   4.221 -0.2073  0.9056 -0.0176
  213MOL0     C28675   9.519   3.684   4.089 -0.2664  0.0306  0.4302
  213MOL0     C28676   9.430   3.740   4.006 -0.2304  0.0202  0.6514
  213MOL0     C28677   9.310   3.796   4.057  0.1180  0.1290  0.8310
  213MOL0     O28678   9.237   3.874   3.969  0.4077  0.3881  0.4244
  213MOL0     C28679   9.149   3.977   4.014  0.1375 -0.7515 -0.8685
  213MOL0     C28680   9.131   4.071   3.894  0.3083  0.3031  0.3467
  213MOL0     C28681   9.263   4.129   3.838  0.1969 -0.3738 -0.1541
  213MOL0     C28682   9.341   4.205   3.944 -0.4929 -0.0860 -0.5648
  213MOL0     C28683   9.429   4.122   4.034 -0.1762 -0.0845 -0.0440
  213MOL0     C28684   9.516   4.067   4.104 -0.3612  0.3207  0.6920
  213MOL0     C28685   9.282   3.774   4.194 -0.1355  0.0075 -0.0184
  213MOL0     C28686   9.369   3.703   4.269  1.3599  0.5919 -0.2854
  213MOL0     C28687   9.319   3.693   4.420  0.1299  0.4123  0.2198
  213MOL0     H28688   9.698   3.277   4.242  1.0634 -3.0096 -0.0024
  213MOL0     H28689   9.866   3.134   4.337  1.2112  0.1097 -1.5446
  213MOL0     H28690  10.251   3.324   4.473 -0.2507 -0.7930 -2.5224
  213MOL0     H28691  10.170   3.300   4.619  1.0344 -0.4619  0.0648
  213MOL0     H28692  10.312   3.053   4.486  2.4636 -2.9541  2.3037
  213MOL0     H28693  10.219   3.051   4.635  0.7000 -0.3541  1.1316
  213MOL0     H28694  10.372   3.229   4.721  0.2406  0.6240  0.0389
  213MOL0     H28695  10.463   3.214   4.567  0.6541 -0.8212  0.4704
  213MOL0     H28696  10.457   2.973   4.771  1.3700  0.7936  1.8953
  213MOL0     H28697  10.519   2.966   4.614 -1.7294 -0.3233 -0.3430
  213MOL0     H28698  10.675   3.151   4.684  0.0484  1.5781  2.0355
  213MOL0     H28699  10.596   3.128   4.852  2.2367 -0.8407  1.7445
  213MOL0     H28700  10.661   2.900   4.850 -1.8201  0.8096 -1.3640
  213MOL0     H28701  10.747   2.914   4.692  0.8158 -0.6863  0.3228
  213MOL0     H28702  10.821   3.071   4.943 -3.3040  1.8857 -0.5124
  213MOL0     H28703  10.869   3.125   4.784  0.7968 -0.6155 -0.6658
  213MOL0     H28704  10.947   2.872   4.917  0.5144 -1.0349 -2.2050
  213MOL0     H28705  11.002   2.909   4.760  0.6045  0.1708  0.5506
  213MOL0     H28706  11.135   3.138   4.714  0.5195  1.9721 -0.2553
  213MOL0     H28707  11.384   3.245   4.759  1.2467 -1.6706  0.6163
  213MOL0     H28708  11.375   3.355   4.895  3.0297  0.8514  0.1049
  213MOL0     H28709  11.483   3.141   5.020 -1.5569  0.8748 -0.5604
  213MOL0     H28710  11.524   3.088   4.862 -1.0724 -1.7585  2.2291
  213MOL0     H28711  11.693   3.219   5.011  0.9699  2.4045 -0.1914
  213MOL0     H28712  11.630   3.368   4.954 -0.3844 -0.5584  1.6323
  213MOL0     H28713  11.777   3.344   4.800  0.2550  0.7607  1.2593
  213MOL0     H28714  11.634   3.285   4.720  1.3396  0.6038 -1.3647
  213MOL0     H28715  11.971   3.328   4.855 -1.6247  0.0653 -0.2449
  213MOL0     H28716  12.203   3.287   4.866 -2.8265  0.8245  2.8649
  213MOL0     H28717  12.599   2.983   4.689  1.6877 -0.3575 -0.4488
  213MOL0     H28718  12.823   2.928   4.747  2.7167 -2.0790  2.0894
  213MOL0     H28719  13.032   2.765   4.808 -1.5810 -0.9731  0.3815
  213MOL0     H28720  13.005   2.933   4.862 -1.3334  0.6693  2.9229
  213MOL0     H28721  13.242   2.850   4.915  2.4414  1.1296  4.7779
  213MOL0     H28722  13.154   2.893   5.048 -0.6681 -0.9872  1.2281
  213MOL0     H28723  13.114   2.645   5.087 -1.2186 -1.5382 -1.3212
  213MOL0     H28724  13.165   2.591   4.944 -1.2845 -0.4450  0.8061
  213MOL0     H28725  13.356   2.746   5.130 -2.3406  3.6313 -3.7503
  213MOL0     H28726  13.403   2.664   4.993  2.3907  0.8011  2.3502
  213MOL0     H28727  13.302   2.454   5.081  1.0674 -0.4190  0.2066
  213MOL0     H28728  13.292   2.537   5.241 -0.7134  3.0101 -0.2460
  213MOL0     H28729  13.545   2.513   5.086  0.6614 -1.7253 -0.4936
  213MOL0     H28730  13.528   2.570   5.254  0.7844 -0.6278 -1.2198
  213MOL0     H28731  13.465   2.280   5.173 -2.5487 -0.3758  1.6995
  213MOL0     H28732  13.451   2.342   5.332 -1.4363  0.9294 -0.9360
  213MOL0     H28733  13.670   2.219   5.313 -0.5628  0.0615 -0.6775
  213MOL0     H28734  13.722   2.326   5.181 -1.8420 -0.6815 -1.2662
  213MOL0     H28735  12.690   2.740   5.102 -1.0395 -3.0260 -2.4471
  213MOL0     H28736  12.457   2.819   5.056  0.5790 -0.8043  0.7513
  213MOL0     H28737  12.146   2.880   4.786  0.1845  0.6485 -1.5480
  213MOL0     H28738  11.913   2.907   4.734  0.9750 -0.8711 -0.8779
  213MOL0     H28739  10.091   3.464   4.475 -0.8322 -2.4885  3.1273
  213MOL0     H28740   9.922   3.628   4.386  2.4430 -0.6458  1.3731
  213MOL0     H28741   9.621   3.682   4.051  0.1363 -1.8531  1.5002
  213MOL0     H28742   9.452   3.744   3.899 -1.1625 -1.2450  0.3965
  213MOL0     H28743   9.190   4.034   4.098  1.3245  0.5706 -2.2801
  213MOL0     H28744   9.052   3.942   4.050  1.4746 -0.6785  3.3146
  213MOL0     H28745   9.066   4.157   3.915  0.2951  0.6627 -1.0643
  213MOL0     H28746   9.089   4.017   3.810 -1.6433 -0.7807  1.9292
  213MOL0     H28747   9.237   4.207   3.766  1.9883  1.1494  0.7408
  213MOL0     H28748   9.322   4.052   3.789  0.3660 -0.9715  0.9457
  213MOL0     H28749   9.415   4.267   3.893 -0.8635 -1.1574 -2.4880
  213MOL0     H28750   9.277   4.273   4.002  2.7270  1.4952  1.4099
  213MOL0     H28751   9.584   4.028   4.177  3.2376  0.4406 -2.3034
  213MOL0     H28752   9.196   3.831   4.228 -0.5281  1.2073 -2.7254
  213MOL0     H28753   9.220   3.739   4.427  0.9760  2.8181 -2.0983
  213MOL0     H28754   9.308   3.586   4.440  1.5926  0.2924  0.5158
  213MOL0     H28755   9.397   3.735   4.483  0.0501  0.9681 -0.0471
  214MOL0     O28756   1.911  11.085   9.616 -0.2412  0.4571  0.6473
  214MOL0     C28757   1.835  10.994   9.577 -0.7132 -0.4517 -0.0519
  214MOL0     O28758   1.839  10.866   9.627  0.3627 -0.2102 -0.9098
  214MOL0     C28759   1.942  10.850   9.716  0.9482 -0.0626  0.2831
  214MOL0     C28760   1.931  10.871   9.853 -1.0425 -0.0348 -0.8421
  214MOL0     C28761   2.041  10.871   9.937  0.1890 -0.8398  0.4986
  214MOL0     C28762   2.164  10.845   9.873 -0.8497  0.5818  0.0364
  214MOL0     O28763   2.279  10.853   9.946  0.4426 -0.0513  0.2345
  214MOL0     C28764   2.296  10.733  10.025 -0.3924 -1.0012 -0.8574
  214MOL0     C28765   2.424  10.744  10.103  0.1755 -0.0237 -0.5616
  214MOL0     C28766   2.430  10.867  10.205 -0.2386  0.4677 -0.0700
  214MOL0     C28767   2.574  10.897  10.236  0.9735  0.0431  0.2004
  214MOL0     C28768   2.621  10.800  10.344  0.0689 -0.0525 -0.7325
  214MOL0     C28769   2.755  10.841  10.413  0.1805  0.2558 -0.1297
  214MOL0     C28770   2.750  10.784  10.551 -0.1407  0.5644 -0.1591
  214MOL0     C28771   2.870  10.827  10.641  0.8300 -0.5256  0.3718
  214MOL0     N28772   2.851  10.794  10.778  0.9171 -0.2728 -0.4257
  214MOL0     C28773   2.798  10.681  10.829  0.6028  0.4172  0.7197
  214MOL0     C28774   2.819  10.696  10.958  0.6244 -0.0221  0.0777
  214MOL0     C28775   2.775  10.597  11.052 -0.0368  0.3323  0.6377
  214MOL0     C28776   2.877  10.487  11.064  0.1674  0.2706 -0.0087
  214MOL0     C28777   2.862  10.380  10.954  0.5204 -0.1942  0.1002
  214MOL0     C28778   2.979  10.291  10.939  0.7962 -0.2276 -0.0827
  214MOL0     O28779   2.939  10.173  10.867  0.1015  0.6912  0.6984
  214MOL0     C28780   3.044  10.088  10.843  0.2075  0.8287  0.0305
  214MOL0     C28781   3.181  10.117  10.819  0.2563  0.2021 -0.4763
  214MOL0     C28782   3.277  10.021  10.807 -0.2098  0.7222  0.7492
  214MOL0     C28783   3.245   9.891  10.828  0.0498  0.8858 -1.0561
  214MOL0     C28784   3.356   9.790  10.831 -0.2524  1.0502  0.5824
  214MOL0     O28785   3.477   9.847  10.815  0.2569 -0.0430  0.6936
  214MOL0     C28786   3.594   9.781  10.779  0.7823 -0.1413 -0.1640
  214MOL0     C28787   3.621   9.642  10.743  0.4224 -0.0826  0.7490
  214MOL0     C28788   3.751   9.598  10.704 -0.2907 -0.4734 -0.6994
  214MOL0     C28789   3.857   9.693  10.694  0.1293 -1.0461 -0.4004
  214MOL0     O28790   3.988   9.654  10.672 -0.8626  0.0554  0.8550
  214MOL0     C28791   4.091   9.737  10.739  0.2677 -0.3654  0.8099
  214MOL0     C28792   4.210   9.681  10.672 -0.8939 -0.3222 -0.9553
  214MOL0     C28793   4.337   9.740  10.717  0.2801  0.2921 -0.6079
  214MOL0     C28794   4.454   9.652  10.667  0.2115 -0.1709  0.2533
  214MOL0     C28795   4.585   9.679  10.742 -0.8331 -0.6333 -0.3071
  214MOL0     C28796   4.681   9.765  10.652  0.0126  0.4020  0.0880
  214MOL0     C28797   4.832   9.750  10.689  0.5399 -0.0797  0.5572
  214MOL0     C28798   4.915   9.842  10.599 -0.0334  0.4013  0.2690
  214MOL0    Cl28799   5.086   9.825  10.637 -0.2099 -0.3239  0.0088
  214MOL0     C28800   3.825   9.829  10.733 -0.3756  0.5856 -0.4338
  214MOL0     C28801   3.703   9.863  10.767  0.0178 -0.4910  0.1155
  214MOL0     O28802   3.328   9.667  10.838  0.9300 -0.7957  0.3432
  214MOL0     C28803   3.107   9.850  10.853  0.6075 -0.6979  0.8402
  214MOL0     C28804   3.009   9.949  10.860  0.0509 -0.1345  0.4902
  214MOL0     N28805   2.880  10.820  10.985 -0.3281  0.5246  0.2111
  214MOL0     N28806   2.884  10.883  10.875 -0.7267 -0.2848  0.1163
  214MOL0     C28807   2.182  10.819   9.737  0.8727 -0.7151 -0.6188
  214MOL0     C28808   2.062  10.821   9.655 -0.4119  0.6254  0.1194
  214MOL0     C28809   1.733  11.044   9.477  0.3381  0.3725 -0.0442
  214MOL0     C28810   1.687  11.182   9.484  0.0110  0.8063  0.0681
  214MOL0     C28811   1.580  11.223   9.399  0.6723  0.0658 -0.0231
  214MOL0     C28812   1.525  11.136   9.298  0.0959 -0.8320  1.7335
  214MOL0     O28813   1.421  11.164   9.213 -0.5679  0.2572  0.7430
  214MOL0     C28814   1.408  11.302   9.160  0.6502 -0.3685  0.3380
  214MOL0     C28815   1.279  11.302   9.069 -0.6178  0.2821 -0.0484
  214MOL0     C28816   1.161  11.267   9.151  0.4025 -0.0642 -0.2509
  214MOL0     C28817   1.046  11.257   9.054  0.4008 -0.6999  0.1675
  214MOL0     C28818   1.003  11.386   9.001 -0.0971  0.2357 -0.2408
  214MOL0     C28819   0.965  11.495   8.955 -0.8369  0.6371  0.4016
  214MOL0     C28820   1.573  11.002   9.296 -0.1161 -0.3966  0.4092
  214MOL0     C28821   1.672  10.953   9.387  0.2039  0.7924 -0.0251
  214MOL0     C28822   1.696  10.803   9.376  0.1608 -0.5747 -0.1362
  214MOL0     H28823   1.832  10.887   9.894 -1.4301 -4.0711  0.2791
  214MOL0     H28824   2.039  10.888  10.044 -0.0171 -0.9621  0.5133
  214MOL0     H28825   2.204  10.722  10.084 -0.8990  0.0612 -1.4165
  214MOL0     H28826   2.306  10.641   9.967 -0.4016 -0.2944 -2.0068
  214MOL0     H28827   2.511  10.734  10.038 -0.1398 -1.9070 -0.7305
  214MOL0     H28828   2.428  10.651  10.160 -0.5157 -0.2026 -0.7996
  214MOL0     H28829   2.365  10.856  10.292 -0.0164 -2.7952 -0.1860
  214MOL0     H28830   2.389  10.950  10.147 -1.6745 -0.2170 -0.0609
  214MOL0     H28831   2.650  10.884  10.159  2.3688 -0.0347  1.5190
  214MOL0     H28832   2.577  11.001  10.269  3.0203 -0.0674  0.5010
  214MOL0     H28833   2.539  10.792  10.416  2.1072 -1.3738  1.6015
  214MOL0     H28834   2.634  10.698  10.308 -3.6940 -0.5482 -0.9930
  214MOL0     H28835   2.832  10.803  10.344  1.5339  1.0755  0.8801
  214MOL0     H28836   2.769  10.949  10.412  2.8970  0.0579  2.2761
  214MOL0     H28837   2.732  10.676  10.550 -1.1059  0.7118  0.5154
  214MOL0     H28838   2.658  10.805  10.606  0.0359  0.5585  0.1412
  214MOL0     H28839   2.960  10.786  10.594 -1.1751 -2.0098 -2.5273
  214MOL0     H28840   2.872  10.937  10.637  3.1160 -0.5018  0.7304
  214MOL0     H28841   2.751  10.594  10.783 -0.2872  0.3653  1.6702
  214MOL0     H28842   2.761  10.649  11.147 -1.9618 -0.7237  1.0070
  214MOL0     H28843   2.676  10.560  11.023  0.2716  1.1602 -1.6568
  214MOL0     H28844   2.976  10.526  11.039 -0.9366  0.8619 -4.3258
  214MOL0     H28845   2.858  10.438  11.160 -1.0674  0.6357 -0.0570
  214MOL0     H28846   2.827  10.415  10.857  0.9885  1.8111  0.6037
  214MOL0     H28847   2.778  10.322  10.994  1.0596 -0.3233  1.0741
  214MOL0     H28848   3.008  10.255  11.038  0.5188  1.4525  0.6571
  214MOL0     H28849   3.059  10.343  10.884 -0.6653 -1.0016 -3.1495
  214MOL0     H28850   3.214  10.220  10.807 -0.5541  0.2932 -2.3059
  214MOL0     H28851   3.379  10.042  10.776 -0.2213 -2.3939 -1.9586
  214MOL0     H28852   3.538   9.573  10.757 -0.5611  0.3263 -2.2495
  214MOL0     H28853   3.768   9.492  10.696 -1.5423 -0.7093 -0.4766
  214MOL0     H28854   4.087   9.844  10.721  0.5656 -0.4175  0.4040
  214MOL0     H28855   4.103   9.708  10.844  1.8817  1.0973  1.0817
  214MOL0     H28856   4.210   9.573  10.690  0.7730 -0.2459 -0.3232
  214MOL0     H28857   4.220   9.708  10.566 -0.6332 -2.1480 -1.4352
  214MOL0     H28858   4.354   9.837  10.668  2.1133 -0.5200 -1.6606
  214MOL0     H28859   4.345   9.754  10.826  4.7920 -3.2790 -0.1696
  214MOL0     H28860   4.474   9.648  10.559  4.4161 -2.9473  0.8703
  214MOL0     H28861   4.415   9.552  10.687 -2.0755  0.3024 -1.4970
  214MOL0     H28862   4.638   9.584  10.750 -2.4897 -1.5952 -0.3555
  214MOL0     H28863   4.565   9.722  10.840 -0.8873  0.3731 -0.7445
  214MOL0     H28864   4.675   9.724  10.551 -1.6344 -0.9591  0.6826
  214MOL0     H28865   4.657   9.870  10.634 -1.3580 -0.1534 -1.5440
  214MOL0     H28866   4.866   9.646  10.682  1.2895  0.1034  1.3248
  214MOL0     H28867   4.837   9.789  10.791 -0.4466  3.1965 -0.5118
  214MOL0     H28868   4.887   9.838  10.494 -1.2613  1.1294  0.5512
  214MOL0     H28869   4.897   9.944  10.634  0.7475 -0.1722  2.4985
  214MOL0     H28870   3.889   9.917  10.732  1.0126 -0.3678  0.0503
  214MOL0     H28871   3.692   9.966  10.801 -0.2459  0.1480 -1.7885
  214MOL0     H28872   3.069   9.750  10.868  0.3701 -0.7566 -0.0700
  214MOL0     H28873   2.913   9.913  10.895  1.2890 -1.8036  2.4354
  214MOL0     H28874   2.278  10.811   9.688 -0.1084 -2.0198 -2.4386
  214MOL0     H28875   2.067  10.819   9.547 -0.4966  0.5915  0.1166
  214MOL0     H28876   1.716  11.254   9.559  2.8528 -1.3127  1.1720
  214MOL0     H28877   1.541  11.324   9.405  3.9978  1.3739  2.4648
  214MOL0     H28878   1.492  11.328   9.096  1.0382 -3.6013 -0.6669
  214MOL0     H28879   1.386  11.371   9.242 -0.6104  0.5119 -0.6918
  214MOL0     H28880   1.306  11.227   8.993  3.3612  1.3840  0.0102
  214MOL0     H28881   1.278  11.394   9.011  2.0704 -1.5765 -3.4479
  214MOL0     H28882   1.144  11.342   9.229  0.8848  1.5125 -1.5959
  214MOL0     H28883   1.167  11.168   9.196  2.5015  0.4573  0.7882
  214MOL0     H28884   1.081  11.194   8.972 -0.1756  0.4546 -1.0040
  214MOL0     H28885   0.962  11.208   9.104  0.6392  0.5506  1.8512
  214MOL0     H28886   0.933  11.591   8.920 -0.9591 -0.2088 -2.0486
  214MOL0     H28887   1.548  10.932   9.218  0.7582  0.0761 -0.3062
  214MOL0     H28888   1.794  10.789   9.331  1.2392  0.4353  1.7590
  214MOL0     H28889   1.702  10.747   9.470  2.7216  2.8400  1.9635
  214MOL0     H28890   1.627  10.752   9.308  1.7006  0.2087 -2.3821
  215MOL0     O28891   5.945   1.956   9.969 -0.4332 -0.6153  0.4152
  215MOL0     C28892   5.980   2.003   9.861  0.3507 -0.4787  0.5734
  215MOL0     O28893   6.088   1.958   9.787 -0.3637  0.3930 -0.0600
  215MOL0     C28894   6.121   1.826   9.781 -0.6656  0.0416  0.9186
  215MOL0     C28895   6.024   1.723   9.788 -0.0126  0.4076 -0.4581
  215MOL0     C28896   6.064   1.582   9.763 -0.2755 -0.3786 -0.0081
  215MOL0     C28897   6.201   1.560   9.742 -0.1012  0.0028 -0.6264
  215MOL0     O28898   6.234   1.424   9.720  0.2080  0.5808 -0.1577
  215MOL0     C28899   6.340   1.377   9.802  0.0843  0.1898 -0.3258
  215MOL0     C28900   6.341   1.227   9.802  0.0940  0.0330  0.1412
  215MOL0     C28901   6.390   1.156   9.675  0.0219 -0.9457 -0.5038
  215MOL0     C28902   6.465   1.029   9.724  0.5251 -0.0148  0.0084
  215MOL0     C28903   6.497   0.951   9.604  0.0759  0.2682 -0.5613
  215MOL0     C28904   6.596   1.016   9.511 -0.0549 -0.0688  0.3962
  215MOL0     C28905   6.734   1.074   9.566  0.8506 -0.7626  0.3119
  215MOL0     C28906   6.822   0.980   9.644  0.1162 -0.0389 -0.3340
  215MOL0     N28907   6.877   0.874   9.559  0.0795 -0.2168 -1.2085
  215MOL0     C28908   6.833   0.745   9.549 -0.1454 -0.3854  0.1893
  215MOL0     C28909   6.873   0.703   9.429 -1.3940  0.5660  0.1423
  215MOL0     C28910   6.833   0.579   9.367 -0.1303  0.1046 -0.0027
  215MOL0     C28911   6.929   0.470   9.387 -0.1766 -0.0719  0.5920
  215MOL0     C28912   6.927   0.392   9.512 -0.3055 -0.4106  0.3469
  215MOL0     C28913   7.071   0.331   9.536 -0.0418  1.1036  0.1783
  215MOL0     O28914   7.088   0.236   9.431  0.0127 -0.2898 -0.2927
  215MOL0     C28915   7.212   0.171   9.416  0.3024 -0.7072 -0.4848
  215MOL0     C28916   7.216   0.041   9.391 -0.1618  0.2343  0.5847
  215MOL0     C28917   7.340  -0.019   9.358  0.6580 -0.7000  0.1372
  215MOL0     C28918   7.461   0.050   9.353 -0.5386  0.4115 -0.1171
  215MOL0     C28919   7.598  -0.013   9.326  0.2571  0.9162 -0.1774
  215MOL0     O28920   7.593  -0.145   9.285 -0.6578 -0.3959 -0.6914
  215MOL0     C28921   7.712  -0.199   9.252  0.4853  0.1689 -0.8960
  215MOL0     C28922   7.774  -0.309   9.324  0.3807 -0.4889  0.1390
  215MOL0     C28923   7.885  -0.367   9.275  0.0584  0.2968  0.6084
  215MOL0     C28924   7.941  -0.311   9.157 -0.6007  1.0084  0.7761
  215MOL0     O28925   8.054  -0.378   9.119  0.3932  0.4284  0.0432
  215MOL0     C28926   8.132  -0.341   9.005 -0.1651  0.4341 -1.2010
  215MOL0     C28927   8.224  -0.463   8.974  0.1993 -0.1366 -0.3444
  215MOL0     C28928   8.322  -0.444   8.857 -0.2401 -0.0866 -0.9554
  215MOL0     C28929   8.446  -0.351   8.880 -0.4165 -1.1814 -0.3024
  215MOL0     C28930   8.521  -0.345   8.747  0.5719 -0.2994 -0.2936
  215MOL0     C28931   8.664  -0.300   8.762 -0.2693  0.4581  0.3837
  215MOL0     C28932   8.742  -0.302   8.629 -0.8012  0.1261 -0.7908
  215MOL0     C28933   8.887  -0.251   8.656  0.2120 -0.7019  0.3115
  215MOL0    Cl28934   8.978  -0.356   8.778  0.0139  0.0947  0.0202
  215MOL0     C28935   7.884  -0.210   9.084  0.6135  0.3705  0.2142
  215MOL0     C28936   7.763  -0.160   9.130 -1.1429 -0.3848 -0.8112
  215MOL0     O28937   7.696   0.059   9.325 -0.1217 -0.0465  0.3405
  215MOL0     C28938   7.454   0.187   9.392  0.2048  0.0053  0.7110
  215MOL0     C28939   7.330   0.248   9.413 -0.1046  0.2397  0.2644
  215MOL0     N28940   6.957   0.800   9.377 -0.8012 -0.0270  0.7438
  215MOL0     N28941   6.948   0.908   9.450  0.4673  0.4119  0.1875
  215MOL0     C28942   6.291   1.670   9.719 -0.4684  0.9327 -0.3668
  215MOL0     C28943   6.250   1.802   9.745  0.4754  0.9099  0.3935
  215MOL0     C28944   5.895   2.112   9.795  0.4551  0.0034  0.4134
  215MOL0     C28945   5.765   2.147   9.860 -0.8783 -0.4592 -0.3476
  215MOL0     C28946   5.682   2.245   9.801  0.2982 -0.1893  0.7057
  215MOL0     C28947   5.726   2.321   9.685 -0.6250 -1.5788  0.5799
  215MOL0     O28948   5.675   2.437   9.635 -0.4681 -0.6259 -0.2801
  215MOL0     C28949   5.567   2.496   9.701  0.7152 -0.2840 -0.1957
  215MOL0     C28950   5.545   2.649   9.689  0.2218 -0.2351 -0.3694
  215MOL0     C28951   5.630   2.730   9.778  1.2683  0.5620 -0.7459
  215MOL0     C28952   5.603   2.877   9.771 -0.2053  0.9002 -0.2323
  215MOL0     C28953   5.562   2.934   9.646 -0.4931 -0.3840 -0.1511
  215MOL0     C28954   5.551   2.977   9.532 -1.8397 -0.0516 -0.0293
  215MOL0     C28955   5.842   2.277   9.614 -0.0536 -0.1088 -0.2749
  215MOL0     C28956   5.925   2.168   9.664  0.5897  0.6729 -0.0155
  215MOL0     C28957   6.045   2.143   9.564 -0.2552  0.5005 -0.6483
  215MOL0     H28958   5.917   1.741   9.785 -0.0201  0.2668 -2.1583
  215MOL0     H28959   5.997   1.498   9.747 -1.8455  0.5479  1.4479
  215MOL0     H28960   6.428   1.413   9.749 -0.4571  1.8032 -0.1657
  215MOL0     H28961   6.336   1.418   9.904  3.2755 -2.0709  0.9246
  215MOL0     H28962   6.242   1.185   9.824  0.9848 -2.0554  0.4265
  215MOL0     H28963   6.404   1.198   9.887 -0.7917 -2.6381 -0.0089
  215MOL0     H28964   6.443   1.224   9.608 -1.2674 -0.4291 -1.0330
  215MOL0     H28965   6.304   1.131   9.612 -0.9763  0.1760  0.3800
  215MOL0     H28966   6.564   1.047   9.766  0.7162 -0.6503 -0.1540
  215MOL0     H28967   6.405   0.976   9.798 -1.9861 -0.0493 -1.8992
  215MOL0     H28968   6.541   0.853   9.626  1.5752  0.9508 -0.3886
  215MOL0     H28969   6.399   0.932   9.561 -1.0069 -0.6436  2.0764
  215MOL0     H28970   6.622   0.943   9.434 -1.5232  1.8148 -2.0042
  215MOL0     H28971   6.542   1.088   9.449  0.8408 -0.7483 -1.2440
  215MOL0     H28972   6.709   1.166   9.618 -0.7735  1.1904 -3.5405
  215MOL0     H28973   6.787   1.110   9.478  1.6752 -0.3188  0.9810
  215MOL0     H28974   6.906   1.034   9.689 -2.5760  1.5113  3.4248
  215MOL0     H28975   6.767   0.939   9.730  3.0735 -1.9153  0.8112
  215MOL0     H28976   6.780   0.686   9.623  0.3007  0.5515  1.2791
  215MOL0     H28977   6.732   0.558   9.405  0.7235 -0.7444  1.9444
  215MOL0     H28978   6.838   0.598   9.260  0.1085 -1.5997 -0.3077
  215MOL0     H28979   6.918   0.401   9.302  0.2750 -1.5062  1.6528
  215MOL0     H28980   7.024   0.519   9.362 -0.2325  0.8307  2.0722
  215MOL0     H28981   6.850   0.315   9.509  1.3989 -2.2370  1.3479
  215MOL0     H28982   6.898   0.459   9.594  0.2766 -0.9640  1.0229
  215MOL0     H28983   7.065   0.283   9.635  0.7627 -2.1879 -1.2223
  215MOL0     H28984   7.156   0.400   9.536  0.0235  1.0242  0.5152
  215MOL0     H28985   7.128  -0.020   9.409  0.5493 -0.7838  0.6703
  215MOL0     H28986   7.333  -0.126   9.340 -1.7927 -0.2687 -2.2257
  215MOL0     H28987   7.731  -0.330   9.421  0.2817  1.7714  0.6479
  215MOL0     H28988   7.936  -0.449   9.325  1.7435  1.2726  0.5748
  215MOL0     H28989   8.064  -0.325   8.921 -0.6918  1.1786 -0.6513
  215MOL0     H28990   8.195  -0.253   9.019 -0.3948  0.6732 -1.6222
  215MOL0     H28991   8.285  -0.466   9.065  0.2511 -1.8973 -0.4069
  215MOL0     H28992   8.158  -0.548   8.956 -1.7577  1.0556  0.8422
  215MOL0     H28993   8.367  -0.543   8.843  1.9427  0.6867  0.1056
  215MOL0     H28994   8.267  -0.418   8.767 -2.1470 -1.2271 -0.1845
  215MOL0     H28995   8.514  -0.395   8.954 -0.4263 -1.4317 -0.4414
  215MOL0     H28996   8.423  -0.246   8.898  2.4926 -0.1025 -2.2431
  215MOL0     H28997   8.474  -0.275   8.677 -1.4087 -0.4560  0.8308
  215MOL0     H28998   8.516  -0.444   8.701  2.0734 -0.4120 -0.2714
  215MOL0     H28999   8.680  -0.199   8.800  0.6016  1.0005 -1.3119
  215MOL0     H29000   8.711  -0.364   8.837 -2.7787  0.0448  1.7075
  215MOL0     H29001   8.698  -0.238   8.552 -0.9286  0.5977 -0.3276
  215MOL0     H29002   8.748  -0.402   8.583 -0.3666  0.7292 -2.1113
  215MOL0     H29003   8.933  -0.239   8.557  0.8771  0.9072  0.7687
  215MOL0     H29004   8.885  -0.154   8.708 -0.3838 -0.8987  0.6520
  215MOL0     H29005   7.922  -0.164   8.994  2.0232 -1.5155 -0.2276
  215MOL0     H29006   7.715  -0.074   9.085  0.2286  1.1531  0.5011
  215MOL0     H29007   7.531   0.261   9.378 -1.3187  1.7557  1.2077
  215MOL0     H29008   7.319   0.354   9.430 -0.4431  0.8237 -3.0077
  215MOL0     H29009   6.396   1.647   9.703 -1.1466 -1.6704 -1.6925
  215MOL0     H29010   6.313   1.890   9.743  0.9932  0.5312 -0.2438
  215MOL0     H29011   5.743   2.110   9.960  1.1683 -2.7445 -0.6420
  215MOL0     H29012   5.587   2.265   9.849 -0.6310 -0.3133 -0.9925
  215MOL0     H29013   5.565   2.475   9.809 -2.3093 -3.8898 -0.7716
  215MOL0     H29014   5.483   2.446   9.651  0.8746 -0.2166 -0.5330
  215MOL0     H29015   5.446   2.668   9.729  1.2136  2.6384  0.9781
  215MOL0     H29016   5.537   2.678   9.583 -3.5426  3.0906  0.5765
  215MOL0     H29017   5.736   2.714   9.759  1.3163  0.0158 -0.0821
  215MOL0     H29018   5.626   2.698   9.883  0.5096  1.7941 -0.3770
  215MOL0     H29019   5.527   2.900   9.846  0.4565 -2.3359  1.6834
  215MOL0     H29020   5.695   2.931   9.797  0.0374 -0.1024  1.1341
  215MOL0     H29021   5.547   2.996   9.427  4.4753 -0.4984 -0.7404
  215MOL0     H29022   5.872   2.337   9.529 -0.0020  2.1030  1.2022
  215MOL0     H29023   6.037   2.044   9.518  0.2013 -0.6054  1.4997
  215MOL0     H29024   6.049   2.227   9.495  0.0203  1.2001  0.2029
  215MOL0     H29025   6.144   2.146   9.610  0.0074  2.3274 -1.2795
  216MOL0     O29026   4.760   0.382   4.165 -0.1270 -0.6700  0.3461
  216MOL0     C29027   4.776   0.462   4.257 -0.5513 -0.3846  0.6661
  216MOL0     O29028   4.898   0.484   4.322  0.3788 -0.0111 -0.6015
  216MOL0     C29029   5.024   0.463   4.256  0.0300 -0.6335  0.2276
  216MOL0     C29030   5.137   0.492   4.332  0.7215 -0.2560 -0.4015
  216MOL0     C29031   5.267   0.485   4.283 -0.4173  0.7818  1.1381
  216MOL0     C29032   5.287   0.446   4.150 -0.3544  0.2721 -0.2946
  216MOL0     O29033   5.423   0.424   4.122  0.7978 -0.0342  0.2889
  216MOL0     C29034   5.458   0.335   4.013 -0.3527  0.4949 -0.4531
  216MOL0     C29035   5.612   0.332   4.013  0.4209 -0.8721 -0.1581
  216MOL0     C29036   5.670   0.274   4.142  0.6330 -0.3155 -0.4438
  216MOL0     C29037   5.794   0.191   4.111  0.5511  0.6033  0.1768
  216MOL0     C29038   5.838   0.149   4.249 -0.6203  0.2983  0.4480
  216MOL0     C29039   5.947   0.043   4.250  0.1032  0.3928 -0.0781
  216MOL0     C29040   5.913  -0.066   4.349 -0.3036  0.0044 -0.0393
  216MOL0     C29041   5.936  -0.016   4.490 -0.9483 -0.1671  0.4186
  216MOL0     N29042   6.069   0.030   4.520  0.1627 -0.2113 -0.4072
  216MOL0     C29043   6.095   0.163   4.546  0.2371  0.6877  0.1591
  216MOL0     C29044   6.222   0.170   4.550  0.4810 -0.5404 -0.1664
  216MOL0     C29045   6.292   0.303   4.565  0.4786 -1.1495 -0.3204
  216MOL0     C29046   6.398   0.290   4.671  0.1029  0.5842 -0.5566
  216MOL0     C29047   6.334   0.270   4.814 -0.0718  0.1739 -0.4088
  216MOL0     C29048   6.407   0.174   4.910 -0.5426 -0.1439 -0.5018
  216MOL0     O29049   6.545   0.197   4.903  0.1520 -0.6053 -0.2810
  216MOL0     C29050   6.606   0.307   4.960 -0.6945 -0.1334 -0.3369
  216MOL0     C29051   6.731   0.336   4.920 -0.6330  0.1284  0.1179
  216MOL0     C29052   6.800   0.445   4.974 -0.0957 -1.0478 -0.2293
  216MOL0     C29053   6.737   0.535   5.066 -0.5543 -0.0370  0.0095
  216MOL0     C29054   6.818   0.646   5.123 -0.1413 -0.2787 -0.2264
  216MOL0     O29055   6.926   0.686   5.047  0.0065  0.4147  0.8772
  216MOL0     C29056   6.999   0.802   5.075  0.9991  0.5769 -0.3901
  216MOL0     C29057   6.954   0.937   5.082  0.7379 -0.2045 -0.3085
  216MOL0     C29058   7.037   1.039   5.122 -0.1534  0.0660  0.0756
  216MOL0     C29059   7.171   1.014   5.141 -0.9267 -0.7817  0.3984
  216MOL0     O29060   7.261   1.118   5.159  0.1820 -0.6842  0.2296
  216MOL0     C29061   7.355   1.097   5.266  0.0242  0.2137 -0.2655
  216MOL0     C29062   7.410   1.227   5.317 -0.8418  0.6954 -0.1348
  216MOL0     C29063   7.526   1.205   5.412  0.3276  0.4830 -0.4026
  216MOL0     C29064   7.577   1.315   5.490 -0.6021  0.0521  0.2793
  216MOL0     C29065   7.673   1.407   5.406  0.4638 -0.1062 -0.4591
  216MOL0     C29066   7.681   1.549   5.472 -0.1272  0.6845 -0.8616
  216MOL0     C29067   7.796   1.635   5.411 -0.1719  0.4281  0.0184
  216MOL0     C29068   7.767   1.669   5.265  0.3243 -0.2751 -0.6312
  216MOL0    Cl29069   7.873   1.784   5.195  0.1972 -0.5244 -0.0079
  216MOL0     C29070   7.206   0.882   5.139 -0.3100  0.5756 -0.3564
  216MOL0     C29071   7.131   0.772   5.105  0.4554 -0.5706 -0.5212
  216MOL0     O29072   6.790   0.693   5.233 -0.4650  0.5526 -0.6203
  216MOL0     C29073   6.607   0.507   5.101 -1.2667 -0.0766  0.0652
  216MOL0     C29074   6.541   0.391   5.056  0.4137 -0.1377 -0.6950
  216MOL0     N29075   6.277   0.046   4.530  0.1204 -0.5836 -0.0455
  216MOL0     N29076   6.180  -0.043   4.519  0.2013 -0.3566 -0.5877
  216MOL0     C29077   5.172   0.408   4.073 -0.0108  0.7241 -0.8266
  216MOL0     C29078   5.042   0.420   4.126  0.2978  0.5426  0.5208
  216MOL0     C29079   4.656   0.533   4.313 -0.2124  0.5034  0.4356
  216MOL0     C29080   4.548   0.452   4.352  0.4016  0.1902 -0.8559
  216MOL0     C29081   4.423   0.496   4.409  0.7159  0.7869 -1.2355
  216MOL0     C29082   4.405   0.628   4.434  0.1904 -0.1760  0.7030
  216MOL0     O29083   4.299   0.687   4.505  0.7090  0.2344  0.2164
  216MOL0     C29084   4.180   0.612   4.518  0.8339  0.1724 -0.0889
  216MOL0     C29085   4.113   0.683   4.631  0.4525 -0.1141 -0.2446
  216MOL0     C29086   4.006   0.797   4.592 -0.4972  0.4103  0.0537
  216MOL0     C29087   3.866   0.750   4.557  0.4801 -0.0463 -0.6644
  216MOL0     C29088   3.800   0.691   4.682  0.1494 -1.1984  0.6716
  216MOL0     C29089   3.746   0.654   4.783 -0.3994 -0.3878  0.8306
  216MOL0     C29090   4.517   0.714   4.400  0.8275  0.4559  0.2653
  216MOL0     C29091   4.636   0.670   4.327 -0.5584 -0.3342 -0.6848
  216MOL0     C29092   4.749   0.765   4.314 -0.6260 -0.1393 -0.5921
  216MOL0     H29093   5.129   0.523   4.436  1.2220  1.1358 -0.7510
  216MOL0     H29094   5.360   0.492   4.338 -0.6145 -3.2604  2.3088
  216MOL0     H29095   5.414   0.235   4.014 -2.1166  1.2421 -0.4233
  216MOL0     H29096   5.432   0.385   3.920  2.7309  1.0491 -1.1370
  216MOL0     H29097   5.657   0.431   3.997 -1.0380  0.2966  2.3812
  216MOL0     H29098   5.626   0.261   3.931 -0.6889 -1.1849 -0.0906
  216MOL0     H29099   5.588   0.222   4.192 -2.3696  2.0342 -2.5587
  216MOL0     H29100   5.708   0.345   4.217  0.1831 -1.7491  1.2180
  216MOL0     H29101   5.771   0.105   4.048  1.1658  0.4907  0.1041
  216MOL0     H29102   5.865   0.252   4.055 -1.8282  1.8789 -1.6451
  216MOL0     H29103   5.878   0.230   4.310 -1.4243  0.9158  0.1656
  216MOL0     H29104   5.751   0.108   4.303 -1.1059 -2.4589 -2.1627
  216MOL0     H29105   5.951  -0.004   4.151 -0.6893 -0.6154  0.3498
  216MOL0     H29106   6.045   0.086   4.274  1.6429 -3.0829  0.4117
  216MOL0     H29107   5.975  -0.152   4.324 -2.9257 -2.4601  1.3166
  216MOL0     H29108   5.811  -0.102   4.334 -0.0701 -0.5837 -0.2316
  216MOL0     H29109   5.869   0.069   4.510  0.5200  1.6642 -1.8777
  216MOL0     H29110   5.917  -0.097   4.561  1.0340  0.3960  1.6647
  216MOL0     H29111   6.020   0.241   4.553 -2.4512 -1.5258 -1.4230
  216MOL0     H29112   6.331   0.334   4.467  0.1628  1.7493  0.3890
  216MOL0     H29113   6.217   0.376   4.595 -0.3028 -1.2404 -1.9219
  216MOL0     H29114   6.463   0.204   4.655  2.4843  1.3642  3.4707
  216MOL0     H29115   6.459   0.376   4.697  0.9451 -1.2684  4.7525
  216MOL0     H29116   6.235   0.223   4.807  0.8712 -1.6544 -3.2228
  216MOL0     H29117   6.336   0.360   4.877 -0.8477 -2.0814  3.1400
  216MOL0     H29118   6.385   0.074   4.872 -0.0172 -0.0938 -0.9332
  216MOL0     H29119   6.368   0.180   5.012 -1.2105  0.3853 -0.7758
  216MOL0     H29120   6.787   0.267   4.858  0.0214 -2.1621  2.9811
  216MOL0     H29121   6.901   0.471   4.945 -0.3339  1.4893  0.8985
  216MOL0     H29122   6.850   0.965   5.066  0.4779 -0.4246  0.9031
  216MOL0     H29123   7.005   1.143   5.130  2.3992  0.9062  0.3657
  216MOL0     H29124   7.293   1.050   5.343 -2.6459  1.2501 -1.6339
  216MOL0     H29125   7.443   1.039   5.237  0.3293  1.3901 -1.8989
  216MOL0     H29126   7.449   1.285   5.232  1.0784  0.6530  0.6651
  216MOL0     H29127   7.330   1.284   5.366 -0.6064  0.4325  0.5563
  216MOL0     H29128   7.479   1.143   5.489  1.3944 -0.7278 -0.6943
  216MOL0     H29129   7.611   1.153   5.369  1.9742  2.4918  0.2545
  216MOL0     H29130   7.641   1.284   5.572  1.2542 -0.3320 -1.2415
  216MOL0     H29131   7.504   1.379   5.541 -0.2966 -0.4160  1.3116
  216MOL0     H29132   7.630   1.417   5.305  2.5465  3.6143 -1.1381
  216MOL0     H29133   7.772   1.362   5.393  1.3929  1.4770  0.7993
  216MOL0     H29134   7.582   1.596   5.464 -2.1287 -1.8474  4.1472
  216MOL0     H29135   7.702   1.531   5.578  2.6728 -1.5183 -1.6787
  216MOL0     H29136   7.893   1.586   5.404  0.4753  1.4818  1.2322
  216MOL0     H29137   7.802   1.725   5.474 -2.3320  0.4014  0.3326
  216MOL0     H29138   7.758   1.580   5.202 -0.7389 -0.0196 -0.8498
  216MOL0     H29139   7.667   1.713   5.265 -0.7714 -1.8245 -6.4965
  216MOL0     H29140   7.304   0.861   5.180 -0.4952 -0.5732 -0.4642
  216MOL0     H29141   7.165   0.669   5.103  2.2124 -0.0086 -1.2370
  216MOL0     H29142   6.572   0.569   5.183 -1.2337  2.2318 -1.5447
  216MOL0     H29143   6.449   0.359   5.103 -0.7575  0.5550 -2.4290
  216MOL0     H29144   5.196   0.377   3.971  1.0015 -1.8841  0.1218
  216MOL0     H29145   4.969   0.383   4.054  1.9112  0.0163 -0.9017
  216MOL0     H29146   4.556   0.344   4.349 -1.9151 -0.0152 -3.4011
  216MOL0     H29147   4.341   0.426   4.419 -1.6221  3.5905  0.6468
  216MOL0     H29148   4.197   0.509   4.550  0.2962  0.4127  1.0240
  216MOL0     H29149   4.114   0.613   4.431  0.6588 -0.6645  0.0263
  216MOL0     H29150   4.193   0.705   4.703  1.1172 -0.4003 -0.8909
  216MOL0     H29151   4.049   0.612   4.684  0.2183 -0.3557 -0.8505
  216MOL0     H29152   4.047   0.845   4.503  0.8590 -0.6073  0.1046
  216MOL0     H29153   4.005   0.877   4.666  1.9575  0.1011  0.5050
  216MOL0     H29154   3.803   0.836   4.533 -2.2190 -2.2932 -2.3686
  216MOL0     H29155   3.863   0.684   4.469 -0.9121 -0.4269 -0.3496
  216MOL0     H29156   3.709   0.609   4.873 -2.8355 -0.1925  0.0161
  216MOL0     H29157   4.498   0.819   4.419 -1.3324  0.0349  0.6884
  216MOL0     H29158   4.792   0.777   4.413  0.6187 -0.7789 -1.0334
  216MOL0     H29159   4.829   0.719   4.255  1.3811 -2.1553  3.3093
  216MOL0     H29160   4.727   0.863   4.272 -1.1209  0.2323  0.5028
  217MOL0     O29161  11.263   4.881   6.033 -1.0389  0.0922  0.1751
  217MOL0     C29162  11.251   4.765   5.986 -0.3163 -0.4623 -0.2876
  217MOL0     O29163  11.331   4.656   6.008 -0.3456  0.8435  0.0553
  217MOL0     C29164  11.452   4.672   6.074  0.1775  0.0656 -0.4739
  217MOL0     C29165  11.545   4.573   6.046  0.3852 -0.2957  0.8844
  217MOL0     C29166  11.682   4.598   6.067 -0.0949 -0.0350 -0.7702
  217MOL0     C29167  11.726   4.705   6.140 -0.1640 -0.4779 -1.1217
  217MOL0     O29168  11.859   4.723   6.192  0.6314  0.1694 -0.4629
  217MOL0     C29169  11.962   4.627   6.179  0.1337 -0.3330 -0.3957
  217MOL0     C29170  12.025   4.622   6.034 -0.0037  0.2883 -0.1721
  217MOL0     C29171  12.141   4.720   6.004 -0.0270  0.3324 -0.0118
  217MOL0     C29172  12.201   4.688   5.873 -0.1251  0.4099 -0.5074
  217MOL0     C29173  12.332   4.776   5.850  0.1349  0.1727 -0.3497
  217MOL0     C29174  12.411   4.745   5.721 -0.3858 -0.6750  0.8395
  217MOL0     C29175  12.544   4.825   5.687  0.4001 -0.2814 -0.6459
  217MOL0     C29176  12.516   4.964   5.620 -0.7496 -0.1743  0.0143
  217MOL0     N29177  12.650   5.027   5.605  0.4457  0.4724  0.1271
  217MOL0     C29178  12.715   5.017   5.487 -0.2741  0.6546  0.3476
  217MOL0     C29179  12.832   5.080   5.512 -0.0083  0.0206 -0.1290
  217MOL0     C29180  12.953   5.114   5.421 -0.7024  0.7125  0.6177
  217MOL0     C29181  12.936   5.040   5.282 -0.4638 -0.7645 -0.5025
  217MOL0     C29182  13.056   5.068   5.187 -1.5646  0.0045  0.0490
  217MOL0     C29183  13.016   5.070   5.033  0.7352 -0.1938 -0.4571
  217MOL0     O29184  13.073   4.957   4.965  0.2927 -0.1088  0.3380
  217MOL0     C29185  13.095   4.961   4.826 -0.4929 -0.1145 -0.2419
  217MOL0     C29186  13.189   4.869   4.770  1.2934  0.5509 -0.0382
  217MOL0     C29187  13.209   4.870   4.632  0.5602  0.1306 -0.3846
  217MOL0     C29188  13.138   4.961   4.552  0.4017 -0.0885 -0.2902
  217MOL0     C29189  13.151   4.948   4.401  0.6827 -1.1151  0.7980
  217MOL0     O29190  13.188   4.822   4.358  0.3139  0.3029  0.4220
  217MOL0     C29191  13.175   4.790   4.227  0.1244 -0.0398 -0.4859
  217MOL0     C29192  13.047   4.774   4.154 -0.4929  0.4936 -0.8565
  217MOL0     C29193  13.044   4.735   4.020 -0.1745 -0.3795  0.6100
  217MOL0     C29194  13.166   4.720   3.957 -0.8353 -0.2148  0.5222
  217MOL0     O29195  13.148   4.675   3.825 -0.2724  0.1149 -0.4212
  217MOL0     C29196  13.267   4.661   3.744 -0.2995  0.0003 -0.8358
  217MOL0     C29197  13.236   4.629   3.600 -0.1864  0.8971  0.1309
  217MOL0     C29198  13.136   4.502   3.597 -0.1881 -0.7296  0.6943
  217MOL0     C29199  13.155   4.386   3.693  0.4450 -0.3801 -0.1463
  217MOL0     C29200  13.086   4.250   3.660 -0.2313 -0.6810 -0.4078
  217MOL0     C29201  13.130   4.158   3.768 -0.9848  0.8151 -0.6743
  217MOL0     C29202  13.272   4.098   3.742  0.0315 -0.1499 -0.7091
  217MOL0     C29203  13.305   3.997   3.854  0.7245 -0.9203 -0.4098
  217MOL0    Cl29204  13.218   3.840   3.831  0.6347 -0.3176  0.3208
  217MOL0     C29205  13.289   4.731   4.031 -0.4698 -0.2587  0.0217
  217MOL0     C29206  13.292   4.767   4.164 -1.1631 -0.2708 -0.1778
  217MOL0     O29207  13.131   5.042   4.328  0.8239 -0.0287  0.4725
  217MOL0     C29208  13.046   5.056   4.611 -0.3493  0.5805  0.9740
  217MOL0     C29209  13.015   5.037   4.738 -0.1496  0.1430 -0.3558
  217MOL0     N29210  12.828   5.122   5.643  0.1705  1.4143  0.6169
  217MOL0     N29211  12.719   5.093   5.698  0.8149 -0.0115  0.7653
  217MOL0     C29212  11.631   4.794   6.188  0.0168 -1.4166 -0.6878
  217MOL0     C29213  11.490   4.783   6.156  0.9496 -0.1734 -0.1162
  217MOL0     C29214  11.139   4.738   5.886  0.0618  0.2494  0.3409
  217MOL0     C29215  11.168   4.687   5.762  0.5584  0.1447 -0.1014
  217MOL0     C29216  11.072   4.670   5.662  0.2533  0.0005 -0.3951
  217MOL0     C29217  10.937   4.704   5.688  0.0251 -0.5513 -0.3719
  217MOL0     O29218  10.847   4.693   5.583 -0.0426 -0.2605  0.3753
  217MOL0     C29219  10.704   4.679   5.611  0.0805  0.6242  0.2371
  217MOL0     C29220  10.661   4.550   5.689  0.1879 -0.1601 -0.2662
  217MOL0     C29221  10.551   4.466   5.617 -0.0492 -0.4964 -0.1426
  217MOL0     C29222  10.484   4.358   5.694 -0.2056 -0.6834  0.4165
  217MOL0     C29223  10.583   4.253   5.717  0.0667 -0.3567 -0.7293
  217MOL0     C29224  10.673   4.171   5.745  0.4522 -0.4869 -0.1076
  217MOL0     C29225  10.912   4.767   5.815  0.0748  0.2150  0.4715
  217MOL0     C29226  11.011   4.774   5.913  0.0589 -0.2013 -0.4020
  217MOL0     C29227  10.978   4.844   6.050 -0.7263  0.3007  0.9601
  217MOL0     H29228  11.511   4.489   5.988 -1.4413  2.8680 -3.1380
  217MOL0     H29229  11.753   4.528   6.025 -1.7516 -2.7451  0.6733
  217MOL0     H29230  12.035   4.649   6.257  1.0198 -1.5516 -0.8455
  217MOL0     H29231  11.932   4.524   6.202  2.6120 -1.2561 -0.9865
  217MOL0     H29232  11.939   4.626   5.966 -0.8781 -0.8359  0.8261
  217MOL0     H29233  12.060   4.519   6.025  1.5420  0.7601  0.2226
  217MOL0     H29234  12.220   4.711   6.080 -0.3586 -3.8945  0.0526
  217MOL0     H29235  12.097   4.820   6.008  0.9567  0.7818 -0.0005
  217MOL0     H29236  12.230   4.583   5.875 -0.5845  0.2897  1.2456
  217MOL0     H29237  12.123   4.714   5.801  0.7008 -0.4390 -1.7372
  217MOL0     H29238  12.295   4.878   5.845 -0.3788 -0.0686 -2.5851
  217MOL0     H29239  12.398   4.773   5.937 -0.2856 -2.0390 -0.0306
  217MOL0     H29240  12.435   4.639   5.708 -1.2772 -0.9063  1.0152
  217MOL0     H29241  12.349   4.758   5.632  0.5250 -0.1369  0.2695
  217MOL0     H29242  12.598   4.766   5.612  1.0441  0.8983 -1.1388
  217MOL0     H29243  12.613   4.847   5.769  1.0547  1.6225 -1.6442
  217MOL0     H29244  12.466   4.947   5.524  1.1260 -2.9319 -0.6063
  217MOL0     H29245  12.444   5.024   5.677 -4.1802 -0.2650 -3.7341
  217MOL0     H29246  12.691   4.974   5.390 -1.0219 -0.9212  1.1858
  217MOL0     H29247  12.950   5.220   5.393 -1.4392  0.5251 -0.0487
  217MOL0     H29248  13.043   5.086   5.476  0.7434  1.9586 -0.9985
  217MOL0     H29249  12.917   4.934   5.301 -1.4609 -0.7320 -1.2472
  217MOL0     H29250  12.845   5.088   5.243 -1.6801 -0.0800  2.8336
  217MOL0     H29251  13.132   4.992   5.209 -2.1063 -0.9196 -1.1755
  217MOL0     H29252  13.112   5.158   5.215  1.8332 -2.1979  0.9741
  217MOL0     H29253  13.055   5.170   5.013  1.0463 -0.1796  0.1881
  217MOL0     H29254  12.908   5.064   5.018  0.8625 -0.2230 -1.4731
  217MOL0     H29255  13.237   4.795   4.833 -1.4164  0.5424  2.1795
  217MOL0     H29256  13.263   4.784   4.595 -1.8763 -1.6385 -0.1364
  217MOL0     H29257  12.968   4.791   4.227  2.3729  1.1234  2.3454
  217MOL0     H29258  12.960   4.710   3.958  2.3161  0.9465 -3.7572
  217MOL0     H29259  13.314   4.759   3.759 -3.2384  1.3283  0.7238
  217MOL0     H29260  13.338   4.587   3.781  2.8529  3.0160 -0.3538
  217MOL0     H29261  13.193   4.718   3.554 -1.1236  1.3328  1.7838
  217MOL0     H29262  13.330   4.609   3.548  1.0257  6.2350 -0.3169
  217MOL0     H29263  13.033   4.537   3.607  0.7822  2.4974  0.5483
  217MOL0     H29264  13.147   4.460   3.497  2.2283  0.1040  0.5394
  217MOL0     H29265  13.119   4.422   3.790  1.5930  0.3256  0.0391
  217MOL0     H29266  13.264   4.382   3.692  0.4766  0.3470  0.0919
  217MOL0     H29267  13.129   4.213   3.566 -0.6919 -0.4770 -0.7002
  217MOL0     H29268  12.977   4.260   3.655 -0.1204  2.2458  1.0623
  217MOL0     H29269  13.126   4.198   3.869  1.7899  1.9531 -0.9330
  217MOL0     H29270  13.083   4.059   3.776  3.9534 -1.9109 -1.0278
  217MOL0     H29271  13.342   4.182   3.739 -0.3785  0.1771 -2.2420
  217MOL0     H29272  13.281   4.049   3.644 -0.5057  2.6698 -2.2931
  217MOL0     H29273  13.412   3.984   3.836  1.0585  1.1313 -0.1084
  217MOL0     H29274  13.282   4.049   3.947  0.8843 -0.1460 -0.7955
  217MOL0     H29275  13.381   4.732   3.974  0.1254  0.7711  0.9582
  217MOL0     H29276  13.391   4.775   4.208 -0.6740 -1.7093 -0.9368
  217MOL0     H29277  12.999   5.131   4.547  0.7452 -0.3914 -1.0709
  217MOL0     H29278  12.934   5.100   4.774  0.7780  0.2875  1.6067
  217MOL0     H29279  11.664   4.863   6.265  0.2027 -2.2426 -0.0076
  217MOL0     H29280  11.425   4.860   6.198  0.2510 -0.8211  0.0137
  217MOL0     H29281  11.273   4.663   5.749  1.5249  3.0319  1.4958
  217MOL0     H29282  11.112   4.623   5.572  2.1296  0.4168  0.1876
  217MOL0     H29283  10.650   4.677   5.516  0.4103 -1.0814  0.0523
  217MOL0     H29284  10.665   4.758   5.675 -2.0092 -1.7691  2.1085
  217MOL0     H29285  10.622   4.584   5.785  0.3666 -1.1578  0.1722
  217MOL0     H29286  10.751   4.490   5.708  1.0495  0.7270 -1.4226
  217MOL0     H29287  10.590   4.434   5.520 -1.3124  1.7588 -1.5086
  217MOL0     H29288  10.472   4.531   5.577  0.9530  1.3019  0.6850
  217MOL0     H29289  10.449   4.402   5.788  1.0502 -0.9531  1.0285
  217MOL0     H29290  10.408   4.308   5.633  0.0854 -0.5559 -0.0480
  217MOL0     H29291  10.755   4.108   5.774 -0.4850 -2.4671 -1.5003
  217MOL0     H29292  10.811   4.803   5.834  0.5408  1.1173  1.3908
  217MOL0     H29293  11.013   4.947   6.056 -1.1502  0.4073  1.7315
  217MOL0     H29294  10.871   4.850   6.072 -1.2189 -0.1849 -1.0858
  217MOL0     H29295  11.027   4.790   6.132 -0.7208 -0.5690  0.3976
  218MOL0     O29296   5.875   3.623   6.807 -0.1014 -0.1457 -0.0864
  218MOL0     C29297   5.964   3.566   6.745 -0.5451  1.5684  0.0829
  218MOL0     O29298   6.092   3.595   6.764 -0.1595 -0.2709  0.0253
  218MOL0     C29299   6.141   3.694   6.847  0.6845  0.7185 -0.2555
  218MOL0     C29300   6.131   3.831   6.809 -0.1580 -0.1641  0.4361
  218MOL0     C29301   6.191   3.935   6.888 -0.8973  0.5866 -1.0245
  218MOL0     C29302   6.265   3.891   7.000 -0.6103 -0.4774 -0.6523
  218MOL0     O29303   6.320   3.978   7.093 -0.2903 -0.0141  0.7889
  218MOL0     C29304   6.228   4.020   7.192 -0.5088  0.2546 -0.3284
  218MOL0     C29305   6.287   4.138   7.262  0.3686 -0.9748  0.1834
  218MOL0     C29306   6.424   4.118   7.332  0.2331 -0.2469 -0.4222
  218MOL0     C29307   6.407   4.023   7.454  0.4922 -0.2802 -0.1424
  218MOL0     C29308   6.532   4.009   7.543  0.3202 -0.3617 -0.4705
  218MOL0     C29309   6.557   4.121   7.642  0.2226  0.0756 -0.9280
  218MOL0     C29310   6.677   4.102   7.747 -0.8736 -0.0801  0.1507
  218MOL0     C29311   6.675   4.220   7.849 -0.1056  0.8379  0.6901
  218MOL0     N29312   6.785   4.200   7.941  1.0883  0.0563 -0.2016
  218MOL0     C29313   6.902   4.260   7.928 -1.0236  0.8203 -0.1792
  218MOL0     C29314   6.981   4.193   8.016  0.9443 -0.2442 -0.1666
  218MOL0     C29315   7.120   4.228   8.062  0.3302  0.1361  0.3777
  218MOL0     C29316   7.223   4.189   7.957 -0.0504 -0.1071  0.6454
  218MOL0     C29317   7.221   4.044   7.902 -0.1487  0.6376 -0.4148
  218MOL0     C29318   7.112   4.029   7.800 -0.8806 -0.6880 -0.4312
  218MOL0     O29319   7.142   3.941   7.688  0.4139  0.0163 -0.7079
  218MOL0     C29320   7.027   3.889   7.629 -0.1824 -0.6450 -0.2736
  218MOL0     C29321   6.920   3.831   7.704 -0.1924  0.0525  0.0164
  218MOL0     C29322   6.810   3.769   7.647 -1.2139 -0.5624  0.1940
  218MOL0     C29323   6.807   3.766   7.504 -0.1088 -0.1917  0.1718
  218MOL0     C29324   6.701   3.714   7.434  0.0996  0.0856  0.0863
  218MOL0     O29325   6.615   3.632   7.510  0.1800  0.1395 -0.8379
  218MOL0     C29326   6.504   3.586   7.442  0.1437 -0.4991  0.3642
  218MOL0     C29327   6.377   3.621   7.488 -0.3231 -0.3386  0.1541
  218MOL0     C29328   6.259   3.578   7.425  0.5466 -0.0627  0.2255
  218MOL0     C29329   6.270   3.496   7.308  0.6362  0.3850  0.8003
  218MOL0     O29330   6.171   3.456   7.220  0.9679  0.2055 -0.1550
  218MOL0     C29331   6.034   3.491   7.253  0.9088  0.0482  0.2994
  218MOL0     C29332   5.952   3.481   7.120  0.3377 -0.2177 -1.1040
  218MOL0     C29333   5.804   3.486   7.146  0.3557 -0.0133 -0.3382
  218MOL0     C29334   5.738   3.348   7.163  0.4165  0.4349 -0.1285
  218MOL0     C29335   5.725   3.279   7.030  0.1832  0.2629  0.9711
  218MOL0     C29336   5.699   3.132   7.043 -0.0266  0.9968  0.7464
  218MOL0     C29337   5.711   3.053   6.909  0.0427  0.9110  0.3397
  218MOL0     C29338   5.697   2.906   6.942  0.7608 -0.1577 -0.2525
  218MOL0    Cl29339   5.817   2.841   7.056  0.2176 -0.2628 -0.5982
  218MOL0     C29340   6.399   3.461   7.260  0.1776  0.3939 -0.8396
  218MOL0     C29341   6.515   3.496   7.331 -0.2619  0.0923  0.5119
  218MOL0     O29342   6.678   3.756   7.319  0.0502 -0.7014  0.1675
  218MOL0     C29343   6.907   3.829   7.432  0.2777 -0.0868  0.3729
  218MOL0     C29344   7.014   3.891   7.488  0.6311  0.7641 -0.7786
  218MOL0     N29345   6.897   4.101   8.090 -0.0314  0.5603 -0.1945
  218MOL0     N29346   6.789   4.097   8.032  0.9212  0.6794 -0.6581
  218MOL0     C29347   6.284   3.758   7.030 -0.1395  0.4306  0.4782
  218MOL0     C29348   6.223   3.662   6.954 -0.2382 -0.8896 -1.4935
  218MOL0     C29349   5.937   3.436   6.665 -0.0479 -0.9082 -0.3236
  218MOL0     C29350   6.048   3.356   6.629 -0.5713  0.4085  0.1668
  218MOL0     C29351   6.036   3.245   6.547  0.4727 -0.2029  0.0824
  218MOL0     C29352   5.915   3.200   6.511  0.4164 -0.2577 -0.5148
  218MOL0     O29353   5.912   3.091   6.430  0.4719 -0.2377 -0.0627
  218MOL0     C29354   5.801   2.997   6.428  0.0153 -0.0351 -0.4287
  218MOL0     C29355   5.831   2.872   6.522  0.5827  0.0280  0.2130
  218MOL0     C29356   5.733   2.752   6.497  0.1315 -0.9871  0.5035
  218MOL0     C29357   5.809   2.619   6.474  0.1986 -0.3360  0.2379
  218MOL0     C29358   5.723   2.509   6.433 -0.5314  0.1148  0.0159
  218MOL0     C29359   5.673   2.404   6.385 -0.2114  0.5955  0.5514
  218MOL0     C29360   5.803   3.271   6.560  0.0317 -0.7993  0.4148
  218MOL0     C29361   5.811   3.392   6.628 -0.4894 -0.2898 -0.5185
  218MOL0     C29362   5.678   3.459   6.645  0.2848 -1.2280  0.2518
  218MOL0     H29363   6.073   3.849   6.720  1.2866  1.2396 -0.2915
  218MOL0     H29364   6.178   4.042   6.872  1.3747  1.3590  1.4372
  218MOL0     H29365   6.127   4.035   7.155 -1.5756  0.0880  2.2877
  218MOL0     H29366   6.219   3.931   7.256 -1.0669 -0.2125 -1.0385
  218MOL0     H29367   6.214   4.172   7.336  0.7853 -1.5341  0.8664
  218MOL0     H29368   6.298   4.207   7.178  2.7572 -2.0809 -0.4980
  218MOL0     H29369   6.459   4.216   7.365 -2.3667  0.3012  0.9575
  218MOL0     H29370   6.499   4.081   7.261  0.5961  0.3785 -0.3742
  218MOL0     H29371   6.325   4.058   7.517 -0.0401 -3.2120  0.9706
  218MOL0     H29372   6.382   3.924   7.415  0.7743  0.1731 -1.5104
  218MOL0     H29373   6.531   3.913   7.596  2.3522  0.0003  0.3266
  218MOL0     H29374   6.616   4.003   7.474  0.3968  2.5409 -0.7619
  218MOL0     H29375   6.574   4.216   7.592  3.5802 -1.0596 -2.2458
  218MOL0     H29376   6.465   4.127   7.701  2.2022  0.2522  2.4522
  218MOL0     H29377   6.775   4.099   7.698 -0.0069  2.3047  1.5702
  218MOL0     H29378   6.663   4.006   7.797  1.4668 -1.6017 -1.8208
  218MOL0     H29379   6.683   4.314   7.793 -0.3160 -0.0400 -0.8723
  218MOL0     H29380   6.579   4.208   7.900 -1.3015 -0.7772 -1.7309
  218MOL0     H29381   6.927   4.337   7.855 -2.0511  0.8770 -0.4912
  218MOL0     H29382   7.135   4.336   8.067  1.0831  0.3305 -3.2575
  218MOL0     H29383   7.140   4.169   8.152 -3.1768 -2.0848 -0.0846
  218MOL0     H29384   7.221   4.262   7.876  0.0278 -1.5351 -0.6960
  218MOL0     H29385   7.323   4.202   8.000  0.1236  0.8822 -0.0333
  218MOL0     H29386   7.206   3.966   7.977  0.8022  0.7749 -0.0688
  218MOL0     H29387   7.320   4.016   7.864 -0.7413 -1.9150 -0.3114
  218MOL0     H29388   7.106   4.130   7.756 -2.5561  0.8393  2.9397
  218MOL0     H29389   7.023   4.004   7.858 -0.8422 -1.6149 -0.7574
  218MOL0     H29390   6.926   3.831   7.812 -0.6413 -0.2993  0.0475
  218MOL0     H29391   6.737   3.722   7.712  0.3997 -2.7450  0.5383
  218MOL0     H29392   6.369   3.678   7.580 -2.8003 -1.4450  0.7051
  218MOL0     H29393   6.158   3.591   7.461 -0.2213 -2.6871 -0.7752
  218MOL0     H29394   5.987   3.426   7.328 -1.8860  1.3200 -0.2180
  218MOL0     H29395   6.020   3.589   7.299 -1.2584  0.1992 -0.5508
  218MOL0     H29396   5.971   3.555   7.042  1.0475 -0.9558 -1.6580
  218MOL0     H29397   5.989   3.387   7.078 -0.0143 -0.9390  0.1522
  218MOL0     H29398   5.786   3.534   7.243  0.8208  2.8729 -1.5783
  218MOL0     H29399   5.751   3.532   7.062  1.1130 -0.9151 -1.3500
  218MOL0     H29400   5.639   3.363   7.207  0.5978 -3.2097  1.8838
  218MOL0     H29401   5.793   3.284   7.233  2.7984  0.3984 -1.9036
  218MOL0     H29402   5.818   3.287   6.972 -0.3906  3.1904  0.2691
  218MOL0     H29403   5.653   3.342   6.976  1.7653  2.3500  1.1548
  218MOL0     H29404   5.776   3.098   7.113  2.4085  2.1216 -1.2060
  218MOL0     H29405   5.598   3.113   7.081  0.5710 -2.7740  0.8323
  218MOL0     H29406   5.807   3.080   6.864  0.2049  0.6978  0.5523
  218MOL0     H29407   5.632   3.081   6.839  0.6232  2.6760  0.3359
  218MOL0     H29408   5.602   2.887   6.994  0.6383 -1.4844 -0.9186
  218MOL0     H29409   5.700   2.842   6.854  0.9311 -1.1992  0.4906
  218MOL0     H29410   6.412   3.407   7.167  0.3916 -1.4314  0.1947
  218MOL0     H29411   6.618   3.468   7.313 -0.9095 -2.6550  0.7130
  218MOL0     H29412   6.907   3.838   7.324 -0.2605 -1.1263  0.2744
  218MOL0     H29413   7.092   3.945   7.436  2.4124 -1.4054 -0.4624
  218MOL0     H29414   6.342   3.714   7.111 -0.3779 -4.3425 -1.5948
  218MOL0     H29415   6.238   3.558   6.982  3.2499  0.3446  2.2643
  218MOL0     H29416   6.151   3.378   6.654 -0.1539  0.9076 -1.7831
  218MOL0     H29417   6.122   3.185   6.518 -0.9105 -1.4620 -1.6861
  218MOL0     H29418   5.796   2.973   6.321 -1.0580 -3.2015  0.2226
  218MOL0     H29419   5.706   3.035   6.466  0.2475  0.5756 -0.4552
  218MOL0     H29420   5.828   2.916   6.622 -0.2075  3.9293 -1.3182
  218MOL0     H29421   5.927   2.832   6.489 -0.5208 -1.3858 -1.4604
  218MOL0     H29422   5.667   2.770   6.412  1.6484 -0.9629 -0.7024
  218MOL0     H29423   5.659   2.741   6.577 -0.3091  0.7163  0.3695
  218MOL0     H29424   5.893   2.639   6.407  1.3618  0.0503  1.7578
  218MOL0     H29425   5.847   2.591   6.573 -2.5531 -4.0003  0.4745
  218MOL0     H29426   5.629   2.310   6.359  0.5436  0.0400  1.2468
  218MOL0     H29427   5.707   3.236   6.522 -1.1273  2.5576 -0.1107
  218MOL0     H29428   5.644   3.484   6.746 -0.8743  0.8506 -0.5831
  218MOL0     H29429   5.669   3.559   6.602 -1.6804 -0.0323  3.1023
  218MOL0     H29430   5.593   3.402   6.608  0.0452  0.0231 -1.2267
  219MOL0     O29431  10.710   9.975   5.568 -0.7347  0.1549 -0.0914
  219MOL0     C29432  10.637  10.071   5.546  0.5491 -0.2327  0.2481
  219MOL0     O29433  10.675  10.192   5.516 -0.6367  0.1585 -0.7301
  219MOL0     C29434  10.805  10.239   5.540  1.0750  0.3759 -0.4594
  219MOL0     C29435  10.877  10.219   5.657 -0.1717 -0.3660 -0.5530
  219MOL0     C29436  11.010  10.272   5.667  0.2841  0.6449 -0.7346
  219MOL0     C29437  11.072  10.352   5.565  0.7942  0.1170 -0.7061
  219MOL0     O29438  11.193  10.407   5.582  0.3855 -0.9729  0.1755
  219MOL0     C29439  11.296  10.355   5.499 -0.2403  0.1703 -0.6468
  219MOL0     C29440  11.429  10.388   5.566  0.4230  0.4975 -0.8035
  219MOL0     C29441  11.426  10.367   5.727 -0.1775  0.9912  0.1918
  219MOL0     C29442  11.567  10.390   5.786 -0.4323 -0.5219  0.1590
  219MOL0     C29443  11.599  10.324   5.920  0.5495 -0.2014 -0.3569
  219MOL0     C29444  11.505  10.373   6.033 -0.6686 -0.1536  0.1704
  219MOL0     C29445  11.524  10.521   6.049  0.3971 -0.2350 -0.9644
  219MOL0     C29446  11.469  10.558   6.185 -0.0430  0.5177  0.1003
  219MOL0     N29447  11.463  10.695   6.219  0.1019  0.0635 -0.0781
  219MOL0     C29448  11.571  10.765   6.278 -0.3447  0.0462  1.2233
  219MOL0     C29449  11.503  10.875   6.321 -0.1356 -0.3738  0.0541
  219MOL0     C29450  11.565  10.999   6.382 -0.1503  0.5282  0.7851
  219MOL0     C29451  11.623  10.979   6.527  0.7049  0.4819 -0.0271
  219MOL0     C29452  11.690  11.101   6.580 -0.0267 -0.3533  0.3851
  219MOL0     C29453  11.819  11.135   6.496 -0.8330  0.3516  0.0138
  219MOL0     O29454  11.895  11.009   6.494 -0.1642 -0.3050  0.0471
  219MOL0     C29455  12.038  11.023   6.496  1.0379 -0.0893 -0.0043
  219MOL0     C29456  12.114  10.912   6.484  0.4815  0.3653  0.4444
  219MOL0     C29457  12.249  10.911   6.480 -0.8610 -0.3312 -0.4733
  219MOL0     C29458  12.328  11.026   6.483 -0.0437  0.0534 -0.9672
  219MOL0     C29459  12.471  11.026   6.472  0.4263 -0.1669  0.4498
  219MOL0     O29460  12.528  10.907   6.459  0.1395  0.0335 -0.8301
  219MOL0     C29461  12.666  10.911   6.425 -0.4675  1.0210  0.0102
  219MOL0     C29462  12.714  10.844   6.314  0.2422  0.1431  0.1292
  219MOL0     C29463  12.851  10.837   6.280 -0.5497  0.6677  0.6976
  219MOL0     C29464  12.939  10.894   6.362 -0.3585 -0.3041  0.2598
  219MOL0     O29465  13.069  10.867   6.327  0.3221  0.1571  0.4017
  219MOL0     C29466  13.172  10.963   6.357 -0.6387 -0.0248  0.4200
  219MOL0     C29467  13.314  10.914   6.326  0.7984 -0.5378 -0.1377
  219MOL0     C29468  13.444  10.981   6.374  0.3968 -0.2900  0.5373
  219MOL0     C29469  13.443  11.010   6.524 -1.0261  0.3440  0.8102
  219MOL0     C29470  13.583  11.059   6.566 -0.5433 -0.5109 -0.2181
  219MOL0     C29471  13.686  11.091   6.450  0.6654 -0.2188  0.3269
  219MOL0     C29472  13.813  11.162   6.497 -0.5704 -0.1172 -0.0102
  219MOL0     C29473  13.938  11.079   6.493  0.3997 -0.5697 -0.5805
  219MOL0    Cl29474  14.088  11.184   6.546 -0.3294  0.0529  0.0077
  219MOL0     C29475  12.903  10.956   6.476 -0.0466  0.3881 -0.0392
  219MOL0     C29476  12.769  10.973   6.499  1.0158 -0.2340  1.7559
  219MOL0     O29477  12.529  11.135   6.491 -0.5077  0.5449 -0.3451
  219MOL0     C29478  12.251  11.139   6.502 -0.7299 -0.7051 -0.2766
  219MOL0     C29479  12.112  11.141   6.507 -0.6563 -0.4606  0.1154
  219MOL0     N29480  11.365  10.868   6.285  0.4504  0.1543 -0.3536
  219MOL0     N29481  11.342  10.757   6.227 -0.3156  0.1540  0.0583
  219MOL0     C29482  10.989  10.370   5.450 -0.4326  0.3630  0.9490
  219MOL0     C29483  10.858  10.319   5.440 -0.1238 -0.3308  0.2043
  219MOL0     C29484  10.496  10.039   5.553  0.2534  0.4445 -0.5037
  219MOL0     C29485  10.403  10.135   5.522  0.0093  0.5099  0.3406
  219MOL0     C29486  10.267  10.118   5.508 -0.0361  0.3410  0.1239
  219MOL0     C29487  10.205   9.997   5.533 -0.1346  0.4909  0.1702
  219MOL0     O29488  10.073   9.973   5.499  0.0774 -0.6396  0.3145
  219MOL0     C29489  10.010  10.060   5.409  0.5334 -0.2804 -0.0474
  219MOL0     C29490   9.875  10.002   5.377  0.2361  0.1622 -0.0195
  219MOL0     C29491   9.778  10.018   5.506  0.3146 -0.9089  0.5949
  219MOL0     C29492   9.624   9.983   5.474 -0.0563  0.1745  1.0795
  219MOL0     C29493   9.555  10.087   5.394 -0.8603  0.5481  0.3475
  219MOL0     C29494   9.484  10.167   5.327  0.3362  1.2304  0.2977
  219MOL0     C29495  10.284   9.894   5.577  0.5188 -0.1495  1.0332
  219MOL0     C29496  10.430   9.911   5.582  0.2281  0.4731 -0.4126
  219MOL0     C29497  10.508   9.789   5.631  0.9283  0.0212  0.0143
  219MOL0     H29498  10.840  10.166   5.745 -1.2889  0.5693 -0.4396
  219MOL0     H29499  11.075  10.259   5.753  1.6681  3.3477 -1.2919
  219MOL0     H29500  11.276  10.248   5.495  0.4247 -0.2439  3.1102
  219MOL0     H29501  11.292  10.396   5.398 -1.5357 -1.1291 -1.1345
  219MOL0     H29502  11.451  10.493   5.547  3.3925  0.6182  2.3614
  219MOL0     H29503  11.504  10.325   5.516  2.2539  2.6459 -0.9196
  219MOL0     H29504  11.406  10.262   5.749  0.7903  0.5236 -1.0192
  219MOL0     H29505  11.353  10.437   5.768  0.4828  1.9871 -0.3033
  219MOL0     H29506  11.633  10.355   5.706 -1.8967  1.7799 -2.1949
  219MOL0     H29507  11.592  10.495   5.803 -2.5774 -0.2560  2.2227
  219MOL0     H29508  11.604  10.215   5.908  3.8516 -0.9111  4.7026
  219MOL0     H29509  11.704  10.340   5.946  0.6423 -0.0505 -0.8070
  219MOL0     H29510  11.401  10.349   6.010 -0.6609 -2.2584  2.0908
  219MOL0     H29511  11.527  10.322   6.127 -1.1141  0.3256  0.5412
  219MOL0     H29512  11.471  10.568   5.966  3.1125  1.0410 -2.1023
  219MOL0     H29513  11.629  10.552   6.042  0.0844  0.7484 -1.3889
  219MOL0     H29514  11.367  10.519   6.181  0.7026 -1.6635  0.6084
  219MOL0     H29515  11.513  10.498   6.265 -1.3066  0.1214  0.5200
  219MOL0     H29516  11.676  10.740   6.291  0.6442  1.3346 -2.7746
  219MOL0     H29517  11.644  11.029   6.312  2.3476 -1.5948  2.5250
  219MOL0     H29518  11.483  11.071   6.394  0.5065  1.2851  0.7796
  219MOL0     H29519  11.545  10.951   6.599  2.3046 -0.3997  1.4462
  219MOL0     H29520  11.682  10.887   6.528 -0.1984 -0.1579 -1.6551
  219MOL0     H29521  11.722  11.092   6.684 -2.2474 -1.0739  1.0471
  219MOL0     H29522  11.608  11.173   6.582 -0.5435 -0.8735 -0.7707
  219MOL0     H29523  11.853  11.218   6.559 -0.1058 -0.0360  0.1398
  219MOL0     H29524  11.795  11.162   6.392  1.6815  1.0544 -0.4378
  219MOL0     H29525  12.057  10.821   6.466 -1.4208  1.5735  0.0386
  219MOL0     H29526  12.291  10.811   6.472  1.2605  0.6989 -4.0438
  219MOL0     H29527  12.643  10.779   6.264 -0.5100 -0.2346  1.6390
  219MOL0     H29528  12.883  10.784   6.190 -0.4581 -0.4054  1.3448
  219MOL0     H29529  13.156  11.044   6.285  1.4916 -1.1535 -1.4506
  219MOL0     H29530  13.164  11.008   6.456  0.3530  1.4859 -0.1359
  219MOL0     H29531  13.306  10.812   6.366  0.9352 -0.6926 -0.5046
  219MOL0     H29532  13.314  10.910   6.217 -3.3837  1.6633 -0.4153
  219MOL0     H29533  13.527  10.913   6.352  0.5871  0.8868 -3.0109
  219MOL0     H29534  13.469  11.072   6.319  1.7541 -1.7949 -1.4397
  219MOL0     H29535  13.417  10.923   6.585  4.4583  0.5354  4.0430
  219MOL0     H29536  13.376  11.089   6.561  1.8312  1.8889  3.1929
  219MOL0     H29537  13.625  11.001   6.648 -1.1450  0.8888  1.1289
  219MOL0     H29538  13.559  11.153   6.617 -1.1532 -1.4821  1.3384
  219MOL0     H29539  13.709  11.000   6.394 -2.2055  0.1106 -1.6046
  219MOL0     H29540  13.630  11.160   6.388  0.5779 -0.4479  0.1514
  219MOL0     H29541  13.803  11.207   6.596  2.2938  3.3701 -1.0734
  219MOL0     H29542  13.834  11.253   6.440 -0.7112  1.4701  2.3288
  219MOL0     H29543  13.925  10.996   6.563  3.4482 -0.9906 -0.3601
  219MOL0     H29544  13.953  11.038   6.392 -1.4337 -0.8859 -0.7557
  219MOL0     H29545  12.967  11.003   6.551 -0.9175  2.3137 -0.4299
  219MOL0     H29546  12.750  11.028   6.591  3.4174  2.6537  0.7048
  219MOL0     H29547  12.303  11.234   6.503 -1.6450 -0.1175  2.8545
  219MOL0     H29548  12.056  11.233   6.515 -1.0568 -0.6205 -0.6556
  219MOL0     H29549  11.024  10.437   5.372 -1.8382  0.5394  0.4352
  219MOL0     H29550  10.798  10.353   5.357  0.1029  0.1264  0.2211
  219MOL0     H29551  10.438  10.232   5.488  1.2855  0.5407  1.6642
  219MOL0     H29552  10.208  10.205   5.480 -0.3591  0.3573  0.8434
  219MOL0     H29553  10.070  10.074   5.318  0.7448  0.6860  0.2287
  219MOL0     H29554  10.000  10.152   5.467  0.3955 -2.6376  4.0007
  219MOL0     H29555   9.880   9.897   5.346  1.2264  0.1286  0.2322
  219MOL0     H29556   9.827  10.057   5.295  1.0202 -0.4106 -0.8792
  219MOL0     H29557   9.791  10.119   5.546  1.5420 -0.2624 -1.3031
  219MOL0     H29558   9.814   9.951   5.584  1.0271  1.0920  2.0854
  219MOL0     H29559   9.613   9.891   5.416 -0.3158  1.4424 -0.9903
  219MOL0     H29560   9.571   9.977   5.569  2.5342 -1.7165  2.5540
  219MOL0     H29561   9.414  10.219   5.266  2.9130 -0.2815 -4.4272
  219MOL0     H29562  10.245   9.794   5.587  4.0188 -2.0465 -1.6481
  219MOL0     H29563  10.571   9.749   5.551  1.8179  0.4694  0.4799
  219MOL0     H29564  10.571   9.807   5.719 -1.3048 -1.7426  2.0986
  219MOL0     H29565  10.437   9.707   5.641  0.5498  0.1750 -1.1603
  220MOL0     O29566  10.092   2.117   5.536 -0.1132  0.1900  0.0358
  220MOL0     C29567  10.093   2.061   5.641 -0.2113 -0.2215 -0.1842
  220MOL0     O29568  10.207   2.046   5.721  0.0479  0.4137 -0.4209
  220MOL0     C29569  10.318   2.123   5.690  0.0693  0.9829  0.0017
  220MOL0     C29570  10.371   2.103   5.563 -0.0917  0.2289 -0.3692
  220MOL0     C29571  10.488   2.175   5.530 -0.8573  0.0109  0.2341
  220MOL0     C29572  10.540   2.274   5.618  1.1910  0.9602 -0.4023
  220MOL0     O29573  10.636   2.357   5.574 -0.0072 -0.1147 -0.1853
  220MOL0     C29574  10.767   2.345   5.634  0.3333  0.0442 -1.5185
  220MOL0     C29575  10.877   2.420   5.559  0.0266 -0.0115  0.5071
  220MOL0     C29576  11.006   2.436   5.634  0.4423  0.2044 -0.7045
  220MOL0     C29577  11.112   2.508   5.543  0.9795  0.0964  0.6069
  220MOL0     C29578  11.108   2.658   5.567 -0.0995  0.8753  0.7749
  220MOL0     C29579  11.147   2.740   5.449  0.7477 -0.0922  0.1697
  220MOL0     C29580  11.103   2.885   5.473 -1.0050 -0.2726 -0.0309
  220MOL0     C29581  11.156   2.992   5.377 -0.3611 -0.0381  0.7083
  220MOL0     N29582  11.298   3.025   5.413 -0.3126  0.3356 -0.3400
  220MOL0     C29583  11.374   3.123   5.352  0.0332 -0.6708  0.4016
  220MOL0     C29584  11.501   3.108   5.402 -0.1319 -1.4242 -0.8198
  220MOL0     C29585  11.629   3.172   5.371  0.4457  0.0589  0.9310
  220MOL0     C29586  11.599   3.324   5.339  0.4193 -0.2751 -0.0519
  220MOL0     C29587  11.725   3.405   5.334  0.3694  0.5792 -0.0923
  220MOL0     C29588  11.843   3.338   5.276  0.3056 -0.1405 -0.1121
  220MOL0     O29589  11.943   3.444   5.249 -0.5256 -0.5311  0.1268
  220MOL0     C29590  12.069   3.410   5.211  0.3523  0.1321 -0.2404
  220MOL0     C29591  12.161   3.512   5.198  0.0078  0.2130 -0.5929
  220MOL0     C29592  12.290   3.478   5.166 -1.0742 -0.3584  0.2009
  220MOL0     C29593  12.338   3.340   5.154 -0.1451 -0.9584  0.4872
  220MOL0     C29594  12.484   3.311   5.128 -0.1703  0.1857 -0.3246
  220MOL0     O29595  12.530   3.185   5.164  0.1430 -0.1238 -0.7845
  220MOL0     C29596  12.662   3.167   5.158 -0.1394  0.1685 -0.3276
  220MOL0     C29597  12.732   3.158   5.038  1.3780 -0.5130 -0.1705
  220MOL0     C29598  12.866   3.140   5.048  0.0209  0.6344  0.4333
  220MOL0     C29599  12.929   3.128   5.171 -0.1328  0.0934  0.1322
  220MOL0     O29600  13.062   3.088   5.177 -0.3548 -0.1971  0.5979
  220MOL0     C29601  13.145   3.154   5.270 -0.0747 -0.4439  0.4237
  220MOL0     C29602  13.284   3.109   5.220 -0.3715 -0.4353 -0.2451
  220MOL0     C29603  13.312   3.176   5.085  0.2861 -0.5278 -0.5242
  220MOL0     C29604  13.458   3.120   5.049 -0.4405  0.4442 -0.5643
  220MOL0     C29605  13.563   3.234   5.036  0.2244  0.7641 -1.1177
  220MOL0     C29606  13.605   3.292   5.171  0.3645 -0.1403 -0.2744
  220MOL0     C29607  13.721   3.385   5.160 -0.2684 -0.1854  0.3017
  220MOL0     C29608  13.706   3.515   5.250  0.3161  0.3401  0.3956
  220MOL0    Cl29609  13.865   3.588   5.252  0.2455 -0.1228 -0.2797
  220MOL0     C29610  12.858   3.121   5.288 -0.4154 -0.4786 -0.4158
  220MOL0     C29611  12.727   3.147   5.287 -0.2058 -1.4718  0.8386
  220MOL0     O29612  12.560   3.407   5.089  1.0605  0.4472 -0.3048
  220MOL0     C29613  12.245   3.243   5.166  0.2482  0.4080  0.6590
  220MOL0     C29614  12.113   3.280   5.199 -0.2154  0.0118 -0.5256
  220MOL0     N29615  11.499   3.014   5.497 -0.5085 -0.5818 -0.2046
  220MOL0     N29616  11.384   2.960   5.499  0.4193  0.0509 -0.5189
  220MOL0     C29617  10.485   2.281   5.754 -0.3011 -0.3925  0.4171
  220MOL0     C29618  10.374   2.199   5.790 -0.1325 -0.7197  0.4340
  220MOL0     C29619   9.968   2.014   5.699 -0.3767 -0.3559  0.1714
  220MOL0     C29620   9.970   1.945   5.818 -1.1866  0.0153 -0.5507
  220MOL0     C29621   9.854   1.887   5.879 -0.3831 -1.1162  0.3629
  220MOL0     C29622   9.730   1.915   5.826 -0.6002  0.0172 -0.2832
  220MOL0     O29623   9.628   1.859   5.896  0.0214 -0.3375  0.2647
  220MOL0     C29624   9.493   1.900   5.856 -0.6523  0.3381 -0.5049
  220MOL0     C29625   9.387   1.872   5.960  0.0753 -0.0077 -0.1838
  220MOL0     C29626   9.373   1.735   6.010 -0.5223  0.5923  0.7548
  220MOL0     C29627   9.370   1.631   5.901 -0.3839  0.5730  1.4327
  220MOL0     C29628   9.314   1.508   5.958 -0.1841 -0.6102  0.3191
  220MOL0     C29629   9.268   1.399   5.976  0.4658 -0.3124 -0.2774
  220MOL0     C29630   9.727   1.985   5.707 -0.1218  0.2430 -0.8132
  220MOL0     C29631   9.838   2.029   5.640  0.3730  0.5898  0.2545
  220MOL0     C29632   9.813   2.084   5.496  0.0075 -0.5084 -0.3689
  220MOL0     H29633  10.337   2.024   5.498  2.9394 -1.3930 -0.2078
  220MOL0     H29634  10.517   2.173   5.426 -0.5421 -1.1059  0.3256
  220MOL0     H29635  10.758   2.380   5.737 -1.6222 -0.0544 -1.6124
  220MOL0     H29636  10.790   2.239   5.624  0.1055  0.0270 -1.8934
  220MOL0     H29637  10.844   2.519   5.527 -0.7325 -0.3709  0.1517
  220MOL0     H29638  10.897   2.361   5.468 -1.1155 -0.8681  0.7932
  220MOL0     H29639  11.040   2.337   5.666 -2.7209 -0.3511  1.3197
  220MOL0     H29640  10.983   2.486   5.729 -1.1403 -0.4349 -0.7312
  220MOL0     H29641  11.212   2.469   5.566 -0.2299 -2.7893  1.4464
  220MOL0     H29642  11.091   2.472   5.442 -0.9933  0.7228  0.7604
  220MOL0     H29643  11.002   2.677   5.588  0.1575  1.4076  1.6418
  220MOL0     H29644  11.167   2.680   5.657 -0.4892  2.1668  0.7423
  220MOL0     H29645  11.256   2.743   5.445  0.8296  0.1488  1.9740
  220MOL0     H29646  11.109   2.701   5.354 -1.9889  1.2441  0.6267
  220MOL0     H29647  11.136   2.920   5.571 -1.0075  3.0270 -1.0922
  220MOL0     H29648  10.994   2.882   5.479 -1.0304  1.2054  0.7580
  220MOL0     H29649  11.158   2.964   5.271  1.8103  0.2089  0.6472
  220MOL0     H29650  11.100   3.083   5.398  2.9289  2.0515  1.1609
  220MOL0     H29651  11.351   3.206   5.285 -0.3337 -0.6527  0.5446
  220MOL0     H29652  11.698   3.168   5.456  1.2797  2.4695  0.4476
  220MOL0     H29653  11.671   3.129   5.279  1.6134  2.1743  0.4214
  220MOL0     H29654  11.555   3.324   5.239 -0.1132  0.0707  0.1788
  220MOL0     H29655  11.529   3.365   5.412 -1.1729 -2.5584 -0.1920
  220MOL0     H29656  11.758   3.425   5.437  6.6971  0.6491 -1.7576
  220MOL0     H29657  11.707   3.498   5.279  0.5771  1.1634  0.8087
  220MOL0     H29658  11.827   3.273   5.189 -1.6505 -0.6502  0.5780
  220MOL0     H29659  11.879   3.263   5.347 -0.7323 -0.9792 -0.4342
  220MOL0     H29660  12.141   3.618   5.208  0.0226  0.0417  1.7379
  220MOL0     H29661  12.359   3.560   5.150 -0.5299 -0.9551 -0.5631
  220MOL0     H29662  12.672   3.172   4.948  0.0319  5.3242  1.2279
  220MOL0     H29663  12.928   3.136   4.959  0.5107  1.5180  0.7228
  220MOL0     H29664  13.128   3.261   5.260  2.2531 -0.1007 -0.5873
  220MOL0     H29665  13.123   3.117   5.370  1.5453  0.0889  1.0060
  220MOL0     H29666  13.354   3.155   5.291 -0.0110 -1.1121 -0.1525
  220MOL0     H29667  13.287   3.000   5.213 -1.5334 -0.6269  1.4950
  220MOL0     H29668  13.237   3.150   5.009  1.7633  1.5513 -2.8636
  220MOL0     H29669  13.302   3.284   5.096  0.5405 -0.5638  0.0446
  220MOL0     H29670  13.449   3.066   4.954  4.6110 -1.2808 -0.3736
  220MOL0     H29671  13.488   3.041   5.119  2.7388  0.0062 -2.2219
  220MOL0     H29672  13.513   3.314   4.980 -0.6826  1.5729  0.7628
  220MOL0     H29673  13.647   3.201   4.974  0.7956 -1.5523  0.7589
  220MOL0     H29674  13.515   3.347   5.198  0.2025 -0.7237  0.4089
  220MOL0     H29675  13.620   3.214   5.246 -0.3831 -0.0226  0.0108
  220MOL0     H29676  13.743   3.413   5.057 -3.1109  0.4335 -0.2227
  220MOL0     H29677  13.805   3.329   5.203 -0.2103  2.1365  3.6946
  220MOL0     H29678  13.635   3.577   5.193  0.2670 -1.1077 -1.2185
  220MOL0     H29679  13.661   3.493   5.347  2.5091 -2.6733  0.8519
  220MOL0     H29680  12.912   3.089   5.376 -0.4072  0.1306 -0.2006
  220MOL0     H29681  12.656   3.158   5.369 -0.6732 -1.7737  0.4829
  220MOL0     H29682  12.282   3.142   5.150  0.2759  0.8354 -2.7007
  220MOL0     H29683  12.043   3.200   5.221  0.1935 -0.3051 -0.3658
  220MOL0     H29684  10.522   2.357   5.822 -1.0051  1.0651 -0.7845
  220MOL0     H29685  10.326   2.205   5.887  1.2752 -2.8472  1.3367
  220MOL0     H29686  10.056   1.927   5.881 -2.8857  0.7423  2.1611
  220MOL0     H29687   9.858   1.832   5.973  0.0073  0.6739  1.4663
  220MOL0     H29688   9.463   1.846   5.766  0.2937 -1.9271  0.4624
  220MOL0     H29689   9.486   2.005   5.827  0.2376  0.0903 -1.6447
  220MOL0     H29690   9.291   1.906   5.921 -0.6337 -1.1735  0.4775
  220MOL0     H29691   9.397   1.937   6.048  3.4518  1.7157 -1.6307
  220MOL0     H29692   9.285   1.733   6.076 -2.4717  0.2425 -1.7194
  220MOL0     H29693   9.450   1.709   6.083  0.4264  1.0709 -0.0629
  220MOL0     H29694   9.307   1.660   5.816  0.6979  1.1022  0.7959
  220MOL0     H29695   9.473   1.622   5.865 -1.5484 -0.6435 -2.0098
  220MOL0     H29696   9.222   1.305   5.997 -0.9204  0.3872 -0.0984
  220MOL0     H29697   9.634   1.990   5.651  0.2902  1.1218 -1.4419
  220MOL0     H29698   9.869   2.177   5.498  4.9527 -3.1222  2.2457
  220MOL0     H29699   9.849   2.017   5.418  2.4378  2.0785 -1.6145
  220MOL0     H29700   9.708   2.095   5.469 -0.9528 -0.4484  2.8741
  221MOL0     O29701   3.059   2.556   7.624  0.4409  0.4439 -0.6215
  221MOL0     C29702   2.971   2.640   7.610 -0.1389 -0.0313 -0.0782
  221MOL0     O29703   2.981   2.768   7.659  0.0179  0.4650  0.0860
  221MOL0     C29704   3.097   2.838   7.657  1.1141  0.2954 -0.2486
  221MOL0     C29705   3.104   2.954   7.739  0.1854  0.0206  0.0117
  221MOL0     C29706   3.226   3.028   7.758 -0.0055  0.4057  0.3506
  221MOL0     C29707   3.347   2.984   7.694  0.9381 -0.4208 -0.0074
  221MOL0     O29708   3.476   3.041   7.716  0.1047  0.3871  1.0224
  221MOL0     C29709   3.473   3.177   7.753 -0.2476  0.1633 -0.1577
  221MOL0     C29710   3.574   3.250   7.664  0.3047 -0.2451  0.6602
  221MOL0     C29711   3.574   3.401   7.681  0.0346  0.1018 -0.5099
  221MOL0     C29712   3.617   3.460   7.818 -0.8237 -0.1663 -0.5133
  221MOL0     C29713   3.769   3.443   7.855 -0.2425 -0.4547  0.0252
  221MOL0     C29714   3.872   3.518   7.763 -0.6342 -0.0988  0.1319
  221MOL0     C29715   4.002   3.548   7.834 -0.3079 -0.1263  0.0394
  221MOL0     C29716   4.098   3.644   7.760 -0.4095 -0.6163  0.4908
  221MOL0     N29717   4.220   3.657   7.842  0.1788  0.6754 -0.5652
  221MOL0     C29718   4.322   3.573   7.831 -0.4765  0.1252  0.0137
  221MOL0     C29719   4.432   3.634   7.882  0.6732 -0.3020  0.4176
  221MOL0     C29720   4.565   3.581   7.879  0.2094 -0.4078  0.1323
  221MOL0     C29721   4.661   3.669   7.787 -0.1339 -0.2818  0.1478
  221MOL0     C29722   4.636   3.665   7.637  0.0858 -0.3166 -0.1305
  221MOL0     C29723   4.671   3.537   7.559 -0.4553  0.2950 -0.0866
  221MOL0     O29724   4.568   3.435   7.579  0.1088  0.2954 -0.3707
  221MOL0     C29725   4.443   3.439   7.524 -0.5465 -1.1953  0.3035
  221MOL0     C29726   4.358   3.333   7.581  0.3865 -0.5872 -0.9079
  221MOL0     C29727   4.231   3.326   7.534 -0.8587  0.3340 -0.2602
  221MOL0     C29728   4.173   3.425   7.440 -0.2046 -0.6468  0.5419
  221MOL0     C29729   4.025   3.415   7.399 -0.4865 -0.5939 -0.1539
  221MOL0     O29730   3.984   3.493   7.296  0.2850 -0.1355 -0.4657
  221MOL0     C29731   3.849   3.488   7.263  0.4523 -1.0264  0.5833
  221MOL0     C29732   3.819   3.462   7.130 -0.1542  0.2317  0.4793
  221MOL0     C29733   3.689   3.430   7.096  0.9325 -0.3363  0.1026
  221MOL0     C29734   3.578   3.452   7.188 -0.2805 -0.9874  0.3544
  221MOL0     O29735   3.454   3.440   7.139 -0.5185  0.6329  0.7681
  221MOL0     C29736   3.358   3.542   7.171  0.7441  0.7526 -0.7347
  221MOL0     C29737   3.262   3.482   7.279  0.7821  0.2867  0.5664
  221MOL0     C29738   3.177   3.371   7.205  0.3763 -0.3226 -0.4990
  221MOL0     C29739   3.123   3.275   7.318  0.5626 -0.5615  0.5622
  221MOL0     C29740   2.978   3.306   7.352 -0.8779  0.4933  0.0105
  221MOL0     C29741   2.941   3.224   7.477 -0.4087  0.1516 -0.3628
  221MOL0     C29742   2.796   3.269   7.516  0.0258 -0.4520 -0.0160
  221MOL0     C29743   2.744   3.187   7.632  0.7565 -0.3600 -0.1741
  221MOL0    Cl29744   2.742   3.017   7.588  0.4620  0.2617 -0.1911
  221MOL0     C29745   3.608   3.499   7.320  1.2223  0.3974  0.0066
  221MOL0     C29746   3.741   3.513   7.358 -0.8366  0.2184  0.4191
  221MOL0     O29747   3.959   3.334   7.463  0.1370 -0.0106  0.0005
  221MOL0     C29748   4.257   3.522   7.389 -0.9786 -0.1580 -0.1485
  221MOL0     C29749   4.400   3.523   7.421  0.2745  0.4212 -1.0663
  221MOL0     N29750   4.392   3.763   7.918 -0.0097 -0.9701 -0.5175
  221MOL0     N29751   4.267   3.777   7.890 -0.1428  0.0467  0.3372
  221MOL0     C29752   3.337   2.865   7.613  0.4655 -0.5007 -0.6716
  221MOL0     C29753   3.213   2.799   7.601  0.4985 -0.0041  0.3576
  221MOL0     C29754   2.849   2.601   7.553  0.6599  0.1770  0.3043
  221MOL0     C29755   2.729   2.665   7.605 -0.0349  0.0934  0.1703
  221MOL0     C29756   2.601   2.629   7.550 -1.3228  0.1405 -0.9501
  221MOL0     C29757   2.601   2.548   7.442 -0.1249  0.3896  0.0975
  221MOL0     O29758   2.483   2.521   7.378  0.1196  0.3435  0.0059
  221MOL0     C29759   2.372   2.468   7.459  0.5303 -0.0748  0.0065
  221MOL0     C29760   2.263   2.414   7.367  0.3470  0.7528  0.3249
  221MOL0     C29761   2.127   2.430   7.438 -0.3801  0.5293  0.1725
  221MOL0     C29762   2.014   2.378   7.344 -1.1010  0.2733 -0.3175
  221MOL0     C29763   1.879   2.414   7.381  0.2694 -0.6656  0.2985
  221MOL0     C29764   1.770   2.453   7.416  0.2641  0.1956  1.0072
  221MOL0     C29765   2.716   2.481   7.395  0.0261 -0.2960  0.4677
  221MOL0     C29766   2.836   2.503   7.451 -0.8225 -0.2098  0.3731
  221MOL0     C29767   2.960   2.443   7.386  0.4893 -0.4689 -0.7533
  221MOL0     H29768   3.014   2.992   7.786 -0.1049 -0.2773 -0.3051
  221MOL0     H29769   3.228   3.111   7.828 -0.9034  1.0149 -0.3097
  221MOL0     H29770   3.380   3.234   7.741  1.0491  2.5829  0.4872
  221MOL0     H29771   3.496   3.176   7.859 -0.6681 -5.1127  0.1251
  221MOL0     H29772   3.540   3.231   7.562 -1.8367  0.1448  1.2363
  221MOL0     H29773   3.677   3.214   7.669  0.9998  1.0046 -2.3705
  221MOL0     H29774   3.468   3.426   7.671 -0.4946 -1.8001 -0.0524
  221MOL0     H29775   3.630   3.448   7.600  2.8061  0.5768  1.5512
  221MOL0     H29776   3.593   3.567   7.813 -0.0872  0.0252 -0.2078
  221MOL0     H29777   3.547   3.415   7.889 -2.5060 -3.7863 -4.0441
  221MOL0     H29778   3.786   3.487   7.953 -0.0868  0.3863 -0.3671
  221MOL0     H29779   3.788   3.335   7.862 -0.5508 -0.6450 -1.6128
  221MOL0     H29780   3.895   3.464   7.671  2.1551 -0.1843  0.7794
  221MOL0     H29781   3.828   3.612   7.728 -1.9036 -0.9557 -0.6263
  221MOL0     H29782   4.054   3.452   7.845 -1.2144 -0.8551 -1.6842
  221MOL0     H29783   3.994   3.591   7.934  2.8354  2.2438 -0.5480
  221MOL0     H29784   4.126   3.607   7.660 -0.0076 -1.4741  0.9120
  221MOL0     H29785   4.055   3.744   7.749  3.8186  1.1389 -2.8968
  221MOL0     H29786   4.313   3.478   7.781  2.4296  0.6972 -1.8954
  221MOL0     H29787   4.591   3.580   7.986 -0.9590  0.7825  0.4543
  221MOL0     H29788   4.554   3.481   7.837  0.0790 -0.7683  1.0040
  221MOL0     H29789   4.647   3.775   7.813 -1.3934 -0.2883 -0.4658
  221MOL0     H29790   4.766   3.645   7.808  0.7296  2.2607 -0.8383
  221MOL0     H29791   4.688   3.749   7.589 -0.6549  0.7845  0.9473
  221MOL0     H29792   4.528   3.681   7.635  0.3334  1.7088 -0.1398
  221MOL0     H29793   4.773   3.507   7.584 -1.1137 -2.2164 -0.1089
  221MOL0     H29794   4.664   3.563   7.453 -2.5666 -0.4630 -0.1739
  221MOL0     H29795   4.397   3.265   7.657 -0.5238 -0.4260 -0.2829
  221MOL0     H29796   4.175   3.243   7.576  1.9579 -1.7439 -0.3321
  221MOL0     H29797   3.898   3.453   7.056 -0.8907 -0.5088 -0.2251
  221MOL0     H29798   3.667   3.383   7.001 -3.1253  0.3143  0.5418
  221MOL0     H29799   3.408   3.633   7.207 -2.4904  2.7733 -0.9274
  221MOL0     H29800   3.306   3.576   7.081 -2.4549 -1.9092 -0.0446
  221MOL0     H29801   3.319   3.452   7.367  0.8074 -1.0552  0.1116
  221MOL0     H29802   3.192   3.555   7.320  1.0043 -0.5822  2.6273
  221MOL0     H29803   3.093   3.421   7.155  0.1475  2.1699  2.1477
  221MOL0     H29804   3.250   3.322   7.139 -1.8215 -1.9650 -1.8657
  221MOL0     H29805   3.193   3.277   7.402 -1.1395  0.2369  2.0240
  221MOL0     H29806   3.127   3.171   7.283  1.3036  0.2394 -1.9356
  221MOL0     H29807   2.907   3.282   7.272 -3.1536 -0.0316  2.0644
  221MOL0     H29808   2.961   3.411   7.376 -1.4602  0.4565 -0.2250
  221MOL0     H29809   2.948   3.117   7.455  0.3106  0.2107 -0.4483
  221MOL0     H29810   3.008   3.254   7.558  0.7536 -1.3323 -0.7337
  221MOL0     H29811   2.726   3.259   7.434  0.1604  0.7505 -0.2935
  221MOL0     H29812   2.803   3.374   7.545  0.2652 -0.0931 -1.3253
  221MOL0     H29813   2.801   3.200   7.724 -2.2441  0.3207  1.7232
  221MOL0     H29814   2.638   3.214   7.639  2.0983  6.2602  2.4912
  221MOL0     H29815   3.532   3.517   7.395 -0.6817 -2.0089 -1.1952
  221MOL0     H29816   3.773   3.555   7.453  1.8550  0.6980 -0.5991
  221MOL0     H29817   4.231   3.610   7.331  2.4965  2.4456  1.8335
  221MOL0     H29818   4.464   3.588   7.362 -0.5964  0.3139 -2.1718
  221MOL0     H29819   3.422   2.823   7.561  0.7921 -2.5891  1.3929
  221MOL0     H29820   3.218   2.710   7.539 -0.7419 -0.4246  0.8239
  221MOL0     H29821   2.743   2.735   7.687  1.7858 -0.1708  0.1431
  221MOL0     H29822   2.511   2.666   7.597 -0.9729 -1.1048  0.8161
  221MOL0     H29823   2.335   2.544   7.528 -2.7153 -1.5201  0.0380
  221MOL0     H29824   2.409   2.385   7.521  5.3230  2.0947  0.5269
  221MOL0     H29825   2.301   2.312   7.367  4.2050  2.0435  1.4727
  221MOL0     H29826   2.269   2.451   7.264  0.1620  0.6209  0.2663
  221MOL0     H29827   2.104   2.535   7.457  1.2626  1.4933 -2.5302
  221MOL0     H29828   2.122   2.377   7.533 -1.1016  1.6437  0.7718
  221MOL0     H29829   2.030   2.416   7.242  1.9832  0.3858  0.1310
  221MOL0     H29830   2.016   2.269   7.339  1.4229  0.1244  1.9113
  221MOL0     H29831   1.679   2.507   7.435  1.0424  2.3315 -0.8701
  221MOL0     H29832   2.712   2.437   7.296  1.8370  1.0518 -0.2605
  221MOL0     H29833   3.020   2.522   7.341 -1.6448  1.3804 -0.4980
  221MOL0     H29834   3.023   2.394   7.461  2.2081  2.5052 -0.1051
  221MOL0     H29835   2.929   2.368   7.312 -4.7709 -0.8423  1.4003
  222MOL0     O29836   2.400   4.752   9.409  0.4115  0.6723  0.0666
  222MOL0     C29837   2.374   4.866   9.432 -0.1940 -0.3085  0.3711
  222MOL0     O29838   2.464   4.972   9.425  0.3395 -0.2896 -0.2080
  222MOL0     C29839   2.598   4.949   9.434  1.3522  0.1482 -0.8264
  222MOL0     C29840   2.659   4.989   9.560  0.2153  0.1893 -0.5593
  222MOL0     C29841   2.792   4.952   9.584  0.4513 -0.0546 -0.3332
  222MOL0     C29842   2.869   4.880   9.491  0.1081 -0.3195  0.6105
  222MOL0     O29843   3.000   4.862   9.519  0.3730 -0.5763 -0.0894
  222MOL0     C29844   3.086   4.785   9.427  0.2269  0.2558  0.4714
  222MOL0     C29845   3.233   4.813   9.463 -0.2417 -0.6968 -0.7932
  222MOL0     C29846   3.256   4.774   9.604  0.0550 -0.5690  0.1739
  222MOL0     C29847   3.407   4.782   9.653  1.4346 -0.0351  0.5423
  222MOL0     C29848   3.410   4.735   9.800  0.5639  0.0408 -0.0478
  222MOL0     C29849   3.549   4.687   9.838 -0.3923 -0.1299 -0.0871
  222MOL0     C29850   3.539   4.631   9.976  0.1554  0.4113  0.0951
  222MOL0     C29851   3.677   4.593  10.033 -0.8700 -0.8893 -0.1736
  222MOL0     N29852   3.766   4.506   9.950  0.7997 -1.1896 -0.7472
  222MOL0     C29853   3.739   4.377   9.917 -0.0437 -0.0410 -0.2868
  222MOL0     C29854   3.831   4.350   9.821 -1.0105 -0.2707  0.0969
  222MOL0     C29855   3.842   4.230   9.737 -0.3734 -0.0656 -0.1013
  222MOL0     C29856   3.876   4.107   9.814  0.2861 -0.0869  0.3191
  222MOL0     C29857   4.014   4.106   9.883  0.0415 -0.1106  0.6263
  222MOL0     C29858   4.133   4.106   9.780  0.3834 -0.7443  0.2510
  222MOL0     O29859   4.258   4.114   9.837 -0.0822  0.3989  0.3901
  222MOL0     C29860   4.337   3.998   9.830 -0.1277  0.4539 -0.5209
  222MOL0     C29861   4.474   4.010   9.836 -0.6657 -0.1039 -0.3401
  222MOL0     C29862   4.561   3.899   9.847 -0.2821  0.6511  0.0543
  222MOL0     C29863   4.508   3.766   9.849 -0.3462 -0.0621  0.9849
  222MOL0     C29864   4.602   3.647   9.865 -0.5551  0.0069 -0.7254
  222MOL0     O29865   4.735   3.673   9.883  0.7250  0.0477 -0.1145
  222MOL0     C29866   4.827   3.574   9.924 -0.5376 -0.4756 -0.3614
  222MOL0     C29867   4.951   3.582   9.854  0.0212  0.7571 -0.1946
  222MOL0     C29868   5.052   3.488   9.882 -0.1923  0.5553  0.1476
  222MOL0     C29869   5.038   3.388   9.979  0.4341  0.7658 -0.0213
  222MOL0     O29870   5.142   3.319  10.028 -0.0779  0.3912  0.1833
  222MOL0     C29871   5.141   3.186   9.978  0.3828  0.3130  0.6732
  222MOL0     C29872   5.253   3.099  10.037 -0.7657  0.3440  0.0622
  222MOL0     C29873   5.266   2.960   9.984  0.5020 -0.1377  1.2319
  222MOL0     C29874   5.357   2.865  10.071 -0.1675  0.0201  0.1293
  222MOL0     C29875   5.320   2.715  10.055 -0.8623  0.0481 -0.3470
  222MOL0     C29876   5.421   2.616  10.112  1.1747 -0.0444  0.2458
  222MOL0     C29877   5.376   2.473  10.111  0.7638 -0.0528 -0.3726
  222MOL0     C29878   5.461   2.366  10.194 -0.4943 -0.2025 -0.4507
  222MOL0    Cl29879   5.637   2.375  10.167 -0.0357  0.4236 -0.5309
  222MOL0     C29880   4.915   3.376  10.044  0.9229  0.5127  0.0213
  222MOL0     C29881   4.819   3.471  10.023  1.1620 -0.1490 -0.5257
  222MOL0     O29882   4.556   3.534   9.881  0.3544 -0.2884  0.3316
  222MOL0     C29883   4.367   3.749   9.852 -0.5816  0.0183  0.8654
  222MOL0     C29884   4.287   3.868   9.843 -0.7214  0.3853 -0.8388
  222MOL0     N29885   3.908   4.456   9.802 -0.7982  0.0638 -0.8799
  222MOL0     N29886   3.877   4.545   9.889  0.7544 -0.3551 -0.2657
  222MOL0     C29887   2.813   4.838   9.370  0.5729  0.7053 -0.0249
  222MOL0     C29888   2.676   4.869   9.344 -0.6445 -0.3491 -0.4713
  222MOL0     C29889   2.230   4.897   9.463 -0.1909  0.1007 -0.2036
  222MOL0     C29890   2.139   4.793   9.460 -0.2914  0.4079  0.4534
  222MOL0     C29891   2.002   4.812   9.474  0.0901  0.4269  0.3538
  222MOL0     C29892   1.952   4.946   9.479  0.3817  0.3353  0.5228
  222MOL0     O29893   1.824   4.983   9.472 -0.5462  0.1515 -0.1552
  222MOL0     C29894   1.721   4.876   9.480  0.6696  0.0490  0.0909
  222MOL0     C29895   1.603   4.956   9.527  0.0787  0.1470 -1.0768
  222MOL0     C29896   1.479   4.874   9.556 -0.7434  0.4754  0.3807
  222MOL0     C29897   1.378   4.953   9.640  0.1997  0.0086  0.2658
  222MOL0     C29898   1.267   4.872   9.685  0.7938  0.0155  0.1470
  222MOL0     C29899   1.193   4.778   9.702 -0.5875 -0.5557 -0.4500
  222MOL0     C29900   2.039   5.056   9.481 -0.5817  0.4282  0.5856
  222MOL0     C29901   2.180   5.031   9.478 -0.1335 -0.5220  0.1575
  222MOL0     C29902   2.262   5.155   9.497 -0.0583  0.3204 -0.7049
  222MOL0     H29903   2.592   5.038   9.630  1.0168 -3.1972  2.9033
  222MOL0     H29904   2.847   4.979   9.674  2.3198 -2.6394 -0.5915
  222MOL0     H29905   3.068   4.677   9.427  2.0250 -0.0723  0.5239
  222MOL0     H29906   3.077   4.828   9.326  0.7631 -1.7346 -0.4739
  222MOL0     H29907   3.260   4.918   9.447 -0.4796 -0.5929 -0.5048
  222MOL0     H29908   3.292   4.749   9.396 -1.4442 -2.0942 -0.5325
  222MOL0     H29909   3.227   4.671   9.623 -3.5902 -0.2592 -2.5344
  222MOL0     H29910   3.198   4.843   9.666 -0.6222 -0.0072 -1.0392
  222MOL0     H29911   3.464   4.713   9.591  1.1561  0.4122 -0.2212
  222MOL0     H29912   3.450   4.882   9.640  1.5155 -0.0695  0.5453
  222MOL0     H29913   3.376   4.815   9.867 -0.9361 -0.1363 -0.5684
  222MOL0     H29914   3.334   4.659   9.822 -0.1907  0.1265 -2.1818
  222MOL0     H29915   3.573   4.609   9.765 -0.1807  0.4223 -0.6221
  222MOL0     H29916   3.620   4.771   9.834  1.5200 -1.4526  2.8404
  222MOL0     H29917   3.478   4.540   9.977 -1.6059  1.5378 -0.2575
  222MOL0     H29918   3.488   4.707  10.036  0.3631  1.3792 -0.9223
  222MOL0     H29919   3.727   4.682  10.070 -1.1318 -1.5351  1.8290
  222MOL0     H29920   3.647   4.544  10.126  2.1976 -2.5592  0.0821
  222MOL0     H29921   3.657   4.309   9.937  2.0346 -1.9609  2.2401
  222MOL0     H29922   3.737   4.227   9.707 -0.3849 -0.7882  0.0034
  222MOL0     H29923   3.906   4.247   9.650  2.6763 -0.4449  1.8953
  222MOL0     H29924   3.803   4.110   9.896  0.9367  0.2358  0.9009
  222MOL0     H29925   3.854   4.013   9.763  0.1408 -0.7854  1.6166
  222MOL0     H29926   4.030   4.020   9.949  0.2231  0.9392  2.0196
  222MOL0     H29927   4.019   4.195   9.947 -3.1134  0.6841 -0.0953
  222MOL0     H29928   4.120   4.196   9.720 -0.3791 -0.4174  0.8954
  222MOL0     H29929   4.115   4.029   9.704 -1.1189 -0.2517  0.0847
  222MOL0     H29930   4.522   4.106   9.820 -0.2756 -0.6502 -2.8638
  222MOL0     H29931   4.666   3.913   9.868 -0.4060 -1.9641  3.3313
  222MOL0     H29932   4.957   3.656   9.775 -1.1097  0.3378 -0.6919
  222MOL0     H29933   5.151   3.507   9.843 -0.3775  0.3142 -0.4579
  222MOL0     H29934   5.046   3.140  10.004 -0.9796  2.4993 -0.1827
  222MOL0     H29935   5.129   3.177   9.870 -0.8234 -0.0212  0.8184
  222MOL0     H29936   5.354   3.132  10.011  0.0791 -0.4273  2.1378
  222MOL0     H29937   5.239   3.092  10.146 -2.2139 -1.5759 -0.1953
  222MOL0     H29938   5.166   2.917   9.980 -1.2931  3.7254  0.2312
  222MOL0     H29939   5.311   2.963   9.885  0.7297 -0.3073  1.3281
  222MOL0     H29940   5.359   2.895  10.177 -0.1312  1.5341 -0.2733
  222MOL0     H29941   5.461   2.886  10.045 -0.5693  1.8696 -0.1548
  222MOL0     H29942   5.310   2.690   9.949  0.0877  1.7020 -0.8780
  222MOL0     H29943   5.232   2.687  10.112 -0.6281 -1.6523 -0.7689
  222MOL0     H29944   5.501   2.619  10.036  0.7608  0.6986 -0.1716
  222MOL0     H29945   5.464   2.647  10.207  0.9247 -0.1062  0.3770
  222MOL0     H29946   5.369   2.441  10.007 -1.8621  1.7394 -0.8540
  222MOL0     H29947   5.277   2.464  10.158  1.0465 -1.3561  0.0211
  222MOL0     H29948   5.434   2.390  10.297  3.8327  1.7129  0.4690
  222MOL0     H29949   5.440   2.261  10.170  2.2061 -1.5047  2.1995
  222MOL0     H29950   4.916   3.293  10.113  2.1053 -0.2332 -0.8463
  222MOL0     H29951   4.729   3.463  10.083  1.8787 -2.1572  0.3663
  222MOL0     H29952   4.331   3.648   9.872 -1.0799 -0.5753 -2.4658
  222MOL0     H29953   4.180   3.853   9.853 -0.4131 -1.0358  0.7090
  222MOL0     H29954   2.855   4.773   9.295 -1.3380 -0.3577 -0.2474
  222MOL0     H29955   2.622   4.826   9.260 -0.4866  0.5923 -1.0736
  222MOL0     H29956   2.173   4.690   9.451 -2.9279 -0.7571  2.6434
  222MOL0     H29957   1.935   4.727   9.468 -0.1752  0.7234 -1.5271
  222MOL0     H29958   1.725   4.797   9.555 -0.5626  1.2539  1.4912
  222MOL0     H29959   1.700   4.824   9.386  3.7583 -1.5080  0.1240
  222MOL0     H29960   1.571   5.029   9.452  0.7115  1.5577 -0.0280
  222MOL0     H29961   1.621   5.005   9.624  0.3911 -0.3220 -0.8914
  222MOL0     H29962   1.514   4.790   9.616 -0.0423  0.5006  0.0127
  222MOL0     H29963   1.435   4.833   9.464  1.7696 -0.6950 -0.3880
  222MOL0     H29964   1.422   4.993   9.732 -0.9297  4.4421 -0.8469
  222MOL0     H29965   1.342   5.040   9.584 -1.3185 -1.4098 -1.0635
  222MOL0     H29966   1.145   4.688   9.735 -2.5232  1.6125  3.3204
  222MOL0     H29967   1.995   5.155   9.481 -1.6460 -0.0007 -1.4273
  222MOL0     H29968   2.218   5.243   9.543 -0.4766 -0.4277  0.3778
  222MOL0     H29969   2.344   5.127   9.563 -0.3019 -1.2977 -1.0387
  222MOL0     H29970   2.295   5.174   9.395  0.8096 -3.0037 -1.1807
  223MOL0     O29971   9.623  11.173   3.801 -0.1271  0.3158  0.1254
  223MOL0     C29972   9.603  11.167   3.922 -0.4485  0.2151  0.0134
  223MOL0     O29973   9.691  11.200   4.016 -0.2104  0.4974  0.3448
  223MOL0     C29974   9.817  11.228   3.973 -0.6417  0.9952  1.0545
  223MOL0     C29975   9.910  11.131   3.970 -0.9142 -0.3554 -0.6068
  223MOL0     C29976  10.047  11.158   3.949 -0.1149  0.0916 -0.1373
  223MOL0     C29977  10.090  11.288   3.916 -0.4474 -0.0857 -0.0187
  223MOL0     O29978  10.226  11.316   3.885 -0.4424  0.3027 -0.4398
  223MOL0     C29979  10.264  11.441   3.824  0.2070  0.3669  0.7176
  223MOL0     C29980  10.396  11.416   3.747 -0.2298 -0.5764 -0.3316
  223MOL0     C29981  10.460  11.542   3.704 -0.7266 -0.8844 -0.1280
  223MOL0     C29982  10.580  11.587   3.796 -0.0549 -1.6467  0.2261
  223MOL0     C29983  10.642  11.717   3.747  0.1287 -0.2020 -0.3611
  223MOL0     C29984  10.775  11.751   3.821 -0.5008  1.0772  0.1168
  223MOL0     C29985  10.836  11.886   3.792  0.4723  0.3407  0.2685
  223MOL0     C29986  10.988  11.887   3.776 -0.0052  0.2379  0.0765
  223MOL0     N29987  11.046  12.020   3.771  0.5969  0.6210  0.5073
  223MOL0     C29988  11.029  12.120   3.855 -0.1200 -0.7027 -0.7504
  223MOL0     C29989  11.122  12.216   3.830 -0.0107  1.0620 -0.8001
  223MOL0     C29990  11.144  12.345   3.908  0.6877  0.1271 -0.3352
  223MOL0     C29991  11.274  12.409   3.869 -0.0308 -1.0458  0.9179
  223MOL0     C29992  11.289  12.539   3.947 -0.5698  0.0880 -0.2556
  223MOL0     C29993  11.408  12.615   3.908 -0.1047 -0.3583 -0.4597
  223MOL0     O29994  11.416  12.672   3.775 -0.6338 -0.3502  0.4038
  223MOL0     C29995  11.544  12.697   3.718 -0.4049 -0.2681  0.5196
  223MOL0     C29996  11.670  12.683   3.775  0.1429 -0.4460  0.0750
  223MOL0     C29997  11.787  12.713   3.709 -0.0407  0.3599  0.3051
  223MOL0     C29998  11.780  12.775   3.588  0.3832  0.6180 -0.3673
  223MOL0     C29999  11.907  12.827   3.521 -0.5023 -0.2242 -0.7258
  223MOL0     O30000  12.022  12.824   3.594  0.0129 -0.5595 -0.1077
  223MOL0     C30001  12.142  12.865   3.547  0.6667  0.0317  0.5369
  223MOL0     C30002  12.251  12.819   3.620 -0.1601  0.4769  0.7560
  223MOL0     C30003  12.381  12.874   3.601 -0.1951 -0.0280  0.1646
  223MOL0     C30004  12.404  12.975   3.510 -0.2068 -0.5010  0.1387
  223MOL0     O30005  12.535  13.007   3.493 -0.2420 -0.9523 -0.6927
  223MOL0     C30006  12.571  13.071   3.371  0.6361  0.5187  0.3978
  223MOL0     C30007  12.719  13.100   3.374  0.3730  1.0289  0.6942
  223MOL0     C30008  12.794  12.966   3.398  0.3096  0.5463  0.1555
  223MOL0     C30009  12.944  12.990   3.404  0.3511  0.1624  0.9982
  223MOL0     C30010  12.998  13.105   3.488 -0.3826  0.2272 -0.1921
  223MOL0     C30011  13.155  13.105   3.495  0.0953 -0.6660  0.2930
  223MOL0     C30012  13.186  13.244   3.546  0.1968 -0.2054 -0.0930
  223MOL0     C30013  13.328  13.297   3.550  0.2390 -0.2545 -0.0608
  223MOL0    Cl30014  13.431  13.201   3.668  0.0033 -0.2154  0.2506
  223MOL0     C30015  12.297  13.019   3.428  0.3730  0.2574  0.7279
  223MOL0     C30016  12.167  12.967   3.449 -0.3154 -1.0749 -0.4547
  223MOL0     O30017  11.891  12.866   3.405 -0.0811 -1.0271 -0.6047
  223MOL0     C30018  11.655  12.794   3.524  0.0294  0.1651  0.7892
  223MOL0     C30019  11.545  12.755   3.595  0.5905 -0.5056  0.1450
  223MOL0     N30020  11.200  12.166   3.724 -0.6293 -0.5021  0.3755
  223MOL0     N30021  11.148  12.056   3.687  0.1729  0.4343 -0.3729
  223MOL0     C30022   9.990  11.388   3.922  0.2151 -0.5341  0.5738
  223MOL0     C30023   9.862  11.355   3.940  0.6079  0.5682  0.2146
  223MOL0     C30024   9.472  11.123   3.958  0.1725  0.0846  0.5694
  223MOL0     C30025   9.363  11.166   3.873 -0.2075  0.5471 -0.5452
  223MOL0     C30026   9.228  11.120   3.893 -0.5073  0.0112  0.4038
  223MOL0     C30027   9.200  11.043   4.001  0.1298  1.1593  0.4972
  223MOL0     O30028   9.069  11.007   4.021  0.7570  0.0499  0.0725
  223MOL0     C30029   9.027  10.906   4.117  0.1552 -0.5938  0.6397
  223MOL0     C30030   8.884  10.888   4.081  0.3099  0.1596 -0.3891
  223MOL0     C30031   8.815  10.781   4.171 -0.2594 -0.0479  0.2798
  223MOL0     C30032   8.661  10.794   4.175 -0.2515 -0.3431  0.4060
  223MOL0     C30033   8.598  10.682   4.110  0.5332  0.2931  0.3051
  223MOL0     C30034   8.565  10.574   4.051 -0.9369 -0.0144 -0.1776
  223MOL0     C30035   9.303  10.999   4.084 -0.3208 -0.5055 -0.4745
  223MOL0     C30036   9.438  11.036   4.063  0.2416  0.2080 -0.5235
  223MOL0     C30037   9.536  10.972   4.153  0.5610  0.0676 -0.7017
  223MOL0     H30038   9.887  11.026   3.986  2.5896 -1.2504 -0.6848
  223MOL0     H30039  10.124  11.081   3.951 -0.3766 -0.1572  0.4900
  223MOL0     H30040  10.185  11.461   3.751  0.5780 -0.6960 -0.0004
  223MOL0     H30041  10.276  11.526   3.892  2.0265  1.4105 -0.8302
  223MOL0     H30042  10.372  11.360   3.656 -0.4891  1.9932 -1.9298
  223MOL0     H30043  10.463  11.369   3.820  0.5396  0.7164 -0.1678
  223MOL0     H30044  10.386  11.622   3.706  0.1353 -0.0401 -1.2616
  223MOL0     H30045  10.492  11.525   3.601 -2.3987 -1.7112 -0.5622
  223MOL0     H30046  10.546  11.596   3.900 -1.6267  0.6516 -0.4123
  223MOL0     H30047  10.655  11.508   3.785 -0.8536 -2.1886 -1.8948
  223MOL0     H30048  10.666  11.710   3.640  2.4206  0.3072  0.0588
  223MOL0     H30049  10.565  11.795   3.748  1.1118  0.8068 -0.6975
  223MOL0     H30050  10.763  11.753   3.930 -3.6960 -1.6612 -0.0204
  223MOL0     H30051  10.845  11.673   3.791 -0.0887  1.8536 -1.0091
  223MOL0     H30052  10.800  11.953   3.869 -1.6894 -0.1479 -0.2529
  223MOL0     H30053  10.798  11.926   3.697 -0.1006 -0.4819  0.1375
  223MOL0     H30054  11.039  11.829   3.854  1.5444 -1.0048 -1.7743
  223MOL0     H30055  11.011  11.832   3.684 -0.0264 -1.7711  1.2028
  223MOL0     H30056  10.949  12.136   3.927  1.5928  3.6627  0.4875
  223MOL0     H30057  11.071  12.423   3.887 -0.8436 -0.7974  1.2287
  223MOL0     H30058  11.136  12.314   4.013  1.0337 -1.0826 -0.6401
  223MOL0     H30059  11.350  12.332   3.886  1.0969 -0.0478  0.5598
  223MOL0     H30060  11.282  12.446   3.766  1.2350 -0.6205  1.1531
  223MOL0     H30061  11.302  12.517   4.053  1.9159  0.1299 -0.5038
  223MOL0     H30062  11.201  12.604   3.938 -2.5808 -2.5359 -0.7233
  223MOL0     H30063  11.492  12.546   3.922 -0.5214 -0.6426  0.7511
  223MOL0     H30064  11.433  12.694   3.980  0.7196 -2.0550  1.1983
  223MOL0     H30065  11.675  12.640   3.875  1.9269  0.7368  0.5336
  223MOL0     H30066  11.879  12.688   3.761 -0.7806  2.6840  2.9261
  223MOL0     H30067  12.246  12.759   3.710  1.1333 -2.9381 -1.2765
  223MOL0     H30068  12.468  12.846   3.660  2.0452  1.4535 -2.2197
  223MOL0     H30069  12.535  13.011   3.287  2.4282 -1.0109  0.6489
  223MOL0     H30070  12.521  13.168   3.370  0.9926  0.7128  1.1704
  223MOL0     H30071  12.755  13.155   3.287 -0.0770  2.1511  1.1953
  223MOL0     H30072  12.729  13.159   3.465 -0.8368 -1.3831  2.5146
  223MOL0     H30073  12.771  12.924   3.495  0.1749 -1.5924 -0.7570
  223MOL0     H30074  12.776  12.883   3.329 -1.4301 -0.8210  2.1482
  223MOL0     H30075  12.983  13.001   3.302  1.8645 -1.5080  1.3574
  223MOL0     H30076  12.999  12.905   3.444 -1.8748 -0.4061  3.0718
  223MOL0     H30077  12.961  13.097   3.590 -0.7878 -0.0655 -0.3601
  223MOL0     H30078  12.953  13.199   3.452 -0.5061  0.4390  0.5118
  223MOL0     H30079  13.181  13.012   3.547 -0.9592 -1.1736 -0.0694
  223MOL0     H30080  13.191  13.095   3.392 -0.6674  0.9244 -0.1503
  223MOL0     H30081  13.146  13.249   3.648  1.0843  0.4948  0.2400
  223MOL0     H30082  13.136  13.318   3.483  2.0401 -0.5424 -2.0759
  223MOL0     H30083  13.364  13.301   3.447 -2.3972 -3.1134 -1.2673
  223MOL0     H30084  13.311  13.399   3.586 -1.0850 -0.0673 -1.1376
  223MOL0     H30085  12.319  13.080   3.341  2.1201 -0.3943  0.6619
  223MOL0     H30086  12.092  13.006   3.381 -0.1244 -2.4195 -1.4592
  223MOL0     H30087  11.642  12.827   3.422 -1.0996  1.2631  1.2648
  223MOL0     H30088  11.448  12.771   3.548  0.1321  0.0690  1.2434
  223MOL0     H30089  10.011  11.494   3.912 -2.9481  0.0991 -0.4565
  223MOL0     H30090   9.792  11.434   3.962 -0.8748  0.3837 -3.1501
  223MOL0     H30091   9.392  11.234   3.794 -1.2214  0.8622 -0.6587
  223MOL0     H30092   9.152  11.164   3.829 -0.0238 -1.9079 -1.6005
  223MOL0     H30093   9.039  10.945   4.218  1.6619  2.5971 -0.6264
  223MOL0     H30094   9.082  10.813   4.104 -1.5957 -1.9279  2.2149
  223MOL0     H30095   8.874  10.872   3.974  0.2835  0.4779 -0.4369
  223MOL0     H30096   8.831  10.981   4.104  1.5056  0.1686  3.0265
  223MOL0     H30097   8.853  10.784   4.273  0.5847 -0.1318 -0.0188
  223MOL0     H30098   8.851  10.679   4.152 -0.4220 -0.3102  1.3029
  223MOL0     H30099   8.622  10.798   4.277  1.5247 -2.4487  1.2457
  223MOL0     H30100   8.628  10.882   4.119  0.2994  0.4393  1.2858
  223MOL0     H30101   8.533  10.490   3.992  2.2058 -0.0198 -2.0740
  223MOL0     H30102   9.287  10.924   4.162  1.3373 -2.2942 -1.7767
  223MOL0     H30103   9.491  10.879   4.189  0.0261 -0.2680 -2.1365
  223MOL0     H30104   9.629  10.938   4.108  1.0292  0.4326 -0.0300
  223MOL0     H30105   9.553  11.028   4.245  0.5310 -0.1405 -0.5685
  224MOL0     O30106   1.806   7.139  10.834  0.0336  0.5775  0.6143
  224MOL0     C30107   1.739   7.041  10.805  0.6778 -0.5314  0.1098
  224MOL0     O30108   1.794   6.929  10.752 -0.4838  0.0011 -0.9348
  224MOL0     C30109   1.924   6.917  10.708 -0.3155 -0.0543  0.1659
  224MOL0     C30110   2.008   6.852  10.796  0.0247 -0.5093 -0.1018
  224MOL0     C30111   2.140   6.815  10.753 -0.2180 -0.0970 -0.6320
  224MOL0     C30112   2.189   6.847  10.625 -0.7237 -0.6800 -0.3691
  224MOL0     O30113   2.313   6.817  10.600  0.2997  0.1983 -0.5736
  224MOL0     C30114   2.388   6.924  10.543  0.1747 -0.5543  0.6340
  224MOL0     C30115   2.534   6.886  10.539 -0.2068  0.8550  0.4977
  224MOL0     C30116   2.622   6.985  10.452  0.4083 -0.3202 -0.2589
  224MOL0     C30117   2.771   6.951  10.457 -1.2895 -0.6131 -0.0963
  224MOL0     C30118   2.848   7.056  10.381  0.2163 -0.1209 -0.6571
  224MOL0     C30119   2.987   6.993  10.346 -0.1747  0.0353  0.2448
  224MOL0     C30120   3.061   7.085  10.249  0.2790 -0.3472  0.7676
  224MOL0     C30121   3.174   7.002  10.172 -0.4101 -0.5676 -0.2990
  224MOL0     N30122   3.309   7.015  10.237 -0.2191  0.0716 -0.1821
  224MOL0     C30123   3.336   7.097  10.346 -0.5961 -1.0388  0.0014
  224MOL0     C30124   3.471   7.098  10.354 -0.3561 -0.4905  0.7267
  224MOL0     C30125   3.556   7.188  10.437  0.5063  0.5597 -1.1711
  224MOL0     C30126   3.634   7.110  10.544 -0.4695 -0.0269 -0.1016
  224MOL0     C30127   3.742   7.026  10.494  0.8272 -0.4640  0.2536
  224MOL0     C30128   3.845   7.099  10.399  0.6954 -1.0350  0.6178
  224MOL0     O30129   3.950   7.012  10.365 -0.2424  0.5802 -0.2913
  224MOL0     C30130   4.061   7.075  10.314  0.4735  0.3606  0.0324
  224MOL0     C30131   4.175   6.990  10.317 -0.0821 -0.0933 -0.7372
  224MOL0     C30132   4.303   7.033  10.280  0.0805  0.0997  1.5069
  224MOL0     C30133   4.323   7.164  10.224  0.9371 -0.2585 -0.6458
  224MOL0     C30134   4.465   7.218  10.210  0.3077 -0.8942  0.4061
  224MOL0     O30135   4.568   7.132  10.254 -0.3347 -0.5495  0.2138
  224MOL0     C30136   4.699   7.179  10.249  0.7839 -0.0914  0.2126
  224MOL0     C30137   4.736   7.296  10.317  0.7037  0.2070  0.5769
  224MOL0     C30138   4.872   7.336  10.323 -0.0557 -0.3201  0.2721
  224MOL0     C30139   4.972   7.258  10.253  0.4368 -0.6323  0.1598
  224MOL0     O30140   5.104   7.310  10.259  0.5258  0.1156  0.5083
  224MOL0     C30141   5.210   7.251  10.182  0.0881  0.0880 -0.8639
  224MOL0     C30142   5.335   7.295  10.254 -0.0743  0.7737 -0.2933
  224MOL0     C30143   5.476   7.246  10.198 -0.1192 -1.4019  0.0052
  224MOL0     C30144   5.591   7.287  10.297  1.2107 -0.1514  0.2758
  224MOL0     C30145   5.728   7.232  10.251  0.1381 -0.1033  0.0492
  224MOL0     C30146   5.842   7.298  10.330 -0.0004 -0.0834  0.4599
  224MOL0     C30147   5.976   7.250  10.270  0.1963 -1.0755  0.0862
  224MOL0     C30148   6.094   7.315  10.337  1.0245  0.4885  0.7911
  224MOL0    Cl30149   6.251   7.243  10.269 -0.0522  0.0306 -0.2430
  224MOL0     C30150   4.925   7.140  10.182  0.6818 -0.2804  0.0066
  224MOL0     C30151   4.792   7.098  10.184 -0.0695 -0.5883 -0.2079
  224MOL0     O30152   4.482   7.336  10.177  0.6376 -0.1838  0.1600
  224MOL0     C30153   4.204   7.243  10.205 -0.0520 -0.1473 -0.3610
  224MOL0     C30154   4.074   7.204  10.246  0.6590 -0.4279 -0.3862
  224MOL0     N30155   3.519   7.023  10.249 -0.0097  1.2205  1.0325
  224MOL0     N30156   3.421   6.975  10.181  0.2395  0.3465 -0.2808
  224MOL0     C30157   2.101   6.908  10.536  0.2790 -0.1525 -1.1881
  224MOL0     C30158   1.970   6.942  10.573 -0.2778  0.1651 -0.6035
  224MOL0     C30159   1.590   7.035  10.832 -0.0730  0.3698 -0.0921
  224MOL0     C30160   1.533   6.908  10.845 -0.1615 -0.6011  0.7051
  224MOL0     C30161   1.397   6.887  10.884  0.1863  0.2506 -0.3540
  224MOL0     C30162   1.305   7.001  10.908 -0.9421  0.3681  0.2815
  224MOL0     O30163   1.171   7.012  10.949  0.4645 -0.2968 -0.2138
  224MOL0     C30164   1.085   6.903  10.981  0.1073 -0.1495 -0.3905
  224MOL0     C30165   1.055   6.824  10.847  0.0636 -0.0810 -0.1228
  224MOL0     C30166   0.955   6.712  10.863 -0.2405 -0.2888 -0.7919
  224MOL0     C30167   0.978   6.638  10.990  0.3595 -0.5519  0.1255
  224MOL0     C30168   1.110   6.578  10.986  1.1488 -0.0279  0.6670
  224MOL0     C30169   1.211   6.511  10.986  0.1833 -0.7977  0.3702
  224MOL0     C30170   1.374   7.127  10.904  0.2492  0.4173 -0.7240
  224MOL0     C30171   1.509   7.141  10.883  0.2403  0.6603  0.2348
  224MOL0     C30172   1.565   7.276  10.911 -0.4536  0.0693  0.4647
  224MOL0     H30173   1.976   6.827  10.897 -0.1655  1.7445  0.4581
  224MOL0     H30174   2.203   6.773  10.831  1.4208  0.0270 -1.8443
  224MOL0     H30175   2.354   6.941  10.440  1.1951 -2.6928 -0.1058
  224MOL0     H30176   2.384   7.024  10.588  0.9487 -0.2265  0.0084
  224MOL0     H30177   2.526   6.788  10.491 -0.3501  1.3850 -0.6016
  224MOL0     H30178   2.573   6.870  10.640 -0.2366  1.5261  0.6195
  224MOL0     H30179   2.611   7.078  10.508  1.0699 -0.6420  0.4264
  224MOL0     H30180   2.578   6.999  10.352 -2.7947  2.4969  1.3600
  224MOL0     H30181   2.805   6.934  10.560 -1.3402 -2.1428 -0.3103
  224MOL0     H30182   2.790   6.860  10.399  2.2442 -1.6001  2.2986
  224MOL0     H30183   2.790   7.089  10.294  1.1193  3.0001 -0.1873
  224MOL0     H30184   2.857   7.147  10.440 -1.2764 -0.2374 -0.2198
  224MOL0     H30185   3.044   6.971  10.436  1.0142  0.7140 -0.3277
  224MOL0     H30186   2.960   6.899  10.296 -0.0006  0.7672 -1.2769
  224MOL0     H30187   3.101   7.172  10.301  2.6559 -1.1724  0.4511
  224MOL0     H30188   2.986   7.112  10.174 -0.9426 -0.1542  2.0108
  224MOL0     H30189   3.148   6.896  10.160 -1.7416 -0.3316  0.3077
  224MOL0     H30190   3.193   7.048  10.074  1.0380 -0.2257  0.1263
  224MOL0     H30191   3.272   7.137  10.423 -0.9503  1.0430 -1.2984
  224MOL0     H30192   3.625   7.247  10.376 -1.7919  4.4602 -0.3607
  224MOL0     H30193   3.491   7.264  10.483 -0.7950 -1.2021  0.0308
  224MOL0     H30194   3.675   7.184  10.615  0.6337  1.3827 -2.1169
  224MOL0     H30195   3.565   7.047  10.600 -0.1853 -1.0940 -0.9232
  224MOL0     H30196   3.693   6.943  10.443  4.6307 -0.5313 -3.9762
  224MOL0     H30197   3.798   6.991  10.581 -1.7304 -0.1598  2.1268
  224MOL0     H30198   3.886   7.192  10.439  0.9496 -1.0297  0.3462
  224MOL0     H30199   3.801   7.127  10.303  2.3572  2.1953  0.6633
  224MOL0     H30200   4.163   6.887  10.350 -0.9592 -0.8019 -3.0544
  224MOL0     H30201   4.370   6.953  10.309 -1.5874 -1.3738  1.4614
  224MOL0     H30202   4.662   7.368  10.350 -1.7377 -1.0302 -1.8181
  224MOL0     H30203   4.909   7.426  10.371  1.6824 -0.4928 -0.6604
  224MOL0     H30204   5.207   7.142  10.180 -1.5850 -0.0367  2.2989
  224MOL0     H30205   5.196   7.296  10.083 -0.2170  1.8377 -0.0634
  224MOL0     H30206   5.337   7.404  10.263  0.2265  0.7392  0.0861
  224MOL0     H30207   5.325   7.259  10.357  1.9746 -1.8544 -0.9255
  224MOL0     H30208   5.469   7.139  10.181  1.7523 -1.4246 -0.8970
  224MOL0     H30209   5.496   7.293  10.101 -0.1420 -2.1375 -0.3635
  224MOL0     H30210   5.561   7.248  10.395  1.9318  0.0636  0.5887
  224MOL0     H30211   5.586   7.396  10.298  2.0306 -0.1097  0.4476
  224MOL0     H30212   5.744   7.261  10.147  1.5101 -3.6863 -0.9015
  224MOL0     H30213   5.733   7.123  10.257 -0.9647 -0.1085  1.5225
  224MOL0     H30214   5.826   7.406  10.320 -3.5011 -0.6068 -1.3279
  224MOL0     H30215   5.840   7.275  10.437 -0.3287 -1.5265  0.1679
  224MOL0     H30216   5.982   7.269  10.163 -0.7261  2.9232  0.5509
  224MOL0     H30217   5.986   7.143  10.290 -2.2110 -1.0730  1.7248
  224MOL0     H30218   6.081   7.416  10.299 -2.6131 -0.5900 -1.3467
  224MOL0     H30219   6.100   7.308  10.446  0.8569  0.4854  0.8010
  224MOL0     H30220   4.994   7.067  10.142  0.3670 -2.1060  2.5071
  224MOL0     H30221   4.763   7.006  10.134 -0.3925 -1.5194  1.5755
  224MOL0     H30222   4.230   7.339  10.162  2.0456 -0.6670 -0.3813
  224MOL0     H30223   3.995   7.277  10.234  1.8619  1.1818  0.9758
  224MOL0     H30224   2.145   6.946  10.444  1.7281 -0.5282 -0.6821
  224MOL0     H30225   1.900   6.996  10.511 -0.1491 -0.1741 -1.0481
  224MOL0     H30226   1.594   6.821  10.821  1.4960 -0.3051  3.4470
  224MOL0     H30227   1.364   6.784  10.889 -1.2101  0.7151  0.4359
  224MOL0     H30228   0.985   6.941  11.000 -0.1523  1.6473 -4.3758
  224MOL0     H30229   1.120   6.846  11.067 -2.5928  0.7869  1.4466
  224MOL0     H30230   1.155   6.794  10.817 -0.2179  1.6972 -3.4011
  224MOL0     H30231   1.026   6.892  10.765 -0.3735 -0.9606 -0.7123
  224MOL0     H30232   0.955   6.645  10.776 -0.8314  0.8090 -1.6643
  224MOL0     H30233   0.854   6.755  10.866 -1.0354 -2.0565 -0.4957
  224MOL0     H30234   0.969   6.705  11.076 -0.6175 -0.3818 -0.0959
  224MOL0     H30235   0.903   6.559  11.002 -1.6192  1.5570  3.5630
  224MOL0     H30236   1.300   6.451  10.984 -2.0888 -4.5545 -2.9791
  224MOL0     H30237   1.310   7.210  10.932  0.7302  1.4015 -2.4086
  224MOL0     H30238   1.491   7.349  10.946 -0.1029 -1.2209  4.2650
  224MOL0     H30239   1.644   7.261  10.984 -0.2448 -0.5644  0.1141
  224MOL0     H30240   1.618   7.312  10.822 -0.0711 -3.4284 -0.8488
  225MOL0     O30241   5.181   8.793  10.245 -0.0613  0.1945  0.3082
  225MOL0     C30242   5.160   8.860  10.347 -0.7058  0.4981  0.0801
  225MOL0     O30243   5.237   8.971  10.382  0.2447  0.1602 -0.6947
  225MOL0     C30244   5.340   9.011  10.304  0.3935  0.2082  1.2830
  225MOL0     C30245   5.455   8.923  10.289  0.3818  0.4576  0.9215
  225MOL0     C30246   5.572   8.967  10.214 -0.4611  1.0597  0.2084
  225MOL0     C30247   5.578   9.087  10.154 -0.2085 -0.9098  0.1468
  225MOL0     O30248   5.693   9.111  10.085  0.2491 -0.3803 -0.0378
  225MOL0     C30249   5.702   9.242  10.032 -1.0168 -0.1206 -0.3941
  225MOL0     C30250   5.827   9.241   9.943  1.4340 -0.1726  0.5760
  225MOL0     C30251   5.957   9.248  10.024  0.2209 -0.0879 -0.0082
  225MOL0     C30252   6.025   9.379   9.996  0.0196  0.1834  0.0721
  225MOL0     C30253   6.165   9.390  10.051 -0.9935 -0.3219  0.5088
  225MOL0     C30254   6.186   9.380  10.203 -0.6641 -1.1189  0.5015
  225MOL0     C30255   6.337   9.388  10.238  0.6198 -0.4133 -0.2667
  225MOL0     C30256   6.400   9.257  10.199 -0.4230  0.0617 -0.3694
  225MOL0     N30257   6.544   9.250  10.218  0.6259  0.3914  0.1049
  225MOL0     C30258   6.640   9.323  10.146 -0.0012  0.8018  0.3327
  225MOL0     C30259   6.750   9.307  10.224  0.3638  0.0390 -0.0512
  225MOL0     C30260   6.887   9.370  10.220 -0.6724  0.1862  0.2077
  225MOL0     C30261   6.981   9.299  10.122 -0.1994  0.7179 -0.6014
  225MOL0     C30262   7.121   9.359  10.123  0.1651  0.4207  0.6655
  225MOL0     C30263   7.215   9.299  10.016  0.2664 -0.5506 -1.1513
  225MOL0     O30264   7.185   9.350   9.885  0.1304 -0.1861 -0.5603
  225MOL0     C30265   7.274   9.433   9.824  0.0468 -0.3079 -0.2024
  225MOL0     C30266   7.271   9.442   9.687 -0.6003  0.5324 -0.0437
  225MOL0     C30267   7.335   9.542   9.622 -0.5562  0.0043  0.7607
  225MOL0     C30268   7.407   9.643   9.688 -0.3277  0.0863  0.2004
  225MOL0     C30269   7.456   9.750   9.611 -0.2003  0.2751  0.5676
  225MOL0     O30270   7.463   9.735   9.480  0.1762  0.4792  0.5959
  225MOL0     C30271   7.521   9.833   9.404  0.1530  0.4634  0.5593
  225MOL0     C30272   7.645   9.886   9.419 -0.7057  1.0597  0.8262
  225MOL0     C30273   7.701   9.959   9.314 -0.4773  0.3885  0.5427
  225MOL0     C30274   7.623   9.990   9.199 -0.3090 -0.5407 -0.6354
  225MOL0     O30275   7.670  10.063   9.097  0.3440 -0.5831  0.4366
  225MOL0     C30276   7.799  10.117   9.094  0.2589  0.4182 -0.0823
  225MOL0     C30277   7.841  10.168   8.955 -0.3172  0.2197  0.3826
  225MOL0     C30278   7.988  10.231   8.952  0.3240  0.3175  0.1904
  225MOL0     C30279   8.039  10.270   8.813 -0.3675 -1.1175  0.7769
  225MOL0     C30280   8.180  10.340   8.817 -0.1171  0.1617  0.3710
  225MOL0     C30281   8.216  10.387   8.677 -0.2099  0.4665 -0.1751
  225MOL0     C30282   8.340  10.477   8.689 -0.0314  0.7396  1.0377
  225MOL0     C30283   8.405  10.501   8.560 -0.1765  0.3989  0.7475
  225MOL0    Cl30284   8.541  10.608   8.591 -0.1770  0.2687  0.0183
  225MOL0     C30285   7.498   9.934   9.190  0.2438  0.3531  0.4176
  225MOL0     C30286   7.446   9.856   9.286 -0.3038 -0.4602 -0.3646
  225MOL0     O30287   7.469   9.852   9.673  0.0388 -1.1792 -0.4140
  225MOL0     C30288   7.411   9.634   9.832  0.0453 -0.1911  0.4504
  225MOL0     C30289   7.347   9.528   9.895  0.2316  0.1882  0.1728
  225MOL0     N30290   6.718   9.233  10.340  0.3351  0.1844 -0.0948
  225MOL0     N30291   6.600   9.188  10.330 -0.2399 -0.4937  0.3610
  225MOL0     C30292   5.464   9.174  10.172  0.1724  0.3655  0.7827
  225MOL0     C30293   5.347   9.135  10.247 -0.0549  0.3255  0.6902
  225MOL0     C30294   5.036   8.837  10.418  0.7804  0.4355  0.0546
  225MOL0     C30295   4.919   8.790  10.349 -0.4327  0.3834 -0.5948
  225MOL0     C30296   4.798   8.775  10.408 -0.0854  0.5885 -0.7506
  225MOL0     C30297   4.772   8.789  10.542  0.1642 -0.1778  0.4443
  225MOL0     O30298   4.655   8.762  10.602  0.8056  0.6557 -0.2162
  225MOL0     C30299   4.644   8.634  10.682 -0.2496 -0.1734  0.8809
  225MOL0     C30300   4.510   8.609  10.759  0.5123 -0.6697  0.0749
  225MOL0     C30301   4.382   8.665  10.684  0.4980 -0.0877  0.0701
  225MOL0     C30302   4.266   8.684  10.780  0.0538 -0.4189 -1.0414
  225MOL0     C30303   4.134   8.696  10.712 -0.4440  0.3762 -0.0824
  225MOL0     C30304   4.025   8.690  10.663  0.2453  0.3670 -0.7771
  225MOL0     C30305   4.881   8.837  10.614 -0.5502  0.2160  0.3255
  225MOL0     C30306   5.014   8.871  10.558 -0.0929 -0.3270 -0.5066
  225MOL0     C30307   5.111   8.933  10.657 -0.3429 -0.1481  0.1905
  225MOL0     H30308   5.457   8.829  10.342  1.6310  0.2245  0.5077
  225MOL0     H30309   5.649   8.893  10.203 -1.1338  0.2193  0.9691
  225MOL0     H30310   5.616   9.246   9.964  0.2972 -0.2722 -2.1229
  225MOL0     H30311   5.702   9.320  10.109 -2.6910  0.4924 -0.9757
  225MOL0     H30312   5.824   9.324   9.872  1.8281  0.0251  0.7874
  225MOL0     H30313   5.830   9.144   9.892 -1.9953  1.2998 -3.0066
  225MOL0     H30314   6.029   9.176   9.984  0.9326  1.5637 -1.8506
  225MOL0     H30315   5.957   9.221  10.130  0.4281 -2.6483 -0.6088
  225MOL0     H30316   6.029   9.400   9.889  1.3263 -1.1343 -0.1701
  225MOL0     H30317   5.963   9.452  10.050 -4.4021 -3.5616  0.7463
  225MOL0     H30318   6.220   9.309  10.002  2.3201  1.0380  1.6702
  225MOL0     H30319   6.198   9.492  10.028 -0.7272  0.0209  2.2505
  225MOL0     H30320   6.143   9.469  10.250  1.8135 -0.0261  0.8227
  225MOL0     H30321   6.145   9.285  10.239 -1.2182 -1.7254 -1.5761
  225MOL0     H30322   6.357   9.412  10.343  1.4594  0.6592 -0.6567
  225MOL0     H30323   6.375   9.468  10.173  1.7303 -0.3776  0.4057
  225MOL0     H30324   6.357   9.185  10.270 -1.8816 -1.3096 -2.5217
  225MOL0     H30325   6.383   9.234  10.093 -0.1039 -0.1379 -0.3781
  225MOL0     H30326   6.630   9.391  10.062  3.1282 -0.4906 -1.2649
  225MOL0     H30327   6.881   9.475  10.191  3.5640  0.9552  1.5226
  225MOL0     H30328   6.932   9.363  10.320 -2.1138 -4.1104  0.8124
  225MOL0     H30329   6.995   9.199  10.163 -1.1259  0.8055 -0.0498
  225MOL0     H30330   6.932   9.297  10.024 -2.1898 -0.6183  0.3736
  225MOL0     H30331   7.174   9.345  10.217  1.0173  2.9547  0.6164
  225MOL0     H30332   7.115   9.468  10.114  2.6176  0.5131 -0.8426
  225MOL0     H30333   7.202   9.191  10.003 -2.2828 -0.3011 -1.1553
  225MOL0     H30334   7.319   9.324  10.041  0.1764 -2.5235  1.6643
  225MOL0     H30335   7.207   9.373   9.634  1.2487  2.0848 -4.9255
  225MOL0     H30336   7.344   9.527   9.514  0.0589 -1.1870  0.9551
  225MOL0     H30337   7.705   9.863   9.506 -0.1918  0.3375  0.2960
  225MOL0     H30338   7.800  10.001   9.331  0.5479 -1.9389  0.7673
  225MOL0     H30339   7.808  10.190   9.175 -2.7188  0.2668  0.4934
  225MOL0     H30340   7.870  10.037   9.117  0.0806  0.0151 -0.9040
  225MOL0     H30341   7.836  10.082   8.888 -1.6485  0.6715 -0.1165
  225MOL0     H30342   7.768  10.238   8.914 -0.6684  0.1612  0.8938
  225MOL0     H30343   7.994  10.327   9.004  0.6704  0.9407 -0.9664
  225MOL0     H30344   8.051  10.161   9.008  0.4363 -0.0033 -0.3331
  225MOL0     H30345   7.968  10.337   8.765 -2.2816 -2.4762  1.5606
  225MOL0     H30346   8.044  10.177   8.756  2.3750 -0.8215  0.4332
  225MOL0     H30347   8.254  10.267   8.849  0.4689 -0.4347 -2.1629
  225MOL0     H30348   8.183  10.429   8.880  0.0855  0.6442 -0.3105
  225MOL0     H30349   8.239  10.296   8.621 -1.9906  1.1796 -2.2406
  225MOL0     H30350   8.141  10.447   8.623  1.1526  1.7692 -0.6973
  225MOL0     H30351   8.408  10.443   8.768 -1.0749 -1.2697  1.1610
  225MOL0     H30352   8.304  10.574   8.723 -3.3733  0.1442 -0.4124
  225MOL0     H30353   8.434  10.406   8.513  1.7307  2.9134 -3.9054
  225MOL0     H30354   8.349  10.551   8.480  0.6143  0.7909  0.4214
  225MOL0     H30355   7.441   9.951   9.099  0.5777 -2.3604 -0.3977
  225MOL0     H30356   7.349   9.818   9.256 -1.9646  3.5686 -0.8319
  225MOL0     H30357   7.462   9.712   9.888  1.3428 -0.6504 -0.0424
  225MOL0     H30358   7.328   9.535  10.002 -0.0205  0.6445  0.1017
  225MOL0     H30359   5.465   9.273  10.128  5.3332  0.4955  0.5677
  225MOL0     H30360   5.261   9.200  10.262  0.6174  1.5099 -0.3890
  225MOL0     H30361   4.923   8.783  10.241 -1.4526  1.6080 -0.7322
  225MOL0     H30362   4.725   8.725  10.345 -0.9570 -0.5615  1.0850
  225MOL0     H30363   4.730   8.637  10.749 -0.6757  2.0062  1.3957
  225MOL0     H30364   4.657   8.554  10.609  1.1355  2.0120 -1.4289
  225MOL0     H30365   4.513   8.668  10.852  0.1802  0.2326 -0.4686
  225MOL0     H30366   4.495   8.502  10.774  0.1759 -0.5897  0.3226
  225MOL0     H30367   4.345   8.588  10.615 -3.3548  0.0933  1.6528
  225MOL0     H30368   4.401   8.761  10.636  2.6523 -0.3362  0.3381
  225MOL0     H30369   4.255   8.594  10.841  0.2186  1.1815  1.4837
  225MOL0     H30370   4.284   8.760  10.857 -3.5778  2.3793 -2.6198
  225MOL0     H30371   3.931   8.683  10.611  0.5110  0.5575 -1.2851
  225MOL0     H30372   4.876   8.858  10.720  2.9401  1.7228  0.3221
  225MOL0     H30373   5.109   9.041  10.640  0.7553 -0.3449 -1.4594
  225MOL0     H30374   5.079   8.910  10.759  0.0656  0.5882  0.4922
  225MOL0     H30375   5.211   8.889  10.644 -0.7006 -0.5717 -1.3986
  226MOL0     O30376   4.094   3.655   8.797 -0.3460  0.2525  0.9815
  226MOL0     C30377   4.058   3.662   8.914  0.1670  1.2169 -1.2434
  226MOL0     O30378   4.125   3.731   9.018  0.0304 -0.1848  0.2484
  226MOL0     C30379   4.255   3.756   9.003 -0.5318 -1.6302 -0.8875
  226MOL0     C30380   4.346   3.675   8.946 -0.9663 -0.8746 -0.4679
  226MOL0     C30381   4.481   3.710   8.934  0.8022  0.4309 -0.2680
  226MOL0     C30382   4.517   3.837   8.989  0.2434  0.0884 -0.4142
  226MOL0     O30383   4.648   3.864   8.981  0.1545 -0.6501  0.0931
  226MOL0     C30384   4.690   3.940   8.871  0.0912  0.1445  0.4549
  226MOL0     C30385   4.803   3.873   8.785  0.4014  0.6282  0.7814
  226MOL0     C30386   4.936   3.846   8.861 -0.9155 -0.3166 -1.0865
  226MOL0     C30387   5.002   3.979   8.908 -0.2943 -0.2940  0.5672
  226MOL0     C30388   5.152   3.970   8.928 -0.2269  0.0602  1.0799
  226MOL0     C30389   5.182   3.882   9.043 -0.0957 -0.1227 -0.3127
  226MOL0     C30390   5.323   3.893   9.113  0.2240 -0.1993  0.6090
  226MOL0     C30391   5.429   3.887   9.008 -0.1094  1.1360  0.3329
  226MOL0     N30392   5.566   3.869   9.058 -0.1390 -0.3372 -0.2282
  226MOL0     C30393   5.632   3.758   9.112  1.0299 -0.8522  0.2014
  226MOL0     C30394   5.760   3.804   9.132  0.7728  0.3843  0.0304
  226MOL0     C30395   5.878   3.727   9.193 -0.1445 -0.7752  0.9493
  226MOL0     C30396   5.853   3.649   9.321 -0.5128 -0.1159  0.4205
  226MOL0     C30397   5.855   3.745   9.438 -0.4691 -0.0462 -0.2655
  226MOL0     C30398   5.734   3.832   9.470 -0.5657  0.8389  0.1604
  226MOL0     O30399   5.629   3.740   9.517  0.1025 -0.2496 -0.1666
  226MOL0     C30400   5.498   3.790   9.514 -0.4859 -0.4248 -0.2743
  226MOL0     C30401   5.393   3.700   9.532 -0.0483 -0.1547 -0.9426
  226MOL0     C30402   5.260   3.735   9.529  0.0943  0.3693  0.2013
  226MOL0     C30403   5.216   3.872   9.505 -1.1089 -0.3083  0.3464
  226MOL0     C30404   5.076   3.907   9.504 -0.8538 -0.3249  0.0388
  226MOL0     O30405   5.042   4.026   9.465 -0.1325 -0.4809 -0.0638
  226MOL0     C30406   4.907   4.043   9.440  1.0581 -0.2864 -0.2887
  226MOL0     C30407   4.844   4.041   9.315 -1.0719 -0.3722  0.1106
  226MOL0     C30408   4.698   4.050   9.302 -0.6757  0.1340  0.5112
  226MOL0     C30409   4.617   4.061   9.419 -1.7417 -0.3130 -0.5299
  226MOL0     O30410   4.481   4.052   9.397 -0.2015 -0.1973 -0.1978
  226MOL0     C30411   4.397   4.112   9.486  0.1489  0.1489 -0.3835
  226MOL0     C30412   4.381   4.266   9.448  0.3564 -0.6625 -0.2598
  226MOL0     C30413   4.287   4.364   9.523  0.1561 -0.0018  0.1119
  226MOL0     C30414   4.310   4.510   9.476 -0.3323  0.0900  0.2518
  226MOL0     C30415   4.242   4.608   9.581  0.1349  0.9965  0.0186
  226MOL0     C30416   4.109   4.656   9.534 -0.1566 -0.6201  0.6776
  226MOL0     C30417   4.042   4.744   9.638 -0.3482  0.1171  0.4143
  226MOL0     C30418   3.895   4.759   9.618 -0.1879  0.1328  0.1224
  226MOL0    Cl30419   3.827   4.900   9.708 -0.2004 -0.6054  0.1942
  226MOL0     C30420   4.682   4.062   9.546 -0.2343  1.1652 -1.8910
  226MOL0     C30421   4.819   4.053   9.551 -0.0100 -0.3181  0.3118
  226MOL0     O30422   5.008   3.828   9.567  0.1483 -0.2710 -1.0289
  226MOL0     C30423   5.323   3.971   9.486 -0.3860  0.4710  0.3288
  226MOL0     C30424   5.457   3.926   9.484 -0.1194  0.4751 -0.6439
  226MOL0     N30425   5.763   3.945   9.114 -0.3143 -0.9653  0.0987
  226MOL0     N30426   5.647   3.979   9.065  0.1177  0.2092  0.4282
  226MOL0     C30427   4.425   3.919   9.060  0.2302 -0.4698  0.4431
  226MOL0     C30428   4.297   3.872   9.064  0.5605  0.3829  0.3092
  226MOL0     C30429   3.939   3.590   8.951 -0.7890 -0.4098 -0.3178
  226MOL0     C30430   3.887   3.505   8.852  0.0892 -0.3143  0.4776
  226MOL0     C30431   3.769   3.437   8.866  0.0493  0.2400 -0.2484
  226MOL0     C30432   3.695   3.444   8.986 -0.0883  0.1168 -0.1294
  226MOL0     O30433   3.576   3.366   8.991 -0.3175  0.6530  0.2334
  226MOL0     C30434   3.470   3.413   9.076  0.4112  0.3940 -0.3462
  226MOL0     C30435   3.353   3.312   9.073 -0.5197  0.2447 -0.0619
  226MOL0     C30436   3.253   3.318   9.193  0.5677  0.7988  0.1740
  226MOL0     C30437   3.112   3.300   9.138  0.5771  0.2489 -0.2443
  226MOL0     C30438   2.999   3.287   9.240 -0.0392 -0.0052 -0.1993
  226MOL0     C30439   2.901   3.284   9.322 -0.3662 -0.1670 -0.7559
  226MOL0     C30440   3.732   3.536   9.085  0.0452 -0.1389  0.3619
  226MOL0     C30441   3.859   3.594   9.074 -0.2068 -0.8696 -0.0751
  226MOL0     C30442   3.891   3.689   9.186  0.0065  0.4550 -0.0417
  226MOL0     H30443   4.312   3.578   8.912 -0.0754 -1.4248  0.1584
  226MOL0     H30444   4.556   3.648   8.889  2.9781  1.8831  1.1570
  226MOL0     H30445   4.605   3.946   8.802  0.9857  2.2140 -0.5465
  226MOL0     H30446   4.717   4.042   8.900  1.8989 -0.4221  0.9080
  226MOL0     H30447   4.825   3.948   8.709 -0.2886  0.1967  0.1494
  226MOL0     H30448   4.762   3.786   8.733 -0.5640 -1.1193  4.1786
  226MOL0     H30449   5.001   3.808   8.781 -0.2246  3.9535 -2.8805
  226MOL0     H30450   4.943   3.778   8.946  2.0753  1.4170  0.2321
  226MOL0     H30451   4.992   4.058   8.833  0.9205 -0.1520  0.5267
  226MOL0     H30452   4.951   4.016   8.997 -3.3968  0.3899 -1.3737
  226MOL0     H30453   5.200   3.933   8.837 -1.6771 -0.5438  0.5400
  226MOL0     H30454   5.191   4.071   8.945 -0.0864  0.3886 -0.9956
  226MOL0     H30455   5.110   3.905   9.122  0.1643 -1.3660  0.3026
  226MOL0     H30456   5.172   3.783   8.999 -1.1708 -0.7693  1.3131
  226MOL0     H30457   5.330   3.814   9.188 -2.0733 -2.7669 -1.6428
  226MOL0     H30458   5.332   3.989   9.164 -0.2145  0.0119  0.2999
  226MOL0     H30459   5.419   3.806   8.936 -0.0540  1.5822 -0.1844
  226MOL0     H30460   5.427   3.974   8.942  2.0394  0.4762 -0.6798
  226MOL0     H30461   5.582   3.661   9.118 -2.5704  0.7999 -0.2623
  226MOL0     H30462   5.914   3.650   9.124 -1.0370 -2.3941  2.2310
  226MOL0     H30463   5.961   3.795   9.212 -2.3635  2.1437  0.9506
  226MOL0     H30464   5.768   3.581   9.317  0.1039 -0.9114  0.4333
  226MOL0     H30465   5.941   3.586   9.340  1.2143  2.1480  0.4576
  226MOL0     H30466   5.945   3.806   9.432  0.3928 -1.2240  0.2385
  226MOL0     H30467   5.876   3.686   9.528  2.5167  0.3021 -0.6249
  226MOL0     H30468   5.697   3.878   9.378 -1.0109  0.4253  0.1335
  226MOL0     H30469   5.763   3.900   9.550  4.0165 -1.0264  0.4190
  226MOL0     H30470   5.420   3.598   9.558 -1.4240 -0.8014 -1.9501
  226MOL0     H30471   5.186   3.660   9.554  1.4620 -0.8392  0.7386
  226MOL0     H30472   4.898   4.021   9.223 -1.3799 -2.1911  0.2718
  226MOL0     H30473   4.648   4.058   9.206 -0.2633 -1.0406  0.1809
  226MOL0     H30474   4.301   4.061   9.477  1.0570 -1.7346  0.1319
  226MOL0     H30475   4.431   4.108   9.590  2.2649 -2.2457 -1.0761
  226MOL0     H30476   4.483   4.303   9.463 -0.9707  2.7551  1.2098
  226MOL0     H30477   4.342   4.282   9.347  0.0866  1.6448  0.1597
  226MOL0     H30478   4.180   4.340   9.513 -0.9891  2.8839  3.4246
  226MOL0     H30479   4.309   4.346   9.629  0.1850 -2.5975 -0.2580
  226MOL0     H30480   4.279   4.530   9.373 -1.0024  0.1764  0.4636
  226MOL0     H30481   4.419   4.519   9.477 -0.1991 -1.2841 -0.2324
  226MOL0     H30482   4.310   4.687   9.612  0.8046 -1.3089  5.7630
  226MOL0     H30483   4.236   4.558   9.678  0.2980  0.8214 -0.0606
  226MOL0     H30484   4.122   4.716   9.443 -0.7122  1.2125  1.7571
  226MOL0     H30485   4.035   4.578   9.513 -2.6926  1.4678  1.3633
  226MOL0     H30486   4.087   4.844   9.639  0.0202 -0.0176 -0.8494
  226MOL0     H30487   4.062   4.703   9.737  0.6434  0.8319  0.5375
  226MOL0     H30488   3.867   4.774   9.513  0.9831 -1.3028 -0.4319
  226MOL0     H30489   3.840   4.673   9.656 -1.3590  1.1572  0.8173
  226MOL0     H30490   4.632   4.058   9.642  2.9697 -0.9698 -0.1363
  226MOL0     H30491   4.868   4.052   9.647  0.0075 -0.6463  0.3000
  226MOL0     H30492   5.306   4.076   9.461 -1.9853 -0.0610 -1.0001
  226MOL0     H30493   5.533   4.002   9.467  0.4236  0.3325  0.9930
  226MOL0     H30494   4.454   4.015   9.100  1.4922 -0.2682 -0.8776
  226MOL0     H30495   4.224   3.920   9.129 -0.2806 -0.7542  0.2422
  226MOL0     H30496   3.919   3.504   8.749 -2.2994 -3.2946 -0.3511
  226MOL0     H30497   3.739   3.364   8.791  0.8556 -2.0141  1.5113
  226MOL0     H30498   3.435   3.514   9.054  2.6681  1.7252  1.7002
  226MOL0     H30499   3.520   3.419   9.174  1.2530  3.7671 -0.8397
  226MOL0     H30500   3.400   3.213   9.073 -1.6743 -0.4064 -2.7457
  226MOL0     H30501   3.305   3.312   8.974  0.1583 -0.5440 -0.4016
  226MOL0     H30502   3.260   3.415   9.242 -1.3430  1.4468 -0.7248
  226MOL0     H30503   3.295   3.244   9.262  1.3062 -1.8234 -2.8207
  226MOL0     H30504   3.092   3.372   9.059 -1.7307  0.5818  0.5659
  226MOL0     H30505   3.107   3.200   9.093 -0.5306 -0.5538  1.5318
  226MOL0     H30506   2.818   3.275   9.389  0.5507 -1.3290  0.2938
  226MOL0     H30507   3.670   3.564   9.170 -0.2654 -0.9271  0.3977
  226MOL0     H30508   3.978   3.654   9.241  0.8535  1.9172 -0.3952
  226MOL0     H30509   3.917   3.790   9.152  1.2050  0.4802  0.9080
  226MOL0     H30510   3.802   3.714   9.245 -0.6549 -2.4327  0.3530
  227MOL0     O30511   0.963  10.893   7.295 -0.5038 -0.1975  0.6776
  227MOL0     C30512   0.891  10.966   7.369 -0.2229  0.0039  1.5900
  227MOL0     O30513   0.925  11.092   7.408  0.3870 -0.1533 -0.0983
  227MOL0     C30514   1.044  11.142   7.362 -0.3053  0.4618  0.6855
  227MOL0     C30515   1.048  11.201   7.230 -0.1333  0.1360  0.6811
  227MOL0     C30516   1.177  11.243   7.183 -0.7153  0.2037 -0.2082
  227MOL0     C30517   1.294  11.234   7.262  0.4118 -1.0047 -0.5087
  227MOL0     O30518   1.401  11.298   7.212  0.0790  0.0859  0.9926
  227MOL0     C30519   1.530  11.269   7.271  0.6781  0.0338 -0.0651
  227MOL0     C30520   1.639  11.355   7.212  0.1653 -0.3895  0.1979
  227MOL0     C30521   1.777  11.297   7.225 -0.7021  0.0652 -0.4768
  227MOL0     C30522   1.888  11.407   7.226  0.0170  0.4181  0.0436
  227MOL0     C30523   2.025  11.329   7.209 -0.2015 -1.1599  0.3802
  227MOL0     C30524   2.147  11.419   7.207  1.8482  0.1059  0.6476
  227MOL0     C30525   2.273  11.332   7.178  0.0881  0.2555 -0.7425
  227MOL0     C30526   2.307  11.247   7.307 -0.0885 -0.9332 -0.2603
  227MOL0     N30527   2.435  11.190   7.293 -1.0073  0.2336 -0.5763
  227MOL0     C30528   2.473  11.074   7.227 -0.5773 -0.1165 -0.4629
  227MOL0     C30529   2.606  11.080   7.224  0.3058 -0.3319 -0.3296
  227MOL0     C30530   2.706  10.981   7.180  0.2320  0.1203  0.1304
  227MOL0     C30531   2.750  11.010   7.030  0.7742 -0.5989  0.2457
  227MOL0     C30532   2.888  10.945   7.000  0.3383  0.0943 -0.2176
  227MOL0     C30533   2.945  10.994   6.867 -0.0548  0.5967 -0.6664
  227MOL0     O30534   3.051  10.912   6.821  0.3689  0.7160  0.0061
  227MOL0     C30535   3.182  10.945   6.845  0.6313 -0.9357 -0.5752
  227MOL0     C30536   3.225  11.046   6.931  0.2936  0.0235 -0.2118
  227MOL0     C30537   3.363  11.065   6.948  0.1622  0.7004 -0.2888
  227MOL0     C30538   3.454  10.978   6.885 -0.1465  0.6515 -0.4161
  227MOL0     C30539   3.600  10.995   6.905  0.0114  0.5552 -0.1556
  227MOL0     O30540   3.680  10.907   6.835 -0.3279  0.2011 -0.6470
  227MOL0     C30541   3.816  10.910   6.856  0.8597  0.3400  0.2462
  227MOL0     C30542   3.879  10.787   6.829 -0.1597  0.2509 -0.4126
  227MOL0     C30543   4.022  10.772   6.820 -0.0593  0.2490  0.5108
  227MOL0     C30544   4.100  10.882   6.852  0.9108 -0.9571 -0.3938
  227MOL0     O30545   4.240  10.891   6.856  0.2974  0.0354 -0.2843
  227MOL0     C30546   4.307  10.817   6.748  0.3511  0.4234 -0.3619
  227MOL0     C30547   4.449  10.884   6.744  0.9877  0.2013 -0.8465
  227MOL0     C30548   4.543  10.804   6.652  0.2500  0.5939  0.3516
  227MOL0     C30549   4.690  10.844   6.686 -0.2600 -0.5299 -0.1992
  227MOL0     C30550   4.784  10.796   6.578 -0.3499  0.4108 -0.3019
  227MOL0     C30551   4.905  10.895   6.558 -0.2423  0.3492  0.4352
  227MOL0     C30552   4.995  10.875   6.677  0.5208  0.5259 -0.0099
  227MOL0     C30553   5.136  10.935   6.652  0.4901  0.0196  0.5388
  227MOL0    Cl30554   5.225  10.836   6.523  0.0740 -0.0096  0.0297
  227MOL0     C30555   4.035  11.012   6.882 -0.0109  0.2892  0.5437
  227MOL0     C30556   3.892  11.023   6.877  0.1016 -0.6130 -0.9818
  227MOL0     O30557   3.639  11.084   6.985 -0.3138 -0.8076  0.5446
  227MOL0     C30558   3.407  10.874   6.806  0.2548  0.1286  0.4220
  227MOL0     C30559   3.265  10.862   6.782 -0.6080  0.0083  1.1154
  227MOL0     N30560   2.659  11.203   7.276  0.4067  0.1121  0.9246
  227MOL0     N30561   2.549  11.265   7.310  1.0330 -0.8698  0.0651
  227MOL0     C30562   1.276  11.180   7.394 -0.0503  0.4920 -0.0825
  227MOL0     C30563   1.161  11.128   7.438  0.2287  0.0440  0.4310
  227MOL0     C30564   0.756  10.914   7.415 -0.2136  0.1066 -0.1212
  227MOL0     C30565   0.654  11.005   7.441 -0.3232  0.1013 -0.0404
  227MOL0     C30566   0.532  10.973   7.496  0.5060  0.6649 -0.2344
  227MOL0     C30567   0.501  10.837   7.509  0.1468 -0.3335 -0.3275
  227MOL0     O30568   0.371  10.815   7.537 -0.7247 -0.2768 -0.0940
  227MOL0     C30569   0.326  10.680   7.561  0.1510 -0.0503  0.7311
  227MOL0     C30570   0.193  10.680   7.638  0.4336 -0.1032  0.6201
  227MOL0     C30571   0.104  10.552   7.614 -0.0094  0.6080  0.4483
  227MOL0     C30572  -0.051  10.569   7.640  0.1567  0.5803 -0.7349
  227MOL0     C30573  -0.081  10.630   7.766  0.3043 -0.3833  0.7157
  227MOL0     C30574  -0.112  10.698   7.864  0.7324  0.3862  0.1295
  227MOL0     C30575   0.606  10.745   7.477  0.0047 -0.1411  0.3419
  227MOL0     C30576   0.733  10.784   7.438  0.2980  0.2045  0.5028
  227MOL0     C30577   0.834  10.676   7.425 -0.0933  0.4425 -0.3460
  227MOL0     H30578   0.954  11.203   7.174  0.3368 -0.8545 -0.1775
  227MOL0     H30579   1.197  11.285   7.085  1.3194 -0.6019 -0.1795
  227MOL0     H30580   1.528  11.291   7.378 -0.9561  0.9358 -0.2445
  227MOL0     H30581   1.551  11.164   7.249 -2.6683 -0.7583  0.0351
  227MOL0     H30582   1.619  11.455   7.252 -0.9943 -1.0909  1.4706
  227MOL0     H30583   1.614  11.372   7.107 -2.4945  2.8041  1.1779
  227MOL0     H30584   1.800  11.221   7.150 -0.9947 -1.7017  1.1697
  227MOL0     H30585   1.794  11.253   7.324 -3.3553 -1.2949 -0.5648
  227MOL0     H30586   1.882  11.470   7.137  3.5664 -1.1553 -1.4831
  227MOL0     H30587   1.889  11.456   7.324  0.3304 -0.3264  0.4117
  227MOL0     H30588   2.039  11.265   7.297 -2.3263  0.2505  1.8476
  227MOL0     H30589   2.019  11.263   7.122  3.6614 -1.3320  0.0493
  227MOL0     H30590   2.139  11.487   7.122  3.1026  0.4495  0.7803
  227MOL0     H30591   2.145  11.475   7.301 -1.1538  0.8507  0.2346
  227MOL0     H30592   2.361  11.394   7.156  0.0695  0.3410 -0.5771
  227MOL0     H30593   2.254  11.260   7.098 -1.3412 -2.4146  1.8106
  227MOL0     H30594   2.303  11.317   7.391 -2.5140 -0.0355 -1.0315
  227MOL0     H30595   2.229  11.175   7.334  1.5312 -1.7008  2.7979
  227MOL0     H30596   2.412  10.993   7.188 -1.2938  0.5069 -0.6685
  227MOL0     H30597   2.789  10.983   7.251 -0.6396 -0.5153  1.1812
  227MOL0     H30598   2.655  10.887   7.158 -0.4544  0.7888 -1.2829
  227MOL0     H30599   2.676  10.979   6.955  1.5804  2.9706 -2.3176
  227MOL0     H30600   2.761  11.117   7.011  0.8128 -0.8249 -1.0968
  227MOL0     H30601   2.878  10.837   6.992  0.5787  0.0650 -0.1448
  227MOL0     H30602   2.955  10.954   7.086  0.1553 -1.0253  0.0502
  227MOL0     H30603   2.987  11.090   6.899  1.7600 -0.3087 -0.1443
  227MOL0     H30604   2.865  11.002   6.794 -1.2511  0.2375  0.5678
  227MOL0     H30605   3.160  11.108   6.992  1.1296 -0.3587  1.0893
  227MOL0     H30606   3.405  11.138   7.017  1.7122  0.8536 -1.3326
  227MOL0     H30607   3.818  10.703   6.797 -4.3530  2.3831  1.2572
  227MOL0     H30608   4.069  10.680   6.787  0.4599  1.5944 -2.9129
  227MOL0     H30609   4.319  10.712   6.776 -3.0173 -0.4578 -1.6509
  227MOL0     H30610   4.266  10.827   6.647  1.0729 -5.4754 -1.5608
  227MOL0     H30611   4.426  10.983   6.705  0.3018 -0.8905 -3.4185
  227MOL0     H30612   4.486  10.884   6.847  0.9690 -2.6600 -0.7417
  227MOL0     H30613   4.539  10.698   6.676 -1.8579  0.6476  0.5015
  227MOL0     H30614   4.518  10.818   6.546  1.3957 -2.8366 -0.4875
  227MOL0     H30615   4.728  10.811   6.783 -1.5845 -0.0348  0.5190
  227MOL0     H30616   4.686  10.953   6.670 -4.6409 -0.7744 -2.3627
  227MOL0     H30617   4.733  10.788   6.482  2.8565 -0.6587 -2.0374
  227MOL0     H30618   4.811  10.693   6.602  0.2334  0.9062  1.3369
  227MOL0     H30619   4.968  10.865   6.474 -0.7869  0.2194  0.0716
  227MOL0     H30620   4.890  11.002   6.542  1.8476  0.6052 -0.1575
  227MOL0     H30621   5.006  10.768   6.699 -2.1232 -0.0376 -1.0359
  227MOL0     H30622   4.943  10.924   6.760 -0.9188 -2.9550  1.3589
  227MOL0     H30623   5.127  11.041   6.628  1.1035  0.0720  0.5126
  227MOL0     H30624   5.194  10.931   6.744  1.1320 -1.4602  0.0922
  227MOL0     H30625   4.098  11.097   6.904 -1.2072  0.9367  1.6518
  227MOL0     H30626   3.846  11.119   6.894  2.6323  0.8426 -1.8040
  227MOL0     H30627   3.472  10.796   6.767 -0.7778 -1.1980  1.2331
  227MOL0     H30628   3.231  10.793   6.706  0.8340  1.0670 -0.5908
  227MOL0     H30629   1.359  11.185   7.464 -0.7795  0.0048  0.8310
  227MOL0     H30630   1.151  11.089   7.539 -0.1758  0.6050  0.6108
  227MOL0     H30631   0.674  11.109   7.416  1.7768 -0.2849 -0.1663
  227MOL0     H30632   0.458  11.050   7.517 -0.9406 -0.5419 -0.7504
  227MOL0     H30633   0.398  10.630   7.626 -2.2560 -0.1889  3.4645
  227MOL0     H30634   0.319  10.629   7.464 -0.2674 -1.8584  1.6751
  227MOL0     H30635   0.136  10.770   7.612 -0.8377 -1.4692 -1.6483
  227MOL0     H30636   0.224  10.674   7.743  1.0924 -1.9147  0.3597
  227MOL0     H30637   0.136  10.464   7.670 -2.0988  0.6028  1.7300
  227MOL0     H30638   0.113  10.521   7.509  2.3025  0.9230  0.5180
  227MOL0     H30639  -0.104  10.619   7.558 -2.8101 -2.6444 -1.0462
  227MOL0     H30640  -0.106  10.474   7.635 -2.4128  2.0055 -1.0465
  227MOL0     H30641  -0.141  10.779   7.927 -2.9417  0.4623 -1.3642
  227MOL0     H30642   0.578  10.640   7.481 -1.6835  0.2949  3.5834
  227MOL0     H30643   0.855  10.652   7.320  1.8209 -3.0217  0.6999
  227MOL0     H30644   0.929  10.707   7.471  0.4318  0.8073 -1.6311
  227MOL0     H30645   0.806  10.579   7.465  2.4107 -1.5438 -2.9974
  228MOL0     O30646   3.444   5.271   1.156 -0.5951 -0.0751  0.1234
  228MOL0     C30647   3.369   5.361   1.203  0.2192  0.3509 -0.1517
  228MOL0     O30648   3.404   5.450   1.305  0.5161 -0.3412  0.3453
  228MOL0     C30649   3.534   5.446   1.344  0.7527 -0.9888 -0.6603
  228MOL0     C30650   3.566   5.424   1.474 -0.0151 -0.8629  0.1387
  228MOL0     C30651   3.699   5.425   1.522  0.5796  1.0968 -0.4763
  228MOL0     C30652   3.807   5.456   1.435 -0.8160 -0.3545 -0.2504
  228MOL0     O30653   3.932   5.448   1.484 -0.3747 -1.1127  1.2370
  228MOL0     C30654   4.055   5.471   1.404 -0.1507  0.1312 -0.5440
  228MOL0     C30655   4.159   5.521   1.494 -0.0087 -0.0015 -0.7322
  228MOL0     C30656   4.205   5.417   1.594 -0.4361  0.8691 -0.0865
  228MOL0     C30657   4.303   5.465   1.695 -0.1283 -0.9099  0.7774
  228MOL0     C30658   4.379   5.363   1.775  0.0648 -0.0151  0.2888
  228MOL0     C30659   4.442   5.436   1.895 -0.5999  0.2134 -0.4196
  228MOL0     C30660   4.508   5.341   2.005 -0.2737 -0.3183  0.7088
  228MOL0     C30661   4.625   5.250   1.943  0.3587  0.2955  0.3594
  228MOL0     N30662   4.732   5.219   2.039  0.1926  0.2111 -0.3773
  228MOL0     C30663   4.710   5.145   2.157 -0.1139 -0.4950  0.5269
  228MOL0     C30664   4.836   5.123   2.198 -0.7041 -0.0785 -0.0120
  228MOL0     C30665   4.876   5.047   2.320  0.4091 -0.3504 -0.0061
  228MOL0     C30666   4.968   4.915   2.292 -0.5987  0.2621 -0.9035
  228MOL0     C30667   5.043   4.862   2.418 -0.1475 -0.7434  0.0317
  228MOL0     C30668   5.071   4.714   2.401  0.2855 -1.1402  0.3967
  228MOL0     O30669   5.164   4.691   2.297 -0.3608  0.2584  0.1346
  228MOL0     C30670   5.300   4.716   2.307  0.6188 -0.5507 -0.5492
  228MOL0     C30671   5.369   4.724   2.430 -0.8699 -0.6622 -1.1222
  228MOL0     C30672   5.507   4.726   2.435 -0.8143 -0.2434  0.2915
  228MOL0     C30673   5.588   4.718   2.321  1.0270 -0.4935  0.8303
  228MOL0     C30674   5.732   4.727   2.330 -0.3388 -0.0714  0.9063
  228MOL0     O30675   5.796   4.710   2.215  0.2172  0.4188 -0.3693
  228MOL0     C30676   5.939   4.727   2.217  0.0612  0.5864 -0.1800
  228MOL0     C30677   5.997   4.851   2.233 -0.0761  0.1051 -1.0397
  228MOL0     C30678   6.138   4.869   2.223 -0.5500 -0.1666  0.2689
  228MOL0     C30679   6.219   4.758   2.175  0.8713 -0.4612 -0.1594
  228MOL0     O30680   6.352   4.767   2.136 -0.1986 -0.4186  0.5990
  228MOL0     C30681   6.426   4.888   2.163  0.5594 -0.1841  0.0605
  228MOL0     C30682   6.573   4.855   2.136 -0.4580  0.4372  0.2928
  228MOL0     C30683   6.634   4.750   2.245 -0.0088 -1.0341  0.5569
  228MOL0     C30684   6.776   4.782   2.278 -0.1830 -0.3439 -0.2538
  228MOL0     C30685   6.841   4.670   2.351  0.1356 -1.0382 -0.0609
  228MOL0     C30686   6.990   4.689   2.376 -0.0555  0.2310  0.4837
  228MOL0     C30687   7.061   4.727   2.244  0.7095 -0.1877  0.0238
  228MOL0     C30688   7.213   4.690   2.240  0.2057  0.1521  0.2592
  228MOL0    Cl30689   7.318   4.753   2.364  0.5456 -0.3506  0.3384
  228MOL0     C30690   6.155   4.641   2.155  0.8355  0.9552  0.5171
  228MOL0     C30691   6.014   4.625   2.164  0.1515 -0.1786 -0.4019
  228MOL0     O30692   5.795   4.757   2.431  0.5089 -0.0019  0.1382
  228MOL0     C30693   5.513   4.719   2.196  0.9130 -0.1866 -0.0557
  228MOL0     C30694   5.375   4.721   2.192 -0.4043 -0.4327 -0.4879
  228MOL0     N30695   4.927   5.162   2.108 -0.1648  0.0565 -0.8161
  228MOL0     N30696   4.861   5.211   2.008  0.0351  0.8048  0.1506
  228MOL0     C30697   3.774   5.474   1.296 -0.0881 -0.2536 -0.4484
  228MOL0     C30698   3.633   5.478   1.253 -0.7001 -0.3014  0.1860
  228MOL0     C30699   3.241   5.381   1.139 -0.3497  0.4727  0.2556
  228MOL0     C30700   3.170   5.278   1.091 -0.2256 -0.1412 -0.2676
  228MOL0     C30701   3.048   5.288   1.025 -0.2827 -0.5189  0.6976
  228MOL0     C30702   2.981   5.411   1.014  0.9254  0.7114 -0.1411
  228MOL0     O30703   2.849   5.402   0.970 -0.4068 -0.0341  0.9927
  228MOL0     C30704   2.763   5.515   1.006 -0.3525  0.8028 -0.6845
  228MOL0     C30705   2.612   5.503   0.965  0.2537  0.0233 -0.2834
  228MOL0     C30706   2.543   5.631   0.998  0.5470  0.1262  0.3618
  228MOL0     C30707   2.503   5.643   1.143  0.1436  0.3762 -0.3578
  228MOL0     C30708   2.437   5.778   1.160 -1.1378  0.3887 -0.6230
  228MOL0     C30709   2.389   5.881   1.191 -0.6693 -0.6257  0.6531
  228MOL0     C30710   3.056   5.522   1.060 -0.4534 -0.3525 -1.3248
  228MOL0     C30711   3.186   5.507   1.119  0.2494 -0.3309 -0.0813
  228MOL0     C30712   3.265   5.628   1.145 -0.2125  0.1537  0.5307
  228MOL0     H30713   3.478   5.399   1.531 -1.1475  0.5229 -0.9309
  228MOL0     H30714   3.709   5.408   1.629 -0.2540  2.1814 -0.2149
  228MOL0     H30715   4.085   5.378   1.355 -0.2486 -0.6372  0.8218
  228MOL0     H30716   4.045   5.550   1.329  0.0117 -0.0296 -0.7380
  228MOL0     H30717   4.128   5.609   1.550  1.0822 -0.0789  0.0362
  228MOL0     H30718   4.245   5.538   1.428  0.8608  1.8994  0.7784
  228MOL0     H30719   4.261   5.335   1.548 -1.6591  0.4172 -0.7910
  228MOL0     H30720   4.122   5.374   1.651 -1.5052  1.1439 -1.3894
  228MOL0     H30721   4.380   5.523   1.645 -1.8067 -0.2144 -1.1351
  228MOL0     H30722   4.253   5.536   1.762  0.3712  0.7887 -0.5854
  228MOL0     H30723   4.307   5.287   1.806  0.7790 -0.7841  0.0991
  228MOL0     H30724   4.464   5.320   1.721  1.0419  0.3585  1.4665
  228MOL0     H30725   4.528   5.495   1.863  0.4125 -1.4427 -0.8776
  228MOL0     H30726   4.367   5.504   1.935 -0.0819  0.8993 -0.5851
  228MOL0     H30727   4.436   5.279   2.059 -3.0399  1.5609 -0.6351
  228MOL0     H30728   4.549   5.415   2.074  1.9834  0.5383 -1.3544
  228MOL0     H30729   4.577   5.161   1.903 -0.9463  1.3656 -0.5697
  228MOL0     H30730   4.670   5.295   1.854  5.2215 -1.6900  1.5077
  228MOL0     H30731   4.617   5.128   2.209  0.1808  2.6934  2.3856
  228MOL0     H30732   4.904   5.114   2.402  0.1354  1.1802 -1.1283
  228MOL0     H30733   4.783   5.004   2.357 -0.3105 -1.5488 -2.9187
  228MOL0     H30734   4.897   4.844   2.250 -0.0433 -0.6386 -0.3425
  228MOL0     H30735   5.053   4.935   2.226  0.5783 -2.5326 -0.3631
  228MOL0     H30736   4.971   4.881   2.499 -1.5820  1.1570 -1.5725
  228MOL0     H30737   5.131   4.918   2.452 -0.4072  0.8213 -1.7155
  228MOL0     H30738   4.979   4.663   2.371 -0.4871  2.2313 -4.0690
  228MOL0     H30739   5.110   4.679   2.497  1.1841  0.2352  0.5507
  228MOL0     H30740   5.308   4.717   2.520 -0.8151 -1.2262 -1.1244
  228MOL0     H30741   5.564   4.736   2.527  2.4071  1.4538 -1.6727
  228MOL0     H30742   5.936   4.934   2.268 -0.0737 -0.0853 -0.5784
  228MOL0     H30743   6.177   4.970   2.222 -0.7564  0.0708 -4.2923
  228MOL0     H30744   6.390   4.968   2.097 -0.3462 -2.5509 -2.5086
  228MOL0     H30745   6.417   4.917   2.268 -1.7886  0.0109 -0.1434
  228MOL0     H30746   6.578   4.800   2.042 -1.7976  0.7822  0.0004
  228MOL0     H30747   6.638   4.943   2.138  1.0670 -0.6644  1.8848
  228MOL0     H30748   6.574   4.755   2.336  1.6318  0.9916  1.6281
  228MOL0     H30749   6.612   4.647   2.215 -1.9764 -0.4497 -0.0961
  228MOL0     H30750   6.786   4.866   2.348  0.4008  0.5735 -1.3980
  228MOL0     H30751   6.841   4.802   2.192 -0.0329 -0.2543 -0.1200
  228MOL0     H30752   6.828   4.575   2.298  1.1655 -1.8221  1.0485
  228MOL0     H30753   6.802   4.654   2.452  2.4868 -0.8588  0.9396
  228MOL0     H30754   7.009   4.760   2.457 -0.5012  1.7829 -0.7302
  228MOL0     H30755   7.032   4.594   2.410  1.6245  1.0274  0.7229
  228MOL0     H30756   7.056   4.834   2.220 -1.4577 -0.3460 -0.3609
  228MOL0     H30757   7.011   4.685   2.157 -2.1927  1.0933  0.9643
  228MOL0     H30758   7.237   4.583   2.234  2.7257  0.6242  0.9007
  228MOL0     H30759   7.246   4.741   2.150 -0.2781  3.6121  1.8756
  228MOL0     H30760   6.222   4.557   2.137 -1.0665 -0.9358  1.8474
  228MOL0     H30761   5.977   4.523   2.162 -0.8444  0.1403  0.6759
  228MOL0     H30762   5.563   4.732   2.101  1.4345 -0.5991  0.1534
  228MOL0     H30763   5.320   4.730   2.100 -0.4014 -2.1963 -0.7070
  228MOL0     H30764   3.851   5.492   1.222 -0.1592 -1.0499 -0.7214
  228MOL0     H30765   3.631   5.485   1.144  2.1777 -2.1226 -0.0616
  228MOL0     H30766   3.225   5.186   1.110  0.6627  0.8489  2.4349
  228MOL0     H30767   3.004   5.202   0.976 -0.0862  1.2664 -2.9696
  228MOL0     H30768   2.811   5.593   0.947  2.0801 -1.3297 -1.7444
  228MOL0     H30769   2.786   5.528   1.112  2.6010 -1.0772 -0.9590
  228MOL0     H30770   2.568   5.424   1.027 -1.0491  1.3147  0.5044
  228MOL0     H30771   2.593   5.495   0.858 -0.3978  1.2527 -0.2758
  228MOL0     H30772   2.452   5.626   0.937  0.6304  0.3199  0.2196
  228MOL0     H30773   2.606   5.715   0.967 -1.9299  1.7978 -0.4281
  228MOL0     H30774   2.427   5.572   1.175 -1.4958  0.2411 -3.9800
  228MOL0     H30775   2.595   5.639   1.203 -0.0058 -1.8604 -0.1906
  228MOL0     H30776   2.333   5.969   1.211  0.2790  0.2046 -0.2726
  228MOL0     H30777   3.010   5.620   1.055 -2.4051 -0.8710  2.3738
  228MOL0     H30778   3.371   5.623   1.118 -0.3930  0.2548 -0.2343
  228MOL0     H30779   3.232   5.705   1.075  1.0873 -0.7203 -1.1247
  228MOL0     H30780   3.263   5.661   1.249  2.0473  3.4691 -0.2942
  229MOL0     O30781   0.090   3.666   0.593 -0.1453 -0.4260 -0.5846
  229MOL0     C30782   0.154   3.747   0.660  0.7921  0.6311 -0.3822
  229MOL0     O30783   0.258   3.721   0.747  0.1819 -0.3376 -0.4761
  229MOL0     C30784   0.339   3.613   0.733 -0.1856 -0.2115 -0.0096
  229MOL0     C30785   0.356   3.528   0.621  0.1732 -0.1251 -0.5615
  229MOL0     C30786   0.455   3.421   0.624 -0.6016  0.1948 -0.9229
  229MOL0     C30787   0.518   3.382   0.737 -0.3613  0.6359  0.0155
  229MOL0     O30788   0.595   3.273   0.738  0.6771  1.0290 -0.5426
  229MOL0     C30789   0.724   3.299   0.692  0.7506  0.2967  0.1507
  229MOL0     C30790   0.805   3.385   0.787  0.6528 -0.3051  0.2071
  229MOL0     C30791   0.953   3.405   0.743 -0.3750 -0.1902  0.2069
  229MOL0     C30792   1.020   3.518   0.827 -0.0704  0.6664 -0.3191
  229MOL0     C30793   1.164   3.531   0.780 -0.2746 -0.2283  0.5808
  229MOL0     C30794   1.249   3.608   0.873 -0.2536  0.2816  0.2801
  229MOL0     C30795   1.396   3.588   0.827  0.5344  0.2624 -0.5657
  229MOL0     C30796   1.494   3.658   0.921 -0.6152 -0.0710 -0.5831
  229MOL0     N30797   1.632   3.616   0.889 -0.3182  0.5258  0.3928
  229MOL0     C30798   1.684   3.618   0.757  0.4093  0.1587 -0.9849
  229MOL0     C30799   1.812   3.581   0.788  0.0484 -0.2253 -0.0399
  229MOL0     C30800   1.926   3.560   0.697 -0.0208 -0.0104 -0.4686
  229MOL0     C30801   2.039   3.660   0.736 -0.7570  0.2161 -0.0001
  229MOL0     C30802   2.180   3.603   0.696 -0.4626 -0.2727 -1.0223
  229MOL0     C30803   2.280   3.706   0.738 -0.2649  0.2726  0.6251
  229MOL0     O30804   2.408   3.645   0.718 -0.6420 -0.7086  0.2071
  229MOL0     C30805   2.516   3.725   0.751 -0.0970 -0.5482  0.1290
  229MOL0     C30806   2.638   3.670   0.720  0.4046 -0.0434 -0.0549
  229MOL0     C30807   2.753   3.746   0.719 -0.1890  0.3162  0.0973
  229MOL0     C30808   2.746   3.875   0.777 -0.4095 -0.4018 -0.0076
  229MOL0     C30809   2.870   3.958   0.788 -0.1030  0.1284  0.5565
  229MOL0     O30810   2.855   4.088   0.809 -0.1033  0.2416  0.4411
  229MOL0     C30811   2.969   4.162   0.828 -0.9980 -0.5611  0.4448
  229MOL0     C30812   3.016   4.247   0.725  0.2495 -0.0856 -0.6692
  229MOL0     C30813   3.122   4.342   0.740  0.1669 -0.1608 -0.3111
  229MOL0     C30814   3.182   4.351   0.867  0.0150  0.2373 -0.4906
  229MOL0     O30815   3.285   4.435   0.869 -0.0339 -0.0293 -0.1229
  229MOL0     C30816   3.312   4.504   0.994 -0.0496  0.8238  0.2348
  229MOL0     C30817   3.425   4.598   0.969  0.5968  0.2024  0.1700
  229MOL0     C30818   3.487   4.645   1.104  0.2417  1.0228  0.1983
  229MOL0     C30819   3.627   4.712   1.079  0.2754 -0.0041 -0.1231
  229MOL0     C30820   3.681   4.761   1.208  0.1150 -0.0186 -0.2159
  229MOL0     C30821   3.776   4.876   1.194 -0.2828  0.0239  0.4736
  229MOL0     C30822   3.701   5.009   1.196 -0.0451 -0.4018  0.5110
  229MOL0     C30823   3.799   5.125   1.192 -0.8125  0.0061  0.5598
  229MOL0    Cl30824   3.905   5.130   1.329  0.3568  0.6876 -0.1213
  229MOL0     C30825   3.142   4.257   0.971 -0.2942 -0.1076 -0.0066
  229MOL0     C30826   3.044   4.157   0.946  0.6091 -0.2453 -0.3039
  229MOL0     O30827   2.979   3.904   0.780  0.0294 -0.1504 -0.1095
  229MOL0     C30828   2.617   3.924   0.816 -1.0268 -0.4851 -0.6900
  229MOL0     C30829   2.502   3.849   0.802 -0.2990 -0.4969  0.6523
  229MOL0     N30830   1.821   3.551   0.926 -1.0712  0.5119  0.4742
  229MOL0     N30831   1.708   3.555   0.980 -0.2691 -0.8241 -0.5534
  229MOL0     C30832   0.499   3.463   0.847 -0.3219  0.5729  0.5500
  229MOL0     C30833   0.418   3.581   0.841 -1.0647 -0.0762  0.2520
  229MOL0     C30834   0.084   3.878   0.654  0.2411 -0.7721 -0.1266
  229MOL0     C30835  -0.020   3.901   0.561  0.2159 -0.3356  0.1692
  229MOL0     C30836  -0.077   4.026   0.550 -1.0803  0.0790 -0.0303
  229MOL0     C30837  -0.033   4.133   0.634 -0.0471  0.3519  0.0517
  229MOL0     O30838  -0.107   4.249   0.633 -0.9950  0.0290 -0.2820
  229MOL0     C30839  -0.237   4.243   0.701  0.2272 -0.4588 -0.0478
  229MOL0     C30840  -0.219   4.213   0.844  0.1247  0.4861  0.5746
  229MOL0     C30841  -0.150   4.324   0.927  0.9801  0.6808  0.7360
  229MOL0     C30842  -0.173   4.305   1.082 -0.0276  0.3056 -0.5967
  229MOL0     C30843  -0.150   4.153   1.113  0.3159  0.2205  0.1309
  229MOL0     C30844  -0.138   4.038   1.146 -0.1954  0.1915 -0.3338
  229MOL0     C30845   0.069   4.115   0.720  0.3525  0.2605  0.2209
  229MOL0     C30846   0.130   3.994   0.727 -0.2195  0.5502  0.5274
  229MOL0     C30847   0.243   3.992   0.824  0.8911 -1.7153  0.4548
  229MOL0     H30848   0.301   3.549   0.530  0.3741  0.6708 -0.5093
  229MOL0     H30849   0.474   3.365   0.534 -1.2539 -0.4546 -0.6595
  229MOL0     H30850   0.773   3.202   0.681 -1.5064 -1.4572  3.6698
  229MOL0     H30851   0.730   3.356   0.599  0.9349  0.2997  0.1637
  229MOL0     H30852   0.817   3.341   0.887 -0.7302  1.0084  1.0056
  229MOL0     H30853   0.748   3.478   0.793 -1.2088 -1.2696 -1.4540
  229MOL0     H30854   0.951   3.437   0.639  0.4258  0.5112  0.3970
  229MOL0     H30855   1.005   3.310   0.759 -1.4726 -0.9469 -0.5338
  229MOL0     H30856   0.958   3.608   0.826 -4.2771 -1.9621 -0.0321
  229MOL0     H30857   1.012   3.485   0.931 -0.8311 -1.2830 -0.9636
  229MOL0     H30858   1.194   3.425   0.776 -1.9827 -0.7111 -2.4728
  229MOL0     H30859   1.176   3.563   0.676  4.2439  1.5222  1.3894
  229MOL0     H30860   1.230   3.715   0.880  0.9018  0.5011  0.1657
  229MOL0     H30861   1.235   3.559   0.970  1.4441 -0.1183  0.3433
  229MOL0     H30862   1.405   3.630   0.726 -1.2664  1.6228 -0.2128
  229MOL0     H30863   1.407   3.480   0.811 -0.9362  0.4213 -3.4732
  229MOL0     H30864   1.481   3.765   0.902 -0.5192  0.3700  1.5749
  229MOL0     H30865   1.480   3.628   1.025 -1.7691  0.7133 -0.4947
  229MOL0     H30866   1.637   3.628   0.660  1.9074 -3.1264 -2.1764
  229MOL0     H30867   1.961   3.458   0.715  1.1201  0.3461 -0.5762
  229MOL0     H30868   1.902   3.569   0.590 -2.3503  2.6325  0.1611
  229MOL0     H30869   2.007   3.759   0.702  2.0208  1.2891  0.2839
  229MOL0     H30870   2.048   3.664   0.845 -1.8109  0.2408  0.0952
  229MOL0     H30871   2.187   3.591   0.587  0.5359  0.5735 -1.0597
  229MOL0     H30872   2.197   3.506   0.744  0.5315  0.6774  0.6118
  229MOL0     H30873   2.256   3.734   0.840 -2.0005  1.3136 -0.0340
  229MOL0     H30874   2.268   3.796   0.677 -3.4986 -1.0550 -0.9362
  229MOL0     H30875   2.636   3.569   0.680 -0.3916  0.3829 -1.1668
  229MOL0     H30876   2.846   3.697   0.693  1.3488  1.7918  2.4029
  229MOL0     H30877   2.962   4.253   0.631  0.9971 -0.3055 -1.1183
  229MOL0     H30878   3.142   4.416   0.663  0.0502 -2.0890 -2.2909
  229MOL0     H30879   3.227   4.551   1.045  0.7007 -1.3426  3.9076
  229MOL0     H30880   3.343   4.430   1.069  1.1660  0.8223 -0.2532
  229MOL0     H30881   3.506   4.553   0.912 -0.2088 -0.8731 -0.1635
  229MOL0     H30882   3.392   4.686   0.911 -2.6147 -1.1986 -0.3561
  229MOL0     H30883   3.409   4.700   1.158 -0.4098  2.2277 -1.8896
  229MOL0     H30884   3.503   4.565   1.178 -2.8699 -0.3677 -0.4627
  229MOL0     H30885   3.599   4.795   1.014  0.4475 -1.3796 -2.0692
  229MOL0     H30886   3.704   4.649   1.032  0.0625  0.2668 -0.8485
  229MOL0     H30887   3.729   4.688   1.274  2.2786  1.3371 -0.1860
  229MOL0     H30888   3.603   4.804   1.271  0.6192  1.5226 -0.5938
  229MOL0     H30889   3.839   4.875   1.283 -2.3926  0.5401  2.0573
  229MOL0     H30890   3.831   4.867   1.099 -2.5195  0.8703 -0.9868
  229MOL0     H30891   3.640   5.026   1.286 -0.7536  2.3068 -0.3848
  229MOL0     H30892   3.643   5.026   1.105 -2.9771  0.0081  2.3262
  229MOL0     H30893   3.843   5.137   1.092  0.7549  1.3664  1.3531
  229MOL0     H30894   3.737   5.215   1.201 -0.3299  0.1188  3.6434
  229MOL0     H30895   3.187   4.267   1.069  0.7266 -1.0242 -0.3628
  229MOL0     H30896   3.020   4.086   1.023  3.0850  1.7535  2.5882
  229MOL0     H30897   2.620   4.022   0.862  1.4958 -0.5098 -0.6590
  229MOL0     H30898   2.405   3.886   0.832 -0.3658  0.7736 -0.9702
  229MOL0     H30899   0.565   3.447   0.931 -2.1986 -2.6417  1.5924
  229MOL0     H30900   0.426   3.651   0.924  0.9617 -0.8153  0.7507
  229MOL0     H30901  -0.058   3.838   0.481  0.2994  0.9736 -0.9406
  229MOL0     H30902  -0.153   4.047   0.474  0.3710  1.0465 -1.2767
  229MOL0     H30903  -0.298   4.168   0.650  0.1547 -0.9623  0.7671
  229MOL0     H30904  -0.298   4.333   0.695 -1.6517 -1.6690  0.2021
  229MOL0     H30905  -0.164   4.119   0.852 -0.1389  0.1700 -0.9904
  229MOL0     H30906  -0.322   4.205   0.880 -1.3604  1.8500 -2.8662
  229MOL0     H30907  -0.193   4.421   0.899  2.2829  0.6143 -1.7538
  229MOL0     H30908  -0.042   4.322   0.908  0.8083  1.4755 -0.4220
  229MOL0     H30909  -0.108   4.362   1.150 -1.3709  0.7004  0.3926
  229MOL0     H30910  -0.275   4.332   1.110  1.4140  2.1968  3.8406
  229MOL0     H30911  -0.142   3.934   1.171  2.0905  0.7062  2.8128
  229MOL0     H30912   0.089   4.193   0.793  0.7830  0.0235  0.3550
  229MOL0     H30913   0.331   3.937   0.789  1.2335 -0.8512 -0.0801
  229MOL0     H30914   0.270   4.096   0.845 -0.0041 -1.2104 -0.7682
  229MOL0     H30915   0.202   3.945   0.914 -0.6309  1.0745  1.3460
  230MOL0     O30916   2.681  10.642   6.524  0.1411 -0.1324 -0.0694
  230MOL0     C30917   2.647  10.703   6.424  0.0010 -0.1675  0.3963
  230MOL0     O30918   2.731  10.783   6.349  0.1623 -0.3782  0.2591
  230MOL0     C30919   2.866  10.764   6.386  1.0181 -0.6664  0.4340
  230MOL0     C30920   2.940  10.879   6.427  1.0592 -0.1345 -0.3744
  230MOL0     C30921   3.073  10.876   6.423 -0.0591 -0.1411 -0.0398
  230MOL0     C30922   3.142  10.758   6.398  0.0927 -0.0910  0.0355
  230MOL0     O30923   3.271  10.738   6.424 -0.0207  0.3873  0.3387
  230MOL0     C30924   3.367  10.848   6.404 -0.2355  0.3176 -0.5870
  230MOL0     C30925   3.510  10.795   6.418  0.4832 -0.2473 -0.2331
  230MOL0     C30926   3.618  10.906   6.429 -0.4982 -0.3087  0.4434
  230MOL0     C30927   3.757  10.842   6.422 -0.5810  0.6626 -0.0819
  230MOL0     C30928   3.860  10.954   6.443  0.2299  0.0980  0.4949
  230MOL0     C30929   3.996  10.890   6.462  0.2183  0.3094 -0.1618
  230MOL0     C30930   4.055  10.820   6.337 -0.0465  0.5043 -0.4725
  230MOL0     C30931   4.079  10.923   6.225 -0.4845 -0.5586  0.3431
  230MOL0     N30932   4.214  10.975   6.213 -0.3178  0.0183 -0.0381
  230MOL0     C30933   4.308  10.989   6.315 -0.2803 -0.5324 -0.0607
  230MOL0     C30934   4.419  11.020   6.241 -0.6506  0.4508 -0.5889
  230MOL0     C30935   4.544  11.026   6.323  0.2960 -0.0134 -0.3343
  230MOL0     C30936   4.650  11.115   6.246  1.5688 -0.0282  0.2918
  230MOL0     C30937   4.783  11.138   6.308 -0.8244  0.7317  0.0596
  230MOL0     C30938   4.870  11.233   6.228  0.1294  0.5338  0.0603
  230MOL0     O30939   5.000  11.218   6.280  0.6070  0.5377  0.2948
  230MOL0     C30940   5.094  11.311   6.239 -0.4270 -0.5037  0.7985
  230MOL0     C30941   5.226  11.287   6.270  0.6238  0.5677 -0.4145
  230MOL0     C30942   5.326  11.379   6.246  0.3700 -0.1895  0.1752
  230MOL0     C30943   5.294  11.507   6.191  0.2786 -0.2626  0.2232
  230MOL0     C30944   5.412  11.603   6.185  0.0951  0.0796 -0.1825
  230MOL0     O30945   5.532  11.563   6.211 -0.9701  0.2799 -0.0622
  230MOL0     C30946   5.635  11.654   6.219  0.4580 -0.0549 -0.0203
  230MOL0     C30947   5.704  11.670   6.341 -0.0205 -0.0122  0.3416
  230MOL0     C30948   5.809  11.767   6.339 -0.3707 -0.2499  0.4706
  230MOL0     C30949   5.847  11.839   6.230 -1.5007  0.3059  0.0256
  230MOL0     O30950   5.947  11.934   6.251  0.3486  0.0155  0.1263
  230MOL0     C30951   5.939  12.047   6.167  0.5065  0.1604  0.4304
  230MOL0     C30952   6.039  12.150   6.219 -0.9647 -1.1160  0.2235
  230MOL0     C30953   6.186  12.088   6.218  0.2178  0.1907  0.2508
  230MOL0     C30954   6.286  12.186   6.275  0.8746  0.1682  0.4816
  230MOL0     C30955   6.418  12.129   6.261 -1.0946 -0.5833  0.0729
  230MOL0     C30956   6.527  12.217   6.311 -0.5783  0.9423  0.4030
  230MOL0     C30957   6.678  12.163   6.298 -0.0917 -0.0160 -0.1490
  230MOL0     C30958   6.762  12.287   6.331 -0.6258  1.2029  0.4569
  230MOL0    Cl30959   6.928  12.220   6.352 -0.3069  0.0919 -0.0555
  230MOL0     C30960   5.779  11.808   6.111  0.3813 -0.3015 -0.0790
  230MOL0     C30961   5.668  11.724   6.107 -0.5582  0.0068  0.7665
  230MOL0     O30962   5.386  11.716   6.143  0.4290 -0.1435 -0.1333
  230MOL0     C30963   5.168  11.529   6.135  0.5927 -0.7018 -0.1252
  230MOL0     C30964   5.069  11.427   6.159  0.3392 -0.4348 -0.3348
  230MOL0     N30965   4.394  11.024   6.109 -0.4027 -0.7977  0.4386
  230MOL0     N30966   4.275  10.998   6.089 -0.1217  0.7980 -0.4510
  230MOL0     C30967   3.070  10.638   6.377  0.5816  0.1324 -0.2742
  230MOL0     C30968   2.934  10.650   6.369  0.3705  0.5053  0.4094
  230MOL0     C30969   2.500  10.681   6.387  0.5472 -1.2760  0.1134
  230MOL0     C30970   2.407  10.682   6.491 -0.4028 -0.8080 -0.1955
  230MOL0     C30971   2.274  10.654   6.461  0.3403 -0.6480 -0.1956
  230MOL0     C30972   2.230  10.625   6.334 -0.3713  0.0998  0.3368
  230MOL0     O30973   2.099  10.595   6.307 -0.1278 -0.2308  0.3149
  230MOL0     C30974   2.029  10.507   6.401  0.1745  0.2606  0.0427
  230MOL0     C30975   2.090  10.367   6.371 -0.2539  0.6757  0.2558
  230MOL0     C30976   2.097  10.336   6.223  0.2380  0.3720  0.2252
  230MOL0     C30977   2.132  10.187   6.212 -0.4211 -0.6942  0.0436
  230MOL0     C30978   2.273  10.168   6.244  0.0995 -1.3159 -0.7680
  230MOL0     C30979   2.380  10.127   6.284  0.8321 -0.4795 -0.8976
  230MOL0     C30980   2.324  10.629   6.231  1.1544 -0.1520 -0.0313
  230MOL0     C30981   2.456  10.670   6.251  1.1159 -0.0472  0.4235
  230MOL0     C30982   2.546  10.673   6.129 -1.2770  0.4007 -0.7408
  230MOL0     H30983   2.888  10.967   6.461  2.6496  0.7286 -0.1137
  230MOL0     H30984   3.129  10.966   6.445 -2.2081  1.6622 -1.4842
  230MOL0     H30985   3.339  10.898   6.311  0.9235 -0.8363 -1.5918
  230MOL0     H30986   3.343  10.913   6.489 -0.9356 -1.9378  1.0512
  230MOL0     H30987   3.529  10.730   6.332  0.1447 -0.7396  0.0606
  230MOL0     H30988   3.509  10.739   6.512  2.1987  1.9680  1.1853
  230MOL0     H30989   3.604  10.961   6.522  0.7951  0.2383  0.3390
  230MOL0     H30990   3.597  10.970   6.343 -2.6921 -1.7532 -0.1790
  230MOL0     H30991   3.757  10.770   6.505 -0.0770 -0.8884 -1.3632
  230MOL0     H30992   3.774  10.776   6.337 -1.1504  0.7756 -0.2908
  230MOL0     H30993   3.858  11.024   6.360  0.6326 -1.5891 -0.9983
  230MOL0     H30994   3.847  11.008   6.537  1.9371  0.7507  0.3855
  230MOL0     H30995   4.069  10.969   6.486  1.3913 -0.1211 -2.0770
  230MOL0     H30996   3.993  10.824   6.549 -0.0403  1.8797  1.0717
  230MOL0     H30997   3.981  10.747   6.304  1.1196 -1.7527  1.5999
  230MOL0     H30998   4.143  10.764   6.367 -1.5490 -3.9933 -3.4645
  230MOL0     H30999   4.050  10.883   6.127 -0.9073 -1.2404  0.7467
  230MOL0     H31000   4.025  11.018   6.239  0.1276 -0.0520 -0.6042
  230MOL0     H31001   4.310  10.967   6.421 -0.5226  0.6765  0.2186
  230MOL0     H31002   4.519  11.063   6.423 -0.2741  1.6163 -1.0524
  230MOL0     H31003   4.594  10.929   6.318 -0.6325 -0.6932  2.0484
  230MOL0     H31004   4.640  11.073   6.145 -1.4566 -0.6226  0.7148
  230MOL0     H31005   4.601  11.213   6.245 -1.6515 -1.4580  1.9758
  230MOL0     H31006   4.829  11.039   6.314 -2.7219 -0.1274  1.3983
  230MOL0     H31007   4.767  11.177   6.409  3.7230  1.3207  0.7726
  230MOL0     H31008   4.839  11.336   6.250 -1.5495 -0.1977  1.4031
  230MOL0     H31009   4.873  11.207   6.122  2.1011  1.1520 -0.0664
  230MOL0     H31010   5.247  11.198   6.328  1.5865  2.7713  2.9568
  230MOL0     H31011   5.424  11.356   6.287  1.4049 -0.8386 -2.4376
  230MOL0     H31012   5.670  11.612   6.426 -0.3118  1.4391  1.2416
  230MOL0     H31013   5.869  11.786   6.428 -1.2301 -0.1406  1.0377
  230MOL0     H31014   5.972  12.024   6.066  1.8045  0.2933  0.8077
  230MOL0     H31015   5.837  12.086   6.172  1.1677  1.8491  1.9727
  230MOL0     H31016   6.030  12.243   6.162 -4.7738 -2.4372 -1.7552
  230MOL0     H31017   6.018  12.179   6.322  2.7078 -0.4483  0.8992
  230MOL0     H31018   6.199  11.996   6.275  1.1228  0.1842  0.0451
  230MOL0     H31019   6.215  12.068   6.114 -1.1505  0.3817 -0.1910
  230MOL0     H31020   6.260  12.210   6.378  0.0917 -1.2017  0.6346
  230MOL0     H31021   6.281  12.276   6.213  0.4305 -0.4431 -0.4064
  230MOL0     H31022   6.439  12.116   6.154 -1.2467 -0.3519  0.0129
  230MOL0     H31023   6.431  12.035   6.315  2.9204 -0.6044 -0.5999
  230MOL0     H31024   6.520  12.308   6.251  1.4117 -0.0600 -1.4891
  230MOL0     H31025   6.512  12.244   6.415  2.7583 -1.2243  1.6092
  230MOL0     H31026   6.698  12.126   6.197 -1.4795 -1.6252  0.1212
  230MOL0     H31027   6.690  12.086   6.374 -0.3903  0.3016  0.2253
  230MOL0     H31028   6.760  12.355   6.246 -1.1053 -1.0574 -1.4554
  230MOL0     H31029   6.736  12.334   6.427 -0.6178  3.1808 -0.4633
  230MOL0     H31030   5.832  11.852   6.027  3.1540  3.1943  3.1142
  230MOL0     H31031   5.608  11.705   6.019  3.0254 -2.3064 -1.4582
  230MOL0     H31032   5.149  11.626   6.092  2.3786  1.1625  2.9287
  230MOL0     H31033   4.971  11.447   6.118  0.7598  0.7396 -0.8069
  230MOL0     H31034   3.121  10.543   6.378 -1.1183 -0.8315 -1.1982
  230MOL0     H31035   2.868  10.565   6.354 -1.0249  1.2618  1.8271
  230MOL0     H31036   2.445  10.700   6.591 -1.3216  1.0998 -0.1482
  230MOL0     H31037   2.201  10.658   6.541 -0.5639  0.6909 -1.0440
  230MOL0     H31038   1.925  10.519   6.370  0.6491  0.2349 -1.6390
  230MOL0     H31039   2.031  10.521   6.510 -0.9659 -0.4087  0.1660
  230MOL0     H31040   2.022  10.299   6.424 -0.4332  1.6365  1.3074
  230MOL0     H31041   2.189  10.363   6.417 -0.7521  0.1005  1.3045
  230MOL0     H31042   2.166  10.398   6.165  0.8264 -0.8671 -0.4463
  230MOL0     H31043   1.994  10.351   6.189  0.2765  1.9095  0.7212
  230MOL0     H31044   2.061  10.124   6.267 -0.0724 -1.3247 -0.2245
  230MOL0     H31045   2.130  10.155   6.107  3.3398 -2.1562  0.2804
  230MOL0     H31046   2.475  10.098   6.323  1.1470  1.2449 -0.3403
  230MOL0     H31047   2.286  10.611   6.131 -2.0002 -0.5140  1.1353
  230MOL0     H31048   2.503  10.631   6.038  0.9477  2.3153 -2.8110
  230MOL0     H31049   2.582  10.776   6.122 -1.5039  0.5184 -0.2596
  230MOL0     H31050   2.633  10.610   6.153 -1.7739  0.2032  0.6378
  231MOL0     O31051   4.212   3.634   3.384  0.0095  0.0662 -0.0215
  231MOL0     C31052   4.307   3.706   3.373 -0.5456 -0.8222  0.7736
  231MOL0     O31053   4.313   3.844   3.383  0.4180  0.4518 -0.1149
  231MOL0     C31054   4.203   3.921   3.396 -0.6442  0.6107  0.1562
  231MOL0     C31055   4.066   3.875   3.411  0.3209 -0.6902  0.4382
  231MOL0     C31056   3.964   3.963   3.436  0.6119  0.4612  0.0880
  231MOL0     C31057   3.988   4.101   3.450 -0.0788  0.2995 -0.5659
  231MOL0     O31058   3.903   4.200   3.495  0.4729  0.3117  0.0914
  231MOL0     C31059   3.869   4.203   3.639 -0.1656  0.5561 -0.5416
  231MOL0     C31060   3.786   4.076   3.668  0.4138 -0.0078  0.2047
  231MOL0     C31061   3.713   4.086   3.797  0.6377 -0.4888  0.5893
  231MOL0     C31062   3.597   4.178   3.819 -0.4302 -0.3677 -0.6892
  231MOL0     C31063   3.473   4.109   3.871  0.4429 -0.1899  0.1323
  231MOL0     C31064   3.362   4.207   3.900  0.2397 -0.4165  0.2537
  231MOL0     C31065   3.244   4.124   3.954 -0.5409 -0.9627  0.4360
  231MOL0     C31066   3.140   4.218   4.010  0.5430  0.6237  0.5353
  231MOL0     N31067   3.194   4.271   4.138  0.2565  0.6366  0.5057
  231MOL0     C31068   3.215   4.208   4.255  0.4665 -0.7411 -0.9816
  231MOL0     C31069   3.274   4.305   4.331 -0.1605  0.5356  0.1350
  231MOL0     C31070   3.310   4.278   4.478  0.8952  1.1359  0.1264
  231MOL0     C31071   3.458   4.247   4.501 -0.8767 -0.7703 -0.2494
  231MOL0     C31072   3.490   4.216   4.649  0.4946 -0.0225 -0.2634
  231MOL0     C31073   3.626   4.154   4.665  0.4291 -0.0867  0.5967
  231MOL0     O31074   3.725   4.226   4.580 -0.4938  0.4960 -0.4732
  231MOL0     C31075   3.859   4.221   4.612  0.1407  0.4524 -0.3136
  231MOL0     C31076   3.954   4.302   4.548  0.3254 -0.2412  0.9507
  231MOL0     C31077   4.087   4.304   4.575 -0.8756  0.1471 -0.4130
  231MOL0     C31078   4.129   4.223   4.679 -0.0810 -0.9915  0.7203
  231MOL0     C31079   4.272   4.222   4.732  0.1614  0.6751  0.5212
  231MOL0     O31080   4.349   4.306   4.659 -0.2317 -0.4929  0.0620
  231MOL0     C31081   4.484   4.311   4.683  0.4086  0.0082  0.4812
  231MOL0     C31082   4.565   4.198   4.673 -0.6620  1.3529  0.7937
  231MOL0     C31083   4.705   4.204   4.679 -0.1495 -0.6328 -0.6058
  231MOL0     C31084   4.772   4.329   4.680 -0.3034  0.6068  0.7354
  231MOL0     O31085   4.903   4.357   4.635  0.5947 -0.3457  0.5372
  231MOL0     C31086   5.002   4.272   4.693 -0.2707 -0.7646  0.3096
  231MOL0     C31087   5.140   4.317   4.637  0.3248  0.6853 -0.6421
  231MOL0     C31088   5.241   4.201   4.645 -0.1830  0.0169  0.9353
  231MOL0     C31089   5.373   4.227   4.571  0.5130  0.0698 -0.3435
  231MOL0     C31090   5.480   4.109   4.584  0.3767  0.6300 -0.1821
  231MOL0     C31091   5.509   4.068   4.724 -0.2138 -0.2453 -0.5112
  231MOL0     C31092   5.614   3.949   4.736  0.5084  0.3563 -0.2518
  231MOL0     C31093   5.629   3.913   4.885  0.4285  0.1069 -0.1647
  231MOL0    Cl31094   5.691   4.062   4.968  0.2559 -0.3275 -0.0897
  231MOL0     C31095   4.687   4.445   4.683 -0.5655  0.4797 -0.1833
  231MOL0     C31096   4.551   4.434   4.686 -0.3255 -0.2219  1.3690
  231MOL0     O31097   4.305   4.148   4.820  0.3511 -0.2856 -0.1924
  231MOL0     C31098   4.038   4.144   4.745  0.4046 -0.2279 -0.2000
  231MOL0     C31099   3.907   4.146   4.715 -0.5235 -0.1653  0.0669
  231MOL0     N31100   3.292   4.422   4.265  0.4571  0.6646 -0.0570
  231MOL0     N31101   3.235   4.403   4.154  0.1789 -0.2591  0.8463
  231MOL0     C31102   4.113   4.148   3.418 -0.1239  0.4406 -0.9225
  231MOL0     C31103   4.221   4.060   3.391 -1.1131  0.0854 -0.7381
  231MOL0     C31104   4.437   3.647   3.323  0.3892 -0.0357  0.2806
  231MOL0     C31105   4.548   3.734   3.302 -0.1262  0.2058  0.4656
  231MOL0     C31106   4.673   3.688   3.269  0.0801  0.4286 -0.6254
  231MOL0     C31107   4.688   3.559   3.229  1.2235  0.9807  0.6392
  231MOL0     O31108   4.806   3.516   3.174  0.0864  0.7293 -1.3996
  231MOL0     C31109   4.820   3.394   3.102 -0.5011 -0.0398 -1.4988
  231MOL0     C31110   4.963   3.363   3.050  0.7483  0.0186  0.2463
  231MOL0     C31111   5.068   3.375   3.163 -0.0073  0.4123 -0.3340
  231MOL0     C31112   5.196   3.297   3.116 -0.4909 -0.2977 -0.8645
  231MOL0     C31113   5.264   3.349   2.998  0.0642  0.0731  0.2607
  231MOL0     C31114   5.327   3.377   2.904 -0.0141  0.7880  0.4512
  231MOL0     C31115   4.580   3.471   3.243 -0.6186  0.0414 -1.4647
  231MOL0     C31116   4.459   3.507   3.293  0.7037 -0.0059  0.0567
  231MOL0     C31117   4.352   3.406   3.284  0.2833 -0.0627  0.1802
  231MOL0     H31118   4.031   3.775   3.387  0.4579 -0.2396 -1.7942
  231MOL0     H31119   3.861   3.933   3.452  1.2622 -0.8513  2.3609
  231MOL0     H31120   3.962   4.211   3.696 -0.7747 -0.2701  0.6081
  231MOL0     H31121   3.810   4.291   3.665 -0.7331 -0.4107  1.5830
  231MOL0     H31122   3.856   3.992   3.673  1.7954  0.8171 -3.1013
  231MOL0     H31123   3.716   4.048   3.589  0.1042  0.3414  0.3497
  231MOL0     H31124   3.783   4.095   3.880  0.9122  0.7616  0.2322
  231MOL0     H31125   3.669   3.986   3.798 -1.9565  0.5740 -0.4410
  231MOL0     H31126   3.621   4.257   3.890 -2.2516 -0.3670 -0.0219
  231MOL0     H31127   3.564   4.222   3.724  0.3834  1.7450 -0.0380
  231MOL0     H31128   3.430   4.035   3.803 -1.6167  0.6751  0.4266
  231MOL0     H31129   3.503   4.066   3.966  0.6168  0.4862  0.3882
  231MOL0     H31130   3.401   4.272   3.978  2.0608 -2.1057  0.8279
  231MOL0     H31131   3.334   4.251   3.804  1.8373 -2.5131 -1.2783
  231MOL0     H31132   3.290   4.062   4.032 -0.2944  0.2945  1.3252
  231MOL0     H31133   3.206   4.059   3.875  0.3633 -0.2274 -0.6377
  231MOL0     H31134   3.117   4.296   3.936  0.5757 -0.8833 -1.1192
  231MOL0     H31135   3.050   4.160   4.034 -0.6366  1.7483 -0.8980
  231MOL0     H31136   3.187   4.105   4.276 -0.9666 -1.0145 -3.7821
  231MOL0     H31137   3.280   4.362   4.540 -1.4576  1.3743 -1.1885
  231MOL0     H31138   3.242   4.198   4.509  0.7931  0.7325 -1.0810
  231MOL0     H31139   3.485   4.159   4.442 -2.0493  0.3282 -2.5150
  231MOL0     H31140   3.514   4.333   4.464 -2.1046 -0.3792 -1.2900
  231MOL0     H31141   3.413   4.148   4.686  0.8274 -1.2316 -1.6844
  231MOL0     H31142   3.478   4.306   4.709 -2.9544  0.0714 -0.8576
  231MOL0     H31143   3.617   4.051   4.628  0.9117 -0.0314  0.3085
  231MOL0     H31144   3.663   4.155   4.768  4.1765  0.3545 -0.6007
  231MOL0     H31145   3.914   4.381   4.485  0.6402  0.4236  1.5666
  231MOL0     H31146   4.142   4.373   4.513 -2.1040 -0.7436 -2.6177
  231MOL0     H31147   4.520   4.099   4.675  1.3238  0.3442 -0.3177
  231MOL0     H31148   4.766   4.115   4.668  0.0506 -0.6110  0.3047
  231MOL0     H31149   4.999   4.276   4.802 -2.5790  0.8087  0.2697
  231MOL0     H31150   4.985   4.169   4.660 -0.8033  0.1958 -2.6917
  231MOL0     H31151   5.119   4.347   4.534  1.5020 -0.8180 -1.3585
  231MOL0     H31152   5.181   4.397   4.699 -0.0628  0.3508  0.0579
  231MOL0     H31153   5.256   4.193   4.753 -5.1844 -3.4134  1.6970
  231MOL0     H31154   5.204   4.107   4.603  0.8452 -0.8050  1.8076
  231MOL0     H31155   5.425   4.312   4.616 -0.9031  0.8712 -0.1339
  231MOL0     H31156   5.357   4.266   4.470  1.8749  3.4643  0.6012
  231MOL0     H31157   5.572   4.146   4.537 -0.8680  2.1712 -1.5304
  231MOL0     H31158   5.435   4.026   4.528  0.6313 -0.4556  1.1585
  231MOL0     H31159   5.530   4.159   4.781 -1.1945 -1.3964  1.8439
  231MOL0     H31160   5.415   4.025   4.760  0.0441 -1.4891 -1.2799
  231MOL0     H31161   5.711   3.969   4.691  0.6026  2.3300  0.7183
  231MOL0     H31162   5.579   3.857   4.686  4.0844 -0.0035 -2.4008
  231MOL0     H31163   5.536   3.880   4.932 -0.9030  0.3730 -2.4388
  231MOL0     H31164   5.688   3.822   4.893  0.4591  0.3205  3.2787
  231MOL0     H31165   4.720   4.548   4.678 -2.7619  1.3474  1.3265
  231MOL0     H31166   4.500   4.529   4.680  0.2394  0.0172 -0.1400
  231MOL0     H31167   4.056   4.085   4.834  1.0861 -0.0245 -0.1940
  231MOL0     H31168   3.858   4.066   4.770  0.5696 -2.1080 -1.6284
  231MOL0     H31169   4.129   4.255   3.421  2.0772  0.1315 -0.2130
  231MOL0     H31170   4.326   4.086   3.381 -0.8744 -0.9790 -1.0969
  231MOL0     H31171   4.547   3.839   3.330  0.4876  0.1338  0.7649
  231MOL0     H31172   4.756   3.757   3.261 -0.0814  0.6549 -0.3403
  231MOL0     H31173   4.748   3.380   3.021 -0.8759  1.4542 -1.4551
  231MOL0     H31174   4.795   3.314   3.172 -1.3914  1.9325  0.5900
  231MOL0     H31175   4.980   3.423   2.960 -0.5441 -0.2695 -0.2125
  231MOL0     H31176   4.956   3.256   3.026 -1.5950  0.2495 -0.3178
  231MOL0     H31177   5.021   3.338   3.254  0.7491  4.1201  1.7641
  231MOL0     H31178   5.093   3.478   3.192  1.2549  0.3063 -0.9981
  231MOL0     H31179   5.275   3.316   3.190 -0.0908  0.1677 -1.3971
  231MOL0     H31180   5.189   3.188   3.115  1.1374 -0.4382  0.1259
  231MOL0     H31181   5.386   3.396   2.818  0.0912 -1.1642  0.0474
  231MOL0     H31182   4.582   3.368   3.208 -0.4419 -1.1902  1.8069
  231MOL0     H31183   4.399   3.315   3.245  0.9213  0.2579  0.1985
  231MOL0     H31184   4.288   3.384   3.370  0.1959  2.5890  0.8673
  231MOL0     H31185   4.283   3.444   3.208 -1.4241  0.6479  2.0021
  232MOL0     O31186   6.762  10.542  10.436 -0.6496  0.2625  0.1709
  232MOL0     C31187   6.697  10.641  10.472 -0.5277  0.2278  0.2608
  232MOL0     O31188   6.645  10.664  10.599 -0.2613  0.3922  0.2539
  232MOL0     C31189   6.688  10.592  10.704 -0.4258  0.7122 -0.7108
  232MOL0     C31190   6.832  10.591  10.737  0.1626 -0.1965  0.3161
  232MOL0     C31191   6.886  10.520  10.846 -0.1433 -0.7626  0.4425
  232MOL0     C31192   6.804  10.439  10.917  0.1702  0.4361  0.8506
  232MOL0     O31193   6.877  10.373  11.015  0.5304  0.3285  0.2440
  232MOL0     C31194   6.796  10.291  11.106  0.3920 -0.3859 -0.4624
  232MOL0     C31195   6.898  10.244  11.205 -0.5411  0.5334 -0.3684
  232MOL0     C31196   7.001  10.151  11.142  0.8408 -0.3338  0.5946
  232MOL0     C31197   6.947  10.009  11.120 -1.4853  0.8612  0.1281
  232MOL0     C31198   7.057   9.897  11.137 -0.0920  0.0092 -0.0488
  232MOL0     C31199   7.086   9.858  11.289 -0.7077  0.6063 -0.2550
  232MOL0     C31200   7.176   9.731  11.295 -0.1794  0.8485  0.4919
  232MOL0     C31201   7.218   9.694  11.445 -0.4829  0.2089 -0.4882
  232MOL0     N31202   7.344   9.612  11.463  0.7976  0.5028  1.1666
  232MOL0     C31203   7.399   9.585  11.578 -0.2270 -0.0320 -0.6994
  232MOL0     C31204   7.507   9.522  11.555 -0.1292 -0.5145 -0.6424
  232MOL0     C31205   7.604   9.483  11.666  0.6183 -0.0015 -0.0593
  232MOL0     C31206   7.681   9.359  11.630  0.2005 -0.2148  0.4100
  232MOL0     C31207   7.804   9.349  11.718  0.4993  0.2390 -0.2980
  232MOL0     C31208   7.913   9.430  11.649 -0.2444  0.6266 -0.8762
  232MOL0     O31209   8.028   9.394  11.727 -0.0178 -0.3481 -0.1911
  232MOL0     C31210   8.144   9.450  11.668  1.0542  0.2478 -0.2785
  232MOL0     C31211   8.240   9.366  11.616 -0.2240  0.6203 -1.3450
  232MOL0     C31212   8.365   9.413  11.577 -0.1258 -0.3029 -0.2227
  232MOL0     C31213   8.392   9.554  11.600  1.1188 -0.5990  0.0762
  232MOL0     C31214   8.517   9.615  11.564 -0.7470 -0.0691  0.2002
  232MOL0     O31215   8.551   9.751  11.609 -0.5267  0.3703 -0.6463
  232MOL0     C31216   8.680   9.791  11.590  0.3098 -0.5432  0.4333
  232MOL0     C31217   8.721   9.919  11.551 -0.1315 -0.1152  0.3998
  232MOL0     C31218   8.853   9.950  11.536 -0.3095 -0.3488 -0.1486
  232MOL0     C31219   8.961   9.862  11.552  0.4066 -0.1255  0.1000
  232MOL0     O31220   9.090   9.915  11.541  0.4608 -0.9910  0.0065
  232MOL0     C31221   9.199   9.837  11.584  0.4851 -0.3302 -0.2953
  232MOL0     C31222   9.317   9.925  11.603  0.3548  0.1971 -0.0522
  232MOL0     C31223   9.443   9.845  11.593 -0.1120  1.3074  0.1832
  232MOL0     C31224   9.568   9.923  11.640 -0.3454  0.1367  0.3737
  232MOL0     C31225   9.694   9.837  11.619  0.2254 -0.2798  0.2728
  232MOL0     C31226   9.824   9.889  11.686  0.5973  0.4262  0.1195
  232MOL0     C31227   9.933   9.780  11.683  0.3363 -0.1178  0.7149
  232MOL0     C31228  10.057   9.840  11.748 -0.5749 -0.2542 -0.3613
  232MOL0    Cl31229  10.114   9.961  11.632 -0.0816 -0.1513 -0.3784
  232MOL0     C31230   8.925   9.729  11.585  0.0919 -0.0257 -0.5225
  232MOL0     C31231   8.787   9.700  11.608 -0.4019  1.1047 -0.7296
  232MOL0     O31232   8.593   9.542  11.498 -0.3923 -0.1548  0.0509
  232MOL0     C31233   8.293   9.644  11.651 -0.0582 -0.5893  0.4742
  232MOL0     C31234   8.173   9.584  11.685 -0.1360 -0.0991  0.2518
  232MOL0     N31235   7.528   9.529  11.412 -0.4696 -0.0875  0.4704
  232MOL0     N31236   7.430   9.593  11.362 -0.6426  0.3261  0.2056
  232MOL0     C31237   6.665  10.427  10.882  0.4654 -0.5357  0.1491
  232MOL0     C31238   6.602  10.516  10.786 -0.3961  0.2922  0.3833
  232MOL0     C31239   6.652  10.729  10.370 -0.9843  0.6483  0.1476
  232MOL0     C31240   6.521  10.760  10.364  0.5577  0.7377  0.0386
  232MOL0     C31241   6.463  10.841  10.268  0.0709  0.2026 -0.4612
  232MOL0     C31242   6.543  10.885  10.162  0.1189 -0.0281 -0.2897
  232MOL0     O31243   6.503  10.945  10.046  0.3255 -0.4267  0.1459
  232MOL0     C31244   6.364  10.978  10.044  0.5292  0.0963  0.0268
  232MOL0     C31245   6.327  11.065   9.914  0.1128 -0.1330 -0.5967
  232MOL0     C31246   6.407  11.199   9.914  0.3712 -0.7921 -0.2782
  232MOL0     C31247   6.339  11.310  10.010 -1.0690 -0.1497  0.7050
  232MOL0     C31248   6.206  11.350   9.968 -0.6129  0.8835  0.4808
  232MOL0     C31249   6.095  11.379   9.936 -0.7224  0.6687  0.4910
  232MOL0     C31250   6.678  10.855  10.168 -0.4794 -0.7285  0.5706
  232MOL0     C31251   6.737  10.793  10.281  0.3601  0.2011  0.5158
  232MOL0     C31252   6.885  10.785  10.302  0.5331  0.2120 -0.3823
  232MOL0     H31253   6.898  10.641  10.667  2.1371 -3.8778 -0.7643
  232MOL0     H31254   6.993  10.523  10.864 -0.0662  2.0315  0.0134
  232MOL0     H31255   6.719  10.353  11.155 -0.0835 -1.0285 -0.3812
  232MOL0     H31256   6.753  10.199  11.064 -2.4841 -0.1270  1.5949
  232MOL0     H31257   6.853  10.195  11.292  0.0851 -1.0775 -0.9136
  232MOL0     H31258   6.958  10.329  11.239 -0.9092  0.6144  0.0963
  232MOL0     H31259   7.095  10.146  11.198  1.4834 -0.1548 -0.4302
  232MOL0     H31260   7.023  10.194  11.044 -1.4747  1.0957  0.6157
  232MOL0     H31261   6.870   9.981  11.193 -1.3255  0.9909  0.3465
  232MOL0     H31262   6.902   9.996  11.021 -0.8510  2.0389 -0.3252
  232MOL0     H31263   7.030   9.809  11.077 -2.8366  0.5701  0.2371
  232MOL0     H31264   7.157   9.927  11.103 -0.1738  2.7425  1.8207
  232MOL0     H31265   7.143   9.936  11.340 -0.7666 -0.3618  1.3801
  232MOL0     H31266   6.990   9.844  11.341 -1.1504  0.7161 -1.0356
  232MOL0     H31267   7.265   9.747  11.234  0.9923 -1.9191  1.3040
  232MOL0     H31268   7.124   9.647  11.248 -0.2207 -0.0948  2.1135
  232MOL0     H31269   7.231   9.796  11.481 -1.8736 -0.6287  2.6736
  232MOL0     H31270   7.141   9.640  11.501 -1.1444  1.2734 -0.3492
  232MOL0     H31271   7.350   9.602  11.674  1.2429  2.5493 -0.3174
  232MOL0     H31272   7.677   9.564  11.675  0.0715  0.6074 -1.0275
  232MOL0     H31273   7.551   9.481  11.762  1.3004  3.9850  0.5755
  232MOL0     H31274   7.610   9.277  11.648 -0.4546 -0.0904 -1.4613
  232MOL0     H31275   7.709   9.351  11.525 -0.2577  1.3702  0.1448
  232MOL0     H31276   7.826   9.242  11.719 -2.8025 -0.5672  1.6406
  232MOL0     H31277   7.791   9.371  11.824  1.6993  0.3238 -0.1566
  232MOL0     H31278   7.892   9.535  11.668  0.0856  0.5756 -0.1706
  232MOL0     H31279   7.919   9.406  11.543  0.3571  2.9985 -1.4176
  232MOL0     H31280   8.226   9.260  11.599 -1.5180  0.4232  0.7483
  232MOL0     H31281   8.433   9.342  11.532 -1.1383 -0.0122 -2.3071
  232MOL0     H31282   8.645   9.995  11.537 -0.2601 -0.6243 -2.0820
  232MOL0     H31283   8.892  10.047  11.508 -0.8833  0.4219  1.6153
  232MOL0     H31284   9.172   9.786  11.677  0.7351 -0.2444 -0.1737
  232MOL0     H31285   9.215   9.755  11.513 -4.4597 -1.1939 -0.7646
  232MOL0     H31286   9.321  10.003  11.527 -2.0993  2.1403  1.6382
  232MOL0     H31287   9.315   9.963  11.706  2.3024  2.5349 -0.7888
  232MOL0     H31288   9.439   9.757  11.658 -2.1226  1.1754 -0.0605
  232MOL0     H31289   9.464   9.799  11.496 -4.0894 -1.4078  0.3679
  232MOL0     H31290   9.564   9.960  11.743  2.1321  3.4009 -0.5147
  232MOL0     H31291   9.583  10.020  11.590  0.4025 -0.2323 -0.1299
  232MOL0     H31292   9.709   9.808  11.514 -0.7734  2.0972 -0.6090
  232MOL0     H31293   9.675   9.749  11.681 -2.4164  0.2008  0.2594
  232MOL0     H31294   9.852   9.972  11.621  2.1359 -0.6087 -0.5977
  232MOL0     H31295   9.810   9.932  11.785 -0.3195  2.3046 -0.7660
  232MOL0     H31296   9.963   9.749  11.582  2.2336  3.8411 -0.1389
  232MOL0     H31297   9.895   9.696  11.742  0.6959 -1.6989 -1.1974
  232MOL0     H31298  10.042   9.887  11.845 -2.6165 -3.1912  0.8989
  232MOL0     H31299  10.135   9.766  11.768 -0.7757 -0.2323  0.5105
  232MOL0     H31300   9.001   9.658  11.616 -1.7235 -1.0950  1.8213
  232MOL0     H31301   8.766   9.601  11.648  0.9709  0.0183 -2.5442
  232MOL0     H31302   8.300   9.751  11.666 -1.2528  0.2150 -3.4465
  232MOL0     H31303   8.087   9.644  11.713  0.1301 -0.1017  1.0978
  232MOL0     H31304   6.606  10.363  10.948 -0.0301  2.2565  2.6810
  232MOL0     H31305   6.495  10.514  10.766 -0.1398  0.3548 -1.1108
  232MOL0     H31306   6.460  10.711  10.438  1.3775 -3.1662 -1.6208
  232MOL0     H31307   6.359  10.870  10.270 -0.9244 -2.9793  1.1711
  232MOL0     H31308   6.341  11.027  10.139  0.5485 -2.7484  1.6347
  232MOL0     H31309   6.307  10.887  10.023  2.5669 -1.0739 -0.7141
  232MOL0     H31310   6.218  11.076   9.909  0.4493  5.8139 -1.8838
  232MOL0     H31311   6.357  11.013   9.822  0.9530  0.6855 -0.8037
  232MOL0     H31312   6.399  11.251   9.818 -1.5645 -0.1828  0.1487
  232MOL0     H31313   6.513  11.180   9.930  0.6724  0.5390 -0.5562
  232MOL0     H31314   6.324  11.267  10.110  3.0242  1.5469  2.2864
  232MOL0     H31315   6.401  11.400  10.017  0.1705  0.1182 -6.3305
  232MOL0     H31316   5.992  11.397   9.916 -2.1611 -2.7447  3.6389
  232MOL0     H31317   6.753  10.883  10.095  0.5665 -1.1298  1.4718
  232MOL0     H31318   6.912  10.761  10.406 -0.3471 -0.2450 -0.2431
  232MOL0     H31319   6.934  10.710  10.240  1.7540 -0.4544  1.2897
  232MOL0     H31320   6.937  10.878  10.280  1.2753  0.7346  2.9738
  233MOL0     O31321   6.303   3.289   8.401  0.2767  0.4795  0.0260
  233MOL0     C31322   6.338   3.187   8.470  0.6543  0.0098  0.7194
  233MOL0     O31323   6.464   3.140   8.480 -0.4204 -0.5933 -1.0198
  233MOL0     C31324   6.575   3.208   8.442  0.0566  0.5158  0.1686
  233MOL0     C31325   6.671   3.134   8.371 -0.0843 -0.5630 -0.6377
  233MOL0     C31326   6.795   3.193   8.353 -0.8037  0.2937  0.5189
  233MOL0     C31327   6.822   3.323   8.397 -0.6934  1.2633 -0.1660
  233MOL0     O31328   6.956   3.359   8.375  0.6957 -0.4999 -0.3594
  233MOL0     C31329   6.988   3.470   8.466  0.3802 -0.6119 -0.3879
  233MOL0     C31330   7.142   3.498   8.458  0.2968 -0.4457  1.0873
  233MOL0     C31331   7.180   3.620   8.532 -0.6326 -0.6414 -0.1931
  233MOL0     C31332   7.334   3.636   8.517  0.6227 -0.1554 -0.3451
  233MOL0     C31333   7.385   3.740   8.614 -0.0573  0.4496 -0.9519
  233MOL0     C31334   7.316   3.881   8.594  0.2955  0.6071 -0.3971
  233MOL0     C31335   7.313   3.949   8.454 -0.0110 -0.2746  0.4383
  233MOL0     C31336   7.206   4.058   8.432  0.1924 -0.4137  0.0128
  233MOL0     N31337   7.084   3.981   8.406 -0.1749 -0.5267  0.1195
  233MOL0     C31338   7.053   3.907   8.296  0.7344 -0.4109 -0.1236
  233MOL0     C31339   6.929   3.855   8.314 -0.4206  0.0859 -0.5496
  233MOL0     C31340   6.848   3.769   8.218 -1.4115 -0.3470 -0.3007
  233MOL0     C31341   6.932   3.662   8.139  1.0523  1.2562 -0.1265
  233MOL0     C31342   6.850   3.586   8.027  0.0510  0.3778 -0.0612
  233MOL0     C31343   6.709   3.542   8.056 -0.4790  1.2719  0.0124
  233MOL0     O31344   6.645   3.493   7.933 -0.2302  0.3595  0.1091
  233MOL0     C31345   6.505   3.473   7.939  0.0287 -0.6803  0.0197
  233MOL0     C31346   6.440   3.455   7.815 -0.1370  0.4955  0.0943
  233MOL0     C31347   6.309   3.417   7.809  0.5705  0.4071  0.4043
  233MOL0     C31348   6.221   3.426   7.923  0.1988  0.0248 -0.0855
  233MOL0     C31349   6.082   3.386   7.917  0.7535  0.1595  0.3181
  233MOL0     O31350   6.008   3.408   8.023 -0.7216 -0.6086  0.4303
  233MOL0     C31351   5.875   3.383   8.021  0.7072 -0.7003  0.0789
  233MOL0     C31352   5.837   3.253   8.037  1.0223  0.2634 -0.0881
  233MOL0     C31353   5.700   3.215   8.052 -1.1582  0.1786  0.0584
  233MOL0     C31354   5.598   3.314   8.032  0.5423  0.0707  0.1281
  233MOL0     O31355   5.460   3.293   8.047 -0.6670 -0.0537  0.6277
  233MOL0     C31356   5.412   3.186   7.967 -0.1191 -0.5530  1.2028
  233MOL0     C31357   5.262   3.199   7.947  0.2207  0.7597 -0.2264
  233MOL0     C31358   5.208   3.344   7.911 -0.0754  1.0647 -0.4216
  233MOL0     C31359   5.057   3.346   7.870  0.4398  0.2574 -0.1076
  233MOL0     C31360   4.965   3.262   7.960 -0.0429  0.5398 -0.6123
  233MOL0     C31361   4.830   3.288   7.908  0.1226 -0.4341  0.6016
  233MOL0     C31362   4.734   3.198   7.978  0.6142  0.2884  0.8026
  233MOL0     C31363   4.587   3.235   7.976 -0.2721  0.3134  0.0723
  233MOL0    Cl31364   4.498   3.104   8.059 -0.8277  0.2222  0.1637
  233MOL0     C31365   5.643   3.447   7.994 -0.2297 -0.5879 -0.1890
  233MOL0     C31366   5.779   3.481   7.993 -0.0933 -0.0292 -1.0679
  233MOL0     O31367   6.035   3.337   7.813  0.7555 -0.7124  0.3270
  233MOL0     C31368   6.278   3.455   8.045 -0.6295 -0.2149  0.0919
  233MOL0     C31369   6.419   3.470   8.053 -1.1664 -0.6356  0.2994
  233MOL0     N31370   6.891   3.886   8.443 -0.2705  0.1341 -0.2632
  233MOL0     N31371   6.982   3.961   8.494  0.4732 -0.8850 -0.0234
  233MOL0     C31372   6.717   3.394   8.445 -0.1518 -0.8550  0.1600
  233MOL0     C31373   6.593   3.344   8.480 -0.0094 -0.3175  0.4253
  233MOL0     C31374   6.233   3.105   8.550 -0.3415  0.3507 -0.2286
  233MOL0     C31375   6.268   2.992   8.624 -0.1080  0.3194 -0.7623
  233MOL0     C31376   6.175   2.923   8.692  0.2213 -0.1684 -0.4492
  233MOL0     C31377   6.045   2.968   8.714 -0.3236 -0.1953  0.4917
  233MOL0     O31378   5.958   2.887   8.778 -0.2190 -0.3904 -1.0940
  233MOL0     C31379   5.928   2.930   8.908 -0.5404  0.5406 -0.1001
  233MOL0     C31380   5.787   2.878   8.943 -0.2570 -0.1360  0.6522
  233MOL0     C31381   5.679   2.950   8.868  0.0225 -0.6478 -0.0397
  233MOL0     C31382   5.542   2.924   8.929  0.0214  0.9011 -0.3281
  233MOL0     C31383   5.446   3.022   8.879  0.4959  0.1046 -0.0481
  233MOL0     C31384   5.357   3.086   8.834 -0.1522 -0.1101 -0.6357
  233MOL0     C31385   5.997   3.080   8.643 -0.8054 -0.5021  0.6289
  233MOL0     C31386   6.092   3.137   8.554 -0.7312  0.3322 -0.4143
  233MOL0     C31387   6.036   3.243   8.463  0.3149 -1.2318 -0.0088
  233MOL0     H31388   6.660   3.030   8.345  0.4777 -0.3214 -1.8924
  233MOL0     H31389   6.865   3.139   8.290 -2.7508  0.5807 -2.0736
  233MOL0     H31390   6.944   3.570   8.454  1.6686  0.2099  1.2690
  233MOL0     H31391   6.962   3.436   8.567 -2.2400  1.7745 -0.1239
  233MOL0     H31392   7.165   3.508   8.351 -0.1581  0.0777  1.0364
  233MOL0     H31393   7.192   3.416   8.511 -0.9755 -0.1198  2.9031
  233MOL0     H31394   7.155   3.613   8.638  0.8532  0.2978  0.2542
  233MOL0     H31395   7.119   3.701   8.491  0.7514  0.7790  0.4462
  233MOL0     H31396   7.387   3.544   8.541  1.0993  0.0762 -0.4921
  233MOL0     H31397   7.361   3.663   8.414 -0.6450  0.8780 -0.4439
  233MOL0     H31398   7.349   3.709   8.713 -2.2168  1.9529 -1.1941
  233MOL0     H31399   7.493   3.758   8.612  0.0299  0.0361 -0.2245
  233MOL0     H31400   7.212   3.878   8.629 -0.7585 -1.6490 -3.3051
  233MOL0     H31401   7.375   3.939   8.665  0.6002  0.4722 -0.5383
  233MOL0     H31402   7.311   3.869   8.379  0.0378  0.2633 -0.1457
  233MOL0     H31403   7.401   4.010   8.433 -2.1742  2.2055 -2.1681
  233MOL0     H31404   7.198   4.107   8.529  2.9896 -0.3267  0.2955
  233MOL0     H31405   7.240   4.130   8.357 -0.6692 -0.6592 -0.6257
  233MOL0     H31406   7.115   3.895   8.207  1.3932 -3.4456  0.6229
  233MOL0     H31407   6.762   3.720   8.265 -1.3282 -0.3901 -0.1922
  233MOL0     H31408   6.800   3.835   8.145 -1.2415  1.0309  0.7700
  233MOL0     H31409   7.017   3.712   8.092  2.6078 -0.9067  0.2421
  233MOL0     H31410   6.979   3.592   8.208  1.8274  0.8150 -1.0810
  233MOL0     H31411   6.909   3.496   8.007  1.0992 -0.1132  4.1213
  233MOL0     H31412   6.844   3.638   7.932  0.3691  2.8144  1.1779
  233MOL0     H31413   6.649   3.629   8.086 -2.7598 -0.7126  1.6458
  233MOL0     H31414   6.704   3.466   8.135 -0.0131  2.0202  0.7832
  233MOL0     H31415   6.502   3.472   7.728  0.1890  1.8736  0.5698
  233MOL0     H31416   6.266   3.382   7.716  1.0701  2.2077 -0.5597
  233MOL0     H31417   5.916   3.178   8.037  2.3028  1.5224 -1.5584
  233MOL0     H31418   5.687   3.110   8.074  0.6795  0.2598  1.8286
  233MOL0     H31419   5.452   3.186   7.865  2.8368 -3.2316  2.1811
  233MOL0     H31420   5.418   3.088   8.014 -1.0544 -2.3148 -2.0507
  233MOL0     H31421   5.234   3.134   7.864 -1.5859  0.0997  0.8441
  233MOL0     H31422   5.210   3.155   8.033  1.6252 -1.4507 -0.4345
  233MOL0     H31423   5.217   3.402   8.004  0.3320  4.1650 -2.2774
  233MOL0     H31424   5.269   3.392   7.834 -0.0028  3.2209  0.8984
  233MOL0     H31425   5.043   3.304   7.770 -1.3973 -1.6308  0.8457
  233MOL0     H31426   5.021   3.449   7.872 -1.8459 -0.4686 -1.0000
  233MOL0     H31427   4.978   3.293   8.065  0.5828  3.4197 -1.4445
  233MOL0     H31428   4.990   3.156   7.951  2.5665  1.1568 -1.4647
  233MOL0     H31429   4.799   3.393   7.905  1.3941 -0.0423 -2.4009
  233MOL0     H31430   4.835   3.264   7.802  0.4393  2.3565 -0.0979
  233MOL0     H31431   4.756   3.177   8.083 -2.9082 -2.3838  1.2053
  233MOL0     H31432   4.737   3.101   7.927 -0.3958  1.3447 -1.4458
  233MOL0     H31433   4.566   3.329   8.028 -0.5109  0.2517  0.0891
  233MOL0     H31434   4.564   3.235   7.869  0.6294 -1.8393 -0.1728
  233MOL0     H31435   5.575   3.529   7.975  0.6410  0.0640 -0.5901
  233MOL0     H31436   5.810   3.583   7.973  1.2095 -0.2271 -0.2415
  233MOL0     H31437   6.221   3.456   8.137  0.5752 -1.4313  0.8955
  233MOL0     H31438   6.476   3.487   8.144 -0.1051  1.7169 -0.7283
  233MOL0     H31439   6.724   3.499   8.470  0.5320 -0.8822  0.1122
  233MOL0     H31440   6.516   3.404   8.527  0.0465 -0.7046  1.0282
  233MOL0     H31441   6.369   2.954   8.616 -1.2930 -2.8944 -2.2893
  233MOL0     H31442   6.209   2.837   8.749  0.6492 -0.1887 -0.7322
  233MOL0     H31443   5.938   3.038   8.921  1.2291  0.6193 -1.7127
  233MOL0     H31444   6.002   2.887   8.978 -2.8361 -3.6325  0.0709
  233MOL0     H31445   5.770   2.890   9.051 -1.4322 -0.4966  0.5262
  233MOL0     H31446   5.773   2.770   8.937  0.5697 -0.1761 -1.0908
  233MOL0     H31447   5.683   2.925   8.762  2.5335  0.8001 -0.3748
  233MOL0     H31448   5.705   3.055   8.883 -0.2050 -0.7628  1.2528
  233MOL0     H31449   5.509   2.824   8.902  0.0123  1.3995 -2.3237
  233MOL0     H31450   5.548   2.939   9.038  1.3574 -1.4988 -0.0007
  233MOL0     H31451   5.290   3.156   8.788  1.0789  3.2275  2.1759
  233MOL0     H31452   5.894   3.112   8.655 -0.2991  1.7963 -0.5489
  233MOL0     H31453   6.063   3.345   8.490 -0.1494 -0.4287 -2.2959
  233MOL0     H31454   6.075   3.224   8.362 -2.4931 -0.5272 -1.3308
  233MOL0     H31455   5.927   3.237   8.469  0.1280  2.0529  2.1193
  234MOL0     O31456   8.382   1.423   7.718 -0.4189  0.3002 -0.4000
  234MOL0     C31457   8.276   1.361   7.727  0.1131 -0.6399  0.8550
  234MOL0     O31458   8.205   1.348   7.848  0.2696  0.3030  0.5496
  234MOL0     C31459   8.269   1.382   7.960 -0.2927 -1.2714 -0.3601
  234MOL0     C31460   8.196   1.473   8.042 -1.1091 -0.3846 -0.9043
  234MOL0     C31461   8.258   1.525   8.170 -0.6771  0.2217 -0.5135
  234MOL0     C31462   8.380   1.477   8.211 -0.4431 -0.1758  0.3112
  234MOL0     O31463   8.437   1.527   8.323  0.4565 -0.2709 -0.1178
  234MOL0     C31464   8.504   1.439   8.408  0.4122 -0.0090 -0.2252
  234MOL0     C31465   8.550   1.505   8.542  0.3571  0.0552 -0.3553
  234MOL0     C31466   8.667   1.598   8.523 -0.5860 -0.6050 -0.7810
  234MOL0     C31467   8.753   1.610   8.646 -0.6515  0.0536  0.4433
  234MOL0     C31468   8.866   1.705   8.610 -0.4049  0.1266  0.2984
  234MOL0     C31469   8.956   1.723   8.728  0.1862 -0.9956 -0.1197
  234MOL0     C31470   9.079   1.820   8.708  0.0055 -0.3156  0.4408
  234MOL0     C31471   9.024   1.963   8.692 -0.2265 -0.2707  0.1731
  234MOL0     N31472   9.139   2.060   8.720 -0.6244 -0.0777  0.4554
  234MOL0     C31473   9.202   2.072   8.838 -0.5599 -0.6568 -0.1592
  234MOL0     C31474   9.285   2.174   8.823 -1.2833 -0.7912 -0.0683
  234MOL0     C31475   9.385   2.227   8.923 -0.1086  0.1638 -0.1975
  234MOL0     C31476   9.524   2.193   8.868 -0.0458  0.0718 -1.0606
  234MOL0     C31477   9.592   2.294   8.768  0.6031 -0.2741 -0.4390
  234MOL0     C31478   9.742   2.274   8.761 -0.6492  0.3246  0.5199
  234MOL0     O31479   9.793   2.368   8.664  0.4338  0.1494 -0.2505
  234MOL0     C31480   9.923   2.342   8.613  0.8442  0.5772 -0.4941
  234MOL0     C31481   9.961   2.374   8.484 -0.6728  0.1552 -0.3581
  234MOL0     C31482  10.089   2.333   8.437  1.0312  0.1884  0.3568
  234MOL0     C31483  10.178   2.268   8.517 -0.6329 -0.3540  1.3093
  234MOL0     C31484  10.317   2.227   8.468  0.9112  0.4157 -0.6507
  234MOL0     O31485  10.406   2.182   8.567  0.1497  0.0864  0.4728
  234MOL0     C31486  10.530   2.130   8.518  0.5465  0.5530  0.0259
  234MOL0     C31487  10.552   2.030   8.418  0.1608  0.5168  0.4144
  234MOL0     C31488  10.679   1.981   8.391  0.3914 -0.0457  0.0626
  234MOL0     C31489  10.795   2.032   8.464  0.1821 -0.8500 -0.3000
  234MOL0     O31490  10.920   1.986   8.437  0.4408 -0.1992 -0.1808
  234MOL0     C31491  10.948   1.886   8.333 -0.3756 -0.3833  0.0175
  234MOL0     C31492  11.100   1.896   8.300 -0.0455  0.2123 -0.4119
  234MOL0     C31493  11.143   1.753   8.245 -0.2707 -0.2830  0.2353
  234MOL0     C31494  11.295   1.747   8.231  0.5785 -0.0356 -0.2743
  234MOL0     C31495  11.349   1.600   8.187 -0.5428 -1.6676 -0.2785
  234MOL0     C31496  11.336   1.499   8.295 -0.0962  0.1689 -0.1354
  234MOL0     C31497  11.412   1.531   8.430 -0.2570 -0.3484  0.5055
  234MOL0     C31498  11.564   1.566   8.405 -0.5987 -0.4587 -0.5398
  234MOL0    Cl31499  11.643   1.604   8.566 -0.1521  0.1081 -0.5385
  234MOL0     C31500  10.776   2.136   8.552  0.3212 -0.3301  0.7716
  234MOL0     C31501  10.647   2.180   8.575 -0.8616  0.2369  0.9454
  234MOL0     O31502  10.344   2.236   8.348 -0.2060  0.0583  0.4938
  234MOL0     C31503  10.151   2.255   8.655 -0.0391  0.1089  0.7520
  234MOL0     C31504  10.024   2.295   8.702  0.2807 -0.3471 -0.0816
  234MOL0     N31505   9.268   2.221   8.699  0.3049 -0.2266  0.1020
  234MOL0     N31506   9.185   2.151   8.629  0.3195  0.5826 -0.7786
  234MOL0     C31507   8.441   1.378   8.136 -0.3280 -0.0193  0.3337
  234MOL0     C31508   8.388   1.331   8.016  0.0982 -0.1816  0.2575
  234MOL0     C31509   8.212   1.300   7.606 -0.6578 -1.2175 -0.0596
  234MOL0     C31510   8.091   1.237   7.629 -0.3455  0.2003 -0.3831
  234MOL0     C31511   8.027   1.173   7.528  0.5442 -0.2887  0.0212
  234MOL0     C31512   8.081   1.169   7.400  0.3807  0.4490  0.4417
  234MOL0     O31513   8.029   1.094   7.300  0.9113 -0.5873  0.3512
  234MOL0     C31514   7.909   1.015   7.313  0.1689 -0.5541 -0.7225
  234MOL0     C31515   7.920   0.915   7.206 -0.4369 -0.4876 -0.6090
  234MOL0     C31516   7.816   0.803   7.200 -0.2832  0.1184 -0.4267
  234MOL0     C31517   7.676   0.843   7.142 -0.8410 -0.5514  0.4169
  234MOL0     C31518   7.663   0.874   6.999  0.2316  0.2445 -0.4830
  234MOL0     C31519   7.649   0.923   6.885 -0.6130 -0.3303 -0.1623
  234MOL0     C31520   8.210   1.219   7.380 -0.0438  0.0666  0.1390
  234MOL0     C31521   8.284   1.274   7.483 -0.0795 -0.6981  0.0537
  234MOL0     C31522   8.420   1.306   7.459  0.5898 -0.2625 -1.0291
  234MOL0     H31523   8.102   1.518   8.013 -1.1514  1.1049  1.3542
  234MOL0     H31524   8.206   1.590   8.240 -0.3164 -0.3682  0.3122
  234MOL0     H31525   8.440   1.360   8.450  1.2253 -0.4846  0.1369
  234MOL0     H31526   8.585   1.384   8.359 -2.5636 -4.0372 -1.1864
  234MOL0     H31527   8.578   1.422   8.607 -0.0495 -1.6638 -2.2570
  234MOL0     H31528   8.476   1.562   8.598 -0.1304 -0.0056 -0.9213
  234MOL0     H31529   8.628   1.697   8.498  1.5061  0.8605  1.2535
  234MOL0     H31530   8.723   1.565   8.435 -0.3977  0.7189 -1.1687
  234MOL0     H31531   8.694   1.646   8.730 -0.6697  2.0912 -0.3800
  234MOL0     H31532   8.799   1.514   8.671 -2.3397 -0.9166  0.0266
  234MOL0     H31533   8.919   1.671   8.521 -0.3923  2.9461 -0.8943
  234MOL0     H31534   8.836   1.807   8.583  0.3442  0.1425 -0.5065
  234MOL0     H31535   8.907   1.779   8.808  1.6422 -0.8408  0.7095
  234MOL0     H31536   8.989   1.625   8.767 -1.6087 -0.2225  3.8916
  234MOL0     H31537   9.124   1.791   8.612 -2.4998  1.4090 -1.3905
  234MOL0     H31538   9.151   1.807   8.789 -0.3712 -1.2411  0.6418
  234MOL0     H31539   8.971   1.972   8.597  0.8579 -2.1366 -0.6783
  234MOL0     H31540   8.950   1.976   8.772  0.6503  0.6755  0.8593
  234MOL0     H31541   9.199   2.020   8.933  0.1718  1.9985  1.4233
  234MOL0     H31542   9.372   2.335   8.932  0.5615  0.1147  1.8605
  234MOL0     H31543   9.373   2.192   9.026 -0.5772  0.0657 -0.2834
  234MOL0     H31544   9.590   2.181   8.954 -2.4892  0.1069  0.9213
  234MOL0     H31545   9.530   2.098   8.813  1.4272 -1.5254  1.6359
  234MOL0     H31546   9.570   2.395   8.802  1.5010 -1.1493  3.1116
  234MOL0     H31547   9.543   2.275   8.672 -0.5836 -1.5110  0.3663
  234MOL0     H31548   9.773   2.178   8.719  3.9245  1.6369  0.3320
  234MOL0     H31549   9.786   2.289   8.860  0.0929 -0.4328  0.3173
  234MOL0     H31550   9.896   2.430   8.418  1.2272  1.3112 -1.3333
  234MOL0     H31551  10.111   2.366   8.336 -2.3525  0.6434 -0.3353
  234MOL0     H31552  10.459   1.987   8.381 -0.3545  1.2664  0.7940
  234MOL0     H31553  10.671   1.895   8.325  0.6629 -0.8007  0.9736
  234MOL0     H31554  10.942   1.790   8.386  0.7427 -1.0275 -0.9776
  234MOL0     H31555  10.882   1.884   8.245  0.8096 -1.4695 -0.8898
  234MOL0     H31556  11.114   1.979   8.229 -0.4865  0.5407 -0.1196
  234MOL0     H31557  11.153   1.925   8.391 -2.1677  0.4490  0.8167
  234MOL0     H31558  11.108   1.675   8.313 -1.6746  1.5701  1.7534
  234MOL0     H31559  11.097   1.730   8.148  0.1793 -1.1021  0.2070
  234MOL0     H31560  11.334   1.763   8.332 -1.0140 -0.9278  0.5273
  234MOL0     H31561  11.329   1.830   8.169 -3.0796  0.7824 -1.4397
  234MOL0     H31562  11.452   1.609   8.152 -0.8948 -1.4477 -1.3070
  234MOL0     H31563  11.296   1.571   8.096 -1.0676  0.3482 -0.6634
  234MOL0     H31564  11.231   1.476   8.316  0.2206 -1.5553 -0.3792
  234MOL0     H31565  11.388   1.411   8.258 -1.2833 -0.8920  0.6521
  234MOL0     H31566  11.419   1.436   8.483  2.3568  0.2159  1.3244
  234MOL0     H31567  11.354   1.603   8.489 -0.9772  0.5900 -1.2722
  234MOL0     H31568  11.612   1.478   8.361 -0.6131 -0.0721 -1.3553
  234MOL0     H31569  11.566   1.658   8.346  0.5169  1.3628  2.1511
  234MOL0     H31570  10.868   2.183   8.587  1.0891 -1.2057 -0.0060
  234MOL0     H31571  10.636   2.274   8.629 -0.6323  1.0992 -0.4785
  234MOL0     H31572  10.222   2.207   8.722 -0.0198  1.0140  1.4034
  234MOL0     H31573  10.007   2.294   8.809  0.1622  0.5028 -0.0888
  234MOL0     H31574   8.535   1.332   8.165  0.6226  1.3449 -0.4429
  234MOL0     H31575   8.446   1.255   7.964  1.0990  0.4093  0.4808
  234MOL0     H31576   8.051   1.220   7.728  3.4109  0.6173  1.3569
  234MOL0     H31577   7.941   1.110   7.551  0.8191  0.0149  2.0602
  234MOL0     H31578   7.816   1.070   7.299 -1.0327 -1.3727  2.7988
  234MOL0     H31579   7.913   0.958   7.407  4.8468  0.0692 -0.2855
  234MOL0     H31580   8.016   0.864   7.218 -0.8764 -0.9436  1.1855
  234MOL0     H31581   7.921   0.964   7.108 -1.2809  1.8735  0.4938
  234MOL0     H31582   7.797   0.752   7.295 -2.0874  0.3946 -0.6205
  234MOL0     H31583   7.846   0.718   7.138  0.0880 -0.8999  1.0941
  234MOL0     H31584   7.607   0.762   7.171  0.3595 -1.3069  1.2676
  234MOL0     H31585   7.654   0.939   7.188 -1.3859 -0.0757 -0.7993
  234MOL0     H31586   7.635   0.972   6.791  3.1974  0.8645 -0.2950
  234MOL0     H31587   8.257   1.189   7.287 -0.5107 -1.5315  0.3852
  234MOL0     H31588   8.430   1.415   7.464 -1.5155 -0.0995  0.9808
  234MOL0     H31589   8.481   1.255   7.534 -1.1785 -0.1344  0.5667
  234MOL0     H31590   8.455   1.272   7.361  0.5533  0.2574 -1.2248
  235MOL0     O31591   7.126   5.621   0.508  0.3570  0.2904  0.1627
  235MOL0     C31592   7.102   5.718   0.437 -0.0156 -0.2963  0.4437
  235MOL0     O31593   7.191   5.815   0.402  0.3633  0.4348  1.0491
  235MOL0     C31594   7.299   5.833   0.472 -0.1377  0.2346 -0.0260
  235MOL0     C31595   7.408   5.738   0.460  0.4054 -0.0248 -0.6051
  235MOL0     C31596   7.528   5.758   0.531  1.1803  0.6147 -0.3659
  235MOL0     C31597   7.543   5.860   0.621  0.4822 -0.5942  0.2688
  235MOL0     O31598   7.659   5.879   0.693  0.7679 -0.8942 -0.6886
  235MOL0     C31599   7.722   6.006   0.675  0.6817  0.3609  0.1276
  235MOL0     C31600   7.859   5.985   0.732 -0.7435  0.0529 -0.0773
  235MOL0     C31601   7.941   6.110   0.733 -0.2022 -0.0750  0.3245
  235MOL0     C31602   8.074   6.083   0.789  0.4335 -0.2144 -0.6433
  235MOL0     C31603   8.155   6.217   0.787  0.0460 -0.6501  0.7335
  235MOL0     C31604   8.190   6.284   0.654 -0.3422  0.0053  0.4438
  235MOL0     C31605   8.266   6.418   0.681  0.4678  0.0359 -0.6519
  235MOL0     C31606   8.278   6.528   0.569 -0.1625 -0.4518  0.6275
  235MOL0     N31607   8.144   6.586   0.536 -0.1057  0.3740  0.7203
  235MOL0     C31608   8.026   6.579   0.601  0.3218 -0.1328 -0.0783
  235MOL0     C31609   7.933   6.654   0.541  0.3475 -1.2782  1.0114
  235MOL0     C31610   7.794   6.694   0.568  0.0879 -0.0567 -0.1051
  235MOL0     C31611   7.716   6.556   0.597  0.1527  0.0748 -0.5088
  235MOL0     C31612   7.674   6.552   0.747 -0.6510  1.2808 -1.3648
  235MOL0     C31613   7.551   6.638   0.774 -0.1494 -0.0203 -0.5571
  235MOL0     O31614   7.437   6.567   0.729  0.2938 -0.1675  0.1597
  235MOL0     C31615   7.317   6.623   0.739  0.2914 -0.1070 -0.1816
  235MOL0     C31616   7.241   6.633   0.616  0.1786 -0.1025 -0.3207
  235MOL0     C31617   7.105   6.658   0.607 -0.2193 -0.6326  0.5349
  235MOL0     C31618   7.040   6.689   0.729 -0.2655  1.0040 -0.4012
  235MOL0     C31619   6.895   6.707   0.742 -0.0973 -0.1639 -0.2735
  235MOL0     O31620   6.820   6.681   0.632 -0.0452  0.5780 -0.3335
  235MOL0     C31621   6.676   6.672   0.645 -1.2792  0.5222  0.4725
  235MOL0     C31622   6.601   6.710   0.536  0.5215  0.2404  1.2454
  235MOL0     C31623   6.465   6.674   0.521 -0.0463 -1.1392 -0.7297
  235MOL0     C31624   6.400   6.617   0.632 -0.8834  0.4715 -0.3080
  235MOL0     O31625   6.277   6.562   0.611  0.6046  0.0262  0.1570
  235MOL0     C31626   6.194   6.521   0.721 -0.2155 -0.1808 -0.6816
  235MOL0     C31627   6.114   6.637   0.789  0.4601  0.1013  0.4978
  235MOL0     C31628   6.045   6.607   0.918  0.3889  0.1383 -0.5099
  235MOL0     C31629   5.916   6.518   0.899  0.1399  0.5581  0.2777
  235MOL0     C31630   5.812   6.550   1.007  0.3853 -0.4944 -0.0541
  235MOL0     C31631   5.668   6.498   0.978 -0.2546  0.2480  0.5323
  235MOL0     C31632   5.571   6.519   1.091 -0.1308 -0.2465 -1.2473
  235MOL0     C31633   5.425   6.478   1.090 -0.5371 -0.5281  1.0500
  235MOL0    Cl31634   5.306   6.551   0.973  0.0360  0.3988  0.0064
  235MOL0     C31635   6.474   6.603   0.759  0.6698 -0.4790  1.1315
  235MOL0     C31636   6.613   6.627   0.758  0.9119 -0.0751  0.3582
  235MOL0     O31637   6.853   6.749   0.853  0.5448 -0.3240 -0.8905
  235MOL0     C31638   7.114   6.699   0.849  0.0177  0.6460 -0.1163
  235MOL0     C31639   7.247   6.654   0.856  1.4302  0.6877  0.8533
  235MOL0     N31640   7.989   6.698   0.418 -0.9438 -0.4602 -0.6817
  235MOL0     N31641   8.114   6.656   0.420 -0.9698 -0.3581 -0.1242
  235MOL0     C31642   7.436   5.960   0.627 -1.0406  0.1465 -0.2177
  235MOL0     C31643   7.320   5.944   0.551 -0.4687  0.1684 -0.2903
  235MOL0     C31644   6.965   5.724   0.381 -1.2027 -0.6447 -0.2410
  235MOL0     C31645   6.919   5.858   0.353  0.1210  0.6423 -0.7272
  235MOL0     C31646   6.790   5.879   0.312  0.3161  0.2046 -0.3673
  235MOL0     C31647   6.710   5.767   0.286 -0.4930  0.2985 -0.6621
  235MOL0     O31648   6.591   5.802   0.241  0.7886  0.2068  0.1696
  235MOL0     C31649   6.477   5.739   0.295 -0.2571 -0.5058 -0.2155
  235MOL0     C31650   6.363   5.835   0.271  0.6170  0.6439  0.0175
  235MOL0     C31651   6.234   5.801   0.348  0.2701  0.1159 -0.0883
  235MOL0     C31652   6.107   5.882   0.297 -0.7302 -0.0438 -0.5837
  235MOL0     C31653   6.066   5.846   0.165  0.6294  0.4446  0.5084
  235MOL0     C31654   6.044   5.805   0.055 -0.3343 -0.6798 -0.0190
  235MOL0     C31655   6.748   5.636   0.323 -0.1569  0.9029 -0.2907
  235MOL0     C31656   6.886   5.611   0.353  1.0955 -0.5268 -0.3495
  235MOL0     C31657   6.924   5.474   0.367 -0.2961  1.2264 -0.9250
  235MOL0     H31658   7.393   5.645   0.406  0.8324 -0.4224 -0.0550
  235MOL0     H31659   7.603   5.680   0.516  1.4873  1.1128 -1.4823
  235MOL0     H31660   7.737   6.016   0.567 -1.7586 -2.2627 -0.5680
  235MOL0     H31661   7.668   6.092   0.716  1.8041  2.1742 -1.9525
  235MOL0     H31662   7.914   5.900   0.691  2.4722  1.5189  0.8549
  235MOL0     H31663   7.841   5.948   0.833 -2.6243  0.2008 -0.3358
  235MOL0     H31664   7.891   6.194   0.782  2.8283  1.5273  0.9000
  235MOL0     H31665   7.951   6.139   0.628 -1.6299 -2.5049 -0.5667
  235MOL0     H31666   8.066   6.048   0.892 -1.7069 -0.1505 -0.7441
  235MOL0     H31667   8.116   6.005   0.724 -3.1362  0.5895 -4.3050
  235MOL0     H31668   8.104   6.294   0.847  1.2757  0.7865  0.0212
  235MOL0     H31669   8.257   6.197   0.822 -0.0334 -1.1364  0.6850
  235MOL0     H31670   8.251   6.213   0.598 -0.9382  0.2703 -0.5625
  235MOL0     H31671   8.099   6.308   0.599 -0.2803  1.7580  1.0224
  235MOL0     H31672   8.368   6.397   0.714 -0.1217 -1.0116  0.5775
  235MOL0     H31673   8.220   6.453   0.774  1.9527 -2.8304  1.3232
  235MOL0     H31674   8.353   6.603   0.597 -0.3431  1.6838 -3.7156
  235MOL0     H31675   8.303   6.486   0.471 -1.2538 -0.1005  0.1918
  235MOL0     H31676   7.998   6.522   0.689  1.4696 -2.7273 -1.2760
  235MOL0     H31677   7.791   6.757   0.658  2.6847 -0.5403  0.4136
  235MOL0     H31678   7.750   6.752   0.487  1.7429 -0.9420 -1.6912
  235MOL0     H31679   7.632   6.544   0.528  0.2781 -1.9062 -0.3685
  235MOL0     H31680   7.788   6.476   0.581  2.4820  1.7835  0.9122
  235MOL0     H31681   7.750   6.587   0.817 -3.6906  2.0249  1.8536
  235MOL0     H31682   7.660   6.451   0.786  0.4382  0.8555 -2.0319
  235MOL0     H31683   7.551   6.730   0.715 -1.2173  1.5852  1.8032
  235MOL0     H31684   7.540   6.655   0.882  0.0618 -2.1955 -0.1449
  235MOL0     H31685   7.292   6.625   0.521  0.8259 -1.2331  0.1004
  235MOL0     H31686   7.057   6.664   0.510 -0.9761 -0.8060  0.8923
  235MOL0     H31687   6.667   6.762   0.467  0.6402  1.9076  2.5615
  235MOL0     H31688   6.417   6.690   0.425 -0.7018 -0.9326 -0.3734
  235MOL0     H31689   6.124   6.458   0.666  1.6930 -0.7337 -2.6150
  235MOL0     H31690   6.249   6.457   0.790 -1.1212  0.8911  1.1446
  235MOL0     H31691   6.184   6.716   0.818  0.2963  0.6440 -0.5195
  235MOL0     H31692   6.036   6.677   0.723 -1.9022  0.0142  3.0453
  235MOL0     H31693   6.114   6.560   0.989  0.9473  1.1359 -0.3785
  235MOL0     H31694   6.024   6.704   0.963  0.8694  1.7106 -3.4224
  235MOL0     H31695   5.937   6.412   0.912  0.2327  0.8055  2.6786
  235MOL0     H31696   5.866   6.543   0.805  0.6532 -0.7448 -0.3648
  235MOL0     H31697   5.808   6.657   1.028 -2.1324 -0.3353 -0.9333
  235MOL0     H31698   5.842   6.506   1.103  0.2391  1.8810  1.1767
  235MOL0     H31699   5.638   6.549   0.886 -1.4286  0.0289  0.7800
  235MOL0     H31700   5.674   6.392   0.952 -1.4712  0.2733  0.0997
  235MOL0     H31701   5.567   6.626   1.116  0.3347 -0.3588 -0.6644
  235MOL0     H31702   5.621   6.470   1.175 -0.7333  2.3216  0.7319
  235MOL0     H31703   5.425   6.373   1.057 -1.9749 -0.8802  2.0721
  235MOL0     H31704   5.381   6.479   1.190 -0.0344  0.5010  1.2743
  235MOL0     H31705   6.429   6.546   0.839 -1.1611  0.7569  1.0344
  235MOL0     H31706   6.666   6.593   0.846 -0.7112 -2.8770  0.3784
  235MOL0     H31707   7.077   6.730   0.947  4.1734  1.5105  1.4026
  235MOL0     H31708   7.293   6.647   0.954 -2.3344  2.0298  2.9177
  235MOL0     H31709   7.440   6.039   0.702  2.1504  0.1006 -0.2140
  235MOL0     H31710   7.244   6.022   0.556  0.3480  1.0019 -0.6939
  235MOL0     H31711   6.989   5.938   0.372  0.9885 -0.2549 -0.0961
  235MOL0     H31712   6.738   5.970   0.283  1.4087  0.5856 -1.2582
  235MOL0     H31713   6.500   5.731   0.402  1.2707 -0.1759 -0.4941
  235MOL0     H31714   6.464   5.640   0.249  0.9162 -1.2522  0.9806
  235MOL0     H31715   6.333   5.831   0.166  1.3392 -0.7628 -0.1575
  235MOL0     H31716   6.389   5.938   0.296  1.4045  0.7279 -1.0768
  235MOL0     H31717   6.240   5.811   0.457 -0.9859 -1.6645  0.1971
  235MOL0     H31718   6.213   5.697   0.319 -0.7744 -0.0003  1.0196
  235MOL0     H31719   6.022   5.869   0.365 -0.9601  0.8225 -0.6993
  235MOL0     H31720   6.131   5.989   0.291  0.7221 -0.3300 -0.2392
  235MOL0     H31721   6.014   5.779  -0.045 -0.8939 -0.8635  0.1895
  235MOL0     H31722   6.680   5.551   0.317  2.9374 -1.9223  1.3008
  235MOL0     H31723   6.852   5.400   0.330  1.8533 -0.4023 -2.0362
  235MOL0     H31724   7.008   5.447   0.303  0.0895 -1.1681  0.4615
  235MOL0     H31725   6.946   5.449   0.471 -1.0789 -0.0632 -1.0547
  236MOL0     O31726   3.931   6.344   6.148  0.5930 -0.5312 -0.1741
  236MOL0     C31727   3.876   6.341   6.258 -0.1224 -0.2770  0.1706
  236MOL0     O31728   3.939   6.338   6.379 -0.9723 -0.8980  0.6536
  236MOL0     C31729   4.078   6.331   6.387 -0.3431  0.6624  0.1779
  236MOL0     C31730   4.141   6.220   6.432 -0.1025 -0.9489  0.4350
  236MOL0     C31731   4.280   6.231   6.462 -0.8540  0.6046  0.4744
  236MOL0     C31732   4.361   6.342   6.431  0.3106 -0.4657 -0.2634
  236MOL0     O31733   4.493   6.334   6.475  0.0807 -0.6274 -0.5286
  236MOL0     C31734   4.569   6.455   6.438  0.3988 -0.4743  0.4889
  236MOL0     C31735   4.718   6.445   6.474 -0.8811 -0.5483 -0.6276
  236MOL0     C31736   4.789   6.569   6.429  0.0818 -0.0691 -0.1903
  236MOL0     C31737   4.951   6.561   6.425 -0.0543  0.0308 -0.3426
  236MOL0     C31738   5.014   6.702   6.393 -0.0680 -0.0505  0.2751
  236MOL0     C31739   5.168   6.702   6.385  0.5790  0.6422  0.3913
  236MOL0     C31740   5.231   6.838   6.386  0.7959 -0.4424 -0.1063
  236MOL0     C31741   5.204   6.921   6.264  0.0839 -0.2968  0.0168
  236MOL0     N31742   5.263   7.052   6.285  0.7800 -0.2843  0.0002
  236MOL0     C31743   5.393   7.092   6.254 -0.4152 -0.3150 -0.0872
  236MOL0     C31744   5.391   7.224   6.303  0.3605  0.9138 -0.3344
  236MOL0     C31745   5.506   7.315   6.282  0.3149  0.7474  0.0130
  236MOL0     C31746   5.579   7.353   6.417 -0.1281  0.5060  0.3469
  236MOL0     C31747   5.521   7.487   6.466  0.9657  0.0656 -0.2449
  236MOL0     C31748   5.594   7.542   6.593  0.4004 -0.5524  0.2089
  236MOL0     O31749   5.711   7.614   6.554  0.6714 -0.2411  0.3177
  236MOL0     C31750   5.826   7.576   6.621  0.8080  0.4895  0.2980
  236MOL0     C31751   5.891   7.456   6.583  0.4396  0.0362 -0.5965
  236MOL0     C31752   6.007   7.419   6.643 -0.3801 -0.0651  0.1111
  236MOL0     C31753   6.075   7.503   6.735  0.0688 -0.2449 -0.9509
  236MOL0     C31754   6.217   7.472   6.785 -0.4736 -0.7435  0.5316
  236MOL0     O31755   6.266   7.544   6.892 -0.3413  1.1248  0.0561
  236MOL0     C31756   6.385   7.524   6.950 -0.4569  0.4809 -0.5684
  236MOL0     C31757   6.502   7.589   6.910 -0.3596  0.4364  0.0395
  236MOL0     C31758   6.630   7.564   6.968  0.3487 -0.0632  0.6001
  236MOL0     C31759   6.642   7.467   7.064 -0.0878  0.4405 -0.4706
  236MOL0     O31760   6.762   7.449   7.131 -0.0569  0.2293  0.6697
  236MOL0     C31761   6.871   7.398   7.058  0.0196 -0.5475  0.3367
  236MOL0     C31762   6.967   7.367   7.170  1.1324  0.2607 -0.7287
  236MOL0     C31763   7.089   7.284   7.122  0.8239 -0.3262  0.8003
  236MOL0     C31764   7.179   7.277   7.245 -0.2625 -0.6794  0.3869
  236MOL0     C31765   7.284   7.161   7.256  0.2261  0.1385 -0.3276
  236MOL0     C31766   7.397   7.173   7.162 -0.0465  0.3549  0.1705
  236MOL0     C31767   7.503   7.070   7.180 -0.0114  0.6102 -0.0723
  236MOL0     C31768   7.597   7.089   7.301  0.1083 -0.6682 -0.2553
  236MOL0    Cl31769   7.670   7.246   7.278  0.2196  0.2691 -0.1790
  236MOL0     C31770   6.529   7.398   7.109  0.0488 -0.2610  0.2982
  236MOL0     C31771   6.404   7.418   7.043 -0.4244 -0.7265  0.6089
  236MOL0     O31772   6.281   7.391   6.720  0.3919 -0.0061  0.5974
  236MOL0     C31773   6.013   7.620   6.776  0.0357 -0.1095  0.2909
  236MOL0     C31774   5.882   7.650   6.720 -0.2611  0.5319 -0.3104
  236MOL0     N31775   5.261   7.262   6.350 -0.2505  0.4003  0.3206
  236MOL0     N31776   5.196   7.151   6.346  0.4071 -0.6442  0.2433
  236MOL0     C31777   4.287   6.452   6.371  0.1332 -0.5628  0.4851
  236MOL0     C31778   4.157   6.447   6.348 -0.1562  0.1729  0.1841
  236MOL0     C31779   3.729   6.341   6.270 -0.7270 -0.0020 -0.3742
  236MOL0     C31780   3.669   6.336   6.394  0.5010 -0.2855 -0.2056
  236MOL0     C31781   3.532   6.349   6.415  1.1037  0.6068  0.8391
  236MOL0     C31782   3.449   6.348   6.300  0.6649  0.4622  0.1271
  236MOL0     O31783   3.315   6.373   6.296 -0.7845  0.3562 -0.0289
  236MOL0     C31784   3.235   6.385   6.413  0.4617  0.3904  0.7728
  236MOL0     C31785   3.103   6.453   6.373  0.0571  0.4892 -0.1966
  236MOL0     C31786   3.028   6.496   6.492  0.4105 -0.4425 -1.1659
  236MOL0     C31787   2.879   6.517   6.478  0.0476 -0.8695 -0.6650
  236MOL0     C31788   2.850   6.633   6.385  0.0170  0.8916 -0.0459
  236MOL0     C31789   2.840   6.719   6.298  0.0785 -1.4675 -0.3764
  236MOL0     C31790   3.505   6.327   6.174  0.2797 -0.2818 -0.2086
  236MOL0     C31791   3.647   6.327   6.159 -0.1689  0.2196 -0.0125
  236MOL0     C31792   3.696   6.307   6.015 -0.2110 -0.7535 -0.1628
  236MOL0     H31793   4.085   6.134   6.466  1.6733 -0.8919  3.8683
  236MOL0     H31794   4.323   6.145   6.513 -0.3750  0.7950  0.4004
  236MOL0     H31795   4.563   6.459   6.329  0.3211  3.1162  0.5260
  236MOL0     H31796   4.531   6.549   6.478 -1.1073 -0.2529 -1.3387
  236MOL0     H31797   4.758   6.358   6.421 -1.1839 -0.3369 -1.2117
  236MOL0     H31798   4.722   6.441   6.583 -0.0474 -0.4362 -0.6455
  236MOL0     H31799   4.768   6.664   6.479  1.0961  0.6656 -1.0867
  236MOL0     H31800   4.758   6.593   6.327  1.5707  0.8284 -0.4630
  236MOL0     H31801   4.992   6.524   6.520 -0.1894  0.9889  0.0997
  236MOL0     H31802   4.963   6.484   6.348 -2.1735 -0.9294  0.2159
  236MOL0     H31803   4.966   6.723   6.297 -2.5615 -3.9264  0.4690
  236MOL0     H31804   4.990   6.772   6.474  0.0144  1.7697 -1.2063
  236MOL0     H31805   5.224   6.646   6.460 -0.3795 -0.9899 -0.0522
  236MOL0     H31806   5.189   6.651   6.290 -0.3156  0.0117  0.5213
  236MOL0     H31807   5.338   6.823   6.402  1.2442  2.7944  0.5269
  236MOL0     H31808   5.189   6.887   6.475  0.3364 -2.3111  0.7575
  236MOL0     H31809   5.248   6.884   6.171  2.0215  1.6564  0.0757
  236MOL0     H31810   5.098   6.923   6.236  0.1048 -2.2070 -0.2890
  236MOL0     H31811   5.473   7.030   6.216  0.2514  0.3222  0.2438
  236MOL0     H31812   5.573   7.257   6.217  0.3598  2.1286 -1.2333
  236MOL0     H31813   5.479   7.405   6.225 -0.2657  0.6701  0.1682
  236MOL0     H31814   5.567   7.288   6.505 -1.8570  1.2190  0.6606
  236MOL0     H31815   5.687   7.349   6.396  0.1400 -1.7659  1.7730
  236MOL0     H31816   5.419   7.466   6.498  0.6356  1.4719 -0.3191
  236MOL0     H31817   5.524   7.558   6.383 -0.5237 -3.3544 -3.5331
  236MOL0     H31818   5.611   7.456   6.660 -0.7456 -1.0226 -0.0800
  236MOL0     H31819   5.529   7.606   6.654  2.7079  0.2539  2.0100
  236MOL0     H31820   5.851   7.384   6.512  1.0424 -2.9861  1.9233
  236MOL0     H31821   6.052   7.327   6.608  2.6106  1.7452 -1.2228
  236MOL0     H31822   6.475   7.669   6.841 -1.7083 -0.9661 -1.1401
  236MOL0     H31823   6.719   7.623   6.946  0.4865  0.1988  1.7961
  236MOL0     H31824   6.838   7.316   6.994  2.2947 -1.9840  0.8463
  236MOL0     H31825   6.915   7.466   6.984  0.0810 -2.1594 -1.1562
  236MOL0     H31826   7.008   7.460   7.211  0.5449  0.8143 -1.3768
  236MOL0     H31827   6.921   7.303   7.244  1.0741  2.0628  0.8809
  236MOL0     H31828   7.061   7.182   7.096 -4.5625  1.2018 -0.6391
  236MOL0     H31829   7.140   7.330   7.036 -1.2584  0.1789 -0.2341
  236MOL0     H31830   7.127   7.266   7.340 -2.5243 -0.4683 -0.7569
  236MOL0     H31831   7.219   7.378   7.251 -2.3299  0.1423  1.3812
  236MOL0     H31832   7.236   7.062   7.257 -0.4272  0.4490  0.1832
  236MOL0     H31833   7.321   7.180   7.357 -1.0021 -0.7852  0.3324
  236MOL0     H31834   7.361   7.150   7.061 -1.6294 -0.9696  0.9684
  236MOL0     H31835   7.446   7.270   7.165 -0.5820  0.6464  2.9499
  236MOL0     H31836   7.553   7.059   7.083  1.0957  0.6424  0.4711
  236MOL0     H31837   7.455   6.973   7.197  0.6214  0.2264 -0.4194
  236MOL0     H31838   7.551   7.071   7.398 -1.2978 -1.9200 -1.1088
  236MOL0     H31839   7.669   7.008   7.291  1.1379 -0.0198  1.5468
  236MOL0     H31840   6.527   7.320   7.184 -1.1691 -3.1769 -2.5223
  236MOL0     H31841   6.318   7.358   7.070 -0.5701  0.0122  1.8609
  236MOL0     H31842   6.058   7.682   6.853 -1.4876 -0.7131  1.7134
  236MOL0     H31843   5.837   7.740   6.762  0.6403  1.1001 -0.5434
  236MOL0     H31844   4.344   6.534   6.330 -1.5453 -1.1667 -3.5422
  236MOL0     H31845   4.095   6.521   6.300  0.4274  0.5805  0.0451
  236MOL0     H31846   3.742   6.329   6.473  2.4351  1.9561 -1.6477
  236MOL0     H31847   3.494   6.353   6.516  2.3535 -3.2271  1.6049
  236MOL0     H31848   3.290   6.449   6.484 -1.3801 -0.0506  2.6942
  236MOL0     H31849   3.218   6.292   6.468  1.0811  0.0988  0.4765
  236MOL0     H31850   3.050   6.379   6.312  0.5517  0.7535 -0.9559
  236MOL0     H31851   3.128   6.540   6.312  2.4394  0.8723  1.1983
  236MOL0     H31852   3.076   6.592   6.512  2.8905 -1.7308 -0.6026
  236MOL0     H31853   3.043   6.428   6.577  0.5662  0.5419 -0.3835
  236MOL0     H31854   2.826   6.427   6.445 -2.1672  0.4820 -0.9659
  236MOL0     H31855   2.829   6.529   6.574 -0.0241  1.9864 -0.9757
  236MOL0     H31856   2.830   6.777   6.209 -0.8674 -1.5706 -0.3406
  236MOL0     H31857   3.442   6.312   6.087  1.7181  0.2819 -1.3875
  236MOL0     H31858   3.779   6.371   5.982  0.6558 -1.3732  0.7504
  236MOL0     H31859   3.726   6.202   6.008 -0.7566 -0.9082 -0.1912
  236MOL0     H31860   3.617   6.313   5.940 -0.6156 -3.0666  0.0076
  237MOL0     O31861   2.329   4.480   4.273  1.0486  0.3241  0.8355
  237MOL0     C31862   2.366   4.442   4.384 -0.8266 -0.4476  0.1539
  237MOL0     O31863   2.444   4.329   4.401  0.0192 -0.4396  0.7330
  237MOL0     C31864   2.462   4.254   4.289  0.4184  0.2388 -0.7609
  237MOL0     C31865   2.563   4.294   4.202  0.2302 -0.4530 -0.9536
  237MOL0     C31866   2.601   4.214   4.093 -0.3163  0.4389 -0.3608
  237MOL0     C31867   2.525   4.102   4.069  0.7573 -0.4617 -0.1772
  237MOL0     O31868   2.544   4.035   3.948  0.7120  0.0513 -0.0824
  237MOL0     C31869   2.455   4.074   3.844 -0.0430  0.6219  0.0185
  237MOL0     C31870   2.377   3.947   3.789  0.1928 -0.6497  0.1029
  237MOL0     C31871   2.454   3.827   3.730  0.1871 -0.7148  0.1241
  237MOL0     C31872   2.509   3.871   3.599  0.4477  0.2347  0.7964
  237MOL0     C31873   2.556   3.749   3.522  0.5132  0.7993 -0.1553
  237MOL0     C31874   2.679   3.689   3.587  0.1123  0.5384  0.3131
  237MOL0     C31875   2.713   3.551   3.516 -0.5676 -0.7069 -0.2012
  237MOL0     C31876   2.852   3.492   3.555 -0.2546  0.2210  0.0263
  237MOL0     N31877   2.963   3.582   3.547  0.2718  0.1582  0.0495
  237MOL0     C31878   3.049   3.613   3.651 -0.1667  0.2487  0.0374
  237MOL0     C31879   3.148   3.684   3.594  0.4705 -0.4450 -0.7533
  237MOL0     C31880   3.260   3.749   3.674  0.6997  0.4450  0.4938
  237MOL0     C31881   3.391   3.671   3.641 -0.1786 -0.1952 -0.5484
  237MOL0     C31882   3.509   3.747   3.693 -0.1912  0.2572 -0.8917
  237MOL0     C31883   3.639   3.670   3.683 -0.1578 -0.2511  0.4667
  237MOL0     O31884   3.732   3.741   3.774  0.2513  0.2112 -0.3068
  237MOL0     C31885   3.865   3.709   3.767  0.7287 -1.0291 -0.0063
  237MOL0     C31886   3.917   3.627   3.667  0.0095  0.6983  0.6463
  237MOL0     C31887   4.053   3.591   3.664 -0.3422  0.4347 -0.1703
  237MOL0     C31888   4.145   3.636   3.764 -0.1487  0.1110  0.2601
  237MOL0     C31889   4.287   3.584   3.759 -0.2059  0.2535 -0.4675
  237MOL0     O31890   4.319   3.499   3.650  0.3942  0.1078  0.6292
  237MOL0     C31891   4.445   3.442   3.641 -0.2652  0.3041  0.6874
  237MOL0     C31892   4.562   3.520   3.630  0.5302 -0.3868 -0.2321
  237MOL0     C31893   4.683   3.451   3.613 -0.5424 -0.1337 -0.3751
  237MOL0     C31894   4.693   3.314   3.598  0.0595  1.3948  0.5151
  237MOL0     O31895   4.818   3.260   3.572  0.3728 -0.0258 -0.7097
  237MOL0     C31896   4.833   3.119   3.555  0.8237  0.3998  0.2968
  237MOL0     C31897   4.983   3.091   3.531  0.3277  0.1022  0.0908
  237MOL0     C31898   5.065   3.146   3.645  0.0505  0.2787 -0.0632
  237MOL0     C31899   5.214   3.140   3.608 -0.1436  0.4791  0.4777
  237MOL0     C31900   5.296   3.159   3.737  0.2499 -0.0257 -0.5108
  237MOL0     C31901   5.455   3.164   3.727  0.0545 -0.5532 -0.5702
  237MOL0     C31902   5.530   3.210   3.860 -0.4478 -0.2654 -0.4200
  237MOL0     C31903   5.682   3.224   3.831 -0.6956  0.0012  0.2405
  237MOL0    Cl31904   5.755   3.361   3.919 -0.0486  0.3601  0.2236
  237MOL0     C31905   4.573   3.240   3.609  0.6264 -0.0928  0.3681
  237MOL0     C31906   4.451   3.304   3.631 -0.4737 -0.0815 -0.3944
  237MOL0     O31907   4.371   3.630   3.840 -0.0595 -0.0284 -0.5822
  237MOL0     C31908   4.086   3.733   3.856 -0.5213 -0.2035 -0.0824
  237MOL0     C31909   3.949   3.766   3.858 -0.2679 -0.2611 -0.2108
  237MOL0     N31910   3.124   3.697   3.454 -0.7515  0.4493 -0.2960
  237MOL0     N31911   3.017   3.629   3.430  0.4341  0.6426  0.3564
  237MOL0     C31912   2.435   4.052   4.161 -0.5822  0.1343  0.2718
  237MOL0     C31913   2.400   4.127   4.271 -0.4078  0.1715 -0.6224
  237MOL0     C31914   2.355   4.547   4.489  0.1255 -0.0193  0.4419
  237MOL0     C31915   2.261   4.650   4.475 -0.0123  0.7948 -0.4213
  237MOL0     C31916   2.249   4.754   4.568 -0.1203 -0.6921  0.0784
  237MOL0     C31917   2.323   4.745   4.684  0.1173  1.0404 -0.4441
  237MOL0     O31918   2.313   4.828   4.787  0.0618  0.2225 -0.0980
  237MOL0     C31919   2.328   4.966   4.774 -0.4567  0.1945 -0.3699
  237MOL0     C31920   2.199   5.021   4.829  0.2560  0.5023 -0.8161
  237MOL0     C31921   2.195   5.031   4.982  0.5300  0.5437  0.3095
  237MOL0     C31922   2.081   5.124   5.036 -0.1656  0.4678  0.3946
  237MOL0     C31923   2.091   5.120   5.182  0.2536  0.2077 -0.6451
  237MOL0     C31924   2.087   5.120   5.308  0.2700  0.4502  0.7525
  237MOL0     C31925   2.409   4.639   4.704 -0.1365 -0.1394 -0.9175
  237MOL0     C31926   2.428   4.548   4.605  0.0270  0.2205  0.2261
  237MOL0     C31927   2.548   4.458   4.626 -0.0446 -0.0666 -0.8456
  237MOL0     H31928   2.620   4.384   4.223  1.7533 -1.3871 -0.8664
  237MOL0     H31929   2.676   4.237   4.018  2.4101  2.9653  2.8479
  237MOL0     H31930   2.377   4.139   3.884 -2.1782 -0.1504 -2.5643
  237MOL0     H31931   2.517   4.130   3.772  0.5115 -1.1556 -0.9605
  237MOL0     H31932   2.309   3.983   3.710  1.8883 -0.7820 -1.4720
  237MOL0     H31933   2.318   3.914   3.875 -3.5051  0.1833 -1.8937
  237MOL0     H31934   2.380   3.749   3.713  2.3197 -2.8404  0.0351
  237MOL0     H31935   2.529   3.788   3.799 -0.3824 -1.1105  0.5259
  237MOL0     H31936   2.432   3.919   3.538  0.6953  2.0890  1.8829
  237MOL0     H31937   2.583   3.951   3.610  0.8649  0.2432 -1.5550
  237MOL0     H31938   2.478   3.674   3.536  0.6379  0.6455 -0.2779
  237MOL0     H31939   2.579   3.762   3.416 -0.7902  0.3005 -0.5223
  237MOL0     H31940   2.764   3.758   3.578  1.3467 -1.0041 -0.4422
  237MOL0     H31941   2.656   3.666   3.691  0.2775 -1.1991  0.0090
  237MOL0     H31942   2.715   3.573   3.409 -2.9217  0.3783 -0.0871
  237MOL0     H31943   2.632   3.482   3.543  0.7643 -1.4383  2.2330
  237MOL0     H31944   2.842   3.458   3.658 -1.0505  0.7778  0.1409
  237MOL0     H31945   2.861   3.406   3.488 -2.0107  0.6635 -0.8408
  237MOL0     H31946   3.044   3.582   3.754  0.2240 -1.7027 -0.5018
  237MOL0     H31947   3.278   3.848   3.632  1.2119 -0.6148 -1.9853
  237MOL0     H31948   3.235   3.761   3.780  2.3701  1.7025  0.7837
  237MOL0     H31949   3.382   3.566   3.671  0.1356 -0.6959 -2.1094
  237MOL0     H31950   3.409   3.672   3.533  3.0507 -3.5082 -0.2612
  237MOL0     H31951   3.493   3.766   3.800 -0.9433  0.6714 -1.0656
  237MOL0     H31952   3.522   3.848   3.654  0.5776  0.4539 -0.1640
  237MOL0     H31953   3.672   3.678   3.579 -0.5014  0.9292  0.4282
  237MOL0     H31954   3.626   3.565   3.710  0.0981 -0.2274  0.6879
  237MOL0     H31955   3.859   3.591   3.583  1.1094  3.0408 -1.2168
  237MOL0     H31956   4.083   3.534   3.577 -1.8432  0.9075 -1.0419
  237MOL0     H31957   4.558   3.625   3.604  2.0952 -0.6586 -1.7313
  237MOL0     H31958   4.777   3.504   3.608 -1.3437  1.3105 -0.8462
  237MOL0     H31959   4.793   3.064   3.640  2.2585  2.2537  2.2881
  237MOL0     H31960   4.783   3.088   3.463 -1.8576 -0.0970  1.8266
  237MOL0     H31961   4.999   2.983   3.532  0.7648  0.1658  0.3195
  237MOL0     H31962   5.013   3.132   3.435 -0.4903  0.6995  0.0832
  237MOL0     H31963   5.043   3.251   3.667 -1.9355 -0.0825 -0.0520
  237MOL0     H31964   5.048   3.074   3.727  1.2968 -2.9391 -2.4276
  237MOL0     H31965   5.236   3.215   3.531 -0.0653  1.1327  1.1241
  237MOL0     H31966   5.232   3.047   3.554 -1.0206 -0.2412  1.3912
  237MOL0     H31967   5.281   3.070   3.798  0.2045 -1.9821 -3.2111
  237MOL0     H31968   5.269   3.255   3.781 -2.7983 -1.6845  1.5730
  237MOL0     H31969   5.503   3.070   3.697  3.1793  1.2547 -1.7817
  237MOL0     H31970   5.481   3.237   3.650  0.2398 -1.2256 -1.1562
  237MOL0     H31971   5.505   3.132   3.933  0.0135 -1.3407 -1.3687
  237MOL0     H31972   5.490   3.306   3.895  1.0954  0.6386 -1.0690
  237MOL0     H31973   5.735   3.129   3.830  0.1574  0.4697 -0.0614
  237MOL0     H31974   5.698   3.265   3.731 -0.7932 -0.6387 -0.0437
  237MOL0     H31975   4.568   3.131   3.602 -3.2560 -0.0053 -0.7178
  237MOL0     H31976   4.360   3.247   3.619 -0.3594  0.2559 -4.0462
  237MOL0     H31977   4.149   3.756   3.941 -0.1601 -1.0941 -0.1083
  237MOL0     H31978   3.907   3.840   3.925  0.0977 -0.5312  0.3225
  237MOL0     H31979   2.387   3.956   4.146  1.4512 -0.7759 -0.7124
  237MOL0     H31980   2.322   4.081   4.330  0.4665 -1.2828 -0.5500
  237MOL0     H31981   2.199   4.645   4.387  0.4924 -1.6000 -0.7229
  237MOL0     H31982   2.172   4.831   4.565 -0.0715 -0.6684 -1.0163
  237MOL0     H31983   2.348   4.998   4.671  0.0943  1.6114  0.1451
  237MOL0     H31984   2.409   5.002   4.839 -1.9950  4.0328 -0.3405
  237MOL0     H31985   2.111   4.966   4.795 -1.9608  1.8234  2.3135
  237MOL0     H31986   2.191   5.118   4.779 -0.9621  0.8027 -0.0796
  237MOL0     H31987   2.294   5.054   5.024  0.5362  0.2222  0.4727
  237MOL0     H31988   2.175   4.930   5.020  0.5512  0.2180 -0.5294
  237MOL0     H31989   2.105   5.222   4.994  3.4744 -0.2912  0.3530
  237MOL0     H31990   1.985   5.092   4.996 -0.0768  0.0969  0.4732
  237MOL0     H31991   2.077   5.110   5.414  0.4328 -0.2156  0.7126
  237MOL0     H31992   2.460   4.635   4.800  0.7085  0.3173 -1.3338
  237MOL0     H31993   2.606   4.447   4.533  0.2244  0.3326 -0.7248
  237MOL0     H31994   2.609   4.505   4.703 -0.5631  1.4090 -1.3115
  237MOL0     H31995   2.524   4.358   4.664  1.4736 -1.0420 -2.2908
  238MOL0     O31996   7.348   2.949   8.044 -0.1053 -0.1972  0.1997
  238MOL0     C31997   7.242   3.007   8.011 -0.1102  0.0198  0.5081
  238MOL0     O31998   7.231   3.102   7.919 -0.2616  0.2128  0.6409
  238MOL0     C31999   7.344   3.159   7.881  0.1358  0.1019 -0.7678
  238MOL0     C32000   7.360   3.201   7.749 -0.2450 -0.0083 -0.4065
  238MOL0     C32001   7.484   3.263   7.695  0.9920 -0.1001 -0.1887
  238MOL0     C32002   7.580   3.292   7.795 -0.3659 -0.0228  0.3556
  238MOL0     O32003   7.705   3.336   7.769 -0.3398  0.3470  0.1240
  238MOL0     C32004   7.809   3.230   7.760 -0.0488 -0.8932  1.3705
  238MOL0     C32005   7.859   3.210   7.620 -0.2427  0.0088  0.6998
  238MOL0     C32006   8.000   3.137   7.618 -0.0708  0.5009 -0.1747
  238MOL0     C32007   8.112   3.233   7.654 -0.5456  0.2003 -0.8679
  238MOL0     C32008   8.245   3.157   7.682  0.1557  0.6992  0.5154
  238MOL0     C32009   8.360   3.255   7.712  0.0152 -0.5277 -0.0960
  238MOL0     C32010   8.440   3.242   7.844 -0.3106 -0.1481  1.0028
  238MOL0     C32011   8.536   3.130   7.837 -0.0592  0.9836 -1.4998
  238MOL0     N32012   8.630   3.132   7.955  0.0093 -0.3272 -0.3356
  238MOL0     C32013   8.739   3.216   7.981  0.1688 -0.0853 -0.5551
  238MOL0     C32014   8.755   3.219   8.117  0.5389  0.0236  1.6791
  238MOL0     C32015   8.853   3.290   8.197 -0.0851 -0.1578  0.2800
  238MOL0     C32016   8.981   3.304   8.124 -0.0248 -0.4957 -0.2127
  238MOL0     C32017   9.103   3.322   8.215 -0.5760  0.4628 -0.2143
  238MOL0     C32018   9.233   3.260   8.146  0.7802 -0.2187 -0.8057
  238MOL0     O32019   9.329   3.266   8.254  0.2271 -0.1521 -0.0355
  238MOL0     C32020   9.459   3.290   8.219 -0.3809  0.4444 -0.9132
  238MOL0     C32021   9.549   3.352   8.307  0.8719 -0.1516  0.5085
  238MOL0     C32022   9.684   3.374   8.288 -0.1240 -0.6479 -0.1033
  238MOL0     C32023   9.738   3.329   8.169 -0.6851 -0.3780  0.1505
  238MOL0     C32024   9.874   3.379   8.128 -0.8436 -0.8011 -0.1102
  238MOL0     O32025   9.894   3.384   7.999  0.2729 -0.0397 -0.0437
  238MOL0     C32026  10.009   3.447   7.951 -0.0273  0.4128 -0.7952
  238MOL0     C32027  10.133   3.407   7.992  0.1177  0.9038  0.3701
  238MOL0     C32028  10.244   3.446   7.924  0.2432  0.2029 -0.1939
  238MOL0     C32029  10.242   3.554   7.836 -0.3358 -0.6263 -0.3979
  238MOL0     O32030  10.360   3.609   7.797  0.1305  0.2427 -0.0208
  238MOL0     C32031  10.441   3.520   7.720  0.1562  0.5020 -0.2667
  238MOL0     C32032  10.544   3.593   7.637  0.8844 -0.2139 -0.7169
  238MOL0     C32033  10.614   3.489   7.544  0.1277 -0.9049  0.7964
  238MOL0     C32034  10.761   3.480   7.575  0.5896 -0.4076  0.5038
  238MOL0     C32035  10.832   3.363   7.511 -0.0767 -0.0677 -0.4297
  238MOL0     C32036  10.985   3.374   7.503  0.2418 -0.8990 -0.0009
  238MOL0     C32037  11.032   3.500   7.418  0.8373  0.2399  0.0162
  238MOL0     C32038  10.961   3.513   7.279  0.2056 -0.0908  0.9160
  238MOL0    Cl32039  10.983   3.360   7.205  0.1721  0.4805 -0.3233
  238MOL0     C32040  10.118   3.617   7.809 -0.0550 -0.4126  0.6381
  238MOL0     C32041  10.003   3.552   7.856 -0.0207 -0.0271  0.2121
  238MOL0     O32042   9.953   3.411   8.218 -0.2340 -0.1520  0.3570
  238MOL0     C32043   9.656   3.266   8.073 -0.1087 -1.5268 -1.0073
  238MOL0     C32044   9.518   3.243   8.101 -0.1219  0.2795  0.1742
  238MOL0     N32045   8.672   3.129   8.171  0.1051 -0.7976  0.2810
  238MOL0     N32046   8.595   3.077   8.080  0.2740 -0.2252  0.9550
  238MOL0     C32047   7.562   3.266   7.931  0.9523  0.3468  0.1720
  238MOL0     C32048   7.444   3.201   7.965  0.0540 -0.2909 -1.2857
  238MOL0     C32049   7.113   2.953   8.073  0.5495 -0.1854  0.3572
  238MOL0     C32050   7.115   2.861   8.183  0.1891  0.3594 -0.8590
  238MOL0     C32051   6.999   2.823   8.253  0.1406  0.1982 -0.2887
  238MOL0     C32052   6.876   2.859   8.207 -0.3468 -0.0293  0.3034
  238MOL0     O32053   6.744   2.828   8.245 -0.3417  0.0293  0.2530
  238MOL0     C32054   6.720   2.745   8.359  0.8498 -0.3571  0.1461
  238MOL0     C32055   6.573   2.736   8.381  0.0457 -0.6638  0.7322
  238MOL0     C32056   6.527   2.627   8.484  0.0897  0.0211  0.7607
  238MOL0     C32057   6.372   2.637   8.517 -1.3756 -0.1402  0.7613
  238MOL0     C32058   6.331   2.506   8.562  0.1330  0.0010  0.2367
  238MOL0     C32059   6.310   2.388   8.593  0.4731  0.2353  0.4391
  238MOL0     C32060   6.868   2.947   8.103 -0.0065  0.3386 -0.5390
  238MOL0     C32061   6.987   2.997   8.035  0.8275  0.4886  0.4480
  238MOL0     C32062   6.942   3.068   7.905 -0.0633 -0.5149 -0.7216
  238MOL0     H32063   7.281   3.198   7.675  0.2447 -0.2431 -0.9315
  238MOL0     H32064   7.490   3.301   7.594  3.2109  3.8706  1.1976
  238MOL0     H32065   7.886   3.271   7.826 -0.3557  0.2764  1.0274
  238MOL0     H32066   7.773   3.134   7.798 -2.9506 -2.0302 -3.3500
  238MOL0     H32067   7.870   3.306   7.568  3.7723 -2.0301 -2.8654
  238MOL0     H32068   7.785   3.158   7.560 -0.2654  3.4453 -2.6053
  238MOL0     H32069   8.025   3.110   7.515  0.5705  2.7635 -0.6732
  238MOL0     H32070   7.991   3.044   7.676 -2.3064  0.7805  0.0172
  238MOL0     H32071   8.126   3.315   7.584 -0.8718  2.5043  1.6036
  238MOL0     H32072   8.082   3.276   7.750  2.1301  0.0085  0.1410
  238MOL0     H32073   8.229   3.086   7.764  0.1654  0.4387  0.2934
  238MOL0     H32074   8.267   3.108   7.587  0.7215  0.4160  0.7853
  238MOL0     H32075   8.426   3.258   7.625  0.2899 -3.4379 -0.0919
  238MOL0     H32076   8.306   3.348   7.733  1.2730  0.0774  0.5496
  238MOL0     H32077   8.371   3.226   7.928  1.0012 -0.4386  2.0568
  238MOL0     H32078   8.500   3.330   7.864 -0.8741  0.4352  0.1786
  238MOL0     H32079   8.484   3.034   7.833 -1.1608  1.5526 -1.3020
  238MOL0     H32080   8.604   3.135   7.752  1.3193  0.3364 -0.4721
  238MOL0     H32081   8.796   3.262   7.900 -3.3373  3.3375 -1.3359
  238MOL0     H32082   8.806   3.386   8.220  2.2015  1.9250 -2.8641
  238MOL0     H32083   8.868   3.221   8.280  2.0572 -0.4469 -0.2976
  238MOL0     H32084   8.997   3.213   8.064 -0.7272 -0.8603  0.1340
  238MOL0     H32085   8.994   3.389   8.057  0.7766 -0.2519  0.2450
  238MOL0     H32086   9.103   3.262   8.307  0.3159  0.1926 -0.3745
  238MOL0     H32087   9.120   3.427   8.241  0.4302  0.1038  0.6605
  238MOL0     H32088   9.260   3.321   8.060 -0.6220  0.9722 -0.4483
  238MOL0     H32089   9.215   3.155   8.119  0.6939 -0.1513 -1.0103
  238MOL0     H32090   9.507   3.400   8.395  0.7062 -0.4656  0.6042
  238MOL0     H32091   9.747   3.439   8.348  0.9423  0.6351 -2.4421
  238MOL0     H32092  10.151   3.344   8.079  1.9672  2.9051  1.5436
  238MOL0     H32093  10.337   3.410   7.967  1.5933  2.9105 -0.5790
  238MOL0     H32094  10.488   3.439   7.777 -0.8899  0.6062  0.7894
  238MOL0     H32095  10.378   3.468   7.646  0.1097  0.1292  0.0320
  238MOL0     H32096  10.481   3.663   7.581 -0.4572 -0.7901  0.0366
  238MOL0     H32097  10.619   3.649   7.693  0.2001  1.0220 -0.9858
  238MOL0     H32098  10.578   3.386   7.541  2.3380 -1.8105 -3.7654
  238MOL0     H32099  10.614   3.531   7.443 -2.5124 -0.4393  0.9141
  238MOL0     H32100  10.782   3.487   7.682 -0.6726 -0.2809  0.7525
  238MOL0     H32101  10.797   3.575   7.533 -2.9541 -1.0621 -5.2462
  238MOL0     H32102  10.785   3.348   7.414  1.7013  0.9397 -1.4911
  238MOL0     H32103  10.824   3.275   7.576  1.0185  0.2724  0.1950
  238MOL0     H32104  11.022   3.383   7.606 -2.7513  0.1856  1.1057
  238MOL0     H32105  11.026   3.282   7.462 -1.5252 -2.1656  0.9342
  238MOL0     H32106  11.139   3.498   7.396  0.8967  0.6631  0.2563
  238MOL0     H32107  11.015   3.588   7.481 -0.6762  0.4718 -0.6806
  238MOL0     H32108  10.856   3.541   7.284  0.7389  2.3577 -0.1579
  238MOL0     H32109  11.008   3.585   7.211 -1.4285 -0.5576 -0.8087
  238MOL0     H32110  10.115   3.710   7.753  0.1029 -0.2590  0.8870
  238MOL0     H32111   9.901   3.589   7.846 -0.6905 -1.3328  1.7772
  238MOL0     H32112   9.693   3.242   7.974  2.2977 -0.4635 -0.4221
  238MOL0     H32113   9.458   3.179   8.037  0.3498 -1.2321  1.1719
  238MOL0     H32114   7.639   3.302   7.997 -0.1520  3.8407 -0.2547
  238MOL0     H32115   7.437   3.187   8.072  2.0334  0.1930 -1.0474
  238MOL0     H32116   7.201   2.824   8.238 -1.0182  0.1479  0.9666
  238MOL0     H32117   6.996   2.765   8.345  0.7155 -2.0995 -1.6561
  238MOL0     H32118   6.758   2.801   8.445  0.4386  0.5544 -0.2599
  238MOL0     H32119   6.771   2.649   8.345  3.1905  0.8527 -0.0712
  238MOL0     H32120   6.518   2.705   8.292 -0.2730 -1.1066  1.0731
  238MOL0     H32121   6.538   2.832   8.419 -2.1549 -1.4224  0.7473
  238MOL0     H32122   6.591   2.634   8.572  0.8099 -2.4686  0.4914
  238MOL0     H32123   6.543   2.528   8.441 -2.3828 -0.2764  0.3923
  238MOL0     H32124   6.356   2.718   8.589  1.8183  0.1720  1.2871
  238MOL0     H32125   6.320   2.655   8.423  1.1305  1.7209 -0.3704
  238MOL0     H32126   6.310   2.286   8.625  0.2691  0.1627  0.2031
  238MOL0     H32127   6.777   2.973   8.049  0.0057 -1.2108 -1.3776
  238MOL0     H32128   7.017   3.044   7.829  1.2100 -0.2908  0.4225
  238MOL0     H32129   6.850   3.027   7.864 -0.4521  0.1142 -0.5021
  238MOL0     H32130   6.934   3.175   7.929  1.6545 -0.2063 -1.3655
  239MOL0     O32131   4.512   7.977   2.375 -0.2339 -0.1008  0.4960
  239MOL0     C32132   4.468   8.029   2.476 -0.6289 -0.7086  0.1158
  239MOL0     O32133   4.546   8.102   2.568 -0.1781  0.1878 -0.3054
  239MOL0     C32134   4.684   8.089   2.570 -0.6724 -0.4119 -0.3136
  239MOL0     C32135   4.737   8.016   2.673  0.7242 -1.3294 -0.1348
  239MOL0     C32136   4.875   7.987   2.673  0.8432 -0.2961  0.5138
  239MOL0     C32137   4.956   8.045   2.577  0.1627  0.2514  0.6464
  239MOL0     O32138   5.086   8.010   2.585 -0.4430  0.8372  0.4248
  239MOL0     C32139   5.169   8.051   2.479  0.3562 -0.1049  0.2005
  239MOL0     C32140   5.293   7.955   2.484 -0.4580 -0.4447 -0.0560
  239MOL0     C32141   5.407   8.021   2.397  0.0904 -0.0094 -0.3367
  239MOL0     C32142   5.517   7.920   2.381 -0.3707  0.7515  0.1547
  239MOL0     C32143   5.629   7.986   2.308  0.2826 -0.1389 -0.3657
  239MOL0     C32144   5.742   7.880   2.267 -0.4538 -1.0901 -0.8838
  239MOL0     C32145   5.705   7.771   2.179 -0.1069  0.6317  0.6466
  239MOL0     C32146   5.826   7.723   2.102 -0.9781 -0.9216  0.1081
  239MOL0     N32147   5.936   7.675   2.187 -0.1348 -0.0762  0.1246
  239MOL0     C32148   5.950   7.541   2.220 -0.0572  0.1043  0.3691
  239MOL0     C32149   6.066   7.541   2.293  0.5852 -0.1511 -0.7598
  239MOL0     C32150   6.154   7.432   2.352  0.4767 -0.2407  0.9638
  239MOL0     C32151   6.099   7.356   2.474 -0.3200  0.5750  0.5866
  239MOL0     C32152   6.184   7.225   2.510  0.8190 -0.1955 -0.2597
  239MOL0     C32153   6.292   7.271   2.610  0.6239  0.3662 -0.7383
  239MOL0     O32154   6.365   7.152   2.651 -0.2104  0.0369 -0.6408
  239MOL0     C32155   6.491   7.162   2.710  0.5594  0.2710 -0.2701
  239MOL0     C32156   6.557   7.281   2.744  0.5830 -0.3175  0.1146
  239MOL0     C32157   6.688   7.278   2.793  0.1016 -0.3794  0.4870
  239MOL0     C32158   6.743   7.153   2.827 -0.0302  0.3369  0.2253
  239MOL0     C32159   6.883   7.138   2.881  0.2373 -0.7535  0.8743
  239MOL0     O32160   6.932   7.007   2.877 -0.1935  0.5590 -0.1780
  239MOL0     C32161   7.049   6.973   2.943  0.2203  0.4000  0.0899
  239MOL0     C32162   7.119   6.859   2.901  0.1918  0.2967  0.1750
  239MOL0     C32163   7.225   6.808   2.973  0.2143  0.0813  0.2840
  239MOL0     C32164   7.257   6.856   3.103 -0.0039 -0.7645  0.7125
  239MOL0     O32165   7.335   6.790   3.189  0.3377  0.6560 -0.3620
  239MOL0     C32166   7.453   6.727   3.146 -0.2374 -0.2238  0.2029
  239MOL0     C32167   7.570   6.779   3.241  0.7342  0.0282 -0.1401
  239MOL0     C32168   7.547   6.741   3.390 -0.1422 -0.2387 -1.1683
  239MOL0     C32169   7.542   6.596   3.429  0.3142  0.5813  0.6388
  239MOL0     C32170   7.599   6.571   3.574  0.8546  0.6953 -0.1187
  239MOL0     C32171   7.571   6.430   3.621  1.1900  0.5000  0.9319
  239MOL0     C32172   7.650   6.374   3.746 -0.5926 -0.5637  0.6301
  239MOL0     C32173   7.682   6.471   3.854 -0.5313 -0.9968 -1.0870
  239MOL0    Cl32174   7.545   6.546   3.911 -0.3014 -0.8558 -0.4103
  239MOL0     C32175   7.180   6.964   3.146  1.0412 -0.0255  0.1232
  239MOL0     C32176   7.086   7.033   3.071 -0.3100  0.1668 -0.2642
  239MOL0     O32177   6.942   7.242   2.921 -0.0058 -0.1215 -0.6209
  239MOL0     C32178   6.673   7.033   2.804  0.0168 -0.5947  0.1465
  239MOL0     C32179   6.550   7.034   2.742  0.2945 -0.6074  0.5608
  239MOL0     N32180   6.108   7.673   2.302  0.0265  0.5464  0.2868
  239MOL0     N32181   6.038   7.749   2.238  0.6524 -0.4072 -0.3054
  239MOL0     C32182   4.897   8.138   2.483  0.9448 -0.5741 -0.9218
  239MOL0     C32183   4.758   8.156   2.475  0.0230  0.0081 -0.2133
  239MOL0     C32184   4.325   8.032   2.501  0.0871  0.8766 -0.3906
  239MOL0     C32185   4.284   8.098   2.619  0.2151  0.0579 -1.0146
  239MOL0     C32186   4.150   8.111   2.657 -0.8826  0.2082  0.0140
  239MOL0     C32187   4.049   8.046   2.580 -0.4371  0.5451  0.3939
  239MOL0     O32188   3.913   8.042   2.603 -0.2466  1.0844  0.0112
  239MOL0     C32189   3.868   8.104   2.726  1.2999  0.1911 -0.3878
  239MOL0     C32190   3.718   8.081   2.767  0.3600  1.0113  0.1504
  239MOL0     C32191   3.685   7.941   2.824 -0.3078  0.5513 -0.2369
  239MOL0     C32192   3.545   7.953   2.881  0.6892  0.3014 -0.6702
  239MOL0     C32193   3.508   7.819   2.922 -0.0384  0.6251 -0.6773
  239MOL0     C32194   3.480   7.716   2.974  0.5735  0.3033 -0.2925
  239MOL0     C32195   4.096   7.977   2.470 -0.2184  0.4210 -0.3055
  239MOL0     C32196   4.228   7.969   2.427  0.4764  0.7657 -0.1086
  239MOL0     C32197   4.254   7.870   2.322  0.0191  0.8676 -0.0584
  239MOL0     H32198   4.683   7.970   2.755  2.4481  1.5872  2.8910
  239MOL0     H32199   4.916   7.908   2.735  0.0284 -1.1374  0.0126
  239MOL0     H32200   5.125   8.047   2.379  0.8436 -2.6245  0.0258
  239MOL0     H32201   5.209   8.150   2.504  0.0719 -0.7991  3.9687
  239MOL0     H32202   5.267   7.855   2.447  1.7338 -0.3950 -1.9991
  239MOL0     H32203   5.338   7.948   2.584  2.5777  0.0484 -1.2660
  239MOL0     H32204   5.455   8.098   2.457  2.2423  0.4942 -2.5020
  239MOL0     H32205   5.369   8.056   2.300 -1.3209 -0.5369  0.0111
  239MOL0     H32206   5.544   7.894   2.483 -1.9241 -0.4649  0.2948
  239MOL0     H32207   5.472   7.835   2.329 -1.0953  1.9879 -1.3634
  239MOL0     H32208   5.597   8.033   2.214  0.0537  1.7443  0.6074
  239MOL0     H32209   5.655   8.068   2.375 -2.6088  1.8845 -1.5267
  239MOL0     H32210   5.830   7.936   2.234 -1.2156  0.5901 -0.1465
  239MOL0     H32211   5.779   7.834   2.359 -0.0335  1.6436  0.3891
  239MOL0     H32212   5.629   7.798   2.105  1.2860 -0.5279 -1.2959
  239MOL0     H32213   5.669   7.693   2.246 -2.4982 -0.1260 -1.3427
  239MOL0     H32214   5.800   7.645   2.029 -1.9346  1.1207 -1.8414
  239MOL0     H32215   5.862   7.810   2.046 -0.8712  0.6560  2.4906
  239MOL0     H32216   5.890   7.460   2.182  0.4240  0.0922 -0.3871
  239MOL0     H32217   6.164   7.356   2.274 -2.6756  0.1259  0.0573
  239MOL0     H32218   6.255   7.468   2.371  1.6306 -0.9173 -2.9243
  239MOL0     H32219   6.101   7.429   2.556 -1.6171 -0.6320  1.7495
  239MOL0     H32220   5.997   7.325   2.448  0.5677 -1.2413 -1.0258
  239MOL0     H32221   6.243   7.186   2.426  1.8949 -1.4347  1.0278
  239MOL0     H32222   6.114   7.155   2.555 -0.1855  2.6742  3.1540
  239MOL0     H32223   6.247   7.327   2.692  2.0149 -0.8470  0.9280
  239MOL0     H32224   6.356   7.340   2.555  0.1370 -0.4299 -2.3859
  239MOL0     H32225   6.516   7.377   2.715  0.3585 -0.5081 -0.2074
  239MOL0     H32226   6.741   7.369   2.817  1.6753 -1.1681  0.1152
  239MOL0     H32227   7.098   6.806   2.809 -0.3143  0.1873  0.3500
  239MOL0     H32228   7.271   6.717   2.937 -2.6340 -0.4064 -2.4990
  239MOL0     H32229   7.446   6.618   3.156 -0.4938 -0.3000 -0.6870
  239MOL0     H32230   7.491   6.750   3.046  0.9062 -0.8399  0.4814
  239MOL0     H32231   7.662   6.729   3.209  0.0406 -0.6155 -1.1830
  239MOL0     H32232   7.579   6.888   3.247 -0.7173  0.2428 -1.2466
  239MOL0     H32233   7.627   6.795   3.441 -0.8463 -0.3541  0.0909
  239MOL0     H32234   7.453   6.787   3.420  1.4759  2.8416 -0.4816
  239MOL0     H32235   7.608   6.544   3.359  0.3198 -0.2296  1.2235
  239MOL0     H32236   7.443   6.553   3.410  0.7562  0.8899 -3.2100
  239MOL0     H32237   7.545   6.643   3.636 -1.2892 -0.2458 -0.8137
  239MOL0     H32238   7.708   6.578   3.585  0.8717 -0.4940  0.6093
  239MOL0     H32239   7.465   6.436   3.646  0.7402  5.1195 -1.0213
  239MOL0     H32240   7.585   6.361   3.536 -1.7010  0.8952  0.0243
  239MOL0     H32241   7.739   6.338   3.693 -0.1560  1.4770 -0.1592
  239MOL0     H32242   7.601   6.286   3.787  0.9329 -0.9178  1.7782
  239MOL0     H32243   7.721   6.419   3.942 -3.0670 -0.0299  0.7417
  239MOL0     H32244   7.749   6.551   3.821 -3.6981  1.0911 -2.9486
  239MOL0     H32245   7.181   6.997   3.249  0.5198  1.5598 -0.3478
  239MOL0     H32246   7.033   7.115   3.119 -0.5930  0.7577 -1.5213
  239MOL0     H32247   6.705   6.931   2.825 -1.0502 -0.8448  0.6219
  239MOL0     H32248   6.496   6.944   2.715 -1.3080  0.8813 -1.5683
  239MOL0     H32249   4.945   8.191   2.402 -1.2364  1.3135 -1.0627
  239MOL0     H32250   4.716   8.210   2.391 -2.4969 -2.2902 -0.5716
  239MOL0     H32251   4.358   8.125   2.694 -0.0587 -0.7489 -0.4475
  239MOL0     H32252   4.128   8.180   2.738  2.8949  0.6439  0.8222
  239MOL0     H32253   3.888   8.211   2.731 -0.7999  0.6236 -0.4223
  239MOL0     H32254   3.938   8.070   2.803  3.8205 -0.7864 -2.9414
  239MOL0     H32255   3.661   8.087   2.674 -1.6806 -2.9238  0.9362
  239MOL0     H32256   3.691   8.161   2.837 -0.8311  0.8175 -0.0669
  239MOL0     H32257   3.746   7.909   2.909 -0.1024 -0.8916 -0.8876
  239MOL0     H32258   3.695   7.868   2.743 -0.4357  0.7834 -0.4616
  239MOL0     H32259   3.535   8.028   2.961 -1.2655  0.7773 -1.3017
  239MOL0     H32260   3.473   7.977   2.802  0.2467 -0.8755 -0.6388
  239MOL0     H32261   3.455   7.625   3.025  1.3680  0.9149  1.2648
  239MOL0     H32262   4.015   7.927   2.417  1.7528 -0.8450 -2.2779
  239MOL0     H32263   4.345   7.812   2.340  0.3930  1.4274 -0.1250
  239MOL0     H32264   4.166   7.808   2.301  0.6754 -0.0342 -0.2148
  239MOL0     H32265   4.266   7.926   2.229 -1.1259  2.6740  0.8125
  240MOL0     O32266  11.269  10.323   6.404  0.0300  0.0618  0.4977
  240MOL0     C32267  11.219  10.311   6.511 -0.7287 -1.0710 -1.3160
  240MOL0     O32268  11.270  10.237   6.619 -0.3101  0.0978  0.5567
  240MOL0     C32269  11.391  10.180   6.592  0.0960  0.2736  0.0241
  240MOL0     C32270  11.498  10.224   6.666 -0.5808 -0.1232  0.9896
  240MOL0     C32271  11.620  10.155   6.654 -1.0367 -0.2998 -0.3383
  240MOL0     C32272  11.630  10.052   6.561 -1.2747 -0.4935  1.0181
  240MOL0     O32273  11.759   9.994   6.566 -0.2692  0.7687 -0.2984
  240MOL0     C32274  11.791   9.885   6.476  1.2077  0.0807  0.7035
  240MOL0     C32275  11.931   9.836   6.489 -0.2823  0.7840  0.0468
  240MOL0     C32276  12.032   9.946   6.475 -1.2984  0.3114 -0.4933
  240MOL0     C32277  12.177   9.891   6.483  0.3741  0.2252 -0.2796
  240MOL0     C32278  12.273  10.006   6.480  0.1895  0.4684  0.2461
  240MOL0     C32279  12.412   9.945   6.502  0.5490 -0.2886  0.6795
  240MOL0     C32280  12.525  10.062   6.481  0.6855 -0.0978 -0.4055
  240MOL0     C32281  12.669  10.005   6.466  0.4990  0.0519  0.6521
  240MOL0     N32282  12.729   9.958   6.587 -0.1078  0.3972 -0.5158
  240MOL0     C32283  12.815  10.017   6.669 -0.8497  0.1312  0.4452
  240MOL0     C32284  12.852   9.923   6.758  0.4932 -0.4372  0.0564
  240MOL0     C32285  12.945   9.931   6.879  0.6548  0.5252 -0.7733
  240MOL0     C32286  13.066   9.847   6.870 -0.0887 -0.2992  0.9861
  240MOL0     C32287  13.138   9.870   7.004 -0.3348 -0.2520  0.4451
  240MOL0     C32288  13.273   9.794   7.011 -0.0676 -0.6413  0.3483
  240MOL0     O32289  13.365   9.844   6.912  0.0611 -1.0111  0.1716
  240MOL0     C32290  13.492   9.788   6.930  0.3314  0.1116  0.7096
  240MOL0     C32291  13.594   9.838   6.853  0.8984 -0.5601 -0.1384
  240MOL0     C32292  13.722   9.780   6.863  1.0101 -0.4739  0.1426
  240MOL0     C32293  13.763   9.688   6.960  0.1846 -0.3191 -0.5824
  240MOL0     C32294  13.905   9.650   6.977 -0.2443  0.0301 -0.3355
  240MOL0     O32295  13.994   9.691   6.879 -1.1859  0.0542  0.2281
  240MOL0     C32296  14.116   9.638   6.891 -0.1205  0.4003  0.5927
  240MOL0     C32297  14.152   9.527   6.818  0.0780  0.1725  0.6128
  240MOL0     C32298  14.279   9.470   6.841  0.4453  0.3731 -0.8984
  240MOL0     C32299  14.370   9.531   6.930 -0.7343 -0.7235  0.4170
  240MOL0     O32300  14.491   9.484   6.961 -0.2477 -0.2991  0.2047
  240MOL0     C32301  14.566   9.423   6.853  0.9050 -0.3423 -0.0105
  240MOL0     C32302  14.708   9.463   6.860  0.3688 -0.3212 -0.2233
  240MOL0     C32303  14.795   9.394   6.961 -0.4379  0.5856  0.5202
  240MOL0     C32304  14.950   9.424   6.955 -0.1380  0.6093 -0.0909
  240MOL0     C32305  15.025   9.338   7.062 -0.0728 -1.2978 -0.0706
  240MOL0     C32306  15.181   9.353   7.053  0.2006  0.0373  0.0594
  240MOL0     C32307  15.242   9.299   7.179 -1.0087  0.2421  0.3022
  240MOL0     C32308  15.395   9.309   7.172  0.4887  0.1072  0.5510
  240MOL0    Cl32309  15.470   9.213   7.041 -0.0525 -0.1144 -0.0854
  240MOL0     C32310  14.334   9.653   6.991 -0.7385  0.1466  0.3191
  240MOL0     C32311  14.205   9.700   6.978  0.5121 -0.0238 -0.1454
  240MOL0     O32312  13.931   9.585   7.080 -0.2001 -0.2287  0.2478
  240MOL0     C32313  13.658   9.642   7.040  0.5077 -0.8148 -0.8230
  240MOL0     C32314  13.523   9.688   7.024 -0.2030 -0.8329  0.3693
  240MOL0     N32315  12.780   9.809   6.729  0.3923  0.2519  0.1622
  240MOL0     N32316  12.715   9.833   6.627  0.7262 -0.2886 -0.1386
  240MOL0     C32317  11.523  10.014   6.482 -1.3853  0.0910  0.2353
  240MOL0     C32318  11.396  10.067   6.509 -0.8486 -0.1903 -0.8130
  240MOL0     C32319  11.080  10.368   6.530  0.1743 -0.0005  0.3488
  240MOL0     C32320  11.003  10.326   6.643 -0.4374  0.4036 -0.2086
  240MOL0     C32321  10.871  10.377   6.663  0.3800  0.6867  0.4067
  240MOL0     C32322  10.815  10.476   6.580 -1.1815  0.2538 -0.3218
  240MOL0     O32323  10.689  10.520   6.602  0.0522  0.0628 -0.1440
  240MOL0     C32324  10.647  10.653   6.548 -0.1019  0.1738  0.4240
  240MOL0     C32325  10.518  10.708   6.625 -0.1485  0.8372 -1.2512
  240MOL0     C32326  10.408  10.599   6.638 -0.2029  0.4104 -0.2440
  240MOL0     C32327  10.284  10.658   6.723 -0.5144 -0.0941  0.5824
  240MOL0     C32328  10.190  10.548   6.730 -0.4068  0.1731 -0.0549
  240MOL0     C32329  10.110  10.460   6.706  0.1685 -0.1022  0.9044
  240MOL0     C32330  10.892  10.523   6.478 -0.0246 -0.2307  0.4469
  240MOL0     C32331  11.019  10.470   6.448 -0.7006  0.4678  0.0982
  240MOL0     C32332  11.099  10.534   6.342 -0.2120  0.4746  0.1496
  240MOL0     H32333  11.481  10.310   6.729 -1.7547  0.6006 -0.2517
  240MOL0     H32334  11.703  10.189   6.715 -1.8512 -1.2365  1.3566
  240MOL0     H32335  11.732   9.794   6.485 -2.2666  2.0419 -0.1942
  240MOL0     H32336  11.766   9.925   6.377  1.2420  2.3715  1.5652
  240MOL0     H32337  11.939   9.760   6.411  4.6926  1.7748 -0.7282
  240MOL0     H32338  11.941   9.798   6.591 -1.4838  2.0007  0.6498
  240MOL0     H32339  12.015  10.012   6.561 -1.1061 -1.4617  0.9835
  240MOL0     H32340  12.005   9.999   6.384 -0.5572 -0.2098 -1.0230
  240MOL0     H32341  12.186   9.832   6.575 -3.7523  0.0557  0.1973
  240MOL0     H32342  12.185   9.820   6.400 -0.9021 -0.5525  0.2298
  240MOL0     H32343  12.271  10.053   6.381  0.8101 -2.3116 -1.1952
  240MOL0     H32344  12.250  10.075   6.562  3.3701 -0.5372  2.1575
  240MOL0     H32345  12.418   9.901   6.602 -0.8784 -1.5412  0.2360
  240MOL0     H32346  12.422   9.865   6.429 -2.0290  0.9574 -1.1957
  240MOL0     H32347  12.525  10.137   6.561  5.0449 -1.8312  1.5713
  240MOL0     H32348  12.494  10.111   6.388  0.1795  2.9937  1.2569
  240MOL0     H32349  12.670   9.926   6.390 -0.7071 -0.9546  1.6417
  240MOL0     H32350  12.734  10.091   6.445 -1.2950  1.0239 -1.3446
  240MOL0     H32351  12.845  10.121   6.665 -3.2338  0.8628 -2.9499
  240MOL0     H32352  12.962  10.039   6.887  1.2393  0.4153 -0.4830
  240MOL0     H32353  12.888   9.892   6.964  0.1981  0.9304 -0.8875
  240MOL0     H32354  13.047   9.740   6.861  2.1455 -0.5736 -2.6711
  240MOL0     H32355  13.134   9.885   6.792 -1.3642 -0.0484 -0.0306
  240MOL0     H32356  13.075   9.836   7.087  0.2178  2.7418  2.2185
  240MOL0     H32357  13.167   9.975   7.014  2.7430 -0.9592  0.0827
  240MOL0     H32358  13.253   9.687   7.004 -3.4411 -0.0983 -0.4714
  240MOL0     H32359  13.319   9.815   7.108  0.9643 -0.8323 -0.0906
  240MOL0     H32360  13.572   9.916   6.780  0.1799 -1.9217 -1.4163
  240MOL0     H32361  13.794   9.820   6.792 -1.5791  2.1343 -1.2510
  240MOL0     H32362  14.095   9.470   6.745  2.1277 -0.2091 -0.7965
  240MOL0     H32363  14.311   9.372   6.810  0.3806 -0.8380  2.4229
  240MOL0     H32364  14.545   9.315   6.852 -2.9466  0.2417 -1.5542
  240MOL0     H32365  14.526   9.463   6.759 -0.2467  0.8756  0.9601
  240MOL0     H32366  14.750   9.445   6.760  0.4534 -1.2136 -0.0363
  240MOL0     H32367  14.718   9.568   6.888  0.4560 -0.3286 -0.2259
  240MOL0     H32368  14.775   9.429   7.062  0.0307  2.1618  0.0906
  240MOL0     H32369  14.772   9.287   6.956 -0.0813  0.4157  1.9975
  240MOL0     H32370  14.974   9.529   6.970  0.4629  0.5283 -0.4703
  240MOL0     H32371  14.978   9.395   6.853  0.7801 -1.1135  0.6069
  240MOL0     H32372  15.004   9.233   7.037 -2.4416 -1.3064  1.6807
  240MOL0     H32373  14.987   9.366   7.160 -0.3490 -2.1560  0.0795
  240MOL0     H32374  15.218   9.301   6.964 -1.5694 -0.1005 -0.6414
  240MOL0     H32375  15.212   9.457   7.038  0.8742 -0.3360 -1.3364
  240MOL0     H32376  15.216   9.193   7.185  1.3004 -0.3546  0.7926
  240MOL0     H32377  15.209   9.356   7.266 -0.3127 -0.3027  0.9412
  240MOL0     H32378  15.431   9.413   7.173  0.4934  0.1019  1.3362
  240MOL0     H32379  15.413   9.245   7.259 -1.7149 -0.7106  0.4596
  240MOL0     H32380  14.417   9.701   7.043  1.2669  0.1606 -2.6560
  240MOL0     H32381  14.168   9.788   7.029  0.8322  1.8426 -2.9281
  240MOL0     H32382  13.678   9.574   7.122  0.7234  0.3220  0.1002
  240MOL0     H32383  13.452   9.639   7.090 -1.2470 -3.0069 -2.1846
  240MOL0     H32384  11.530   9.936   6.407  0.9263 -0.0249  0.5237
  240MOL0     H32385  11.305  10.041   6.456 -0.2070 -2.3612 -0.9473
  240MOL0     H32386  11.042  10.252   6.712 -1.1871  0.6513  0.4965
  240MOL0     H32387  10.810  10.342   6.745 -1.8302  0.1107 -1.3663
  240MOL0     H32388  10.622  10.637   6.443  0.1720  2.5915 -0.0555
  240MOL0     H32389  10.729  10.724   6.553 -0.5548  0.6594  1.3103
  240MOL0     H32390  10.475  10.797   6.578  0.8975 -0.1153 -4.2515
  240MOL0     H32391  10.559  10.729   6.724  0.9484 -1.1492 -1.2208
  240MOL0     H32392  10.448  10.508   6.685  1.5709  1.8982  1.2818
  240MOL0     H32393  10.387  10.561   6.538 -0.8671  0.8168 -0.2667
  240MOL0     H32394  10.315  10.681   6.825 -2.2141 -4.0427  2.2162
  240MOL0     H32395  10.239  10.743   6.672 -1.4070 -3.2478 -4.5770
  240MOL0     H32396  10.047  10.380   6.672  3.2314 -2.1116 -0.4421
  240MOL0     H32397  10.833  10.597   6.424 -1.2800 -0.2500  1.7288
  240MOL0     H32398  11.132  10.461   6.267  1.7706 -0.9693  2.2806
  240MOL0     H32399  11.032  10.600   6.286  0.0557  0.4554 -0.2017
  240MOL0     H32400  11.187  10.590   6.374  0.8804 -2.2546  2.3634
  241MOL0     O32401  10.459   7.303  10.987 -0.5359 -0.4815 -0.6080
  241MOL0     C32402  10.392   7.404  10.966 -0.2767  0.3644 -0.3362
  241MOL0     O32403  10.432   7.530  10.997 -0.1685 -0.4686  0.2477
  241MOL0     C32404  10.552   7.559  11.058 -0.1551  0.2114 -0.2309
  241MOL0     C32405  10.638   7.647  10.999 -0.4006 -0.3563 -0.1204
  241MOL0     C32406  10.762   7.673  11.055 -0.2309 -0.3481 -0.8745
  241MOL0     C32407  10.817   7.590  11.163 -0.2393 -0.0082 -0.4408
  241MOL0     O32408  10.941   7.594  11.202 -0.8234 -0.0523  0.2797
  241MOL0     C32409  11.044   7.638  11.107 -1.3432 -0.4047 -0.5743
  241MOL0     C32410  11.182   7.606  11.162  0.1116  0.0969  0.5777
  241MOL0     C32411  11.209   7.449  11.152 -0.5288  0.1876 -0.8383
  241MOL0     C32412  11.364   7.425  11.128  0.8040  0.0562  0.4111
  241MOL0     C32413  11.394   7.289  11.058  1.1408  0.1941 -0.2528
  241MOL0     C32414  11.375   7.172  11.161 -0.7510  0.0498 -0.4880
  241MOL0     C32415  11.386   7.041  11.081 -0.5154 -0.8885  0.0098
  241MOL0     C32416  11.340   6.925  11.166  0.0259  0.0660 -0.0026
  241MOL0     N32417  11.452   6.880  11.243  0.3249 -0.4829 -0.1193
  241MOL0     C32418  11.474   6.926  11.374  0.0867  0.7616  0.0058
  241MOL0     C32419  11.565   6.829  11.423 -0.5516  0.8625 -0.2075
  241MOL0     C32420  11.608   6.829  11.568 -0.7280  0.2460 -0.3486
  241MOL0     C32421  11.745   6.874  11.610  0.1835  0.3346  0.5045
  241MOL0     C32422  11.778   7.009  11.542 -0.9581  0.3285  0.9999
  241MOL0     C32423  11.914   7.075  11.571 -0.0259  0.0003 -0.4308
  241MOL0     O32424  11.939   7.065  11.712 -0.2556  0.5092 -0.9239
  241MOL0     C32425  12.069   7.107  11.756  0.3672 -0.6112  0.0138
  241MOL0     C32426  12.106   7.090  11.891  0.3214  0.0213 -0.1079
  241MOL0     C32427  12.240   7.116  11.927 -0.8274  0.2080 -0.0795
  241MOL0     C32428  12.344   7.142  11.830  0.3505  0.2264 -0.4934
  241MOL0     C32429  12.484   7.157  11.868 -1.1258 -0.7503  0.5085
  241MOL0     O32430  12.521   7.138  11.994  0.1784 -0.6186 -0.2775
  241MOL0     C32431  12.646   7.163  12.040 -0.2189  0.4418  0.0459
  241MOL0     C32432  12.699   7.065  12.124 -0.6128  1.2627 -0.8109
  241MOL0     C32433  12.815   7.095  12.187 -0.1025 -0.5112  0.0399
  241MOL0     C32434  12.883   7.212  12.170  0.6454  0.5661 -0.5827
  241MOL0     O32435  13.003   7.213  12.235  0.0187  0.0321  0.2867
  241MOL0     C32436  13.082   7.329  12.229  1.2939 -0.2540 -0.3399
  241MOL0     C32437  13.205   7.317  12.325  0.2094 -0.2414 -0.3880
  241MOL0     C32438  13.295   7.430  12.313  0.0514 -0.8029  0.3248
  241MOL0     C32439  13.288   7.538  12.427  0.2966 -0.3456  0.5497
  241MOL0     C32440  13.391   7.655  12.408  0.1655 -0.1700  0.0905
  241MOL0     C32441  13.326   7.796  12.385 -0.2954 -0.6996 -0.1014
  241MOL0     C32442  13.247   7.849  12.504  0.2323  0.9143 -0.1959
  241MOL0     C32443  13.232   7.998  12.506  0.0911  0.3763  0.2181
  241MOL0    Cl32444  13.383   8.078  12.525 -0.1161  0.5412 -0.0251
  241MOL0     C32445  12.831   7.308  12.076 -0.4184  0.2646 -0.7599
  241MOL0     C32446  12.711   7.286  12.013 -0.4060  0.1270 -0.3931
  241MOL0     O32447  12.558   7.201  11.781 -0.2473  0.6154 -0.1017
  241MOL0     C32448  12.302   7.149  11.698  0.3287 -0.1474 -0.2252
  241MOL0     C32449  12.168   7.146  11.659 -0.2448  0.9988  0.2221
  241MOL0     N32450  11.599   6.738  11.319 -0.1423  0.2346  0.2098
  241MOL0     N32451  11.526   6.767  11.216  0.6379  0.2932  0.2371
  241MOL0     C32452  10.729   7.499  11.218 -0.1416  0.2129  0.2942
  241MOL0     C32453  10.597   7.496  11.178  1.0553  0.7439  0.3732
  241MOL0     C32454  10.258   7.372  10.912  0.1208 -0.3241  0.7220
  241MOL0     C32455  10.255   7.270  10.811 -0.1184  0.7145  0.1945
  241MOL0     C32456  10.132   7.236  10.755 -0.2135  1.0243  0.3377
  241MOL0     C32457  10.010   7.307  10.785 -0.1633 -0.8532  0.5421
  241MOL0     O32458   9.902   7.275  10.702  0.1186 -0.5580 -0.0679
  241MOL0     C32459   9.769   7.320  10.729  0.2954 -0.3843 -0.2999
  241MOL0     C32460   9.744   7.461  10.656 -0.8388  0.0263  0.3264
  241MOL0     C32461   9.608   7.516  10.686 -0.3146 -0.2301 -0.6472
  241MOL0     C32462   9.591   7.595  10.820 -0.1829  0.6701 -0.8492
  241MOL0     C32463   9.673   7.714  10.833  0.2638 -0.1416 -0.5028
  241MOL0     C32464   9.753   7.801  10.836  0.0334  0.3095 -0.7869
  241MOL0     C32465  10.020   7.405  10.880 -0.2433 -0.6305 -0.7342
  241MOL0     C32466  10.134   7.431  10.951 -0.3504  0.0282  0.4470
  241MOL0     C32467  10.128   7.538  11.061 -0.5071  1.0653  0.0575
  241MOL0     H32468  10.602   7.703  10.913 -2.2993 -2.0373 -0.4981
  241MOL0     H32469  10.825   7.751  11.012  2.2603 -0.5986  2.0422
  241MOL0     H32470  11.042   7.594  11.007  0.3167  2.1854 -1.8713
  241MOL0     H32471  11.048   7.747  11.096  0.6771 -0.2550  1.0195
  241MOL0     H32472  11.194   7.643  11.264 -0.8091  2.1574 -0.0032
  241MOL0     H32473  11.255   7.662  11.102 -0.0932 -0.5905 -0.3373
  241MOL0     H32474  11.153   7.411  11.066  1.3323  1.7186 -2.8038
  241MOL0     H32475  11.169   7.402  11.243  0.0449  1.5119  0.1267
  241MOL0     H32476  11.401   7.500  11.058 -2.1756 -0.5477 -2.0369
  241MOL0     H32477  11.406   7.430  11.229  3.1709 -1.8285 -0.4023
  241MOL0     H32478  11.333   7.273  10.969 -0.2959 -0.6341  0.8420
  241MOL0     H32479  11.498   7.294  11.024  1.0206  0.9376 -0.5218
  241MOL0     H32480  11.446   7.176  11.244 -2.8262  0.8511  1.3391
  241MOL0     H32481  11.273   7.174  11.200 -0.0858 -0.1498  1.3899
  241MOL0     H32482  11.485   7.018  11.041 -1.2520  0.9966 -3.2837
  241MOL0     H32483  11.315   7.042  10.998 -1.6501  0.4618  0.9488
  241MOL0     H32484  11.259   6.963  11.229 -0.0288 -0.1312  0.0442
  241MOL0     H32485  11.304   6.845  11.101  2.5368 -0.4391 -0.9091
  241MOL0     H32486  11.414   7.002  11.423 -0.9251  0.2582 -0.4134
  241MOL0     H32487  11.544   6.904  11.616  1.3545  0.3370  2.5660
  241MOL0     H32488  11.583   6.729  11.604 -1.5453  0.7321  0.4669
  241MOL0     H32489  11.752   6.904  11.715  0.1322  2.6961 -0.0929
  241MOL0     H32490  11.817   6.797  11.580 -0.7554  0.6352 -2.9100
  241MOL0     H32491  11.710   7.090  11.569 -0.6464  0.8049  0.3912
  241MOL0     H32492  11.776   7.003  11.432  1.5549  2.0063  0.7837
  241MOL0     H32493  11.929   7.176  11.531  0.2218  0.8232  1.6553
  241MOL0     H32494  11.984   7.005  11.524 -1.3941 -1.6988  0.0025
  241MOL0     H32495  12.025   7.052  11.952 -1.5442  4.2482  0.4676
  241MOL0     H32496  12.268   7.106  12.032 -3.1680  1.3467  0.7290
  241MOL0     H32497  12.649   6.969  12.136  0.3125  0.5119 -2.5656
  241MOL0     H32498  12.869   7.027  12.252 -0.1287 -1.4771 -0.9281
  241MOL0     H32499  13.111   7.346  12.125  1.5345  0.0942 -0.2160
  241MOL0     H32500  13.015   7.409  12.262  0.3365  0.2440 -3.1911
  241MOL0     H32501  13.170   7.313  12.428 -1.1938 -0.4929 -0.8634
  241MOL0     H32502  13.249   7.222  12.294 -1.2697 -0.2822 -2.6216
  241MOL0     H32503  13.398   7.396  12.325  1.0834  1.6366 -0.9021
  241MOL0     H32504  13.284   7.476  12.214  2.1416 -0.4409  0.2226
  241MOL0     H32505  13.307   7.491  12.524 -0.0141  1.3859  1.4763
  241MOL0     H32506  13.183   7.569  12.438  0.8991  2.4413 -0.8694
  241MOL0     H32507  13.448   7.635  12.317  0.0519 -0.9693  0.1917
  241MOL0     H32508  13.451   7.657  12.499 -0.9705  0.1971  0.8445
  241MOL0     H32509  13.417   7.856  12.387 -0.0262 -1.1057 -0.1099
  241MOL0     H32510  13.277   7.815  12.289  1.3882  2.8401 -0.4004
  241MOL0     H32511  13.290   7.822  12.601  0.5687  1.1861 -0.2691
  241MOL0     H32512  13.147   7.804  12.508 -1.3656  4.1555 -0.1329
  241MOL0     H32513  13.188   8.033  12.412  0.8942  1.3577  0.1926
  241MOL0     H32514  13.160   8.033  12.580 -1.9169 -1.8377 -0.5478
  241MOL0     H32515  12.886   7.401  12.063  0.8928 -0.3760  0.0041
  241MOL0     H32516  12.667   7.359  11.946 -2.9681 -0.0563  0.9302
  241MOL0     H32517  12.381   7.142  11.624  0.6753 -2.8095  0.2989
  241MOL0     H32518  12.152   7.152  11.552 -3.7076  1.3274  0.6621
  241MOL0     H32519  10.765   7.424  11.287  2.2203  0.8580 -0.1311
  241MOL0     H32520  10.528   7.427  11.226  0.8312  0.1069 -0.8206
  241MOL0     H32521  10.347   7.232  10.768 -0.8098  0.7510 -1.3586
  241MOL0     H32522  10.126   7.156  10.682  0.1054 -0.0662  1.4711
  241MOL0     H32523   9.765   7.326  10.838  1.6491  0.0379 -0.2467
  241MOL0     H32524   9.700   7.242  10.695  0.5031 -0.2483 -1.0533
  241MOL0     H32525   9.754   7.438  10.550  0.2203 -1.5570  0.7422
  241MOL0     H32526   9.828   7.528  10.676 -1.5966  1.6914 -1.6896
  241MOL0     H32527   9.526   7.444  10.686 -1.7916  1.3513 -2.5516
  241MOL0     H32528   9.593   7.581  10.600  3.6293  0.2461 -1.1805
  241MOL0     H32529   9.486   7.625  10.834 -0.9294 -0.5407 -3.2122
  241MOL0     H32530   9.613   7.525  10.901 -0.3530  0.8273 -0.6674
  241MOL0     H32531   9.822   7.880  10.858 -0.3732  0.3587  0.3907
  241MOL0     H32532   9.930   7.461  10.900 -1.5470 -2.3861 -1.3998
  241MOL0     H32533  10.171   7.496  11.152 -2.9571 -1.1519  0.2930
  241MOL0     H32534  10.173   7.632  11.029 -2.3164  1.2581 -2.1747
  241MOL0     H32535  10.024   7.565  11.084 -0.0551  2.5228  0.4839
  242MOL0     O32536   5.098   3.239   6.515  0.3644  0.2879  0.2574
  242MOL0     C32537   5.032   3.210   6.414  1.8194 -0.0994  0.8059
  242MOL0     O32538   5.080   3.206   6.279 -0.0516 -0.0019  0.0702
  242MOL0     C32539   5.217   3.240   6.272 -0.2185  0.1980 -0.3413
  242MOL0     C32540   5.305   3.157   6.197 -0.2659 -0.1460  1.0127
  242MOL0     C32541   5.440   3.186   6.186  0.9335  0.1703  0.1768
  242MOL0     C32542   5.497   3.311   6.224  0.0645 -0.1119  0.7668
  242MOL0     O32543   5.628   3.349   6.205 -0.3500  0.8115 -0.2226
  242MOL0     C32544   5.726   3.269   6.135 -0.4316  0.3563  0.1436
  242MOL0     C32545   5.858   3.338   6.143 -1.1784  0.1655  0.4072
  242MOL0     C32546   5.969   3.273   6.064 -0.3134  1.0089 -0.1011
  242MOL0     C32547   6.109   3.307   6.116 -0.5122 -0.0128  0.6850
  242MOL0     C32548   6.231   3.236   6.060 -0.1560 -0.4277 -0.9922
  242MOL0     C32549   6.367   3.282   6.119  0.3245 -0.2833  0.4901
  242MOL0     C32550   6.479   3.227   6.031  0.2311  0.7628 -0.6775
  242MOL0     C32551   6.615   3.245   6.084  0.2789  0.2750  1.0360
  242MOL0     N32552   6.721   3.232   5.984  0.5000 -0.2145  0.2254
  242MOL0     C32553   6.730   3.287   5.858  0.0595  0.8490  0.1248
  242MOL0     C32554   6.856   3.253   5.812  0.2647  0.6414  0.5973
  242MOL0     C32555   6.915   3.264   5.681  0.3444  0.0520 -0.3211
  242MOL0     C32556   6.994   3.390   5.650 -0.4803 -0.3503  1.1168
  242MOL0     C32557   7.100   3.426   5.757 -0.8496  0.3108 -0.7202
  242MOL0     C32558   7.211   3.484   5.675  0.2818 -0.3455 -0.9323
  242MOL0     O32559   7.308   3.515   5.777 -0.2504 -0.2280  0.6866
  242MOL0     C32560   7.436   3.448   5.778 -0.8533 -0.6640 -0.2842
  242MOL0     C32561   7.495   3.383   5.667  0.5371  0.5264 -0.3400
  242MOL0     C32562   7.624   3.324   5.675  0.1936 -0.6803  0.3694
  242MOL0     C32563   7.700   3.329   5.794 -0.0326 -0.0410 -1.0541
  242MOL0     C32564   7.843   3.279   5.804 -0.1783 -0.3227  0.1657
  242MOL0     O32565   7.917   3.329   5.906  0.0517 -0.0228 -0.2358
  242MOL0     C32566   8.050   3.293   5.909 -1.1971 -1.0644 -0.1067
  242MOL0     C32567   8.112   3.167   5.880 -0.0283  0.1443 -0.6735
  242MOL0     C32568   8.256   3.155   5.884 -0.2455  0.5004  0.1771
  242MOL0     C32569   8.340   3.264   5.924  0.5185 -0.3317  0.3294
  242MOL0     O32570   8.475   3.245   5.918 -0.1218 -0.0278 -0.9077
  242MOL0     C32571   8.563   3.360   5.908  1.2499 -0.2261  0.6903
  242MOL0     C32572   8.703   3.310   5.885 -0.5361 -0.3946  0.0527
  242MOL0     C32573   8.813   3.424   5.911  0.3395 -0.3454  0.3055
  242MOL0     C32574   8.836   3.504   5.778 -0.4349 -0.2691 -0.3256
  242MOL0     C32575   8.847   3.654   5.800  0.9470  0.2214 -0.5991
  242MOL0     C32576   8.708   3.717   5.799  0.4635  0.6660  0.0009
  242MOL0     C32577   8.713   3.860   5.846 -0.5121 -0.2253 -0.1848
  242MOL0     C32578   8.577   3.933   5.817 -0.0664 -0.4814 -0.1822
  242MOL0    Cl32579   8.452   3.891   5.945 -0.5906  0.3893  0.0845
  242MOL0     C32580   8.275   3.383   5.965 -0.4137  0.0115  0.4294
  242MOL0     C32581   8.137   3.397   5.961  1.2167 -1.0018  0.0417
  242MOL0     O32582   7.890   3.220   5.706 -1.0022 -0.4084 -0.0181
  242MOL0     C32583   7.638   3.386   5.905 -0.8267 -0.8951  0.6284
  242MOL0     C32584   7.510   3.451   5.893 -0.4381  1.1458  0.1651
  242MOL0     N32585   6.921   3.179   5.906  0.4250  0.0138  0.6139
  242MOL0     N32586   6.845   3.172   6.014 -0.0153  0.2722 -0.2753
  242MOL0     C32587   5.410   3.386   6.292  0.2393 -0.0812 -0.0261
  242MOL0     C32588   5.275   3.357   6.324 -0.1993  0.3539 -0.3184
  242MOL0     C32589   4.878   3.185   6.427  0.4201  0.4217 -0.1955
  242MOL0     C32590   4.814   3.200   6.552  0.5742  0.6169 -0.5654
  242MOL0     C32591   4.677   3.190   6.570 -0.4379 -0.1303  0.1387
  242MOL0     C32592   4.591   3.166   6.464  0.5807 -0.2921  0.7456
  242MOL0     O32593   4.450   3.173   6.478  0.0275 -0.7599  0.0336
  242MOL0     C32594   4.392   3.304   6.448  0.0475 -0.1091 -0.5591
  242MOL0     C32595   4.245   3.282   6.407 -0.1857  0.2765  0.3979
  242MOL0     C32596   4.226   3.230   6.268  0.0773  0.4106  0.4088
  242MOL0     C32597   4.083   3.246   6.207 -0.2533  0.0627 -0.4832
  242MOL0     C32598   3.985   3.184   6.290  0.1106  0.5030 -0.4129
  242MOL0     C32599   3.901   3.132   6.364 -0.2326  0.0432 -0.6179
  242MOL0     C32600   4.654   3.130   6.347  0.7864 -0.4804  0.4498
  242MOL0     C32601   4.792   3.141   6.322  0.1278 -0.0991 -0.2000
  242MOL0     C32602   4.846   3.103   6.183  0.7855 -0.6323 -1.3176
  242MOL0     H32603   5.257   3.070   6.155 -0.4952  0.1324  0.6882
  242MOL0     H32604   5.505   3.106   6.152 -0.2727 -0.7976  0.0638
  242MOL0     H32605   5.732   3.181   6.199 -0.8542  0.4764  0.3465
  242MOL0     H32606   5.700   3.253   6.030 -0.4014  0.8792  0.0518
  242MOL0     H32607   5.880   3.321   6.249 -1.1187 -1.7688  0.1171
  242MOL0     H32608   5.860   3.445   6.119  2.0065 -0.1343 -1.2922
  242MOL0     H32609   5.968   3.303   5.958 -0.4241 -0.0287 -0.4048
  242MOL0     H32610   5.958   3.164   6.061 -1.2208  1.0395  1.2792
  242MOL0     H32611   6.128   3.415   6.108  0.2255 -0.0924  1.2576
  242MOL0     H32612   6.116   3.296   6.225  0.4303 -0.9895  0.5429
  242MOL0     H32613   6.222   3.131   6.090  1.0024 -0.5185 -0.9416
  242MOL0     H32614   6.237   3.247   5.951 -0.6644  0.7782 -0.9154
  242MOL0     H32615   6.373   3.391   6.118  1.5145 -0.3310  0.8464
  242MOL0     H32616   6.380   3.234   6.217  0.2199 -4.6682 -1.4094
  242MOL0     H32617   6.469   3.289   5.942 -0.1834  0.8236 -0.5911
  242MOL0     H32618   6.463   3.121   6.007 -0.3518  1.0436 -1.5408
  242MOL0     H32619   6.626   3.343   6.131 -0.2066 -0.1433  2.0601
  242MOL0     H32620   6.630   3.171   6.163 -1.3967 -2.2611 -0.8791
  242MOL0     H32621   6.649   3.344   5.814 -1.8094 -2.1231 -0.5690
  242MOL0     H32622   6.985   3.181   5.665  2.8521  1.3731  2.7468
  242MOL0     H32623   6.833   3.247   5.611 -0.2031 -0.9059  0.5252
  242MOL0     H32624   7.040   3.375   5.552  0.0618  2.4623  0.8678
  242MOL0     H32625   6.925   3.474   5.641  0.1894  0.2319  1.4003
  242MOL0     H32626   7.127   3.340   5.819  0.8365  2.3888  1.6370
  242MOL0     H32627   7.065   3.495   5.834 -1.1536 -0.1881 -0.4010
  242MOL0     H32628   7.169   3.571   5.623 -1.1604 -1.1575 -1.1840
  242MOL0     H32629   7.245   3.411   5.601  2.2733 -0.9705  0.5057
  242MOL0     H32630   7.446   3.380   5.571  0.0657  4.5571 -0.3782
  242MOL0     H32631   7.666   3.283   5.583 -0.9375  1.3284 -1.1096
  242MOL0     H32632   8.049   3.082   5.855 -0.4752 -0.7376  2.8325
  242MOL0     H32633   8.296   3.054   5.875 -3.1461 -0.6937 -0.4664
  242MOL0     H32634   8.529   3.424   5.825 -2.1341  0.7446  2.6683
  242MOL0     H32635   8.557   3.416   6.002  0.8353  2.8023 -0.9922
  242MOL0     H32636   8.725   3.229   5.955 -0.9423  0.6596  1.4610
  242MOL0     H32637   8.711   3.274   5.782 -0.0091  1.7379 -0.7089
  242MOL0     H32638   8.787   3.498   5.987  2.1819  1.3255 -0.5926
  242MOL0     H32639   8.911   3.383   5.937  1.0991  0.1655 -1.5115
  242MOL0     H32640   8.753   3.487   5.709 -1.4581  2.2511  0.1837
  242MOL0     H32641   8.930   3.462   5.740  0.5810  0.6188  1.1181
  242MOL0     H32642   8.918   3.696   5.728  1.9402  1.1657  0.8735
  242MOL0     H32643   8.897   3.673   5.895 -0.7916  1.6507  0.0769
  242MOL0     H32644   8.656   3.721   5.703 -1.1179  1.1801  0.8446
  242MOL0     H32645   8.650   3.659   5.872 -0.2663  0.2835 -0.8593
  242MOL0     H32646   8.795   3.912   5.794 -0.7826  0.5737  0.1738
  242MOL0     H32647   8.738   3.865   5.952  0.7067  1.0964 -0.5005
  242MOL0     H32648   8.590   4.042   5.819 -2.0057 -0.2249  0.2463
  242MOL0     H32649   8.543   3.914   5.715  0.5934 -1.5833 -0.2063
  242MOL0     H32650   8.332   3.472   5.989  0.5774 -0.6942  0.8091
  242MOL0     H32651   8.090   3.492   5.986 -2.0354 -2.0201 -1.6914
  242MOL0     H32652   7.676   3.386   6.006 -2.0520  1.7471  1.1796
  242MOL0     H32653   7.459   3.500   5.975 -1.3576  1.4915 -0.5952
  242MOL0     H32654   5.444   3.480   6.334 -4.2308  1.2098  1.3215
  242MOL0     H32655   5.226   3.431   6.386  3.1045  3.2541 -0.8665
  242MOL0     H32656   4.876   3.216   6.639  0.8580 -1.5987 -0.3210
  242MOL0     H32657   4.628   3.200   6.666  0.7182  2.0341  0.5739
  242MOL0     H32658   4.448   3.344   6.363 -0.5427 -0.5420 -1.1579
  242MOL0     H32659   4.386   3.371   6.535 -0.2812 -1.2474  0.3277
  242MOL0     H32660   4.200   3.381   6.415  0.0102  0.4510 -0.5123
  242MOL0     H32661   4.199   3.218   6.483  0.8293  0.6957  1.3729
  242MOL0     H32662   4.242   3.122   6.268 -1.6515  0.1250  1.5465
  242MOL0     H32663   4.302   3.264   6.197 -0.5978 -1.1608 -1.1151
  242MOL0     H32664   4.052   3.351   6.206 -1.9282 -0.3924 -2.1377
  242MOL0     H32665   4.079   3.212   6.104  0.1307 -0.1505 -0.4261
  242MOL0     H32666   3.837   3.101   6.444 -0.8918  1.8910 -0.3826
  242MOL0     H32667   4.591   3.099   6.264  0.4936  1.2281 -0.0019
  242MOL0     H32668   4.937   3.041   6.182  1.1395 -0.1585  0.0960
  242MOL0     H32669   4.777   3.052   6.115 -2.2647  2.8771 -1.1245
  242MOL0     H32670   4.871   3.202   6.144  2.9049 -0.0038  1.3418
  243MOL0     O32671  10.384  10.919   3.051 -0.4282 -0.1147  0.1704
  243MOL0     C32672  10.348  11.020   2.994  0.5145 -1.0238  0.1079
  243MOL0     O32673  10.427  11.123   2.965  0.5796  0.1304 -0.0376
  243MOL0     C32674  10.556  11.095   2.944  0.0514  0.6192 -0.3000
  243MOL0     C32675  10.657  11.198   2.986  0.5404  0.5243  0.5434
  243MOL0     C32676  10.795  11.179   2.960  1.7206  0.5101 -0.0201
  243MOL0     C32677  10.839  11.063   2.885 -0.1048 -0.6702  0.2152
  243MOL0     O32678  10.968  11.069   2.835 -0.5007 -0.5485 -0.3109
  243MOL0     C32679  10.992  11.032   2.703  0.4718 -1.0378  0.4970
  243MOL0     C32680  11.137  11.063   2.669  0.3810  0.1578 -0.5395
  243MOL0     C32681  11.144  11.197   2.590 -0.0396  0.7429 -0.7314
  243MOL0     C32682  11.289  11.228   2.550 -0.8359 -0.3208  0.1411
  243MOL0     C32683  11.278  11.367   2.491 -0.0300  0.2133  0.0164
  243MOL0     C32684  11.420  11.407   2.454 -0.0262 -0.5838 -0.7354
  243MOL0     C32685  11.413  11.555   2.417 -0.1896 -0.4235  0.8080
  243MOL0     C32686  11.544  11.584   2.335  0.0368 -0.4470  0.1390
  243MOL0     N32687  11.670  11.610   2.415  0.1803  0.9642  0.0150
  243MOL0     C32688  11.750  11.504   2.458  0.1789  1.4296 -0.5084
  243MOL0     C32689  11.827  11.563   2.545  0.1568 -0.7006 -0.0301
  243MOL0     C32690  11.944  11.497   2.620 -0.4929 -0.4635  0.0114
  243MOL0     C32691  12.073  11.558   2.547 -0.1733 -0.4672  0.3079
  243MOL0     C32692  12.092  11.716   2.572 -0.0654 -0.0537  0.2206
  243MOL0     C32693  12.233  11.752   2.563  0.2781  0.5867  0.2985
  243MOL0     O32694  12.296  11.743   2.696 -0.3526 -0.1099 -0.2815
  243MOL0     C32695  12.431  11.759   2.704  0.1940 -0.4640 -0.7354
  243MOL0     C32696  12.484  11.745   2.835  0.2602  0.0321 -0.6470
  243MOL0     C32697  12.624  11.746   2.854 -0.0201  0.1119  0.4606
  243MOL0     C32698  12.711  11.758   2.742 -0.5710 -0.0207  0.9779
  243MOL0     C32699  12.853  11.758   2.767 -0.8312  0.3636  0.4506
  243MOL0     O32700  12.927  11.787   2.657 -0.3377  0.5062  0.4099
  243MOL0     C32701  13.068  11.796   2.657  0.3076 -1.1478 -0.2386
  243MOL0     C32702  13.140  11.896   2.598  0.8521  0.4971 -0.6823
  243MOL0     C32703  13.280  11.910   2.605  0.0602 -0.2042 -0.0052
  243MOL0     C32704  13.353  11.818   2.676 -1.4578 -1.2384  0.5540
  243MOL0     O32705  13.491  11.834   2.692  0.3364 -0.0977  0.4309
  243MOL0     C32706  13.563  11.870   2.578 -0.4300  0.5418 -0.0925
  243MOL0     C32707  13.698  11.806   2.567  0.4423 -0.4291  0.1281
  243MOL0     C32708  13.795  11.912   2.617 -0.8357  0.9731 -0.2570
  243MOL0     C32709  13.945  11.872   2.613 -0.1926 -0.4495  0.7007
  243MOL0     C32710  14.039  11.991   2.647 -0.6610 -0.1422  0.6213
  243MOL0     C32711  14.185  11.950   2.647 -0.3278  0.0229  0.8557
  243MOL0     C32712  14.282  12.073   2.665  0.3121  0.1832  0.4765
  243MOL0     C32713  14.311  12.098   2.808 -0.0865  0.1757  0.5134
  243MOL0    Cl32714  14.438  11.987   2.863 -0.0444  0.3286  0.0089
  243MOL0     C32715  13.281  11.702   2.723  0.1952  0.1538  0.0542
  243MOL0     C32716  13.141  11.704   2.720 -0.5184 -0.0809 -0.6366
  243MOL0     O32717  12.901  11.730   2.875  0.1250  0.2268 -0.1579
  243MOL0     C32718  12.652  11.773   2.617  0.3189  0.1561 -1.1457
  243MOL0     C32719  12.523  11.766   2.600  0.6389  0.2179  0.4200
  243MOL0     N32720  11.795  11.697   2.561  0.5617  0.4415 -0.2819
  243MOL0     N32721  11.704  11.729   2.470 -1.1379  0.0612  1.0719
  243MOL0     C32722  10.743  10.970   2.845  0.1463  0.2342 -0.2496
  243MOL0     C32723  10.604  10.984   2.871 -0.2970 -0.0275  0.7248
  243MOL0     C32724  10.199  11.034   2.970  0.2817  0.0935  0.1875
  243MOL0     C32725  10.130  11.137   3.034  0.3323  0.1080  0.3033
  243MOL0     C32726  10.002  11.158   3.008  0.8601  0.3432 -0.5311
  243MOL0     C32727   9.931  11.086   2.907  0.2506  0.1695  0.4347
  243MOL0     O32728   9.798  11.102   2.872  0.1191 -0.4707 -0.1440
  243MOL0     C32729   9.723  11.206   2.947 -0.8245  0.5718  0.7312
  243MOL0     C32730   9.579  11.204   2.894 -0.0782  0.1070 -0.5838
  243MOL0     C32731   9.488  11.301   2.975 -0.3662 -0.0263  0.3021
  243MOL0     C32732   9.353  11.242   3.028  0.5716 -0.3751  0.6285
  243MOL0     C32733   9.254  11.211   2.916 -0.6471 -0.6666 -0.1501
  243MOL0     C32734   9.180  11.199   2.822  0.3873 -0.0263  0.2829
  243MOL0     C32735  10.002  10.996   2.832 -0.0521  0.3500  1.0926
  243MOL0     C32736  10.137  10.965   2.862  0.9931  0.3157 -0.0547
  243MOL0     C32737  10.193  10.864   2.774 -0.2927  0.1800  0.9432
  243MOL0     H32738  10.609  11.284   3.032 -1.1802 -0.6025  0.9483
  243MOL0     H32739  10.864  11.255   2.993 -1.1118  3.5815 -0.6251
  243MOL0     H32740  10.966  10.925   2.699 -1.7168 -0.8190  4.0924
  243MOL0     H32741  10.930  11.098   2.642  1.8404 -0.7967 -0.6682
  243MOL0     H32742  11.169  10.986   2.598 -1.3754  1.0618 -2.4005
  243MOL0     H32743  11.196  11.063   2.762 -1.4861  1.5418  0.7076
  243MOL0     H32744  11.099  11.273   2.655  1.1605 -0.5855  1.8149
  243MOL0     H32745  11.081  11.184   2.502  3.5491 -1.1161 -3.2870
  243MOL0     H32746  11.368  11.240   2.624  1.0473 -2.9487 -1.2931
  243MOL0     H32747  11.333  11.147   2.493 -0.4114 -0.5391  0.7658
  243MOL0     H32748  11.214  11.355   2.404 -0.3270 -0.8617  0.3634
  243MOL0     H32749  11.235  11.436   2.564  1.4992 -1.0037  2.2042
  243MOL0     H32750  11.483  11.404   2.543 -2.5831 -1.7834  1.1173
  243MOL0     H32751  11.447  11.342   2.370 -0.4892 -1.9947  0.1714
  243MOL0     H32752  11.403  11.622   2.502 -1.2432 -0.0464  0.3966
  243MOL0     H32753  11.329  11.574   2.350  1.4029 -2.9779 -2.2096
  243MOL0     H32754  11.559  11.507   2.259 -0.7399  0.6237 -1.1434
  243MOL0     H32755  11.521  11.675   2.278 -2.7814 -1.2298 -0.0942
  243MOL0     H32756  11.746  11.397   2.440  1.5822  1.4322 -0.9326
  243MOL0     H32757  11.956  11.526   2.725  0.2501  0.0986 -0.2214
  243MOL0     H32758  11.947  11.388   2.613  2.9944 -0.4976  0.3508
  243MOL0     H32759  12.161  11.506   2.587  0.6173  0.8054  0.2772
  243MOL0     H32760  12.059  11.540   2.440 -2.9985  2.7143 -0.0296
  243MOL0     H32761  12.060  11.754   2.670  0.2378  2.1590 -0.4983
  243MOL0     H32762  12.032  11.777   2.504 -0.3938  0.9540  1.3739
  243MOL0     H32763  12.241  11.859   2.545 -0.5786  1.0401  2.2712
  243MOL0     H32764  12.283  11.692   2.487 -0.6556 -1.5678  1.2776
  243MOL0     H32765  12.425  11.720   2.923  1.7605 -1.3827  0.0275
  243MOL0     H32766  12.658  11.740   2.957 -0.7748  1.4810  0.8154
  243MOL0     H32767  13.078  11.963   2.539 -1.9832 -3.8870 -3.2703
  243MOL0     H32768  13.315  11.995   2.547 -0.1212 -0.0289  0.1396
  243MOL0     H32769  13.502  11.847   2.490 -2.6037  2.4354  0.8060
  243MOL0     H32770  13.561  11.979   2.583 -0.7638  0.4890  1.1478
  243MOL0     H32771  13.701  11.715   2.627  4.9730 -0.6471 -0.1003
  243MOL0     H32772  13.715  11.787   2.460 -1.2323 -0.7403 -0.1245
  243MOL0     H32773  13.779  12.002   2.558  1.5561  0.7243 -1.4034
  243MOL0     H32774  13.769  11.929   2.722  1.0946 -1.5594  0.7197
  243MOL0     H32775  13.957  11.830   2.512 -3.1677 -2.3500  1.0016
  243MOL0     H32776  13.967  11.794   2.686  0.6541 -1.9162 -1.0247
  243MOL0     H32777  14.011  12.037   2.742  0.2138  1.3928  0.1750
  243MOL0     H32778  14.023  12.070   2.573 -3.2054 -0.1117  1.1326
  243MOL0     H32779  14.194  11.894   2.740  3.7614  0.1304  0.6817
  243MOL0     H32780  14.210  11.881   2.566 -1.4192 -1.2356  1.5499
  243MOL0     H32781  14.240  12.164   2.620  0.8074 -0.7875 -2.1029
  243MOL0     H32782  14.377  12.070   2.610 -0.7487 -0.6676 -1.3877
  243MOL0     H32783  14.344  12.202   2.817  3.3700 -0.6320 -0.8859
  243MOL0     H32784  14.225  12.079   2.872 -1.1319  2.7132  0.0018
  243MOL0     H32785  13.333  11.618   2.769  0.0924 -0.1894 -0.4409
  243MOL0     H32786  13.083  11.626   2.767  1.9880 -1.1280  0.9059
  243MOL0     H32787  12.709  11.783   2.526  1.4788 -0.7941 -0.5531
  243MOL0     H32788  12.498  11.777   2.495  2.5747 -2.2999 -0.4055
  243MOL0     H32789  10.770  10.877   2.794  1.9597  0.2934  0.5287
  243MOL0     H32790  10.538  10.909   2.828  1.9781 -1.4068 -0.6224
  243MOL0     H32791  10.173  11.182   3.123  2.3556 -3.4473  1.3398
  243MOL0     H32792   9.953  11.241   3.058  0.6239  0.4041 -0.8608
  243MOL0     H32793   9.765  11.304   2.923  1.0634  0.0400  1.6400
  243MOL0     H32794   9.725  11.183   3.054  0.3710 -2.0548  0.2201
  243MOL0     H32795   9.540  11.103   2.910 -0.2145 -0.2344 -2.7998
  243MOL0     H32796   9.578  11.236   2.789 -2.0566 -0.3853 -0.7416
  243MOL0     H32797   9.466  11.394   2.922 -1.2974  1.0506  2.4380
  243MOL0     H32798   9.540  11.333   3.066  0.7456 -2.2207  0.5056
  243MOL0     H32799   9.376  11.145   3.074 -1.2185 -1.8657 -1.3892
  243MOL0     H32800   9.314  11.314   3.101  1.1616  0.5634  0.0343
  243MOL0     H32801   9.113  11.189   2.739  2.2307 -1.9629 -1.0495
  243MOL0     H32802   9.947  10.951   2.750 -0.8986  2.6894  0.3156
  243MOL0     H32803  10.293  10.904   2.758 -0.6603  1.6039  1.9962
  243MOL0     H32804  10.203  10.770   2.830  0.7515 -0.6061 -0.4967
  243MOL0     H32805  10.142  10.843   2.680  2.4509 -1.4557 -0.2966
  244MOL0     O32806   7.079   9.764   4.718 -0.5544 -0.5152 -0.3231
  244MOL0     C32807   7.111   9.655   4.686  0.1779  1.2009 -0.0506
  244MOL0     O32808   7.032   9.575   4.613  0.1899  0.0893  0.8194
  244MOL0     C32809   6.932   9.610   4.529  0.8847 -0.0114 -0.3090
  244MOL0     C32810   6.921   9.732   4.472 -0.5017 -0.6575 -0.7172
  244MOL0     C32811   6.848   9.760   4.362  0.1553  0.4105 -0.7289
  244MOL0     C32812   6.729   9.679   4.347  0.0620 -0.2040 -0.8144
  244MOL0     O32813   6.638   9.715   4.251  0.5314  0.1780  0.2740
  244MOL0     C32814   6.497   9.681   4.283 -0.8780 -0.7377 -0.3613
  244MOL0     C32815   6.405   9.788   4.224  0.1553  1.0212 -0.0164
  244MOL0     C32816   6.380   9.789   4.073  0.1275 -0.2291 -0.3385
  244MOL0     C32817   6.237   9.838   4.045 -0.8930  0.2224  0.0115
  244MOL0     C32818   6.235   9.854   3.893  0.6496  0.3074 -0.1434
  244MOL0     C32819   6.276   9.738   3.805  0.4145  0.4155  0.0174
  244MOL0     C32820   6.229   9.775   3.667  0.3129  0.1005 -0.1132
  244MOL0     C32821   6.279   9.664   3.566 -0.1019 -0.0085  0.1942
  244MOL0     N32822   6.422   9.679   3.542 -0.1366 -0.3277 -0.2210
  244MOL0     C32823   6.482   9.778   3.464  0.5600  0.1711 -0.6639
  244MOL0     C32824   6.614   9.740   3.463 -0.2938  0.2909 -0.2618
  244MOL0     C32825   6.727   9.833   3.406  0.3155  0.4261 -0.0659
  244MOL0     C32826   6.858   9.765   3.392 -0.5937  0.4552 -0.0559
  244MOL0     C32827   6.929   9.758   3.533 -0.1900  0.8680  0.7489
  244MOL0     C32828   7.076   9.703   3.524 -0.1419 -0.4175  0.3319
  244MOL0     O32829   7.138   9.800   3.444 -0.6945 -0.6329 -0.3060
  244MOL0     C32830   7.244   9.758   3.371 -0.6140  0.3880  0.1365
  244MOL0     C32831   7.372   9.760   3.429  0.2554 -0.1012  0.5096
  244MOL0     C32832   7.477   9.737   3.344  0.0625  0.5536 -0.5767
  244MOL0     C32833   7.462   9.702   3.207 -0.2239 -0.9697 -0.4868
  244MOL0     C32834   7.579   9.669   3.123  1.0030  0.2171 -0.2448
  244MOL0     O32835   7.693   9.715   3.182  0.2716 -0.6577  1.1813
  244MOL0     C32836   7.810   9.688   3.116  0.8085  0.0700 -0.5515
  244MOL0     C32837   7.857   9.756   3.007 -0.3705 -0.4129 -0.4740
  244MOL0     C32838   7.973   9.720   2.932  0.2283  0.0723  0.0626
  244MOL0     C32839   8.062   9.632   2.991 -0.1220 -0.4457 -0.5340
  244MOL0     O32840   8.170   9.583   2.913  0.0532  0.3054 -0.8788
  244MOL0     C32841   8.298   9.620   2.961  0.8453 -0.2294  0.0277
  244MOL0     C32842   8.360   9.725   2.872  0.7073 -0.5501 -0.2797
  244MOL0     C32843   8.444   9.665   2.751  0.0405  0.7899 -0.6266
  244MOL0     C32844   8.454   9.765   2.638 -0.3850 -0.6561  0.0862
  244MOL0     C32845   8.553   9.872   2.676 -0.5108  0.4784 -0.0310
  244MOL0     C32846   8.703   9.836   2.696 -0.2012 -1.5176 -0.0785
  244MOL0     C32847   8.765   9.759   2.580 -0.0136  0.7115  0.2058
  244MOL0     C32848   8.915   9.771   2.579  0.8831  0.4718  0.5722
  244MOL0    Cl32849   8.963   9.700   2.742  0.3641  0.0390  0.0415
  244MOL0     C32850   8.025   9.571   3.113  0.4873  0.0289 -0.4250
  244MOL0     C32851   7.907   9.599   3.176  0.5652 -0.6329  0.0818
  244MOL0     O32852   7.564   9.617   3.008 -0.0365 -0.1816  0.5678
  244MOL0     C32853   7.332   9.719   3.150  0.0584  0.4584  0.3639
  244MOL0     C32854   7.224   9.739   3.228  0.2649 -1.0191 -0.1703
  244MOL0     N32855   6.630   9.626   3.537  0.2766  0.5221  0.3772
  244MOL0     N32856   6.510   9.588   3.573 -0.4751 -0.2126  0.4869
  244MOL0     C32857   6.717   9.555   4.416 -0.0298  0.6205 -0.2676
  244MOL0     C32858   6.822   9.520   4.513 -1.0664 -0.8066 -0.4025
  244MOL0     C32859   7.246   9.601   4.726 -0.1407  0.3208 -1.0789
  244MOL0     C32860   7.274   9.469   4.701  0.0547  0.3644  0.0519
  244MOL0     C32861   7.397   9.404   4.728 -0.8554 -0.3771  0.9610
  244MOL0     C32862   7.507   9.469   4.779 -0.5004 -0.2455 -0.1559
  244MOL0     O32863   7.628   9.411   4.810  0.0817  0.0332  0.3495
  244MOL0     C32864   7.673   9.431   4.947 -0.3229 -0.0832 -0.8679
  244MOL0     C32865   7.754   9.313   4.990  0.1413 -0.3199  0.0374
  244MOL0     C32866   7.898   9.325   4.950  0.3344  0.6650  1.1152
  244MOL0     C32867   7.994   9.217   5.006  0.4694 -0.2333 -0.9080
  244MOL0     C32868   7.995   9.221   5.152  0.2921 -0.7390  0.3659
  244MOL0     C32869   8.006   9.212   5.269  0.1428  0.2920 -0.5727
  244MOL0     C32870   7.485   9.610   4.790 -0.3524 -0.3025 -0.1898
  244MOL0     C32871   7.362   9.674   4.770  0.1727 -0.4590 -0.6425
  244MOL0     C32872   7.356   9.816   4.815 -0.7089 -0.1095 -0.0460
  244MOL0     H32873   6.995   9.810   4.480 -0.0768 -1.1067 -0.1827
  244MOL0     H32874   6.870   9.840   4.292 -0.5079 -0.3121 -1.8001
  244MOL0     H32875   6.464   9.588   4.236 -2.1797  0.9387 -3.0165
  244MOL0     H32876   6.483   9.684   4.391 -2.2121  2.0952 -0.5174
  244MOL0     H32877   6.435   9.889   4.255  5.0019 -0.6374  1.6253
  244MOL0     H32878   6.304   9.775   4.264 -0.3236  1.7908 -0.9197
  244MOL0     H32879   6.388   9.689   4.028  2.7000  0.3855 -1.4081
  244MOL0     H32880   6.458   9.846   4.022  1.4037 -2.1160 -0.6121
  244MOL0     H32881   6.175   9.754   4.074  1.2841 -2.0509 -1.4514
  244MOL0     H32882   6.226   9.926   4.109 -0.8426 -0.4848  1.0074
  244MOL0     H32883   6.128   9.869   3.878  0.2647  0.3844  2.3103
  244MOL0     H32884   6.284   9.946   3.861 -1.7613  1.8589  0.3137
  244MOL0     H32885   6.384   9.725   3.812  0.6239  0.9460 -1.7809
  244MOL0     H32886   6.226   9.645   3.833 -0.6612  0.0935 -2.6180
  244MOL0     H32887   6.272   9.869   3.630 -0.8742 -0.2910 -2.7185
  244MOL0     H32888   6.120   9.778   3.668  0.2929 -0.5070 -0.5033
  244MOL0     H32889   6.260   9.567   3.613  0.9910 -1.0368 -1.3784
  244MOL0     H32890   6.219   9.662   3.475 -2.9711 -1.9978  1.9478
  244MOL0     H32891   6.443   9.873   3.429  0.4927  1.3108  2.2324
  244MOL0     H32892   6.703   9.870   3.306 -1.0151 -3.0494 -1.1987
  244MOL0     H32893   6.745   9.918   3.473 -2.1280 -0.8783  2.5069
  244MOL0     H32894   6.840   9.667   3.348  1.2794  1.6464 -3.9420
  244MOL0     H32895   6.913   9.835   3.327  0.6461 -0.8282 -0.4438
  244MOL0     H32896   6.870   9.697   3.602 -0.8141  0.9523  0.2944
  244MOL0     H32897   6.927   9.859   3.573 -2.2375  1.3326 -0.3845
  244MOL0     H32898   7.074   9.610   3.466  2.9654  0.5967 -1.6179
  244MOL0     H32899   7.128   9.683   3.618 -0.5116  2.3184  1.1978
  244MOL0     H32900   7.370   9.778   3.536 -0.9139  1.9512  0.2036
  244MOL0     H32901   7.576   9.720   3.386 -0.2259 -1.8895 -0.7294
  244MOL0     H32902   7.787   9.826   2.961  1.1485  0.4245 -1.6214
  244MOL0     H32903   7.990   9.760   2.833  2.6852 -2.6932 -0.7742
  244MOL0     H32904   8.297   9.654   3.065  0.5391  1.7178 -0.5717
  244MOL0     H32905   8.360   9.530   2.960  0.8710 -0.2768  2.0415
  244MOL0     H32906   8.267   9.775   2.843 -0.0028 -0.3297  2.1912
  244MOL0     H32907   8.408   9.804   2.931 -1.0414  1.3214 -1.2427
  244MOL0     H32908   8.541   9.630   2.786 -0.5201  0.3127  0.5184
  244MOL0     H32909   8.386   9.585   2.706 -1.4641  1.3527  0.2156
  244MOL0     H32910   8.356   9.809   2.619 -0.3005 -0.0982  0.8812
  244MOL0     H32911   8.482   9.726   2.540 -1.7922 -3.7373  0.7585
  244MOL0     H32912   8.516   9.929   2.762 -2.3231 -2.7168  1.4939
  244MOL0     H32913   8.548   9.937   2.589  0.5864  0.1876 -0.3248
  244MOL0     H32914   8.754   9.932   2.707 -0.9938 -1.0420 -0.3990
  244MOL0     H32915   8.715   9.786   2.792  0.0621 -0.2350  0.5778
  244MOL0     H32916   8.729   9.794   2.483  0.1935 -1.3247 -0.6677
  244MOL0     H32917   8.721   9.659   2.589  0.1580  0.5809 -0.3173
  244MOL0     H32918   8.960   9.705   2.504  2.0099  1.0633  0.6964
  244MOL0     H32919   8.948   9.873   2.558 -2.4370  1.3858 -0.8442
  244MOL0     H32920   8.093   9.495   3.150 -1.3536 -0.4271  2.2847
  244MOL0     H32921   7.889   9.551   3.272 -0.7118  2.9440  1.8006
  244MOL0     H32922   7.329   9.706   3.042  5.7933 -2.5042  0.1552
  244MOL0     H32923   7.122   9.756   3.194  0.4011 -1.2862 -0.7380
  244MOL0     H32924   6.633   9.488   4.406  1.1701 -1.0783  0.5506
  244MOL0     H32925   6.811   9.423   4.561 -3.4864  0.5046  1.9269
  244MOL0     H32926   7.192   9.406   4.668 -2.1118  0.7040  4.1791
  244MOL0     H32927   7.392   9.297   4.713 -3.7467  0.1106 -3.5551
  244MOL0     H32928   7.592   9.456   5.016  0.3921 -0.2333  0.0573
  244MOL0     H32929   7.737   9.520   4.945 -0.4611  0.0104 -1.0560
  244MOL0     H32930   7.713   9.238   4.922 -2.4995  3.1084 -2.5186
  244MOL0     H32931   7.746   9.296   5.098 -0.2240 -2.1415 -0.2447
  244MOL0     H32932   7.930   9.425   4.980  3.6037  1.0595 -2.8278
  244MOL0     H32933   7.904   9.322   4.841  1.2489  0.4021  1.1611
  244MOL0     H32934   7.981   9.118   4.962  1.3619 -1.7995  2.1002
  244MOL0     H32935   8.098   9.242   4.983  1.0201 -0.9797  0.6074
  244MOL0     H32936   8.027   9.197   5.373 -0.6318  1.3780 -0.2460
  244MOL0     H32937   7.567   9.676   4.818 -2.8548  3.4092 -0.9881
  244MOL0     H32938   7.286   9.872   4.752  0.6330  0.0932 -1.4138
  244MOL0     H32939   7.309   9.807   4.914  0.8606  0.2254  0.7585
  244MOL0     H32940   7.451   9.865   4.833  0.7009 -3.0464  1.2900
  245MOL0     O32941   2.317   7.820   2.770  0.3394 -0.0610  0.0049
  245MOL0     C32942   2.268   7.817   2.882  0.3846 -0.0894  0.2696
  245MOL0     O32943   2.291   7.908   2.979  0.7992  0.6883  0.0226
  245MOL0     C32944   2.399   7.993   2.980 -0.4158  0.2587 -0.4515
  245MOL0     C32945   2.513   7.990   2.894 -0.0949  0.0270  1.0651
  245MOL0     C32946   2.628   8.072   2.911  0.4396  0.9089 -0.0338
  245MOL0     C32947   2.622   8.164   3.017  0.0907  0.4021 -0.0929
  245MOL0     O32948   2.736   8.233   3.017  0.6262 -0.7092 -0.0171
  245MOL0     C32949   2.771   8.319   3.125 -0.0560  0.1882 -0.4610
  245MOL0     C32950   2.895   8.394   3.083 -0.6236  0.3086  0.2858
  245MOL0     C32951   3.014   8.307   3.080 -0.7968 -0.0928 -1.0293
  245MOL0     C32952   3.134   8.380   3.000 -0.3514  0.4700 -0.1510
  245MOL0     C32953   3.260   8.294   2.980 -0.5370 -0.0871 -0.8185
  245MOL0     C32954   3.369   8.368   2.899  0.3159 -0.2504  0.6737
  245MOL0     C32955   3.469   8.465   2.967 -0.5296  0.0581 -0.8333
  245MOL0     C32956   3.504   8.576   2.870 -0.0846 -0.3468  0.6222
  245MOL0     N32957   3.572   8.510   2.749 -0.4805  0.0646 -0.2145
  245MOL0     C32958   3.704   8.518   2.727  0.0464 -0.4701  0.3674
  245MOL0     C32959   3.731   8.446   2.617 -0.4103  0.3810  0.4156
  245MOL0     C32960   3.868   8.429   2.551  0.3028  0.9747 -0.0051
  245MOL0     C32961   3.924   8.541   2.471 -0.0514  0.1784  0.5419
  245MOL0     C32962   3.911   8.677   2.525 -1.2342  0.0223 -0.5865
  245MOL0     C32963   3.993   8.689   2.656  0.2475  0.8044  1.2751
  245MOL0     O32964   4.036   8.815   2.690  0.5250 -0.8439  0.1070
  245MOL0     C32965   4.139   8.806   2.780  0.4115  0.2066 -0.3259
  245MOL0     C32966   4.274   8.828   2.738  0.4957 -0.3897 -0.6466
  245MOL0     C32967   4.375   8.811   2.834 -0.4379 -0.9459  0.5196
  245MOL0     C32968   4.349   8.783   2.968  1.4012 -0.5780  0.5966
  245MOL0     C32969   4.458   8.775   3.067 -0.4264 -0.4803 -0.2227
  245MOL0     O32970   4.583   8.809   3.023 -0.3951  0.5338 -0.3237
  245MOL0     C32971   4.677   8.810   3.116  0.0026  0.1534 -0.1533
  245MOL0     C32972   4.780   8.709   3.118 -0.0961 -0.2764 -0.4609
  245MOL0     C32973   4.879   8.701   3.216  0.9393 -0.6401  0.0021
  245MOL0     C32974   4.877   8.799   3.315 -0.4483  0.9484 -0.6298
  245MOL0     O32975   4.975   8.779   3.407 -0.0306  0.5706  0.2592
  245MOL0     C32976   4.988   8.872   3.521  0.1862 -0.9277  0.7236
  245MOL0     C32977   5.121   8.842   3.590  0.2102 -0.6915  0.2412
  245MOL0     C32978   5.106   8.897   3.730  0.1666 -0.3220 -0.4901
  245MOL0     C32979   5.240   8.897   3.815 -0.2940  0.0107 -0.4914
  245MOL0     C32980   5.208   8.959   3.948 -0.3031 -0.6019 -0.4127
  245MOL0     C32981   5.331   8.950   4.028  1.0468 -0.0083 -0.7392
  245MOL0     C32982   5.337   9.043   4.154 -0.6739  0.2670 -0.5871
  245MOL0     C32983   5.413   8.963   4.265 -0.3692  0.2387 -0.2986
  245MOL0    Cl32984   5.575   8.948   4.220 -0.0348  0.1621  0.0558
  245MOL0     C32985   4.779   8.900   3.318  0.0737  0.2137  0.1049
  245MOL0     C32986   4.687   8.917   3.210 -1.0278  0.0430 -0.2734
  245MOL0     O32987   4.427   8.728   3.177 -0.0297  0.1413 -0.0079
  245MOL0     C32988   4.211   8.766   3.005 -0.4170  0.2591  0.0075
  245MOL0     C32989   4.107   8.784   2.916  0.0483  0.5763 -0.3888
  245MOL0     N32990   3.600   8.416   2.567  0.0316 -0.3620 -0.3968
  245MOL0     N32991   3.511   8.467   2.637  0.0530  0.2617 -0.1579
  245MOL0     C32992   2.513   8.157   3.109 -1.4174  0.5122  0.1724
  245MOL0     C32993   2.405   8.071   3.095 -0.4260 -0.7918 -0.3458
  245MOL0     C32994   2.162   7.712   2.922  0.4570  0.3310 -0.3354
  245MOL0     C32995   2.136   7.695   3.055  0.3589  0.0449  1.0203
  245MOL0     C32996   2.032   7.613   3.095  0.6366  0.4294 -0.7338
  245MOL0     C32997   1.961   7.534   3.007  0.3659 -0.0573  0.5725
  245MOL0     O32998   1.861   7.453   3.048 -0.2390  0.2391 -0.2619
  245MOL0     C32999   1.892   7.377   3.164 -0.2810  0.6256 -0.7804
  245MOL0     C33000   1.776   7.283   3.180  0.2251  0.3500  0.1655
  245MOL0     C33001   1.641   7.347   3.222  0.0803  0.6874  0.3529
  245MOL0     C33002   1.512   7.275   3.193  1.6980  0.1306 -0.7679
  245MOL0     C33003   1.503   7.137   3.235  0.1437  0.6486 -0.1614
  245MOL0     C33004   1.478   7.020   3.254 -0.2372 -0.5346 -0.0009
  245MOL0     C33005   1.992   7.546   2.869 -0.5431  1.6608 -0.5958
  245MOL0     C33006   2.093   7.631   2.822 -0.5885 -0.2095 -0.7729
  245MOL0     C33007   2.126   7.626   2.674 -0.4494  0.4112 -0.2571
  245MOL0     H33008   2.526   7.916   2.815 -0.5838 -0.4937  1.4642
  245MOL0     H33009   2.707   8.058   2.838 -0.4750 -0.8571 -0.7518
  245MOL0     H33010   2.694   8.395   3.140 -1.9703 -1.6062 -0.7583
  245MOL0     H33011   2.786   8.263   3.217  0.4198  1.7522  0.4626
  245MOL0     H33012   2.912   8.470   3.160  0.6179  1.6376 -1.2258
  245MOL0     H33013   2.886   8.438   2.984  2.6719 -2.3065 -1.4059
  245MOL0     H33014   3.000   8.203   3.048 -1.9024  0.0136 -0.9133
  245MOL0     H33015   3.046   8.305   3.184 -1.2806 -0.4413 -0.8836
  245MOL0     H33016   3.102   8.404   2.898 -0.5588  3.2479  0.4700
  245MOL0     H33017   3.167   8.477   3.039  1.7113  0.7651 -2.3427
  245MOL0     H33018   3.307   8.257   3.072  0.0283  0.7881 -0.7452
  245MOL0     H33019   3.229   8.208   2.922  0.3664 -0.6778 -0.4516
  245MOL0     H33020   3.438   8.290   2.869  1.1727 -0.2663  2.5501
  245MOL0     H33021   3.315   8.426   2.824 -1.2773  0.0194  1.9693
  245MOL0     H33022   3.559   8.405   2.984 -1.1494 -1.3011 -2.1512
  245MOL0     H33023   3.421   8.494   3.061 -1.9640 -1.6322 -0.9968
  245MOL0     H33024   3.411   8.620   2.832  0.6078 -2.0647 -3.6315
  245MOL0     H33025   3.558   8.659   2.916  1.9986 -0.7755 -0.8954
  245MOL0     H33026   3.768   8.570   2.798 -1.5498 -0.9072  2.2255
  245MOL0     H33027   3.934   8.405   2.635  2.5526 -0.6268 -2.0764
  245MOL0     H33028   3.870   8.338   2.489  0.3551  0.3523  0.8888
  245MOL0     H33029   4.029   8.514   2.454  0.0327  1.2455 -0.7319
  245MOL0     H33030   3.877   8.549   2.373  1.9140 -0.9295 -0.5548
  245MOL0     H33031   3.806   8.702   2.544 -1.6120 -2.4775  1.2052
  245MOL0     H33032   3.948   8.744   2.448 -1.8990  0.1883 -0.7661
  245MOL0     H33033   4.074   8.618   2.642 -0.7077 -0.3324  1.3790
  245MOL0     H33034   3.932   8.661   2.743  1.1328 -3.0495  0.8145
  245MOL0     H33035   4.292   8.849   2.633 -0.6182  2.4319 -0.3394
  245MOL0     H33036   4.473   8.822   2.789  0.9179 -3.0950  2.7006
  245MOL0     H33037   4.793   8.627   3.048 -0.5961 -1.6130  0.9550
  245MOL0     H33038   4.955   8.623   3.214 -0.0257 -1.5961 -0.1141
  245MOL0     H33039   4.994   8.974   3.483  1.2474 -1.6703 -1.2771
  245MOL0     H33040   4.898   8.863   3.582 -2.2365  1.9087 -2.0527
  245MOL0     H33041   5.138   8.734   3.591  1.2117 -0.5455  1.7883
  245MOL0     H33042   5.199   8.901   3.541 -0.2182 -0.2654  0.0567
  245MOL0     H33043   5.078   9.003   3.729 -0.4309 -0.3572  2.6469
  245MOL0     H33044   5.026   8.845   3.784 -0.6006  2.1193  0.9038
  245MOL0     H33045   5.322   8.959   3.777  0.0574 -0.7023 -0.9084
  245MOL0     H33046   5.289   8.800   3.821  1.9659  1.1795  1.6027
  245MOL0     H33047   5.124   8.903   3.993 -2.2555 -1.6283 -4.8420
  245MOL0     H33048   5.181   9.063   3.932  0.7650  0.3207  2.9179
  245MOL0     H33049   5.355   8.845   4.048  3.5836 -0.2106 -3.9256
  245MOL0     H33050   5.415   8.989   3.969  1.4395  0.7989  0.3254
  245MOL0     H33051   5.237   9.071   4.191  0.2687  1.2150  1.3845
  245MOL0     H33052   5.386   9.136   4.125 -1.2953  1.2631  1.4069
  245MOL0     H33053   5.418   9.005   4.365  0.3904 -0.2855 -0.0992
  245MOL0     H33054   5.360   8.870   4.288 -1.1323  0.6131 -0.5270
  245MOL0     H33055   4.760   8.973   3.396 -3.0134 -1.5295  1.1786
  245MOL0     H33056   4.611   8.994   3.207 -2.1130 -1.0450 -2.5204
  245MOL0     H33057   4.192   8.731   3.106  2.6335 -1.4300  0.1337
  245MOL0     H33058   4.007   8.768   2.954 -0.2730  0.4572 -1.2649
  245MOL0     H33059   2.511   8.234   3.186  1.4361  1.9951 -1.1034
  245MOL0     H33060   2.333   8.060   3.176 -1.6554 -0.8011 -1.4146
  245MOL0     H33061   2.193   7.750   3.131  0.2944  0.9958  0.3994
  245MOL0     H33062   2.011   7.599   3.201 -0.4182 -2.1443 -1.1979
  245MOL0     H33063   1.889   7.440   3.253  1.7599 -0.3747  0.0592
  245MOL0     H33064   1.986   7.321   3.167 -1.0735 -0.7083  0.0727
  245MOL0     H33065   1.805   7.199   3.244 -0.2245  0.3313  0.3449
  245MOL0     H33066   1.771   7.241   3.079 -1.1222 -0.1176  0.4031
  245MOL0     H33067   1.633   7.436   3.159 -0.2633 -0.0391 -0.6492
  245MOL0     H33068   1.639   7.368   3.330 -2.3834  0.2158  0.4470
  245MOL0     H33069   1.427   7.334   3.230  0.8473 -1.3045 -0.3580
  245MOL0     H33070   1.503   7.267   3.084 -1.6323 -0.5182 -0.5657
  245MOL0     H33071   1.455   6.916   3.261  1.3472 -1.1472 -2.3887
  245MOL0     H33072   1.938   7.465   2.821  0.9425  1.2129 -1.5884
  245MOL0     H33073   2.234   7.608   2.666 -0.5654 -0.4793  0.1141
  245MOL0     H33074   2.070   7.545   2.626 -0.3182  0.6426 -0.8011
  245MOL0     H33075   2.101   7.725   2.634 -1.4294  1.4101  2.5889
  246MOL0     O33076   1.856   5.859   9.592 -0.2121 -0.5248 -0.0365
  246MOL0     C33077   1.903   5.963   9.632  0.3394 -0.3109 -0.3730
  246MOL0     O33078   2.046   5.996   9.645 -0.3158  0.0816  0.0433
  246MOL0     C33079   2.141   5.892   9.640  0.9036  0.1040 -0.2742
  246MOL0     C33080   2.269   5.912   9.580  0.2911  0.6335  1.0578
  246MOL0     C33081   2.367   5.814   9.584 -0.3878  0.6584 -0.4546
  246MOL0     C33082   2.343   5.689   9.636  0.8057 -0.2190 -0.4040
  246MOL0     O33083   2.423   5.584   9.653  0.1765  0.1433 -0.3989
  246MOL0     C33084   2.547   5.581   9.580  0.5076 -0.4608  0.2385
  246MOL0     C33085   2.610   5.439   9.591 -0.6269 -1.1042 -0.4404
  246MOL0     C33086   2.760   5.451   9.572  0.4946  0.1994 -0.5964
  246MOL0     C33087   2.833   5.322   9.580 -0.3061 -1.0360  0.0798
  246MOL0     C33088   2.980   5.340   9.535  0.4155  0.0591  0.2480
  246MOL0     C33089   3.055   5.204   9.530 -0.2653  0.3911  0.4618
  246MOL0     C33090   3.192   5.227   9.453 -0.3857  0.4903  0.5365
  246MOL0     C33091   3.303   5.296   9.523  1.2245 -0.7436  0.4497
  246MOL0     N33092   3.333   5.239   9.649 -0.3328  0.2208 -0.4116
  246MOL0     C33093   3.436   5.153   9.675  0.6229 -0.0664 -0.0960
  246MOL0     C33094   3.455   5.163   9.810 -0.1907  0.1171 -0.3248
  246MOL0     C33095   3.567   5.089   9.895 -0.4425 -0.4630 -0.7236
  246MOL0     C33096   3.661   5.186   9.970  0.8643 -0.4195 -0.8511
  246MOL0     C33097   3.591   5.285  10.064 -0.0206  0.5512  0.1155
  246MOL0     C33098   3.688   5.365  10.146 -0.0723  0.8149  0.6328
  246MOL0     O33099   3.780   5.424  10.052 -0.4864 -0.1345 -0.6995
  246MOL0     C33100   3.887   5.475  10.119 -0.6672  0.3310 -1.1586
  246MOL0     C33101   4.007   5.409  10.136  0.1858 -0.1710  0.6757
  246MOL0     C33102   4.126   5.475  10.157  0.4621 -0.5667  1.0394
  246MOL0     C33103   4.118   5.614  10.180 -0.6478 -0.7215 -0.1274
  246MOL0     C33104   4.236   5.684  10.255  0.1118  0.1161  0.0627
  246MOL0     O33105   4.344   5.610  10.299  0.0334  0.0898 -0.2551
  246MOL0     C33106   4.435   5.673  10.378  0.1699  0.2706 -0.3372
  246MOL0     C33107   4.393   5.750  10.487  0.4308 -0.2875  1.4291
  246MOL0     C33108   4.481   5.826  10.562 -0.0655  0.1818  0.5405
  246MOL0     C33109   4.615   5.820  10.536  0.3288  0.1412  0.1362
  246MOL0     O33110   4.716   5.871  10.619 -0.0380 -0.6677  0.1078
  246MOL0     C33111   4.740   6.007  10.593 -0.0406 -0.5738 -1.1739
  246MOL0     C33112   4.782   6.095  10.711 -0.1692  0.2788 -0.5325
  246MOL0     C33113   4.890   6.016  10.796  0.2215 -0.4063  0.2710
  246MOL0     C33114   4.937   6.104  10.910  1.0933 -0.0456  0.3562
  246MOL0     C33115   4.828   6.130  11.020  1.1408  0.1969  0.4029
  246MOL0     C33116   4.888   6.206  11.142  0.0972 -0.2466  0.8726
  246MOL0     C33117   4.769   6.224  11.253  0.1548 -0.0785  0.7575
  246MOL0     C33118   4.641   6.292  11.197 -0.1069  0.3871 -0.4020
  246MOL0    Cl33119   4.525   6.179  11.131 -0.4786 -0.5432  0.2206
  246MOL0     C33120   4.659   5.739  10.437  0.4632 -0.0469 -0.4160
  246MOL0     C33121   4.570   5.667  10.357  0.7813 -0.2083  0.4539
  246MOL0     O33122   4.235   5.808  10.255 -0.4412 -0.4864 -0.5160
  246MOL0     C33123   4.003   5.686  10.156  0.0498  0.4648  0.0440
  246MOL0     C33124   3.885   5.617  10.128 -0.3398  0.3387 -0.1394
  246MOL0     N33125   3.358   5.245   9.860 -0.4916  0.8658 -0.5231
  246MOL0     N33126   3.289   5.298   9.760  0.0808  0.3003 -0.3513
  246MOL0     C33127   2.213   5.661   9.687 -0.0066 -0.5537 -0.8909
  246MOL0     C33128   2.117   5.765   9.692 -0.2507 -0.2645 -0.4835
  246MOL0     C33129   1.803   6.071   9.663  0.5335 -0.6295  1.1352
  246MOL0     C33130   1.861   6.190   9.689 -0.1492  0.9716 -0.1153
  246MOL0     C33131   1.791   6.306   9.712  0.4977  0.5639  0.2953
  246MOL0     C33132   1.651   6.310   9.715 -0.6540  0.4069  0.7221
  246MOL0     O33133   1.589   6.425   9.738  0.3654  0.3048  0.2178
  246MOL0     C33134   1.488   6.427   9.841  0.3487 -0.2508  0.4619
  246MOL0     C33135   1.557   6.404   9.976 -0.3950 -0.4501  0.1535
  246MOL0     C33136   1.456   6.406  10.089 -0.2007 -0.2454  0.6335
  246MOL0     C33137   1.425   6.540  10.150  0.2751  0.0045 -0.1802
  246MOL0     C33138   1.358   6.632  10.057  0.3374  0.1649  0.1761
  246MOL0     C33139   1.275   6.706  10.002  0.1956 -0.7045  0.1041
  246MOL0     C33140   1.591   6.184   9.701 -0.4146 -0.2420 -0.0157
  246MOL0     C33141   1.662   6.065   9.668  0.0156 -0.1674  0.3103
  246MOL0     C33142   1.580   5.943   9.648 -0.0630  0.0820 -0.2526
  246MOL0     H33143   2.282   6.005   9.526 -0.9046  0.4674  0.4611
  246MOL0     H33144   2.467   5.837   9.547  0.0301  0.7802  0.7018
  246MOL0     H33145   2.535   5.614   9.477 -0.6036  0.8228  0.7557
  246MOL0     H33146   2.619   5.651   9.623 -0.5171 -0.0565  1.3499
  246MOL0     H33147   2.570   5.378   9.511 -0.5961 -1.1253 -0.4398
  246MOL0     H33148   2.578   5.388   9.682 -0.7466  1.9648  1.4103
  246MOL0     H33149   2.799   5.526   9.641 -1.4966 -1.9479  3.1747
  246MOL0     H33150   2.761   5.491   9.469 -3.2645 -2.1521 -1.7582
  246MOL0     H33151   2.834   5.289   9.684 -2.5203  2.2594  1.3364
  246MOL0     H33152   2.781   5.240   9.530 -0.9221  0.7762 -2.4355
  246MOL0     H33153   2.977   5.385   9.435  0.5185 -1.3605 -0.4146
  246MOL0     H33154   3.023   5.409   9.608  2.2996  0.6663 -1.3379
  246MOL0     H33155   3.075   5.169   9.632  1.3832 -2.6759 -0.7890
  246MOL0     H33156   2.994   5.124   9.487 -0.0226  0.9436 -0.9513
  246MOL0     H33157   3.185   5.278   9.357  3.1730  1.7254  0.8088
  246MOL0     H33158   3.232   5.128   9.428 -0.3547 -0.0621  2.5452
  246MOL0     H33159   3.387   5.293   9.454  1.3504 -0.6208  0.5968
  246MOL0     H33160   3.269   5.398   9.542  0.8078 -0.7131 -0.4135
  246MOL0     H33161   3.486   5.084   9.608  0.8119  0.4492 -0.4923
  246MOL0     H33162   3.533   5.019   9.971 -0.4992  0.3279 -0.0050
  246MOL0     H33163   3.627   5.027   9.828  0.0254  1.1087 -1.8418
  246MOL0     H33164   3.740   5.130  10.021  1.5156 -0.2704 -1.6865
  246MOL0     H33165   3.711   5.240   9.889  1.4776 -2.4706 -1.8973
  246MOL0     H33166   3.528   5.232  10.136  1.7420  1.0891  2.1554
  246MOL0     H33167   3.538   5.362  10.009  0.2179 -0.1089 -1.0821
  246MOL0     H33168   3.749   5.306  10.214  0.5564  1.7507  0.8950
  246MOL0     H33169   3.643   5.440  10.212 -0.5576 -0.8856  2.3167
  246MOL0     H33170   4.016   5.306  10.100  0.4616  0.6095 -1.6447
  246MOL0     H33171   4.224   5.429  10.165  1.7596  1.8058 -0.1661
  246MOL0     H33172   4.287   5.769  10.506 -0.2191  2.0406 -3.0710
  246MOL0     H33173   4.443   5.875  10.651 -1.3594 -1.4283  0.9097
  246MOL0     H33174   4.825   6.020  10.526  1.3464  1.4032  0.8278
  246MOL0     H33175   4.645   6.046  10.555 -0.2540  0.1633  0.0293
  246MOL0     H33176   4.808   6.197  10.680 -3.3069  0.2494 -4.0374
  246MOL0     H33177   4.699   6.115  10.779  0.7181 -0.2663  0.7367
  246MOL0     H33178   4.844   5.926  10.839  0.0328 -0.1753  0.5543
  246MOL0     H33179   4.977   5.986  10.737  0.6245 -1.0360  1.1653
  246MOL0     H33180   4.980   6.195  10.867  0.0186  0.7367  0.8905
  246MOL0     H33181   5.019   6.057  10.964  1.1147  1.5587  1.7857
  246MOL0     H33182   4.770   6.041  11.044  0.2010  0.1607 -1.8130
  246MOL0     H33183   4.761   6.208  10.982 -0.4660 -0.8517  1.0110
  246MOL0     H33184   4.976   6.148  11.171 -0.4772 -1.3654  0.4439
  246MOL0     H33185   4.929   6.300  11.105  1.0237 -1.0230 -0.1746
  246MOL0     H33186   4.802   6.283  11.340 -0.1188  3.6368 -1.4328
  246MOL0     H33187   4.742   6.125  11.292 -2.3750  0.3447  0.2520
  246MOL0     H33188   4.584   6.348  11.272 -1.8332  0.1842 -1.4906
  246MOL0     H33189   4.673   6.361  11.119  2.2611 -1.1003 -0.8561
  246MOL0     H33190   4.766   5.746  10.420  0.7163 -0.1380  1.0244
  246MOL0     H33191   4.598   5.611  10.268 -0.1101 -0.0027  0.0389
  246MOL0     H33192   4.000   5.793  10.168 -1.4567  0.2079  2.7211
  246MOL0     H33193   3.793   5.674  10.122  0.2577  1.5462  1.5702
  246MOL0     H33194   2.179   5.565   9.726  1.2431 -0.6825 -0.0576
  246MOL0     H33195   2.020   5.742   9.737  0.4660  1.0759  1.9517
  246MOL0     H33196   1.970   6.194   9.688  0.0831 -2.5370 -0.0721
  246MOL0     H33197   1.847   6.398   9.722 -0.5884  1.2516  0.2165
  246MOL0     H33198   1.417   6.345   9.835  0.6750 -0.5251  0.3209
  246MOL0     H33199   1.431   6.520   9.848 -0.5190 -0.7660  0.2980
  246MOL0     H33200   1.629   6.487   9.976 -1.9620  0.9515 -0.1842
  246MOL0     H33201   1.611   6.309   9.985  0.1380 -0.1484  0.1662
  246MOL0     H33202   1.498   6.349  10.173 -0.8401  0.3795  1.3958
  246MOL0     H33203   1.370   6.351  10.050 -0.7407  1.2587 -0.3828
  246MOL0     H33204   1.363   6.520  10.237 -0.6490  2.6852 -0.1331
  246MOL0     H33205   1.519   6.581  10.188  1.2160 -1.7869 -0.4257
  246MOL0     H33206   1.203   6.754   9.939  0.5643 -2.9159 -2.1910
  246MOL0     H33207   1.483   6.178   9.697 -0.3870 -0.2573 -1.5690
  246MOL0     H33208   1.598   5.904   9.547 -1.8736  1.3793 -1.1144
  246MOL0     H33209   1.615   5.866   9.717  0.0964  0.4483  0.0747
  246MOL0     H33210   1.471   5.953   9.650 -0.2504 -1.6630 -0.2540
  247MOL0     O33211  10.359   0.361   3.453 -0.4028  0.2794 -0.6674
  247MOL0     C33212  10.260   0.349   3.380 -0.3803 -0.2073  0.3657
  247MOL0     O33213  10.270   0.357   3.242  0.9100  0.1337  0.0649
  247MOL0     C33214  10.391   0.393   3.193 -1.4013 -0.3154  0.1150
  247MOL0     C33215  10.438   0.529   3.212  0.2891 -0.1015  0.8929
  247MOL0     C33216  10.553   0.569   3.162 -0.4058 -0.4029  0.2963
  247MOL0     C33217  10.648   0.483   3.104  0.4741  0.5280  0.2460
  247MOL0     O33218  10.775   0.513   3.065  0.4721  0.2592 -0.0540
  247MOL0     C33219  10.850   0.600   3.149  0.5583  0.1875  0.4483
  247MOL0     C33220  10.997   0.607   3.120  0.2829  0.1515 -0.2958
  247MOL0     C33221  11.074   0.690   3.228 -0.5832  0.2830 -0.0925
  247MOL0     C33222  11.226   0.642   3.224  0.0145  0.0532  0.2105
  247MOL0     C33223  11.319   0.746   3.288  0.2492 -0.3273 -0.3780
  247MOL0     C33224  11.463   0.689   3.292  0.1210  0.2960  0.4728
  247MOL0     C33225  11.557   0.792   3.365  0.1416 -0.3603 -0.2537
  247MOL0     C33226  11.550   0.786   3.518 -0.4606  0.2382 -0.5517
  247MOL0     N33227  11.668   0.850   3.582  0.9345  0.2259 -0.4070
  247MOL0     C33228  11.789   0.786   3.615  0.1477  0.1243 -0.0672
  247MOL0     C33229  11.846   0.879   3.694 -0.9852  0.7903 -0.1760
  247MOL0     C33230  11.984   0.879   3.755 -0.3103 -0.2209 -0.4971
  247MOL0     C33231  12.095   0.885   3.652  0.1537 -0.9848 -0.2417
  247MOL0     C33232  12.098   1.009   3.562  0.7116 -0.1521 -0.0932
  247MOL0     C33233  12.124   1.137   3.641 -0.3029 -0.2425  0.4896
  247MOL0     O33234  12.245   1.119   3.720  0.2253  0.5320  0.4997
  247MOL0     C33235  12.372   1.142   3.667  0.7529  0.3606  0.1072
  247MOL0     C33236  12.469   1.117   3.760 -0.1102 -0.3291 -0.2027
  247MOL0     C33237  12.600   1.158   3.739  0.3179 -0.2075  0.3772
  247MOL0     C33238  12.639   1.218   3.615 -0.7409 -0.9803  0.4856
  247MOL0     C33239  12.777   1.263   3.587 -0.9357  0.3460  0.3256
  247MOL0     O33240  12.860   1.249   3.687 -0.5333 -0.2706  0.1620
  247MOL0     C33241  12.999   1.282   3.681  0.4928  0.4988 -0.5476
  247MOL0     C33242  13.065   1.276   3.803 -0.1631 -0.0067 -0.7584
  247MOL0     C33243  13.206   1.299   3.812 -0.7420 -0.1192 -0.0672
  247MOL0     C33244  13.283   1.346   3.706  0.4410  0.0863 -0.3671
  247MOL0     O33245  13.421   1.376   3.732 -0.0744  0.1650  0.2615
  247MOL0     C33246  13.511   1.368   3.619 -0.0332 -0.8293 -0.4893
  247MOL0     C33247  13.645   1.330   3.679  0.0039 -0.5402  0.0088
  247MOL0     C33248  13.738   1.302   3.564 -0.1371 -0.7164 -0.9283
  247MOL0     C33249  13.867   1.235   3.620  0.3350 -0.2955 -0.2001
  247MOL0     C33250  13.964   1.185   3.517  0.1009 -1.0870 -0.2350
  247MOL0     C33251  13.999   1.293   3.412 -0.6039  0.0288  0.4248
  247MOL0     C33252  14.058   1.429   3.461 -1.0099 -0.0030  0.1379
  247MOL0     C33253  14.204   1.413   3.500 -0.1633  0.6596  1.0207
  247MOL0    Cl33254  14.254   1.562   3.568  0.4563 -0.5086  0.3899
  247MOL0     C33255  13.217   1.344   3.578 -0.1620  0.5565  0.9209
  247MOL0     C33256  13.072   1.311   3.571 -0.2857 -0.7148  0.2720
  247MOL0     O33257  12.796   1.319   3.481 -0.5426  0.2210  0.6601
  247MOL0     C33258  12.539   1.241   3.512 -0.1027  0.0645 -0.1614
  247MOL0     C33259  12.403   1.206   3.544 -0.4554 -0.0246 -0.7423
  247MOL0     N33260  11.766   0.988   3.708 -0.4217  0.1774 -0.0652
  247MOL0     N33261  11.654   0.967   3.656  0.0780  0.1568  0.5345
  247MOL0     C33262  10.611   0.345   3.099 -1.0505  0.5079  0.6205
  247MOL0     C33263  10.485   0.308   3.146  0.4631  0.4203 -0.6521
  247MOL0     C33264  10.136   0.308   3.448 -0.5397 -0.6602  0.3176
  247MOL0     C33265  10.102   0.369   3.573 -0.1066  0.5156  0.3036
  247MOL0     C33266   9.988   0.325   3.642 -0.9635 -0.2794 -0.5341
  247MOL0     C33267   9.902   0.232   3.586  0.5942 -0.4883  1.5378
  247MOL0     O33268   9.785   0.221   3.653 -0.3415  0.2309 -0.4685
  247MOL0     C33269   9.676   0.163   3.587  0.6504  0.2570  0.0704
  247MOL0     C33270   9.547   0.223   3.650 -0.2714  0.8093 -0.1682
  247MOL0     C33271   9.414   0.160   3.611  0.0575 -0.2761 -0.3520
  247MOL0     C33272   9.365   0.205   3.481  0.8980 -0.1868  0.2653
  247MOL0     C33273   9.229   0.150   3.451  0.1963 -0.6222  1.0184
  247MOL0     C33274   9.123   0.108   3.425  0.3114  0.0483  0.0544
  247MOL0     C33275   9.931   0.176   3.461  0.8308 -0.4285 -0.5229
  247MOL0     C33276  10.045   0.213   3.393  0.0006  0.5193  0.1464
  247MOL0     C33277  10.074   0.134   3.264 -0.8127 -0.3631  0.5113
  247MOL0     H33278  10.366   0.594   3.260 -0.9516 -1.7180  1.2968
  247MOL0     H33279  10.575   0.676   3.164 -0.0422 -0.3840 -1.9840
  247MOL0     H33280  10.817   0.704   3.148 -0.3066 -0.0743  0.9841
  247MOL0     H33281  10.842   0.572   3.255  1.3384  2.8104  1.2928
  247MOL0     H33282  11.007   0.667   3.028 -3.3336  2.7588  0.7705
  247MOL0     H33283  11.034   0.504   3.117 -0.6169 -0.2499  1.2412
  247MOL0     H33284  11.038   0.668   3.328  1.8657 -1.7444  0.4416
  247MOL0     H33285  11.072   0.797   3.203 -0.9184  0.5053  0.8500
  247MOL0     H33286  11.217   0.548   3.279 -3.4443 -0.5401 -1.0933
  247MOL0     H33287  11.251   0.636   3.118 -2.2136  2.9746 -0.6324
  247MOL0     H33288  11.323   0.840   3.232  1.3839  1.0413  1.8578
  247MOL0     H33289  11.278   0.761   3.388  2.7068 -1.5760  0.9103
  247MOL0     H33290  11.470   0.591   3.340  3.1757  0.9293  1.5132
  247MOL0     H33291  11.493   0.677   3.187 -1.4193  0.9687 -0.0699
  247MOL0     H33292  11.530   0.890   3.325  0.2666 -0.9285 -1.8298
  247MOL0     H33293  11.661   0.777   3.334 -0.2450  1.5572 -2.9079
  247MOL0     H33294  11.451   0.823   3.547  0.4392  3.3370 -1.0838
  247MOL0     H33295  11.560   0.678   3.535  0.5415  0.3079 -0.6505
  247MOL0     H33296  11.823   0.688   3.585 -0.9676 -0.4934  0.5952
  247MOL0     H33297  11.992   0.969   3.816 -0.0917  0.3434 -1.3345
  247MOL0     H33298  11.995   0.785   3.810  0.0842 -2.4536 -4.0165
  247MOL0     H33299  12.184   0.872   3.713 -1.3788 -0.2980  2.3011
  247MOL0     H33300  12.093   0.790   3.598 -0.1437 -1.5170  0.6903
  247MOL0     H33301  12.001   1.018   3.512 -0.6496  0.9780  2.5453
  247MOL0     H33302  12.166   1.006   3.476  0.7738  0.8649 -0.0852
  247MOL0     H33303  12.036   1.173   3.695 -0.3007  0.7990 -0.1688
  247MOL0     H33304  12.143   1.215   3.567 -1.4947 -3.0517 -3.0711
  247MOL0     H33305  12.434   1.087   3.858 -1.6615  0.6158 -0.4348
  247MOL0     H33306  12.665   1.148   3.825  1.9334  0.7183 -0.6899
  247MOL0     H33307  13.003   1.257   3.889 -1.8264  2.0013 -1.4437
  247MOL0     H33308  13.257   1.292   3.907 -2.7297 -0.3357  1.0487
  247MOL0     H33309  13.476   1.302   3.539  4.2898 -0.3222 -3.1135
  247MOL0     H33310  13.523   1.466   3.574 -1.1610 -0.7161 -0.5532
  247MOL0     H33311  13.687   1.418   3.728  2.5426 -1.1030 -1.0124
  247MOL0     H33312  13.648   1.249   3.753 -1.0232  1.2627  2.1357
  247MOL0     H33313  13.702   1.226   3.493  2.5438 -1.3038 -1.8109
  247MOL0     H33314  13.761   1.400   3.519 -1.2066  0.3147  0.6853
  247MOL0     H33315  13.841   1.147   3.678  1.2918 -0.6488 -0.3001
  247MOL0     H33316  13.918   1.309   3.682  0.1425  0.9675 -1.4714
  247MOL0     H33317  13.936   1.092   3.465 -1.5741 -0.5840 -0.2843
  247MOL0     H33318  14.051   1.145   3.570 -0.3411  0.2898  1.6327
  247MOL0     H33319  14.056   1.245   3.332 -0.5582  4.3757 -2.4819
  247MOL0     H33320  13.912   1.322   3.354 -0.1240  0.8190  0.0986
  247MOL0     H33321  13.995   1.466   3.543 -0.4969 -0.1515  0.6020
  247MOL0     H33322  14.047   1.506   3.384 -0.5644  0.9167  0.9779
  247MOL0     H33323  14.213   1.332   3.574  0.2230 -1.7848 -1.5371
  247MOL0     H33324  14.265   1.377   3.417 -3.7523 -2.2219 -0.6499
  247MOL0     H33325  13.263   1.382   3.488  2.9023 -2.1985  1.0984
  247MOL0     H33326  13.033   1.305   3.471  0.2468  0.1020  0.0035
  247MOL0     H33327  12.553   1.313   3.431  1.2674  0.8563  0.7454
  247MOL0     H33328  12.333   1.275   3.498  2.8904  2.5730 -2.3995
  247MOL0     H33329  10.679   0.266   3.071 -0.4257 -0.2867  3.9402
  247MOL0     H33330  10.462   0.202   3.139  0.4770  0.3891 -0.2761
  247MOL0     H33331  10.168   0.441   3.620  1.2855 -0.9615  0.7161
  247MOL0     H33332   9.973   0.369   3.740  1.9460  1.0473 -0.5787
  247MOL0     H33333   9.675   0.055   3.603  3.0895 -0.2798 -2.6433
  247MOL0     H33334   9.664   0.189   3.482 -0.3476 -0.0599  0.0922
  247MOL0     H33335   9.544   0.332   3.640 -3.1909  0.8325  0.1597
  247MOL0     H33336   9.545   0.216   3.759  1.0012 -0.8285 -0.1987
  247MOL0     H33337   9.337   0.194   3.681  0.8314 -1.9455  1.4063
  247MOL0     H33338   9.427   0.051   3.617  1.1672 -0.1483 -0.2786
  247MOL0     H33339   9.351   0.314   3.476 -1.8899 -0.5147 -0.4783
  247MOL0     H33340   9.440   0.184   3.404  1.5993  0.7483  0.6677
  247MOL0     H33341   9.024   0.069   3.415  0.3663 -0.0700 -0.0229
  247MOL0     H33342   9.872   0.098   3.413 -0.2990  0.5012 -0.6709
  247MOL0     H33343  10.177   0.137   3.225 -1.5419 -0.8827 -1.5682
  247MOL0     H33344  10.055   0.026   3.271 -0.5292 -0.7577 -3.1325
  247MOL0     H33345  10.011   0.168   3.182 -3.7970 -1.3219  2.2425
  248MOL0     O33346  10.398   9.179  10.191  0.0803 -0.5663 -0.2026
  248MOL0     C33347  10.345   9.262  10.264  0.1679  0.6143  0.0106
  248MOL0     O33348  10.418   9.332  10.358  0.1376 -0.3638  0.2034
  248MOL0     C33349  10.541   9.294  10.395 -0.9064  0.6522  0.5855
  248MOL0     C33350  10.648   9.350  10.324 -0.2315 -0.0230  0.1983
  248MOL0     C33351  10.772   9.293  10.339  0.2901  0.1384  0.7876
  248MOL0     C33352  10.790   9.181  10.426 -0.1404  0.5051  0.6588
  248MOL0     O33353  10.913   9.116  10.424 -1.0948  0.2153 -0.1720
  248MOL0     C33354  11.007   9.139  10.321  0.4877  0.1750 -0.2433
  248MOL0     C33355  11.099   9.022  10.341  0.3430  0.7010  0.9506
  248MOL0     C33356  11.152   9.014  10.491  0.2657 -0.5677  0.7580
  248MOL0     C33357  11.246   8.898  10.505  1.0431  0.1185  0.1990
  248MOL0     C33358  11.301   8.915  10.655  0.3847  0.0046 -1.0150
  248MOL0     C33359  11.375   8.789  10.703 -0.4955 -0.5307  0.1324
  248MOL0     C33360  11.476   8.823  10.825  1.5043  0.2857 -0.0451
  248MOL0     C33361  11.562   8.701  10.857  0.3978 -1.1972 -0.1070
  248MOL0     N33362  11.648   8.651  10.753  0.4187 -0.0222  0.1664
  248MOL0     C33363  11.759   8.713  10.712  0.3337 -0.1527  0.3429
  248MOL0     C33364  11.799   8.638  10.604  0.7803  0.7426 -0.4168
  248MOL0     C33365  11.922   8.675  10.530  0.2158 -0.2333  1.1009
  248MOL0     C33366  11.992   8.559  10.455  0.3208 -0.7967  0.5376
  248MOL0     C33367  12.083   8.480  10.543  1.3856 -0.0471 -0.1302
  248MOL0     C33368  12.113   8.350  10.483 -0.3886  0.4029 -0.1943
  248MOL0     O33369  12.187   8.370  10.372  0.3836 -0.6461  0.4378
  248MOL0     C33370  12.321   8.360  10.354 -0.1371 -1.0511  0.1100
  248MOL0     C33371  12.408   8.392  10.454  0.4575 -0.4905 -0.6035
  248MOL0     C33372  12.540   8.383  10.449 -0.1885 -0.1793 -1.1377
  248MOL0     C33373  12.596   8.346  10.330  0.4566 -0.5143  0.1445
  248MOL0     C33374  12.742   8.350  10.318  0.4193  0.5006  0.5662
  248MOL0     O33375  12.789   8.385  10.194  0.7465  0.2529  0.2022
  248MOL0     C33376  12.915   8.435  10.188 -1.4018 -0.9137  0.2297
  248MOL0     C33377  12.962   8.552  10.257  0.0187  0.2077 -0.2481
  248MOL0     C33378  13.100   8.586  10.241  0.2945 -0.1831 -0.4637
  248MOL0     C33379  13.185   8.503  10.162  0.1807 -0.8144  0.9495
  248MOL0     O33380  13.318   8.525  10.133 -0.7231  0.4812  0.3703
  248MOL0     C33381  13.388   8.643  10.184 -0.1635  0.0997 -1.2365
  248MOL0     C33382  13.513   8.668  10.094  0.2290 -0.5107  0.1684
  248MOL0     C33383  13.585   8.796  10.136 -0.3732 -0.3861  0.1098
  248MOL0     C33384  13.700   8.820  10.046 -0.4024 -0.0432  0.3372
  248MOL0     C33385  13.755   8.956  10.071  0.3052 -0.1766  0.7365
  248MOL0     C33386  13.876   8.975   9.976  0.2944  0.3099 -0.3060
  248MOL0     C33387  13.952   9.108   9.991  0.2799 -0.7174  0.7710
  248MOL0     C33388  13.872   9.231   9.938 -0.1773  0.0914  0.1410
  248MOL0    Cl33389  13.838   9.198   9.765  0.4556 -0.0433  0.1293
  248MOL0     C33390  13.132   8.393  10.096 -0.3335 -0.7887 -0.6788
  248MOL0     C33391  13.001   8.363  10.104  0.1745 -0.4845 -0.4074
  248MOL0     O33392  12.818   8.319  10.415 -0.0963  0.0499  0.2391
  248MOL0     C33393  12.511   8.312  10.218 -0.2335  0.2390 -0.4701
  248MOL0     C33394  12.371   8.323  10.225 -0.1599  0.1453  0.0399
  248MOL0     N33395  11.712   8.533  10.590 -0.3791  0.3815  0.3849
  248MOL0     N33396  11.617   8.539  10.684 -0.2408  0.2239  0.1556
  248MOL0     C33397  10.690   9.145  10.511  0.2644  0.3640 -1.1311
  248MOL0     C33398  10.565   9.189  10.488  0.5673  0.6568 -0.0401
  248MOL0     C33399  10.209   9.306  10.227  0.3507  0.6134  0.2734
  248MOL0     C33400  10.166   9.433  10.263 -0.2788 -0.0772  0.1505
  248MOL0     C33401  10.055   9.503  10.211 -0.4855 -0.4242 -0.0558
  248MOL0     C33402   9.971   9.439  10.125 -0.9466  1.3719  0.6320
  248MOL0     O33403   9.885   9.508  10.055  0.9406 -0.4514 -0.2121
  248MOL0     C33404   9.743   9.471  10.068 -0.4598 -0.4211  0.2480
  248MOL0     C33405   9.671   9.497   9.935 -0.5148 -0.3398 -0.0046
  248MOL0     C33406   9.528   9.436   9.936 -0.7591  0.8323 -0.2315
  248MOL0     C33407   9.508   9.334   9.819 -0.3916  0.5375 -0.4979
  248MOL0     C33408   9.564   9.201   9.843  0.8958  0.6117 -0.4252
  248MOL0     C33409   9.632   9.097   9.858 -0.2300 -0.5938 -0.1924
  248MOL0     C33410  10.005   9.305  10.100  0.2496 -0.0456  0.7308
  248MOL0     C33411  10.118   9.233  10.144  0.3830  0.3128 -0.4594
  248MOL0     C33412  10.138   9.094  10.102 -0.4306  0.6672  0.4510
  248MOL0     H33413  10.622   9.435  10.262  3.1782  0.1764 -1.1790
  248MOL0     H33414  10.854   9.325  10.277  0.1013 -1.7853 -0.5301
  248MOL0     H33415  10.948   9.128  10.230 -1.1123 -1.4108  0.9247
  248MOL0     H33416  11.054   9.237  10.331  0.9742 -0.0892  0.0951
  248MOL0     H33417  11.184   9.035  10.274 -1.7394  0.2555 -1.9558
  248MOL0     H33418  11.054   8.926  10.315 -0.3069  0.6500  2.1928
  248MOL0     H33419  11.063   9.005  10.553 -2.6618 -2.1682 -3.2470
  248MOL0     H33420  11.212   9.103  10.512  1.7631 -1.3982  0.1510
  248MOL0     H33421  11.188   8.805  10.498 -1.7430  1.5007  2.7131
  248MOL0     H33422  11.328   8.894  10.432  0.3509  4.1868 -1.0830
  248MOL0     H33423  11.365   9.002  10.672 -1.1236  0.7410  1.4999
  248MOL0     H33424  11.215   8.927  10.722  0.5205 -0.1090 -0.8197
  248MOL0     H33425  11.302   8.714  10.738 -2.5056  2.3226  2.5868
  248MOL0     H33426  11.427   8.747  10.616 -2.2351 -2.0380 -0.2632
  248MOL0     H33427  11.416   8.863  10.907 -1.7424 -1.0391 -1.5576
  248MOL0     H33428  11.540   8.905  10.793 -0.9519  1.6396 -1.8796
  248MOL0     H33429  11.620   8.723  10.948 -2.2052  0.5315  1.2696
  248MOL0     H33430  11.496   8.619  10.888 -0.2902 -0.0601  1.5774
  248MOL0     H33431  11.809   8.801  10.750 -0.7314 -0.3442  2.3883
  248MOL0     H33432  11.898   8.753  10.457  0.7840 -1.4001 -0.3933
  248MOL0     H33433  11.995   8.697  10.608 -1.0795 -0.1366  2.3182
  248MOL0     H33434  11.913   8.494  10.417 -0.7465  0.2698  0.8696
  248MOL0     H33435  12.055   8.595  10.374  2.2754 -2.8029  1.0673
  248MOL0     H33436  12.041   8.466  10.643  0.5811  2.0756 -0.1131
  248MOL0     H33437  12.180   8.530  10.552  0.4446  1.9706 -0.7240
  248MOL0     H33438  12.025   8.287  10.465 -0.7660  0.6931  0.6171
  248MOL0     H33439  12.177   8.281  10.539  1.8220  1.5233 -1.2228
  248MOL0     H33440  12.372   8.434  10.548  0.1634 -0.7455 -0.6011
  248MOL0     H33441  12.596   8.419  10.534 -1.0432 -1.8142  0.1688
  248MOL0     H33442  12.893   8.620  10.306 -0.4562 -0.0896 -0.4866
  248MOL0     H33443  13.134   8.675  10.292  1.6668  1.0203 -3.2630
  248MOL0     H33444  13.325   8.732  10.196  2.5326  2.0324 -0.3031
  248MOL0     H33445  13.426   8.617  10.283 -2.9194  1.9927  0.4668
  248MOL0     H33446  13.585   8.585  10.093  0.8107 -0.0126 -0.4205
  248MOL0     H33447  13.483   8.693   9.992  1.8284  0.6748 -0.0538
  248MOL0     H33448  13.517   8.881  10.131 -0.7666 -0.7581 -1.0420
  248MOL0     H33449  13.615   8.789  10.241  2.9839  1.7200 -0.5640
  248MOL0     H33450  13.678   8.800   9.941  1.4976 -0.3922 -0.0446
  248MOL0     H33451  13.776   8.746  10.074  0.3469  0.8428  0.6671
  248MOL0     H33452  13.780   8.974  10.176 -1.3979 -0.0709  1.1602
  248MOL0     H33453  13.680   9.032  10.047 -0.8154 -1.0968  1.2008
  248MOL0     H33454  13.948   8.899  10.009  0.1472 -0.0854 -0.8709
  248MOL0     H33455  13.852   8.950   9.872  0.9852 -1.3605 -0.0946
  248MOL0     H33456  14.049   9.098   9.942  0.2979  0.5614  0.5315
  248MOL0     H33457  13.969   9.130  10.097 -0.8773 -0.2148  0.8685
  248MOL0     H33458  13.779   9.242   9.994 -1.1055  0.0160 -1.3471
  248MOL0     H33459  13.927   9.325   9.941 -0.0101  0.0225 -0.6100
  248MOL0     H33460  13.190   8.330  10.029 -1.1451 -1.4447 -0.7800
  248MOL0     H33461  12.962   8.283  10.042  0.5073  0.0683 -1.3573
  248MOL0     H33462  12.562   8.266  10.134 -3.2021 -1.7885 -1.3132
  248MOL0     H33463  12.304   8.297  10.144  2.0962 -0.0555 -1.8479
  248MOL0     H33464  10.720   9.070  10.584 -1.7119 -0.0499 -0.6871
  248MOL0     H33465  10.489   9.151  10.555  1.0639 -0.8255 -0.2846
  248MOL0     H33466  10.222   9.494  10.334 -0.8894  0.2480  0.3641
  248MOL0     H33467  10.049   9.607  10.243  1.5533 -0.0342 -0.8062
  248MOL0     H33468   9.700   9.534  10.146  1.6324  0.7016  0.5834
  248MOL0     H33469   9.743   9.363  10.086  4.2954 -0.1699  3.8010
  248MOL0     H33470   9.732   9.444   9.862  2.3170 -1.6240  3.0282
  248MOL0     H33471   9.661   9.605   9.919 -2.5006 -0.8598 -3.2172
  248MOL0     H33472   9.451   9.512   9.924 -1.6328 -0.1418 -0.9938
  248MOL0     H33473   9.510   9.388  10.032  2.0423  0.5535  0.2539
  248MOL0     H33474   9.402   9.319   9.796 -0.0941 -1.0011 -1.0033
  248MOL0     H33475   9.547   9.388   9.731 -1.8379  2.1111 -0.2274
  248MOL0     H33476   9.673   8.998   9.848 -0.9154 -0.9682  0.6288
  248MOL0     H33477   9.937   9.261  10.028  0.4965  0.9644 -0.1381
  248MOL0     H33478  10.055   9.058  10.041 -1.0104 -2.5522  2.9094
  248MOL0     H33479  10.225   9.090  10.036 -1.8738 -0.0941 -1.5075
  248MOL0     H33480  10.146   9.020  10.182 -1.6126  1.2891  1.1785
  249MOL0     O33481   0.721   9.085   1.736 -0.2614  0.1112  0.1247
  249MOL0     C33482   0.717   8.980   1.669  0.5933  0.0407 -0.5046
  249MOL0     O33483   0.830   8.923   1.621 -0.0058  0.7251 -0.4503
  249MOL0     C33484   0.950   8.999   1.622  0.7670 -0.4588  0.1681
  249MOL0     C33485   0.994   9.047   1.500  0.6840 -0.5369 -0.9688
  249MOL0     C33486   1.122   9.117   1.502  0.0581 -0.6215  0.1438
  249MOL0     C33487   1.197   9.140   1.618  0.4164  0.6431  0.0710
  249MOL0     O33488   1.314   9.205   1.622  0.0599  0.3662  0.1145
  249MOL0     C33489   1.383   9.228   1.499  0.4387  0.3706  0.4919
  249MOL0     C33490   1.509   9.315   1.524 -0.0416 -0.0100  0.2848
  249MOL0     C33491   1.616   9.316   1.420  0.0856 -0.4310  0.2483
  249MOL0     C33492   1.732   9.412   1.453  0.7399  0.3655  0.4829
  249MOL0     C33493   1.869   9.381   1.388 -0.5017  0.1169  0.4719
  249MOL0     C33494   1.882   9.410   1.244 -0.0376  0.0932  1.3862
  249MOL0     C33495   2.024   9.404   1.214 -0.5068  0.2724 -0.8002
  249MOL0     C33496   2.123   9.516   1.246  0.2757 -0.0790 -0.2937
  249MOL0     N33497   2.249   9.496   1.185 -0.2547 -0.2429 -0.9587
  249MOL0     C33498   2.303   9.560   1.085 -0.2535 -0.2874  0.3355
  249MOL0     C33499   2.418   9.503   1.056 -0.4983 -0.2767  0.1070
  249MOL0     C33500   2.491   9.521   0.929 -0.3089  0.6654 -0.6672
  249MOL0     C33501   2.648   9.528   0.947  0.1891  1.3262 -0.6311
  249MOL0     C33502   2.714   9.512   0.807 -0.0079 -0.0876  0.4718
  249MOL0     C33503   2.860   9.540   0.793 -0.0380 -0.3652 -0.5258
  249MOL0     O33504   2.911   9.489   0.666 -0.4343  1.2819 -0.1279
  249MOL0     C33505   3.024   9.555   0.615 -0.1962 -0.6980  0.2909
  249MOL0     C33506   3.034   9.548   0.472 -0.3366 -0.5612 -0.2034
  249MOL0     C33507   3.140   9.611   0.410 -0.2158 -0.2294  0.3813
  249MOL0     C33508   3.243   9.674   0.486  0.2220 -0.2877  0.2205
  249MOL0     C33509   3.359   9.732   0.421 -1.6276 -1.6007  0.9160
  249MOL0     O33510   3.360   9.750   0.294  0.6691  0.8275  0.7761
  249MOL0     C33511   3.473   9.771   0.224  0.0327  0.5121  0.0690
  249MOL0     C33512   3.592   9.695   0.253  0.2673 -0.4030  0.5480
  249MOL0     C33513   3.702   9.702   0.169 -0.2314  0.2410  0.1736
  249MOL0     C33514   3.702   9.785   0.056  0.7722  0.1247 -0.8922
  249MOL0     O33515   3.787   9.770  -0.044 -0.0582  0.1804  0.2235
  249MOL0     C33516   3.839   9.887  -0.114 -0.0324  0.5554 -0.1430
  249MOL0     C33517   3.989   9.856  -0.156 -0.1597 -1.0151  0.6422
  249MOL0     C33518   4.084   9.857  -0.047 -0.1074  0.0984  0.0070
  249MOL0     C33519   4.057   9.736   0.051 -0.1265 -0.1208 -0.1436
  249MOL0     C33520   4.172   9.717   0.152  0.5718 -0.4522  0.5186
  249MOL0     C33521   4.293   9.648   0.078 -0.0602 -0.4799  0.9245
  249MOL0     C33522   4.387   9.571   0.172  0.2637  0.8530 -0.5515
  249MOL0     C33523   4.504   9.501   0.094 -0.3567 -0.2714 -0.6404
  249MOL0    Cl33524   4.640   9.610   0.078  0.3175 -0.4389  0.2525
  249MOL0     C33525   3.585   9.859   0.034  0.5809 -0.1093  0.5682
  249MOL0     C33526   3.475   9.859   0.117 -0.0823  0.2025 -0.3271
  249MOL0     O33527   3.450   9.771   0.496  0.6104 -0.1733 -0.3049
  249MOL0     C33528   3.234   9.676   0.628 -0.7332 -0.5965 -0.6780
  249MOL0     C33529   3.124   9.630   0.690  0.2006  0.0221 -0.1806
  249MOL0     N33530   2.429   9.397   1.139  0.3207  0.4153 -0.5202
  249MOL0     N33531   2.334   9.391   1.218 -0.1498  0.4231  0.0530
  249MOL0     C33532   1.149   9.084   1.733 -0.0388 -0.7504 -0.1158
  249MOL0     C33533   1.024   9.022   1.736  0.2240  0.5765  0.5180
  249MOL0     C33534   0.588   8.905   1.657  1.0180  0.2369  0.5417
  249MOL0     C33535   0.599   8.788   1.576 -0.2632 -0.3113 -0.9336
  249MOL0     C33536   0.474   8.732   1.530 -0.1798  0.0373 -0.0516
  249MOL0     C33537   0.355   8.773   1.573  0.3885 -1.0002  0.0353
  249MOL0     O33538   0.251   8.696   1.522  0.0163 -0.1458 -0.2915
  249MOL0     C33539   0.122   8.699   1.590 -0.5205 -0.1223 -0.5259
  249MOL0     C33540   0.128   8.591   1.695  0.3648 -0.5027  0.3297
  249MOL0     C33541   0.136   8.445   1.648  0.2546  0.0221  0.1418
  249MOL0     C33542   0.212   8.372   1.759 -0.5551 -0.5763 -0.4126
  249MOL0     C33543   0.227   8.229   1.738 -0.2149 -0.5656  0.4880
  249MOL0     C33544   0.269   8.117   1.732  0.6248 -0.4486  1.3987
  249MOL0     C33545   0.346   8.870   1.672 -0.3435  0.7956  0.2032
  249MOL0     C33546   0.461   8.938   1.720  0.1599  0.7490 -0.4248
  249MOL0     C33547   0.431   9.051   1.814 -0.1948  0.0225  0.5780
  249MOL0     H33548   0.932   9.033   1.412 -0.0879  1.8546 -0.8840
  249MOL0     H33549   1.152   9.163   1.409  1.9108  1.5222  1.6922
  249MOL0     H33550   1.417   9.132   1.459  1.2113  0.9259 -0.2435
  249MOL0     H33551   1.323   9.261   1.413  3.5697 -1.1392 -2.5162
  249MOL0     H33552   1.555   9.284   1.619  3.4365 -1.3367 -1.6243
  249MOL0     H33553   1.471   9.416   1.512 -0.0268 -0.0644 -0.2053
  249MOL0     H33554   1.577   9.331   1.319 -2.9100 -1.5682  1.1366
  249MOL0     H33555   1.652   9.213   1.415  0.9288 -0.1076 -0.7161
  249MOL0     H33556   1.705   9.517   1.444  0.5249  0.6329  3.3642
  249MOL0     H33557   1.741   9.406   1.562 -1.2754  0.8040  0.7085
  249MOL0     H33558   1.945   9.433   1.446  2.2161 -1.1555 -1.6927
  249MOL0     H33559   1.892   9.277   1.411  1.0525  1.0193  3.5479
  249MOL0     H33560   1.828   9.346   1.174  0.5976  3.2203 -2.3155
  249MOL0     H33561   1.840   9.510   1.231  1.5714  0.7938  1.3057
  249MOL0     H33562   2.034   9.388   1.106 -2.9594  0.1337 -1.0600
  249MOL0     H33563   2.071   9.314   1.257 -1.6051  0.4567  0.8854
  249MOL0     H33564   2.071   9.603   1.204 -3.5982 -1.7863  0.5439
  249MOL0     H33565   2.132   9.532   1.354  0.3235  0.5162 -0.3830
  249MOL0     H33566   2.242   9.636   1.038 -2.2235  0.2604  3.4424
  249MOL0     H33567   2.468   9.433   0.868  1.8698 -2.6633  2.8027
  249MOL0     H33568   2.448   9.607   0.878 -0.5537  0.3625 -0.9751
  249MOL0     H33569   2.681   9.617   1.001 -1.2741  0.9946  0.8904
  249MOL0     H33570   2.675   9.434   0.997 -1.2239  0.7696 -0.8479
  249MOL0     H33571   2.671   9.580   0.734 -0.2725 -3.2569 -2.5828
  249MOL0     H33572   2.696   9.416   0.759  2.0599  0.5858 -1.8346
  249MOL0     H33573   2.917   9.489   0.870 -2.0210 -0.3215  1.0472
  249MOL0     H33574   2.881   9.648   0.796  0.9854 -0.5551  2.7120
  249MOL0     H33575   2.956   9.493   0.420  0.0315 -1.7202  0.4282
  249MOL0     H33576   3.136   9.617   0.302  1.8964  0.5442  0.2873
  249MOL0     H33577   3.597   9.619   0.330 -0.4987 -1.4086 -0.3561
  249MOL0     H33578   3.789   9.645   0.200 -0.5237 -0.6816 -0.6638
  249MOL0     H33579   3.794   9.897  -0.213  0.9922 -0.5724 -0.7559
  249MOL0     H33580   3.821   9.977  -0.055  1.4024  0.4492  0.5120
  249MOL0     H33581   3.985   9.764  -0.215  1.0259  0.5475 -2.1025
  249MOL0     H33582   4.028   9.934  -0.222  2.6320 -0.7134  2.4976
  249MOL0     H33583   4.186   9.845  -0.084 -0.5600 -1.8512 -0.7113
  249MOL0     H33584   4.081   9.953   0.005 -1.8316  0.1256 -0.0794
  249MOL0     H33585   4.047   9.638   0.002  0.1780 -0.3732  0.2908
  249MOL0     H33586   3.974   9.768   0.114  0.1907 -0.1126  0.2757
  249MOL0     H33587   4.127   9.646   0.222  1.5176 -2.3920 -0.7451
  249MOL0     H33588   4.199   9.809   0.205 -1.5670  0.0212  0.8849
  249MOL0     H33589   4.262   9.578   0.000 -2.6851  2.1697 -0.6424
  249MOL0     H33590   4.348   9.727   0.026 -0.8444  1.2501  2.6039
  249MOL0     H33591   4.321   9.496   0.216  1.6208  0.9673  1.8054
  249MOL0     H33592   4.431   9.638   0.247 -1.0391 -1.5780  2.5847
  249MOL0     H33593   4.540   9.405   0.133 -0.1857  0.2023  0.3966
  249MOL0     H33594   4.474   9.483  -0.009  0.6924  0.8019 -1.1524
  249MOL0     H33595   3.571   9.915  -0.058  2.5115 -1.0120 -0.3283
  249MOL0     H33596   3.382   9.904   0.086  0.4039  0.1424 -1.9393
  249MOL0     H33597   3.305   9.735   0.685 -0.9517  0.2445 -1.2495
  249MOL0     H33598   3.106   9.660   0.793 -0.2650  0.0073 -0.2516
  249MOL0     H33599   1.218   9.107   1.814  1.5672  1.4396 -1.9401
  249MOL0     H33600   0.988   8.988   1.832 -0.7578 -1.1753 -0.4121
  249MOL0     H33601   0.692   8.763   1.527  0.0295 -0.1674 -0.4536
  249MOL0     H33602   0.483   8.648   1.462 -1.3909  0.1151 -0.3379
  249MOL0     H33603   0.045   8.681   1.514 -0.2912  1.0373 -1.0741
  249MOL0     H33604   0.100   8.796   1.637  0.5745 -0.7762  1.4224
  249MOL0     H33605   0.037   8.606   1.754  1.0332 -1.0067  1.5275
  249MOL0     H33606   0.211   8.613   1.762 -0.1665  0.1930  0.7716
  249MOL0     H33607   0.199   8.441   1.559 -0.0909 -1.7427 -0.0584
  249MOL0     H33608   0.038   8.404   1.623 -0.2710  1.1854  0.2580
  249MOL0     H33609   0.310   8.419   1.770 -0.3540 -0.3533 -2.5695
  249MOL0     H33610   0.163   8.374   1.856  1.4132 -1.5973  0.6693
  249MOL0     H33611   0.301   8.015   1.727 -1.6433 -1.2063  1.3227
  249MOL0     H33612   0.258   8.905   1.724 -1.5301  3.7007 -3.3359
  249MOL0     H33613   0.509   9.065   1.889 -1.1377  1.4990  1.3204
  249MOL0     H33614   0.417   9.144   1.758 -4.3683 -0.9196 -0.2738
  249MOL0     H33615   0.343   9.033   1.875 -1.1549  0.0828 -0.7515
  250MOL0     O33616   2.499   0.316   2.198  0.4141  0.5306  0.3584
  250MOL0     C33617   2.438   0.419   2.169 -0.0794 -0.2277  0.2290
  250MOL0     O33618   2.493   0.543   2.149  0.4511 -0.9091  0.1394
  250MOL0     C33619   2.628   0.553   2.158  0.9359  0.0106  1.0940
  250MOL0     C33620   2.704   0.477   2.072  0.0740  0.7774 -0.1674
  250MOL0     C33621   2.843   0.489   2.082  1.0920 -1.0328  0.2746
  250MOL0     C33622   2.912   0.566   2.178 -0.2103 -0.3969 -0.2580
  250MOL0     O33623   3.051   0.559   2.191  0.2724  1.1546  1.0166
  250MOL0     C33624   3.098   0.474   2.291  0.1593  1.3464  0.4488
  250MOL0     C33625   3.243   0.494   2.306 -0.4296 -0.1473 -0.7982
  250MOL0     C33626   3.290   0.384   2.412 -0.1475 -0.0386  0.7025
  250MOL0     C33627   3.431   0.364   2.387 -0.6182  0.7018 -0.1406
  250MOL0     C33628   3.483   0.258   2.483 -0.1285  0.1617  0.0245
  250MOL0     C33629   3.631   0.250   2.466  0.5187 -0.2699  0.8203
  250MOL0     C33630   3.674   0.111   2.521 -0.6419 -0.7902 -0.6805
  250MOL0     C33631   3.643   0.109   2.670 -0.2886  0.5297 -0.6195
  250MOL0     N33632   3.703  -0.007   2.743  0.4283 -0.3976  0.0044
  250MOL0     C33633   3.823  -0.067   2.722 -0.2271 -0.8064 -0.3707
  250MOL0     C33634   3.826  -0.176   2.808  0.2359 -0.0973  0.2870
  250MOL0     C33635   3.949  -0.270   2.807  0.8717 -0.3363 -1.0120
  250MOL0     C33636   3.899  -0.407   2.842  1.2549 -0.0350 -0.4583
  250MOL0     C33637   4.008  -0.513   2.813 -0.7155 -0.6950 -0.5121
  250MOL0     C33638   4.118  -0.511   2.923 -0.6253  0.5094  0.3047
  250MOL0     O33639   4.234  -0.581   2.860  0.4845 -0.3746  0.5084
  250MOL0     C33640   4.335  -0.628   2.944 -0.1657 -0.6953 -0.1594
  250MOL0     C33641   4.415  -0.725   2.894 -0.3314 -0.3499  0.8358
  250MOL0     C33642   4.514  -0.780   2.972  1.0514 -0.1018 -0.0919
  250MOL0     C33643   4.529  -0.740   3.109  0.5045 -0.6162  0.9289
  250MOL0     C33644   4.634  -0.805   3.193  0.3095 -0.1255  0.7620
  250MOL0     O33645   4.628  -0.779   3.332 -0.1163  0.1613 -0.2186
  250MOL0     C33646   4.740  -0.832   3.401 -0.4813 -0.5429  0.6776
  250MOL0     C33647   4.861  -0.748   3.406 -0.1607  0.5824  0.3057
  250MOL0     C33648   4.978  -0.797   3.473  0.2478 -0.5491  0.3910
  250MOL0     C33649   4.971  -0.913   3.551  0.1263  0.5613  0.4693
  250MOL0     O33650   5.090  -0.963   3.598  0.5391 -0.2388 -0.2387
  250MOL0     C33651   5.110  -1.103   3.573  0.0928 -0.1419 -0.1070
  250MOL0     C33652   5.257  -1.131   3.583  0.3913  0.1782 -0.2524
  250MOL0     C33653   5.323  -1.073   3.464 -0.5586 -0.1939  0.4959
  250MOL0     C33654   5.459  -1.122   3.425  0.1732  0.2979 -0.6221
  250MOL0     C33655   5.558  -1.144   3.538 -0.0661  0.0393 -0.5065
  250MOL0     C33656   5.684  -1.196   3.490 -0.0811 -0.3322 -0.3449
  250MOL0     C33657   5.764  -1.246   3.612 -0.2378  0.3253  1.1280
  250MOL0     C33658   5.900  -1.322   3.580  0.0971 -0.4317 -0.3181
  250MOL0    Cl33659   6.017  -1.202   3.509  0.4866  0.2700 -0.2874
  250MOL0     C33660   4.846  -0.983   3.559  0.3119  0.5103  0.2035
  250MOL0     C33661   4.743  -0.942   3.480  0.8024  0.1739  0.3130
  250MOL0     O33662   4.729  -0.856   3.128 -0.1865  0.5646 -0.1552
  250MOL0     C33663   4.446  -0.630   3.157 -0.0404  0.9783 -0.3753
  250MOL0     C33664   4.352  -0.580   3.075  0.2996  0.5988 -1.1101
  250MOL0     N33665   3.706  -0.178   2.881 -0.6042 -0.0158 -0.0030
  250MOL0     N33666   3.641  -0.071   2.844 -0.5587 -0.7179  0.1215
  250MOL0     C33667   2.830   0.658   2.248 -0.1202  0.9276  0.0382
  250MOL0     C33668   2.692   0.646   2.240 -0.0083 -0.0808  0.3190
  250MOL0     C33669   2.285   0.411   2.162 -0.2323 -0.1882  0.1603
  250MOL0     C33670   2.211   0.355   2.268 -0.1240 -0.3176 -0.1952
  250MOL0     C33671   2.073   0.388   2.274  0.3121  0.0604  0.1486
  250MOL0     C33672   2.008   0.457   2.180  0.1611 -0.2956  0.0040
  250MOL0     O33673   1.889   0.501   2.217  0.0885  0.4511  0.0477
  250MOL0     C33674   1.785   0.532   2.124  0.0849 -0.5758  0.2154
  250MOL0     C33675   1.648   0.496   2.180  0.4753 -0.9459 -0.4625
  250MOL0     C33676   1.627   0.344   2.214 -0.3355  0.9987  0.0756
  250MOL0     C33677   1.501   0.306   2.306 -0.1316 -0.1978 -0.0785
  250MOL0     C33678   1.378   0.372   2.255  0.0074 -0.2464  0.2378
  250MOL0     C33679   1.275   0.428   2.230  0.1057  0.0232  0.8218
  250MOL0     C33680   2.084   0.500   2.068  0.9004  0.1116 -0.3627
  250MOL0     C33681   2.223   0.478   2.058 -0.0357 -0.0485 -0.0887
  250MOL0     C33682   2.283   0.505   1.917 -0.0895 -0.3657  0.4589
  250MOL0     H33683   2.657   0.407   2.004  1.1463 -1.7816  1.5190
  250MOL0     H33684   2.904   0.430   2.015 -0.6994 -2.4169 -0.2155
  250MOL0     H33685   3.045   0.491   2.385  0.2631 -0.9237  0.9682
  250MOL0     H33686   3.092   0.372   2.253  0.9618 -0.0455  3.7242
  250MOL0     H33687   3.264   0.594   2.345  0.1933 -1.2053  1.8278
  250MOL0     H33688   3.298   0.485   2.212  1.8628  2.5716  0.1443
  250MOL0     H33689   3.237   0.290   2.397  2.4618 -1.4243 -0.4686
  250MOL0     H33690   3.276   0.417   2.515 -0.2117  2.4568 -0.0386
  250MOL0     H33691   3.448   0.339   2.282  1.5024 -2.0124  0.7228
  250MOL0     H33692   3.484   0.458   2.407  0.5533 -0.0939  0.6371
  250MOL0     H33693   3.469   0.291   2.586  1.8485 -1.8605  1.0192
  250MOL0     H33694   3.435   0.162   2.466 -2.0551  0.9182  0.8930
  250MOL0     H33695   3.652   0.259   2.359 -1.6733  0.6380  0.4130
  250MOL0     H33696   3.672   0.337   2.518  2.6233  0.8932 -2.5073
  250MOL0     H33697   3.779   0.081   2.508 -0.2937 -0.1064  0.4356
  250MOL0     H33698   3.607   0.042   2.470 -0.9269  0.6470 -2.3793
  250MOL0     H33699   3.700   0.191   2.714  0.4191  0.4339 -1.3436
  250MOL0     H33700   3.537   0.125   2.693 -0.3959  0.5912 -1.1380
  250MOL0     H33701   3.905  -0.053   2.651 -0.2863  2.7767  0.0685
  250MOL0     H33702   4.007  -0.271   2.714  0.6942  2.0243 -1.2172
  250MOL0     H33703   4.025  -0.243   2.880  0.3183 -2.2625  0.3543
  250MOL0     H33704   3.873  -0.414   2.948  2.1772  2.1343 -0.0469
  250MOL0     H33705   3.807  -0.437   2.791  0.5472  0.8029  0.2821
  250MOL0     H33706   4.052  -0.492   2.715 -1.7311 -2.9518 -1.5502
  250MOL0     H33707   3.963  -0.613   2.818  0.8636 -1.4020  0.2089
  250MOL0     H33708   4.088  -0.568   3.011  2.0369 -2.5726 -0.5595
  250MOL0     H33709   4.147  -0.412   2.957  2.3497  1.3539 -3.8667
  250MOL0     H33710   4.395  -0.743   2.788 -0.1968  0.0247  0.7474
  250MOL0     H33711   4.575  -0.856   2.923 -2.0483 -1.2964 -2.4904
  250MOL0     H33712   4.868  -0.665   3.338  2.0606 -2.1509 -3.1526
  250MOL0     H33713   5.068  -0.740   3.453 -1.0079  2.3231  2.2567
  250MOL0     H33714   5.051  -1.160   3.646 -2.0320 -1.9974 -3.0303
  250MOL0     H33715   5.074  -1.131   3.473 -2.2410 -0.4495  0.7476
  250MOL0     H33716   5.300  -1.104   3.679  1.4161 -0.6638 -0.4579
  250MOL0     H33717   5.263  -1.240   3.573 -0.4340  0.2257 -1.5563
  250MOL0     H33718   5.259  -1.078   3.375  0.3825  3.2524 -0.4985
  250MOL0     H33719   5.327  -0.968   3.493 -1.5984 -0.2836  1.0103
  250MOL0     H33720   5.502  -1.048   3.357 -0.8918 -1.9892 -3.9818
  250MOL0     H33721   5.443  -1.209   3.362 -4.6007  0.3472  0.1170
  250MOL0     H33722   5.513  -1.198   3.621  0.2659  1.0754  0.3673
  250MOL0     H33723   5.568  -1.046   3.584 -0.6536 -0.7892  1.4953
  250MOL0     H33724   5.663  -1.284   3.428 -0.3825  0.1720 -0.9642
  250MOL0     H33725   5.743  -1.123   3.433  1.1959 -2.3200 -1.7558
  250MOL0     H33726   5.714  -1.315   3.682 -0.9808 -0.8561 -0.4939
  250MOL0     H33727   5.795  -1.165   3.678  0.5373 -1.4941  3.1120
  250MOL0     H33728   5.939  -1.357   3.676  0.6189 -1.6858 -0.9701
  250MOL0     H33729   5.887  -1.409   3.516  1.2212 -0.4882 -0.4928
  250MOL0     H33730   4.830  -1.072   3.619  2.4260 -1.0772 -1.4104
  250MOL0     H33731   4.656  -1.007   3.476  1.6196 -0.8897 -1.4529
  250MOL0     H33732   4.465  -0.575   3.248  0.0608 -1.6957  1.3403
  250MOL0     H33733   4.299  -0.495   3.117  2.0678  1.7769 -1.1627
  250MOL0     H33734   2.886   0.717   2.320 -0.7496  0.3877  0.9905
  250MOL0     H33735   2.626   0.688   2.315 -0.0845 -1.0556  0.8147
  250MOL0     H33736   2.265   0.308   2.349 -3.4020  0.7191  2.8861
  250MOL0     H33737   2.014   0.359   2.360 -0.1509 -0.7300 -0.4307
  250MOL0     H33738   1.802   0.475   2.032  1.6485 -3.3171  2.0653
  250MOL0     H33739   1.791   0.641   2.111 -3.6201  0.0364  2.0873
  250MOL0     H33740   1.572   0.533   2.111  0.1769 -2.7261 -1.1476
  250MOL0     H33741   1.656   0.547   2.277 -1.6160 -0.4920 -0.4880
  250MOL0     H33742   1.707   0.306   2.278 -2.2032 -2.8254  0.4285
  250MOL0     H33743   1.608   0.290   2.121  0.0213 -0.7618  0.9688
  250MOL0     H33744   1.485   0.198   2.298  1.8333 -0.4056 -2.5516
  250MOL0     H33745   1.518   0.332   2.410 -1.0413  2.7243 -0.5721
  250MOL0     H33746   1.183   0.476   2.205  1.3094  2.0250 -0.0568
  250MOL0     H33747   2.027   0.567   2.005 -0.2374  1.7191  2.2073
  250MOL0     H33748   2.318   0.409   1.880 -1.3368 -0.5846 -0.1991
  250MOL0     H33749   2.211   0.538   1.842  0.9197 -0.9443 -0.7909
  250MOL0     H33750   2.358   0.583   1.933  0.9083 -0.1744 -3.9578
  251MOL0     O33751   0.608   5.258   5.221 -0.3624  0.4609 -0.5535
  251MOL0     C33752   0.525   5.314   5.150 -0.6320  0.0094 -0.1364
  251MOL0     O33753   0.554   5.437   5.089  0.6997  0.4844  0.3132
  251MOL0     C33754   0.673   5.491   5.122 -0.4755  0.3051 -0.1588
  251MOL0     C33755   0.770   5.526   5.027 -0.8607  0.5354 -1.0508
  251MOL0     C33756   0.893   5.585   5.065  0.5530  0.1083  0.1666
  251MOL0     C33757   0.904   5.634   5.199  0.4586  0.5154 -1.1318
  251MOL0     O33758   1.017   5.701   5.244 -0.2702  1.0594 -0.0839
  251MOL0     C33759   1.020   5.839   5.212  0.0240  0.3028 -0.5125
  251MOL0     C33760   0.951   5.921   5.317 -0.2513 -0.7854 -0.6973
  251MOL0     C33761   1.027   6.053   5.337  0.1967  0.3200  0.0690
  251MOL0     C33762   0.940   6.163   5.406 -0.5126 -0.4960 -0.4538
  251MOL0     C33763   1.013   6.304   5.410 -0.3489  0.5080  1.1353
  251MOL0     C33764   1.100   6.312   5.536 -0.0235  0.9250  0.7777
  251MOL0     C33765   1.179   6.439   5.537 -0.2519 -0.2348  0.4680
  251MOL0     C33766   1.270   6.460   5.656  0.6126  0.1327  1.1519
  251MOL0     N33767   1.304   6.595   5.678  0.1073 -0.0498 -0.1185
  251MOL0     C33768   1.374   6.664   5.584 -0.3511  0.4892 -0.5891
  251MOL0     C33769   1.411   6.781   5.637  0.0446 -0.4172 -0.7467
  251MOL0     C33770   1.494   6.881   5.563  0.4618 -0.1554  0.1179
  251MOL0     C33771   1.438   7.026   5.576 -0.1510  0.2339  0.6349
  251MOL0     C33772   1.533   7.138   5.520 -0.1468  0.0923 -0.1911
  251MOL0     C33773   1.518   7.167   5.373  1.0150  0.4633  0.5205
  251MOL0     O33774   1.610   7.073   5.314  0.0219 -0.5614 -0.4002
  251MOL0     C33775   1.741   7.110   5.297 -1.0540  0.6953  0.6222
  251MOL0     C33776   1.803   7.236   5.331  0.9642  0.9156  0.1618
  251MOL0     C33777   1.946   7.246   5.320  0.7701  0.0554  0.2482
  251MOL0     C33778   2.022   7.147   5.256  0.0744 -0.1901  0.2517
  251MOL0     C33779   2.166   7.153   5.247 -1.1084  0.6068  0.1052
  251MOL0     O33780   2.246   7.040   5.229  0.0401 -0.1819 -0.4179
  251MOL0     C33781   2.373   7.028   5.283  0.5109 -0.6752  0.1165
  251MOL0     C33782   2.468   7.129   5.315 -0.5327  0.0066 -0.1263
  251MOL0     C33783   2.590   7.089   5.368 -0.2265 -0.3812  0.3794
  251MOL0     C33784   2.628   6.955   5.389 -1.3736 -0.9490  0.0630
  251MOL0     O33785   2.751   6.911   5.428  0.0661  0.6490 -0.1819
  251MOL0     C33786   2.831   7.000   5.506 -0.2497 -0.0338  0.5131
  251MOL0     C33787   2.963   6.928   5.561 -0.3543 -0.3935 -0.1776
  251MOL0     C33788   3.034   7.003   5.672 -0.2816 -0.0648  0.0548
  251MOL0     C33789   3.170   6.950   5.719 -0.0421  0.1830  0.1321
  251MOL0     C33790   3.240   7.051   5.798 -0.8920  0.6093  0.2757
  251MOL0     C33791   3.336   6.993   5.896 -0.4405  0.2912  0.2628
  251MOL0     C33792   3.401   7.116   5.975  0.5781 -0.3301  0.0791
  251MOL0     C33793   3.526   7.076   6.053 -0.1425 -0.5609 -0.7046
  251MOL0    Cl33794   3.638   6.996   5.939 -0.0543  0.3169  0.1878
  251MOL0     C33795   2.531   6.863   5.355  0.2872  0.2071  0.5370
  251MOL0     C33796   2.407   6.899   5.305  0.4793  0.5966 -0.5391
  251MOL0     O33797   2.206   7.265   5.276 -1.0676  0.7762  0.2460
  251MOL0     C33798   1.943   7.039   5.208  0.5004  0.2455 -0.0890
  251MOL0     C33799   1.814   7.017   5.235 -0.4682 -0.3908 -0.5147
  251MOL0     N33800   1.361   6.775   5.769  0.0497  0.6920 -0.1543
  251MOL0     N33801   1.297   6.664   5.800  0.3450 -0.0126  0.3582
  251MOL0     C33802   0.800   5.605   5.291 -0.4999 -0.0956 -0.9456
  251MOL0     C33803   0.689   5.535   5.258 -0.7827  0.5734  0.6461
  251MOL0     C33804   0.385   5.259   5.130  0.3210  1.0214 -0.2202
  251MOL0     C33805   0.293   5.334   5.050 -0.5449  0.5121 -1.1636
  251MOL0     C33806   0.165   5.285   5.011 -0.3557  0.3524 -0.1150
  251MOL0     C33807   0.139   5.159   5.051  0.0217  0.3559  0.4914
  251MOL0     O33808   0.021   5.116   5.001  0.6578 -0.3224 -0.0722
  251MOL0     C33809  -0.027   4.991   5.043  0.4654  0.9953 -0.2411
  251MOL0     C33810  -0.124   4.938   4.947  0.3471 -0.8409 -0.1540
  251MOL0     C33811  -0.252   5.021   4.923 -0.0773 -0.3210 -0.6913
  251MOL0     C33812  -0.336   4.965   4.814  0.1835 -0.3115 -0.3090
  251MOL0     C33813  -0.467   5.024   4.812  0.9549 -0.3033 -0.3945
  251MOL0     C33814  -0.564   5.092   4.803 -0.0972 -0.2686 -0.1928
  251MOL0     C33815   0.226   5.090   5.137 -0.0501  0.0172 -0.4364
  251MOL0     C33816   0.345   5.137   5.177 -0.0461  0.7753 -0.1799
  251MOL0     C33817   0.428   5.059   5.282  0.5358 -0.1582 -0.4549
  251MOL0     H33818   0.749   5.503   4.923  0.5840  0.1714 -1.2765
  251MOL0     H33819   0.976   5.603   4.998  0.9257  2.5267  1.1774
  251MOL0     H33820   1.124   5.869   5.220 -0.0921  0.4264  1.0070
  251MOL0     H33821   0.982   5.870   5.115 -2.7671 -0.9777  0.0645
  251MOL0     H33822   0.942   5.872   5.415 -0.2566 -1.1382 -0.8743
  251MOL0     H33823   0.847   5.937   5.288 -1.0327  1.5625  2.6816
  251MOL0     H33824   1.053   6.086   5.236  0.3078 -1.8890 -0.6865
  251MOL0     H33825   1.116   6.027   5.395  0.9519 -0.8880 -1.5790
  251MOL0     H33826   0.844   6.170   5.354 -1.4277 -2.0037  0.9590
  251MOL0     H33827   0.924   6.138   5.511  0.7943 -3.0873 -0.7920
  251MOL0     H33828   1.080   6.319   5.325 -1.2077  1.1743  0.5640
  251MOL0     H33829   0.936   6.381   5.418 -0.8287  0.2714 -0.8168
  251MOL0     H33830   1.036   6.311   5.625 -1.3952 -1.7056 -0.1358
  251MOL0     H33831   1.172   6.230   5.546  0.8361  1.7028  1.1275
  251MOL0     H33832   1.105   6.519   5.542  1.8559  1.7670  2.7997
  251MOL0     H33833   1.240   6.441   5.446 -0.1048 -1.2580  0.5367
  251MOL0     H33834   1.224   6.417   5.746  0.8747  0.9714  1.6958
  251MOL0     H33835   1.366   6.414   5.635 -0.1754 -0.8503 -0.4173
  251MOL0     H33836   1.392   6.623   5.485  2.7068  0.1690  0.0041
  251MOL0     H33837   1.596   6.891   5.601  1.8958  0.3707 -3.4426
  251MOL0     H33838   1.499   6.845   5.460 -0.1631  0.1465 -0.0235
  251MOL0     H33839   1.341   7.042   5.527  0.0546  1.6240  0.6457
  251MOL0     H33840   1.435   7.048   5.683  2.2935 -0.3236  0.8791
  251MOL0     H33841   1.637   7.125   5.552 -0.1331  1.4268  0.3833
  251MOL0     H33842   1.489   7.227   5.566 -0.0181  0.6826 -1.1987
  251MOL0     H33843   1.534   7.270   5.341 -0.9848  0.1249 -1.8778
  251MOL0     H33844   1.418   7.138   5.337  0.6469 -0.5658  2.2496
  251MOL0     H33845   1.745   7.317   5.373  0.6143 -0.0621  1.6810
  251MOL0     H33846   1.994   7.335   5.362  2.3430 -1.4948  1.9382
  251MOL0     H33847   2.455   7.236   5.298 -0.3604  0.5288  2.4939
  251MOL0     H33848   2.665   7.164   5.391  0.2498 -1.0246  0.9787
  251MOL0     H33849   2.864   7.081   5.441 -0.4118 -1.3259 -1.2595
  251MOL0     H33850   2.778   7.045   5.590 -0.8481 -1.1923  0.7835
  251MOL0     H33851   2.924   6.834   5.602 -0.9891  1.0738  2.8776
  251MOL0     H33852   3.040   6.911   5.485  0.2542 -0.4490  0.4406
  251MOL0     H33853   3.043   7.103   5.630 -4.5550  0.9444  1.1048
  251MOL0     H33854   2.962   7.018   5.753  0.8451  1.9410  0.7480
  251MOL0     H33855   3.217   6.933   5.622 -1.4470 -1.2657 -0.3355
  251MOL0     H33856   3.146   6.857   5.771 -3.9500  1.3163  0.7066
  251MOL0     H33857   3.169   7.109   5.858 -0.8619  1.6247 -0.6331
  251MOL0     H33858   3.292   7.111   5.723  0.6131 -1.0424 -0.0667
  251MOL0     H33859   3.277   6.930   5.963  0.8309 -1.9303 -0.6080
  251MOL0     H33860   3.411   6.933   5.844  0.0453  2.9561 -2.4095
  251MOL0     H33861   3.326   7.151   6.046  2.4558  1.9032  1.0555
  251MOL0     H33862   3.440   7.199   5.915  1.4703 -1.9328 -1.6820
  251MOL0     H33863   3.559   7.161   6.113 -2.2610 -0.2805  0.1545
  251MOL0     H33864   3.506   7.007   6.136 -0.0432 -1.0966 -1.1265
  251MOL0     H33865   2.545   6.756   5.366 -0.2225  0.0688 -0.1009
  251MOL0     H33866   2.338   6.819   5.284  1.5866 -0.4574 -0.2863
  251MOL0     H33867   1.990   6.956   5.157 -1.0559  0.3736 -1.8215
  251MOL0     H33868   1.778   6.916   5.216  3.1868 -1.9999  0.2426
  251MOL0     H33869   0.802   5.646   5.391  1.5466  1.3542 -1.5150
  251MOL0     H33870   0.622   5.511   5.340  0.0485 -1.7737  0.6965
  251MOL0     H33871   0.328   5.433   5.024  0.6062  0.6026  0.5596
  251MOL0     H33872   0.100   5.347   4.950 -2.0836 -0.5318  0.7440
  251MOL0     H33873  -0.080   5.009   5.138 -1.4138  0.3511 -1.1226
  251MOL0     H33874   0.035   4.903   5.066 -1.4214  0.0780  1.7674
  251MOL0     H33875  -0.153   4.838   4.980 -0.6387 -0.9416 -1.2499
  251MOL0     H33876  -0.078   4.932   4.847  1.9099  0.6584  0.4310
  251MOL0     H33877  -0.221   5.120   4.887 -0.7855  0.7163  1.3425
  251MOL0     H33878  -0.305   5.044   5.016  2.3576 -3.2910  1.6533
  251MOL0     H33879  -0.283   4.986   4.721  3.6393 -2.3699  0.9616
  251MOL0     H33880  -0.333   4.857   4.832  3.5917 -0.1315  1.0413
  251MOL0     H33881  -0.661   5.135   4.791 -0.2156 -0.9354 -1.8144
  251MOL0     H33882   0.194   4.994   5.178  0.9524 -0.2714 -0.2966
  251MOL0     H33883   0.368   4.978   5.326 -0.7370  0.9306 -0.1221
  251MOL0     H33884   0.517   5.009   5.243  0.7029 -0.8242  0.7103
  251MOL0     H33885   0.458   5.122   5.366 -1.3138  0.1345  0.0461
  252MOL0     O33886   8.623   3.623   6.193  0.1863  0.2650  0.0664
  252MOL0     C33887   8.600   3.611   6.314 -0.7100 -0.3048 -0.9647
  252MOL0     O33888   8.680   3.636   6.427 -0.5256  1.0425 -0.4555
  252MOL0     C33889   8.800   3.708   6.425  0.2578  0.2416  0.0768
  252MOL0     C33890   8.846   3.773   6.312  0.0359  0.1855  0.8224
  252MOL0     C33891   8.959   3.853   6.320 -0.6681  1.1994  0.7844
  252MOL0     C33892   9.024   3.867   6.440 -0.4439  0.6206  0.1064
  252MOL0     O33893   9.129   3.957   6.432 -0.0168 -0.2211 -0.1515
  252MOL0     C33894   9.230   3.961   6.539 -1.0294  0.6000 -0.3067
  252MOL0     C33895   9.335   4.066   6.522  0.2099  1.0636 -0.1280
  252MOL0     C33896   9.392   4.069   6.383 -0.2206 -0.8060 -0.3412
  252MOL0     C33897   9.505   4.172   6.381 -0.0442 -0.0465  0.7065
  252MOL0     C33898   9.578   4.167   6.244 -0.4377 -0.7696  0.2816
  252MOL0     C33899   9.713   4.233   6.274  0.2413  0.1063 -0.1202
  252MOL0     C33900   9.792   4.228   6.152 -0.6259  0.2979 -0.2135
  252MOL0     C33901   9.932   4.289   6.184 -0.5105 -0.5750  0.2403
  252MOL0     N33902  10.017   4.290   6.067  0.5020 -0.1414  0.0316
  252MOL0     C33903  10.053   4.183   6.006 -0.1645  0.5469 -0.1221
  252MOL0     C33904  10.089   4.224   5.882 -0.6926  0.3995 -0.2416
  252MOL0     C33905  10.145   4.136   5.777 -0.6870  0.2459 -0.1369
  252MOL0     C33906  10.247   4.029   5.833 -0.7229  0.4226  0.3619
  252MOL0     C33907  10.343   3.966   5.732 -0.9222 -0.3744 -0.1990
  252MOL0     C33908  10.463   3.911   5.809 -0.0042  0.3873 -0.3354
  252MOL0     O33909  10.543   3.849   5.709  0.3901  0.4849 -0.6588
  252MOL0     C33910  10.654   3.783   5.747  0.0545 -0.1549 -0.4206
  252MOL0     C33911  10.742   3.748   5.648  0.1296  0.0019  0.0745
  252MOL0     C33912  10.877   3.700   5.677 -0.3096 -0.2979  0.1885
  252MOL0     C33913  10.910   3.671   5.800  0.3356 -0.2563 -0.8997
  252MOL0     C33914  11.038   3.598   5.835  0.6831 -0.2426  0.1113
  252MOL0     O33915  11.117   3.556   5.724 -0.7365  0.8345 -0.3112
  252MOL0     C33916  11.242   3.512   5.751 -0.3958 -1.0958  0.0225
  252MOL0     C33917  11.328   3.572   5.848  0.2038 -0.1691 -0.4783
  252MOL0     C33918  11.462   3.543   5.874 -0.8777  0.1816 -0.1216
  252MOL0     C33919  11.522   3.440   5.794  0.3575 -0.0950 -0.8248
  252MOL0     O33920  11.646   3.382   5.805  0.1883  1.0527 -0.2450
  252MOL0     C33921  11.756   3.452   5.870 -0.0824 -0.5337 -0.2995
  252MOL0     C33922  11.889   3.376   5.868 -0.6948 -0.1930 -0.0757
  252MOL0     C33923  11.982   3.418   5.752 -0.6279  0.0613  0.1697
  252MOL0     C33924  12.106   3.330   5.755  1.0465 -0.1960 -0.4559
  252MOL0     C33925  12.216   3.382   5.656 -0.2449 -0.3326  0.6592
  252MOL0     C33926  12.335   3.288   5.667  0.3808  0.3964  0.3617
  252MOL0     C33927  12.450   3.332   5.568 -0.3583  0.0156 -0.3010
  252MOL0     C33928  12.542   3.447   5.602  0.0894 -0.1657 -0.4990
  252MOL0    Cl33929  12.684   3.459   5.496  0.4683 -0.0711 -0.1628
  252MOL0     C33930  11.440   3.379   5.692  0.1357 -0.7166 -0.6120
  252MOL0     C33931  11.304   3.417   5.665  0.0944 -0.4304 -0.9115
  252MOL0     O33932  11.068   3.588   5.956  0.0236 -0.5790  1.3231
  252MOL0     C33933  10.813   3.680   5.900  0.0654  0.1391  0.4099
  252MOL0     C33934  10.688   3.745   5.883  0.3524 -1.3421 -0.2619
  252MOL0     N33935  10.096   4.362   5.873 -0.8178 -0.3945  0.1319
  252MOL0     N33936  10.036   4.400   5.981  0.4635 -0.0492 -0.2429
  252MOL0     C33937   8.987   3.789   6.546 -0.1455 -0.9198 -0.0605
  252MOL0     C33938   8.873   3.716   6.547  0.6342  0.3820 -0.3172
  252MOL0     C33939   8.478   3.533   6.347 -0.3847  0.1249 -0.5643
  252MOL0     C33940   8.486   3.411   6.413  0.0778  0.1158 -0.2588
  252MOL0     C33941   8.365   3.331   6.423 -0.6270 -0.1277 -0.2942
  252MOL0     C33942   8.240   3.386   6.392  0.1358  0.7890  0.5472
  252MOL0     O33943   8.139   3.290   6.389 -0.4151  0.5682  0.1402
  252MOL0     C33944   8.019   3.323   6.319  0.4094  0.8471 -0.6735
  252MOL0     C33945   7.916   3.196   6.324 -0.1099 -0.1289 -0.2016
  252MOL0     C33946   7.797   3.228   6.237  0.3331 -0.2791  0.3112
  252MOL0     C33947   7.679   3.135   6.248  0.1364 -0.1039 -0.3225
  252MOL0     C33948   7.630   3.103   6.389  0.0343 -0.5896 -0.0437
  252MOL0     C33949   7.590   3.094   6.509  0.3202 -0.0507 -0.0486
  252MOL0     C33950   8.233   3.511   6.345  0.0783  1.0481  0.3682
  252MOL0     C33951   8.349   3.587   6.320 -0.1281 -0.1389 -0.1578
  252MOL0     C33952   8.340   3.729   6.260 -0.7758  0.4828  0.3016
  252MOL0     H33953   8.795   3.777   6.217 -2.8732  2.0118  2.3162
  252MOL0     H33954   8.974   3.922   6.238 -4.8726 -0.8007 -2.0655
  252MOL0     H33955   9.184   3.988   6.635  0.5796 -2.2599  1.4327
  252MOL0     H33956   9.269   3.859   6.550  1.2418  1.2322 -1.9185
  252MOL0     H33957   9.411   4.048   6.597 -1.0939  0.3286  1.0598
  252MOL0     H33958   9.295   4.165   6.545 -0.5668  1.1469 -1.6950
  252MOL0     H33959   9.310   4.100   6.318  1.8932  2.2311 -1.8720
  252MOL0     H33960   9.427   3.969   6.355  1.6818 -0.1982 -0.3007
  252MOL0     H33961   9.474   4.276   6.393  0.8085  0.2825  0.1397
  252MOL0     H33962   9.570   4.132   6.460 -0.2152 -5.3396 -1.4178
  252MOL0     H33963   9.598   4.065   6.211  1.7825 -0.2897 -0.0319
  252MOL0     H33964   9.517   4.223   6.172  0.2445  2.0170  1.7082
  252MOL0     H33965   9.700   4.330   6.322  0.6993 -0.4449  1.1415
  252MOL0     H33966   9.770   4.170   6.342  2.9417  1.6588 -0.8029
  252MOL0     H33967   9.745   4.278   6.066  0.3286  1.2297 -0.2205
  252MOL0     H33968   9.804   4.128   6.110 -2.4986 -0.1218  0.1971
  252MOL0     H33969   9.917   4.393   6.216 -2.4362 -0.8390  0.2750
  252MOL0     H33970   9.977   4.224   6.259 -3.0589 -3.1588 -0.3152
  252MOL0     H33971  10.059   4.078   6.033  0.9175  0.6445  0.0489
  252MOL0     H33972  10.064   4.076   5.734  0.4477 -1.2380 -0.2744
  252MOL0     H33973  10.182   4.200   5.697  1.2719 -0.5780  0.0456
  252MOL0     H33974  10.306   4.094   5.898 -1.7151  1.3897  0.3359
  252MOL0     H33975  10.202   3.953   5.897  2.9229 -0.1965  2.4881
  252MOL0     H33976  10.385   4.037   5.661  2.1928 -4.3951 -2.8309
  252MOL0     H33977  10.297   3.885   5.675  1.1831 -1.8152  0.0323
  252MOL0     H33978  10.443   3.843   5.892  4.5668  2.0162  2.4337
  252MOL0     H33979  10.518   3.988   5.863  0.0758  0.2849 -0.2688
  252MOL0     H33980  10.698   3.776   5.553 -1.0169  0.6729  0.7751
  252MOL0     H33981  10.941   3.677   5.593  1.1354  0.0812  1.1516
  252MOL0     H33982  11.288   3.653   5.908 -0.4821  0.4752 -1.7563
  252MOL0     H33983  11.522   3.595   5.948 -1.5415 -0.0580  0.6012
  252MOL0     H33984  11.762   3.549   5.819  1.9885 -0.6415 -0.3506
  252MOL0     H33985  11.728   3.478   5.972  1.2672 -1.4237  0.3247
  252MOL0     H33986  11.943   3.398   5.960  1.6776  0.6303 -1.5709
  252MOL0     H33987  11.856   3.272   5.868 -2.7444  0.4172 -0.3771
  252MOL0     H33988  11.939   3.422   5.651 -0.1378  0.7669 -0.0183
  252MOL0     H33989  12.013   3.521   5.773 -0.3214 -0.4680  2.5791
  252MOL0     H33990  12.088   3.224   5.734  0.4772 -0.6343  1.9091
  252MOL0     H33991  12.139   3.329   5.859  0.2659 -1.4305 -0.2028
  252MOL0     H33992  12.244   3.487   5.671 -2.5000  0.9171 -2.6878
  252MOL0     H33993  12.166   3.380   5.559 -1.5459 -1.3842  1.3277
  252MOL0     H33994  12.377   3.288   5.768  0.3554 -0.5270  0.3778
  252MOL0     H33995  12.308   3.187   5.636  0.0861  0.4644  0.3962
  252MOL0     H33996  12.408   3.361   5.471  1.9503  0.7094 -1.1719
  252MOL0     H33997  12.531   3.258   5.568  1.4803  1.8195 -3.2891
  252MOL0     H33998  12.476   3.534   5.598 -1.7989 -1.4714  0.5659
  252MOL0     H33999  12.565   3.439   5.709 -3.4134  1.7763  0.5638
  252MOL0     H34000  11.491   3.305   5.632  1.5938 -0.0357 -0.2506
  252MOL0     H34001  11.245   3.377   5.583  1.2538 -0.7813 -1.5988
  252MOL0     H34002  10.840   3.630   5.993 -1.1641  0.4611  0.9575
  252MOL0     H34003  10.623   3.778   5.964  1.6671 -0.4648  0.4725
  252MOL0     H34004   9.035   3.799   6.643  1.8913  0.5904 -1.1241
  252MOL0     H34005   8.837   3.652   6.626 -1.7708 -0.8994 -2.2979
  252MOL0     H34006   8.580   3.361   6.433 -0.7564 -1.6546 -0.5308
  252MOL0     H34007   8.381   3.225   6.443 -0.1605 -0.0461 -0.2342
  252MOL0     H34008   8.044   3.320   6.212 -1.0346 -0.7889 -1.0071
  252MOL0     H34009   7.986   3.422   6.353  1.0475  1.4133 -1.6370
  252MOL0     H34010   7.889   3.186   6.430  0.6900 -0.8358 -0.0559
  252MOL0     H34011   7.966   3.101   6.301  1.2974  0.7962 -1.1284
  252MOL0     H34012   7.825   3.222   6.132  1.6420 -2.7514  0.7322
  252MOL0     H34013   7.768   3.332   6.258 -0.2541 -0.2120 -0.7272
  252MOL0     H34014   7.597   3.163   6.180 -1.6575 -2.7235  0.6123
  252MOL0     H34015   7.714   3.041   6.205 -2.6545 -0.3710 -2.3279
  252MOL0     H34016   7.578   3.099   6.615 -0.6257  0.6155 -0.1729
  252MOL0     H34017   8.137   3.551   6.316  1.3673  2.4360 -2.3601
  252MOL0     H34018   8.237   3.763   6.274 -1.0822 -0.5953  0.8197
  252MOL0     H34019   8.412   3.797   6.306  0.2894 -0.5990  0.2710
  252MOL0     H34020   8.367   3.718   6.155 -0.5017  0.3883  0.3819
  253MOL0     O34021   5.440   5.882   6.730  0.4190 -0.5931  0.2507
  253MOL0     C34022   5.448   6.001   6.767 -0.3062 -1.0070 -0.3706
  253MOL0     O34023   5.571   6.073   6.785 -0.6751 -0.0047 -0.3941
  253MOL0     C34024   5.680   6.025   6.714 -0.1520  0.1017 -0.8399
  253MOL0     C34025   5.746   5.897   6.721  0.2821 -0.6465 -0.9169
  253MOL0     C34026   5.873   5.875   6.664  0.0488  0.4571  0.9485
  253MOL0     C34027   5.947   5.981   6.600 -0.1294 -0.8328 -0.1536
  253MOL0     O34028   6.080   5.972   6.551 -0.2153  0.3147  0.2786
  253MOL0     C34029   6.167   5.937   6.659 -0.3424  0.4761 -0.6163
  253MOL0     C34030   6.214   6.069   6.733 -0.0753  1.1069  0.3425
  253MOL0     C34031   6.330   6.152   6.673 -0.2642  0.2522  0.3375
  253MOL0     C34032   6.463   6.080   6.707 -0.0081  0.7280  0.1901
  253MOL0     C34033   6.592   6.136   6.650 -0.2786 -1.0444  0.3066
  253MOL0     C34034   6.581   6.141   6.503  0.1519 -0.5922  0.0617
  253MOL0     C34035   6.713   6.147   6.438 -1.0144  0.2148  0.9286
  253MOL0     C34036   6.708   6.155   6.281 -0.5321  0.6451 -0.1026
  253MOL0     N34037   6.847   6.164   6.232  0.8703 -0.4482 -0.7191
  253MOL0     C34038   6.925   6.276   6.252  0.3721 -0.4906 -0.0910
  253MOL0     C34039   7.047   6.240   6.206 -1.4687 -0.0599  0.2275
  253MOL0     C34040   7.172   6.316   6.217 -0.6376  0.0128 -0.6717
  253MOL0     C34041   7.292   6.221   6.246 -0.8556  0.1239  0.5934
  253MOL0     C34042   7.415   6.308   6.268 -0.6026  0.0863 -0.3376
  253MOL0     C34043   7.544   6.233   6.292  0.1409 -0.9081  0.0784
  253MOL0     O34044   7.662   6.321   6.311  0.3854 -0.3834  0.2063
  253MOL0     C34045   7.770   6.266   6.366 -0.3616  0.3542 -0.3436
  253MOL0     C34046   7.795   6.139   6.412  0.1246  0.7041  0.1375
  253MOL0     C34047   7.938   6.101   6.462  0.1846 -0.5186 -0.3821
  253MOL0     C34048   8.036   6.203   6.480  0.1596 -0.9058 -0.0294
  253MOL0     C34049   8.167   6.172   6.533 -0.7409  1.5785  0.4245
  253MOL0     O34050   8.183   6.034   6.559 -0.3890  0.2119 -0.2114
  253MOL0     C34051   8.295   5.986   6.631  0.7517 -0.2626  0.3790
  253MOL0     C34052   8.287   6.002   6.767 -0.2915  0.6998 -0.3306
  253MOL0     C34053   8.395   5.954   6.852  0.1097 -0.0001  0.4649
  253MOL0     C34054   8.512   5.900   6.794  0.3010  0.3497 -0.0010
  253MOL0     O34055   8.618   5.864   6.871 -0.0677  0.6574  0.3235
  253MOL0     C34056   8.594   5.773   6.980 -0.0569 -0.2322  0.1644
  253MOL0     C34057   8.720   5.694   7.019  0.4154 -0.0212  0.4113
  253MOL0     C34058   8.826   5.794   7.064 -0.1606  0.8749  0.5962
  253MOL0     C34059   8.949   5.719   7.119 -0.5984 -0.2675  0.2036
  253MOL0     C34060   8.950   5.667   7.266 -0.1859 -0.7192  0.3756
  253MOL0     C34061   8.989   5.774   7.364 -0.3023 -0.2160 -0.0314
  253MOL0     C34062   8.895   5.767   7.486  0.5141  0.7556  0.4130
  253MOL0     C34063   8.966   5.848   7.593 -0.3448  0.7581  0.2295
  253MOL0    Cl34064   8.863   5.870   7.727 -0.3654  0.2825 -0.4072
  253MOL0     C34065   8.526   5.887   6.657  0.3449  0.2934 -0.1890
  253MOL0     C34066   8.405   5.920   6.579 -0.3168  0.2624  0.1497
  253MOL0     O34067   8.258   6.254   6.529  0.4077  0.6129 -0.3417
  253MOL0     C34068   7.998   6.333   6.435  0.3989 -0.4082  0.0499
  253MOL0     C34069   7.873   6.356   6.379  0.5762  0.3613  0.5897
  253MOL0     N34070   7.044   6.108   6.166  0.0858 -0.4275  0.6386
  253MOL0     N34071   6.930   6.065   6.199  0.6280  0.7472  0.3367
  253MOL0     C34072   5.883   6.106   6.603  0.1245  0.1420 -0.3567
  253MOL0     C34073   5.756   6.126   6.657  0.0795 -0.0400 -0.4197
  253MOL0     C34074   5.320   6.061   6.810  0.8134  0.5546 -0.0592
  253MOL0     C34075   5.197   5.979   6.804 -0.0557 -0.0346 -0.1537
  253MOL0     C34076   5.078   6.023   6.852  0.8319 -0.7016 -0.5571
  253MOL0     C34077   5.063   6.155   6.884  0.8653 -0.1695 -0.5231
  253MOL0     O34078   4.937   6.209   6.918  0.5170 -0.3612  0.0632
  253MOL0     C34079   4.854   6.127   6.998  0.5512  0.0973  0.3935
  253MOL0     C34080   4.775   6.218   7.093  0.1829 -0.0926 -0.0081
  253MOL0     C34081   4.876   6.273   7.196 -0.0786 -0.4366  0.1621
  253MOL0     C34082   4.809   6.351   7.309  0.3317 -0.2549  0.6377
  253MOL0     C34083   4.722   6.452   7.264 -0.3866  0.0269 -0.6751
  253MOL0     C34084   4.659   6.543   7.226 -0.1226  0.8609  0.8173
  253MOL0     C34085   5.173   6.233   6.904  0.3671  0.5564 -1.1483
  253MOL0     C34086   5.303   6.189   6.872 -0.1820 -0.7315  0.7220
  253MOL0     C34087   5.411   6.291   6.899  0.1689  0.5632 -0.7823
  253MOL0     H34088   5.695   5.818   6.776  1.3363 -2.5916 -2.5979
  253MOL0     H34089   5.930   5.783   6.665 -1.3597 -0.4453  0.7297
  253MOL0     H34090   6.112   5.876   6.731 -1.4825  0.0615 -1.8054
  253MOL0     H34091   6.249   5.876   6.619 -0.4648 -0.8084  1.0063
  253MOL0     H34092   6.256   6.054   6.833  2.9220 -1.2336 -1.1225
  253MOL0     H34093   6.128   6.134   6.751 -1.0427 -0.4744  1.7362
  253MOL0     H34094   6.337   6.254   6.712  0.1042  0.8872 -1.3210
  253MOL0     H34095   6.317   6.170   6.566  0.7600  1.7891  0.4413
  253MOL0     H34096   6.469   6.087   6.816 -1.5060  0.3673  0.3154
  253MOL0     H34097   6.451   5.979   6.667 -1.0458  2.3001 -4.1343
  253MOL0     H34098   6.611   6.232   6.697 -0.5512 -2.4843  3.6440
  253MOL0     H34099   6.668   6.060   6.670  0.3864 -1.5141 -3.3381
  253MOL0     H34100   6.534   6.049   6.466  0.0378  0.4794 -2.6655
  253MOL0     H34101   6.519   6.225   6.471 -2.8463 -1.8375  2.0844
  253MOL0     H34102   6.765   6.054   6.459  1.9428  1.4855 -0.1679
  253MOL0     H34103   6.775   6.227   6.481  1.6905 -0.2225 -1.7820
  253MOL0     H34104   6.658   6.063   6.249 -4.0644  1.9944  1.0010
  253MOL0     H34105   6.635   6.226   6.239 -1.8474 -1.1465 -1.0072
  253MOL0     H34106   6.905   6.375   6.291  1.5440 -0.8824  1.6124
  253MOL0     H34107   7.196   6.367   6.123  0.8887 -1.0316 -0.8879
  253MOL0     H34108   7.168   6.396   6.292 -0.3900 -1.7356  1.3063
  253MOL0     H34109   7.278   6.156   6.332  0.6330 -0.8161  0.1704
  253MOL0     H34110   7.302   6.158   6.157 -0.2648  0.7743  0.1863
  253MOL0     H34111   7.393   6.388   6.340 -0.5856  2.3176 -2.6430
  253MOL0     H34112   7.426   6.368   6.177 -1.8493 -1.6795 -1.7120
  253MOL0     H34113   7.567   6.180   6.199  5.2775  1.7686 -0.5171
  253MOL0     H34114   7.535   6.166   6.378  0.0785 -0.7051  0.2297
  253MOL0     H34115   7.722   6.060   6.416  1.0323 -0.1443  0.5322
  253MOL0     H34116   7.957   5.997   6.485  1.1277 -0.4226 -0.6966
  253MOL0     H34117   8.207   6.062   6.809 -0.7126  0.9959 -1.5217
  253MOL0     H34118   8.388   5.951   6.960 -2.5150  1.3454  0.4149
  253MOL0     H34119   8.584   5.835   7.070  0.1695 -0.9585  0.6986
  253MOL0     H34120   8.507   5.709   6.963  0.8920 -1.6673  0.5239
  253MOL0     H34121   8.699   5.627   7.103 -0.0327 -0.6450 -0.1880
  253MOL0     H34122   8.755   5.630   6.937  3.3301 -0.4926  1.8976
  253MOL0     H34123   8.854   5.850   6.974 -0.9274  1.5088  0.7477
  253MOL0     H34124   8.786   5.862   7.140 -0.2472  0.7691  0.6454
  253MOL0     H34125   9.036   5.784   7.106 -0.7520 -0.1326 -0.1660
  253MOL0     H34126   8.976   5.637   7.051  0.5832 -0.4644  0.8886
  253MOL0     H34127   9.015   5.581   7.281  0.2839 -0.1660  1.6873
  253MOL0     H34128   8.849   5.640   7.299 -0.8346 -0.9750 -1.6513
  253MOL0     H34129   9.093   5.758   7.395 -0.8151 -2.7434  0.6680
  253MOL0     H34130   8.985   5.874   7.320  0.6704 -1.0324 -2.1261
  253MOL0     H34131   8.875   5.663   7.510  1.8029  0.0081 -1.4878
  253MOL0     H34132   8.802   5.821   7.463  0.6358  1.3247  1.2416
  253MOL0     H34133   9.058   5.796   7.621  1.3350  3.7659  0.6783
  253MOL0     H34134   8.990   5.948   7.555 -1.7636  1.9621  2.2599
  253MOL0     H34135   8.614   5.847   6.607  0.4810  0.3817 -0.0210
  253MOL0     H34136   8.418   5.906   6.472  1.5895  1.1430  0.2385
  253MOL0     H34137   8.063   6.421   6.436  0.1326 -0.1952 -0.7413
  253MOL0     H34138   7.855   6.453   6.333 -3.6772 -0.7646 -0.5456
  253MOL0     H34139   5.939   6.188   6.560 -1.7142  0.8596 -1.4742
  253MOL0     H34140   5.728   6.230   6.652  2.3795  0.6950  0.5234
  253MOL0     H34141   5.210   5.877   6.770 -0.5690 -0.0538 -0.3008
  253MOL0     H34142   4.987   5.965   6.847  0.2963  0.1050 -0.2738
  253MOL0     H34143   4.914   6.055   7.055 -0.4722 -0.9521  0.2025
  253MOL0     H34144   4.786   6.076   6.929 -0.0615 -2.0113  2.4185
  253MOL0     H34145   4.705   6.156   7.150  0.3143  0.7734  1.0980
  253MOL0     H34146   4.726   6.299   7.037  4.0164  2.4030 -0.0718
  253MOL0     H34147   4.942   6.352   7.157 -2.7629  1.7397 -0.2619
  253MOL0     H34148   4.937   6.192   7.237  2.3580  0.2403 -1.8177
  253MOL0     H34149   4.750   6.279   7.366  0.0217  0.6458  1.4836
  253MOL0     H34150   4.886   6.394   7.375  2.5225  0.5208 -2.2446
  253MOL0     H34151   4.605   6.626   7.186 -0.5239 -0.1422 -0.8352
  253MOL0     H34152   5.173   6.335   6.940 -0.9195  0.9455 -2.1606
  253MOL0     H34153   5.418   6.289   7.009  0.5401 -2.4968 -0.7592
  253MOL0     H34154   5.514   6.264   6.872  0.5757 -0.3871  1.4202
  253MOL0     H34155   5.389   6.390   6.859 -0.2560  0.8259  0.0835
  254MOL0     O34156   0.998   3.857  11.210  0.2000  0.0239  0.2092
  254MOL0     C34157   1.030   3.903  11.319 -0.4472 -0.0976  0.4910
  254MOL0     O34158   1.137   3.865  11.393  0.2383  0.3272  0.3103
  254MOL0     C34159   1.201   3.749  11.366  0.2001  0.7246 -0.0446
  254MOL0     C34160   1.148   3.632  11.312 -0.0546  0.5738 -0.1349
  254MOL0     C34161   1.225   3.515  11.304 -0.2373 -0.3759 -0.6746
  254MOL0     C34162   1.361   3.520  11.332 -0.0338  1.1983  0.2767
  254MOL0     O34163   1.423   3.397  11.339  0.6388  0.1187  0.3853
  254MOL0     C34164   1.536   3.371  11.426 -0.5115 -0.1869 -1.4638
  254MOL0     C34165   1.557   3.215  11.421  0.0883 -0.5264  0.1570
  254MOL0     C34166   1.686   3.172  11.499 -0.6781 -0.1511  0.2708
  254MOL0     C34167   1.805   3.163  11.403 -0.6903 -1.0703  0.4935
  254MOL0     C34168   1.920   3.086  11.454 -0.4341 -0.3024  0.3092
  254MOL0     C34169   2.017   3.039  11.331  0.0948 -0.0556 -0.9543
  254MOL0     C34170   2.105   3.152  11.277 -0.2118  0.5251  0.7837
  254MOL0     C34171   2.189   3.212  11.387 -0.3979 -0.2132  0.2515
  254MOL0     N34172   2.269   3.325  11.328  0.1700 -0.2630  0.2587
  254MOL0     C34173   2.222   3.446  11.282 -0.5894  0.0620  0.7302
  254MOL0     C34174   2.333   3.514  11.241 -0.5905  1.3764  0.0321
  254MOL0     C34175   2.341   3.664  11.196 -0.7163 -0.0601  0.0189
  254MOL0     C34176   2.345   3.676  11.044 -0.1885 -0.1080 -0.3428
  254MOL0     C34177   2.331   3.825  10.994 -0.1750  1.1376 -0.0882
  254MOL0     C34178   2.449   3.919  11.022 -0.0635 -0.3137  0.3628
  254MOL0     O34179   2.419   4.049  10.971 -0.4798 -0.4733  0.2539
  254MOL0     C34180   2.525   4.110  10.908 -0.0119 -0.8006  0.6253
  254MOL0     C34181   2.502   4.194  10.792 -0.4680 -0.4100  0.2309
  254MOL0     C34182   2.599   4.282  10.744 -0.0399 -0.2622  0.4825
  254MOL0     C34183   2.729   4.273  10.799 -0.3951  0.1628 -0.1946
  254MOL0     C34184   2.833   4.357  10.746 -0.7766  0.2189  0.0235
  254MOL0     O34185   2.921   4.399  10.837 -0.5182  0.8776 -0.5209
  254MOL0     C34186   3.052   4.415  10.795  0.4037 -1.2706  0.0556
  254MOL0     C34187   3.145   4.454  10.894  0.4858 -0.6793  0.0082
  254MOL0     C34188   3.275   4.487  10.872  0.4254  0.4596 -0.2955
  254MOL0     C34189   3.326   4.484  10.741 -0.2274  0.0924 -0.2935
  254MOL0     O34190   3.452   4.515  10.707 -0.7193 -0.3895  0.4187
  254MOL0     C34191   3.554   4.451  10.787  0.6459  0.1381  0.2081
  254MOL0     C34192   3.698   4.461  10.726  0.5927  0.3606 -0.3888
  254MOL0     C34193   3.729   4.608  10.708 -0.5562  0.4931 -0.1555
  254MOL0     C34194   3.869   4.632  10.662 -0.5442  0.1056 -0.5623
  254MOL0     C34195   3.900   4.787  10.622 -0.3106 -0.1461 -0.1939
  254MOL0     C34196   4.048   4.827  10.646  0.2497  0.8961  0.2950
  254MOL0     C34197   4.137   4.728  10.562  0.1601  0.5972 -0.9282
  254MOL0     C34198   4.276   4.784  10.534  0.4307  0.8671  0.0515
  254MOL0    Cl34199   4.367   4.700  10.415  0.6757 -0.3855  0.4018
  254MOL0     C34200   3.239   4.449  10.639 -0.0954  0.0164 -0.1580
  254MOL0     C34201   3.108   4.408  10.666  0.4313  0.4029  0.8414
  254MOL0     O34202   2.819   4.405  10.633  0.0281 -0.0514 -0.2415
  254MOL0     C34203   2.751   4.187  10.911  0.5750 -0.2321 -0.1170
  254MOL0     C34204   2.650   4.110  10.969 -0.4032 -0.3937 -0.5728
  254MOL0     N34205   2.446   3.437  11.258  0.1897 -0.4010 -0.1669
  254MOL0     N34206   2.404   3.324  11.305 -0.3707  0.1221 -0.1513
  254MOL0     C34207   1.419   3.638  11.378 -0.0970 -0.2950  0.2336
  254MOL0     C34208   1.341   3.755  11.391  0.2116  0.3466  0.1417
  254MOL0     C34209   0.951   4.007  11.384 -0.1245 -0.0818  0.2555
  254MOL0     C34210   0.999   4.095  11.478 -0.5068 -1.3069 -0.3564
  254MOL0     C34211   0.921   4.188  11.541  0.4354  0.0094  0.2577
  254MOL0     C34212   0.786   4.199  11.510  0.0825 -0.1536 -0.4669
  254MOL0     O34213   0.733   4.302  11.580 -0.2722  0.5715 -0.1417
  254MOL0     C34214   0.591   4.332  11.558  0.3705 -0.1841 -0.2630
  254MOL0     C34215   0.557   4.455  11.651  0.0198  0.6231  0.7214
  254MOL0     C34216   0.602   4.418  11.794 -1.0345  0.1709 -0.4549
  254MOL0     C34217   0.519   4.491  11.908 -0.9681 -0.0349  0.2961
  254MOL0     C34218   0.397   4.412  11.910 -0.2108 -0.7967 -0.3601
  254MOL0     C34219   0.291   4.349  11.909  0.0930  0.6369  0.7113
  254MOL0     C34220   0.730   4.112  11.417  0.1049  0.1353  0.6501
  254MOL0     C34221   0.811   4.010  11.351 -0.2418 -0.7733 -1.0441
  254MOL0     C34222   0.743   3.914  11.266  0.3273 -0.1373 -0.7084
  254MOL0     H34223   1.041   3.637  11.296 -0.1520  1.5035  0.7231
  254MOL0     H34224   1.167   3.426  11.282  2.2191 -2.3691  0.3874
  254MOL0     H34225   1.616   3.435  11.389  0.0457 -1.5119 -2.6462
  254MOL0     H34226   1.514   3.397  11.530  0.9672 -2.9432 -0.3511
  254MOL0     H34227   1.577   3.183  11.318  0.3926 -4.0852  1.1819
  254MOL0     H34228   1.468   3.160  11.453 -1.0127  0.2472 -1.4152
  254MOL0     H34229   1.668   3.069  11.530 -0.3450 -0.4465 -0.4909
  254MOL0     H34230   1.703   3.238  11.585  3.1114 -2.4129  1.4820
  254MOL0     H34231   1.773   3.109  11.313  0.8485 -1.8108  0.3684
  254MOL0     H34232   1.857   3.259  11.395  0.3430 -1.6448  0.2471
  254MOL0     H34233   1.977   3.139  11.531  2.0727 -0.3576 -1.3626
  254MOL0     H34234   1.894   2.991  11.500  2.8504 -1.7376 -0.4672
  254MOL0     H34235   2.088   2.961  11.360  0.4627  0.8844  0.8386
  254MOL0     H34236   1.963   2.990  11.249 -0.2129  0.4331 -1.0505
  254MOL0     H34237   2.033   3.227  11.242 -0.8459 -0.4894 -0.1790
  254MOL0     H34238   2.170   3.124  11.193 -1.4706 -0.1941  0.0048
  254MOL0     H34239   2.123   3.258  11.460 -1.5102  1.6535 -1.7958
  254MOL0     H34240   2.260   3.150  11.442  1.0639  1.4843  0.3783
  254MOL0     H34241   2.120   3.483  11.275 -0.5329 -0.0750 -1.7432
  254MOL0     H34242   2.252   3.711  11.241 -1.2859  1.4726 -2.5242
  254MOL0     H34243   2.429   3.716  11.235 -0.2217 -0.8953  0.0315
  254MOL0     H34244   2.445   3.642  11.014  0.1785  0.3545  0.3199
  254MOL0     H34245   2.266   3.620  10.993  0.0621 -1.5003  0.7494
  254MOL0     H34246   2.239   3.865  11.037 -1.9111 -0.9083 -1.6907
  254MOL0     H34247   2.311   3.817  10.887  0.1004  2.1206 -0.2229
  254MOL0     H34248   2.540   3.869  10.988 -1.5174 -2.3732 -0.6977
  254MOL0     H34249   2.469   3.924  11.129  1.3591 -1.1631  0.1665
  254MOL0     H34250   2.398   4.207  10.766  0.0356  3.8744 -0.5486
  254MOL0     H34251   2.593   4.336  10.650  2.7073 -0.6143 -0.0027
  254MOL0     H34252   3.114   4.461  10.998  0.5036  3.1799 -0.1206
  254MOL0     H34253   3.331   4.521  10.958  0.0059  1.5242 -0.4157
  254MOL0     H34254   3.551   4.489  10.889 -1.1448 -0.5986  0.4702
  254MOL0     H34255   3.531   4.344  10.788  0.3869  0.2005  0.8352
  254MOL0     H34256   3.767   4.408  10.792 -0.4202 -0.0397  0.3619
  254MOL0     H34257   3.695   4.417  10.626 -0.9387 -0.7721  0.1359
  254MOL0     H34258   3.667   4.651  10.629 -0.8315 -0.7893 -0.6605
  254MOL0     H34259   3.712   4.655  10.805  0.4711  0.2726  0.1482
  254MOL0     H34260   3.896   4.574  10.574  3.8650 -0.6734  1.0349
  254MOL0     H34261   3.931   4.599  10.746 -3.3634 -2.0250  0.8610
  254MOL0     H34262   3.850   4.851  10.696 -1.8548 -1.0166 -0.4536
  254MOL0     H34263   3.856   4.820  10.528 -0.7468  4.6044  1.3992
  254MOL0     H34264   4.075   4.929  10.618  2.4694  0.4803  0.6986
  254MOL0     H34265   4.081   4.819  10.750  2.9155  0.3705 -0.4948
  254MOL0     H34266   4.086   4.703  10.468 -1.0068  0.3231 -0.2365
  254MOL0     H34267   4.155   4.636  10.617  1.3911  0.6512 -1.2162
  254MOL0     H34268   4.253   4.885  10.500 -0.5413  0.6547  0.0495
  254MOL0     H34269   4.337   4.800  10.623  0.2531 -1.5911  0.7012
  254MOL0     H34270   3.274   4.439  10.537  1.5824  1.2739  0.2496
  254MOL0     H34271   3.046   4.383  10.580  0.2025  2.0264  0.4928
  254MOL0     H34272   2.843   4.191  10.970  1.1443  1.4605 -1.0599
  254MOL0     H34273   2.664   4.057  11.062 -0.6390  2.0087  0.9134
  254MOL0     H34274   1.525   3.639  11.401 -0.0434  0.0942 -0.0085
  254MOL0     H34275   1.399   3.839  11.425 -1.7876  2.2579 -0.8893
  254MOL0     H34276   1.097   4.071  11.517 -0.0433 -0.0179 -0.6973
  254MOL0     H34277   0.971   4.245  11.617  0.6050  0.6101 -0.2986
  254MOL0     H34278   0.542   4.239  11.588  4.0112 -1.6440  1.7822
  254MOL0     H34279   0.566   4.362  11.456 -1.9170  0.2248  0.3674
  254MOL0     H34280   0.449   4.469  11.645  0.0595  0.2829 -1.4010
  254MOL0     H34281   0.603   4.543  11.605 -0.5574  0.9705  0.8021
  254MOL0     H34282   0.701   4.461  11.814 -0.9586  0.8693 -2.1710
  254MOL0     H34283   0.606   4.310  11.808 -0.3496  0.1955 -0.4228
  254MOL0     H34284   0.568   4.494  12.006  1.4214 -0.9140 -0.7856
  254MOL0     H34285   0.511   4.598  11.884 -1.2799  0.5116  2.6368
  254MOL0     H34286   0.202   4.288  11.907  1.4717 -1.4546  0.3370
  254MOL0     H34287   0.622   4.108  11.401  0.0197 -4.2363  1.0742
  254MOL0     H34288   0.635   3.919  11.286  0.2669 -1.3662 -0.6698
  254MOL0     H34289   0.769   3.931  11.161  0.3947 -0.5601 -0.7618
  254MOL0     H34290   0.761   3.811  11.297  2.0646  0.8786  1.9857
  255MOL0     O34291   6.513   8.795   3.205  0.3648 -0.2542  0.4729
  255MOL0     C34292   6.425   8.873   3.264 -1.2453  0.4288  0.0273
  255MOL0     O34293   6.438   8.923   3.395  0.6474 -0.1577 -0.6560
  255MOL0     C34294   6.525   8.867   3.477  0.7574  0.0375 -1.1319
  255MOL0     C34295   6.656   8.906   3.487 -0.3548  0.5788 -0.3020
  255MOL0     C34296   6.745   8.840   3.570 -0.9891 -0.6208  0.6501
  255MOL0     C34297   6.701   8.734   3.646  0.2420 -1.1946  0.3211
  255MOL0     O34298   6.777   8.650   3.725  0.2148 -0.1297  0.2392
  255MOL0     C34299   6.920   8.669   3.706 -0.1260 -0.2972  0.0163
  255MOL0     C34300   7.004   8.556   3.775  0.2315 -0.3351  0.6454
  255MOL0     C34301   6.944   8.416   3.751  0.4259  0.2847  0.3880
  255MOL0     C34302   6.946   8.373   3.598 -0.1564  0.5197 -0.7063
  255MOL0     C34303   6.873   8.240   3.592  0.6085  0.2452  0.5287
  255MOL0     C34304   6.720   8.276   3.575  0.3626  0.5495 -0.2559
  255MOL0     C34305   6.633   8.151   3.534  0.1746  0.2561 -0.5290
  255MOL0     C34306   6.484   8.179   3.538 -0.0234 -0.1598 -0.1770
  255MOL0     N34307   6.401   8.061   3.527 -0.3839 -0.7633 -0.2853
  255MOL0     C34308   6.356   8.011   3.406  0.3305 -0.3621 -0.4925
  255MOL0     C34309   6.238   7.945   3.428 -0.5928 -0.3449 -0.7073
  255MOL0     C34310   6.189   7.843   3.324 -0.3655  0.7422  0.5015
  255MOL0     C34311   6.158   7.904   3.191 -0.2514  0.7821 -0.4746
  255MOL0     C34312   6.167   7.812   3.063  1.0061 -0.0999 -1.0859
  255MOL0     C34313   6.307   7.771   3.025  0.0579  0.2244 -0.8876
  255MOL0     O34314   6.398   7.877   3.039 -0.2112 -0.0558  0.3432
  255MOL0     C34315   6.530   7.856   3.015 -0.0953 -0.7640 -0.0727
  255MOL0     C34316   6.581   7.726   2.996  0.3266 -0.3924  0.7690
  255MOL0     C34317   6.724   7.712   2.976  0.6939  0.8237  0.2153
  255MOL0     C34318   6.809   7.823   2.977  0.6516  0.6612 -1.1699
  255MOL0     C34319   6.946   7.803   2.953 -0.5264 -0.0876  0.7227
  255MOL0     O34320   7.013   7.919   2.916 -0.2491  0.7960 -0.8402
  255MOL0     C34321   7.139   7.896   2.871 -0.3610 -0.1480 -0.1792
  255MOL0     C34322   7.253   7.900   2.963 -0.1414  0.3342  0.3175
  255MOL0     C34323   7.382   7.885   2.912 -0.4871  0.8938 -0.0115
  255MOL0     C34324   7.407   7.864   2.775 -0.0881  1.1842 -1.1231
  255MOL0     O34325   7.535   7.851   2.740 -0.0432  0.6090 -0.3153
  255MOL0     C34326   7.567   7.902   2.610  0.4974 -0.3933  1.3945
  255MOL0     C34327   7.718   7.933   2.608  0.3638  0.6195  0.2521
  255MOL0     C34328   7.768   7.984   2.469 -0.6418 -0.1450  0.0810
  255MOL0     C34329   7.920   7.992   2.456  0.1593 -0.4035  0.5251
  255MOL0     C34330   7.985   8.092   2.560 -0.7956  0.5919  0.9966
  255MOL0     C34331   7.958   8.234   2.525 -0.4019  0.1388 -0.2264
  255MOL0     C34332   8.017   8.319   2.629  0.5132 -0.5397  0.6308
  255MOL0     C34333   7.955   8.462   2.640 -0.3239  0.2273  0.2491
  255MOL0    Cl34334   8.052   8.548   2.760  0.1442 -0.2294  0.1128
  255MOL0     C34335   7.305   7.846   2.693  0.3880  0.4554  1.3809
  255MOL0     C34336   7.172   7.870   2.737  0.6685  1.0165  0.9602
  255MOL0     O34337   6.992   7.689   2.938 -0.5297 -0.1577 -0.1072
  255MOL0     C34338   6.749   7.946   2.998 -0.0403 -0.2795 -0.2282
  255MOL0     C34339   6.609   7.969   3.025  0.7251  0.5242  0.4331
  255MOL0     N34340   6.220   7.949   3.565 -0.3780  0.2028 -0.2825
  255MOL0     N34341   6.317   8.011   3.629 -0.3310  0.1109  0.1591
  255MOL0     C34342   6.570   8.699   3.643  1.0615 -0.6137  0.7166
  255MOL0     C34343   6.477   8.759   3.554  0.0733 -0.2378 -0.3419
  255MOL0     C34344   6.311   8.916   3.183  0.1768  0.6940 -0.3305
  255MOL0     C34345   6.256   9.039   3.211 -0.3622  0.0012 -0.0483
  255MOL0     C34346   6.148   9.097   3.147  0.9929  0.7251  0.7767
  255MOL0     C34347   6.085   9.030   3.038 -0.2744  0.5348 -0.3680
  255MOL0     O34348   5.969   9.057   2.982  0.2440  0.3238 -0.2604
  255MOL0     C34349   5.862   9.105   3.067 -1.0559  0.7248 -0.2885
  255MOL0     C34350   5.742   9.130   2.976  0.6509  0.1939 -0.5279
  255MOL0     C34351   5.622   9.188   3.060  0.1594 -0.2205  0.6470
  255MOL0     C34352   5.488   9.156   2.992 -0.0076 -1.0242  0.1864
  255MOL0     C34353   5.483   9.222   2.860  0.1644  1.1737 -0.2474
  255MOL0     C34354   5.472   9.272   2.744 -0.3538 -0.1521 -0.0648
  255MOL0     C34355   6.149   8.909   2.997 -0.3053 -0.4326  0.8499
  255MOL0     C34356   6.264   8.857   3.063 -0.1112  0.0757 -0.1777
  255MOL0     C34357   6.330   8.736   2.993  0.3753  0.3771  0.3400
  255MOL0     H34358   6.694   8.991   3.431  0.4624  0.8829  0.6941
  255MOL0     H34359   6.851   8.865   3.573 -0.9013 -1.0667  1.5005
  255MOL0     H34360   6.958   8.689   3.606  2.8777 -0.3581  1.0440
  255MOL0     H34361   6.936   8.761   3.764  1.8638  0.4930 -1.6775
  255MOL0     H34362   7.010   8.578   3.882 -0.8031  4.1748 -0.0231
  255MOL0     H34363   7.107   8.564   3.739  0.7144  1.8389  2.3066
  255MOL0     H34364   6.846   8.400   3.795  0.0809 -0.2554 -0.5314
  255MOL0     H34365   7.015   8.347   3.797  1.3177  0.7282 -0.2875
  255MOL0     H34366   6.892   8.443   3.535 -1.0186 -0.5491 -1.1842
  255MOL0     H34367   7.053   8.361   3.576  0.2905 -3.1888  2.3594
  255MOL0     H34368   6.912   8.192   3.502 -1.8470 -2.2624  0.6885
  255MOL0     H34369   6.892   8.175   3.678  0.2344 -0.0541  0.3874
  255MOL0     H34370   6.677   8.304   3.672 -0.2289 -1.6594  0.1864
  255MOL0     H34371   6.710   8.357   3.503  0.7653  0.9328  0.1163
  255MOL0     H34372   6.655   8.077   3.612  0.1387  2.0114  1.2307
  255MOL0     H34373   6.673   8.117   3.438  1.6726  2.3667 -0.7158
  255MOL0     H34374   6.456   8.224   3.633 -0.8142 -1.6066  0.3020
  255MOL0     H34375   6.447   8.243   3.457 -1.3406 -0.4666  0.1639
  255MOL0     H34376   6.404   8.011   3.309 -0.2580 -1.5626 -0.8131
  255MOL0     H34377   6.276   7.778   3.309 -0.7075  0.5407 -0.6837
  255MOL0     H34378   6.103   7.788   3.362  0.2018 -0.7530 -0.2693
  255MOL0     H34379   6.055   7.939   3.205 -1.3577 -2.1395 -0.6262
  255MOL0     H34380   6.216   7.994   3.170  1.5620  0.1055  1.3490
  255MOL0     H34381   6.109   7.844   2.976 -0.6044 -2.0087 -0.7782
  255MOL0     H34382   6.109   7.721   3.084  1.5743  0.2861  2.9825
  255MOL0     H34383   6.309   7.721   2.928  1.4990 -1.6562  0.0329
  255MOL0     H34384   6.332   7.694   3.099 -1.7223  1.9472  1.6649
  255MOL0     H34385   6.523   7.635   2.998 -1.5718  0.7624  0.6988
  255MOL0     H34386   6.758   7.613   2.946  0.0245  1.1842 -1.8848
  255MOL0     H34387   7.242   7.933   3.066  0.2257  3.0881 -0.4220
  255MOL0     H34388   7.461   7.875   2.986 -1.1793  2.2595  0.9649
  255MOL0     H34389   7.543   7.837   2.525 -1.3795 -0.6891  2.1146
  255MOL0     H34390   7.510   7.991   2.584  0.6822 -0.9742 -1.3677
  255MOL0     H34391   7.743   8.000   2.691 -1.6601  0.0679  1.3617
  255MOL0     H34392   7.772   7.840   2.628 -0.9539 -0.9678 -2.7768
  255MOL0     H34393   7.742   7.909   2.394 -1.0018 -2.5492  2.4440
  255MOL0     H34394   7.719   8.079   2.448  0.1047  0.5039  1.1503
  255MOL0     H34395   7.964   8.015   2.358 -1.9387  0.5821 -0.2579
  255MOL0     H34396   7.959   7.897   2.493  2.6128 -0.4356 -1.8494
  255MOL0     H34397   8.093   8.081   2.567 -0.4717  1.1294 -1.8217
  255MOL0     H34398   7.930   8.077   2.654  2.7645 -1.4605  2.9702
  255MOL0     H34399   7.999   8.250   2.425 -0.1283  1.1127  0.0320
  255MOL0     H34400   7.852   8.253   2.506 -0.1862 -1.2741 -3.3860
  255MOL0     H34401   8.123   8.331   2.606 -0.0809  0.4324 -1.9280
  255MOL0     H34402   8.012   8.273   2.728 -2.7190 -2.3575 -0.2415
  255MOL0     H34403   7.953   8.512   2.543 -0.5429  1.0798  0.6791
  255MOL0     H34404   7.854   8.469   2.681 -1.3640  0.1870 -2.1557
  255MOL0     H34405   7.317   7.811   2.591  0.0015  0.8692  1.1842
  255MOL0     H34406   7.096   7.858   2.659  1.7670 -0.0232  0.0105
  255MOL0     H34407   6.820   8.028   2.999  0.5194 -0.7483  1.3311
  255MOL0     H34408   6.563   8.065   3.044 -2.3231 -0.3495 -1.8436
  255MOL0     H34409   6.528   8.617   3.701 -0.5208  2.1240  3.7805
  255MOL0     H34410   6.382   8.715   3.527 -2.2998  3.4731  1.2472
  255MOL0     H34411   6.295   9.105   3.288 -2.6123 -0.7640  1.9163
  255MOL0     H34412   6.108   9.189   3.190 -0.3916  0.9794 -0.9120
  255MOL0     H34413   5.896   9.203   3.102 -0.7644  1.6740 -2.9662
  255MOL0     H34414   5.829   9.050   3.155 -1.1153  0.1694 -0.6536
  255MOL0     H34415   5.712   9.036   2.928 -0.8503 -0.4322  1.4876
  255MOL0     H34416   5.776   9.216   2.917 -0.4125  0.7422 -0.3809
  255MOL0     H34417   5.638   9.295   3.076  1.0921 -0.5569  2.1314
  255MOL0     H34418   5.621   9.143   3.160 -2.2450 -0.4660  0.5817
  255MOL0     H34419   5.483   9.047   2.990  1.0751 -1.0730 -0.9900
  255MOL0     H34420   5.404   9.196   3.049 -2.0910 -2.8417 -1.4633
  255MOL0     H34421   5.471   9.321   2.649  1.6245 -4.8116 -2.8496
  255MOL0     H34422   6.111   8.859   2.909 -0.3641  0.0708  0.5848
  255MOL0     H34423   6.439   8.736   3.002  0.4305  2.1405 -0.0207
  255MOL0     H34424   6.279   8.645   3.026  0.3786  1.3983  3.4498
  255MOL0     H34425   6.311   8.763   2.888  1.0203 -2.4712 -0.5847
  256MOL0     O34426   6.482   3.270   9.394  0.6778 -0.0998  0.1509
  256MOL0     C34427   6.485   3.318   9.509 -0.0319 -0.6110 -0.7422
  256MOL0     O34428   6.595   3.327   9.587  0.7996 -0.0407 -0.1502
  256MOL0     C34429   6.714   3.291   9.538  0.5448 -0.1627  0.3814
  256MOL0     C34430   6.786   3.193   9.604  0.3396  0.0031 -0.2816
  256MOL0     C34431   6.915   3.160   9.563 -0.8685 -0.2013  0.7044
  256MOL0     C34432   6.975   3.227   9.452 -0.8117 -0.1666 -0.8520
  256MOL0     O34433   7.101   3.200   9.405  0.7141  0.5737  0.1643
  256MOL0     C34434   7.110   3.063   9.364 -0.6380 -0.1108 -0.2263
  256MOL0     C34435   7.249   3.054   9.296  0.2237 -0.0423 -0.3182
  256MOL0     C34436   7.297   2.926   9.240  0.0167 -0.3156 -1.4788
  256MOL0     C34437   7.408   2.950   9.135  0.1908 -0.9127 -0.5307
  256MOL0     C34438   7.446   2.823   9.068 -0.2196 -0.2719 -0.7219
  256MOL0     C34439   7.535   2.732   9.153 -0.0291 -0.2339  0.6906
  256MOL0     C34440   7.514   2.589   9.105  0.3549 -0.5597 -0.0587
  256MOL0     C34441   7.643   2.503   9.133  0.1746 -0.1300 -0.2512
  256MOL0     N34442   7.760   2.531   9.051  0.7656 -0.6604 -0.2085
  256MOL0     C34443   7.766   2.492   8.920 -0.0184 -0.5980  1.0133
  256MOL0     C34444   7.890   2.521   8.886  0.0186  0.3827 -0.0190
  256MOL0     C34445   7.962   2.470   8.765  0.0330 -0.9388 -0.4355
  256MOL0     C34446   7.876   2.478   8.639  0.6182 -0.2021  0.2889
  256MOL0     C34447   7.813   2.357   8.586 -0.5743  0.5535 -0.0931
  256MOL0     C34448   7.735   2.378   8.463  0.9683  0.0650 -0.5235
  256MOL0     O34449   7.650   2.490   8.469 -0.7146  0.3416 -0.5701
  256MOL0     C34450   7.554   2.484   8.562  0.2678 -0.0551 -0.0314
  256MOL0     C34451   7.495   2.362   8.603  0.6330  0.7611 -0.3146
  256MOL0     C34452   7.389   2.367   8.694 -0.7380 -0.0741  0.3652
  256MOL0     C34453   7.343   2.491   8.747  0.7863  0.4851 -0.3887
  256MOL0     C34454   7.250   2.505   8.866  0.1694  0.2895 -0.3917
  256MOL0     O34455   7.205   2.629   8.898  0.7176 -0.6010  0.5247
  256MOL0     C34456   7.119   2.647   9.002  0.2045 -0.0426 -0.4225
  256MOL0     C34457   7.142   2.584   9.125  0.1687 -0.4981 -0.1938
  256MOL0     C34458   7.067   2.624   9.238  0.1719  0.9155  0.3101
  256MOL0     C34459   6.963   2.716   9.224 -0.0963  0.1902 -0.5724
  256MOL0     O34460   6.891   2.746   9.335 -0.7650 -0.5603  1.4731
  256MOL0     C34461   6.745   2.760   9.309  0.0961  0.4198  0.4598
  256MOL0     C34462   6.689   2.776   9.448  0.2105 -0.8336  0.5957
  256MOL0     C34463   6.721   2.676   9.563  0.4928 -0.3016  0.0411
  256MOL0     C34464   6.638   2.554   9.533  0.8501  0.0537  0.5148
  256MOL0     C34465   6.715   2.431   9.596  0.0681 -0.9911 -0.2310
  256MOL0     C34466   6.806   2.381   9.477  0.3849 -0.2235  0.4877
  256MOL0     C34467   6.910   2.274   9.525 -0.0919  0.3474 -0.0084
  256MOL0     C34468   7.014   2.240   9.424 -0.5361 -0.0364  0.7633
  256MOL0    Cl34469   7.154   2.166   9.510 -0.2915 -0.3663 -0.1702
  256MOL0     C34470   6.944   2.779   9.099 -0.1125  0.6003  0.1536
  256MOL0     C34471   7.022   2.742   8.986  0.9487 -0.5986  0.7334
  256MOL0     O34472   7.208   2.403   8.922  0.2130  0.1683  0.9960
  256MOL0     C34473   7.404   2.606   8.700  0.1267 -0.2620  0.3712
  256MOL0     C34474   7.506   2.598   8.615 -0.0425 -1.1285  0.0731
  256MOL0     N34475   7.958   2.585   8.988  1.0127 -0.1669 -0.5628
  256MOL0     N34476   7.871   2.601   9.092  0.6635  1.0987 -0.3707
  256MOL0     C34477   6.904   3.330   9.392 -0.2238 -0.8871  0.3116
  256MOL0     C34478   6.774   3.362   9.432  0.6756 -0.5855  0.2090
  256MOL0     C34479   6.359   3.364   9.573 -0.1660  0.1499  0.0075
  256MOL0     C34480   6.347   3.334   9.711 -0.2149  0.1165 -0.2495
  256MOL0     C34481   6.228   3.345   9.782  0.0650 -0.0694 -0.4854
  256MOL0     C34482   6.107   3.384   9.712  0.2412  0.0377 -0.4435
  256MOL0     O34483   5.994   3.386   9.780  0.5126  0.1613 -0.0986
  256MOL0     C34484   5.866   3.408   9.713 -0.0312  0.6510  0.1179
  256MOL0     C34485   5.750   3.374   9.813  0.5648 -0.4394 -0.6231
  256MOL0     C34486   5.616   3.437   9.763  0.2229 -0.0526  0.8236
  256MOL0     C34487   5.494   3.389   9.837  0.3265  0.2959 -0.6811
  256MOL0     C34488   5.417   3.298   9.755  0.6736  0.3449 -0.6105
  256MOL0     C34489   5.345   3.217   9.693  0.3148  0.1551 -0.6757
  256MOL0     C34490   6.121   3.425   9.577 -0.3752 -0.7114 -0.2905
  256MOL0     C34491   6.247   3.427   9.512 -0.2338 -0.1035 -0.1613
  256MOL0     C34492   6.265   3.485   9.379  0.1775 -0.8477 -0.2826
  256MOL0     H34493   6.746   3.143   9.692  0.3608  0.4258 -0.0281
  256MOL0     H34494   6.969   3.080   9.613  0.8639  1.8449  2.2993
  256MOL0     H34495   7.110   2.993   9.448  2.8370 -1.2664 -1.0094
  256MOL0     H34496   7.034   3.048   9.287 -2.2536  5.0419 -0.0164
  256MOL0     H34497   7.326   3.091   9.365  0.4191  1.6712 -1.3931
  256MOL0     H34498   7.247   3.121   9.209 -1.8084 -0.7300 -0.8530
  256MOL0     H34499   7.211   2.880   9.192 -1.5102  1.1264 -0.2689
  256MOL0     H34500   7.336   2.864   9.321  1.8258 -0.2518 -2.2659
  256MOL0     H34501   7.363   3.013   9.058  2.1161  1.5279  0.1820
  256MOL0     H34502   7.498   3.001   9.171 -0.8016  1.5500 -1.3725
  256MOL0     H34503   7.357   2.764   9.046  0.1936 -1.9987  1.7849
  256MOL0     H34504   7.500   2.848   8.976 -0.5796 -0.0507 -0.8740
  256MOL0     H34505   7.637   2.765   9.131 -0.1125  0.1119  0.8208
  256MOL0     H34506   7.523   2.737   9.262 -3.2756 -1.3935  0.4973
  256MOL0     H34507   7.487   2.577   9.000 -0.2391 -3.3857  0.3439
  256MOL0     H34508   7.433   2.552   9.168 -0.1859  0.1977 -0.3041
  256MOL0     H34509   7.667   2.516   9.239 -1.6609  2.7649 -0.1065
  256MOL0     H34510   7.633   2.395   9.114 -1.8850 -0.5124  2.4041
  256MOL0     H34511   7.694   2.431   8.866 -0.4100 -0.3360  1.2437
  256MOL0     H34512   8.043   2.542   8.749 -1.5284  0.8934 -0.4738
  256MOL0     H34513   8.000   2.369   8.784 -0.8737 -0.8974  1.9373
  256MOL0     H34514   7.796   2.551   8.653  1.0597  0.0578  1.5687
  256MOL0     H34515   7.942   2.508   8.558  0.4912 -1.3544 -0.2512
  256MOL0     H34516   7.756   2.306   8.665  1.0568 -0.9768  0.1595
  256MOL0     H34517   7.896   2.289   8.566 -1.3000 -1.8962  4.0542
  256MOL0     H34518   7.692   2.282   8.433 -0.4830  0.2818  0.7388
  256MOL0     H34519   7.808   2.392   8.382  1.5907  0.8043  0.1489
  256MOL0     H34520   7.532   2.266   8.569  1.9218  0.1645  2.4665
  256MOL0     H34521   7.339   2.278   8.729 -0.0481 -0.3838  0.5831
  256MOL0     H34522   7.211   2.500   9.134  0.0812 -0.5049  0.4362
  256MOL0     H34523   7.095   2.567   9.326  2.7143  1.6754  0.0808
  256MOL0     H34524   6.720   2.852   9.256  1.2655  1.2147  1.2306
  256MOL0     H34525   6.696   2.671   9.269 -0.0995  0.3404  0.8665
  256MOL0     H34526   6.727   2.870   9.487 -0.4378  0.4055 -1.6060
  256MOL0     H34527   6.580   2.785   9.439 -0.0239 -2.4417  1.3287
  256MOL0     H34528   6.826   2.649   9.577  0.6111 -0.0140 -0.2923
  256MOL0     H34529   6.691   2.727   9.655  2.0653  1.0515 -0.1453
  256MOL0     H34530   6.624   2.540   9.426  1.8989 -1.6629  0.5800
  256MOL0     H34531   6.542   2.581   9.579  0.8734 -0.8161  1.0950
  256MOL0     H34532   6.639   2.356   9.621 -3.3778  1.0943 -3.3731
  256MOL0     H34533   6.774   2.451   9.686  1.6915 -0.4717 -1.3678
  256MOL0     H34534   6.755   2.347   9.387  2.3625  3.8999 -2.5623
  256MOL0     H34535   6.863   2.467   9.441  2.1963 -1.9161 -0.9180
  256MOL0     H34536   6.857   2.183   9.554 -0.1579  1.1128  2.4816
  256MOL0     H34537   6.954   2.302   9.621 -1.5587 -1.6281  1.3131
  256MOL0     H34538   6.980   2.176   9.342  3.9181 -1.5585 -0.1911
  256MOL0     H34539   7.053   2.330   9.374 -0.4047 -1.9781 -2.9986
  256MOL0     H34540   6.871   2.858   9.086 -0.1601  0.4423 -0.5743
  256MOL0     H34541   6.998   2.788   8.891 -0.7975 -0.3635  1.2636
  256MOL0     H34542   7.383   2.698   8.753 -0.7704 -0.9853  1.3055
  256MOL0     H34543   7.543   2.697   8.591  1.2364 -1.3602  0.9640
  256MOL0     H34544   6.961   3.404   9.336 -0.7903  0.2459  1.1674
  256MOL0     H34545   6.733   3.452   9.387 -0.5707 -1.1139  0.2592
  256MOL0     H34546   6.437   3.308   9.766 -0.1062 -0.3173 -0.6219
  256MOL0     H34547   6.224   3.311   9.885  0.3474  4.6218  1.2857
  256MOL0     H34548   5.860   3.353   9.619  0.2424 -1.0407  1.0563
  256MOL0     H34549   5.851   3.515   9.698 -3.6482  0.8848  3.6223
  256MOL0     H34550   5.776   3.418   9.910 -0.6872  0.3000 -0.6001
  256MOL0     H34551   5.743   3.265   9.823  0.0958 -0.3642 -0.0264
  256MOL0     H34552   5.608   3.421   9.655 -0.3868 -1.6399  1.0740
  256MOL0     H34553   5.624   3.546   9.767  2.7171  0.0164 -1.9358
  256MOL0     H34554   5.518   3.338   9.931 -1.8502  2.2114  1.0372
  256MOL0     H34555   5.415   3.460   9.863 -1.9971 -1.7073 -1.8542
  256MOL0     H34556   5.275   3.156   9.641 -1.6269 -0.4855  2.4005
  256MOL0     H34557   6.042   3.460   9.512 -0.5969 -0.6576  0.0032
  256MOL0     H34558   6.346   3.559   9.381  0.1524 -0.8255 -0.0016
  256MOL0     H34559   6.289   3.401   9.314 -0.7713 -0.9558 -0.5189
  256MOL0     H34560   6.179   3.544   9.346  0.4984  0.0592  0.4602
  257MOL0     O34561  10.746   7.469   3.873  0.2574  0.1090  0.3398
  257MOL0     C34562  10.736   7.355   3.827 -0.1813 -0.6143 -0.5531
  257MOL0     O34563  10.833   7.264   3.799  0.4150  0.0267 -0.3116
  257MOL0     C34564  10.965   7.299   3.812  0.2498  0.0523 -0.4103
  257MOL0     C34565  11.040   7.218   3.900 -0.1930 -0.4194  0.3136
  257MOL0     C34566  11.174   7.254   3.926 -0.3826  0.0594  0.3236
  257MOL0     C34567  11.238   7.343   3.841 -0.1864  0.1957  0.4266
  257MOL0     O34568  11.369   7.357   3.870 -0.2451  0.2595  0.8988
  257MOL0     C34569  11.453   7.405   3.765 -0.4929 -0.0378  0.6158
  257MOL0     C34570  11.602   7.408   3.814  1.0232 -0.3589 -0.8680
  257MOL0     C34571  11.694   7.306   3.752 -0.0561  1.3420  0.6061
  257MOL0     C34572  11.732   7.363   3.605 -0.2568  0.1000  0.1354
  257MOL0     C34573  11.840   7.476   3.604  0.4720 -0.5491 -0.0209
  257MOL0     C34574  11.874   7.546   3.473  0.9060  0.1714 -0.4853
  257MOL0     C34575  11.993   7.483   3.401  0.4447 -0.1564  0.2431
  257MOL0     C34576  12.126   7.514   3.465 -0.5282 -0.0846 -0.6329
  257MOL0     N34577  12.238   7.521   3.365 -0.1976 -0.7898 -0.4513
  257MOL0     C34578  12.250   7.425   3.264 -0.8046 -0.4671 -0.1353
  257MOL0     C34579  12.349   7.475   3.185 -0.8432  0.1057  0.2539
  257MOL0     C34580  12.396   7.418   3.057  0.6123  0.5295 -0.1846
  257MOL0     C34581  12.395   7.264   3.066 -0.9978  0.9604  0.3204
  257MOL0     C34582  12.414   7.195   2.929 -0.4632 -0.4385  1.3024
  257MOL0     C34583  12.408   7.046   2.938  0.2068 -0.3222 -0.0312
  257MOL0     O34584  12.502   7.002   3.038  0.4369 -0.3648  0.2870
  257MOL0     C34585  12.462   6.882   3.096  0.1092 -0.9101 -0.1852
  257MOL0     C34586  12.325   6.845   3.128 -0.1930  0.1475 -0.2513
  257MOL0     C34587  12.298   6.720   3.182 -0.2240 -0.2258 -0.3219
  257MOL0     C34588  12.398   6.628   3.223 -0.2500  0.9237 -0.1242
  257MOL0     C34589  12.369   6.487   3.273  0.4052  0.2505  1.0115
  257MOL0     O34590  12.258   6.417   3.220 -0.1249 -0.5818 -1.0313
  257MOL0     C34591  12.227   6.284   3.266  0.0494 -0.5752  0.4593
  257MOL0     C34592  12.203   6.180   3.173 -0.1826  0.6031 -0.2796
  257MOL0     C34593  12.184   6.051   3.216  0.4747  0.5183 -0.3178
  257MOL0     C34594  12.197   6.020   3.349  0.2718 -0.1258 -0.1245
  257MOL0     O34595  12.173   5.891   3.382 -0.5906 -0.1291 -0.6562
  257MOL0     C34596  12.247   5.831   3.495  0.3200 -0.0692 -0.5387
  257MOL0     C34597  12.326   5.707   3.439  0.2566  0.2017  0.5042
  257MOL0     C34598  12.430   5.648   3.531  0.1553 -0.3559  0.4977
  257MOL0     C34599  12.458   5.501   3.491 -0.1595  0.4521 -0.5218
  257MOL0     C34600  12.514   5.420   3.601 -0.5151  0.1509 -0.9325
  257MOL0     C34601  12.631   5.487   3.666 -0.5362  0.0596 -0.6092
  257MOL0     C34602  12.757   5.510   3.585 -1.0084 -0.2533  0.9225
  257MOL0     C34603  12.884   5.569   3.653  0.6646 -0.5012  0.5075
  257MOL0    Cl34604  12.859   5.745   3.693 -0.1246  0.4345  0.3099
  257MOL0     C34605  12.214   6.124   3.441 -0.2410  0.5243 -0.0330
  257MOL0     C34606  12.228   6.250   3.394 -0.0877 -1.5024 -0.5383
  257MOL0     O34607  12.443   6.452   3.357 -0.1631 -0.6263  1.0592
  257MOL0     C34608  12.529   6.679   3.212 -1.2425  0.1061  0.6123
  257MOL0     C34609  12.560   6.796   3.136  0.6180 -0.2610 -0.3142
  257MOL0     N34610  12.385   7.603   3.233  0.7740  0.2107  0.0408
  257MOL0     N34611  12.317   7.626   3.338 -0.9709  0.2907  0.2133
  257MOL0     C34612  11.165   7.419   3.758  1.1936 -1.3512  0.4490
  257MOL0     C34613  11.023   7.408   3.750  0.3778  0.0376  1.4440
  257MOL0     C34614  10.597   7.307   3.811 -0.1675  0.3917 -0.3760
  257MOL0     C34615  10.583   7.182   3.743 -0.1258  0.3610  0.0541
  257MOL0     C34616  10.459   7.108   3.735 -0.4088  0.0288  0.3832
  257MOL0     C34617  10.346   7.166   3.780 -0.6638 -0.0629  0.1770
  257MOL0     O34618  10.217   7.110   3.776  0.2860 -0.1435  0.0653
  257MOL0     C34619  10.209   6.978   3.830 -0.2857  1.2268 -0.6288
  257MOL0     C34620  10.078   6.966   3.912  0.5700 -0.4650  0.6929
  257MOL0     C34621  10.093   6.850   4.014 -0.2570  0.3488 -0.0845
  257MOL0     C34622   9.988   6.841   4.126 -0.0068  0.3274 -0.5321
  257MOL0     C34623   9.848   6.833   4.079 -0.1864 -0.1663  0.0228
  257MOL0     C34624   9.726   6.821   4.066 -0.3110 -0.2163  0.4060
  257MOL0     C34625  10.355   7.295   3.825  1.0582 -0.7307 -0.6513
  257MOL0     C34626  10.475   7.365   3.848 -0.5551 -0.2631 -0.0843
  257MOL0     C34627  10.462   7.497   3.928 -1.2738  0.2270  0.8585
  257MOL0     H34628  10.999   7.135   3.957  0.2676 -0.6363  0.3324
  257MOL0     H34629  11.218   7.196   4.006  0.4816  1.5924  1.0062
  257MOL0     H34630  11.454   7.360   3.666 -1.9941  1.2075 -0.0079
  257MOL0     H34631  11.425   7.508   3.738 -0.4388  0.0532  0.9018
  257MOL0     H34632  11.609   7.406   3.923 -0.2576  0.4439 -0.7509
  257MOL0     H34633  11.643   7.507   3.790  2.9408 -0.0183  3.0265
  257MOL0     H34634  11.641   7.210   3.750  1.8432  0.2122  1.6114
  257MOL0     H34635  11.793   7.294   3.797  0.2019  1.5051  0.0909
  257MOL0     H34636  11.777   7.275   3.559 -1.7107 -0.8310  0.4364
  257MOL0     H34637  11.642   7.390   3.548  0.7243  1.9134 -0.6704
  257MOL0     H34638  11.817   7.555   3.676 -0.6459 -0.7865 -0.0955
  257MOL0     H34639  11.934   7.428   3.631  0.7823 -0.0913 -0.2634
  257MOL0     H34640  11.787   7.528   3.408  0.9368  0.4853 -0.6148
  257MOL0     H34641  11.898   7.652   3.487  2.1175 -0.0701 -0.6833
  257MOL0     H34642  11.984   7.518   3.298 -0.1568 -0.7952  0.0654
  257MOL0     H34643  11.985   7.374   3.394  2.2721 -0.2181 -2.0009
  257MOL0     H34644  12.122   7.611   3.514 -0.5403 -0.1669 -0.4716
  257MOL0     H34645  12.151   7.444   3.546 -0.8492  0.4783 -0.0412
  257MOL0     H34646  12.184   7.339   3.259 -1.9764  0.2112  2.3626
  257MOL0     H34647  12.313   7.443   2.990 -0.5056  0.7951  1.2500
  257MOL0     H34648  12.486   7.467   3.018 -1.1769  2.8717 -1.6471
  257MOL0     H34649  12.470   7.232   3.139  0.1229  1.4306 -0.5972
  257MOL0     H34650  12.297   7.227   3.100 -1.1928  1.2794  0.1056
  257MOL0     H34651  12.516   7.223   2.901 -0.9250  0.4387  0.4235
  257MOL0     H34652  12.343   7.234   2.856  2.3546  0.7400 -0.9695
  257MOL0     H34653  12.430   7.001   2.841  1.9225  1.6598 -0.6219
  257MOL0     H34654  12.302   7.019   2.951 -0.0853 -0.7394 -2.7116
  257MOL0     H34655  12.243   6.912   3.106  1.4385  2.9275  1.5749
  257MOL0     H34656  12.196   6.685   3.195 -0.2161  0.4657  2.3275
  257MOL0     H34657  12.202   6.199   3.067 -0.2821  1.2154 -0.1742
  257MOL0     H34658  12.170   5.976   3.139  0.0466  1.8725 -1.5940
  257MOL0     H34659  12.316   5.907   3.533 -0.1495  0.4330 -0.6814
  257MOL0     H34660  12.178   5.817   3.578  0.9776 -1.7789 -0.2446
  257MOL0     H34661  12.252   5.633   3.405  1.5862 -0.0904 -2.0301
  257MOL0     H34662  12.374   5.734   3.345 -0.1594 -1.2745 -0.1619
  257MOL0     H34663  12.527   5.698   3.523 -0.3274  0.3419 -1.3420
  257MOL0     H34664  12.380   5.655   3.628 -0.0473 -0.3057  0.3901
  257MOL0     H34665  12.518   5.489   3.400  0.8006  0.8609  0.0375
  257MOL0     H34666  12.362   5.453   3.470 -1.1093  0.4366  3.1830
  257MOL0     H34667  12.535   5.319   3.563  0.8571 -0.3435  1.0107
  257MOL0     H34668  12.440   5.394   3.678  1.0104  0.1314  0.5767
  257MOL0     H34669  12.593   5.583   3.705  0.2537  0.5444 -1.0102
  257MOL0     H34670  12.662   5.434   3.756  0.8527  2.5442  0.4752
  257MOL0     H34671  12.735   5.574   3.499  2.4210 -1.1507 -0.7891
  257MOL0     H34672  12.786   5.417   3.534  0.3997  0.3209  0.6390
  257MOL0     H34673  12.907   5.512   3.744 -0.4142  1.1973  1.9013
  257MOL0     H34674  12.972   5.567   3.587  2.0491  1.6708  2.1414
  257MOL0     H34675  12.221   6.100   3.547  5.1277  0.4582 -0.1501
  257MOL0     H34676  12.241   6.335   3.461  1.6436 -1.5359 -0.7881
  257MOL0     H34677  12.616   6.619   3.237 -1.4559 -0.5310 -0.1298
  257MOL0     H34678  12.661   6.818   3.101  0.8390 -2.6105 -1.3148
  257MOL0     H34679  11.213   7.499   3.704 -0.8179 -1.3289 -1.4281
  257MOL0     H34680  10.959   7.471   3.690  1.4551 -0.8299 -0.7120
  257MOL0     H34681  10.662   7.117   3.708 -2.2306 -1.3094 -1.9517
  257MOL0     H34682  10.464   7.005   3.701  1.8487  0.5326 -1.1071
  257MOL0     H34683  10.298   6.958   3.890 -0.5711  1.4227 -0.1389
  257MOL0     H34684  10.204   6.896   3.758 -1.3733  2.1308 -1.6089
  257MOL0     H34685  10.001   6.957   3.835  1.2642  1.4483 -0.2967
  257MOL0     H34686  10.054   7.061   3.960 -3.6258 -0.2611 -1.3531
  257MOL0     H34687  10.184   6.866   4.072 -0.2598  0.9119 -0.2284
  257MOL0     H34688  10.114   6.754   3.968  0.2165  0.6963 -0.6066
  257MOL0     H34689  10.014   6.753   4.185 -0.6457  1.9582  2.4228
  257MOL0     H34690   9.998   6.926   4.194 -1.9339  1.7040 -1.8368
  257MOL0     H34691   9.619   6.817   4.059 -0.3136  0.3350  0.0139
  257MOL0     H34692  10.263   7.342   3.859  0.5183  0.6286 -3.6465
  257MOL0     H34693  10.361   7.537   3.929 -2.0651 -1.6653  1.9024
  257MOL0     H34694  10.499   7.494   4.031  0.3517 -0.4274  0.3007
  257MOL0     H34695  10.521   7.580   3.889 -3.0362  0.8233 -0.6746
  258MOL0     O34696   2.371   8.708   6.998  0.6933  0.5031  0.1042
  258MOL0     C34697   2.333   8.813   7.052  0.1858  0.0361  0.8138
  258MOL0     O34698   2.387   8.869   7.166  0.1112 -0.5414 -0.5592
  258MOL0     C34699   2.507   8.826   7.214 -0.0087  0.0264  0.6497
  258MOL0     C34700   2.513   8.704   7.293 -0.2263 -0.8222 -0.7325
  258MOL0     C34701   2.638   8.659   7.338 -0.1782  0.1183 -0.8035
  258MOL0     C34702   2.755   8.729   7.319 -0.5698  0.1407  0.9261
  258MOL0     O34703   2.870   8.684   7.380 -0.5090  0.1590 -0.2200
  258MOL0     C34704   2.994   8.759   7.370  0.3947  0.5661  0.0226
  258MOL0     C34705   3.082   8.680   7.466  0.8530  0.0410  0.3389
  258MOL0     C34706   3.216   8.759   7.477  0.6952  0.3477  0.3831
  258MOL0     C34707   3.314   8.693   7.574  0.4079  0.8857 -0.5866
  258MOL0     C34708   3.442   8.772   7.575  1.1690 -0.7237 -0.3900
  258MOL0     C34709   3.513   8.752   7.713  0.4340  0.9041  0.4247
  258MOL0     C34710   3.644   8.826   7.712  0.6765 -0.4102 -1.0000
  258MOL0     C34711   3.702   8.860   7.853 -0.4236  0.7571 -0.0227
  258MOL0     N34712   3.820   8.950   7.847  0.1858 -0.3742  0.3542
  258MOL0     C34713   3.821   9.062   7.926  0.2186 -0.4219 -1.4587
  258MOL0     C34714   3.953   9.097   7.931 -0.0247 -0.2289  0.0712
  258MOL0     C34715   3.998   9.228   7.983 -0.0680  0.7887  0.1536
  258MOL0     C34716   4.128   9.215   8.062  0.8292  0.1772  0.3914
  258MOL0     C34717   4.183   9.349   8.109  0.5464  0.2616 -0.8560
  258MOL0     C34718   4.331   9.352   8.138 -0.4783 -0.3395 -0.3486
  258MOL0     O34719   4.371   9.471   8.197 -0.4034 -0.0707  0.4288
  258MOL0     C34720   4.506   9.489   8.201 -0.2010 -0.6757  0.3427
  258MOL0     C34721   4.574   9.564   8.106  1.0130 -0.2170  0.4103
  258MOL0     C34722   4.710   9.586   8.117  1.1693  0.2566 -0.6993
  258MOL0     C34723   4.779   9.533   8.232  0.6926  0.6510 -0.4115
  258MOL0     C34724   4.926   9.546   8.250  0.6809 -0.4361 -0.0479
  258MOL0     O34725   5.002   9.616   8.156  0.5303  0.3089 -0.3822
  258MOL0     C34726   5.140   9.630   8.160 -0.7018 -0.2524 -0.4470
  258MOL0     C34727   5.236   9.527   8.177  0.2625  1.2668  0.7588
  258MOL0     C34728   5.372   9.566   8.182  0.3767  0.2553  0.3303
  258MOL0     C34729   5.410   9.698   8.163  0.0598  0.6339  0.5831
  258MOL0     O34730   5.544   9.713   8.138 -0.3375 -0.8981  0.4532
  258MOL0     C34731   5.584   9.812   8.045 -0.7600 -0.0588 -0.1752
  258MOL0     C34732   5.737   9.781   8.000  0.8596  0.2540  0.1061
  258MOL0     C34733   5.816   9.828   8.119  0.3348  0.0352  0.1117
  258MOL0     C34734   5.970   9.816   8.091 -0.8832 -0.0956 -0.1102
  258MOL0     C34735   6.052   9.914   8.171 -0.0480 -0.2917  0.2373
  258MOL0     C34736   6.194   9.888   8.121  0.3353 -0.1744 -0.9525
  258MOL0     C34737   6.292   9.972   8.208  0.5702 -0.6277 -0.4673
  258MOL0     C34738   6.296  10.127   8.178  0.3684  0.2870 -0.7296
  258MOL0    Cl34739   6.373  10.221   8.303 -0.1920 -0.2595  0.1165
  258MOL0     C34740   5.315   9.799   8.164  0.3137  0.1045  0.1693
  258MOL0     C34741   5.178   9.764   8.152  0.5545 -0.5711  0.3371
  258MOL0     O34742   4.971   9.519   8.362  1.2492  0.3799  0.1384
  258MOL0     C34743   4.696   9.469   8.336 -0.4129 -0.4714 -0.1958
  258MOL0     C34744   4.558   9.457   8.325 -0.3101 -0.4708 -0.4339
  258MOL0     N34745   4.023   9.011   7.845  0.2266  0.5298 -0.3808
  258MOL0     N34746   3.945   8.915   7.803  0.3143 -0.6391 -0.1025
  258MOL0     C34747   2.748   8.851   7.252 -0.1886  0.5804  0.0281
  258MOL0     C34748   2.630   8.893   7.194  0.5641  0.4027 -0.3185
  258MOL0     C34749   2.229   8.890   6.995  0.2065 -0.4996  0.1238
  258MOL0     C34750   2.245   8.931   6.860 -0.1302 -0.0093 -0.2719
  258MOL0     C34751   2.148   9.009   6.788 -0.2095 -0.5371 -0.3775
  258MOL0     C34752   2.036   9.050   6.870 -0.7600 -0.3132  0.1576
  258MOL0     O34753   1.925   9.094   6.807  0.0459 -0.0477 -0.6202
  258MOL0     C34754   1.920   9.116   6.664 -0.2121 -0.1006  0.7296
  258MOL0     C34755   1.902   8.990   6.575  0.0588 -0.2266  0.0212
  258MOL0     C34756   1.751   8.950   6.582 -0.5397 -0.1677 -0.1042
  258MOL0     C34757   1.725   8.827   6.495 -1.0852  0.6173  0.4084
  258MOL0     C34758   1.587   8.791   6.502  0.3280 -0.0769 -0.3082
  258MOL0     C34759   1.481   8.727   6.492 -0.3575 -0.5228  0.2730
  258MOL0     C34760   2.030   9.028   7.005  0.1349  0.2192 -1.0972
  258MOL0     C34761   2.121   8.940   7.071  0.3221 -0.5893  0.9534
  258MOL0     C34762   2.101   8.901   7.216 -0.5298 -0.3864 -0.7846
  258MOL0     H34763   2.418   8.656   7.310 -1.0742  1.0752  0.1670
  258MOL0     H34764   2.639   8.568   7.396 -1.1520  1.4311  1.4098
  258MOL0     H34765   3.039   8.754   7.270  0.1695  1.9208 -0.1646
  258MOL0     H34766   2.975   8.863   7.398  0.6044  1.0074 -1.3762
  258MOL0     H34767   3.106   8.580   7.428  2.4936  0.8355 -0.8653
  258MOL0     H34768   3.040   8.666   7.566  1.6250  1.2659  0.8588
  258MOL0     H34769   3.189   8.859   7.513 -0.2279  0.4404 -0.5207
  258MOL0     H34770   3.262   8.761   7.378  3.1174 -2.2918  1.3391
  258MOL0     H34771   3.255   8.685   7.666 -1.7391 -2.8222 -2.0378
  258MOL0     H34772   3.336   8.588   7.549 -0.2429 -0.2189  2.9519
  258MOL0     H34773   3.497   8.739   7.486 -0.8852 -0.0629 -1.9980
  258MOL0     H34774   3.415   8.878   7.571  1.5360 -0.5912  0.5141
  258MOL0     H34775   3.453   8.772   7.803  0.7476 -0.5422  0.9883
  258MOL0     H34776   3.527   8.645   7.734 -2.3458  0.7093  1.8981
  258MOL0     H34777   3.622   8.926   7.673  1.2692 -0.0450 -0.4178
  258MOL0     H34778   3.719   8.783   7.646  0.5650 -2.0163 -0.1317
  258MOL0     H34779   3.618   8.901   7.909  0.5447  2.2828  0.3667
  258MOL0     H34780   3.726   8.766   7.904 -1.6524  0.7143  0.5062
  258MOL0     H34781   3.736   9.114   7.969 -0.2131 -1.9894 -0.3310
  258MOL0     H34782   4.005   9.289   7.892 -0.5685 -0.1066 -0.5121
  258MOL0     H34783   3.922   9.280   8.043 -1.2269  1.1111 -1.5173
  258MOL0     H34784   4.103   9.155   8.149 -0.7959 -1.0864 -0.8876
  258MOL0     H34785   4.208   9.162   8.010 -0.2940  1.4203 -2.8685
  258MOL0     H34786   4.135   9.366   8.206 -0.0961 -2.8097 -0.5563
  258MOL0     H34787   4.150   9.439   8.055 -0.8002  0.4220  0.1605
  258MOL0     H34788   4.371   9.329   8.039 -0.0032 -1.9428  0.1850
  258MOL0     H34789   4.365   9.274   8.207  0.0972 -1.1980 -1.5747
  258MOL0     H34790   4.519   9.607   8.023  2.4585 -1.2943 -1.1624
  258MOL0     H34791   4.766   9.627   8.033 -0.3506  0.9150 -1.4405
  258MOL0     H34792   5.210   9.422   8.181  0.8700  0.8822 -2.3693
  258MOL0     H34793   5.447   9.490   8.201  1.1429  1.5165  2.7989
  258MOL0     H34794   5.523   9.795   7.955  0.7448 -1.4798 -0.9895
  258MOL0     H34795   5.563   9.915   8.075  0.1312 -0.4798  2.0552
  258MOL0     H34796   5.749   9.677   7.967 -0.4253 -0.3267  1.3966
  258MOL0     H34797   5.759   9.839   7.910  1.7029  0.2025  0.2748
  258MOL0     H34798   5.797   9.933   8.144  3.2214  0.7243 -0.2040
  258MOL0     H34799   5.791   9.764   8.205 -1.7266 -1.1824 -1.2952
  258MOL0     H34800   5.994   9.820   7.985  4.6732 -1.0018  0.8097
  258MOL0     H34801   5.994   9.712   8.118  2.0486  1.0044  2.0562
  258MOL0     H34802   6.040   9.894   8.278  0.0285 -0.5113  0.2050
  258MOL0     H34803   6.020  10.017   8.152  1.1107  0.4627  2.1650
  258MOL0     H34804   6.208   9.780   8.131  0.0391 -0.2600 -1.4495
  258MOL0     H34805   6.212   9.918   8.017  2.0720 -1.3576 -1.0237
  258MOL0     H34806   6.392   9.929   8.202  1.0275  0.4521 -0.8977
  258MOL0     H34807   6.267   9.961   8.314 -2.0902  2.0997 -0.6754
  258MOL0     H34808   6.356  10.131   8.086  0.9815 -2.9568 -0.5680
  258MOL0     H34809   6.197  10.166   8.154  0.9410  3.0787  1.0002
  258MOL0     H34810   5.343   9.903   8.151  1.0155 -0.1740 -0.6649
  258MOL0     H34811   5.111   9.849   8.155  0.0373 -0.9614 -0.0892
  258MOL0     H34812   4.748   9.432   8.424  0.5239  1.5596  0.1541
  258MOL0     H34813   4.503   9.408   8.405  0.6731  0.1999  0.6996
  258MOL0     H34814   2.830   8.922   7.257  0.1196  0.1609  0.9508
  258MOL0     H34815   2.631   8.988   7.142  2.3596  1.9246  2.2670
  258MOL0     H34816   2.329   8.896   6.801  1.7399 -2.0327  3.2474
  258MOL0     H34817   2.169   9.041   6.687  1.8327 -1.0121 -0.1566
  258MOL0     H34818   2.004   9.177   6.627  0.1368 -0.7082  0.4998
  258MOL0     H34819   1.834   9.183   6.661  0.2617  0.7158 -4.5773
  258MOL0     H34820   1.966   8.912   6.616  1.0458  0.8893  0.6801
  258MOL0     H34821   1.938   9.014   6.474 -1.4480  1.6285 -0.1374
  258MOL0     H34822   1.696   9.032   6.535  2.0757 -0.3991 -4.1228
  258MOL0     H34823   1.726   8.928   6.686  1.9485  1.0656  0.8354
  258MOL0     H34824   1.763   8.838   6.393 -1.6493 -2.4231 -0.2316
  258MOL0     H34825   1.779   8.746   6.545 -1.3960 -0.8928 -1.5660
  258MOL0     H34826   1.388   8.676   6.477 -0.9912  0.8960 -0.7741
  258MOL0     H34827   1.938   9.053   7.058  0.0954 -1.6232 -0.1887
  258MOL0     H34828   2.114   8.794   7.236 -3.1194 -1.2105 -2.9196
  258MOL0     H34829   2.175   8.961   7.271 -2.9478  1.4666  0.6792
  258MOL0     H34830   2.002   8.938   7.245 -0.1090 -0.2834  0.6122
  259MOL0     O34831   9.826   2.431   1.659  0.1175  0.0359 -0.5247
  259MOL0     C34832   9.835   2.309   1.692 -0.1591 -0.6767 -0.1836
  259MOL0     O34833   9.735   2.222   1.689  0.3952 -0.1851  0.4623
  259MOL0     C34834   9.598   2.273   1.687 -0.0335  0.5055  0.3153
  259MOL0     C34835   9.559   2.384   1.748 -0.0666  0.3602 -0.2952
  259MOL0     C34836   9.426   2.427   1.726 -0.9490 -0.2466 -0.0755
  259MOL0     C34837   9.338   2.347   1.650  0.7321 -0.0762 -0.4333
  259MOL0     O34838   9.205   2.377   1.637 -0.0840 -0.8693  0.6841
  259MOL0     C34839   9.177   2.515   1.593  0.5646 -0.6992  0.2991
  259MOL0     C34840   9.058   2.512   1.503 -0.0964  0.2801  0.0598
  259MOL0     C34841   9.043   2.637   1.425  0.0387 -1.0759  0.5417
  259MOL0     C34842   9.147   2.658   1.315 -0.1598 -0.2699 -0.1843
  259MOL0     C34843   9.097   2.747   1.196  0.3471 -0.2141 -1.0089
  259MOL0     C34844   9.163   2.736   1.061 -0.5066 -0.1995  0.4382
  259MOL0     C34845   9.315   2.750   1.079 -0.0744  0.0242 -0.3117
  259MOL0     C34846   9.386   2.708   0.948 -1.0313 -0.2339 -0.8166
  259MOL0     N34847   9.532   2.738   0.957  0.7378 -0.3269 -0.2751
  259MOL0     C34848   9.628   2.671   1.024  0.5618  0.0616  0.2549
  259MOL0     C34849   9.742   2.745   1.011 -0.0667  0.0057 -0.3151
  259MOL0     C34850   9.880   2.735   1.075  0.1358 -0.6180 -0.1567
  259MOL0     C34851   9.908   2.611   1.154 -0.2307  1.5990  0.6686
  259MOL0     C34852  10.031   2.633   1.260  0.2474 -0.0478 -0.1181
  259MOL0     C34853  10.158   2.680   1.175  0.0020 -0.4010 -1.0360
  259MOL0     O34854  10.268   2.682   1.271 -0.3248  0.0806  0.4095
  259MOL0     C34855  10.348   2.576   1.296 -0.6438  0.2033 -0.2051
  259MOL0     C34856  10.333   2.452   1.232  1.0503 -0.0406 -0.0658
  259MOL0     C34857  10.405   2.344   1.270 -0.0693  0.4753 -0.8662
  259MOL0     C34858  10.505   2.351   1.372 -0.2136  0.0361  0.3070
  259MOL0     C34859  10.574   2.231   1.407 -0.1488  0.0753 -0.2014
  259MOL0     O34860  10.685   2.250   1.489 -0.0400  0.6698  0.7613
  259MOL0     C34861  10.762   2.137   1.505  0.5206  0.9116  0.5931
  259MOL0     C34862  10.787   2.070   1.626 -0.4655 -0.0573 -0.0580
  259MOL0     C34863  10.881   1.966   1.631 -0.2222 -0.1262  0.7056
  259MOL0     C34864  10.955   1.921   1.522  0.0674 -0.9198  0.2293
  259MOL0     O34865  11.052   1.821   1.523  0.1850  0.1641  0.2975
  259MOL0     C34866  11.068   1.747   1.643 -0.0857 -0.5876  0.6132
  259MOL0     C34867  11.182   1.642   1.627 -0.2991  0.0009  0.5983
  259MOL0     C34868  11.324   1.708   1.647  0.5624  0.9247 -0.3054
  259MOL0     C34869  11.436   1.599   1.660  0.6100  0.5118  0.4665
  259MOL0     C34870  11.559   1.673   1.716 -0.7953  0.4244  0.2460
  259MOL0     C34871  11.635   1.747   1.606  0.0329  0.7584  0.8851
  259MOL0     C34872  11.782   1.791   1.643  0.6595 -0.1080  1.1110
  259MOL0     C34873  11.779   1.899   1.758 -0.2258  0.7040 -0.0307
  259MOL0    Cl34874  11.702   2.043   1.688 -0.0865  0.4961 -0.4451
  259MOL0     C34875  10.923   1.982   1.397  0.6598 -0.0012 -0.3698
  259MOL0     C34876  10.828   2.079   1.387 -0.3601  0.6080 -0.3735
  259MOL0     O34877  10.549   2.124   1.352  0.3201  0.3370 -0.0605
  259MOL0     C34878  10.528   2.478   1.438 -0.2916 -0.7148 -0.0327
  259MOL0     C34879  10.448   2.587   1.390 -0.7131 -0.4459 -0.5067
  259MOL0     N34880   9.715   2.852   0.925  0.8488 -0.6898 -0.3521
  259MOL0     N34881   9.591   2.844   0.886 -0.5661 -0.2852  0.1845
  259MOL0     C34882   9.376   2.230   1.588 -0.3681 -0.1664 -0.7297
  259MOL0     C34883   9.510   2.193   1.608 -0.6585 -0.5645 -0.4884
  259MOL0     C34884   9.964   2.254   1.738  0.0468  0.1235  0.3309
  259MOL0     C34885   9.954   2.157   1.834  0.0634 -0.0301  0.6588
  259MOL0     C34886  10.070   2.100   1.889 -0.5778 -0.0556 -1.1648
  259MOL0     C34887  10.194   2.137   1.845 -1.4884  0.1441 -0.1259
  259MOL0     O34888  10.315   2.097   1.875 -0.3315 -0.1024 -0.3550
  259MOL0     C34889  10.324   2.002   1.986  0.9156  0.9847  0.2464
  259MOL0     C34890  10.477   1.990   2.025 -0.1389  0.0319 -0.5047
  259MOL0     C34891  10.504   1.901   2.141  0.2473 -0.0055 -0.2123
  259MOL0     C34892  10.402   1.903   2.249  0.2750 -0.8221 -0.6743
  259MOL0     C34893  10.290   1.822   2.218  0.3890  0.0893  0.9748
  259MOL0     C34894  10.201   1.746   2.186 -0.6686 -0.3376 -0.1790
  259MOL0     C34895  10.204   2.231   1.739  0.8018  0.2884  0.7456
  259MOL0     C34896  10.092   2.289   1.683 -0.2715  0.5120  0.7282
  259MOL0     C34897  10.103   2.383   1.567  0.6855 -0.6142 -0.6196
  259MOL0     H34898   9.633   2.435   1.809  0.3571  0.1154 -0.6045
  259MOL0     H34899   9.387   2.521   1.763 -1.0059  0.6741 -2.3075
  259MOL0     H34900   9.169   2.582   1.679  1.6334 -1.7888  1.2993
  259MOL0     H34901   9.253   2.566   1.535 -2.8455  1.1321 -3.0171
  259MOL0     H34902   8.964   2.498   1.558 -0.2799  0.4014 -0.2246
  259MOL0     H34903   9.068   2.426   1.436  0.0883 -1.0957  1.7603
  259MOL0     H34904   9.056   2.723   1.492 -1.5661 -0.4002  0.0388
  259MOL0     H34905   8.938   2.639   1.393 -0.0392 -0.9284  0.8034
  259MOL0     H34906   9.242   2.697   1.353 -0.5446  1.5972 -0.9997
  259MOL0     H34907   9.168   2.563   1.264 -1.3361 -1.2328  1.0749
  259MOL0     H34908   8.988   2.739   1.190  0.1515  0.7394  0.5127
  259MOL0     H34909   9.123   2.847   1.233  3.4832 -0.9952 -0.7924
  259MOL0     H34910   9.133   2.646   1.007 -1.3705  0.2135  0.1992
  259MOL0     H34911   9.134   2.822   1.000 -0.0309 -2.8081 -3.8822
  259MOL0     H34912   9.347   2.676   1.153 -1.5013  0.1623  0.4920
  259MOL0     H34913   9.349   2.850   1.107  0.8597 -0.1656 -0.7321
  259MOL0     H34914   9.378   2.599   0.949 -1.1598 -0.5158  5.2841
  259MOL0     H34915   9.340   2.767   0.868  0.8642  1.6171 -0.6560
  259MOL0     H34916   9.612   2.582   1.084  0.2203 -0.5708 -0.7404
  259MOL0     H34917   9.947   2.750   0.990 -2.4761 -1.3048 -2.4740
  259MOL0     H34918   9.890   2.822   1.141 -0.2125 -0.5152 -0.2357
  259MOL0     H34919   9.828   2.568   1.215 -0.5312  0.2388 -0.6048
  259MOL0     H34920   9.934   2.533   1.081  0.3102  1.0687  1.4146
  259MOL0     H34921  10.060   2.539   1.308  1.7947  0.2248 -0.4607
  259MOL0     H34922   9.994   2.708   1.331 -0.4695 -1.5808  1.1860
  259MOL0     H34923  10.149   2.781   1.133 -0.4401  2.2968  4.6543
  259MOL0     H34924  10.181   2.614   1.091 -0.3182 -1.6193 -0.1936
  259MOL0     H34925  10.259   2.421   1.158 -1.5574 -3.8785  3.6458
  259MOL0     H34926  10.389   2.252   1.214  4.0659 -0.8735 -0.1678
  259MOL0     H34927  10.742   2.111   1.716  2.3097  0.2420  1.3123
  259MOL0     H34928  10.904   1.922   1.727  0.7508 -0.4222  0.3512
  259MOL0     H34929  11.094   1.805   1.731 -3.0740 -2.3800  2.9030
  259MOL0     H34930  10.974   1.701   1.678  0.6109 -1.5330  1.2988
  259MOL0     H34931  11.160   1.559   1.695 -2.4151 -1.2458 -1.4623
  259MOL0     H34932  11.172   1.603   1.526 -0.3398 -0.4658  0.7779
  259MOL0     H34933  11.341   1.790   1.577  0.0172  3.9229  2.7991
  259MOL0     H34934  11.309   1.756   1.745  0.7604  0.1352  0.1236
  259MOL0     H34935  11.456   1.543   1.568  0.5610 -3.6919  2.7623
  259MOL0     H34936  11.408   1.527   1.737 -1.0211 -2.1761 -2.4139
  259MOL0     H34937  11.623   1.596   1.757  0.5959  1.7841  0.7136
  259MOL0     H34938  11.531   1.738   1.799  2.2878 -1.1853  2.7062
  259MOL0     H34939  11.630   1.672   1.526 -3.0036 -2.2491  3.5856
  259MOL0     H34940  11.569   1.833   1.589 -0.6943  0.3083  1.3985
  259MOL0     H34941  11.824   1.840   1.555 -0.8218 -3.6292 -1.7771
  259MOL0     H34942  11.841   1.701   1.661 -1.9991 -2.0998  0.4584
  259MOL0     H34943  11.726   1.870   1.849 -2.2245  0.2071 -1.3019
  259MOL0     H34944  11.880   1.915   1.797 -1.2836  1.8899  2.4453
  259MOL0     H34945  10.965   1.948   1.303 -0.3283  2.6057 -1.8640
  259MOL0     H34946  10.799   2.113   1.288 -1.8019 -2.4992 -1.1481
  259MOL0     H34947  10.598   2.481   1.520 -1.7494 -2.4366  1.3645
  259MOL0     H34948  10.466   2.685   1.433 -2.1610  0.0903 -1.0570
  259MOL0     H34949   9.307   2.164   1.537 -2.4264  2.5965 -1.7736
  259MOL0     H34950   9.535   2.094   1.572 -2.9652 -1.8191  1.0705
  259MOL0     H34951   9.854   2.130   1.866 -0.2647  0.5530  0.1382
  259MOL0     H34952  10.061   2.025   1.967 -0.8815 -3.1729 -3.9183
  259MOL0     H34953  10.286   1.901   1.969  0.8069  0.6307  2.3725
  259MOL0     H34954  10.280   2.056   2.069  0.9492 -0.1821  1.0523
  259MOL0     H34955  10.508   2.089   2.058 -0.4585 -0.1461  0.3436
  259MOL0     H34956  10.535   1.951   1.941 -0.1266 -1.4509  0.1439
  259MOL0     H34957  10.601   1.940   2.172 -0.5674  1.3227  0.7947
  259MOL0     H34958  10.515   1.797   2.109  1.3262  0.4250 -1.3222
  259MOL0     H34959  10.449   1.873   2.343 -2.3825 -1.0550  0.6587
  259MOL0     H34960  10.367   2.003   2.276 -0.4521 -1.9063  2.9506
  259MOL0     H34961  10.123   1.682   2.149 -0.1965  1.1331 -4.0987
  259MOL0     H34962  10.300   2.253   1.694  0.5679  0.5794  0.3836
  259MOL0     H34963  10.018   2.376   1.500  0.1640  1.9299 -0.3238
  259MOL0     H34964  10.120   2.487   1.597  0.2538 -0.6120 -0.3804
  259MOL0     H34965  10.185   2.347   1.504  1.4233 -2.4089  1.2460
  260MOL0     O34966  10.206   7.077   4.560 -0.6474 -0.1567  0.2950
  260MOL0     C34967  10.122   7.008   4.506 -0.0978 -0.0569  0.3469
  260MOL0     O34968  10.155   6.891   4.445  0.0484 -0.4730 -0.8194
  260MOL0     C34969  10.282   6.853   4.445  0.3197 -0.4393  0.4361
  260MOL0     C34970  10.327   6.774   4.549 -0.8692  0.8863  0.0805
  260MOL0     C34971  10.450   6.718   4.554 -0.7485 -0.7262  0.2539
  260MOL0     C34972  10.541   6.743   4.449 -0.4286 -0.1277 -0.8689
  260MOL0     O34973  10.666   6.690   4.453 -0.6607  0.3527  1.1008
  260MOL0     C34974  10.774   6.779   4.478 -0.5236  0.3490  0.1254
  260MOL0     C34975  10.844   6.743   4.612  0.7140 -0.0886  0.0456
  260MOL0     C34976  10.967   6.837   4.641 -0.2377  0.4216 -0.1742
  260MOL0     C34977  11.036   6.808   4.781  0.3326 -0.6260  0.0628
  260MOL0     C34978  11.144   6.913   4.810 -0.3873 -0.6056  0.1941
  260MOL0     C34979  11.279   6.912   4.729  0.2884 -0.7536  0.3549
  260MOL0     C34980  11.385   7.018   4.772 -0.8144 -0.9514 -0.2538
  260MOL0     C34981  11.352   7.159   4.727  0.3220  0.4674 -0.1881
  260MOL0     N34982  11.473   7.239   4.722  0.0205  0.8158 -0.1736
  260MOL0     C34983  11.533   7.282   4.839 -0.3110 -0.0323  0.1419
  260MOL0     C34984  11.660   7.320   4.800  0.3858  0.8495  1.1834
  260MOL0     C34985  11.769   7.361   4.888  0.3746  0.4624 -0.1603
  260MOL0     C34986  11.821   7.243   4.975 -1.0853 -0.1934 -0.3598
  260MOL0     C34987  11.956   7.285   5.037 -0.5607  0.1178 -0.7634
  260MOL0     C34988  12.023   7.159   5.098 -0.0913  0.1178 -0.5028
  260MOL0     O34989  12.092   7.082   4.990  0.3409 -0.9810  0.2895
  260MOL0     C34990  12.227   7.094   4.997 -0.1250  1.1459  0.2066
  260MOL0     C34991  12.299   7.023   5.095 -0.2532 -0.3294 -0.1982
  260MOL0     C34992  12.438   7.020   5.094 -0.1357  0.3256 -0.2583
  260MOL0     C34993  12.510   7.088   4.988  0.4814 -0.7478 -0.6789
  260MOL0     C34994  12.652   7.094   4.983 -0.1203  0.3453 -0.3450
  260MOL0     O34995  12.721   7.197   4.923  0.1287  0.4375  0.2357
  260MOL0     C34996  12.856   7.180   4.919 -0.2304 -0.2487 -0.9359
  260MOL0     C34997  12.925   7.107   4.821 -0.7890  0.4727  0.9108
  260MOL0     C34998  13.064   7.110   4.811 -0.5305  0.5924 -0.9520
  260MOL0     C34999  13.133   7.182   4.910 -0.0922  0.7023  0.1279
  260MOL0     O35000  13.269   7.189   4.917  0.5727 -0.0764 -0.5995
  260MOL0     C35001  13.339   7.101   4.846 -0.4783 -0.8310  0.6644
  260MOL0     C35002  13.490   7.101   4.875 -0.0254  0.5608 -0.5297
  260MOL0     C35003  13.558   7.231   4.868 -0.2947  0.0654 -0.0264
  260MOL0     C35004  13.708   7.231   4.906  0.0785 -0.9443  0.1473
  260MOL0     C35005  13.773   7.370   4.891  0.2196 -0.4104 -0.1078
  260MOL0     C35006  13.926   7.366   4.913 -0.0162  0.5736 -0.1816
  260MOL0     C35007  13.961   7.336   5.056  0.0398  0.7843  0.0697
  260MOL0     C35008  14.105   7.358   5.080 -0.2196  0.2817  0.6311
  260MOL0    Cl35009  14.116   7.355   5.258  0.3830 -0.0344  0.0991
  260MOL0     C35010  13.065   7.245   5.011  0.1051 -0.8112 -0.0036
  260MOL0     C35011  12.928   7.250   5.016 -0.1676 -0.0070  0.1206
  260MOL0     O35012  12.705   7.001   5.043 -0.6952 -0.2654 -0.8210
  260MOL0     C35013  12.439   7.158   4.897 -0.5292  0.6080  0.4308
  260MOL0     C35014  12.302   7.165   4.902  0.3634  0.7740 -0.1182
  260MOL0     N35015  11.666   7.290   4.663  0.2297 -0.3964 -0.2151
  260MOL0     N35016  11.557   7.253   4.616  0.3772 -0.3608 -0.3890
  260MOL0     C35017  10.502   6.830   4.347  0.9318 -0.0231 -0.3830
  260MOL0     C35018  10.368   6.878   4.336 -0.1655  0.3661  0.2213
  260MOL0     C35019   9.976   7.037   4.517  0.2615 -0.0559 -0.0373
  260MOL0     C35020   9.884   6.951   4.457  0.2195 -0.3589 -0.2691
  260MOL0     C35021   9.749   6.973   4.483  0.0533  0.3709  0.0735
  260MOL0     C35022   9.697   7.071   4.558  0.0552 -0.4738 -0.8883
  260MOL0     O35023   9.560   7.069   4.566 -0.1249  0.1196 -0.3915
  260MOL0     C35024   9.496   7.145   4.660 -0.1167 -0.4561 -0.1564
  260MOL0     C35025   9.495   7.080   4.800 -0.4377 -0.3390  0.6563
  260MOL0     C35026   9.444   7.171   4.918 -0.6011  1.0547  0.4176
  260MOL0     C35027   9.545   7.245   5.001 -0.8151  0.4142  0.5637
  260MOL0     C35028   9.622   7.347   4.921  0.6290  0.5802  0.1169
  260MOL0     C35029   9.697   7.419   4.857  0.2821 -0.0364 -0.0540
  260MOL0     C35030   9.791   7.165   4.615  0.3773 -0.1783 -0.0804
  260MOL0     C35031   9.926   7.150   4.592 -0.6886 -0.1662  0.4364
  260MOL0     C35032  10.013   7.259   4.649  0.1796  0.0308  0.1159
  260MOL0     H35033  10.273   6.760   4.642  0.9395 -3.0102  0.7486
  260MOL0     H35034  10.485   6.667   4.643 -2.9042  0.5130  1.8889
  260MOL0     H35035  10.845   6.781   4.395  2.7056 -1.7193  2.5496
  260MOL0     H35036  10.730   6.879   4.489 -2.2476 -0.4276  0.6336
  260MOL0     H35037  10.890   6.644   4.601  1.1497  0.1425 -0.2077
  260MOL0     H35038  10.781   6.736   4.702  2.4821 -3.8232  1.2186
  260MOL0     H35039  10.939   6.942   4.626  0.0048  0.3850 -0.9355
  260MOL0     H35040  11.040   6.820   4.561 -0.6824  0.9817 -0.7176
  260MOL0     H35041  10.963   6.819   4.861 -1.2513 -3.5004 -0.8355
  260MOL0     H35042  11.077   6.707   4.776 -1.2097 -1.3189  0.7479
  260MOL0     H35043  11.111   7.017   4.805  1.8859  0.2217  1.1736
  260MOL0     H35044  11.172   6.908   4.916 -2.8330  0.5149  0.9679
  260MOL0     H35045  11.322   6.812   4.737 -0.4977 -1.1223  0.0574
  260MOL0     H35046  11.251   6.921   4.624 -0.0432 -2.2537  0.2971
  260MOL0     H35047  11.484   6.989   4.734 -0.7660  0.6245 -1.4546
  260MOL0     H35048  11.387   7.024   4.881 -0.1406  1.8607 -0.3368
  260MOL0     H35049  11.303   7.157   4.629  0.1576  2.2859 -0.1827
  260MOL0     H35050  11.294   7.212   4.803  3.1463  3.7488 -0.0723
  260MOL0     H35051  11.500   7.282   4.943 -2.7359 -1.5127 -0.5426
  260MOL0     H35052  11.843   7.390   4.813  1.5901 -3.1774 -0.5322
  260MOL0     H35053  11.736   7.444   4.952  0.9384  0.2852  0.3697
  260MOL0     H35054  11.748   7.215   5.051  0.8036 -2.1643  0.8135
  260MOL0     H35055  11.830   7.156   4.910  2.6957 -0.8007  0.7694
  260MOL0     H35056  11.935   7.360   5.114 -1.7850 -1.7842  0.8859
  260MOL0     H35057  12.018   7.334   4.961 -1.5104  1.9140 -0.4308
  260MOL0     H35058  11.946   7.092   5.137  0.9909 -0.0384  1.5227
  260MOL0     H35059  12.101   7.190   5.168 -0.7605 -0.4490  0.5230
  260MOL0     H35060  12.240   6.974   5.171  0.3366 -0.4093  0.2089
  260MOL0     H35061  12.490   6.963   5.171  0.9487  0.5609 -0.7903
  260MOL0     H35062  12.869   7.042   4.754  2.0572 -0.0690 -1.1399
  260MOL0     H35063  13.111   7.059   4.728 -2.4208 -0.9649 -1.1472
  260MOL0     H35064  13.301   6.998   4.854 -0.0907 -0.9089  1.7089
  260MOL0     H35065  13.326   7.135   4.743 -0.7199 -1.4378  0.4893
  260MOL0     H35066  13.506   7.049   4.970 -0.8031 -0.4670 -0.9456
  260MOL0     H35067  13.534   7.038   4.798  5.4007 -1.3915  3.5426
  260MOL0     H35068  13.562   7.273   4.768  2.4409 -1.5700 -0.7099
  260MOL0     H35069  13.494   7.293   4.932 -0.0452  0.1337  0.1591
  260MOL0     H35070  13.758   7.153   4.848  0.2668 -0.1067 -0.8575
  260MOL0     H35071  13.727   7.194   5.007 -0.4786 -1.3432  0.1137
  260MOL0     H35072  13.738   7.439   4.968  1.5380  0.5340 -0.3320
  260MOL0     H35073  13.758   7.407   4.789  2.1848  0.7435 -0.0324
  260MOL0     H35074  13.966   7.288   4.848 -2.0484 -0.9810  0.3410
  260MOL0     H35075  13.971   7.461   4.883  0.1892  1.6380  3.0823
  260MOL0     H35076  13.938   7.229   5.066  0.3591  0.7176  0.0940
  260MOL0     H35077  13.901   7.398   5.123 -1.7543 -0.2728 -0.4969
  260MOL0     H35078  14.169   7.279   5.039  0.7167  0.5692  1.5029
  260MOL0     H35079  14.145   7.450   5.037 -1.3586  0.3798 -0.2764
  260MOL0     H35080  13.123   7.294   5.090  1.3376 -0.7285 -0.9216
  260MOL0     H35081  12.879   7.312   5.090 -1.2200 -0.8499  0.1589
  260MOL0     H35082  12.500   7.189   4.813 -0.2137 -3.6911 -1.1473
  260MOL0     H35083  12.246   7.217   4.824 -2.1165  0.6638  1.4767
  260MOL0     H35084  10.576   6.852   4.271  1.9736  3.1636  1.3940
  260MOL0     H35085  10.321   6.933   4.255 -1.8815 -1.2717  0.0410
  260MOL0     H35086   9.911   6.856   4.412 -0.1655 -2.4093  3.4179
  260MOL0     H35087   9.674   6.900   4.455 -0.2035 -0.2395  2.1910
  260MOL0     H35088   9.396   7.154   4.616  0.0926 -0.5217 -0.6638
  260MOL0     H35089   9.525   7.251   4.659 -2.0780  0.2172 -3.8334
  260MOL0     H35090   9.597   7.046   4.821 -0.3230  0.7332  1.9583
  260MOL0     H35091   9.423   6.998   4.800  0.3477 -1.0615  1.5265
  260MOL0     H35092   9.386   7.111   4.988  0.4497  0.1493  0.5383
  260MOL0     H35093   9.372   7.238   4.870  0.4585  0.4800 -2.1490
  260MOL0     H35094   9.497   7.298   5.084  1.1366  1.1907  1.2597
  260MOL0     H35095   9.617   7.179   5.049 -0.2530  0.8105  0.2822
  260MOL0     H35096   9.761   7.476   4.792 -2.0907  1.2857 -1.3414
  260MOL0     H35097   9.743   7.247   4.668 -1.0009  1.3658 -3.3977
  260MOL0     H35098  10.064   7.216   4.735 -2.8384  2.9473  3.6925
  260MOL0     H35099  10.092   7.295   4.582 -1.6999  2.5708 -0.8890
  260MOL0     H35100   9.955   7.345   4.681  2.9924  0.0989  6.4999
  261MOL0     O35101   4.162   9.462   5.502 -0.1620 -0.2743 -0.4289
  261MOL0     C35102   4.210   9.510   5.399 -0.9627  0.2762 -0.5689
  261MOL0     O35103   4.147   9.532   5.281  0.2080 -0.3125 -0.0854
  261MOL0     C35104   4.011   9.502   5.285 -0.6664  0.1843 -1.3144
  261MOL0     C35105   3.970   9.390   5.222  0.7621  0.0191  0.2265
  261MOL0     C35106   3.830   9.357   5.229 -0.7286 -0.6123  0.2462
  261MOL0     C35107   3.742   9.441   5.303 -0.1313  0.3089  0.2229
  261MOL0     O35108   3.609   9.415   5.312  0.2925 -0.1606  0.6901
  261MOL0     C35109   3.563   9.318   5.222 -0.1552 -0.0906  0.7290
  261MOL0     C35110   3.416   9.303   5.225 -0.5918 -0.0638 -0.5204
  261MOL0     C35111   3.378   9.215   5.349  0.1755  0.2525 -0.2916
  261MOL0     C35112   3.223   9.205   5.360 -0.9452  0.0915 -0.3042
  261MOL0     C35113   3.182   9.165   5.502  0.0039  0.3952  0.4224
  261MOL0     C35114   3.243   9.038   5.558 -0.9620  0.1475  0.5305
  261MOL0     C35115   3.203   9.019   5.702 -0.0480  0.1170  0.0208
  261MOL0     C35116   3.236   8.874   5.742 -0.1772 -0.1120 -0.4155
  261MOL0     N35117   3.389   8.863   5.755 -0.4247  0.1064  0.4601
  261MOL0     C35118   3.478   8.824   5.656 -0.1870 -0.9040 -0.0746
  261MOL0     C35119   3.596   8.861   5.705 -0.6608 -0.4617 -0.3248
  261MOL0     C35120   3.714   8.857   5.623 -0.6088  0.4274  0.0428
  261MOL0     C35121   3.775   8.714   5.627  0.4109 -0.4705  0.6599
  261MOL0     C35122   3.917   8.720   5.559 -0.0744 -0.1085  0.0640
  261MOL0     C35123   3.968   8.574   5.524 -0.5889  0.0834 -0.0336
  261MOL0     O35124   4.108   8.562   5.476  0.1905  0.0983  0.0030
  261MOL0     C35125   4.207   8.603   5.560 -0.0424 -0.5214 -0.5138
  261MOL0     C35126   4.242   8.739   5.565 -0.1185 -1.7430  0.2864
  261MOL0     C35127   4.353   8.774   5.643  0.4145 -0.6651  0.0258
  261MOL0     C35128   4.424   8.673   5.716 -0.8249  0.4687 -0.1790
  261MOL0     C35129   4.541   8.703   5.800  0.0893  0.2498  0.1320
  261MOL0     O35130   4.642   8.774   5.751  0.2791  0.7161  0.4746
  261MOL0     C35131   4.749   8.803   5.819 -0.3993 -0.6054  0.0289
  261MOL0     C35132   4.741   8.858   5.950  0.7424 -0.0246 -0.6531
  261MOL0     C35133   4.862   8.897   6.024  0.8306  0.7456  0.1126
  261MOL0     C35134   4.987   8.887   5.960 -0.4969  0.3227 -0.2659
  261MOL0     O35135   5.104   8.925   6.017 -0.1393 -0.6868  0.5230
  261MOL0     C35136   5.131   8.863   6.146  0.4340  0.4047  0.2562
  261MOL0     C35137   5.278   8.860   6.172  0.7680 -0.4075 -0.1377
  261MOL0     C35138   5.311   8.997   6.234  0.0345  0.1146 -0.5783
  261MOL0     C35139   5.456   9.001   6.261  0.0527 -0.5866 -0.2230
  261MOL0     C35140   5.511   9.143   6.300  0.6513  0.7252 -0.6217
  261MOL0     C35141   5.668   9.144   6.293 -0.5803 -0.3097 -0.9192
  261MOL0     C35142   5.722   9.281   6.336 -0.3587 -0.0205 -0.4392
  261MOL0     C35143   5.673   9.337   6.466 -0.1063 -0.3146 -0.4203
  261MOL0    Cl35144   5.742   9.252   6.604  0.3624  0.1049  0.6964
  261MOL0     C35145   4.994   8.826   5.832 -0.2828 -0.4311 -0.1632
  261MOL0     C35146   4.882   8.789   5.761 -0.1212 -0.2523 -0.2673
  261MOL0     O35147   4.545   8.650   5.914  0.3474 -0.3322  0.3233
  261MOL0     C35148   4.392   8.539   5.710 -0.1876  0.6813 -0.3131
  261MOL0     C35149   4.278   8.504   5.631 -0.0447 -1.0270  0.1857
  261MOL0     N35150   3.580   8.907   5.838  0.3662  0.0413  0.3393
  261MOL0     N35151   3.454   8.904   5.864 -0.3395  0.1953  0.7453
  261MOL0     C35152   3.792   9.547   5.371 -0.2212 -0.3001 -0.7907
  261MOL0     C35153   3.922   9.589   5.353  0.4789  0.1344 -0.0252
  261MOL0     C35154   4.354   9.546   5.402 -0.3998  0.4478  0.5638
  261MOL0     C35155   4.438   9.514   5.292  0.3419 -0.0403 -0.4605
  261MOL0     C35156   4.576   9.516   5.302  0.1320 -0.2418 -0.5251
  261MOL0     C35157   4.635   9.563   5.420 -0.2371 -0.1393  0.8588
  261MOL0     O35158   4.772   9.562   5.410  0.0558 -0.3888 -0.7908
  261MOL0     C35159   4.841   9.626   5.515 -0.9789  0.3089  0.1410
  261MOL0     C35160   5.001   9.603   5.489  0.3461  0.8375  0.2625
  261MOL0     C35161   5.103   9.648   5.597  0.7038  0.0827 -0.4396
  261MOL0     C35162   5.090   9.791   5.658 -0.3205  0.7054  0.4165
  261MOL0     C35163   5.085   9.893   5.556 -0.8803  0.4396 -0.3131
  261MOL0     C35164   5.090   9.991   5.488 -0.2967 -0.1484  0.7819
  261MOL0     C35165   4.554   9.604   5.531  0.6629 -0.4427 -0.8754
  261MOL0     C35166   4.415   9.603   5.516  1.0662 -0.0873 -0.2959
  261MOL0     C35167   4.334   9.645   5.638 -0.8711 -0.1958 -0.4566
  261MOL0     H35168   4.046   9.343   5.160 -0.7746  1.4149 -2.9452
  261MOL0     H35169   3.797   9.274   5.168 -0.6991  0.4905 -1.3223
  261MOL0     H35170   3.583   9.355   5.121 -0.3726  3.6493  1.8987
  261MOL0     H35171   3.610   9.224   5.249 -1.0024 -0.6445  0.3157
  261MOL0     H35172   3.396   9.258   5.127  0.9572  0.5131 -1.1235
  261MOL0     H35173   3.370   9.402   5.226  0.2755  0.3439  0.0925
  261MOL0     H35174   3.412   9.265   5.441 -3.0315 -0.5023  1.4686
  261MOL0     H35175   3.419   9.115   5.333 -2.9649 -1.0963 -0.7594
  261MOL0     H35176   3.189   9.306   5.336  0.7193  1.3962  2.3612
  261MOL0     H35177   3.192   9.136   5.281 -0.4684 -0.0322 -0.3814
  261MOL0     H35178   3.206   9.246   5.572 -0.1330 -0.6168  1.6793
  261MOL0     H35179   3.074   9.167   5.491 -0.0166  0.5215  0.6286
  261MOL0     H35180   3.201   8.961   5.493 -1.5052  2.0396 -1.4846
  261MOL0     H35181   3.352   9.038   5.554 -1.0029  0.2482 -0.7595
  261MOL0     H35182   3.096   9.038   5.716 -1.0127 -3.4726 -1.4080
  261MOL0     H35183   3.266   9.089   5.758 -1.1531  0.9870  0.2223
  261MOL0     H35184   3.193   8.839   5.836 -0.0417 -0.8151 -0.6048
  261MOL0     H35185   3.200   8.808   5.662  1.9772  0.0021 -1.5576
  261MOL0     H35186   3.467   8.792   5.553  2.1801  0.1183 -0.7195
  261MOL0     H35187   3.688   8.869   5.518  2.0189  1.9553 -0.5137
  261MOL0     H35188   3.777   8.941   5.651 -1.4338 -0.1572  4.3290
  261MOL0     H35189   3.784   8.663   5.724 -0.9522  1.1211  1.6819
  261MOL0     H35190   3.700   8.664   5.566 -1.2640 -0.5114  2.6354
  261MOL0     H35191   3.985   8.774   5.625  0.2412  1.2329 -1.3169
  261MOL0     H35192   3.896   8.771   5.465 -1.7936  0.8256  0.9035
  261MOL0     H35193   3.905   8.520   5.452  0.0983 -0.2422 -0.4009
  261MOL0     H35194   3.960   8.513   5.615  0.1298 -2.2263 -1.4304
  261MOL0     H35195   4.210   8.805   5.485  2.9797  1.3720  1.4141
  261MOL0     H35196   4.397   8.873   5.650  3.3721 -1.3056 -4.8046
  261MOL0     H35197   4.646   8.861   6.003  0.5299  1.5570 -1.0669
  261MOL0     H35198   4.852   8.942   6.122 -1.4933 -0.2153  0.3790
  261MOL0     H35199   5.083   8.931   6.217 -0.3846  1.6265 -1.3839
  261MOL0     H35200   5.087   8.763   6.155  0.4064  0.3542 -0.3913
  261MOL0     H35201   5.303   8.775   6.237  1.0831  0.5603  1.0452
  261MOL0     H35202   5.335   8.852   6.079 -1.1577  3.4413 -1.8921
  261MOL0     H35203   5.279   9.072   6.162 -2.5980 -0.7346 -0.4279
  261MOL0     H35204   5.258   9.004   6.330 -2.1196 -0.2730 -1.6727
  261MOL0     H35205   5.516   8.967   6.176 -0.0402 -1.0136 -0.1210
  261MOL0     H35206   5.474   8.932   6.344 -1.2287 -2.2305 -1.2463
  261MOL0     H35207   5.471   9.161   6.400 -1.5681  0.0184 -1.3423
  261MOL0     H35208   5.479   9.219   6.228  1.0283  0.7972 -0.7149
  261MOL0     H35209   5.715   9.077   6.366  1.0701  0.3812 -1.3139
  261MOL0     H35210   5.708   9.114   6.196 -0.0883 -0.4586 -0.6750
  261MOL0     H35211   5.697   9.349   6.253  0.7291  3.0491  1.5656
  261MOL0     H35212   5.831   9.276   6.333 -0.4173 -3.8552 -2.1955
  261MOL0     H35213   5.700   9.442   6.480  0.8485 -0.7398  1.2254
  261MOL0     H35214   5.563   9.335   6.469 -0.1018 -1.8209  1.5491
  261MOL0     H35215   5.092   8.826   5.786  0.7833 -2.2111  1.9415
  261MOL0     H35216   4.885   8.744   5.662 -0.0714 -0.8574  0.0065
  261MOL0     H35217   4.441   8.450   5.745 -1.3918 -0.4246 -1.3337
  261MOL0     H35218   4.254   8.402   5.603 -1.6673 -0.2198 -1.5718
  261MOL0     H35219   3.723   9.603   5.433 -1.5696 -0.9930 -1.6027
  261MOL0     H35220   3.955   9.687   5.384 -0.8990  0.2134  1.3331
  261MOL0     H35221   4.400   9.497   5.191  1.4957 -2.0464 -0.6197
  261MOL0     H35222   4.634   9.502   5.211 -1.7469 -0.6015 -1.7253
  261MOL0     H35223   4.814   9.569   5.605 -1.1621 -1.5287 -1.0222
  261MOL0     H35224   4.810   9.731   5.507 -2.0952 -0.1394 -2.8941
  261MOL0     H35225   5.018   9.645   5.390 -1.2222 -0.9003 -0.7888
  261MOL0     H35226   5.033   9.502   5.464  4.0658  1.9076  0.0805
  261MOL0     H35227   5.200   9.650   5.548 -0.7312  2.8856 -3.6057
  261MOL0     H35228   5.093   9.580   5.682  0.8063  2.9396  2.0146
  261MOL0     H35229   4.997   9.805   5.714 -0.1666  0.7399  0.6660
  261MOL0     H35230   5.165   9.819   5.733  0.3972  0.4099 -0.1779
  261MOL0     H35231   5.088  10.076   5.423 -0.1732 -1.9857 -1.7882
  261MOL0     H35232   4.603   9.616   5.627  1.5621 -1.1806 -1.2215
  261MOL0     H35233   4.406   9.679   5.713  2.7149 -1.3261 -3.1349
  261MOL0     H35234   4.260   9.722   5.614 -0.7915 -0.2925 -1.0236
  261MOL0     H35235   4.294   9.556   5.688  0.0423  0.2595  1.1962
  262MOL0     O35236   7.205   4.214  10.750 -0.0718 -0.6596 -0.6341
  262MOL0     C35237   7.161   4.283  10.656  0.1361 -0.1694 -0.4411
  262MOL0     O35238   7.188   4.412  10.633  0.1738 -0.1332  0.8391
  262MOL0     C35239   7.291   4.481  10.695  0.2741  0.3658 -0.8406
  262MOL0     C35240   7.339   4.594  10.627 -0.1234  0.4239 -0.4011
  262MOL0     C35241   7.435   4.671  10.686  0.1569 -1.2761  0.2140
  262MOL0     C35242   7.479   4.653  10.813  0.4915 -0.1364 -0.7905
  262MOL0     O35243   7.557   4.758  10.872 -0.5097  0.3572 -0.1130
  262MOL0     C35244   7.642   4.718  10.987 -1.2426 -0.5559 -0.5151
  262MOL0     C35245   7.764   4.817  10.980  0.4216  0.3318  0.1082
  262MOL0     C35246   7.853   4.797  11.095 -0.4433 -0.0750  0.2413
  262MOL0     C35247   7.976   4.878  11.101 -0.0078 -0.2060  0.0067
  262MOL0     C35248   8.015   4.901  11.240 -1.1764 -0.0028 -0.5681
  262MOL0     C35249   8.156   4.957  11.262 -0.0992 -0.1483 -0.6328
  262MOL0     C35250   8.287   4.854  11.259  1.0056 -0.3667  0.1454
  262MOL0     C35251   8.369   4.895  11.378 -0.3913 -0.4205  0.3013
  262MOL0     N35252   8.487   4.800  11.388 -0.8979 -0.6201  0.3816
  262MOL0     C35253   8.478   4.665  11.401 -0.2011  0.4058 -0.2134
  262MOL0     C35254   8.595   4.620  11.449 -0.1420 -0.2313 -0.0785
  262MOL0     C35255   8.626   4.491  11.515  0.4134  0.0899  0.4073
  262MOL0     C35256   8.709   4.397  11.418  1.0454 -0.7227 -0.2696
  262MOL0     C35257   8.743   4.265  11.486  0.3669  0.3441  0.2179
  262MOL0     C35258   8.838   4.284  11.608  0.3764  0.1462  0.1451
  262MOL0     O35259   8.931   4.393  11.587 -0.1999 -0.0241  0.7759
  262MOL0     C35260   9.069   4.387  11.600 -0.3681 -0.0317  0.9324
  262MOL0     C35261   9.146   4.499  11.551  0.3625  0.7251  0.5351
  262MOL0     C35262   9.284   4.500  11.561 -0.5157 -0.2384  0.3148
  262MOL0     C35263   9.353   4.389  11.614  0.0053  0.4198  0.4347
  262MOL0     C35264   9.501   4.371  11.604 -0.1246 -0.6864  0.3651
  262MOL0     O35265   9.557   4.245  11.614  0.4144  0.1921  0.2450
  262MOL0     C35266   9.686   4.226  11.573 -0.1811  0.2096  0.0543
  262MOL0     C35267   9.786   4.187  11.666 -0.1795 -0.2656 -0.1012
  262MOL0     C35268   9.916   4.165  11.622 -0.4054  0.3760  0.6425
  262MOL0     C35269   9.948   4.184  11.488 -0.0647  0.0664 -0.2796
  262MOL0     O35270  10.073   4.156  11.449 -0.4258 -0.5211 -0.7825
  262MOL0     C35271  10.169   4.244  11.515  0.4410 -0.2915  0.3300
  262MOL0     C35272  10.257   4.175  11.615 -0.1981  0.2874 -0.3076
  262MOL0     C35273  10.385   4.249  11.636  0.2757  1.0608 -1.0367
  262MOL0     C35274  10.498   4.153  11.651  0.1097 -0.0004  0.0651
  262MOL0     C35275  10.631   4.235  11.657  0.2606  0.0653 -0.0802
  262MOL0     C35276  10.748   4.147  11.668  0.3030 -0.2974  0.1875
  262MOL0     C35277  10.761   4.086  11.815 -0.2969  0.3313 -0.6392
  262MOL0     C35278  10.848   3.955  11.808 -0.1578  0.2740  0.8379
  262MOL0    Cl35279  10.919   3.916  11.967 -0.4571  0.3343  0.2475
  262MOL0     C35280   9.848   4.211  11.397 -0.2829 -0.1983 -0.8347
  262MOL0     C35281   9.721   4.242  11.438  0.4862  0.5240  0.3097
  262MOL0     O35282   9.558   4.471  11.568 -0.0649 -0.4976  0.9685
  262MOL0     C35283   9.270   4.278  11.649 -1.0633  0.6519  0.7659
  262MOL0     C35284   9.133   4.283  11.656 -0.0203 -0.6724 -0.0423
  262MOL0     N35285   8.683   4.726  11.465 -0.0264  0.0437  0.5758
  262MOL0     N35286   8.615   4.831  11.430  0.4276 -0.4587  0.2159
  262MOL0     C35287   7.422   4.550  10.886  0.5746  0.0326 -0.8374
  262MOL0     C35288   7.338   4.456  10.829  0.8427 -0.5264 -0.5481
  262MOL0     C35289   7.077   4.213  10.546 -0.0924 -0.5149  0.3267
  262MOL0     C35290   7.039   4.288  10.436 -0.1150 -1.1158  0.0217
  262MOL0     C35291   6.963   4.236  10.329 -0.0158  0.2855  0.5726
  262MOL0     C35292   6.892   4.118  10.347  0.0792  1.1294  0.8358
  262MOL0     O35293   6.800   4.084  10.248 -0.3536  0.4960 -0.2577
  262MOL0     C35294   6.825   3.947  10.198  0.7113 -1.1181  0.5760
  262MOL0     C35295   6.697   3.862  10.217 -0.0351  0.0887 -0.0901
  262MOL0     C35296   6.722   3.732  10.137  0.3253  0.7243 -0.1565
  262MOL0     C35297   6.658   3.743  10.005  0.1689  0.1979  1.4121
  262MOL0     C35298   6.690   3.630   9.911  0.8674  0.2831  0.3646
  262MOL0     C35299   6.699   3.555   9.820 -1.2960  0.8338 -0.0575
  262MOL0     C35300   6.911   4.049  10.458 -0.3437 -0.0545 -0.3648
  262MOL0     C35301   7.000   4.091  10.558 -0.2136 -0.4081  0.4386
  262MOL0     C35302   7.004   4.009  10.675  0.9358  0.1656 -1.3373
  262MOL0     H35303   7.314   4.627  10.527 -1.4063  0.3210 -0.1375
  262MOL0     H35304   7.479   4.758  10.637 -1.2580  0.7142  2.2696
  262MOL0     H35305   7.589   4.721  11.082 -0.9780  0.3189 -0.3861
  262MOL0     H35306   7.674   4.613  10.980  2.2300  0.4155 -0.8959
  262MOL0     H35307   7.727   4.920  10.989 -0.5570  0.0252 -0.3464
  262MOL0     H35308   7.818   4.803  10.885  1.0812  3.8809 -0.1773
  262MOL0     H35309   7.892   4.695  11.088  0.4150  0.3546 -4.1669
  262MOL0     H35310   7.794   4.804  11.187 -0.0345 -0.9045  0.5827
  262MOL0     H35311   8.055   4.818  11.056  2.0082  3.0983 -1.2551
  262MOL0     H35312   7.974   4.975  11.050  3.8787  0.1934  0.3577
  262MOL0     H35313   7.946   4.970  11.290 -0.2423  0.0492  0.7038
  262MOL0     H35314   8.004   4.813  11.304  1.0800  1.5810  2.2648
  262MOL0     H35315   8.178   5.039  11.193 -0.1380  0.3518 -0.0582
  262MOL0     H35316   8.167   5.007  11.358  0.8979 -0.1202 -0.7526
  262MOL0     H35317   8.337   4.891  11.169  0.0132  1.1769  0.1807
  262MOL0     H35318   8.266   4.747  11.251  1.0576 -0.3455 -0.3276
  262MOL0     H35319   8.402   4.998  11.368 -1.1330 -0.3080 -1.4381
  262MOL0     H35320   8.305   4.890  11.466 -2.5185 -1.1697 -1.1802
  262MOL0     H35321   8.401   4.589  11.393  2.0560 -1.9218 -1.4717
  262MOL0     H35322   8.686   4.512  11.604 -1.2360  1.2705  1.2909
  262MOL0     H35323   8.532   4.452  11.554  0.3351 -0.9910 -0.7748
  262MOL0     H35324   8.632   4.368  11.346 -1.3728  0.2017  1.8000
  262MOL0     H35325   8.785   4.452  11.361 -0.0508 -0.5127 -1.5699
  262MOL0     H35326   8.796   4.206  11.411 -0.9217  0.8674 -1.1635
  262MOL0     H35327   8.655   4.210  11.521  1.3928 -0.3485  1.8150
  262MOL0     H35328   8.882   4.187  11.632  0.2660  0.4547  1.6601
  262MOL0     H35329   8.784   4.328  11.692  2.1991  0.5150  1.1708
  262MOL0     H35330   9.096   4.582  11.501 -0.5833 -1.4904 -2.4990
  262MOL0     H35331   9.339   4.578  11.510 -1.3868 -0.3349 -0.8258
  262MOL0     H35332   9.766   4.177  11.773 -0.1798  0.9177  0.0257
  262MOL0     H35333   9.985   4.146  11.703  0.7400  1.0020 -0.1556
  262MOL0     H35334  10.241   4.273  11.438 -0.0161  0.0508  0.0292
  262MOL0     H35335  10.125   4.334  11.558  0.9381 -0.7178  1.8155
  262MOL0     H35336  10.209   4.173  11.714 -2.1293  1.4914 -1.1644
  262MOL0     H35337  10.291   4.076  11.584  4.7721  0.9713  2.0303
  262MOL0     H35338  10.400   4.322  11.556 -2.1203  2.1573 -0.5751
  262MOL0     H35339  10.376   4.315  11.723 -0.5068 -0.5955  0.2025
  262MOL0     H35340  10.502   4.091  11.561  1.8306  1.3073 -0.8353
  262MOL0     H35341  10.478   4.079  11.728 -1.7803 -0.3778 -0.7274
  262MOL0     H35342  10.632   4.305  11.740  1.8058 -0.6517  0.5332
  262MOL0     H35343  10.632   4.293  11.564 -0.4929  0.2527  0.0211
  262MOL0     H35344  10.742   4.060  11.603  1.5508  0.9994 -1.7593
  262MOL0     H35345  10.833   4.211  11.643  0.3661 -0.7686 -0.8387
  262MOL0     H35346  10.676   4.051  11.873 -0.4433  1.1392 -0.3536
  262MOL0     H35347  10.821   4.158  11.872  2.7253 -2.4892  0.0411
  262MOL0     H35348  10.788   3.874  11.768  0.5415 -0.2953  0.9232
  262MOL0     H35349  10.927   3.981  11.736  0.4039 -1.1073  0.9253
  262MOL0     H35350   9.883   4.222  11.295  2.2337  2.2702  0.1648
  262MOL0     H35351   9.639   4.275  11.375 -1.7254 -3.5582  0.6448
  262MOL0     H35352   9.312   4.179  11.666 -2.2178 -0.3108 -1.4755
  262MOL0     H35353   9.076   4.195  11.683  0.0710 -0.6178  0.3449
  262MOL0     H35354   7.427   4.549  10.995  1.2216  0.2736 -0.8557
  262MOL0     H35355   7.295   4.376  10.887  0.6111 -0.7256 -0.9887
  262MOL0     H35356   7.076   4.388  10.420 -0.4045 -0.9523  0.3677
  262MOL0     H35357   6.956   4.285  10.232 -3.2731 -1.8007 -0.4338
  262MOL0     H35358   6.917   3.900  10.234  1.5083 -0.1217 -0.1037
  262MOL0     H35359   6.830   3.959  10.090  0.2452 -1.9312  0.4587
  262MOL0     H35360   6.607   3.915  10.182  1.0076  3.1833  1.5371
  262MOL0     H35361   6.680   3.832  10.321  1.1603 -1.7366 -0.3900
  262MOL0     H35362   6.680   3.644  10.186 -0.1041  1.6075  1.1399
  262MOL0     H35363   6.829   3.710  10.124 -0.1209 -0.1029 -3.0195
  262MOL0     H35364   6.551   3.730  10.026  0.1042  1.8024  2.2254
  262MOL0     H35365   6.670   3.837   9.950  0.3487 -0.9879 -0.6571
  262MOL0     H35366   6.711   3.483   9.742  0.2651  0.7559  0.2252
  262MOL0     H35367   6.852   3.959  10.465  0.4484 -0.5524  0.1182
  262MOL0     H35368   6.930   3.930  10.663  1.5496 -0.9343  1.3823
  262MOL0     H35369   7.102   3.960  10.676  0.0538 -1.7053 -1.9127
  262MOL0     H35370   6.985   4.067  10.766  2.1934 -3.8971  1.8280
  263MOL0     O35371   4.701   8.895   0.164  0.2889 -0.1733  0.1614
  263MOL0     C35372   4.628   8.967   0.223 -0.0111 -0.1441 -1.6444
  263MOL0     O35373   4.667   9.095   0.267  0.6482  0.4324  0.1491
  263MOL0     C35374   4.779   9.156   0.218 -0.4045  0.7770  0.1223
  263MOL0     C35375   4.812   9.272   0.286  0.5995  1.0695 -0.5390
  263MOL0     C35376   4.913   9.363   0.261 -0.3545 -0.1275  0.4844
  263MOL0     C35377   4.975   9.354   0.132  0.1079  0.7104  0.1753
  263MOL0     O35378   5.074   9.450   0.102 -0.7368  0.0349  0.4451
  263MOL0     C35379   5.157   9.437  -0.016  0.9361 -0.4051 -0.5752
  263MOL0     C35380   5.286   9.358   0.013  0.9304 -0.3078 -0.6743
  263MOL0     C35381   5.376   9.423   0.116 -0.1490 -1.0783  0.2106
  263MOL0     C35382   5.333   9.398   0.259  0.4321  0.3780  0.9433
  263MOL0     C35383   5.443   9.432   0.363  0.0775 -0.0727  0.8821
  263MOL0     C35384   5.473   9.579   0.362 -0.0959 -0.0032  0.4736
  263MOL0     C35385   5.575   9.618   0.468  0.8737  0.1257  0.7391
  263MOL0     C35386   5.527   9.658   0.614  0.0218  0.3719 -0.1285
  263MOL0     N35387   5.643   9.635   0.707  1.2656  0.0047  0.5863
  263MOL0     C35388   5.702   9.730   0.786 -0.8406 -0.6912 -0.0339
  263MOL0     C35389   5.777   9.659   0.878 -0.2315 -0.3355 -0.8999
  263MOL0     C35390   5.848   9.722   1.002  0.2796 -0.5208 -0.2731
  263MOL0     C35391   5.987   9.676   1.004 -0.1616 -0.6066  0.5230
  263MOL0     C35392   6.079   9.724   1.117 -0.4671 -0.2205 -0.2305
  263MOL0     C35393   6.224   9.682   1.105  0.1640 -0.9441  0.2027
  263MOL0     O35394   6.306   9.766   1.029 -0.3908 -0.1000  0.8309
  263MOL0     C35395   6.434   9.737   1.021 -1.0298 -0.0471  0.4863
  263MOL0     C35396   6.533   9.839   1.017 -0.2172  0.1503 -0.1471
  263MOL0     C35397   6.670   9.812   1.012 -0.1885  0.5569 -1.1439
  263MOL0     C35398   6.715   9.683   1.002 -0.1871  0.1395 -0.0302
  263MOL0     C35399   6.858   9.649   0.975  0.6204  0.1538  0.5245
  263MOL0     O35400   6.894   9.515   0.955  0.1810 -0.3345  0.1126
  263MOL0     C35401   7.020   9.483   0.931  0.0711 -0.1540 -0.0716
  263MOL0     C35402   7.123   9.561   0.878  0.3197 -0.1850 -0.3229
  263MOL0     C35403   7.250   9.510   0.854  0.0916 -0.2453  0.8712
  263MOL0     C35404   7.285   9.374   0.881 -0.9650  0.6636  0.0636
  263MOL0     O35405   7.405   9.307   0.849  1.0907 -0.4242 -0.2624
  263MOL0     C35406   7.507   9.392   0.794 -0.3188  0.0961 -0.5929
  263MOL0     C35407   7.637   9.317   0.763 -0.5695  0.5070 -0.2936
  263MOL0     C35408   7.711   9.284   0.888  0.3142  0.5957  0.7743
  263MOL0     C35409   7.793   9.156   0.869  0.0578 -0.4977 -0.0039
  263MOL0     C35410   7.911   9.179   0.778  0.3791  0.3431  0.4052
  263MOL0     C35411   8.012   9.061   0.787  0.7110 -0.2778 -0.1712
  263MOL0     C35412   8.135   9.080   0.691 -0.6697  0.1108  0.7243
  263MOL0     C35413   8.101   9.069   0.540  0.3759 -0.4539  0.0912
  263MOL0    Cl35414   8.025   8.908   0.497 -0.0204  0.3233 -0.3652
  263MOL0     C35415   7.185   9.306   0.954  0.3460  0.0246  0.5283
  263MOL0     C35416   7.051   9.353   0.968  0.4559 -0.1961  0.0623
  263MOL0     O35417   6.933   9.746   0.979 -0.5536 -0.0478 -0.0918
  263MOL0     C35418   6.619   9.583   1.008  0.1753  0.1793  0.7612
  263MOL0     C35419   6.485   9.608   1.010 -0.1925 -0.5637 -0.5936
  263MOL0     N35420   5.764   9.525   0.842  0.0136  0.5860  0.5919
  263MOL0     N35421   5.681   9.513   0.750  0.0706  0.5518 -0.0173
  263MOL0     C35422   4.933   9.245   0.048 -0.2968 -0.5739 -0.2134
  263MOL0     C35423   4.844   9.146   0.091  0.0261  0.4459 -0.2190
  263MOL0     C35424   4.493   8.924   0.268  0.4924  0.1276  1.1166
  263MOL0     C35425   4.488   8.808   0.342  1.0264 -0.3410  0.5479
  263MOL0     C35426   4.366   8.762   0.388 -0.2574 -0.4990  0.9061
  263MOL0     C35427   4.245   8.826   0.349 -0.0370  1.0978 -0.3926
  263MOL0     O35428   4.127   8.761   0.386 -0.5133 -0.1241  0.3932
  263MOL0     C35429   4.104   8.734   0.522 -0.0928  0.5572 -0.1220
  263MOL0     C35430   3.963   8.663   0.535 -0.8148  0.1042 -0.1303
  263MOL0     C35431   3.845   8.751   0.504  0.1579  0.1816  0.6724
  263MOL0     C35432   3.718   8.669   0.522  0.0089  0.2923  0.0379
  263MOL0     C35433   3.611   8.726   0.437 -0.2882  0.0931  0.4091
  263MOL0     C35434   3.520   8.771   0.365 -0.7837  0.1282 -0.0676
  263MOL0     C35435   4.258   8.938   0.270  0.7265  0.5526  0.6886
  263MOL0     C35436   4.380   8.990   0.235 -0.9806 -0.3518 -0.1150
  263MOL0     C35437   4.383   9.119   0.163 -0.2715 -0.5229  0.6573
  263MOL0     H35438   4.752   9.300   0.373  1.5846  1.2184  0.1132
  263MOL0     H35439   4.944   9.446   0.323 -0.1464  0.0323  0.1699
  263MOL0     H35440   5.097   9.390  -0.094 -0.3333 -0.7586  0.5786
  263MOL0     H35441   5.185   9.533  -0.061 -1.9769  0.3258 -1.0006
  263MOL0     H35442   5.339   9.341  -0.081  2.0156  1.4814 -0.4266
  263MOL0     H35443   5.257   9.259   0.049  0.1549  0.0243 -0.3721
  263MOL0     H35444   5.388   9.528   0.088 -1.1908 -1.6545 -2.7267
  263MOL0     H35445   5.471   9.373   0.099 -0.4269 -1.3487 -0.5740
  263MOL0     H35446   5.237   9.448   0.274 -1.6150 -2.6179 -0.9818
  263MOL0     H35447   5.305   9.292   0.271 -2.4700  0.8054 -0.9902
  263MOL0     H35448   5.411   9.407   0.465 -3.6109  0.1109 -0.1030
  263MOL0     H35449   5.536   9.379   0.340 -0.4219 -0.8124  0.5278
  263MOL0     H35450   5.521   9.603   0.266 -0.0528  1.7352  0.9089
  263MOL0     H35451   5.373   9.620   0.382  0.4195  0.9726  1.1106
  263MOL0     H35452   5.642   9.695   0.430  0.7118  0.0311  0.2501
  263MOL0     H35453   5.632   9.525   0.479  0.5868 -0.9681 -4.6216
  263MOL0     H35454   5.500   9.764   0.604 -1.9501  0.2260  2.5502
  263MOL0     H35455   5.439   9.604   0.650  1.2031 -0.7570  1.1703
  263MOL0     H35456   5.689   9.837   0.796 -0.4647 -0.7497  1.1883
  263MOL0     H35457   5.842   9.830   0.983 -1.3052 -0.5775 -0.2566
  263MOL0     H35458   5.806   9.688   1.097  0.3708 -0.3865 -0.1833
  263MOL0     H35459   5.985   9.566   1.009  3.1627 -0.7578  0.8405
  263MOL0     H35460   6.024   9.700   0.904 -1.2184  0.8929  0.4651
  263MOL0     H35461   6.039   9.681   1.209 -0.3612 -2.1878 -1.0640
  263MOL0     H35462   6.079   9.834   1.122 -0.2118 -0.2699  1.2071
  263MOL0     H35463   6.225   9.580   1.066 -1.7675 -1.1323  0.5341
  263MOL0     H35464   6.259   9.681   1.208 -2.9704 -1.0946  1.3748
  263MOL0     H35465   6.499   9.942   1.020  1.1971  0.7089 -1.8436
  263MOL0     H35466   6.737   9.894   1.037 -0.6828  0.2450  1.4122
  263MOL0     H35467   7.106   9.660   0.838  1.0460 -1.1270 -3.1644
  263MOL0     H35468   7.322   9.578   0.810  0.2421 -1.1305 -0.3149
  263MOL0     H35469   7.473   9.442   0.702  0.5007 -0.1678 -1.0576
  263MOL0     H35470   7.531   9.480   0.854 -0.3127 -0.4666  0.2405
  263MOL0     H35471   7.619   9.230   0.699  0.7443 -1.0635  1.3846
  263MOL0     H35472   7.708   9.381   0.710  0.4553  1.4806  2.1157
  263MOL0     H35473   7.784   9.363   0.907  0.7062 -0.0676  2.1823
  263MOL0     H35474   7.643   9.274   0.973  1.3835 -1.3644  1.4738
  263MOL0     H35475   7.727   9.077   0.834 -0.8053  0.4328 -0.5483
  263MOL0     H35476   7.829   9.117   0.964  0.7344 -1.3155 -0.5850
  263MOL0     H35477   7.953   9.274   0.810 -0.0350 -0.1719  2.6096
  263MOL0     H35478   7.871   9.186   0.676  1.4567  1.9651  0.0608
  263MOL0     H35479   8.042   9.053   0.892 -3.4942 -0.4478  1.2144
  263MOL0     H35480   7.968   8.963   0.771  0.8494 -0.3734  0.0325
  263MOL0     H35481   8.218   9.014   0.718  0.6777 -0.0433 -3.1505
  263MOL0     H35482   8.171   9.182   0.707  0.5545  0.0103 -1.0610
  263MOL0     H35483   8.018   9.133   0.510 -0.7708  0.3759  4.4409
  263MOL0     H35484   8.196   9.079   0.485 -0.1092 -1.5364 -1.0035
  263MOL0     H35485   7.204   9.205   0.990  0.5607 -1.1838 -2.5830
  263MOL0     H35486   6.974   9.286   1.005 -0.5200  1.5015  1.2206
  263MOL0     H35487   6.643   9.477   1.006  0.9500  0.3520 -0.8423
  263MOL0     H35488   6.426   9.517   1.007  0.1516 -0.8267  0.5520
  263MOL0     H35489   4.967   9.232  -0.054 -0.7789  0.1980 -0.4828
  263MOL0     H35490   4.817   9.064   0.025 -0.1513  0.2406  0.1098
  263MOL0     H35491   4.580   8.762   0.376  0.8565 -0.0780  1.3715
  263MOL0     H35492   4.366   8.671   0.447  2.1089 -1.0432  0.1949
  263MOL0     H35493   4.109   8.823   0.586  1.0773 -0.8948  1.9025
  263MOL0     H35494   4.185   8.671   0.557  0.1178  0.0595 -1.4476
  263MOL0     H35495   3.964   8.616   0.634  1.0031 -2.7972 -1.3926
  263MOL0     H35496   3.952   8.576   0.469 -0.2887  0.0157 -0.1057
  263MOL0     H35497   3.857   8.785   0.400  0.0503 -0.2144  0.5270
  263MOL0     H35498   3.858   8.840   0.566  2.0299 -0.2901  1.0221
  263MOL0     H35499   3.724   8.568   0.481  0.7498  0.9499 -1.5450
  263MOL0     H35500   3.698   8.662   0.630  1.5483  0.6983  0.3724
  263MOL0     H35501   3.440   8.816   0.310  0.0841  1.1896 -0.4968
  263MOL0     H35502   4.170   8.987   0.228  0.7360 -1.7467 -2.3721
  263MOL0     H35503   4.397   9.200   0.235 -0.0456 -1.7987  2.1328
  263MOL0     H35504   4.470   9.114   0.098 -1.1429  3.0704 -1.0179
  263MOL0     H35505   4.292   9.134   0.105 -0.7986 -3.0095  0.7022
  264MOL0     O35506   2.843   3.067   6.844 -0.1236 -0.4181 -0.6852
  264MOL0     C35507   2.756   2.988   6.813  0.5704  0.0997 -0.1152
  264MOL0     O35508   2.777   2.867   6.759 -0.1514 -0.1336  0.0974
  264MOL0     C35509   2.896   2.876   6.686 -0.1324 -0.4800 -0.4909
  264MOL0     C35510   3.020   2.846   6.754 -0.5287  0.2362  0.3508
  264MOL0     C35511   3.136   2.845   6.676 -0.2831 -0.2589 -0.2245
  264MOL0     C35512   3.144   2.880   6.540 -0.0818 -0.4555  0.6802
  264MOL0     O35513   3.258   2.907   6.469  0.3544  0.4627 -0.1308
  264MOL0     C35514   3.389   2.876   6.524  0.3203 -0.0190 -0.5359
  264MOL0     C35515   3.494   2.941   6.440 -0.3780 -0.3024  0.2081
  264MOL0     C35516   3.521   2.849   6.320  0.2317 -0.6223  0.7599
  264MOL0     C35517   3.609   2.912   6.206  0.4232  0.7999  0.0284
  264MOL0     C35518   3.546   3.019   6.124 -0.1125  0.2381 -0.1714
  264MOL0     C35519   3.638   3.063   6.011  1.1240  0.1511  0.3528
  264MOL0     C35520   3.588   3.190   5.951  0.4772 -0.9661  0.5279
  264MOL0     C35521   3.632   3.227   5.804 -0.2213 -0.0753  0.3936
  264MOL0     N35522   3.773   3.271   5.781  0.2016  0.7262 -0.2383
  264MOL0     C35523   3.839   3.391   5.797  0.5552  0.6001  0.6599
  264MOL0     C35524   3.973   3.361   5.788 -0.1887  0.3938  0.3735
  264MOL0     C35525   4.087   3.453   5.778 -0.1816  0.5548  0.2446
  264MOL0     C35526   4.055   3.570   5.681  0.0182 -0.4959 -0.1932
  264MOL0     C35527   4.192   3.629   5.627 -1.1888  0.5266 -0.0145
  264MOL0     C35528   4.295   3.650   5.740 -0.5143  0.6093  0.5661
  264MOL0     O35529   4.389   3.753   5.718 -0.2093  0.3039 -0.0112
  264MOL0     C35530   4.497   3.724   5.640 -0.2086  0.3493 -0.1222
  264MOL0     C35531   4.579   3.828   5.593  0.1112  0.5134  0.4095
  264MOL0     C35532   4.696   3.801   5.521  0.4903  0.5952 -0.2185
  264MOL0     C35533   4.743   3.665   5.499 -0.4398 -0.4892 -0.3486
  264MOL0     C35534   4.882   3.634   5.448 -0.0265 -0.1640 -0.0552
  264MOL0     O35535   4.962   3.740   5.405  0.6638 -0.0224 -0.7815
  264MOL0     C35536   5.092   3.712   5.386 -0.6876 -0.4979  0.4871
  264MOL0     C35537   5.137   3.656   5.266  0.6203  1.2620  0.2608
  264MOL0     C35538   5.269   3.644   5.244 -0.9642 -0.5549  0.2528
  264MOL0     C35539   5.365   3.689   5.338  0.5340 -0.6584  0.0118
  264MOL0     O35540   5.502   3.674   5.306 -0.4199 -0.6886 -0.3877
  264MOL0     C35541   5.596   3.680   5.411 -0.4473  0.3231 -0.8007
  264MOL0     C35542   5.731   3.640   5.350 -0.3301 -0.3999 -0.2405
  264MOL0     C35543   5.848   3.660   5.441 -0.7624 -0.0830  0.0113
  264MOL0     C35544   5.975   3.599   5.388 -0.5274 -0.4071 -1.3942
  264MOL0     C35545   6.088   3.621   5.495 -0.3825  0.6152  0.1323
  264MOL0     C35546   6.217   3.566   5.445 -0.1328  0.1915 -0.4298
  264MOL0     C35547   6.326   3.586   5.548 -0.2431  0.4254  0.2672
  264MOL0     C35548   6.460   3.527   5.510  0.1038 -0.2033  0.1131
  264MOL0    Cl35549   6.474   3.354   5.484 -0.1061 -0.1774  0.4704
  264MOL0     C35550   5.320   3.751   5.459  0.7644 -0.3367 -0.4839
  264MOL0     C35551   5.179   3.756   5.481  0.2600 -0.2621 -0.3828
  264MOL0     O35552   4.912   3.516   5.446  0.3218 -0.2601 -0.8976
  264MOL0     C35553   4.664   3.564   5.547 -1.4084  0.1481 -0.0966
  264MOL0     C35554   4.542   3.590   5.611 -0.4745 -0.2852 -0.2665
  264MOL0     N35555   3.994   3.226   5.765  0.9293  0.1861  0.7260
  264MOL0     N35556   3.874   3.176   5.758  0.6445 -0.5936 -0.0287
  264MOL0     C35557   3.025   2.906   6.481  0.4984 -0.6306  0.1044
  264MOL0     C35558   2.900   2.915   6.552 -1.0164 -0.7092 -0.4456
  264MOL0     C35559   2.616   3.010   6.847  0.4865 -0.6400 -0.4879
  264MOL0     C35560   2.511   2.931   6.781 -0.2173  0.2440 -0.5433
  264MOL0     C35561   2.378   2.943   6.819  0.2989 -0.6402 -0.3698
  264MOL0     C35562   2.334   3.035   6.908 -0.3989 -0.1200 -0.1398
  264MOL0     O35563   2.197   3.031   6.941 -0.2019 -0.1342  0.9316
  264MOL0     C35564   2.147   3.139   7.019 -0.0978 -1.2559  0.5198
  264MOL0     C35565   1.999   3.177   6.966  0.4872 -0.6504  0.5163
  264MOL0     C35566   1.897   3.078   7.011 -0.3181  0.4480  0.3218
  264MOL0     C35567   1.754   3.113   6.958  0.4081  1.2201  0.3352
  264MOL0     C35568   1.670   3.026   7.047 -0.0357 -0.0950 -1.4933
  264MOL0     C35569   1.605   2.956   7.125  0.8957 -0.2170  0.5079
  264MOL0     C35570   2.427   3.141   6.946  0.0209  0.8831  0.4500
  264MOL0     C35571   2.572   3.128   6.912 -0.1130 -0.6904 -0.1617
  264MOL0     C35572   2.654   3.235   6.982  0.9687  0.9200  0.1968
  264MOL0     H35573   3.023   2.806   6.855 -0.6793  0.6434  0.5196
  264MOL0     H35574   3.228   2.826   6.731  1.0041  3.5832 -0.6859
  264MOL0     H35575   3.397   2.922   6.623 -1.1085  1.4438 -1.0451
  264MOL0     H35576   3.417   2.771   6.539  1.7528  0.6736  2.1772
  264MOL0     H35577   3.575   2.939   6.513 -0.6677 -3.9890  0.5730
  264MOL0     H35578   3.463   3.043   6.414 -1.7022 -1.1267 -1.6579
  264MOL0     H35579   3.427   2.814   6.275 -0.4076  1.3833  0.4323
  264MOL0     H35580   3.572   2.761   6.360 -1.6032 -1.2028  1.9581
  264MOL0     H35581   3.697   2.955   6.254  0.2602  0.6385  0.4810
  264MOL0     H35582   3.643   2.837   6.135 -2.6113 -1.1202  0.3999
  264MOL0     H35583   3.455   2.994   6.068  0.9280  1.2516 -2.4624
  264MOL0     H35584   3.533   3.102   6.194  3.2643  1.4975 -0.8716
  264MOL0     H35585   3.740   3.073   6.051  0.9068  0.9923  0.7101
  264MOL0     H35586   3.642   2.982   5.938  1.4314 -0.7592  1.3443
  264MOL0     H35587   3.624   3.268   6.019 -0.6848  0.9961 -0.9742
  264MOL0     H35588   3.478   3.190   5.946  0.4340 -2.5613  0.9705
  264MOL0     H35589   3.609   3.138   5.745 -0.4327  0.4975 -0.4028
  264MOL0     H35590   3.571   3.300   5.750  0.5118  1.2660  1.3127
  264MOL0     H35591   3.780   3.481   5.816  1.4655  0.8552  2.4564
  264MOL0     H35592   4.109   3.497   5.875 -2.1340  0.4483  0.7712
  264MOL0     H35593   4.170   3.398   5.732  0.0717  1.7513 -0.8027
  264MOL0     H35594   3.996   3.543   5.593  0.9041 -0.1748 -0.9065
  264MOL0     H35595   3.997   3.647   5.730  2.2391  0.0741  1.7177
  264MOL0     H35596   4.168   3.722   5.576 -3.9702  0.4065  0.8913
  264MOL0     H35597   4.231   3.567   5.545 -2.3316 -2.2070  1.3664
  264MOL0     H35598   4.340   3.552   5.759 -0.5222  0.2250 -1.1729
  264MOL0     H35599   4.237   3.684   5.826 -1.9370  0.9248 -0.4735
  264MOL0     H35600   4.551   3.930   5.613  1.9922  2.1509 -3.9535
  264MOL0     H35601   4.752   3.888   5.488 -0.3176  0.3501 -2.4361
  264MOL0     H35602   5.071   3.634   5.183  2.2201 -0.1430 -0.7070
  264MOL0     H35603   5.303   3.592   5.155 -2.0851  0.2706 -0.6927
  264MOL0     H35604   5.618   3.779   5.452  0.2826 -0.3351  0.4664
  264MOL0     H35605   5.552   3.616   5.488  1.8124 -1.2027 -0.6806
  264MOL0     H35606   5.720   3.533   5.327  2.0470 -1.1576  1.7437
  264MOL0     H35607   5.734   3.708   5.264  0.0251  0.0520  0.1270
  264MOL0     H35608   5.854   3.769   5.452  2.6929  0.0719 -1.7720
  264MOL0     H35609   5.819   3.622   5.539 -2.1805 -0.1148 -0.4079
  264MOL0     H35610   6.016   3.635   5.293  0.8389  1.5276 -0.1348
  264MOL0     H35611   5.949   3.493   5.377 -1.0847 -0.9695  3.3343
  264MOL0     H35612   6.053   3.577   5.589  0.3756  0.2654  0.2613
  264MOL0     H35613   6.098   3.730   5.489 -2.9252  0.8226 -1.2788
  264MOL0     H35614   6.204   3.462   5.415  2.0085  0.4958 -2.7807
  264MOL0     H35615   6.243   3.623   5.355  2.7720  0.4104  0.4435
  264MOL0     H35616   6.286   3.532   5.634 -0.1173 -0.5448 -0.2709
  264MOL0     H35617   6.345   3.691   5.570  1.2352  0.7881 -2.3982
  264MOL0     H35618   6.486   3.580   5.418  0.5303 -0.2719  0.1926
  264MOL0     H35619   6.522   3.556   5.596  0.6225  3.9181 -1.4475
  264MOL0     H35620   5.394   3.792   5.528  0.8970  1.2287 -1.5110
  264MOL0     H35621   5.140   3.799   5.573 -0.1836 -1.0515 -0.1932
  264MOL0     H35622   4.701   3.462   5.546 -1.3006  0.1823 -1.2487
  264MOL0     H35623   4.488   3.498   5.634  0.6221 -1.9119 -3.4897
  264MOL0     H35624   3.035   2.925   6.374 -0.6612 -3.2327 -0.5585
  264MOL0     H35625   2.815   2.960   6.500  0.2651  0.9937 -1.1951
  264MOL0     H35626   2.536   2.856   6.707  0.5825 -0.0381 -0.0014
  264MOL0     H35627   2.305   2.868   6.791 -0.9017  0.5091 -0.4531
  264MOL0     H35628   2.200   3.232   6.997  0.2189 -1.8873 -1.6303
  264MOL0     H35629   2.145   3.119   7.127 -0.7204 -2.2496  0.3428
  264MOL0     H35630   1.986   3.180   6.857 -5.0238  3.3972  0.8121
  264MOL0     H35631   1.978   3.275   7.011 -1.7840 -0.7746 -0.1451
  264MOL0     H35632   1.894   3.083   7.120 -0.0594  0.4794  0.3277
  264MOL0     H35633   1.922   2.973   6.995 -1.1481 -0.0528  2.0861
  264MOL0     H35634   1.731   3.215   6.991 -0.6239  0.4627  2.0922
  264MOL0     H35635   1.737   3.089   6.852 -0.0579  0.3255  0.6073
  264MOL0     H35636   1.541   2.897   7.187  1.2124 -0.0310  1.0152
  264MOL0     H35637   2.388   3.228   6.998  0.7293  0.7790  1.1769
  264MOL0     H35638   2.590   3.317   7.017  1.8309  2.2947 -1.3048
  264MOL0     H35639   2.706   3.186   7.066  2.4101  2.5218  0.2980
  264MOL0     H35640   2.717   3.288   6.910  3.5023  2.2120  3.1342
  265MOL0     O35641   9.168   1.915   5.652 -0.0126  0.4214  1.4424
  265MOL0     C35642   9.082   1.989   5.701 -0.4008  0.8189 -0.9511
  265MOL0     O35643   9.094   2.107   5.767  0.5198 -0.0111  0.4346
  265MOL0     C35644   9.223   2.162   5.766 -0.4399  0.0922 -0.1249
  265MOL0     C35645   9.299   2.193   5.645  0.1517  0.2591  0.8020
  265MOL0     C35646   9.422   2.259   5.659  0.0795  0.2390  0.4818
  265MOL0     C35647   9.469   2.291   5.782 -0.1987  0.0940 -1.0688
  265MOL0     O35648   9.574   2.376   5.809  0.4563 -0.3424  0.1171
  265MOL0     C35649   9.646   2.421   5.696 -1.0716  0.0056 -0.0832
  265MOL0     C35650   9.772   2.506   5.746  0.3085  1.6685  0.0310
  265MOL0     C35651   9.894   2.448   5.683 -1.1585 -0.2432 -0.3915
  265MOL0     C35652  10.009   2.510   5.760 -0.7087  0.2242  0.6535
  265MOL0     C35653  10.145   2.503   5.666  1.2039 -0.3220  0.6567
  265MOL0     C35654  10.184   2.654   5.638  0.7791 -0.6444  0.6169
  265MOL0     C35655  10.326   2.670   5.600  0.2061  0.5222 -0.8650
  265MOL0     C35656  10.365   2.606   5.468  0.1509  0.2118 -0.5982
  265MOL0     N35657  10.488   2.665   5.417 -0.4139 -0.1155 -0.6217
  265MOL0     C35658  10.599   2.598   5.362  0.0823 -0.2452 -0.0302
  265MOL0     C35659  10.674   2.695   5.297  0.1152  0.3663  0.3229
  265MOL0     C35660  10.790   2.665   5.211  0.2130 -0.1502  0.9738
  265MOL0     C35661  10.797   2.527   5.157 -0.3430  0.7484 -0.2567
  265MOL0     C35662  10.898   2.493   5.041 -0.4428 -0.6174  0.2055
  265MOL0     C35663  11.046   2.489   5.073  0.6598 -0.3333 -0.2506
  265MOL0     O35664  11.112   2.619   5.051 -0.5700 -0.5011 -0.8600
  265MOL0     C35665  11.231   2.640   5.120 -0.6870  0.2237  0.4272
  265MOL0     C35666  11.307   2.545   5.186  0.2781  0.0544 -0.3619
  265MOL0     C35667  11.428   2.576   5.251  0.6932 -0.5178 -0.2425
  265MOL0     C35668  11.477   2.710   5.246 -0.1456 -0.6494  0.1718
  265MOL0     C35669  11.616   2.748   5.295  0.3314 -0.8345 -0.0979
  265MOL0     O35670  11.668   2.866   5.253  0.5639  0.2853  0.1766
  265MOL0     C35671  11.807   2.883   5.268  0.2412  0.3915  0.0992
  265MOL0     C35672  11.869   2.911   5.395  0.3005  0.0133 -0.1088
  265MOL0     C35673  12.009   2.919   5.416  0.6159 -0.7611  0.2216
  265MOL0     C35674  12.091   2.920   5.301  0.3917  0.8942  0.3398
  265MOL0     O35675  12.225   2.928   5.301  0.0134  0.0824 -0.7950
  265MOL0     C35676  12.304   2.878   5.402 -0.2029 -0.0072 -0.2003
  265MOL0     C35677  12.451   2.876   5.360  0.4870 -0.1418 -1.1899
  265MOL0     C35678  12.549   2.861   5.477 -0.5486 -0.5969 -0.0930
  265MOL0     C35679  12.687   2.823   5.426 -0.0231 -1.0119 -1.3840
  265MOL0     C35680  12.795   2.810   5.542  0.8567  0.2548 -0.2230
  265MOL0     C35681  12.908   2.722   5.504  0.2713 -0.2105  0.3109
  265MOL0     C35682  12.988   2.771   5.382 -0.2037 -0.1007  0.4678
  265MOL0     C35683  13.133   2.796   5.407 -0.3400  0.6652 -0.3320
  265MOL0    Cl35684  13.161   2.915   5.530 -0.4611  0.0668  0.1593
  265MOL0     C35685  12.034   2.911   5.173  0.4814 -0.5288  0.7334
  265MOL0     C35686  11.896   2.896   5.153  0.0957  0.5698  0.0284
  265MOL0     O35687  11.678   2.659   5.349 -0.4037 -0.6084 -1.0329
  265MOL0     C35688  11.401   2.804   5.178  0.0776  0.6334  0.5984
  265MOL0     C35689  11.274   2.769   5.122  0.0074  0.5295 -0.5090
  265MOL0     N35690  10.606   2.814   5.313 -0.8563 -0.2812 -0.5250
  265MOL0     N35691  10.494   2.794   5.377  0.1659 -0.2603  0.1563
  265MOL0     C35692   9.389   2.254   5.897 -0.2512 -0.5472 -0.0473
  265MOL0     C35693   9.275   2.182   5.885 -0.2164 -0.6536 -1.0766
  265MOL0     C35694   8.944   1.928   5.701 -0.8862 -0.0779  0.4177
  265MOL0     C35695   8.846   1.995   5.637 -0.0437 -0.6231 -0.5093
  265MOL0     C35696   8.720   1.941   5.636  0.2845  0.3349 -0.0433
  265MOL0     C35697   8.684   1.825   5.703  0.8618 -0.4868  0.1787
  265MOL0     O35698   8.547   1.792   5.676  0.4147  0.4336 -0.4817
  265MOL0     C35699   8.484   1.684   5.748 -0.0840 -1.3508  0.0267
  265MOL0     C35700   8.367   1.628   5.668  0.3955 -0.6069 -0.0062
  265MOL0     C35701   8.264   1.551   5.761  0.0537 -0.2559 -0.2573
  265MOL0     C35702   8.123   1.545   5.690  0.6624  0.3981 -0.0317
  265MOL0     C35703   8.055   1.673   5.688  0.8118 -0.4286  0.1158
  265MOL0     C35704   7.993   1.778   5.688 -0.2140  1.2038  0.0648
  265MOL0     C35705   8.789   1.752   5.758 -0.6596 -0.2326 -0.1341
  265MOL0     C35706   8.917   1.806   5.763  0.1772 -0.8019 -0.4437
  265MOL0     C35707   9.007   1.724   5.849  0.1227  0.3625  0.4019
  265MOL0     H35708   9.256   2.180   5.547 -0.8215  2.0129  0.9453
  265MOL0     H35709   9.463   2.299   5.567 -0.2719 -2.2558 -0.8590
  265MOL0     H35710   9.683   2.341   5.632 -0.8275  0.6912 -0.8141
  265MOL0     H35711   9.593   2.486   5.625  0.5609 -0.0437 -1.4145
  265MOL0     H35712   9.782   2.502   5.855 -1.5068  1.1484  0.2241
  265MOL0     H35713   9.763   2.612   5.718 -0.0626  2.0502  1.4900
  265MOL0     H35714   9.902   2.485   5.580  1.2272  3.6446  0.9864
  265MOL0     H35715   9.885   2.339   5.696 -5.0792  0.1258  1.3632
  265MOL0     H35716   9.991   2.617   5.774  0.3289  0.6392 -0.9590
  265MOL0     H35717  10.020   2.455   5.854 -0.4625 -0.8265  0.0295
  265MOL0     H35718  10.223   2.449   5.720  2.4241 -0.2462 -0.9634
  265MOL0     H35719  10.127   2.458   5.568  0.6221  2.0105 -0.3838
  265MOL0     H35720  10.120   2.701   5.563  0.6151  0.3400  1.3558
  265MOL0     H35721  10.167   2.717   5.726 -0.6508  0.4136 -0.3681
  265MOL0     H35722  10.397   2.625   5.670  0.5786  0.2201 -1.4287
  265MOL0     H35723  10.345   2.778   5.600 -0.1630  0.5960 -0.0930
  265MOL0     H35724  10.370   2.498   5.483 -0.3923  0.0491 -1.4945
  265MOL0     H35725  10.284   2.631   5.400 -0.3979 -2.3489 -0.9848
  265MOL0     H35726  10.621   2.492   5.357 -0.4479 -0.2902 -1.9366
  265MOL0     H35727  10.785   2.733   5.125  2.0016 -1.1311  0.0297
  265MOL0     H35728  10.882   2.677   5.268 -0.2694 -2.4342  2.3288
  265MOL0     H35729  10.807   2.443   5.226 -1.6065 -0.4606 -1.4727
  265MOL0     H35730  10.701   2.525   5.105 -0.3243  0.2731 -0.2837
  265MOL0     H35731  10.879   2.568   4.963 -2.8770  0.2211  1.4847
  265MOL0     H35732  10.870   2.395   4.999  0.0340 -0.1360 -1.3026
  265MOL0     H35733  11.093   2.419   5.004  0.9359 -0.1491 -0.2513
  265MOL0     H35734  11.062   2.446   5.173  0.7382 -0.9878 -0.5394
  265MOL0     H35735  11.271   2.443   5.196 -2.7464  1.1934  2.0435
  265MOL0     H35736  11.485   2.488   5.278 -0.8966 -1.5931 -0.3091
  265MOL0     H35737  11.812   2.908   5.488  0.9273 -0.0286  0.2813
  265MOL0     H35738  12.041   2.953   5.514 -0.7173  0.3050  0.3165
  265MOL0     H35739  12.295   2.961   5.473 -0.1132  1.7832 -2.1964
  265MOL0     H35740  12.266   2.782   5.439 -1.1536  0.1057 -0.8586
  265MOL0     H35741  12.456   2.800   5.281 -0.1543 -1.9777  0.4846
  265MOL0     H35742  12.469   2.973   5.311 -0.5080  0.1476 -1.0095
  265MOL0     H35743  12.557   2.953   5.536  5.5755 -0.7332 -0.0834
  265MOL0     H35744  12.514   2.788   5.551  3.0483 -1.0613  1.3579
  265MOL0     H35745  12.709   2.889   5.342 -1.6242 -1.2657 -2.0398
  265MOL0     H35746  12.676   2.726   5.377 -2.5644 -0.1022 -2.7513
  265MOL0     H35747  12.742   2.765   5.627 -1.4099  2.4637 -0.3773
  265MOL0     H35748  12.838   2.909   5.559  3.2200 -0.7017 -0.2868
  265MOL0     H35749  12.967   2.715   5.596  2.3525 -0.9468 -1.0208
  265MOL0     H35750  12.865   2.622   5.496  0.1815 -0.2771  1.4319
  265MOL0     H35751  12.950   2.863   5.337 -1.1372 -1.3555 -1.4880
  265MOL0     H35752  12.979   2.694   5.305  1.5477 -1.9046  1.9860
  265MOL0     H35753  13.171   2.698   5.435  2.3890  0.5047 -3.9126
  265MOL0     H35754  13.177   2.818   5.310  0.8699  2.4474  0.5576
  265MOL0     H35755  12.098   2.903   5.086 -0.2890  0.2342  0.0813
  265MOL0     H35756  11.848   2.873   5.059  2.4488 -1.6055 -0.7507
  265MOL0     H35757  11.450   2.900   5.163  0.4325 -0.0450 -3.9069
  265MOL0     H35758  11.207   2.833   5.065  0.4819 -0.2564 -1.9927
  265MOL0     H35759   9.408   2.283   6.000 -3.0383  1.9430 -0.0940
  265MOL0     H35760   9.220   2.152   5.974  0.1089 -2.4602 -1.4439
  265MOL0     H35761   8.875   2.083   5.579  0.3469 -0.1441  0.3996
  265MOL0     H35762   8.648   2.008   5.591 -0.6417  2.0665  3.5945
  265MOL0     H35763   8.445   1.719   5.844 -0.9227  1.1196 -1.1341
  265MOL0     H35764   8.555   1.603   5.769  0.0488 -0.9948  0.9837
  265MOL0     H35765   8.390   1.554   5.591 -2.8041 -0.2994 -1.3703
  265MOL0     H35766   8.316   1.708   5.613 -0.0826 -0.9756 -0.1001
  265MOL0     H35767   8.251   1.596   5.860 -0.3791  0.8548 -0.8049
  265MOL0     H35768   8.299   1.449   5.781  3.0081  0.7055 -0.1239
  265MOL0     H35769   8.131   1.506   5.588  0.8289 -0.8639  0.4443
  265MOL0     H35770   8.054   1.478   5.742 -0.0279  1.2529  0.1744
  265MOL0     H35771   7.931   1.866   5.687 -0.1165  1.3283  1.5308
  265MOL0     H35772   8.775   1.653   5.801  1.0922  0.2700  1.7341
  265MOL0     H35773   8.984   1.717   5.955 -0.1403  0.7858  0.3752
  265MOL0     H35774   9.000   1.620   5.816 -1.3612 -0.0688  1.9988
  265MOL0     H35775   9.109   1.763   5.836  0.2581  0.2319  1.0603
  266MOL0     O35776  10.783   9.049   9.224 -0.3876 -0.0226  0.3153
  266MOL0     C35777  10.781   9.038   9.099 -0.0857  0.2169 -1.1197
  266MOL0     O35778  10.893   8.998   9.030 -0.3851  0.2258 -0.3857
  266MOL0     C35779  11.011   9.027   9.075  0.2099 -0.7315 -0.8100
  266MOL0     C35780  11.118   8.937   9.050 -0.7929 -0.7770  0.3703
  266MOL0     C35781  11.249   8.970   9.078 -0.0822 -0.4081 -0.4030
  266MOL0     C35782  11.274   9.084   9.155 -0.8466  0.0900 -0.1048
  266MOL0     O35783  11.402   9.093   9.198  0.0455 -0.5315 -0.4530
  266MOL0     C35784  11.469   9.217   9.237  0.1982 -0.4192 -0.9995
  266MOL0     C35785  11.624   9.192   9.240 -0.3922  1.1185  0.1791
  266MOL0     C35786  11.690   9.199   9.103  0.8365  1.0704  0.7096
  266MOL0     C35787  11.808   9.109   9.100 -0.5528 -0.0603  0.6959
  266MOL0     C35788  11.882   9.094   8.968  0.4385 -0.4441 -0.4739
  266MOL0     C35789  12.026   9.025   8.975  0.5937 -0.4495  0.3034
  266MOL0     C35790  12.114   9.057   8.852  0.5763  0.0320 -0.0584
  266MOL0     C35791  12.046   9.043   8.719  0.2808 -0.3790  0.1410
  266MOL0     N35792  12.140   9.028   8.605 -0.3465 -0.0224 -0.5563
  266MOL0     C35793  12.231   9.122   8.568 -1.3990 -0.2545 -0.5067
  266MOL0     C35794  12.303   9.071   8.470  0.1604  0.2644  0.3731
  266MOL0     C35795  12.406   9.152   8.386  0.1620  0.6708  0.4924
  266MOL0     C35796  12.541   9.101   8.420  0.0409  0.0912  0.0957
  266MOL0     C35797  12.656   9.186   8.364  0.6349  0.9427 -0.3853
  266MOL0     C35798  12.783   9.107   8.360 -0.4350  0.0195 -0.3406
  266MOL0     O35799  12.896   9.197   8.346 -0.9181  0.5233  0.1733
  266MOL0     C35800  13.023   9.149   8.357  0.1037  0.3095  0.4127
  266MOL0     C35801  13.063   9.015   8.349 -0.3675  0.2050  0.2407
  266MOL0     C35802  13.200   8.982   8.347 -0.2364 -0.0803 -1.0713
  266MOL0     C35803  13.299   9.080   8.367 -0.5862  0.5949  0.5971
  266MOL0     C35804  13.456   9.056   8.346 -0.0953 -0.4139  0.3196
  266MOL0     O35805  13.537   9.151   8.288 -0.2088 -0.1644 -0.1087
  266MOL0     C35806  13.672   9.131   8.271 -0.3223 -0.7298  0.4555
  266MOL0     C35807  13.763   9.137   8.378  0.0666  0.3334  0.1178
  266MOL0     C35808  13.908   9.118   8.371  0.5010 -0.0647 -0.4102
  266MOL0     C35809  13.969   9.109   8.246  0.0825  0.5564 -0.0963
  266MOL0     O35810  14.104   9.092   8.234 -0.2855  0.1598  1.1969
  266MOL0     C35811  14.164   9.046   8.109 -0.6793 -0.8789  0.5898
  266MOL0     C35812  14.313   9.041   8.124  0.3582  0.1399  0.4651
  266MOL0     C35813  14.365   9.182   8.108 -0.4996 -0.1561 -0.4999
  266MOL0     C35814  14.513   9.195   8.144  0.4358 -0.3432 -1.2003
  266MOL0     C35815  14.550   9.341   8.177 -0.2344 -1.0855  0.1969
  266MOL0     C35816  14.493   9.450   8.087  0.7470 -0.2339 -0.6217
  266MOL0     C35817  14.545   9.435   7.942 -0.2602  0.4088 -0.3068
  266MOL0     C35818  14.617   9.560   7.903 -0.5697 -0.9999  0.7255
  266MOL0    Cl35819  14.765   9.583   8.001 -0.0311 -0.4492 -0.3775
  266MOL0     C35820  13.877   9.103   8.139 -0.2231 -0.0223 -0.2866
  266MOL0     C35821  13.740   9.114   8.149  0.6020 -0.3043 -0.3419
  266MOL0     O35822  13.492   8.947   8.382  1.3797  0.4640  0.3490
  266MOL0     C35823  13.258   9.213   8.384 -0.0496  0.6387 -0.2353
  266MOL0     C35824  13.120   9.247   8.383  0.2593  0.7423 -0.4385
  266MOL0     N35825  12.270   8.936   8.463  1.1237 -0.3343 -0.0688
  266MOL0     N35826  12.175   8.918   8.542  0.6010 -0.3685 -0.6105
  266MOL0     C35827  11.169   9.171   9.187 -0.0021  0.4234  1.3157
  266MOL0     C35828  11.043   9.137   9.154  0.0837 -0.4618 -0.2802
  266MOL0     C35829  10.648   9.039   9.028 -0.4064  0.2992  0.5603
  266MOL0     C35830  10.662   9.030   8.893 -0.0340  0.0841 -0.5578
  266MOL0     C35831  10.558   9.038   8.807 -0.2850 -0.0778 -0.3203
  266MOL0     C35832  10.428   9.055   8.850  0.3349 -0.3195  0.2053
  266MOL0     O35833  10.332   9.077   8.753  0.7447  0.8470  0.0103
  266MOL0     C35834  10.314   8.977   8.652  0.4066  1.0392  0.0509
  266MOL0     C35835  10.240   8.853   8.707 -0.5282 -0.2154 -0.5454
  266MOL0     C35836  10.197   8.751   8.597  0.1717  0.1718 -0.0197
  266MOL0     C35837  10.162   8.617   8.651  0.3276 -0.4156 -0.4256
  266MOL0     C35838  10.122   8.519   8.547  0.9021  0.2052  0.0193
  266MOL0     C35839  10.102   8.461   8.447  0.0589 -0.4395 -0.0232
  266MOL0     C35840  10.405   9.065   8.991  0.4175 -0.1800  0.7332
  266MOL0     C35841  10.519   9.051   9.084 -0.2414  0.7794 -0.7361
  266MOL0     C35842  10.493   9.080   9.236 -0.5881 -0.6512 -0.4716
  266MOL0     H35843  11.098   8.847   8.992 -0.8429 -0.3288 -0.3250
  266MOL0     H35844  11.333   8.915   9.038  1.1206  1.7321 -0.9412
  266MOL0     H35845  11.451   9.296   9.163  0.1809  1.7892  1.2320
  266MOL0     H35846  11.448   9.240   9.342 -2.9940 -3.8270 -0.6702
  266MOL0     H35847  11.643   9.091   9.277  0.6149  0.5238 -1.8151
  266MOL0     H35848  11.663   9.259   9.317 -0.5922 -0.6422  1.8667
  266MOL0     H35849  11.701   9.306   9.084  0.2745  1.3736  1.9773
  266MOL0     H35850  11.611   9.170   9.033 -0.2263 -2.0209  2.9656
  266MOL0     H35851  11.884   9.137   9.173  0.4540 -0.5542 -0.1314
  266MOL0     H35852  11.780   9.006   9.124 -1.0151 -0.3656 -0.9955
  266MOL0     H35853  11.824   9.041   8.892 -0.1773 -1.3158  0.5753
  266MOL0     H35854  11.892   9.195   8.929 -0.6162  0.2041  0.8705
  266MOL0     H35855  12.078   9.054   9.066  1.6819 -1.0673 -0.0872
  266MOL0     H35856  12.021   8.916   8.988 -0.4151 -0.4076  0.3330
  266MOL0     H35857  12.203   8.993   8.847  1.0585  0.6066  0.9330
  266MOL0     H35858  12.152   9.159   8.850  0.0419  0.2388 -1.8413
  266MOL0     H35859  11.989   8.951   8.724 -0.3520  0.0357  0.8620
  266MOL0     H35860  11.976   9.126   8.702 -0.0303 -0.9402 -1.3808
  266MOL0     H35861  12.238   9.224   8.606  1.6332 -0.6990  0.3655
  266MOL0     H35862  12.405   9.147   8.277  1.3630  1.9672  0.3914
  266MOL0     H35863  12.403   9.258   8.413  1.0613  0.4469  1.5250
  266MOL0     H35864  12.558   9.103   8.528  0.9029  0.4212 -0.0365
  266MOL0     H35865  12.557   8.999   8.384  0.2375 -0.9200  2.7906
  266MOL0     H35866  12.663   9.279   8.420 -2.5906  3.3305 -3.4726
  266MOL0     H35867  12.641   9.221   8.261  1.2649 -0.4030 -0.9693
  266MOL0     H35868  12.779   9.033   8.279  3.3750 -0.9695  0.1664
  266MOL0     H35869  12.789   9.063   8.459 -0.1195  1.3814  0.2713
  266MOL0     H35870  12.986   8.938   8.348 -1.6739  1.4427 -1.6944
  266MOL0     H35871  13.219   8.875   8.342  0.0383 -0.0738 -0.2952
  266MOL0     H35872  13.728   9.141   8.481 -0.1537  1.0957  0.0263
  266MOL0     H35873  13.964   9.107   8.463  0.0530  0.8715 -0.0118
  266MOL0     H35874  14.134   8.943   8.086  1.0853 -0.9810 -1.6724
  266MOL0     H35875  14.141   9.109   8.022  1.7513  1.7037  1.6781
  266MOL0     H35876  14.339   8.990   8.218  0.7277 -0.2770  0.1392
  266MOL0     H35877  14.349   8.987   8.036 -0.8432 -0.3170  0.2398
  266MOL0     H35878  14.345   9.217   8.006  0.5688 -1.8993 -1.3605
  266MOL0     H35879  14.301   9.245   8.170 -0.9644  0.3751 -1.4957
  266MOL0     H35880  14.583   9.156   8.069 -0.0142  0.7749 -2.2097
  266MOL0     H35881  14.531   9.143   8.239 -0.0251  0.9137 -0.4100
  266MOL0     H35882  14.658   9.349   8.190 -0.0461 -2.6622 -0.1454
  266MOL0     H35883  14.516   9.353   8.280  0.9332  0.0008  0.4748
  266MOL0     H35884  14.383   9.454   8.088  0.7706  0.9475  0.7072
  266MOL0     H35885  14.528   9.541   8.136 -0.1767 -1.6737  3.0284
  266MOL0     H35886  14.464   9.407   7.875 -2.3363 -2.6435  3.1102
  266MOL0     H35887  14.615   9.350   7.937 -3.2786 -2.1948 -3.9569
  266MOL0     H35888  14.653   9.544   7.800 -1.5633 -1.5161  0.4535
  266MOL0     H35889  14.544   9.641   7.900 -1.0006 -1.3998 -0.8566
  266MOL0     H35890  13.921   9.116   8.040 -0.6894  0.7380 -0.4019
  266MOL0     H35891  13.670   9.118   8.066  0.2702  0.5891 -0.0309
  266MOL0     H35892  13.334   9.286   8.410  1.4096 -0.7792 -0.3874
  266MOL0     H35893  13.081   9.346   8.401 -4.8801 -1.0686 -0.1188
  266MOL0     H35894  11.206   9.257   9.242  0.2428  0.4022  1.1847
  266MOL0     H35895  10.967   9.211   9.177  0.2522 -0.2875 -0.2805
  266MOL0     H35896  10.754   9.041   8.837 -0.6336 -2.7052 -2.2607
  266MOL0     H35897  10.601   9.022   8.709  2.3356  1.2985  0.5042
  266MOL0     H35898  10.404   8.938   8.605 -0.8290 -2.4058  0.2274
  266MOL0     H35899  10.246   9.013   8.574 -0.1759  0.4691  0.2833
  266MOL0     H35900  10.150   8.891   8.758  0.3752 -0.0907  1.0388
  266MOL0     H35901  10.300   8.807   8.786 -1.6350 -0.5968  0.1046
  266MOL0     H35902  10.272   8.751   8.518 -0.9171 -1.1653 -1.0991
  266MOL0     H35903  10.100   8.778   8.554  1.3435 -1.7804 -4.4746
  266MOL0     H35904  10.254   8.572   8.691  0.9714 -0.7208 -2.1797
  266MOL0     H35905  10.099   8.630   8.739  2.2803  2.9264  0.6747
  266MOL0     H35906  10.068   8.414   8.357 -2.5938  2.7266 -0.8733
  266MOL0     H35907  10.302   9.078   9.022 -0.3858  0.1507 -1.7958
  266MOL0     H35908  10.517   9.183   9.262 -1.2420 -1.0652  2.0125
  266MOL0     H35909  10.386   9.071   9.255 -0.1240 -2.4243  1.7421
  266MOL0     H35910  10.539   9.003   9.298  0.7423 -0.0962 -0.7268
  267MOL0     O35911   3.538   5.700  10.129  0.1705 -0.8545 -0.5694
  267MOL0     C35912   3.446   5.694  10.218 -1.1979 -0.1715  0.1085
  267MOL0     O35913   3.469   5.707  10.352 -0.3105 -0.7859  0.3412
  267MOL0     C35914   3.562   5.799  10.397 -1.0250 -0.4438 -0.0699
  267MOL0     C35915   3.694   5.769  10.393  0.5066 -1.0801  0.0650
  267MOL0     C35916   3.803   5.852  10.442 -0.0324  0.3582  0.7393
  267MOL0     C35917   3.768   5.971  10.499 -0.3876 -0.4281  0.1592
  267MOL0     O35918   3.865   6.055  10.554 -0.5008 -0.1282 -0.0047
  267MOL0     C35919   4.007   6.030  10.542  0.9661 -0.8067 -0.5033
  267MOL0     C35920   4.069   6.169  10.578  1.0329  0.3066 -0.2318
  267MOL0     C35921   4.213   6.146  10.624  0.1936  0.1538 -0.1172
  267MOL0     C35922   4.295   6.274  10.655  0.4491 -0.0007  0.0089
  267MOL0     C35923   4.448   6.263  10.643 -1.2121 -0.7533 -0.5891
  267MOL0     C35924   4.505   6.415  10.674  0.5144 -0.2232 -0.2775
  267MOL0     C35925   4.535   6.441  10.819 -0.1346  0.4560  0.9196
  267MOL0     C35926   4.595   6.577  10.843 -0.1348 -0.0371 -0.6525
  267MOL0     N35927   4.741   6.568  10.834  0.8043 -0.1312 -0.5336
  267MOL0     C35928   4.804   6.558  10.716 -0.5473  0.0565  0.5953
  267MOL0     C35929   4.933   6.525  10.750 -0.8364 -0.0719  0.7403
  267MOL0     C35930   5.036   6.505  10.640  0.3133 -0.1238  0.3757
  267MOL0     C35931   5.050   6.356  10.592 -0.4451  0.0666  0.6568
  267MOL0     C35932   5.170   6.335  10.488  0.4272 -1.0672 -0.2549
  267MOL0     C35933   5.169   6.439  10.370  0.1585  0.0802  0.5965
  267MOL0     O35934   5.245   6.390  10.260  0.2578  0.3087  0.3691
  267MOL0     C35935   5.324   6.475  10.187  0.4413  0.7255 -0.0345
  267MOL0     C35936   5.288   6.604  10.162  0.3732  0.2491 -0.1606
  267MOL0     C35937   5.373   6.696  10.101 -0.3795  0.0465  0.2079
  267MOL0     C35938   5.497   6.655  10.046  0.0730  0.3664  0.5937
  267MOL0     C35939   5.592   6.743   9.978  0.2845 -0.4728 -0.9931
  267MOL0     O35940   5.721   6.698   9.985 -0.4175 -0.4990  0.0136
  267MOL0     C35941   5.830   6.773   9.946 -0.2634  0.6330 -0.1641
  267MOL0     C35942   5.931   6.724   9.855  0.3014  0.2668 -0.3392
  267MOL0     C35943   6.039   6.800   9.818  0.2838 -0.2000  0.1523
  267MOL0     C35944   6.062   6.931   9.867  1.0025 -0.3089 -0.9979
  267MOL0     O35945   6.155   7.021   9.837 -0.3773 -0.5620  0.2882
  267MOL0     C35946   6.293   6.968   9.821  0.3478  0.3167  0.8938
  267MOL0     C35947   6.397   7.077   9.828 -0.3507 -0.3588 -0.1923
  267MOL0     C35948   6.536   7.029   9.796  0.4607 -0.1028 -0.8629
  267MOL0     C35949   6.575   7.073   9.652 -0.3597  0.5592  0.3754
  267MOL0     C35950   6.724   7.025   9.617 -0.4012  0.3008 -0.3937
  267MOL0     C35951   6.777   7.064   9.481  0.1746  1.0295  0.8525
  267MOL0     C35952   6.913   7.003   9.459 -0.8721 -0.3136 -0.1986
  267MOL0     C35953   6.949   6.924   9.333 -0.7179 -0.9917  0.6452
  267MOL0    Cl35954   7.125   6.868   9.328  0.3550  0.0117  0.4124
  267MOL0     C35955   5.955   6.977   9.951 -0.0007 -0.6970  0.0956
  267MOL0     C35956   5.853   6.899  10.001 -0.0339 -0.8405 -0.8404
  267MOL0     O35957   5.573   6.857   9.942  0.4208  0.9875 -0.7395
  267MOL0     C35958   5.528   6.518  10.064  0.0797 -0.1483 -0.3992
  267MOL0     C35959   5.439   6.431  10.128  0.2031  0.3756  0.0952
  267MOL0     N35960   4.946   6.520  10.884  0.1413  0.3696  0.4100
  267MOL0     N35961   4.829   6.535  10.934  0.4171 -0.8088  0.3111
  267MOL0     C35962   3.629   5.998  10.520  0.0436 -0.1893  0.5465
  267MOL0     C35963   3.531   5.919  10.460 -0.9554 -0.1584 -0.5971
  267MOL0     C35964   3.314   5.626  10.191  0.0765  0.1564  0.3844
  267MOL0     C35965   3.298   5.568  10.063  0.3303 -0.3549  0.3124
  267MOL0     C35966   3.181   5.506  10.020  0.4026 -0.9295 -0.4087
  267MOL0     C35967   3.069   5.505  10.097  0.0697  0.0009  0.4615
  267MOL0     O35968   2.955   5.446  10.047 -0.7062 -0.3630 -0.2873
  267MOL0     C35969   2.970   5.321   9.982 -0.0560  0.1322 -0.1445
  267MOL0     C35970   2.844   5.235  10.016  0.1122 -0.6992 -0.5493
  267MOL0     C35971   2.853   5.093   9.946  0.1158 -0.1257  0.1048
  267MOL0     C35972   2.742   5.014  10.005 -0.2075  0.5584 -0.0525
  267MOL0     C35973   2.602   5.053   9.965 -0.5708 -0.9131 -0.1028
  267MOL0     C35974   2.491   5.075   9.916 -0.2216 -0.3126  0.0289
  267MOL0     C35975   3.073   5.567  10.224  0.4719  0.0458  0.3525
  267MOL0     C35976   3.192   5.627  10.272  0.0495 -0.2379 -0.1326
  267MOL0     C35977   3.178   5.690  10.408  0.7308 -0.6528  0.3231
  267MOL0     H35978   3.725   5.675  10.348  0.5137 -0.5626 -1.0395
  267MOL0     H35979   3.903   5.816  10.461 -0.5888 -1.8912 -0.2682
  267MOL0     H35980   4.035   5.957  10.619 -1.0686 -1.1573 -0.0437
  267MOL0     H35981   4.022   5.992  10.440  0.3022 -2.5399  0.0084
  267MOL0     H35982   4.012   6.230  10.648 -1.4843 -1.5066 -0.5624
  267MOL0     H35983   4.064   6.230  10.488  2.8313  1.1025  0.1690
  267MOL0     H35984   4.265   6.080  10.553  0.4267 -0.5030  0.6581
  267MOL0     H35985   4.204   6.094  10.719  1.3281 -0.7073 -0.4546
  267MOL0     H35986   4.275   6.354  10.583  0.5918 -1.7798 -2.1131
  267MOL0     H35987   4.279   6.307  10.758  0.7316 -1.6803  0.6094
  267MOL0     H35988   4.492   6.193  10.714 -1.6574 -2.5956 -2.0485
  267MOL0     H35989   4.472   6.237  10.539 -1.1540  0.8747 -1.0101
  267MOL0     H35990   4.593   6.423  10.609  0.9304 -0.4882  0.2398
  267MOL0     H35991   4.439   6.493  10.637  0.5599 -0.7124 -1.4284
  267MOL0     H35992   4.603   6.361  10.847 -0.3812 -0.5943 -1.2716
  267MOL0     H35993   4.446   6.431  10.882  0.2903  1.7005  1.7667
  267MOL0     H35994   4.551   6.646  10.771 -0.7636 -0.3185 -0.5469
  267MOL0     H35995   4.568   6.629  10.935  0.5820  2.3448 -1.7090
  267MOL0     H35996   4.768   6.572  10.614 -1.1765  1.0226  0.9433
  267MOL0     H35997   5.008   6.575  10.561  0.0326  1.1833  1.5945
  267MOL0     H35998   5.129   6.542  10.683 -0.0638  0.1797  0.9504
  267MOL0     H35999   5.075   6.284  10.671  1.3227 -0.3791 -0.2438
  267MOL0     H36000   4.969   6.310  10.535  0.1393 -2.5497  1.7682
  267MOL0     H36001   5.167   6.236  10.441  4.4456  0.2202 -3.9030
  267MOL0     H36002   5.269   6.335  10.533  0.4124 -0.8608 -0.2196
  267MOL0     H36003   5.211   6.534  10.405  0.5962  0.9653 -2.0624
  267MOL0     H36004   5.068   6.456  10.333  0.2445 -3.6971 -1.8889
  267MOL0     H36005   5.182   6.625  10.171  0.0326  0.0243 -2.8175
  267MOL0     H36006   5.333   6.796  10.086 -0.6067 -0.0177  0.3745
  267MOL0     H36007   5.921   6.622   9.820 -2.5577  0.0672  0.8119
  267MOL0     H36008   6.112   6.753   9.753 -0.3633  0.9576 -1.5091
  267MOL0     H36009   6.312   6.900   9.905 -0.1336  1.3264  1.8492
  267MOL0     H36010   6.298   6.913   9.727 -0.4172  1.9354 -0.1240
  267MOL0     H36011   6.368   7.142   9.746 -2.9416 -0.0386  0.8803
  267MOL0     H36012   6.380   7.125   9.925 -3.1899  0.6920 -1.1167
  267MOL0     H36013   6.609   7.078   9.861  0.5369  1.4591 -2.0474
  267MOL0     H36014   6.549   6.923   9.817  2.2045  0.3678  0.7808
  267MOL0     H36015   6.568   7.182   9.649  2.5053  0.8083 -1.8273
  267MOL0     H36016   6.503   7.042   9.575 -0.1575  0.3427  0.2704
  267MOL0     H36017   6.726   6.917   9.627 -1.0461  0.2051 -1.1989
  267MOL0     H36018   6.786   7.071   9.695 -1.9437  1.1842  0.3621
  267MOL0     H36019   6.709   7.014   9.412 -0.6369 -2.6107  3.9417
  267MOL0     H36020   6.776   7.172   9.461 -0.6034  0.7226 -0.9205
  267MOL0     H36021   6.929   6.928   9.536 -1.8899 -1.0247 -0.6612
  267MOL0     H36022   6.975   7.094   9.462  0.8101 -1.3955 -0.6710
  267MOL0     H36023   6.884   6.837   9.319  1.5124 -2.3231 -2.7240
  267MOL0     H36024   6.939   6.983   9.241 -0.8095 -0.3392  1.0666
  267MOL0     H36025   5.964   7.075   9.997  0.9413 -1.7715  2.3928
  267MOL0     H36026   5.785   6.950  10.069 -0.8671 -1.6558 -1.0424
  267MOL0     H36027   5.622   6.496  10.016 -0.4942  0.6158 -1.9307
  267MOL0     H36028   5.469   6.327  10.125 -2.0587 -0.4987  2.9434
  267MOL0     H36029   3.602   6.089  10.572 -0.2660  0.7290 -1.1749
  267MOL0     H36030   3.431   5.960  10.467  0.0040  2.2623 -0.0611
  267MOL0     H36031   3.389   5.572  10.004  0.9822  1.6677  1.3781
  267MOL0     H36032   3.180   5.456   9.924  2.2294 -2.0356  0.1031
  267MOL0     H36033   3.064   5.274  10.013  0.8225  0.6466 -1.9169
  267MOL0     H36034   2.983   5.334   9.875  2.4767  5.2569  0.4905
  267MOL0     H36035   2.758   5.297   9.989  0.0102 -0.6149 -0.0251
  267MOL0     H36036   2.843   5.211  10.122  1.5116 -1.1975 -0.6227
  267MOL0     H36037   2.951   5.045   9.960  0.8690 -0.6752 -5.0384
  267MOL0     H36038   2.840   5.104   9.838 -0.4398  3.6528  0.4217
  267MOL0     H36039   2.755   4.908   9.982 -0.6353  0.5034 -0.0427
  267MOL0     H36040   2.753   5.011  10.113  1.6760 -1.2448 -0.2382
  267MOL0     H36041   2.401   5.099   9.863 -1.8578 -2.5703  1.6045
  267MOL0     H36042   2.983   5.580  10.283  1.2593 -3.1321  2.4930
  267MOL0     H36043   3.198   5.617  10.487  3.8238  0.3043  0.5687
  267MOL0     H36044   3.245   5.775  10.423  1.0515 -0.9877  0.8073
  267MOL0     H36045   3.073   5.713  10.429  0.9188  0.4676  0.1173
  268MOL0     O36046   9.233   5.454  10.397 -0.3804  0.7456 -0.2813
  268MOL0     C36047   9.193   5.344  10.447 -0.6614 -0.0362  0.1994
  268MOL0     O36048   9.264   5.232  10.456  0.2492  0.3659 -0.6632
  268MOL0     C36049   9.345   5.192  10.357 -0.8617  0.4813  0.9287
  268MOL0     C36050   9.350   5.237  10.223 -0.4340  0.1222  0.2810
  268MOL0     C36051   9.441   5.177  10.134 -0.0267  0.7042 -0.4588
  268MOL0     C36052   9.511   5.054  10.158 -0.0196 -0.3089 -0.9821
  268MOL0     O36053   9.597   5.005  10.062  0.3116 -0.0984  0.2593
  268MOL0     C36054   9.722   4.950  10.099 -0.3978  0.2741  0.4511
  268MOL0     C36055   9.836   5.048  10.106  0.1118 -0.6601  0.6189
  268MOL0     C36056   9.976   4.967  10.104  0.6314  0.9794 -0.3683
  268MOL0     C36057  10.081   5.029  10.199  0.3030 -0.2184  0.3293
  268MOL0     C36058  10.092   5.182  10.197  0.3810 -0.3160  0.6656
  268MOL0     C36059  10.239   5.217  10.211  0.3560  0.1206 -0.7202
  268MOL0     C36060  10.260   5.373  10.218 -0.1835  1.0068  0.5979
  268MOL0     C36061  10.405   5.396  10.272 -0.0385 -0.2281  0.2765
  268MOL0     N36062  10.510   5.322  10.190  0.0455  0.1313 -0.0865
  268MOL0     C36063  10.565   5.197  10.205 -0.3353  0.4963  0.1920
  268MOL0     C36064  10.691   5.197  10.151 -0.0325  0.2304 -0.0561
  268MOL0     C36065  10.798   5.083  10.145  0.2085 -0.2229 -0.0138
  268MOL0     C36066  10.939   5.130  10.190 -0.8931 -0.0476 -0.1896
  268MOL0     C36067  11.042   5.020  10.175 -0.2330  0.6318 -0.6510
  268MOL0     C36068  11.179   5.064  10.238  0.0269 -0.0958  0.2792
  268MOL0     O36069  11.226   5.182  10.172 -0.0835 -0.4343  0.1065
  268MOL0     C36070  11.340   5.239  10.213 -0.5334 -0.5356  0.6332
  268MOL0     C36071  11.430   5.185  10.302  0.3297 -1.0391  0.8734
  268MOL0     C36072  11.544   5.242  10.347  0.8015 -0.8786 -0.6585
  268MOL0     C36073  11.586   5.361  10.282  0.3375  0.0968  0.4415
  268MOL0     C36074  11.712   5.436  10.325  0.2153 -0.4944  0.7019
  268MOL0     O36075  11.764   5.391  10.436  0.4079  0.1179 -0.7403
  268MOL0     C36076  11.875   5.453  10.481 -0.0338  0.1861 -0.2004
  268MOL0     C36077  11.994   5.489  10.417 -0.4835 -0.0552  0.2352
  268MOL0     C36078  12.109   5.548  10.480  0.5812 -0.7357  0.1882
  268MOL0     C36079  12.103   5.568  10.617  0.2428 -0.1548  0.1255
  268MOL0     O36080  12.211   5.621  10.671  0.3255 -0.3336 -0.1149
  268MOL0     C36081  12.184   5.703  10.781  0.0105 -1.0257  0.1726
  268MOL0     C36082  12.307   5.788  10.818  0.1792  0.6472 -0.6886
  268MOL0     C36083  12.426   5.688  10.851  0.7138  0.0287  0.8414
  268MOL0     C36084  12.564   5.755  10.863 -0.3735  0.4102  0.3946
  268MOL0     C36085  12.669   5.647  10.848 -0.3134 -0.0951  0.2772
  268MOL0     C36086  12.796   5.690  10.929  0.1783 -0.2709  0.4487
  268MOL0     C36087  12.892   5.573  10.937  0.1425  0.3647  0.5762
  268MOL0     C36088  12.957   5.514  10.808  0.6658 -0.2774  0.2086
  268MOL0    Cl36089  13.057   5.639  10.728 -0.2365 -0.4471  0.0146
  268MOL0     C36090  11.980   5.533  10.680 -0.1562  0.0139  0.5654
  268MOL0     C36091  11.870   5.479  10.615 -0.1340  0.0265 -1.0361
  268MOL0     O36092  11.748   5.534  10.255 -1.1373 -0.4056  0.5750
  268MOL0     C36093  11.503   5.411  10.177 -0.9239 -0.8733  0.2499
  268MOL0     C36094  11.381   5.361  10.148  0.1660 -1.1751 -0.7003
  268MOL0     N36095  10.705   5.317  10.083 -0.3325 -0.6085 -0.0846
  268MOL0     N36096  10.596   5.382  10.106  0.0972 -0.1856  0.5824
  268MOL0     C36097   9.504   5.014  10.294  0.0454  1.1606  0.7892
  268MOL0     C36098   9.441   5.088  10.394  0.2535 -0.8570 -0.0996
  268MOL0     C36099   9.046   5.321  10.470  0.0312 -0.4894 -0.0613
  268MOL0     C36100   8.990   5.204  10.419 -0.0798 -0.0352  0.5965
  268MOL0     C36101   8.848   5.188  10.423 -0.3110  0.3325  1.0727
  268MOL0     C36102   8.764   5.289  10.475  0.5263  0.2198 -0.0099
  268MOL0     O36103   8.625   5.271  10.464  0.3105  0.4614 -0.3043
  268MOL0     C36104   8.539   5.380  10.499 -0.0323  0.2480 -0.4097
  268MOL0     C36105   8.396   5.324  10.518 -0.1705  0.2889  0.0260
  268MOL0     C36106   8.381   5.242  10.647 -0.3596 -0.4838  0.4466
  268MOL0     C36107   8.230   5.190  10.650  0.2345  0.4176 -0.9562
  268MOL0     C36108   8.236   5.086  10.759 -0.1318 -0.2674 -0.2346
  268MOL0     C36109   8.249   5.001  10.845 -0.3505  0.3911 -0.4128
  268MOL0     C36110   8.819   5.407  10.517 -0.5343 -0.4875 -0.0976
  268MOL0     C36111   8.959   5.433  10.509 -0.5106  0.4137  0.4008
  268MOL0     C36112   9.008   5.572  10.539 -0.2638 -0.1467 -0.0821
  268MOL0     H36113   9.286   5.320  10.194 -0.4946  0.6541  1.8370
  268MOL0     H36114   9.458   5.218  10.035 -2.4198  1.4636 -0.6272
  268MOL0     H36115   9.717   4.884  10.185  2.6617  0.1464  0.6283
  268MOL0     H36116   9.752   4.884  10.017  1.3178  3.6531 -1.9323
  268MOL0     H36117   9.818   5.100  10.200 -1.5756  1.6880 -0.8802
  268MOL0     H36118   9.828   5.123  10.027 -3.2840 -1.7283 -0.2087
  268MOL0     H36119  10.019   4.975  10.004  0.2036 -1.3808 -0.8027
  268MOL0     H36120   9.962   4.865  10.141 -1.9539  1.8435  1.3294
  268MOL0     H36121  10.078   4.997  10.303 -0.4336 -2.0171 -0.2188
  268MOL0     H36122  10.169   4.987  10.149  0.3051  0.3558 -0.1671
  268MOL0     H36123  10.052   5.222  10.103 -1.9554 -1.3383  1.1360
  268MOL0     H36124  10.028   5.213  10.281 -1.2109  0.1075 -0.6537
  268MOL0     H36125  10.270   5.165  10.302 -0.8142 -1.5302 -1.2259
  268MOL0     H36126  10.292   5.181  10.123  0.1659  0.0862 -0.8221
  268MOL0     H36127  10.182   5.416  10.282 -0.5653 -2.1474  2.4682
  268MOL0     H36128  10.260   5.403  10.113  2.0903 -2.4025 -0.5418
  268MOL0     H36129  10.421   5.504  10.280 -2.8185  0.0710  4.6201
  268MOL0     H36130  10.414   5.363  10.375  1.2003 -2.2386 -0.4180
  268MOL0     H36131  10.524   5.119  10.267 -2.6343  1.3473 -0.1378
  268MOL0     H36132  10.762   4.998  10.204  1.9755 -2.0160 -1.3774
  268MOL0     H36133  10.799   5.051  10.041 -1.2201  1.0793 -0.4646
  268MOL0     H36134  10.962   5.220  10.131  0.4003 -1.2101 -1.5519
  268MOL0     H36135  10.937   5.161  10.295  0.9679  0.5014 -0.2885
  268MOL0     H36136  11.059   4.991  10.071 -0.5122 -0.9173 -0.2947
  268MOL0     H36137  11.005   4.929  10.222 -0.3085  2.6430  3.7157
  268MOL0     H36138  11.256   4.990  10.213 -0.9024  0.1684 -4.1998
  268MOL0     H36139  11.169   5.093  10.343 -1.0928 -0.6802  0.3484
  268MOL0     H36140  11.417   5.089  10.352  2.2858 -1.8025  0.0429
  268MOL0     H36141  11.615   5.206  10.422 -0.6907 -2.1014  0.2325
  268MOL0     H36142  11.999   5.469  10.310 -0.8550 -0.6275  0.3190
  268MOL0     H36143  12.192   5.569  10.413 -1.3831 -0.0110 -2.1575
  268MOL0     H36144  12.108   5.780  10.763  0.2774 -0.1247  2.5525
  268MOL0     H36145  12.138   5.655  10.867 -1.7376  0.8489  0.3781
  268MOL0     H36146  12.336   5.852  10.734 -0.2294  0.1887 -1.1858
  268MOL0     H36147  12.273   5.850  10.901 -1.1864 -3.4013  2.0784
  268MOL0     H36148  12.419   5.629  10.943  1.3021 -1.3498  0.0377
  268MOL0     H36149  12.430   5.611  10.773 -0.7293 -1.9127  2.5796
  268MOL0     H36150  12.573   5.811  10.956  3.1124 -3.1258  2.5141
  268MOL0     H36151  12.587   5.816  10.775  3.0672 -0.7061  0.3760
  268MOL0     H36152  12.697   5.646  10.742 -1.0208 -1.2469  0.0930
  268MOL0     H36153  12.624   5.553  10.882 -0.6986 -0.4726 -1.2135
  268MOL0     H36154  12.837   5.779  10.880  3.1259 -2.1923 -0.9147
  268MOL0     H36155  12.762   5.713  11.030 -0.2253 -0.2756  0.3196
  268MOL0     H36156  12.849   5.486  10.988  0.2170 -0.4455 -0.6741
  268MOL0     H36157  12.973   5.611  10.999 -1.6153  0.6953  2.7621
  268MOL0     H36158  13.020   5.427  10.830 -0.2560 -0.6149  1.6304
  268MOL0     H36159  12.881   5.482  10.735  0.4840 -0.4318  0.4630
  268MOL0     H36160  11.973   5.550  10.787 -0.6793  3.4508  0.0907
  268MOL0     H36161  11.791   5.454  10.685  1.7844 -5.1298 -0.2924
  268MOL0     H36162  11.538   5.502  10.128 -1.2557 -1.2679 -0.7378
  268MOL0     H36163  11.332   5.420  10.071  3.5507  1.1051 -1.2973
  268MOL0     H36164   9.560   4.925  10.320 -1.3541 -0.2450 -0.7840
  268MOL0     H36165   9.439   5.046  10.494  1.7159  0.6186  0.5826
  268MOL0     H36166   9.050   5.127  10.372  0.1359  1.0981 -1.1042
  268MOL0     H36167   8.803   5.099  10.380  2.0976 -0.7874  0.7008
  268MOL0     H36168   8.534   5.461  10.426 -1.0515  0.0437 -0.5917
  268MOL0     H36169   8.565   5.417  10.598 -0.4971  1.1169 -0.6012
  268MOL0     H36170   8.369   5.266  10.430 -0.3593 -0.6559  0.7010
  268MOL0     H36171   8.321   5.403  10.528  0.6402  1.0251  0.4648
  268MOL0     H36172   8.403   5.305  10.734 -2.5369  0.6515  0.2304
  268MOL0     H36173   8.451   5.157  10.646 -1.4981 -1.4533 -0.1168
  268MOL0     H36174   8.161   5.273  10.669  3.7481  3.4633 -0.3617
  268MOL0     H36175   8.200   5.133  10.562 -0.3815 -1.5776  0.4626
  268MOL0     H36176   8.244   4.923  10.918 -1.8596  0.8205 -0.0273
  268MOL0     H36177   8.747   5.481  10.550 -0.3815 -0.5679  0.4275
  268MOL0     H36178   9.016   5.626  10.445  2.1291 -0.1720  0.0527
  268MOL0     H36179   8.925   5.611  10.599 -1.5759 -1.6486 -0.8213
  268MOL0     H36180   9.095   5.579  10.604 -2.1276  0.3697  2.5153
  269MOL0     O36181   3.583   8.774   5.243  0.2412  0.1901  0.3866
  269MOL0     C36182   3.554   8.878   5.184 -0.6976 -0.6884  0.5050
  269MOL0     O36183   3.639   8.987   5.193 -0.6040  0.1177 -0.4929
  269MOL0     C36184   3.766   8.969   5.235  0.4371  0.0472 -0.6178
  269MOL0     C36185   3.850   8.897   5.155  0.6017 -0.1693 -0.3780
  269MOL0     C36186   3.988   8.893   5.185  0.0323  0.4388  0.2197
  269MOL0     C36187   4.040   8.958   5.296  0.7590 -1.0113  0.0691
  269MOL0     O36188   4.179   8.965   5.299 -0.3835 -1.0831  0.5040
  269MOL0     C36189   4.252   9.091   5.328 -0.5784  0.1676  0.6665
  269MOL0     C36190   4.380   9.045   5.402 -0.2381  1.1084 -0.4818
  269MOL0     C36191   4.448   9.170   5.462  0.0041  0.2574  0.2444
  269MOL0     C36192   4.573   9.122   5.534 -0.5206  0.2212 -1.1482
  269MOL0     C36193   4.681   9.227   5.544  0.8312  0.1507  0.5191
  269MOL0     C36194   4.780   9.173   5.648  0.4450  0.1440 -1.1826
  269MOL0     C36195   4.904   9.256   5.657 -0.6384  0.0738  0.2565
  269MOL0     C36196   5.002   9.195   5.752  0.4479  0.0631  0.7290
  269MOL0     N36197   5.116   9.274   5.792  0.5219  0.0540 -0.3657
  269MOL0     C36198   5.147   9.305   5.921  0.6324 -0.1808 -0.2941
  269MOL0     C36199   5.250   9.393   5.919  0.2215 -0.0728 -0.3828
  269MOL0     C36200   5.313   9.456   6.037 -0.1918  0.1104 -0.2013
  269MOL0     C36201   5.225   9.567   6.095 -1.0865  0.3293  0.1491
  269MOL0     C36202   5.185   9.666   5.986 -0.0168 -0.7597 -0.2730
  269MOL0     C36203   5.045   9.739   6.018  0.6997 -0.4255 -0.3298
  269MOL0     O36204   5.032   9.876   5.974  0.4920 -0.0615  0.2513
  269MOL0     C36205   5.118   9.972   6.034  0.6909  0.1479  0.5651
  269MOL0     C36206   5.101  10.109   5.987 -0.2602 -0.0008 -0.7601
  269MOL0     C36207   5.172  10.217   6.036 -0.3942  0.4442  0.0134
  269MOL0     C36208   5.269  10.198   6.134 -0.5902 -0.5752 -0.3497
  269MOL0     C36209   5.357  10.307   6.182  0.5138 -0.6526  0.3895
  269MOL0     O36210   5.329  10.439   6.134 -0.5914 -0.8800 -0.1427
  269MOL0     C36211   5.420  10.530   6.189  0.0061 -1.3354 -0.2821
  269MOL0     C36212   5.394  10.600   6.316  0.1214 -0.9512  0.6353
  269MOL0     C36213   5.495  10.670   6.387  0.3663 -0.3408 -0.1466
  269MOL0     C36214   5.629  10.679   6.336 -0.2285  0.9700  0.2077
  269MOL0     O36215   5.738  10.731   6.394 -1.1477 -0.2546  0.5970
  269MOL0     C36216   5.732  10.755   6.527 -0.3841 -0.0363 -0.9033
  269MOL0     C36217   5.874  10.788   6.576 -0.8081 -0.0894 -1.0393
  269MOL0     C36218   5.896  10.783   6.734  1.6316 -0.2622  0.0480
  269MOL0     C36219   6.038  10.783   6.791 -0.2877 -0.3410  0.6324
  269MOL0     C36220   6.106  10.916   6.741  0.2755 -0.1833 -1.0198
  269MOL0     C36221   6.230  10.943   6.825 -0.8032  0.6996  0.7304
  269MOL0     C36222   6.335  10.840   6.793  0.5658  0.1034 -0.4913
  269MOL0     C36223   6.452  10.843   6.892  1.2032 -0.6211 -0.0434
  269MOL0    Cl36224   6.391  10.772   7.049 -0.0375  0.4083 -0.1313
  269MOL0     C36225   5.649  10.619   6.214 -0.8107  0.5410 -0.2700
  269MOL0     C36226   5.549  10.543   6.145  0.0671 -0.4288  0.3907
  269MOL0     O36227   5.439  10.279   6.272 -0.4003  0.2598 -0.0118
  269MOL0     C36228   5.283  10.064   6.183  0.5733  0.2035 -0.5995
  269MOL0     C36229   5.212   9.951   6.135 -0.2432  0.5040  0.3168
  269MOL0     N36230   5.287   9.411   5.789  0.1749 -0.6607 -0.3447
  269MOL0     N36231   5.205   9.346   5.714  0.4013  0.3092  0.4592
  269MOL0     C36232   3.954   9.025   5.383 -0.0603 -0.5328 -0.6794
  269MOL0     C36233   3.815   9.026   5.353 -0.3349 -0.2268  0.3036
  269MOL0     C36234   3.431   8.888   5.101  0.1035 -0.3780 -0.4698
  269MOL0     C36235   3.431   8.976   4.993 -0.8504  0.2285  0.5150
  269MOL0     C36236   3.316   8.995   4.919 -0.0363  0.6403 -0.9073
  269MOL0     C36237   3.196   8.932   4.942 -0.3184 -0.5848 -0.2364
  269MOL0     O36238   3.077   8.980   4.881  0.2775  0.6560  0.3994
  269MOL0     C36239   2.941   8.969   4.934  0.2491  0.5058 -0.5520
  269MOL0     C36240   2.845   9.048   4.854 -0.1617 -0.4599 -0.5174
  269MOL0     C36241   2.881   9.196   4.842 -0.4686 -1.0587 -0.6904
  269MOL0     C36242   2.764   9.276   4.816 -0.1935 -1.1191 -0.0211
  269MOL0     C36243   2.687   9.302   4.938  0.0615 -0.2733 -0.1456
  269MOL0     C36244   2.624   9.334   5.037 -0.4122 -0.9586 -0.0661
  269MOL0     C36245   3.190   8.836   5.043 -0.0473  0.4209 -0.6685
  269MOL0     C36246   3.304   8.810   5.116 -0.0562  1.0077  0.0895
  269MOL0     C36247   3.291   8.710   5.217 -0.0614  0.5041 -0.9882
  269MOL0     H36248   3.808   8.839   5.074 -2.2525 -2.1294  2.2465
  269MOL0     H36249   4.051   8.843   5.112  0.1727  0.2321  0.4817
  269MOL0     H36250   4.282   9.144   5.237 -2.0752 -1.1706 -0.6670
  269MOL0     H36251   4.203   9.150   5.406 -2.7818 -1.9744  1.0302
  269MOL0     H36252   4.440   8.976   5.342 -0.5121  0.4528 -0.0015
  269MOL0     H36253   4.355   8.988   5.491 -0.6240  0.0694 -1.2318
  269MOL0     H36254   4.390   9.222   5.538  0.9362 -0.1246  1.2392
  269MOL0     H36255   4.469   9.238   5.379  0.6769  1.5641  1.4568
  269MOL0     H36256   4.546   9.093   5.637 -0.4014  0.4843 -1.0437
  269MOL0     H36257   4.612   9.033   5.485 -1.9831 -0.0287 -1.9141
  269MOL0     H36258   4.736   9.243   5.451  2.0368 -0.4801  1.1004
  269MOL0     H36259   4.636   9.317   5.588  0.6602  0.5903 -0.5385
  269MOL0     H36260   4.730   9.185   5.744 -1.3701 -0.6915 -1.9838
  269MOL0     H36261   4.808   9.068   5.636 -0.9693 -0.4151  0.1719
  269MOL0     H36262   4.876   9.360   5.678 -2.0749 -0.7643  3.0880
  269MOL0     H36263   4.965   9.256   5.567  0.1947  1.4810  0.7915
  269MOL0     H36264   4.942   9.162   5.838 -1.4072 -1.5364 -1.0688
  269MOL0     H36265   5.036   9.109   5.694 -3.1627 -1.2789  0.3543
  269MOL0     H36266   5.097   9.279   6.014  1.5609 -1.1270 -0.0264
  269MOL0     H36267   5.321   9.381   6.116 -0.6245 -0.2445 -0.4915
  269MOL0     H36268   5.407   9.495   5.997  0.1363  0.8892  1.2628
  269MOL0     H36269   5.140   9.523   6.146 -1.3477  1.4923  0.7633
  269MOL0     H36270   5.278   9.622   6.174 -1.8784  0.9206  0.2829
  269MOL0     H36271   5.172   9.614   5.890 -2.0797 -0.9824  0.0793
  269MOL0     H36272   5.264   9.741   5.979  1.0756 -2.0432 -4.4824
  269MOL0     H36273   5.035   9.739   6.127 -0.4455 -1.6345 -0.4060
  269MOL0     H36274   4.954   9.684   5.990 -1.9050  3.1346  0.3443
  269MOL0     H36275   5.027  10.120   5.909 -0.1637 -0.0576 -0.8595
  269MOL0     H36276   5.155  10.317   5.995 -0.5091  1.2995  2.0279
  269MOL0     H36277   5.298  10.590   6.367 -1.1997 -0.4936 -1.6291
  269MOL0     H36278   5.479  10.721   6.482  1.7445 -0.5290  0.2154
  269MOL0     H36279   5.665  10.840   6.545  1.2680  0.7443  2.2484
  269MOL0     H36280   5.697  10.670   6.587 -1.1055  0.3514 -0.7579
  269MOL0     H36281   5.940  10.724   6.517 -0.0992  1.6224 -2.1683
  269MOL0     H36282   5.897  10.886   6.533 -0.1970 -0.0279 -0.5806
  269MOL0     H36283   5.851  10.869   6.785  3.4551 -0.6122  2.4142
  269MOL0     H36284   5.848  10.693   6.774  0.7194 -0.9934 -2.4772
  269MOL0     H36285   6.091  10.691   6.763  1.7460  1.2096 -0.9299
  269MOL0     H36286   6.040  10.784   6.900  1.5697  0.1463  0.6317
  269MOL0     H36287   6.035  10.997   6.758  0.6818  0.1015 -0.6664
  269MOL0     H36288   6.139  10.903   6.638 -1.1448 -1.9015 -1.3216
  269MOL0     H36289   6.273  11.039   6.796  3.2312 -0.5397  1.9745
  269MOL0     H36290   6.194  10.949   6.928 -0.5422 -2.4809  1.0954
  269MOL0     H36291   6.382  10.847   6.694  0.1827 -0.8981 -0.7539
  269MOL0     H36292   6.279  10.748   6.810 -2.9068  1.6846 -2.2530
  269MOL0     H36293   6.536  10.781   6.861  0.6969  0.0131 -2.9788
  269MOL0     H36294   6.485  10.947   6.903 -3.8842  1.3471 -0.3801
  269MOL0     H36295   5.753  10.614   6.185 -0.4428  0.4213  0.9865
  269MOL0     H36296   5.569  10.498   6.048 -1.6705  2.8152 -1.6673
  269MOL0     H36297   5.359  10.056   6.261 -0.8103  1.3206  0.9560
  269MOL0     H36298   5.226   9.855   6.182  0.6111 -0.5569 -1.9372
  269MOL0     H36299   3.992   9.087   5.463 -2.1853  1.0167 -0.7926
  269MOL0     H36300   3.751   9.089   5.414  1.6140  1.8573  0.3044
  269MOL0     H36301   3.526   9.023   4.967 -1.1585  1.0391  0.8402
  269MOL0     H36302   3.308   9.064   4.836 -1.8035 -0.4118 -1.6580
  269MOL0     H36303   2.936   8.997   5.039  2.0204 -2.4558  0.4249
  269MOL0     H36304   2.912   8.864   4.924 -1.4389  0.8941 -0.0319
  269MOL0     H36305   2.751   9.022   4.904  0.0116  1.1459  0.7178
  269MOL0     H36306   2.843   9.005   4.753 -0.4274  1.2197 -1.2542
  269MOL0     H36307   2.961   9.214   4.771  0.1454 -2.1073 -0.2993
  269MOL0     H36308   2.914   9.220   4.944 -0.7818 -2.2101 -0.2949
  269MOL0     H36309   2.790   9.378   4.786 -0.3599 -1.3522 -0.9861
  269MOL0     H36310   2.698   9.241   4.736 -0.0934 -1.3175 -0.0166
  269MOL0     H36311   2.569   9.371   5.120 -0.9710 -2.7279  0.3980
  269MOL0     H36312   3.096   8.787   5.067  0.5186 -1.4355 -2.0247
  269MOL0     H36313   3.191   8.666   5.218  1.4232 -3.1600  0.0897
  269MOL0     H36314   3.355   8.622   5.216 -0.1213  0.4624 -1.4223
  269MOL0     H36315   3.303   8.763   5.312  1.5838 -0.3279 -0.7094
  270MOL0     O36316   1.494  10.433   5.300 -0.1634 -0.1419 -0.6112
  270MOL0     C36317   1.487  10.449   5.420  0.3023 -0.3400  0.3150
  270MOL0     O36318   1.594  10.463   5.507 -0.1398 -0.0210 -0.2240
  270MOL0     C36319   1.718  10.428   5.467  0.6465 -0.5699 -0.9537
  270MOL0     C36320   1.832  10.497   5.515 -0.3863  0.3536 -0.7632
  270MOL0     C36321   1.964  10.456   5.469 -0.6754 -1.0043 -0.4612
  270MOL0     C36322   1.981  10.335   5.405 -0.2492  0.0026  0.4340
  270MOL0     O36323   2.100  10.267   5.384  0.8196 -0.5428  0.5994
  270MOL0     C36324   2.220  10.341   5.354  0.5205  0.0523 -0.6451
  270MOL0     C36325   2.283  10.369   5.494  0.2624 -0.2528 -0.2359
  270MOL0     C36326   2.347  10.241   5.562 -0.4196 -0.1773 -0.1099
  270MOL0     C36327   2.445  10.166   5.472 -0.4470  0.1656  0.7232
  270MOL0     C36328   2.487  10.038   5.533  0.2433  1.0006 -0.2046
  270MOL0     C36329   2.385   9.928   5.489  1.2496  0.1022  0.4546
  270MOL0     C36330   2.441   9.789   5.528  0.0495  0.1482  0.6432
  270MOL0     C36331   2.343   9.674   5.520 -0.4161 -0.3237 -0.7455
  270MOL0     N36332   2.333   9.619   5.392  0.1392  0.7237  0.5665
  270MOL0     C36333   2.260   9.661   5.285  0.5467  0.2118 -0.3698
  270MOL0     C36334   2.285   9.571   5.182  0.0382 -0.5227 -0.4357
  270MOL0     C36335   2.255   9.565   5.039  0.1279  0.3015 -0.6209
  270MOL0     C36336   2.204   9.692   4.986 -0.4120 -0.0526  0.5213
  270MOL0     C36337   2.149   9.693   4.840 -0.5867  0.1991  1.2944
  270MOL0     C36338   2.241   9.645   4.731 -0.0333 -0.3943  0.3583
  270MOL0     O36339   2.368   9.710   4.743  0.5302 -0.0829  0.2714
  270MOL0     C36340   2.473   9.653   4.691  0.1136  0.0158 -0.0282
  270MOL0     C36341   2.467   9.579   4.566 -0.0954 -0.0909  0.3254
  270MOL0     C36342   2.586   9.539   4.504  0.1754 -0.6073 -0.4091
  270MOL0     C36343   2.715   9.577   4.563 -0.3268  0.1591  0.3620
  270MOL0     C36344   2.844   9.537   4.492 -0.3721 -0.6032  0.1122
  270MOL0     O36345   2.964   9.552   4.560 -0.2730 -0.1862  0.5154
  270MOL0     C36346   3.086   9.521   4.504  0.3856  0.5853  0.3536
  270MOL0     C36347   3.168   9.626   4.457 -1.0822  0.0019 -0.8591
  270MOL0     C36348   3.290   9.595   4.394 -0.3605 -0.9632  0.4280
  270MOL0     C36349   3.312   9.461   4.362  0.3339 -0.0355 -0.8969
  270MOL0     O36350   3.439   9.425   4.304  0.5464 -0.1934  0.1533
  270MOL0     C36351   3.560   9.513   4.309 -0.2752  0.5179 -0.7311
  270MOL0     C36352   3.682   9.446   4.250 -0.2958 -0.4590 -0.2137
  270MOL0     C36353   3.716   9.312   4.317  0.4691  1.4258 -0.4699
  270MOL0     C36354   3.850   9.261   4.269 -0.1655  0.1453 -0.1987
  270MOL0     C36355   3.905   9.132   4.321 -0.3782 -0.5683  0.5933
  270MOL0     C36356   3.841   9.006   4.260 -0.2763 -0.2637 -0.6045
  270MOL0     C36357   3.873   8.877   4.347  0.7853 -0.2328  0.2084
  270MOL0     C36358   3.835   8.760   4.262  0.5361 -0.3921  0.4724
  270MOL0    Cl36359   3.955   8.738   4.126  0.8432  0.2790 -0.2311
  270MOL0     C36360   3.220   9.364   4.399 -0.9615 -0.1543  0.1647
  270MOL0     C36361   3.110   9.384   4.476 -1.0792 -0.0527 -0.0497
  270MOL0     O36362   2.835   9.486   4.378  0.1781  0.4465 -0.4105
  270MOL0     C36363   2.717   9.651   4.680  0.3535  0.2791  0.1844
  270MOL0     C36364   2.600   9.689   4.740 -0.6783  0.1730  0.5135
  270MOL0     N36365   2.362   9.473   5.235 -0.3644  0.2107  0.3338
  270MOL0     N36366   2.372   9.489   5.364 -0.4393 -0.0440  0.4557
  270MOL0     C36367   1.867  10.264   5.360  0.3343 -0.3735 -0.6704
  270MOL0     C36368   1.743  10.314   5.390  0.3077 -0.8879  0.4932
  270MOL0     C36369   1.353  10.476   5.481 -0.4037  0.3304 -0.2961
  270MOL0     C36370   1.346  10.547   5.609  0.2765  0.4676  0.0373
  270MOL0     C36371   1.225  10.584   5.675 -0.1189  0.3559  0.0342
  270MOL0     C36372   1.106  10.540   5.623 -0.5198 -0.4813 -0.3750
  270MOL0     O36373   0.997  10.562   5.699  0.1416  0.0292 -0.4697
  270MOL0     C36374   0.862  10.601   5.649 -0.1300  0.5040 -0.2635
  270MOL0     C36375   0.775  10.641   5.773  0.2725  0.0531  0.3539
  270MOL0     C36376   0.740  10.526   5.866  0.6321 -0.0859 -0.3582
  270MOL0     C36377   0.621  10.546   5.952  0.5480  0.6306  0.0668
  270MOL0     C36378   0.659  10.649   6.053  0.4204 -0.4557  0.0744
  270MOL0     C36379   0.704  10.736   6.127  0.9006  0.1603 -0.2030
  270MOL0     C36380   1.110  10.465   5.499 -0.4142 -0.0366 -1.6578
  270MOL0     C36381   1.230  10.438   5.424  0.3370 -0.4274 -0.4077
  270MOL0     C36382   1.213  10.385   5.289 -0.2587 -0.3487  0.4093
  270MOL0     H36383   1.822  10.585   5.578  0.8385  0.0056 -0.0524
  270MOL0     H36384   2.052  10.517   5.484 -2.6037  1.5294  1.4767
  270MOL0     H36385   2.291  10.289   5.290  1.5084  0.2386  0.2762
  270MOL0     H36386   2.209  10.430   5.291  0.2464  1.6757  1.5956
  270MOL0     H36387   2.209  10.410   5.564  0.3637  2.1750 -1.4691
  270MOL0     H36388   2.357  10.447   5.480  2.0000 -1.8144 -0.1383
  270MOL0     H36389   2.262  10.178   5.590 -0.7756  0.2875 -0.1193
  270MOL0     H36390   2.414  10.257   5.647  0.3338 -3.3823  0.0133
  270MOL0     H36391   2.424  10.157   5.366  0.1425 -0.6247  0.6559
  270MOL0     H36392   2.538  10.224   5.473  1.6867 -2.9820  0.9334
  270MOL0     H36393   2.584  10.009   5.490  0.5072  1.0383  0.3642
  270MOL0     H36394   2.503  10.038   5.641  4.2503  2.3839 -0.6319
  270MOL0     H36395   2.282   9.950   5.520  0.6227 -0.5666 -1.0797
  270MOL0     H36396   2.380   9.932   5.380  3.4488  2.1068  0.3307
  270MOL0     H36397   2.480   9.796   5.630  1.3630 -1.4520  0.3104
  270MOL0     H36398   2.525   9.761   5.464 -0.2941 -1.6621  0.9170
  270MOL0     H36399   2.379   9.599   5.590  2.0711  3.2308  2.1234
  270MOL0     H36400   2.246   9.710   5.555  0.7433  0.9910  1.2803
  270MOL0     H36401   2.199   9.751   5.286  1.9207  1.2652  3.1079
  270MOL0     H36402   2.351   9.544   4.990  0.3425  1.3044 -0.6544
  270MOL0     H36403   2.186   9.484   5.015 -1.8129  0.9855  2.1368
  270MOL0     H36404   2.123   9.718   5.056  1.6801 -0.4113  3.2648
  270MOL0     H36405   2.281   9.769   4.976  0.3425 -1.1216 -3.1550
  270MOL0     H36406   2.128   9.796   4.810 -0.2796  0.4598  1.9500
  270MOL0     H36407   2.061   9.629   4.841 -0.2772 -0.2701  0.1119
  270MOL0     H36408   2.196   9.665   4.633 -2.4860 -0.3287  1.4150
  270MOL0     H36409   2.253   9.538   4.747  1.1573 -0.5053 -1.0318
  270MOL0     H36410   2.379   9.562   4.505  0.9552 -1.1445 -0.9549
  270MOL0     H36411   2.586   9.501   4.402  1.6609  1.7895 -1.3895
  270MOL0     H36412   3.148   9.728   4.488 -0.2436  0.3592 -1.4437
  270MOL0     H36413   3.367   9.668   4.370  2.2474 -4.1769 -2.0759
  270MOL0     H36414   3.538   9.608   4.259 -0.4828  0.0908 -1.4750
  270MOL0     H36415   3.593   9.537   4.410  1.4152 -1.5322 -0.7221
  270MOL0     H36416   3.656   9.438   4.144 -0.9958  1.4186 -0.2119
  270MOL0     H36417   3.758   9.524   4.256  0.0931 -0.8836  0.3937
  270MOL0     H36418   3.726   9.324   4.425  3.9214  0.9410 -0.6090
  270MOL0     H36419   3.636   9.241   4.294  1.9242  0.5435 -3.4221
  270MOL0     H36420   3.921   9.339   4.297 -1.6811  0.5715  2.8169
  270MOL0     H36421   3.852   9.261   4.159  2.4808  1.0016 -0.2248
  270MOL0     H36422   3.889   9.133   4.429 -0.4709  1.3232  0.5982
  270MOL0     H36423   4.014   9.126   4.308 -0.4927 -0.4431 -0.5239
  270MOL0     H36424   3.736   9.031   4.242 -0.2337  0.1117 -0.3333
  270MOL0     H36425   3.893   8.996   4.164  3.1746 -1.0665  1.2121
  270MOL0     H36426   3.824   8.882   4.445  1.1403  1.2803  0.3466
  270MOL0     H36427   3.977   8.869   4.380  1.2708 -0.8860 -1.3681
  270MOL0     H36428   3.835   8.672   4.328  0.5863 -1.1167 -0.4751
  270MOL0     H36429   3.733   8.765   4.223  1.2465 -0.7120 -1.5258
  270MOL0     H36430   3.242   9.260   4.373 -1.5033 -0.1260 -0.4280
  270MOL0     H36431   3.047   9.297   4.492  0.6049 -1.2098  0.6813
  270MOL0     H36432   2.810   9.683   4.726  0.3559  2.6396 -1.2930
  270MOL0     H36433   2.608   9.742   4.834 -0.1319 -2.1889  1.8789
  270MOL0     H36434   1.856  10.183   5.289 -2.5154 -0.1697 -0.5800
  270MOL0     H36435   1.666  10.247   5.353  1.6951 -2.8133  0.9624
  270MOL0     H36436   1.442  10.577   5.649 -0.3473  4.1718 -0.8167
  270MOL0     H36437   1.225  10.634   5.771 -0.8493 -0.1084  0.2780
  270MOL0     H36438   0.823  10.516   5.592  0.4408  1.5538 -2.3080
  270MOL0     H36439   0.879  10.667   5.564  0.2061 -1.0283 -1.4465
  270MOL0     H36440   0.684  10.687   5.732  0.9179  0.3998 -0.7307
  270MOL0     H36441   0.826  10.720   5.828  1.2222  0.5120 -1.1160
  270MOL0     H36442   0.827  10.506   5.929  0.8109 -0.2729 -0.6610
  270MOL0     H36443   0.712  10.442   5.802  0.1192 -0.3801  0.2495
  270MOL0     H36444   0.533  10.573   5.894 -0.3363  1.2709  1.6411
  270MOL0     H36445   0.604  10.448   5.998  2.6984  0.1866  0.0373
  270MOL0     H36446   0.751  10.815   6.182  1.8095 -0.8326  0.4949
  270MOL0     H36447   1.008  10.440   5.471 -1.0569 -0.7054  0.9779
  270MOL0     H36448   1.267  10.290   5.289 -0.0458 -0.2764  2.2994
  270MOL0     H36449   1.105  10.375   5.274 -0.3496 -1.3058  1.5615
  270MOL0     H36450   1.249  10.456   5.214 -1.4569  2.4694  2.2985
  271MOL0     O36451   6.066   8.616   7.314  1.0967 -0.5907  0.5172
  271MOL0     C36452   6.038   8.500   7.338 -0.3765 -0.9672 -0.2666
  271MOL0     O36453   6.118   8.403   7.348 -0.0144  0.3109 -0.1446
  271MOL0     C36454   6.247   8.423   7.304 -0.1607 -0.2454 -0.2626
  271MOL0     C36455   6.329   8.521   7.365 -0.4755  0.3974 -0.8815
  271MOL0     C36456   6.468   8.513   7.332 -0.1757  0.2121  0.6447
  271MOL0     C36457   6.521   8.411   7.256  0.2612  0.6716 -0.3562
  271MOL0     O36458   6.652   8.412   7.231 -0.3729  0.9274 -0.4862
  271MOL0     C36459   6.698   8.345   7.108 -0.9103  0.8839  0.0793
  271MOL0     C36460   6.820   8.419   7.061  0.1516 -0.6459  0.2968
  271MOL0     C36461   6.948   8.394   7.140  0.4252 -0.3383  0.0310
  271MOL0     C36462   7.028   8.283   7.079  0.5185 -0.0678  0.4342
  271MOL0     C36463   7.156   8.253   7.158 -0.0593 -0.4976 -0.0963
  271MOL0     C36464   7.245   8.154   7.089  0.1360  0.3247  0.5784
  271MOL0     C36465   7.379   8.132   7.160 -0.2843  0.7607 -0.8219
  271MOL0     C36466   7.387   8.040   7.283  0.0355  0.2579 -0.0731
  271MOL0     N36467   7.511   8.044   7.364  0.6358 -0.2562 -0.9995
  271MOL0     C36468   7.644   8.041   7.317 -0.1122 -0.5335 -0.2673
  271MOL0     C36469   7.715   8.024   7.432  0.0665  0.6007  0.1336
  271MOL0     C36470   7.865   7.996   7.443 -0.3344  0.7613 -0.0069
  271MOL0     C36471   7.936   8.115   7.371  0.4173  1.3691  0.9886
  271MOL0     C36472   7.936   8.245   7.452 -0.2936  0.8173  0.2991
  271MOL0     C36473   8.011   8.240   7.581 -0.0833  0.3637 -0.7022
  271MOL0     O36474   8.009   8.373   7.640  0.8803  0.2778  0.5336
  271MOL0     C36475   8.119   8.443   7.605 -0.1294  0.5477 -0.4039
  271MOL0     C36476   8.242   8.404   7.660 -0.1897  0.0153  0.9146
  271MOL0     C36477   8.365   8.459   7.623  0.0004  1.0112  0.0612
  271MOL0     C36478   8.364   8.557   7.522 -0.3764  0.7160  0.4469
  271MOL0     C36479   8.492   8.616   7.481  0.6315 -1.3320 -1.0837
  271MOL0     O36480   8.604   8.595   7.556  0.2643  0.0508 -0.4126
  271MOL0     C36481   8.727   8.647   7.537 -0.5171  0.2569 -0.5275
  271MOL0     C36482   8.810   8.604   7.645  0.8123  0.2280  0.7009
  271MOL0     C36483   8.942   8.636   7.651  0.1168  0.6647 -0.2649
  271MOL0     C36484   8.999   8.712   7.557  0.0766  0.3282 -0.2961
  271MOL0     O36485   9.121   8.761   7.581 -0.7351 -0.5925 -0.5097
  271MOL0     C36486   9.154   8.883   7.515  0.4071 -0.2056  0.0986
  271MOL0     C36487   9.247   8.952   7.616 -0.4898 -0.3206  0.2901
  271MOL0     C36488   9.320   9.064   7.536 -0.5046  0.5596  0.5440
  271MOL0     C36489   9.466   9.076   7.571 -0.4934 -0.3601  0.1052
  271MOL0     C36490   9.527   9.187   7.485  0.2601 -0.6374  0.1119
  271MOL0     C36491   9.679   9.195   7.488 -1.2635 -0.7045 -0.3353
  271MOL0     C36492   9.731   9.328   7.419  0.4410  0.3420 -0.5685
  271MOL0     C36493   9.885   9.334   7.413  0.5865 -0.8608 -0.3870
  271MOL0    Cl36494   9.947   9.222   7.289  0.6190 -0.0340  0.2923
  271MOL0     C36495   8.919   8.753   7.450  0.5506  0.1880  0.8384
  271MOL0     C36496   8.788   8.717   7.436  0.4135 -0.6070 -0.5837
  271MOL0     O36497   8.479   8.703   7.397  0.5961  0.2690  1.4291
  271MOL0     C36498   8.239   8.592   7.464 -0.6270  0.2389 -0.4257
  271MOL0     C36499   8.117   8.539   7.513  0.5492  0.3647  0.1139
  271MOL0     N36500   7.625   8.032   7.541 -1.0490 -0.3861  0.0736
  271MOL0     N36501   7.502   8.035   7.497  0.3206  0.2728  0.2142
  271MOL0     C36502   6.437   8.308   7.208  1.4060  0.8282 -0.0575
  271MOL0     C36503   6.297   8.316   7.225 -0.0798 -1.4550 -0.9010
  271MOL0     C36504   5.893   8.476   7.360 -0.3063  0.5189  0.5267
  271MOL0     C36505   5.848   8.337   7.364  0.6649 -0.3941 -0.5821
  271MOL0     C36506   5.712   8.309   7.386  0.0576 -0.5236 -0.1978
  271MOL0     C36507   5.615   8.416   7.391 -0.0489 -0.0030  0.6931
  271MOL0     O36508   5.479   8.398   7.395 -0.1931  0.0989  0.6006
  271MOL0     C36509   5.427   8.278   7.454  0.1299 -0.7544 -1.0235
  271MOL0     C36510   5.278   8.299   7.481  0.5000 -0.5535  0.6220
  271MOL0     C36511   5.192   8.196   7.404  0.7326 -0.8396 -0.5310
  271MOL0     C36512   5.187   8.218   7.255 -0.0715 -0.3619  0.0805
  271MOL0     C36513   5.148   8.093   7.191 -0.7618  1.1041  0.6442
  271MOL0     C36514   5.114   7.998   7.126 -0.0927  0.9588 -0.7486
  271MOL0     C36515   5.659   8.540   7.368 -0.2713 -0.1213 -0.1259
  271MOL0     C36516   5.792   8.577   7.364  0.0502 -0.0300  0.3371
  271MOL0     C36517   5.815   8.728   7.351  0.1692  0.0909  1.5904
  271MOL0     H36518   6.295   8.595   7.437  2.4634  2.8723 -1.7792
  271MOL0     H36519   6.536   8.585   7.376 -0.1183 -0.2553  1.3367
  271MOL0     H36520   6.709   8.236   7.116 -0.9651  0.9937  2.8620
  271MOL0     H36521   6.609   8.357   7.046 -1.8879 -0.6200  1.1082
  271MOL0     H36522   6.793   8.525   7.066  2.1463 -0.0723 -0.1615
  271MOL0     H36523   6.832   8.391   6.956 -0.8028  1.6289 -0.4809
  271MOL0     H36524   6.929   8.381   7.247 -0.5817  0.1641 -0.0717
  271MOL0     H36525   7.005   8.487   7.136 -1.2165  0.7014 -4.0536
  271MOL0     H36526   6.960   8.198   7.076 -0.8905  1.0559 -1.1940
  271MOL0     H36527   7.059   8.309   6.977  0.1246  1.0630  0.5869
  271MOL0     H36528   7.220   8.339   7.178  2.5970 -2.4037  0.2065
  271MOL0     H36529   7.133   8.214   7.258  0.4789  1.4019  0.8102
  271MOL0     H36530   7.183   8.064   7.096  1.6259 -1.1217 -2.7338
  271MOL0     H36531   7.251   8.183   6.984  0.2030 -2.1686 -0.1669
  271MOL0     H36532   7.407   8.229   7.200 -2.0975  1.2357 -0.6327
  271MOL0     H36533   7.459   8.097   7.094  0.3662 -2.1212  1.3243
  271MOL0     H36534   7.300   8.036   7.349  0.2958 -0.9534  0.2217
  271MOL0     H36535   7.380   7.941   7.237 -3.3862  0.4173 -0.1390
  271MOL0     H36536   7.679   8.036   7.214 -0.1742 -0.3982 -0.2949
  271MOL0     H36537   7.896   7.980   7.547 -0.6532  0.0230 -0.0225
  271MOL0     H36538   7.887   7.906   7.385  0.8457  1.1382 -0.1781
  271MOL0     H36539   8.040   8.085   7.357  0.2846 -0.0155  2.7000
  271MOL0     H36540   7.887   8.125   7.273 -2.2591  0.8105  2.1673
  271MOL0     H36541   7.830   8.264   7.470 -1.5162 -3.5465 -0.9373
  271MOL0     H36542   7.978   8.322   7.387  0.4687  0.1330 -0.0473
  271MOL0     H36543   8.117   8.217   7.566 -0.1230 -0.8038  0.6308
  271MOL0     H36544   7.975   8.160   7.647 -0.6233 -1.5235 -3.1225
  271MOL0     H36545   8.234   8.328   7.737  2.0556 -0.5294  0.6715
  271MOL0     H36546   8.454   8.423   7.673 -0.6276 -0.4354  0.2012
  271MOL0     H36547   8.777   8.536   7.723  1.7170 -0.9805  0.0642
  271MOL0     H36548   9.007   8.602   7.732 -1.2271 -0.2219  0.4781
  271MOL0     H36549   9.203   8.862   7.420  3.2145  1.7614  0.9611
  271MOL0     H36550   9.076   8.955   7.491  2.9846  1.7293 -3.3429
  271MOL0     H36551   9.191   8.994   7.700 -0.0010 -0.1761  0.5477
  271MOL0     H36552   9.321   8.882   7.657 -0.8435  0.6498  2.7521
  271MOL0     H36553   9.314   9.043   7.428  2.0492  1.9072  0.0666
  271MOL0     H36554   9.270   9.160   7.551  1.6622  2.0703 -1.2799
  271MOL0     H36555   9.524   8.985   7.550 -0.6322 -0.5310  0.4530
  271MOL0     H36556   9.481   9.086   7.678 -1.2024 -2.9629  0.5215
  271MOL0     H36557   9.484   9.284   7.513  0.5715 -1.2215  3.0066
  271MOL0     H36558   9.498   9.161   7.383 -0.4468 -1.0507  0.4121
  271MOL0     H36559   9.712   9.205   7.592  3.8940  0.6499 -1.7922
  271MOL0     H36560   9.710   9.103   7.438 -1.1111 -1.3261  0.8583
  271MOL0     H36561   9.699   9.417   7.473  0.8327 -0.7221  1.5036
  271MOL0     H36562   9.679   9.327   7.322 -0.4467 -1.1184 -0.1110
  271MOL0     H36563   9.902   9.438   7.386  1.2345 -1.2293 -1.4967
  271MOL0     H36564   9.925   9.312   7.512 -1.6286  3.4448  1.7180
  271MOL0     H36565   8.958   8.785   7.354 -1.3487 -1.6184 -0.6465
  271MOL0     H36566   8.731   8.736   7.346 -1.0226  0.0833  0.4150
  271MOL0     H36567   8.241   8.659   7.379 -1.8275 -0.3700 -0.9508
  271MOL0     H36568   8.026   8.567   7.459  1.2303  0.3273 -1.0740
  271MOL0     H36569   6.467   8.228   7.142 -0.6235  0.9512 -1.2091
  271MOL0     H36570   6.237   8.230   7.197  1.0832 -3.3165  1.8864
  271MOL0     H36571   5.919   8.255   7.367  0.7902 -0.2801 -0.4471
  271MOL0     H36572   5.679   8.206   7.394  0.9840 -0.9735 -1.7875
  271MOL0     H36573   5.473   8.243   7.546 -1.6621 -0.6259 -0.0348
  271MOL0     H36574   5.442   8.196   7.382  2.8314 -1.7626  0.5491
  271MOL0     H36575   5.256   8.396   7.435  2.6658 -1.1013 -1.7831
  271MOL0     H36576   5.251   8.292   7.587 -1.1122  2.6229  0.5543
  271MOL0     H36577   5.087   8.192   7.434  0.8600  0.4151  0.1352
  271MOL0     H36578   5.233   8.097   7.426  1.2679 -0.9121 -1.7718
  271MOL0     H36579   5.109   8.291   7.232 -0.8066 -0.3063  2.4900
  271MOL0     H36580   5.287   8.235   7.213  0.5680 -1.2459  1.1620
  271MOL0     H36581   5.082   7.911   7.074  0.9905  0.1636 -0.1161
  271MOL0     H36582   5.576   8.610   7.362 -1.8277 -1.6341  2.1643
  271MOL0     H36583   5.728   8.792   7.369 -0.7634 -0.2841 -1.1552
  271MOL0     H36584   5.899   8.759   7.414 -0.1597 -0.9648  2.5823
  271MOL0     H36585   5.822   8.748   7.244  1.2355 -0.9113  1.4508
  272MOL0     O36586   0.884   5.054   6.615  0.4711  0.5171 -0.2928
  272MOL0     C36587   0.826   5.163   6.623 -0.4508  0.4161 -0.2802
  272MOL0     O36588   0.886   5.277   6.670  0.3781 -1.0372  0.6960
  272MOL0     C36589   1.024   5.288   6.676  1.5633  0.6917 -0.2222
  272MOL0     C36590   1.101   5.315   6.563  1.3950  0.2225  0.0321
  272MOL0     C36591   1.240   5.314   6.564 -0.5008 -0.1230  0.3259
  272MOL0     C36592   1.299   5.309   6.694 -0.7196 -0.3281  0.3939
  272MOL0     O36593   1.437   5.330   6.713  0.2555  0.0933 -0.4657
  272MOL0     C36594   1.528   5.286   6.619 -0.1248 -0.0370 -0.0948
  272MOL0     C36595   1.639   5.201   6.700  0.4096 -0.2649  0.4757
  272MOL0     C36596   1.604   5.053   6.701 -0.0111 -0.1696 -0.4208
  272MOL0     C36597   1.683   4.986   6.821  0.3319 -0.0499 -0.1186
  272MOL0     C36598   1.649   4.830   6.833  0.1717  1.1056  0.4404
  272MOL0     C36599   1.746   4.745   6.906 -0.4384  0.4311 -0.0222
  272MOL0     C36600   1.687   4.613   6.974 -0.4110 -0.6637 -0.0692
  272MOL0     C36601   1.785   4.542   7.074  0.7500 -0.1965  0.1367
  272MOL0     N36602   1.720   4.417   7.126  0.1547  0.5033 -0.7184
  272MOL0     C36603   1.639   4.400   7.233  0.0601  0.1687 -0.8921
  272MOL0     C36604   1.630   4.262   7.247 -0.3304  0.5199 -0.2878
  272MOL0     C36605   1.543   4.194   7.355  0.3493 -0.6149 -0.2911
  272MOL0     C36606   1.626   4.166   7.486 -0.1481  0.3937  0.4413
  272MOL0     C36607   1.661   4.291   7.561  0.0019  0.0095  0.0322
  272MOL0     C36608   1.740   4.275   7.687  0.5409 -0.0246 -0.2625
  272MOL0     O36609   1.824   4.389   7.706 -0.2360 -0.1553 -0.7632
  272MOL0     C36610   1.946   4.398   7.645 -0.3407 -0.1037  1.4176
  272MOL0     C36611   2.018   4.524   7.659  0.8817  0.0025  0.5154
  272MOL0     C36612   2.142   4.544   7.602 -1.4982 -0.3460 -0.8238
  272MOL0     C36613   2.207   4.440   7.523 -0.4075 -0.2092 -0.4482
  272MOL0     C36614   2.338   4.472   7.454  0.2073  0.4108  0.1282
  272MOL0     O36615   2.412   4.364   7.408 -0.1274 -0.2266  0.2158
  272MOL0     C36616   2.542   4.386   7.376  0.1677  0.4875 -0.2257
  272MOL0     C36617   2.583   4.471   7.268  0.6625  0.5295 -0.2793
  272MOL0     C36618   2.718   4.476   7.226  0.6911 -0.0893 -0.0026
  272MOL0     C36619   2.815   4.408   7.298 -0.0525 -0.0896 -0.2318
  272MOL0     O36620   2.954   4.416   7.263 -0.1492  0.1249  0.7245
  272MOL0     C36621   3.019   4.516   7.333 -0.5518 -0.0972  0.3745
  272MOL0     C36622   3.165   4.547   7.288 -0.1069  0.2616 -0.1492
  272MOL0     C36623   3.244   4.415   7.309  0.0051  0.7063  0.8341
  272MOL0     C36624   3.389   4.437   7.325 -1.1198 -0.6484 -0.2301
  272MOL0     C36625   3.481   4.313   7.299  0.0972 -0.3988  0.7580
  272MOL0     C36626   3.629   4.351   7.322  0.2223 -0.3597 -0.5097
  272MOL0     C36627   3.698   4.233   7.398 -0.7170  0.5108  0.2901
  272MOL0     C36628   3.838   4.239   7.426 -0.7124 -0.8124 -0.1233
  272MOL0    Cl36629   3.852   4.391   7.529  0.2862  0.0116 -0.5178
  272MOL0     C36630   2.775   4.334   7.412  0.2853 -0.3253  0.2470
  272MOL0     C36631   2.645   4.311   7.445 -0.5385  0.4564  0.0840
  272MOL0     O36632   2.373   4.590   7.446  0.0616 -0.2845 -0.1666
  272MOL0     C36633   2.133   4.320   7.510  1.0183  0.4473  0.1992
  272MOL0     C36634   2.005   4.308   7.555  0.0401  0.0622 -0.1123
  272MOL0     N36635   1.704   4.200   7.148  1.2034 -0.1891 -1.2465
  272MOL0     N36636   1.760   4.292   7.077 -0.3543  0.0482  0.4281
  272MOL0     C36637   1.224   5.277   6.809 -0.7241  0.4708 -0.7930
  272MOL0     C36638   1.085   5.257   6.793  0.1559 -0.5950 -0.4552
  272MOL0     C36639   0.681   5.155   6.582 -0.5828 -0.1710 -0.6780
  272MOL0     C36640   0.576   5.210   6.659 -0.7632  0.3800 -0.7861
  272MOL0     C36641   0.441   5.186   6.628  0.3811  0.2070 -0.6567
  272MOL0     C36642   0.408   5.096   6.523 -0.5034 -0.5694  0.7455
  272MOL0     O36643   0.283   5.068   6.487 -0.0068  0.3098  0.0018
  272MOL0     C36644   0.177   5.109   6.579  0.0204 -0.5328 -1.1635
  272MOL0     C36645   0.039   5.096   6.519  0.2577  1.0581 -0.0798
  272MOL0     C36646   0.016   5.195   6.404  0.4472 -0.2882 -0.0984
  272MOL0     C36647  -0.088   5.144   6.300  0.0167  0.2976 -0.0015
  272MOL0     C36648  -0.225   5.155   6.349  0.9780 -0.4977  0.3666
  272MOL0     C36649  -0.346   5.151   6.385 -0.4706  0.0615  0.2708
  272MOL0     C36650   0.517   5.062   6.440  0.5654 -0.3350  0.5825
  272MOL0     C36651   0.647   5.083   6.469  0.6436  2.3378 -0.7822
  272MOL0     C36652   0.748   5.030   6.370  0.2249 -0.3427  0.4362
  272MOL0     H36653   1.053   5.322   6.466 -2.5842 -1.9276  1.5921
  272MOL0     H36654   1.295   5.328   6.472 -0.5698  0.3541  0.3557
  272MOL0     H36655   1.495   5.228   6.532  2.0743 -0.5028 -0.6611
  272MOL0     H36656   1.577   5.370   6.570 -2.0911  0.9035 -0.5457
  272MOL0     H36657   1.665   5.238   6.800 -2.7577  1.0186  0.9606
  272MOL0     H36658   1.731   5.218   6.644 -0.4545 -2.0547 -1.6379
  272MOL0     H36659   1.636   5.015   6.604 -0.0959  0.8697 -0.8741
  272MOL0     H36660   1.498   5.035   6.721  0.3907 -2.1602  0.1009
  272MOL0     H36661   1.789   5.008   6.804 -0.2339  0.8375 -3.0672
  272MOL0     H36662   1.650   5.032   6.915 -2.1923 -2.3271  0.2330
  272MOL0     H36663   1.551   4.807   6.874  0.4530 -0.2189  0.4249
  272MOL0     H36664   1.659   4.791   6.731 -0.2264 -2.2892  1.5622
  272MOL0     H36665   1.830   4.713   6.844 -0.3440  0.8390 -0.1098
  272MOL0     H36666   1.785   4.801   6.992 -3.5113 -0.0333  1.8174
  272MOL0     H36667   1.655   4.537   6.902 -1.6005 -0.5750  0.3498
  272MOL0     H36668   1.596   4.635   7.029 -0.1361  0.2534  0.0418
  272MOL0     H36669   1.880   4.518   7.025  0.6774  0.7554 -0.5057
  272MOL0     H36670   1.792   4.614   7.155 -0.7436 -0.3131  0.4025
  272MOL0     H36671   1.589   4.482   7.284  0.6783  2.7758 -4.1576
  272MOL0     H36672   1.445   4.237   7.381  0.9551  1.7178 -1.6038
  272MOL0     H36673   1.504   4.098   7.320 -0.4995 -1.0189  1.6091
  272MOL0     H36674   1.583   4.102   7.564 -0.7938  2.3060  1.7362
  272MOL0     H36675   1.722   4.124   7.453 -0.0394 -0.3150  1.5865
  272MOL0     H36676   1.567   4.333   7.600 -0.5737 -2.3982  1.4328
  272MOL0     H36677   1.700   4.375   7.502 -1.6490  0.0663 -1.0387
  272MOL0     H36678   1.799   4.183   7.691 -2.0447 -1.7939 -0.2908
  272MOL0     H36679   1.672   4.266   7.772  0.1558  0.3129 -0.5309
  272MOL0     H36680   1.969   4.609   7.706 -0.3339  0.4302 -1.4477
  272MOL0     H36681   2.170   4.648   7.588 -0.7950 -0.2017  1.2506
  272MOL0     H36682   2.513   4.527   7.207  3.0384  1.3599 -2.4461
  272MOL0     H36683   2.753   4.531   7.139 -0.7597  0.6947 -0.1160
  272MOL0     H36684   2.954   4.605   7.329  1.5330  1.5167  0.8225
  272MOL0     H36685   3.031   4.473   7.433  1.3645 -1.3983 -0.3774
  272MOL0     H36686   3.154   4.579   7.184  0.0996 -0.6147 -0.4427
  272MOL0     H36687   3.212   4.619   7.356 -0.5979  1.4509 -1.0246
  272MOL0     H36688   3.218   4.358   7.399  2.6660 -0.8975  0.6928
  272MOL0     H36689   3.227   4.358   7.218  0.9470  1.1615  0.3595
  272MOL0     H36690   3.394   4.487   7.422 -3.4279  0.5626 -0.6562
  272MOL0     H36691   3.409   4.508   7.245 -0.9544 -0.0779  0.3121
  272MOL0     H36692   3.465   4.271   7.199  3.5078  3.2067 -1.6316
  272MOL0     H36693   3.442   4.249   7.378  0.4239 -0.5977  0.7599
  272MOL0     H36694   3.689   4.367   7.232  0.5923  1.6484  0.0661
  272MOL0     H36695   3.635   4.442   7.381  2.3473 -2.2931  2.5631
  272MOL0     H36696   3.677   4.143   7.339  3.1199  1.0197 -2.2391
  272MOL0     H36697   3.657   4.215   7.498 -0.3620  0.9802  0.5226
  272MOL0     H36698   3.874   4.162   7.494  4.7383  0.0889 -1.5346
  272MOL0     H36699   3.908   4.232   7.342  0.1126 -1.5501  0.6067
  272MOL0     H36700   2.858   4.292   7.468  1.5058  0.7271 -0.7191
  272MOL0     H36701   2.626   4.246   7.530  0.6036 -0.1388 -0.0926
  272MOL0     H36702   2.165   4.242   7.442  1.5981 -0.9237  1.9471
  272MOL0     H36703   1.959   4.212   7.537  1.6509 -0.8360  0.3941
  272MOL0     H36704   1.281   5.266   6.901  0.7468  2.9794 -1.3163
  272MOL0     H36705   1.025   5.231   6.880  4.2196 -2.4617  2.0740
  272MOL0     H36706   0.605   5.255   6.754 -0.9399 -1.0108 -0.0444
  272MOL0     H36707   0.367   5.225   6.696 -0.1033 -0.1340 -0.9793
  272MOL0     H36708   0.183   5.211   6.617 -0.0511 -0.7389 -0.5838
  272MOL0     H36709   0.171   5.047   6.669  3.6357 -0.5621 -0.8248
  272MOL0     H36710  -0.037   5.111   6.596 -0.2985  0.9691 -0.6012
  272MOL0     H36711   0.035   4.995   6.477  0.4376  0.6432  0.8759
  272MOL0     H36712   0.116   5.217   6.366 -0.5293  2.1375 -1.4839
  272MOL0     H36713  -0.012   5.293   6.442 -0.9218  0.4323 -2.7230
  272MOL0     H36714  -0.090   5.208   6.212 -1.7921  0.2580 -0.0252
  272MOL0     H36715  -0.065   5.043   6.267  0.1206 -0.8383  3.1908
  272MOL0     H36716  -0.449   5.147   6.416 -0.7106  0.8539 -0.3940
  272MOL0     H36717   0.496   5.010   6.347  2.7877 -1.3180  0.5650
  272MOL0     H36718   0.701   5.044   6.273 -1.0526 -1.1764  0.8999
  272MOL0     H36719   0.836   5.092   6.381 -0.3100  0.2972  1.2162
  272MOL0     H36720   0.763   4.922   6.383 -0.5378 -0.4421  0.5840
  273MOL0     O36721   4.309   8.487   0.777  0.6629  1.1104 -0.0055
  273MOL0     C36722   4.315   8.598   0.808 -0.3615 -0.9128 -1.0452
  273MOL0     O36723   4.214   8.671   0.866 -0.1801  0.1590 -0.1515
  273MOL0     C36724   4.101   8.617   0.899  0.0893 -0.0909 -0.8948
  273MOL0     C36725   3.996   8.708   0.869  0.0806  0.2387  0.3649
  273MOL0     C36726   3.861   8.675   0.905 -0.0320  0.2731 -0.9731
  273MOL0     C36727   3.828   8.546   0.964  0.3100 -0.3303 -0.1202
  273MOL0     O36728   3.691   8.511   0.989 -0.0811 -0.0035 -0.2858
  273MOL0     C36729   3.576   8.552   0.912  0.3873  0.1820 -0.4770
  273MOL0     C36730   3.542   8.456   0.800 -0.6501  0.1468 -0.3603
  273MOL0     C36731   3.420   8.482   0.720 -0.2818 -0.8121 -0.2269
  273MOL0     C36732   3.296   8.443   0.790  0.6033  1.5418 -0.6472
  273MOL0     C36733   3.170   8.466   0.713  0.4083  0.2286  0.0954
  273MOL0     C36734   3.148   8.376   0.585 -1.1592  0.2151 -0.6756
  273MOL0     C36735   3.012   8.393   0.509 -0.6902 -0.3492 -0.3569
  273MOL0     C36736   2.904   8.298   0.556  0.1176  0.0363  0.2102
  273MOL0     N36737   2.925   8.167   0.495  0.1974  0.1108  0.0623
  273MOL0     C36738   3.023   8.125   0.401 -0.4927  0.4967 -0.2210
  273MOL0     C36739   2.993   7.992   0.380 -0.0531  0.2692 -0.3738
  273MOL0     C36740   3.049   7.904   0.266 -0.4950 -1.0246 -1.0563
  273MOL0     C36741   3.119   7.782   0.324 -0.6438  0.1304  0.4741
  273MOL0     C36742   3.186   7.688   0.223 -0.5508 -0.4642 -0.5494
  273MOL0     C36743   3.279   7.588   0.291  0.1393 -0.0940  0.1848
  273MOL0     O36744   3.361   7.521   0.197  0.0708  0.1527  0.3547
  273MOL0     C36745   3.471   7.451   0.242  0.5223 -0.4209  0.5230
  273MOL0     C36746   3.543   7.463   0.360 -0.5371 -0.6634 -0.2603
  273MOL0     C36747   3.668   7.404   0.379  0.2387 -0.6853  0.1822
  273MOL0     C36748   3.728   7.334   0.273 -0.8812 -0.2603  0.8279
  273MOL0     C36749   3.859   7.260   0.295  1.0983 -0.0281  0.3379
  273MOL0     O36750   3.924   7.266   0.415  0.4636 -0.1694  0.2264
  273MOL0     C36751   4.058   7.247   0.416 -0.0196 -0.1217  0.0322
  273MOL0     C36752   4.106   7.220   0.540  0.4916 -0.8361 -0.1367
  273MOL0     C36753   4.234   7.192   0.565  0.5030 -0.8871 -0.0839
  273MOL0     C36754   4.323   7.183   0.462  0.7416  0.0061 -0.0190
  273MOL0     O36755   4.455   7.144   0.489 -1.1408 -0.2735  0.1627
  273MOL0     C36756   4.555   7.203   0.408  1.2311 -0.1028 -0.4183
  273MOL0     C36757   4.700   7.176   0.459 -0.9702 -0.0062  0.1304
  273MOL0     C36758   4.715   7.022   0.492  0.0580  0.0078  0.1071
  273MOL0     C36759   4.831   6.989   0.595  0.0800  0.2143  0.8813
  273MOL0     C36760   4.820   6.844   0.660 -0.5273 -0.4945 -0.4756
  273MOL0     C36761   4.689   6.828   0.736  0.6873  0.3244 -0.3197
  273MOL0     C36762   4.697   6.696   0.815  0.6900 -0.2090 -0.4371
  273MOL0     C36763   4.602   6.675   0.937  0.2671  0.1383  0.2872
  273MOL0    Cl36764   4.604   6.800   1.048  0.3483 -0.3958 -0.0287
  273MOL0     C36765   4.279   7.217   0.330  0.2117 -0.4884 -0.6053
  273MOL0     C36766   4.152   7.262   0.308  0.0681 -0.0858 -0.6410
  273MOL0     O36767   3.898   7.192   0.202 -0.8028  0.4533  0.3823
  273MOL0     C36768   3.646   7.311   0.159  0.1734  0.8754  0.2271
  273MOL0     C36769   3.522   7.375   0.142 -0.9082 -0.2453  0.7121
  273MOL0     N36770   2.895   7.950   0.473  0.1466 -0.0308  0.6908
  273MOL0     N36771   2.858   8.054   0.547 -0.0543 -0.2908  0.4064
  273MOL0     C36772   3.937   8.460   0.982 -0.1926 -0.4820 -0.1648
  273MOL0     C36773   4.075   8.490   0.949  0.7366 -0.0391 -0.4879
  273MOL0     C36774   4.439   8.679   0.771  0.4453 -0.6415  0.3851
  273MOL0     C36775   4.445   8.821   0.811  0.9921  0.0947  0.1358
  273MOL0     C36776   4.543   8.905   0.764 -0.5715 -0.1161  1.1758
  273MOL0     C36777   4.649   8.859   0.688 -0.5763 -0.0159 -0.1605
  273MOL0     O36778   4.747   8.954   0.660 -0.0472 -0.1184 -0.5860
  273MOL0     C36779   4.856   8.926   0.575  0.4845 -0.1306 -0.1124
  273MOL0     C36780   4.939   9.058   0.544 -0.5722 -0.2171 -0.3624
  273MOL0     C36781   5.034   9.096   0.657 -0.0249 -0.4847 -0.6648
  273MOL0     C36782   5.146   9.184   0.607 -0.3505 -0.9242  1.0058
  273MOL0     C36783   5.107   9.321   0.561 -0.4688 -0.3707 -1.1631
  273MOL0     C36784   5.090   9.437   0.529  0.1158  0.4336 -0.7317
  273MOL0     C36785   4.648   8.722   0.664 -0.2181 -0.0672 -0.3123
  273MOL0     C36786   4.546   8.628   0.690 -0.3775 -0.8738 -0.2417
  273MOL0     C36787   4.569   8.493   0.642 -0.4536  0.1316 -0.3656
  273MOL0     H36788   4.013   8.802   0.818 -2.2322 -1.8896 -5.0555
  273MOL0     H36789   3.780   8.743   0.880 -0.0060  1.8387  2.6632
  273MOL0     H36790   3.492   8.565   0.981  0.8026 -0.7553  0.2251
  273MOL0     H36791   3.594   8.652   0.871 -1.4758  1.3320  1.3365
  273MOL0     H36792   3.529   8.358   0.847 -2.5069  1.2867  1.6805
  273MOL0     H36793   3.621   8.458   0.724 -1.2619 -1.7795 -1.1070
  273MOL0     H36794   3.423   8.419   0.630 -0.0250  2.3897 -2.6048
  273MOL0     H36795   3.414   8.587   0.690 -1.4852 -0.7062  0.3219
  273MOL0     H36796   3.304   8.338   0.817  2.0147  2.5883  3.9546
  273MOL0     H36797   3.297   8.493   0.888 -3.5220  2.1216 -0.7335
  273MOL0     H36798   3.075   8.450   0.766 -1.3622  2.4862 -2.1166
  273MOL0     H36799   3.158   8.568   0.676 -0.9246 -0.4661 -1.5640
  273MOL0     H36800   3.233   8.405   0.523 -0.0167 -2.8948 -0.7202
  273MOL0     H36801   3.163   8.269   0.602 -2.6156 -0.1060 -1.2672
  273MOL0     H36802   3.017   8.393   0.400  1.5800 -0.6079 -0.3029
  273MOL0     H36803   2.968   8.491   0.529  1.8400  0.3886  2.3935
  273MOL0     H36804   2.909   8.308   0.665  0.9859  1.9004  0.0422
  273MOL0     H36805   2.807   8.330   0.516  0.6783  0.4147 -0.9025
  273MOL0     H36806   3.107   8.176   0.356 -1.9582  2.8537 -0.4718
  273MOL0     H36807   2.970   7.883   0.192 -3.9956  1.2552  1.7151
  273MOL0     H36808   3.124   7.969   0.219 -1.4106  0.8308 -0.0510
  273MOL0     H36809   3.177   7.811   0.412  0.8131  1.9257 -0.9978
  273MOL0     H36810   3.035   7.722   0.362 -1.0758  0.6793  0.3878
  273MOL0     H36811   3.255   7.739   0.155  0.9559 -1.1727  0.3917
  273MOL0     H36812   3.110   7.643   0.158 -1.0274 -0.1710 -0.1962
  273MOL0     H36813   3.216   7.525   0.354 -0.4807  0.4915  0.1711
  273MOL0     H36814   3.343   7.654   0.351  0.4759 -0.5243  0.2968
  273MOL0     H36815   3.508   7.521   0.445 -1.8310 -1.6544 -0.0902
  273MOL0     H36816   3.718   7.419   0.474  0.4171  1.4217 -0.1883
  273MOL0     H36817   4.035   7.221   0.622 -1.7901  5.2012 -1.6477
  273MOL0     H36818   4.266   7.173   0.667  1.8478 -1.9415 -0.6743
  273MOL0     H36819   4.551   7.161   0.307  1.3020  0.3539 -0.6132
  273MOL0     H36820   4.535   7.310   0.407 -3.1074 -0.7386 -0.8918
  273MOL0     H36821   4.761   7.207   0.373  0.3389 -2.2421  0.1939
  273MOL0     H36822   4.736   7.242   0.539 -1.5612 -0.8967  1.1503
  273MOL0     H36823   4.623   6.985   0.539  0.7250  2.3243  3.6959
  273MOL0     H36824   4.736   6.966   0.401  2.6870 -1.9832  1.7539
  273MOL0     H36825   4.842   7.077   0.660  1.1975  0.0379  0.9508
  273MOL0     H36826   4.927   6.987   0.542  0.7936 -0.4915  2.1379
  273MOL0     H36827   4.899   6.826   0.734 -0.0720  0.1753 -0.7842
  273MOL0     H36828   4.820   6.773   0.576 -1.4749 -1.3008  0.1872
  273MOL0     H36829   4.672   6.916   0.799  2.1505  0.6115 -0.3032
  273MOL0     H36830   4.604   6.818   0.667  0.3544 -1.3078  0.2918
  273MOL0     H36831   4.800   6.690   0.852  0.4314 -1.7106  0.1202
  273MOL0     H36832   4.690   6.613   0.743  0.1333 -0.6951  0.1681
  273MOL0     H36833   4.501   6.658   0.897  0.8195  0.9575 -1.5703
  273MOL0     H36834   4.630   6.579   0.979 -0.2830  1.2888  3.6029
  273MOL0     H36835   4.352   7.214   0.250  1.2084 -1.9141  0.3029
  273MOL0     H36836   4.117   7.285   0.208 -1.7549 -1.6501 -0.4079
  273MOL0     H36837   3.682   7.236   0.090 -0.2211 -0.9941  1.9695
  273MOL0     H36838   3.461   7.366   0.052  2.3508 -0.6354 -1.6442
  273MOL0     H36839   3.903   8.364   1.019 -0.3585  0.2718  1.7194
  273MOL0     H36840   4.156   8.418   0.957 -0.9864 -2.2151 -1.6999
  273MOL0     H36841   4.363   8.865   0.867 -0.5135 -1.3770 -0.8143
  273MOL0     H36842   4.542   9.012   0.786  1.9683  0.8062 -2.2404
  273MOL0     H36843   4.823   8.875   0.483  2.8172 -0.7656 -0.6891
  273MOL0     H36844   4.914   8.843   0.618 -0.1790 -0.8451 -0.5701
  273MOL0     H36845   4.874   9.142   0.519 -0.8817  0.4681  2.3872
  273MOL0     H36846   4.989   9.036   0.450 -1.2646  0.4056 -0.8882
  273MOL0     H36847   5.071   9.006   0.706  0.1496 -0.7516 -1.2734
  273MOL0     H36848   4.973   9.159   0.722 -1.1400 -1.4058 -0.7910
  273MOL0     H36849   5.226   9.196   0.680 -1.1212 -0.1892  1.7435
  273MOL0     H36850   5.190   9.152   0.512 -0.7333 -1.7060  1.0769
  273MOL0     H36851   5.084   9.543   0.515 -0.1471  0.1986 -2.7259
  273MOL0     H36852   4.732   8.691   0.602 -0.9031 -0.9751 -0.8118
  273MOL0     H36853   4.630   8.505   0.552 -1.1457  1.3149 -0.6967
  273MOL0     H36854   4.635   8.444   0.715 -1.4672 -1.5269 -0.5166
  273MOL0     H36855   4.478   8.439   0.613  0.2242 -0.2876 -1.7947
  274MOL0     O36856   7.856   6.801   1.808  0.1231 -0.9851  0.1804
  274MOL0     C36857   7.816   6.804   1.924 -0.5714  0.3503  0.8671
  274MOL0     O36858   7.898   6.811   2.038 -0.1511 -0.3594  0.0621
  274MOL0     C36859   8.035   6.798   2.037  0.8884  0.9553 -0.2360
  274MOL0     C36860   8.097   6.780   2.162 -0.1945  0.4827 -0.9888
  274MOL0     C36861   8.233   6.765   2.178 -0.7142  0.0885  0.1293
  274MOL0     C36862   8.317   6.773   2.067 -0.0354  0.7232 -0.4768
  274MOL0     O36863   8.458   6.761   2.082 -0.1387 -0.1110  0.4972
  274MOL0     C36864   8.502   6.641   2.140  0.5207 -0.0037  0.1166
  274MOL0     C36865   8.651   6.600   2.102 -0.1733  1.1420  0.2504
  274MOL0     C36866   8.749   6.711   2.147 -1.1068 -0.8849  0.6690
  274MOL0     C36867   8.899   6.708   2.103  0.0867  0.1458  0.5499
  274MOL0     C36868   8.992   6.811   2.163  0.6867 -0.7328 -0.0583
  274MOL0     C36869   8.958   6.956   2.140 -0.2608  0.0573  0.1793
  274MOL0     C36870   9.046   7.041   2.229 -0.4896 -1.1013 -0.0861
  274MOL0     C36871   9.052   7.184   2.155 -1.1774 -0.8341 -0.1327
  274MOL0     N36872   9.141   7.272   2.229  1.0193  0.0178 -0.3523
  274MOL0     C36873   9.167   7.272   2.364 -0.1720 -0.5518 -0.4947
  274MOL0     C36874   9.283   7.348   2.384  0.2763  0.9357 -0.6265
  274MOL0     C36875   9.355   7.377   2.510  0.2174  0.0182 -0.2639
  274MOL0     C36876   9.501   7.411   2.484 -0.1059  0.3576  0.8062
  274MOL0     C36877   9.594   7.392   2.602  0.4452  0.7288 -0.0206
  274MOL0     C36878   9.561   7.499   2.707  0.3429 -0.0507 -0.2796
  274MOL0     O36879   9.683   7.551   2.772 -0.2413 -0.3199  0.7910
  274MOL0     C36880   9.749   7.456   2.849  0.0325  0.6141  0.8052
  274MOL0     C36881   9.885   7.433   2.823  1.3294  1.2083  0.3558
  274MOL0     C36882   9.951   7.319   2.869  0.3074 -0.6831  0.6165
  274MOL0     C36883   9.885   7.230   2.955 -0.2395 -1.1063 -0.1845
  274MOL0     C36884   9.965   7.115   3.009  0.4433 -0.2184  0.2017
  274MOL0     O36885  10.093   7.096   2.965 -0.2636 -0.0768 -0.1608
  274MOL0     C36886  10.160   6.976   2.981  0.5123  0.6543 -0.9548
  274MOL0     C36887  10.294   6.985   2.998  0.2002 -0.0419 -0.5570
  274MOL0     C36888  10.375   6.871   2.997  0.4889  0.3732 -0.6535
  274MOL0     C36889  10.327   6.741   2.988  0.1141 -0.4796  0.6964
  274MOL0     O36890  10.422   6.648   2.987 -1.2000  0.3332  0.4336
  274MOL0     C36891  10.376   6.540   2.904  0.2924  0.6066 -0.6265
  274MOL0     C36892  10.491   6.447   2.893 -0.1427 -0.8318  0.3159
  274MOL0     C36893  10.496   6.357   3.020  0.9473 -0.2051 -0.4463
  274MOL0     C36894  10.637   6.328   3.071  1.0937 -0.7241 -0.4041
  274MOL0     C36895  10.634   6.269   3.209 -0.5126 -0.0759  0.2616
  274MOL0     C36896  10.776   6.216   3.257  0.3946  0.6945  0.4955
  274MOL0     C36897  10.888   6.311   3.238  0.1143 -0.1410 -0.0579
  274MOL0     C36898  11.021   6.265   3.298  0.4907 -0.6463  0.6272
  274MOL0    Cl36899  11.052   6.089   3.265 -0.2562  0.1357 -0.1181
  274MOL0     C36900  10.194   6.733   2.968  0.7659  0.7188  1.2290
  274MOL0     C36901  10.104   6.848   2.966 -0.6708 -0.5126  0.5821
  274MOL0     O36902   9.910   7.048   3.092  0.1001 -0.0168  0.2325
  274MOL0     C36903   9.751   7.255   2.991 -0.2697  0.2088  0.7204
  274MOL0     C36904   9.687   7.366   2.938  0.0862 -0.0574  0.8870
  274MOL0     N36905   9.317   7.397   2.264  0.5526 -0.7108  0.3074
  274MOL0     N36906   9.235   7.353   2.173 -0.0076  0.2249 -0.4977
  274MOL0     C36907   8.261   6.780   1.940  0.2812 -0.4624 -0.5643
  274MOL0     C36908   8.126   6.789   1.929  0.9779 -0.3913 -0.2610
  274MOL0     C36909   7.669   6.773   1.934  0.2116 -0.6673  0.1107
  274MOL0     C36910   7.595   6.748   1.814 -0.4113 -0.3288 -0.4874
  274MOL0     C36911   7.458   6.717   1.814  0.7280  0.4354  0.1654
  274MOL0     C36912   7.393   6.711   1.932 -0.3058 -1.0452  0.1027
  274MOL0     O36913   7.257   6.725   1.952 -0.1090 -0.4664  0.0406
  274MOL0     C36914   7.168   6.655   1.859  0.6584 -0.1054 -0.6329
  274MOL0     C36915   7.101   6.554   1.947 -0.0185  0.3420  0.1213
  274MOL0     C36916   7.020   6.450   1.870 -0.0261 -1.1280  0.4977
  274MOL0     C36917   6.893   6.401   1.935  0.1409  0.3417  0.0872
  274MOL0     C36918   6.916   6.259   1.964 -0.4769  0.2939 -0.6527
  274MOL0     C36919   6.941   6.145   1.996  0.3635  0.0453 -0.2869
  274MOL0     C36920   7.463   6.733   2.055 -0.4463 -0.4373 -0.4054
  274MOL0     C36921   7.601   6.759   2.055 -0.0053 -0.7268 -0.1630
  274MOL0     C36922   7.668   6.776   2.187 -0.5285  0.1472  0.5773
  274MOL0     H36923   8.043   6.784   2.256  1.5099  0.3122  0.0386
  274MOL0     H36924   8.279   6.745   2.274 -0.1678 -1.8034 -0.4857
  274MOL0     H36925   8.491   6.643   2.249  2.3744  0.8924  0.3361
  274MOL0     H36926   8.441   6.561   2.097  1.6547 -0.9547  0.2193
  274MOL0     H36927   8.641   6.596   1.993 -0.7266  0.7072  0.3075
  274MOL0     H36928   8.671   6.498   2.137 -3.2224  0.6891  1.0392
  274MOL0     H36929   8.749   6.704   2.256 -1.4200 -0.9813  0.6640
  274MOL0     H36930   8.714   6.808   2.111  0.7021  1.2170  4.0850
  274MOL0     H36931   8.927   6.607   2.134 -3.0629 -1.1026 -0.2992
  274MOL0     H36932   8.919   6.721   1.996  0.2359  0.4268  0.6096
  274MOL0     H36933   8.990   6.800   2.272 -0.4254 -0.0584  0.0045
  274MOL0     H36934   9.094   6.796   2.127  0.5438 -0.6875 -0.4851
  274MOL0     H36935   8.978   6.984   2.036  0.9595  0.2649  0.4638
  274MOL0     H36936   8.853   6.968   2.169 -0.6363 -0.2440 -1.0236
  274MOL0     H36937   9.144   6.993   2.234  0.7068  0.9245 -2.2523
  274MOL0     H36938   8.994   7.041   2.326 -2.6856  2.2819 -1.0655
  274MOL0     H36939   9.096   7.179   2.055  4.1532  0.2283  1.7789
  274MOL0     H36940   8.956   7.236   2.148 -0.4996  0.2377 -2.4221
  274MOL0     H36941   9.117   7.217   2.443  0.0395 -0.2827 -0.1660
  274MOL0     H36942   9.318   7.471   2.551  0.3874 -0.2601  0.5316
  274MOL0     H36943   9.345   7.290   2.576  1.0249  0.0209 -0.1274
  274MOL0     H36944   9.548   7.351   2.406  1.8082 -0.9631  2.8445
  274MOL0     H36945   9.506   7.516   2.453 -0.9067  0.9658  2.5922
  274MOL0     H36946   9.699   7.403   2.573 -0.2238 -0.7518 -3.5386
  274MOL0     H36947   9.582   7.292   2.645  0.7206  1.6777  2.4437
  274MOL0     H36948   9.485   7.460   2.776  2.1753 -0.5215  1.5658
  274MOL0     H36949   9.523   7.588   2.656 -0.9220  1.2613  2.7263
  274MOL0     H36950   9.931   7.497   2.749 -1.6126 -1.4117 -4.2663
  274MOL0     H36951  10.043   7.290   2.819  0.0527 -0.3470 -0.0576
  274MOL0     H36952  10.332   7.087   2.998  1.8791 -0.6347 -0.3768
  274MOL0     H36953  10.482   6.888   3.001  1.0155 -2.1034 -2.1930
  274MOL0     H36954  10.301   6.476   2.951  1.9794 -0.4736  0.7020
  274MOL0     H36955  10.352   6.586   2.807 -2.4416  1.1408  0.2331
  274MOL0     H36956  10.456   6.384   2.810 -0.3962 -0.6239  0.2642
  274MOL0     H36957  10.588   6.493   2.873 -0.6387 -0.4333 -1.3094
  274MOL0     H36958  10.446   6.416   3.097  2.3470  0.6832 -0.1873
  274MOL0     H36959  10.437   6.266   3.003 -1.3697  0.5591  2.6270
  274MOL0     H36960  10.700   6.417   3.075  0.5891 -0.3066 -1.5563
  274MOL0     H36961  10.687   6.260   3.001  2.7916 -1.8601  1.7565
  274MOL0     H36962  10.555   6.194   3.205 -1.9337  1.4122 -1.8443
  274MOL0     H36963  10.617   6.340   3.291  1.0189 -0.6429  1.1172
  274MOL0     H36964  10.776   6.182   3.361  1.3434  0.3132  0.3859
  274MOL0     H36965  10.794   6.139   3.181 -3.1780 -0.1624  0.3590
  274MOL0     H36966  10.863   6.409   3.281  3.0543  1.1022 -0.8993
  274MOL0     H36967  10.900   6.324   3.130 -2.6423  2.8574 -0.1336
  274MOL0     H36968  11.090   6.334   3.248 -0.9586 -1.4458 -2.7924
  274MOL0     H36969  11.015   6.281   3.406  0.8765  4.0849  0.1648
  274MOL0     H36970  10.135   6.643   2.955 -0.0809  1.5433 -1.1933
  274MOL0     H36971   9.999   6.832   2.943 -1.2820  2.7544  0.7238
  274MOL0     H36972   9.695   7.183   3.050  0.2775 -2.2442 -1.5770
  274MOL0     H36973   9.583   7.382   2.961  0.2987  1.7205  0.7426
  274MOL0     H36974   8.327   6.776   1.854  2.0463  1.0192  0.6321
  274MOL0     H36975   8.098   6.798   1.824  3.2921 -1.3288 -1.0205
  274MOL0     H36976   7.636   6.753   1.714  0.4523 -3.3098 -0.3818
  274MOL0     H36977   7.403   6.727   1.722 -0.1412  2.9994  0.8739
  274MOL0     H36978   7.224   6.603   1.781  1.9298 -2.9017  1.9241
  274MOL0     H36979   7.105   6.733   1.814 -0.1353 -1.1973 -1.4633
  274MOL0     H36980   7.040   6.603   2.023 -0.7209 -0.2995 -0.0044
  274MOL0     H36981   7.182   6.506   2.002  1.3184 -1.2278 -2.9487
  274MOL0     H36982   7.070   6.364   1.825  0.5562  0.1716 -1.4778
  274MOL0     H36983   6.979   6.514   1.791 -1.7195  0.5053  2.5732
  274MOL0     H36984   6.879   6.441   2.036  0.1385  0.1418  0.1658
  274MOL0     H36985   6.806   6.423   1.872 -2.4306 -2.8585  2.1695
  274MOL0     H36986   6.944   6.043   2.029  0.5961  0.5351  1.3398
  274MOL0     H36987   7.412   6.737   2.151  0.9140  0.8028  0.3138
  274MOL0     H36988   7.606   6.762   2.276  1.0629  0.3305  1.7781
  274MOL0     H36989   7.757   6.711   2.190  1.4125  2.5443 -0.9932
  274MOL0     H36990   7.698   6.881   2.194 -0.9325  0.3079 -0.0778
  275MOL0     O36991   0.060   2.931   3.395  0.2199 -0.3509 -0.3031
  275MOL0     C36992   0.071   3.049   3.436  0.3562  0.3336  0.5559
  275MOL0     O36993   0.187   3.123   3.434 -0.7844  0.3654 -0.0153
  275MOL0     C36994   0.302   3.066   3.388 -0.1888 -0.2629 -1.3092
  275MOL0     C36995   0.414   3.094   3.475 -0.2258 -0.1079  1.1080
  275MOL0     C36996   0.540   3.073   3.423 -1.0016  0.2130 -0.5179
  275MOL0     C36997   0.575   3.006   3.308  0.1573 -0.4743  0.6913
  275MOL0     O36998   0.702   2.988   3.255 -0.4783  0.0029 -0.5886
  275MOL0     C36999   0.767   3.101   3.203 -0.6088  0.1922 -0.0038
  275MOL0     C37000   0.805   3.052   3.059  0.0248 -0.5959  0.4591
  275MOL0     C37001   0.887   3.141   2.973 -0.2380 -0.2041  1.3292
  275MOL0     C37002   0.946   3.061   2.858 -0.3696 -0.4752  0.6063
  275MOL0     C37003   1.079   3.113   2.787  0.0041 -0.0800 -0.5471
  275MOL0     C37004   1.127   3.018   2.683 -0.6429 -1.2059 -0.2258
  275MOL0     C37005   1.277   3.048   2.645  0.7964  0.7198 -0.2162
  275MOL0     C37006   1.279   3.177   2.555 -0.7412 -0.3078 -1.0335
  275MOL0     N37007   1.414   3.198   2.523 -0.1527  1.1598  0.2256
  275MOL0     C37008   1.478   3.314   2.556 -0.3522  1.7465  0.3023
  275MOL0     C37009   1.591   3.320   2.491  0.0035 -0.3121 -0.4297
  275MOL0     C37010   1.685   3.440   2.491  0.1778  0.5164  0.0008
  275MOL0     C37011   1.725   3.497   2.626  0.5931 -0.1861  0.8569
  275MOL0     C37012   1.855   3.435   2.680 -0.5798 -0.0865 -0.1454
  275MOL0     C37013   1.980   3.492   2.621  0.4084  0.1317  0.1458
  275MOL0     O37014   2.090   3.418   2.684  0.0766 -0.5315  0.1423
  275MOL0     C37015   2.217   3.456   2.645 -0.5379  0.3703  0.0938
  275MOL0     C37016   2.320   3.380   2.711 -0.0486  0.3072  0.1911
  275MOL0     C37017   2.459   3.415   2.693  0.6947  0.9060 -0.1539
  275MOL0     C37018   2.494   3.514   2.602 -0.8337 -0.3896  0.0652
  275MOL0     C37019   2.631   3.544   2.565  0.6446  0.4134  0.3228
  275MOL0     O37020   2.731   3.497   2.649 -0.3807  0.7011  0.2022
  275MOL0     C37021   2.860   3.489   2.612 -0.2838  1.0644 -0.1206
  275MOL0     C37022   2.903   3.458   2.483 -1.2988 -0.0118 -0.1862
  275MOL0     C37023   3.043   3.478   2.452  0.0908  0.6026  0.0800
  275MOL0     C37024   3.134   3.533   2.548 -0.1713  0.0623 -0.9466
  275MOL0     O37025   3.271   3.546   2.532 -0.2901 -0.3822  1.0058
  275MOL0     C37026   3.316   3.638   2.427 -0.7394  0.9482 -0.5202
  275MOL0     C37027   3.455   3.685   2.462  0.1363 -0.1288 -0.4230
  275MOL0     C37028   3.560   3.577   2.420  0.6746 -0.7562  0.0245
  275MOL0     C37029   3.697   3.583   2.491  0.3577  1.1789  0.0324
  275MOL0     C37030   3.816   3.530   2.407 -0.0719 -0.7360 -0.0779
  275MOL0     C37031   3.936   3.559   2.488 -0.2365  0.6721 -0.7637
  275MOL0     C37032   4.069   3.521   2.417 -0.0599 -0.7515 -1.2551
  275MOL0     C37033   4.184   3.532   2.514 -0.3529 -0.3041 -0.0240
  275MOL0    Cl37034   4.323   3.622   2.454 -0.3579  0.3225 -0.0341
  275MOL0     C37035   3.081   3.577   2.667  0.4217 -1.1310  0.3527
  275MOL0     C37036   2.949   3.540   2.704 -0.3048 -0.1210  0.2773
  275MOL0     O37037   2.648   3.616   2.469 -0.3222  0.1100  0.0538
  275MOL0     C37038   2.387   3.579   2.532 -0.6515  0.2217  0.6262
  275MOL0     C37039   2.254   3.544   2.542 -0.0833  0.3567 -0.7442
  275MOL0     N37040   1.584   3.215   2.391 -0.8422 -0.6963  0.4255
  275MOL0     N37041   1.484   3.134   2.426  0.4490  0.2108 -0.2344
  275MOL0     C37042   0.460   2.969   3.232  0.6048 -0.4877 -0.3262
  275MOL0     C37043   0.326   2.998   3.270 -0.7087  0.3647  0.0769
  275MOL0     C37044  -0.058   3.112   3.478  0.3181  0.7543  0.1139
  275MOL0     C37045  -0.045   3.244   3.517  0.0490 -0.4415  1.3327
  275MOL0     C37046  -0.143   3.322   3.581  1.6084  0.2993  0.5522
  275MOL0     C37047  -0.271   3.264   3.583 -0.2880 -0.0959  0.4964
  275MOL0     O37048  -0.361   3.349   3.643 -0.6533  0.2143  0.5421
  275MOL0     C37049  -0.498   3.309   3.625 -0.2411 -0.9909 -0.2856
  275MOL0     C37050  -0.590   3.426   3.678 -0.2614  0.0939  0.6648
  275MOL0     C37051  -0.738   3.382   3.696  0.9815  0.0886 -0.3117
  275MOL0     C37052  -0.826   3.508   3.726  0.3989 -0.1596  0.8306
  275MOL0     C37053  -0.919   3.482   3.826  0.0363  0.2552 -0.1602
  275MOL0     C37054  -1.007   3.457   3.905  0.2679  0.4120 -0.3302
  275MOL0     C37055  -0.291   3.135   3.543  0.4229  0.4875  0.4682
  275MOL0     C37056  -0.192   3.054   3.484  0.2395 -0.0816  0.2097
  275MOL0     C37057  -0.226   2.907   3.461  0.3101  0.1784 -0.5934
  275MOL0     H37058   0.388   3.149   3.565  0.7610 -0.5601  1.6871
  275MOL0     H37059   0.621   3.117   3.481  2.2932 -3.8010 -1.6247
  275MOL0     H37060   0.712   3.196   3.206  0.4450  0.8027  1.3666
  275MOL0     H37061   0.865   3.117   3.249 -0.3935  0.1240 -0.4337
  275MOL0     H37062   0.718   3.026   2.999  1.2930  0.0357 -1.7699
  275MOL0     H37063   0.860   2.958   3.076  1.2134 -0.6317 -2.7894
  275MOL0     H37064   0.966   3.194   3.027 -1.9120  1.7732  1.9831
  275MOL0     H37065   0.829   3.218   2.920  2.7715  0.0220 -2.0250
  275MOL0     H37066   0.985   2.971   2.906 -1.0437 -0.9882  0.2130
  275MOL0     H37067   0.870   3.036   2.783 -1.8260  0.9781  1.5131
  275MOL0     H37068   1.054   3.211   2.745 -0.6018  0.9903  2.0737
  275MOL0     H37069   1.161   3.134   2.857 -1.2359  2.8536  0.1802
  275MOL0     H37070   1.120   2.916   2.724  0.1108 -1.0594  0.2721
  275MOL0     H37071   1.069   3.035   2.591 -0.4116  1.8367  0.0877
  275MOL0     H37072   1.315   2.962   2.588  1.1528 -0.1923  1.3553
  275MOL0     H37073   1.332   3.066   2.737 -1.3483  1.9351  0.9072
  275MOL0     H37074   1.206   3.166   2.474  0.0436  0.4314 -1.8506
  275MOL0     H37075   1.240   3.268   2.602 -0.4457  0.1298 -1.6309
  275MOL0     H37076   1.425   3.392   2.610 -1.9255  0.6557  0.4085
  275MOL0     H37077   1.770   3.413   2.428  1.9213 -1.8752  3.0386
  275MOL0     H37078   1.636   3.521   2.437  0.4843  0.0801 -0.9497
  275MOL0     H37079   1.732   3.606   2.627 -0.6665 -0.0789 -0.0734
  275MOL0     H37080   1.642   3.471   2.692  0.2126 -1.1149  0.0414
  275MOL0     H37081   1.859   3.330   2.651  1.2710 -0.8334  2.4317
  275MOL0     H37082   1.846   3.446   2.789 -4.2702  1.2184 -0.4283
  275MOL0     H37083   1.995   3.596   2.653  0.6692 -0.4111  1.9042
  275MOL0     H37084   1.974   3.483   2.512 -0.6955 -0.2177  0.2249
  275MOL0     H37085   2.296   3.304   2.785 -1.5199 -0.7641 -1.3027
  275MOL0     H37086   2.527   3.354   2.751  1.2726 -1.3847 -3.0479
  275MOL0     H37087   2.833   3.416   2.411 -0.5644  1.0367 -1.5580
  275MOL0     H37088   3.083   3.448   2.356 -1.3165 -0.2533 -0.2643
  275MOL0     H37089   3.313   3.599   2.325 -0.9319  3.0080 -1.3520
  275MOL0     H37090   3.253   3.727   2.429 -0.1761  1.3550  2.0048
  275MOL0     H37091   3.474   3.782   2.415  0.2471  0.4635  0.7983
  275MOL0     H37092   3.448   3.716   2.566 -1.0126  3.4923 -1.4228
  275MOL0     H37093   3.515   3.479   2.433 -2.8082  0.2818 -2.6095
  275MOL0     H37094   3.567   3.598   2.313  0.9662  0.3619  0.2404
  275MOL0     H37095   3.686   3.515   2.576 -0.9669  0.3993 -0.7138
  275MOL0     H37096   3.698   3.687   2.525  0.1144  0.6811  1.6455
  275MOL0     H37097   3.816   3.578   2.308 -2.8658 -1.2034 -0.3924
  275MOL0     H37098   3.818   3.422   2.395  0.6324 -0.5769 -1.6208
  275MOL0     H37099   3.932   3.665   2.516  0.9663  1.9150 -4.7072
  275MOL0     H37100   3.936   3.507   2.585  4.4917  1.8592  0.1265
  275MOL0     H37101   4.088   3.583   2.329  1.9391 -0.1474 -0.4567
  275MOL0     H37102   4.067   3.414   2.399 -1.0982 -1.2602  1.3409
  275MOL0     H37103   4.145   3.584   2.602 -3.4562 -2.0563 -0.2403
  275MOL0     H37104   4.211   3.433   2.551 -0.9509 -0.0776  1.0643
  275MOL0     H37105   3.139   3.614   2.751 -0.0065 -0.5463  0.3980
  275MOL0     H37106   2.905   3.559   2.802 -0.2663 -0.4357  0.3560
  275MOL0     H37107   2.393   3.658   2.458 -4.2653  0.5910  0.5633
  275MOL0     H37108   2.173   3.596   2.492 -0.2356 -1.6840 -2.7609
  275MOL0     H37109   0.476   2.910   3.142  1.3418  0.0378 -0.5509
  275MOL0     H37110   0.253   2.964   3.197  0.4578 -0.7215 -0.6329
  275MOL0     H37111   0.054   3.289   3.517 -0.0605 -0.0563 -1.3463
  275MOL0     H37112  -0.130   3.419   3.627  2.3688 -0.1119  1.2308
  275MOL0     H37113  -0.516   3.217   3.681 -0.9771  1.3819  3.7702
  275MOL0     H37114  -0.517   3.295   3.519  1.1652  2.2823 -1.0792
  275MOL0     H37115  -0.600   3.505   3.603  1.5690  0.9915  1.3397
  275MOL0     H37116  -0.553   3.472   3.769  1.4716  1.8938 -0.8712
  275MOL0     H37117  -0.738   3.317   3.785  4.1342 -1.8589 -1.5656
  275MOL0     H37118  -0.769   3.317   3.614 -1.5852  1.9736 -0.9787
  275MOL0     H37119  -0.751   3.582   3.755  0.9314 -0.7177  0.9036
  275MOL0     H37120  -0.880   3.539   3.636 -2.7537  0.8128  2.8859
  275MOL0     H37121  -1.079   3.461   3.984  1.1876  2.9516  0.4725
  275MOL0     H37122  -0.380   3.078   3.564  1.0779 -2.2429 -3.0429
  275MOL0     H37123  -0.241   2.885   3.355  0.6887  0.7927 -0.7760
  275MOL0     H37124  -0.151   2.842   3.508 -0.7421 -0.4805  0.2226
  275MOL0     H37125  -0.312   2.883   3.524 -0.7610  2.7338 -0.9800
  276MOL0     O37126   5.286   8.349   3.801  0.1018  0.2620  0.6352
  276MOL0     C37127   5.226   8.270   3.879  0.1496 -0.4679  0.8069
  276MOL0     O37128   5.246   8.131   3.894 -0.4652 -0.5135 -0.0222
  276MOL0     C37129   5.351   8.069   3.820  1.0406 -0.2830 -0.3846
  276MOL0     C37130   5.487   8.085   3.851  0.2627 -0.3373 -0.5017
  276MOL0     C37131   5.587   8.033   3.767 -0.7325 -0.5272  0.7783
  276MOL0     C37132   5.547   7.959   3.647  0.4031  0.2910 -0.1161
  276MOL0     O37133   5.644   7.912   3.562  0.4728  0.8372  0.8130
  276MOL0     C37134   5.715   7.799   3.612  0.1147  0.8952  0.3138
  276MOL0     C37135   5.751   7.705   3.501 -0.1160  0.3209  0.7270
  276MOL0     C37136   5.634   7.661   3.404  0.2020 -0.5077  0.4633
  276MOL0     C37137   5.689   7.573   3.292 -0.4268 -0.2996  0.1148
  276MOL0     C37138   5.585   7.533   3.192 -0.7219 -0.0732  0.3381
  276MOL0     C37139   5.455   7.484   3.268 -0.5752 -0.2110  1.1168
  276MOL0     C37140   5.347   7.468   3.162  0.1141  0.4322  0.4297
  276MOL0     C37141   5.211   7.428   3.218  0.3728  0.1006  0.1186
  276MOL0     N37142   5.210   7.308   3.300  0.1127 -0.2083 -0.2652
  276MOL0     C37143   5.164   7.305   3.438  0.3121  0.8602 -0.0649
  276MOL0     C37144   5.176   7.174   3.471  0.3785  0.0656  0.2363
  276MOL0     C37145   5.153   7.120   3.603  0.6762  0.7305  0.3342
  276MOL0     C37146   5.017   7.058   3.629 -0.8471  0.6144  0.5969
  276MOL0     C37147   4.888   7.145   3.599 -0.1233  0.0464  0.5396
  276MOL0     C37148   4.762   7.055   3.571 -0.0349 -0.1548  0.0296
  276MOL0     O37149   4.662   7.135   3.510 -0.5871 -0.5497  0.9022
  276MOL0     C37150   4.535   7.096   3.526  0.0640 -0.1878 -1.0705
  276MOL0     C37151   4.441   7.199   3.530  0.8715  0.4094 -0.2388
  276MOL0     C37152   4.305   7.180   3.570 -1.1733 -0.1058 -0.0901
  276MOL0     C37153   4.255   7.051   3.587 -0.8357  0.7017  0.2008
  276MOL0     C37154   4.110   7.027   3.619 -0.3877  0.4563  0.2099
  276MOL0     O37155   4.033   7.136   3.600 -0.3300 -0.9924 -0.0217
  276MOL0     C37156   3.908   7.132   3.655  0.2016  0.1976 -0.4676
  276MOL0     C37157   3.801   7.158   3.581  0.0742  0.3100 -0.0507
  276MOL0     C37158   3.669   7.164   3.640 -1.2243 -0.5850 -0.3824
  276MOL0     C37159   3.657   7.146   3.778 -0.5425 -0.1702  0.1773
  276MOL0     O37160   3.544   7.159   3.851 -0.1499 -0.2369  0.2330
  276MOL0     C37161   3.425   7.172   3.773  1.0888 -0.4963 -0.3284
  276MOL0     C37162   3.300   7.191   3.858  0.5111  0.8634  0.4621
  276MOL0     C37163   3.286   7.077   3.951  0.8920  0.4074 -1.0924
  276MOL0     C37164   3.165   7.112   4.050 -0.0850  0.1979  0.1406
  276MOL0     C37165   3.148   7.001   4.144 -0.7474  0.3214 -0.3059
  276MOL0     C37166   3.037   7.028   4.240 -0.3088  0.8687  0.2955
  276MOL0     C37167   3.025   6.925   4.354 -0.9187 -0.4979  0.2926
  276MOL0     C37168   2.905   6.950   4.448 -0.1035 -1.1393 -0.0872
  276MOL0    Cl37169   2.747   6.936   4.376 -0.3671 -0.3384  0.6481
  276MOL0     C37170   3.768   7.097   3.854  1.0357 -0.8102 -0.2503
  276MOL0     C37171   3.889   7.099   3.789 -0.6383  0.0954 -1.0923
  276MOL0     O37172   4.070   6.909   3.639 -0.9110  0.2779  0.3856
  276MOL0     C37173   4.347   6.946   3.570 -0.4589  0.1852 -0.2007
  276MOL0     C37174   4.487   6.967   3.543 -0.3656  0.1150  0.5563
  276MOL0     N37175   5.223   7.100   3.363  0.1067  0.1738 -0.4944
  276MOL0     N37176   5.239   7.181   3.264  0.1261 -0.3244  0.4037
  276MOL0     C37177   5.411   7.953   3.617 -1.0553  0.0996  0.6265
  276MOL0     C37178   5.317   8.011   3.701 -0.7259 -0.6189  0.3190
  276MOL0     C37179   5.104   8.330   3.955  0.6734  0.0323  0.0738
  276MOL0     C37180   5.038   8.248   4.049  0.0976 -0.7176  0.2586
  276MOL0     C37181   4.915   8.283   4.104  0.0606  0.3928  0.7565
  276MOL0     C37182   4.855   8.407   4.082 -0.2518 -0.8575 -0.3543
  276MOL0     O37183   4.737   8.447   4.138  0.5635 -0.2561  0.5507
  276MOL0     C37184   4.711   8.401   4.265  0.3437 -1.3898  0.2850
  276MOL0     C37185   4.584   8.467   4.317 -0.7416 -0.2135  0.2681
  276MOL0     C37186   4.541   8.412   4.444  0.5031 -0.0797 -0.2755
  276MOL0     C37187   4.399   8.447   4.480  0.3464  0.5130  0.5480
  276MOL0     C37188   4.282   8.413   4.395  0.2958  0.7877  0.7981
  276MOL0     C37189   4.188   8.367   4.335 -0.6342 -0.1966  0.5509
  276MOL0     C37190   4.917   8.494   3.989  0.2115 -0.1301 -0.4780
  276MOL0     C37191   5.034   8.456   3.922  0.1810  0.6066 -0.1186
  276MOL0     C37192   5.074   8.563   3.818  0.5440 -0.4235  0.6289
  276MOL0     H37193   5.512   8.152   3.932  1.5310 -0.8386 -0.4545
  276MOL0     H37194   5.690   8.058   3.788 -0.7179  2.5807 -2.1907
  276MOL0     H37195   5.806   7.830   3.664 -0.2897  3.6134 -0.4400
  276MOL0     H37196   5.650   7.739   3.675 -0.8356  0.5480 -0.9673
  276MOL0     H37197   5.796   7.619   3.550 -0.9984 -0.3903  0.3226
  276MOL0     H37198   5.824   7.764   3.444 -0.0312  0.5073  1.0272
  276MOL0     H37199   5.573   7.743   3.366  0.1443  0.2769  2.1440
  276MOL0     H37200   5.562   7.608   3.467 -0.5698  1.1115  0.9916
  276MOL0     H37201   5.770   7.631   3.248 -0.3533 -1.1957 -0.9645
  276MOL0     H37202   5.744   7.490   3.339 -0.4780  0.9730  2.5724
  276MOL0     H37203   5.559   7.616   3.127 -0.2715 -0.3269 -0.1794
  276MOL0     H37204   5.614   7.453   3.123  0.6000  0.5701  0.0974
  276MOL0     H37205   5.479   7.393   3.324 -0.1211  1.1329  3.2218
  276MOL0     H37206   5.409   7.555   3.337  0.1348  0.6824  0.6829
  276MOL0     H37207   5.367   7.385   3.093  1.7032 -2.3376  3.9253
  276MOL0     H37208   5.332   7.561   3.106 -1.3335 -1.4570 -2.6075
  276MOL0     H37209   5.177   7.513   3.278  0.3351 -1.2462  2.1247
  276MOL0     H37210   5.144   7.419   3.133 -1.4432  3.3240  1.0644
  276MOL0     H37211   5.135   7.388   3.502 -0.5949 -1.5938  2.9595
  276MOL0     H37212   5.234   7.048   3.616  0.9638  1.0673  0.4119
  276MOL0     H37213   5.171   7.191   3.685 -0.5160  1.4264  0.0186
  276MOL0     H37214   5.007   6.985   3.548 -0.4893  0.4133  0.7298
  276MOL0     H37215   5.008   6.999   3.721 -0.6147 -0.1868  0.1202
  276MOL0     H37216   4.902   7.209   3.512 -0.6422  1.4651  1.4696
  276MOL0     H37217   4.860   7.202   3.688 -0.8363  1.9887 -0.8672
  276MOL0     H37218   4.716   7.020   3.664 -2.2602  1.5636 -0.3584
  276MOL0     H37219   4.784   6.976   3.499 -1.8731  0.1198 -0.8918
  276MOL0     H37220   4.470   7.304   3.523 -0.4545  0.8087 -0.1558
  276MOL0     H37221   4.261   7.278   3.590  0.6257  0.4354  1.4336
  276MOL0     H37222   3.804   7.193   3.478 -0.0414  3.1761  0.8466
  276MOL0     H37223   3.583   7.200   3.585 -1.4687  3.1022  2.0653
  276MOL0     H37224   3.425   7.262   3.711 -0.0062  1.0088  1.7376
  276MOL0     H37225   3.404   7.091   3.704  4.7684 -0.5583 -1.6224
  276MOL0     H37226   3.295   7.291   3.902 -0.8117  1.9339 -1.9230
  276MOL0     H37227   3.212   7.199   3.794  0.5130  2.4516  0.6352
  276MOL0     H37228   3.281   6.973   3.916 -0.7929 -0.6936  1.9820
  276MOL0     H37229   3.378   7.068   4.008 -0.6641 -2.5510  1.2632
  276MOL0     H37230   3.074   7.120   3.989  0.2460 -0.4459 -0.4605
  276MOL0     H37231   3.186   7.204   4.104  3.8319  1.1452 -2.5439
  276MOL0     H37232   3.241   6.988   4.200 -2.6273 -0.0156  2.9720
  276MOL0     H37233   3.122   6.906   4.095 -0.8136 -1.0563  2.2618
  276MOL0     H37234   3.058   7.125   4.286  2.1175  1.1452 -1.2261
  276MOL0     H37235   2.939   7.027   4.190 -1.7587  1.1859  2.9403
  276MOL0     H37236   3.117   6.930   4.414 -0.1800 -3.0317 -0.4976
  276MOL0     H37237   3.011   6.823   4.318 -1.6938 -0.7631  1.3011
  276MOL0     H37238   2.900   6.874   4.526 -1.3191 -1.0692 -0.0865
  276MOL0     H37239   2.926   7.049   4.491 -0.8856 -1.2523  0.5698
  276MOL0     H37240   3.759   7.067   3.958  1.2397 -0.6605 -0.1896
  276MOL0     H37241   3.967   7.040   3.836 -0.9397  1.6754  1.6126
  276MOL0     H37242   4.315   6.844   3.590  0.0612 -0.5663 -2.8447
  276MOL0     H37243   4.557   6.884   3.542  0.3279  0.5733  2.9560
  276MOL0     H37244   5.368   7.897   3.534 -1.0773 -2.5889  2.3555
  276MOL0     H37245   5.214   7.996   3.671 -0.8655  1.6866 -0.5449
  276MOL0     H37246   5.056   8.142   4.067 -1.2161 -1.1269 -0.6799
  276MOL0     H37247   4.869   8.208   4.168 -0.2194  0.3044  0.4560
  276MOL0     H37248   4.800   8.424   4.324  0.2536  0.8483 -0.3542
  276MOL0     H37249   4.705   8.292   4.278  3.1506 -1.5395  1.0194
  276MOL0     H37250   4.503   8.451   4.245 -2.1544  3.4099  0.8515
  276MOL0     H37251   4.610   8.573   4.325 -1.2913 -0.1366  1.1758
  276MOL0     H37252   4.602   8.447   4.528  1.8760 -0.0718 -1.2550
  276MOL0     H37253   4.542   8.303   4.452 -1.1958 -0.0190  1.8281
  276MOL0     H37254   4.371   8.391   4.569 -1.6742 -0.2971 -0.5453
  276MOL0     H37255   4.393   8.556   4.493  0.9486  1.1305 -3.2414
  276MOL0     H37256   4.113   8.317   4.278 -1.6365  1.5595  0.2671
  276MOL0     H37257   4.873   8.592   3.976 -0.6282 -0.7593 -2.9319
  276MOL0     H37258   5.075   8.660   3.869  1.1614 -0.5233  0.8060
  276MOL0     H37259   5.172   8.550   3.771  0.6297 -0.6773  0.8725
  276MOL0     H37260   5.001   8.574   3.737  2.0780  0.5424 -0.6828
  277MOL0     O37261   4.216   4.631   5.760 -0.4693  0.2804  0.2019
  277MOL0     C37262   4.160   4.603   5.863 -0.0868 -0.3597 -0.0235
  277MOL0     O37263   4.216   4.644   5.983  0.2288  0.0772 -0.2587
  277MOL0     C37264   4.355   4.679   6.003  1.2235  0.1054  0.4902
  277MOL0     C37265   4.405   4.790   5.936  0.7058 -0.4806  0.5256
  277MOL0     C37266   4.527   4.844   5.970  0.2867 -0.1051 -1.0154
  277MOL0     C37267   4.609   4.768   6.060 -0.2418  0.4552  0.8228
  277MOL0     O37268   4.742   4.806   6.067  0.4192 -0.5754  0.2777
  277MOL0     C37269   4.837   4.722   5.984 -0.1178 -1.0985  0.2527
  277MOL0     C37270   4.984   4.761   6.015  0.8924 -0.4509  0.2219
  277MOL0     C37271   5.082   4.668   5.941 -0.6002 -0.3775 -0.2726
  277MOL0     C37272   5.116   4.710   5.797  1.0048 -0.1562 -0.3323
  277MOL0     C37273   5.136   4.595   5.701 -0.1745  0.4539 -0.0446
  277MOL0     C37274   5.260   4.519   5.742 -0.4888  0.1946 -0.8080
  277MOL0     C37275   5.359   4.516   5.633 -0.5172 -0.4868  1.4271
  277MOL0     C37276   5.458   4.391   5.646  0.2967  0.6361 -0.4750
  277MOL0     N37277   5.570   4.411   5.552 -0.2178  0.4294  0.2184
  277MOL0     C37278   5.568   4.375   5.419  0.5925  0.1042 -0.6465
  277MOL0     C37279   5.697   4.390   5.381  0.3259 -0.3609  0.7304
  277MOL0     C37280   5.757   4.389   5.245  0.4943 -0.1708  0.9355
  277MOL0     C37281   5.865   4.286   5.240  0.5736  0.3468 -0.6812
  277MOL0     C37282   5.811   4.146   5.274  0.4717  0.4166 -0.1473
  277MOL0     C37283   5.915   4.044   5.221  0.6751  0.8171 -0.4449
  277MOL0     O37284   6.032   4.063   5.307 -0.7846 -0.1393 -0.0983
  277MOL0     C37285   6.149   3.990   5.273  0.8730 -0.3291 -0.9651
  277MOL0     C37286   6.258   4.011   5.353  0.1209 -0.3312  0.1881
  277MOL0     C37287   6.383   3.961   5.324 -0.7322 -0.2576 -1.0706
  277MOL0     C37288   6.400   3.880   5.216  0.1502  0.4377  0.7469
  277MOL0     C37289   6.518   3.807   5.193  0.1951 -0.8472  0.3242
  277MOL0     O37290   6.620   3.833   5.275  0.0687  0.0554  0.3503
  277MOL0     C37291   6.725   3.739   5.275  0.4735  0.1800 -0.3977
  277MOL0     C37292   6.851   3.785   5.301 -0.5958  0.8352  0.3044
  277MOL0     C37293   6.972   3.711   5.319 -0.6547 -0.0277 -0.2149
  277MOL0     C37294   6.955   3.568   5.306  0.4061 -0.1380  1.2142
  277MOL0     O37295   7.064   3.481   5.311  0.4200 -0.5187  0.9631
  277MOL0     C37296   7.196   3.534   5.292  0.1308 -0.6668  0.7281
  277MOL0     C37297   7.311   3.427   5.299 -0.4546 -0.5385 -0.4389
  277MOL0     C37298   7.442   3.505   5.281 -0.0270  0.2943 -0.3937
  277MOL0     C37299   7.562   3.409   5.285  0.1238  0.9901 -0.8156
  277MOL0     C37300   7.699   3.483   5.295  0.8367 -0.2276 -0.9985
  277MOL0     C37301   7.823   3.401   5.316  0.5333 -0.1598 -0.5542
  277MOL0     C37302   7.952   3.478   5.307 -0.7653  0.1284 -0.4870
  277MOL0     C37303   8.077   3.391   5.321 -0.0359 -0.5997  1.0045
  277MOL0    Cl37304   8.207   3.503   5.351  0.1670 -0.1080  0.6151
  277MOL0     C37305   6.828   3.517   5.282  0.6552  0.2014 -0.0193
  277MOL0     C37306   6.716   3.601   5.259  0.4014  0.2139 -0.8292
  277MOL0     O37307   6.526   3.742   5.089  0.1230 -0.2477  0.5753
  277MOL0     C37308   6.279   3.861   5.134 -0.5237  0.4204  0.2485
  277MOL0     C37309   6.158   3.916   5.162  0.4612 -0.5404 -0.4799
  277MOL0     N37310   5.769   4.432   5.489 -0.9745 -0.4582  0.0620
  277MOL0     N37311   5.694   4.448   5.590 -0.5986  0.3582 -0.2107
  277MOL0     C37312   4.559   4.651   6.114 -0.3687 -0.3088 -1.4610
  277MOL0     C37313   4.429   4.610   6.094  0.1235 -0.0524  0.2662
  277MOL0     C37314   4.039   4.517   5.869 -0.6179 -0.4171  0.5713
  277MOL0     C37315   3.965   4.541   5.982 -0.5833 -0.8695 -0.1237
  277MOL0     C37316   3.850   4.465   6.008 -0.0490  0.0748 -0.4230
  277MOL0     C37317   3.821   4.359   5.914 -0.5194  0.4902  1.1825
  277MOL0     O37318   3.717   4.276   5.949  0.1551  0.6420  0.3737
  277MOL0     C37319   3.590   4.336   5.913  1.0687 -0.6188  0.0486
  277MOL0     C37320   3.486   4.224   5.891  0.6640 -0.2891  0.2203
  277MOL0     C37321   3.341   4.283   5.890 -0.8134 -0.7350 -0.4365
  277MOL0     C37322   3.252   4.161   5.876  0.4190 -0.4700  0.2013
  277MOL0     C37323   3.111   4.208   5.868  0.1840 -0.6088 -0.6506
  277MOL0     C37324   3.001   4.251   5.896  1.0252  1.0151  0.9985
  277MOL0     C37325   3.883   4.351   5.791 -0.2270  0.0799  1.0892
  277MOL0     C37326   4.000   4.416   5.772  0.6005  0.0240 -0.6650
  277MOL0     C37327   4.053   4.423   5.636  0.4162  0.5918 -0.1720
  277MOL0     H37328   4.348   4.833   5.855  0.1055  1.1631  1.7579
  277MOL0     H37329   4.568   4.931   5.919 -1.2313  0.5365 -1.1685
  277MOL0     H37330   4.820   4.618   6.012 -2.0469 -0.1876  2.9442
  277MOL0     H37331   4.817   4.726   5.876  1.5275 -1.8074 -0.1027
  277MOL0     H37332   4.998   4.756   6.124  0.8462 -2.4632  0.1835
  277MOL0     H37333   4.998   4.863   5.978 -4.0364 -0.5880 -2.9515
  277MOL0     H37334   5.056   4.562   5.936  0.8991 -0.8644  1.3833
  277MOL0     H37335   5.172   4.680   6.002 -1.9033  1.2793  1.4698
  277MOL0     H37336   5.033   4.769   5.756  1.7565  1.0170 -0.2123
  277MOL0     H37337   5.201   4.778   5.802  0.4299  0.4982  1.3967
  277MOL0     H37338   5.048   4.530   5.708  0.8265 -0.9657 -0.2530
  277MOL0     H37339   5.136   4.622   5.595  0.9568 -3.1958 -1.1254
  277MOL0     H37340   5.306   4.565   5.829 -1.1695  0.5655 -0.6341
  277MOL0     H37341   5.231   4.419   5.774 -1.0059  0.2447 -1.0947
  277MOL0     H37342   5.410   4.613   5.634  2.1905 -1.8072  1.8090
  277MOL0     H37343   5.322   4.518   5.530  1.3807  1.9326  0.6971
  277MOL0     H37344   5.497   4.386   5.748 -0.1491  2.8265 -0.1534
  277MOL0     H37345   5.409   4.293   5.638  0.7611  0.2676  0.9551
  277MOL0     H37346   5.485   4.338   5.360 -0.1011 -0.8932  0.8911
  277MOL0     H37347   5.675   4.372   5.174  1.3075  2.4120 -0.7625
  277MOL0     H37348   5.802   4.483   5.213 -1.5745 -0.1002 -2.2152
  277MOL0     H37349   5.907   4.284   5.139 -0.5832  3.1235 -1.3013
  277MOL0     H37350   5.939   4.312   5.317  0.9247 -1.2696 -0.4250
  277MOL0     H37351   5.711   4.118   5.239  0.4140 -2.2805  1.8379
  277MOL0     H37352   5.807   4.138   5.382  1.7387 -0.0169 -0.1194
  277MOL0     H37353   5.944   4.061   5.117 -0.5354  1.6939 -0.6619
  277MOL0     H37354   5.874   3.943   5.225  1.1585  0.6066 -0.6840
  277MOL0     H37355   6.248   4.076   5.440 -0.2551 -0.4149  0.2080
  277MOL0     H37356   6.467   3.981   5.389 -0.6122 -0.9679 -0.9912
  277MOL0     H37357   6.864   3.892   5.314 -1.3053  0.9781 -0.1385
  277MOL0     H37358   7.066   3.758   5.346 -0.7886  0.0685  0.0871
  277MOL0     H37359   7.193   3.592   5.199 -0.3933  0.9897  1.7199
  277MOL0     H37360   7.210   3.613   5.368 -0.6893  2.8972 -2.5057
  277MOL0     H37361   7.303   3.373   5.393  0.3273 -2.9044 -1.6494
  277MOL0     H37362   7.310   3.353   5.219  3.8630 -4.2764  2.4749
  277MOL0     H37363   7.430   3.553   5.184 -2.0071  0.4084 -0.1290
  277MOL0     H37364   7.446   3.582   5.358 -0.2014  0.2662 -0.3583
  277MOL0     H37365   7.562   3.345   5.196  1.3949 -1.8505  1.0835
  277MOL0     H37366   7.557   3.348   5.376  2.7687  1.2081 -0.4519
  277MOL0     H37367   7.684   3.559   5.372  0.6036 -0.0891 -1.1800
  277MOL0     H37368   7.712   3.540   5.203  0.2225  2.8932  0.6879
  277MOL0     H37369   7.823   3.354   5.415 -0.2509  4.2282  1.7978
  277MOL0     H37370   7.823   3.325   5.237 -0.5541  0.2170 -0.9361
  277MOL0     H37371   7.958   3.556   5.383 -1.8255  1.4443 -1.7095
  277MOL0     H37372   7.964   3.540   5.218  1.8612 -1.4696 -1.3755
  277MOL0     H37373   8.069   3.320   5.404 -0.2121 -1.3710  0.3366
  277MOL0     H37374   8.084   3.341   5.224 -0.7723 -1.3425  1.3174
  277MOL0     H37375   6.818   3.410   5.266 -0.3730  0.5064 -1.7518
  277MOL0     H37376   6.623   3.554   5.227  0.6017  1.1739 -2.9755
  277MOL0     H37377   6.271   3.796   5.048 -2.0950  1.8555 -0.7534
  277MOL0     H37378   6.074   3.889   5.099  1.3236 -2.5403 -0.8520
  277MOL0     H37379   4.620   4.587   6.177  1.0553  1.0781 -1.3533
  277MOL0     H37380   4.375   4.539   6.155  0.0562  0.6823  1.0855
  277MOL0     H37381   3.997   4.620   6.049 -2.8901  0.4144 -0.4195
  277MOL0     H37382   3.814   4.478   6.110  1.6670  0.2343  0.1961
  277MOL0     H37383   3.600   4.396   5.822 -1.7234  0.0924  0.1284
  277MOL0     H37384   3.562   4.411   5.987 -0.3989  0.2459 -1.3294
  277MOL0     H37385   3.505   4.154   5.973 -0.6122 -0.4619  0.3942
  277MOL0     H37386   3.493   4.172   5.796  1.1014  1.3824 -0.6995
  277MOL0     H37387   3.321   4.343   5.801 -0.1772 -1.9645 -1.4304
  277MOL0     H37388   3.328   4.344   5.980  0.0059 -3.6821  1.8329
  277MOL0     H37389   3.272   4.089   5.797  2.6507  0.4386 -0.1244
  277MOL0     H37390   3.259   4.097   5.964  0.6029 -0.7796 -0.0397
  277MOL0     H37391   2.901   4.279   5.924  0.3653  0.0032 -0.2203
  277MOL0     H37392   3.848   4.280   5.717 -0.1399 -2.1837  3.0925
  277MOL0     H37393   4.023   4.514   5.584  1.3064  1.2538  0.4472
  277MOL0     H37394   4.162   4.412   5.639  0.3456 -1.2750 -1.9646
  277MOL0     H37395   4.012   4.340   5.577 -1.5904  0.6632  1.0230
  278MOL0     O37396   8.691   3.158   0.565 -0.4415  0.2339  0.9976
  278MOL0     C37397   8.601   3.242   0.555 -2.0151 -0.2388 -0.5662
  278MOL0     O37398   8.593   3.341   0.473 -0.0468 -0.3049  0.0624
  278MOL0     C37399   8.695   3.370   0.391 -0.6832 -0.3747 -0.3271
  278MOL0     C37400   8.750   3.495   0.392 -0.1070 -0.4657  0.5152
  278MOL0     C37401   8.842   3.521   0.297 -0.5021  0.1425 -0.3485
  278MOL0     C37402   8.885   3.433   0.199 -0.6483  0.2869 -0.0687
  278MOL0     O37403   8.967   3.466   0.092 -0.5738  0.5684  0.6255
  278MOL0     C37404   8.990   3.603   0.058  0.1429 -0.1653  0.0297
  278MOL0     C37405   9.070   3.613  -0.066 -0.3077 -0.1997 -1.2453
  278MOL0     C37406   9.223   3.574  -0.053  0.0690 -0.2508 -0.5796
  278MOL0     C37407   9.297   3.573  -0.185 -0.1994  0.1635 -0.2486
  278MOL0     C37408   9.445   3.534  -0.179  0.3372  1.0073 -0.1046
  278MOL0     C37409   9.500   3.476  -0.313 -0.8577  0.1202 -0.0275
  278MOL0     C37410   9.526   3.588  -0.414  0.1396 -0.5672 -0.3392
  278MOL0     C37411   9.550   3.543  -0.556 -0.5978  0.3133  0.7823
  278MOL0     N37412   9.599   3.660  -0.638 -0.1025  0.8645 -0.0526
  278MOL0     C37413   9.712   3.737  -0.617 -0.7651 -0.2303  0.9131
  278MOL0     C37414   9.730   3.808  -0.732  0.0395  0.8082 -0.6418
  278MOL0     C37415   9.847   3.884  -0.779  0.8532 -0.4872  0.0046
  278MOL0     C37416   9.908   3.977  -0.685 -0.8476  0.3046 -0.4638
  278MOL0     C37417   9.994   4.076  -0.767  0.6937  0.5970 -0.3341
  278MOL0     C37418  10.073   4.167  -0.676  0.2673 -0.3227 -0.4677
  278MOL0     O37419  10.119   4.281  -0.766  0.9496  0.1234 -0.0008
  278MOL0     C37420  10.245   4.342  -0.758  0.2517 -0.3190  0.3497
  278MOL0     C37421  10.263   4.468  -0.831 -0.3101  0.1693 -0.1006
  278MOL0     C37422  10.391   4.533  -0.821  0.0777 -0.0308 -0.1770
  278MOL0     C37423  10.495   4.474  -0.748 -0.5020 -0.6881 -1.1068
  278MOL0     C37424  10.634   4.526  -0.765 -0.2565  0.4149  0.2351
  278MOL0     O37425  10.729   4.493  -0.671 -0.5042  0.2097  0.4626
  278MOL0     C37426  10.863   4.476  -0.710  0.6725  0.1542 -0.0489
  278MOL0     C37427  10.907   4.411  -0.832  0.2650 -0.2803  0.1864
  278MOL0     C37428  11.044   4.381  -0.855 -0.4327 -0.5496 -0.7894
  278MOL0     C37429  11.141   4.416  -0.763  0.4367  0.1966 -0.5293
  278MOL0     O37430  11.281   4.396  -0.797 -0.1363 -0.3702  0.5025
  278MOL0     C37431  11.373   4.419  -0.693 -0.3878 -0.9767  0.3858
  278MOL0     C37432  11.516   4.388  -0.740 -0.2266  0.9423  0.3689
  278MOL0     C37433  11.558   4.478  -0.851  0.1367  0.4355  0.7264
  278MOL0     C37434  11.676   4.416  -0.934  0.1972  0.5358 -0.1653
  278MOL0     C37435  11.806   4.392  -0.844 -0.2568  0.1196 -0.5752
  278MOL0     C37436  11.925   4.377  -0.940 -0.4354  0.6851  0.1116
  278MOL0     C37437  12.050   4.339  -0.861  0.0050 -0.3104 -0.1386
  278MOL0     C37438  12.175   4.369  -0.941  0.0792  0.4585  0.1220
  278MOL0    Cl37439  12.271   4.510  -0.878 -0.3769  0.4518  0.1649
  278MOL0     C37440  11.103   4.475  -0.637  0.0583 -0.2208 -0.6201
  278MOL0     C37441  10.961   4.495  -0.607 -0.1719  1.0029 -0.0452
  278MOL0     O37442  10.655   4.594  -0.863 -0.0177 -0.0814 -0.2116
  278MOL0     C37443  10.472   4.360  -0.669 -0.3442  0.2618  0.2164
  278MOL0     C37444  10.357   4.288  -0.687 -0.3701  0.5352 -0.0595
  278MOL0     N37445   9.641   3.753  -0.822 -1.1880 -0.2230  0.1633
  278MOL0     N37446   9.558   3.682  -0.764  0.1760 -0.0857  0.6418
  278MOL0     C37447   8.840   3.306   0.209 -0.1203  0.0340  0.0508
  278MOL0     C37448   8.746   3.272   0.303  0.7202 -0.1733  0.7962
  278MOL0     C37449   8.506   3.244   0.669  0.3827  0.6204 -1.4218
  278MOL0     C37450   8.521   3.150   0.776 -0.1293  0.2157 -0.0167
  278MOL0     C37451   8.436   3.146   0.882 -1.0061 -0.1196 -0.3029
  278MOL0     C37452   8.327   3.227   0.894  0.3221  0.1016  0.2548
  278MOL0     O37453   8.226   3.228   0.994  0.2094  0.0073  0.4273
  278MOL0     C37454   8.271   3.175   1.115 -0.7860  0.2187  0.1601
  278MOL0     C37455   8.183   3.169   1.235  0.3114  0.3744 -0.8911
  278MOL0     C37456   8.051   3.090   1.197  0.1273  0.5346  0.1181
  278MOL0     C37457   7.958   3.074   1.318  0.9194  1.2926 -0.9822
  278MOL0     C37458   7.931   3.200   1.386  1.0179 -0.1163  0.4738
  278MOL0     C37459   7.892   3.294   1.450  0.5787 -0.4725  0.2050
  278MOL0     C37460   8.302   3.323   0.792 -0.1465  0.5889 -0.3041
  278MOL0     C37461   8.394   3.337   0.683  0.1928  0.1761  0.1717
  278MOL0     C37462   8.363   3.450   0.587 -0.3932  0.9752 -0.7622
  278MOL0     H37463   8.715   3.572   0.460 -1.6552 -0.3700 -0.3446
  278MOL0     H37464   8.883   3.622   0.296 -0.0557 -0.0272  0.0119
  278MOL0     H37465   8.893   3.650   0.038  0.3629 -0.2287 -1.2358
  278MOL0     H37466   9.041   3.650   0.143  0.0790 -1.3786  0.7673
  278MOL0     H37467   9.083   3.718  -0.093  0.6000 -0.4698 -1.9346
  278MOL0     H37468   9.019   3.551  -0.140 -0.0005 -2.9705  0.6975
  278MOL0     H37469   9.248   3.482   0.001  1.3272  0.4139  0.0272
  278MOL0     H37470   9.278   3.638   0.017 -0.1911 -2.1607  1.4837
  278MOL0     H37471   9.255   3.498  -0.252 -0.6840 -0.3265  0.5859
  278MOL0     H37472   9.287   3.670  -0.234  0.7623 -0.6414 -2.1536
  278MOL0     H37473   9.508   3.617  -0.144  0.7023  1.8735 -2.5965
  278MOL0     H37474   9.446   3.458  -0.100 -0.2756  1.5034  0.3875
  278MOL0     H37475   9.595   3.422  -0.304 -1.4756 -1.0844 -0.4730
  278MOL0     H37476   9.431   3.399  -0.348  1.2171 -0.8277 -2.3802
  278MOL0     H37477   9.607   3.646  -0.369  0.4431 -0.6120 -0.8212
  278MOL0     H37478   9.439   3.654  -0.412 -0.6154 -1.5353 -0.3744
  278MOL0     H37479   9.626   3.465  -0.561 -2.0361 -1.0931 -0.3433
  278MOL0     H37480   9.457   3.504  -0.600  1.7378 -0.1138 -4.5271
  278MOL0     H37481   9.778   3.736  -0.531  0.2994 -3.6494  0.2016
  278MOL0     H37482   9.916   3.804  -0.809 -0.0111 -1.9893  1.7852
  278MOL0     H37483   9.806   3.951  -0.856  1.8339 -0.7587 -0.7772
  278MOL0     H37484   9.836   4.045  -0.637  0.1590  1.2288 -0.2259
  278MOL0     H37485   9.973   3.933  -0.609 -1.4457  0.0869 -0.0706
  278MOL0     H37486   9.925   4.138  -0.826  0.1097  0.6409  0.3824
  278MOL0     H37487  10.059   4.031  -0.842 -1.0563  1.2513 -2.3630
  278MOL0     H37488  10.160   4.110  -0.642 -1.4550 -1.5703  2.1617
  278MOL0     H37489  10.013   4.196  -0.590 -0.5509 -0.1867 -1.0721
  278MOL0     H37490  10.183   4.488  -0.901 -0.8149  0.8863  0.6649
  278MOL0     H37491  10.423   4.615  -0.885 -0.6662 -0.9591 -1.7903
  278MOL0     H37492  10.835   4.400  -0.913  2.1251 -0.2606 -1.5603
  278MOL0     H37493  11.075   4.352  -0.955  2.5452  0.5576 -0.3151
  278MOL0     H37494  11.373   4.522  -0.657  0.0089 -0.0235 -2.1720
  278MOL0     H37495  11.355   4.355  -0.606 -0.7120  0.0950  1.1278
  278MOL0     H37496  11.581   4.400  -0.653  0.8590 -2.3769  0.1294
  278MOL0     H37497  11.519   4.287  -0.781 -0.5608  1.9100 -2.2149
  278MOL0     H37498  11.485   4.489  -0.932  0.7459 -1.4395 -0.1389
  278MOL0     H37499  11.590   4.575  -0.813 -0.0856  0.4994  0.7467
  278MOL0     H37500  11.700   4.484  -1.015 -1.4822  2.2572  0.7007
  278MOL0     H37501  11.647   4.317  -0.970 -5.0624  1.7721 -0.0600
  278MOL0     H37502  11.796   4.312  -0.771 -0.7199  0.2688 -0.4737
  278MOL0     H37503  11.841   4.476  -0.784  1.5465  0.4849 -2.0232
  278MOL0     H37504  11.892   4.295  -1.005 -1.8334 -3.4082  5.3358
  278MOL0     H37505  11.942   4.471  -0.994 -2.5243  0.9589 -0.1346
  278MOL0     H37506  12.048   4.232  -0.836  2.0770 -1.3494 -3.8054
  278MOL0     H37507  12.065   4.393  -0.767  0.8131 -2.9163  1.3510
  278MOL0     H37508  12.236   4.278  -0.939 -2.9917 -1.7724  0.6801
  278MOL0     H37509  12.140   4.401  -1.040  0.3059  1.0470  0.2274
  278MOL0     H37510  11.181   4.504  -0.567 -0.2807  1.0953 -0.7529
  278MOL0     H37511  10.925   4.525  -0.509 -3.2257 -0.7683 -0.4794
  278MOL0     H37512  10.548   4.302  -0.617  0.1666  0.9044  0.1899
  278MOL0     H37513  10.338   4.190  -0.644 -2.4887  1.2536  0.7468
  278MOL0     H37514   8.856   3.227   0.137  3.5487 -1.9021  2.6542
  278MOL0     H37515   8.707   3.171   0.302 -0.4630  0.2583  1.1089
  278MOL0     H37516   8.605   3.083   0.786 -0.4677 -0.0190  1.5988
  278MOL0     H37517   8.455   3.085   0.969  0.6563 -2.0057 -1.8765
  278MOL0     H37518   8.357   3.238   1.139 -0.5743 -0.0019 -0.0253
  278MOL0     H37519   8.303   3.073   1.096  1.8723  0.4100  2.8700
  278MOL0     H37520   8.175   3.268   1.280  3.4273 -0.5216  2.0684
  278MOL0     H37521   8.232   3.107   1.310 -1.4056  0.7932  0.6515
  278MOL0     H37522   8.075   2.994   1.152 -0.5363  1.4743 -2.3982
  278MOL0     H37523   7.998   3.139   1.115 -0.7921  0.6550  0.7661
  278MOL0     H37524   7.861   3.038   1.282  0.6310 -0.4014  1.2462
  278MOL0     H37525   7.994   3.003   1.393 -0.3707  0.7981 -0.8026
  278MOL0     H37526   7.869   3.378   1.512 -0.9320 -2.3016  2.2789
  278MOL0     H37527   8.204   3.367   0.805  0.2853  2.0458 -1.6985
  278MOL0     H37528   8.448   3.518   0.576  0.7585 -0.6349 -2.3044
  278MOL0     H37529   8.349   3.402   0.490  1.5299 -1.6063  0.1353
  278MOL0     H37530   8.278   3.511   0.618 -1.0338  0.1981 -0.9488
  279MOL0     O37531   4.507   7.286   0.018  0.0701 -0.3233 -0.2253
  279MOL0     C37532   4.499   7.225  -0.085  0.4911  0.4996 -0.5462
  279MOL0     O37533   4.589   7.136  -0.138 -0.0696 -0.3415  0.1093
  279MOL0     C37534   4.723   7.161  -0.114  0.3243 -0.2960  0.1345
  279MOL0     C37535   4.813   7.160  -0.216  0.1394 -0.6959 -0.3595
  279MOL0     C37536   4.954   7.170  -0.197  0.7371  0.1208  0.1310
  279MOL0     C37537   5.011   7.170  -0.069 -0.3802 -0.3959 -0.1237
  279MOL0     O37538   5.143   7.178  -0.049  0.4428  0.0147  0.0570
  279MOL0     C37539   5.210   7.303  -0.078  0.1025  0.7191  0.0220
  279MOL0     C37540   5.354   7.287  -0.031  0.1586  0.0980  1.0648
  279MOL0     C37541   5.360   7.234   0.119 -0.3722 -0.2564  0.1684
  279MOL0     C37542   5.491   7.192   0.161 -1.0428 -0.2474  0.0640
  279MOL0     C37543   5.528   7.213   0.309 -0.4233 -0.1747 -0.0832
  279MOL0     C37544   5.623   7.110   0.370 -0.0867 -0.0316  0.0441
  279MOL0     C37545   5.689   7.141   0.505 -0.1099 -0.1089  0.0254
  279MOL0     C37546   5.756   7.281   0.506 -0.4544  0.1276 -0.2472
  279MOL0     N37547   5.862   7.317   0.402  0.5442  0.5636 -0.2148
  279MOL0     C37548   5.941   7.218   0.343 -0.2343 -0.0416  0.5266
  279MOL0     C37549   6.026   7.291   0.269 -0.1408  0.0875 -0.2641
  279MOL0     C37550   6.145   7.240   0.194  1.3453  0.6594  0.3397
  279MOL0     C37551   6.217   7.333   0.100 -0.1377 -0.1591 -0.2903
  279MOL0     C37552   6.321   7.254   0.012  0.4638  0.6327 -0.1754
  279MOL0     C37553   6.382   7.328  -0.101 -0.4791 -0.6524  0.4384
  279MOL0     O37554   6.445   7.444  -0.043 -0.8630  0.1777  0.5478
  279MOL0     C37555   6.584   7.446  -0.016 -0.1731  0.5459  0.5047
  279MOL0     C37556   6.661   7.334  -0.011 -0.3681  0.2300 -0.3041
  279MOL0     C37557   6.797   7.349   0.007 -0.6335 -0.0332  0.3974
  279MOL0     C37558   6.864   7.478   0.033  0.1043  0.5532  0.0527
  279MOL0     C37559   7.008   7.504   0.042 -0.8073 -0.3297  0.6156
  279MOL0     O37560   7.080   7.394   0.070  1.1361 -0.2931 -0.3570
  279MOL0     C37561   7.216   7.396   0.053 -0.6885  0.0763  0.7833
  279MOL0     C37562   7.267   7.424  -0.069  0.9899 -0.3847 -0.2034
  279MOL0     C37563   7.402   7.436  -0.087  0.0950  0.5236  0.5586
  279MOL0     C37564   7.487   7.407   0.023  0.2269  0.2159  0.2622
  279MOL0     O37565   7.623   7.422   0.016  0.0260  0.0257 -0.4573
  279MOL0     C37566   7.702   7.473   0.119  0.6898  0.0470 -0.7198
  279MOL0     C37567   7.825   7.546   0.076  0.5940  0.3665 -1.1602
  279MOL0     C37568   7.917   7.464  -0.008  0.1743  0.2434  0.3643
  279MOL0     C37569   8.069   7.511   0.009  0.3219  0.8800  0.5400
  279MOL0     C37570   8.170   7.425  -0.066  0.7648 -0.1586 -0.6020
  279MOL0     C37571   8.313   7.461  -0.045 -0.0097 -0.6850  0.2640
  279MOL0     C37572   8.401   7.352  -0.082 -0.1655  0.1716  0.9537
  279MOL0     C37573   8.548   7.399  -0.085  0.8834 -0.1966  0.1400
  279MOL0    Cl37574   8.649   7.263  -0.152 -0.5337 -0.2450  0.1628
  279MOL0     C37575   7.428   7.362   0.148 -1.0906 -0.5929  0.1564
  279MOL0     C37576   7.292   7.355   0.162 -0.0816 -0.0237 -0.0960
  279MOL0     O37577   7.050   7.619   0.030  0.0030  0.1958 -0.1092
  279MOL0     C37578   6.767   7.586   0.039 -0.3432 -0.0469 -0.2742
  279MOL0     C37579   6.636   7.564   0.014  0.6833 -0.8248 -0.0362
  279MOL0     N37580   6.000   7.424   0.282 -0.3752 -0.4376 -0.2409
  279MOL0     N37581   5.898   7.438   0.367  0.1499 -0.1101 -0.0365
  279MOL0     C37582   4.920   7.169   0.037 -0.2815  0.1850 -0.2266
  279MOL0     C37583   4.782   7.161   0.019  0.6986 -0.4487 -0.2542
  279MOL0     C37584   4.374   7.244  -0.152  0.4475 -1.3650  0.4841
  279MOL0     C37585   4.262   7.236  -0.070  0.7593  0.6610 -0.7787
  279MOL0     C37586   4.131   7.251  -0.125  0.3312  0.1651  0.9144
  279MOL0     C37587   4.125   7.274  -0.266 -0.2918  0.7650  0.9843
  279MOL0     O37588   4.005   7.303  -0.321 -1.3354  0.3949 -0.2158
  279MOL0     C37589   3.959   7.205  -0.417  0.1227 -0.2059 -0.3546
  279MOL0     C37590   3.812   7.237  -0.440 -0.6347 -0.2399  0.3804
  279MOL0     C37591   3.722   7.228  -0.313 -0.8804 -0.3040  0.2844
  279MOL0     C37592   3.580   7.252  -0.352 -0.1062  0.3455 -0.7524
  279MOL0     C37593   3.485   7.231  -0.239  0.0238 -0.0291 -0.3966
  279MOL0     C37594   3.395   7.206  -0.149 -0.4663 -0.2606  0.3461
  279MOL0     C37595   4.231   7.270  -0.353  0.2418  0.5987  0.3505
  279MOL0     C37596   4.353   7.260  -0.294 -0.1739  0.5484  0.4691
  279MOL0     C37597   4.479   7.265  -0.381  0.3168  0.8116 -0.3772
  279MOL0     H37598   4.781   7.151  -0.319 -2.8621 -1.2425  0.5123
  279MOL0     H37599   5.019   7.166  -0.284  1.1735  0.9656  0.4050
  279MOL0     H37600   5.212   7.322  -0.186 -0.0942  0.0590 -0.0971
  279MOL0     H37601   5.165   7.385  -0.021 -1.9203 -0.0273 -0.4227
  279MOL0     H37602   5.411   7.378  -0.052 -0.7035  0.5445  0.5784
  279MOL0     H37603   5.391   7.217  -0.106 -1.3603  1.2915 -0.8944
  279MOL0     H37604   5.292   7.149   0.128 -0.2587 -0.2985  0.6693
  279MOL0     H37605   5.317   7.314   0.180  0.0985  0.0761  0.0705
  279MOL0     H37606   5.502   7.086   0.137  2.5631  0.1951 -0.8719
  279MOL0     H37607   5.566   7.242   0.099 -0.3851 -0.3886  0.7242
  279MOL0     H37608   5.558   7.316   0.326 -1.8503  0.1299  0.7475
  279MOL0     H37609   5.433   7.202   0.362 -1.6167  0.0039 -2.0619
  279MOL0     H37610   5.578   7.012   0.387 -3.9902  1.6505  0.5796
  279MOL0     H37611   5.698   7.095   0.292 -0.2784  1.0687 -0.3717
  279MOL0     H37612   5.751   7.059   0.541 -3.3342 -2.6718  0.1890
  279MOL0     H37613   5.601   7.132   0.570 -2.0206 -2.1355 -2.6054
  279MOL0     H37614   5.674   7.351   0.493 -1.4135 -1.0405 -0.7110
  279MOL0     H37615   5.805   7.296   0.603 -1.6731  1.2227  0.2127
  279MOL0     H37616   5.927   7.112   0.362 -1.1151  0.0142  0.2490
  279MOL0     H37617   6.222   7.202   0.262  1.2624 -1.4141 -0.6336
  279MOL0     H37618   6.105   7.156   0.136 -1.0921  2.1212 -0.2443
  279MOL0     H37619   6.146   7.389   0.038 -0.2200  1.0332  0.8371
  279MOL0     H37620   6.262   7.416   0.155 -2.2750  1.0413 -0.2239
  279MOL0     H37621   6.267   7.176  -0.042 -0.9503  0.5090  1.3645
  279MOL0     H37622   6.400   7.214   0.077 -0.5707 -2.7233 -0.7971
  279MOL0     H37623   6.304   7.361  -0.171 -0.1879 -0.5316  0.1697
  279MOL0     H37624   6.452   7.269  -0.160 -0.1679  0.0076  0.1396
  279MOL0     H37625   6.617   7.238  -0.036  0.2357 -0.3990  0.9791
  279MOL0     H37626   6.867   7.269  -0.014 -1.0459 -0.2374 -0.2136
  279MOL0     H37627   7.205   7.437  -0.157  2.5986 -0.9329 -1.4763
  279MOL0     H37628   7.439   7.475  -0.182  4.5330 -1.1578  1.3448
  279MOL0     H37629   7.648   7.528   0.196  0.3367 -1.7038  0.3378
  279MOL0     H37630   7.725   7.387   0.181 -0.4346  1.4312  1.7506
  279MOL0     H37631   7.806   7.639   0.021 -0.7264  1.2632  0.6999
  279MOL0     H37632   7.879   7.576   0.166  2.4781 -1.4473 -1.6184
  279MOL0     H37633   7.908   7.359   0.024 -1.4272  0.7286  1.6430
  279MOL0     H37634   7.887   7.466  -0.113 -1.2888 -0.0791  0.7607
  279MOL0     H37635   8.094   7.524   0.114  1.0063  3.8149  0.0994
  279MOL0     H37636   8.072   7.614  -0.029  1.8245  0.7560  0.2731
  279MOL0     H37637   8.150   7.412  -0.173  0.3759 -0.4938 -0.4913
  279MOL0     H37638   8.159   7.330  -0.014  0.9796  0.9698  1.6225
  279MOL0     H37639   8.335   7.547  -0.109 -1.9881 -1.4433 -1.5486
  279MOL0     H37640   8.326   7.478   0.063 -0.5817  0.1284  0.2162
  279MOL0     H37641   8.372   7.317  -0.181  1.2764  3.4838 -0.7842
  279MOL0     H37642   8.383   7.274  -0.007  2.6687 -1.7025 -0.1849
  279MOL0     H37643   8.554   7.486  -0.150  1.7083  1.1455  1.9401
  279MOL0     H37644   8.582   7.440   0.010  0.1541  0.8256 -0.0306
  279MOL0     H37645   7.479   7.323   0.235  0.6781 -3.3416 -1.9575
  279MOL0     H37646   7.254   7.330   0.261 -1.4669 -1.2611 -0.8880
  279MOL0     H37647   6.808   7.679   0.076 -1.4474 -0.4414  2.1863
  279MOL0     H37648   6.576   7.655   0.014  2.7675  0.6223 -0.9318
  279MOL0     H37649   4.963   7.169   0.138 -0.5188 -1.0561 -0.1119
  279MOL0     H37650   4.717   7.146   0.105  0.8763 -1.1938 -0.2447
  279MOL0     H37651   4.275   7.224   0.037 -0.2027  0.5009 -0.6660
  279MOL0     H37652   4.042   7.264  -0.066 -0.7051  3.1372 -1.0848
  279MOL0     H37653   3.961   7.103  -0.377 -0.7829 -0.0470  0.1230
  279MOL0     H37654   4.018   7.213  -0.508 -0.1536  1.0742 -0.4391
  279MOL0     H37655   3.787   7.159  -0.513  3.7364 -1.7448  0.1733
  279MOL0     H37656   3.804   7.339  -0.478 -1.6074 -0.7618 -0.8699
  279MOL0     H37657   3.750   7.307  -0.244  2.4389 -1.7107  0.7557
  279MOL0     H37658   3.742   7.139  -0.252 -2.7766  0.8057  2.6911
  279MOL0     H37659   3.571   7.351  -0.398  0.0397  0.7961  0.1496
  279MOL0     H37660   3.554   7.185  -0.434  1.3457  0.2167 -1.1198
  279MOL0     H37661   3.335   7.187  -0.062  0.8784 -1.5899  1.0335
  279MOL0     H37662   4.218   7.288  -0.459 -0.6492  1.0619  0.5259
  279MOL0     H37663   4.562   7.305  -0.324  2.5015 -2.6995 -0.7649
  279MOL0     H37664   4.507   7.169  -0.427 -0.5012  0.0028  0.7407
  279MOL0     H37665   4.461   7.336  -0.462  3.3144  1.8864 -0.2195
  280MOL0     O37666   5.146   1.888   0.919 -0.4778 -0.9525  0.4156
  280MOL0     C37667   5.092   1.994   0.896 -0.3547 -0.2405  1.0446
  280MOL0     O37668   5.137   2.092   0.808 -0.4197  0.2424  0.0477
  280MOL0     C37669   5.270   2.077   0.766 -0.2129 -0.1844  1.3177
  280MOL0     C37670   5.377   2.110   0.848 -0.0271 -0.3249 -0.4910
  280MOL0     C37671   5.506   2.119   0.797  0.5855 -0.1404  0.2469
  280MOL0     C37672   5.525   2.061   0.667  0.2749 -0.6014  1.0013
  280MOL0     O37673   5.642   2.038   0.603  0.4649  0.2471 -0.7477
  280MOL0     C37674   5.756   2.082   0.675 -0.2296  0.0505  0.3742
  280MOL0     C37675   5.882   2.064   0.593  1.0777 -0.3208  0.6416
  280MOL0     C37676   5.999   2.074   0.693  0.1158 -0.1412  1.2499
  280MOL0     C37677   6.134   2.057   0.623  0.4382 -0.1161 -0.4094
  280MOL0     C37678   6.241   2.083   0.737  0.2362  0.2002  1.9386
  280MOL0     C37679   6.382   2.068   0.676 -0.3037 -0.0931  0.2464
  280MOL0     C37680   6.455   1.929   0.656 -0.1411  0.1836 -0.3384
  280MOL0     C37681   6.492   1.845   0.777 -0.2598  0.1217  0.1706
  280MOL0     N37682   6.588   1.925   0.856  0.0344  0.7112 -0.4025
  280MOL0     C37683   6.727   1.939   0.823  1.1597 -0.5774 -0.0861
  280MOL0     C37684   6.781   2.023   0.918  0.2894  0.3466  0.2206
  280MOL0     C37685   6.924   2.063   0.918  0.5538  0.1725 -0.0237
  280MOL0     C37686   7.015   1.941   0.939  0.3228 -0.0048 -0.0106
  280MOL0     C37687   7.158   1.998   0.942  0.4746 -0.8381 -0.1346
  280MOL0     C37688   7.251   1.876   0.974 -0.1877 -0.5543  1.1633
  280MOL0     O37689   7.388   1.901   0.968 -0.8632  0.5480  0.3183
  280MOL0     C37690   7.465   1.804   1.039  0.0876  0.3878  0.5862
  280MOL0     C37691   7.424   1.666   1.050  0.7643  0.2056  0.5496
  280MOL0     C37692   7.510   1.564   1.099 -0.5361 -0.0357  0.1556
  280MOL0     C37693   7.639   1.597   1.142 -0.1486 -0.0203  0.6528
  280MOL0     C37694   7.726   1.487   1.193  0.1310 -0.8274 -0.0024
  280MOL0     O37695   7.730   1.368   1.139  0.2886 -0.0432 -0.0802
  280MOL0     C37696   7.814   1.273   1.182  0.5179  0.5118 -0.3154
  280MOL0     C37697   7.762   1.154   1.248 -0.4466 -0.7545 -0.6822
  280MOL0     C37698   7.847   1.059   1.307  1.0699 -0.1615  0.1226
  280MOL0     C37699   7.979   1.083   1.313 -0.6075 -0.0645 -0.4845
  280MOL0     O37700   8.071   1.001   1.382  0.1514  0.1857  0.1798
  280MOL0     C37701   8.029   0.871   1.421 -0.2622 -1.0133 -0.2059
  280MOL0     C37702   8.141   0.774   1.453 -0.1260  0.4749  0.0968
  280MOL0     C37703   8.216   0.808   1.585  0.1532 -0.4086  0.1765
  280MOL0     C37704   8.318   0.709   1.614  0.2432  0.5728 -0.0662
  280MOL0     C37705   8.403   0.747   1.725  0.1156 -0.0494  0.3265
  280MOL0     C37706   8.503   0.626   1.767 -0.2700  0.2085 -0.6028
  280MOL0     C37707   8.604   0.670   1.873  0.2996 -1.2553 -0.4155
  280MOL0     C37708   8.702   0.763   1.805 -0.3138 -0.8016 -0.2851
  280MOL0    Cl37709   8.855   0.755   1.904 -0.1591 -0.0985 -0.6457
  280MOL0     C37710   8.031   1.193   1.247 -0.0194 -0.1265  0.4430
  280MOL0     C37711   7.952   1.285   1.180  0.6428 -0.1151 -0.1896
  280MOL0     O37712   7.790   1.521   1.287 -0.6125  0.3403 -0.3384
  280MOL0     C37713   7.683   1.729   1.134  0.8033  0.0426  0.1531
  280MOL0     C37714   7.598   1.835   1.085  0.0550  0.6502 -0.3075
  280MOL0     N37715   6.677   2.069   0.997 -0.7117 -0.1996  0.2163
  280MOL0     N37716   6.563   2.017   0.955 -0.4520  0.0951 -0.5477
  280MOL0     C37717   5.416   2.033   0.587 -0.0154  0.5082  0.7227
  280MOL0     C37718   5.287   2.044   0.633 -1.0541 -0.8285 -0.2542
  280MOL0     C37719   4.959   2.014   0.951  0.4603 -0.1965 -0.1212
  280MOL0     C37720   4.943   2.008   1.090  0.0704  0.3201 -1.0112
  280MOL0     C37721   4.818   2.015   1.149 -0.4067  0.0156 -0.0035
  280MOL0     C37722   4.699   2.043   1.076 -0.7151 -0.4978 -0.1256
  280MOL0     O37723   4.572   2.059   1.123  0.2084 -0.2178  0.1003
  280MOL0     C37724   4.554   1.990   1.253  0.3637  0.1369 -0.2719
  280MOL0     C37725   4.413   2.000   1.310  0.2964  0.3834  0.7033
  280MOL0     C37726   4.372   2.140   1.352 -0.3484 -0.3837  0.5516
  280MOL0     C37727   4.456   2.190   1.468  0.4317 -0.1888 -0.3924
  280MOL0     C37728   4.433   2.123   1.600  0.0141  0.1052 -0.5870
  280MOL0     C37729   4.413   2.067   1.705 -0.4058  0.2925 -0.9734
  280MOL0     C37730   4.717   2.058   0.940  0.4797  0.0469 -0.1899
  280MOL0     C37731   4.843   2.048   0.880 -0.2056 -0.7348  0.5791
  280MOL0     C37732   4.849   2.057   0.731 -0.4252 -0.4019  0.6989
  280MOL0     H37733   5.359   2.144   0.950 -3.4449 -2.5004 -0.2036
  280MOL0     H37734   5.582   2.157   0.865  0.3614 -0.8582  0.9174
  280MOL0     H37735   5.745   2.186   0.707  0.0194 -0.1869  1.2722
  280MOL0     H37736   5.773   2.017   0.762 -1.2659 -2.7299 -1.3418
  280MOL0     H37737   5.890   2.135   0.511 -1.1117 -2.0408 -1.1559
  280MOL0     H37738   5.872   1.963   0.552  1.5537  0.3232 -1.1140
  280MOL0     H37739   5.995   1.998   0.771 -2.9317 -1.3571  0.0657
  280MOL0     H37740   6.006   2.177   0.729 -1.6065  0.3161  0.4017
  280MOL0     H37741   6.143   1.957   0.581 -1.8834 -0.5835  0.0541
  280MOL0     H37742   6.129   2.143   0.555 -2.0995  0.6876  0.6826
  280MOL0     H37743   6.236   2.183   0.780  1.6074  1.5454 -0.7858
  280MOL0     H37744   6.219   2.007   0.814  2.8494 -2.8020 -0.0450
  280MOL0     H37745   6.378   2.114   0.576  1.3913  0.4526  0.4052
  280MOL0     H37746   6.440   2.132   0.743 -1.4113  0.6493  0.5120
  280MOL0     H37747   6.551   1.949   0.608  0.0101 -2.7969 -1.4375
  280MOL0     H37748   6.400   1.871   0.582  3.2460 -1.9405 -1.4138
  280MOL0     H37749   6.410   1.826   0.847  1.1232 -0.5842  1.6916
  280MOL0     H37750   6.537   1.749   0.749 -1.4036 -0.0221 -1.2840
  280MOL0     H37751   6.774   1.884   0.743  0.8402 -1.0444  0.0439
  280MOL0     H37752   6.954   2.106   0.823  1.3963  0.6716  0.4546
  280MOL0     H37753   6.932   2.142   0.993 -1.6253 -0.2318  0.7253
  280MOL0     H37754   6.987   1.891   1.033 -0.2233  2.5812  1.3070
  280MOL0     H37755   7.007   1.869   0.858  1.1129 -1.0012  0.7745
  280MOL0     H37756   7.178   2.070   1.022  3.3741 -1.2284 -0.3763
  280MOL0     H37757   7.172   2.049   0.847  1.9509  1.7645  1.3743
  280MOL0     H37758   7.240   1.785   0.914  1.7430  0.7261 -1.2887
  280MOL0     H37759   7.227   1.859   1.079 -0.0318  1.4195  1.5593
  280MOL0     H37760   7.326   1.630   1.020  0.7685 -0.6547  1.5045
  280MOL0     H37761   7.487   1.459   1.115  3.5551 -1.3144 -0.9448
  280MOL0     H37762   7.659   1.120   1.240 -0.1830 -1.5804 -0.7362
  280MOL0     H37763   7.800   0.979   1.364 -0.5087 -0.1206 -1.0510
  280MOL0     H37764   7.954   0.870   1.500 -0.2128  0.7123 -0.1151
  280MOL0     H37765   7.964   0.830   1.342  1.7957 -0.6615 -2.1824
  280MOL0     H37766   8.101   0.674   1.469  1.5762  0.0150  1.9140
  280MOL0     H37767   8.204   0.771   1.363  0.8739 -3.7898  0.7174
  280MOL0     H37768   8.253   0.911   1.590 -1.5670  0.1895  4.3578
  280MOL0     H37769   8.144   0.809   1.667 -0.4576 -2.6549 -0.2542
  280MOL0     H37770   8.368   0.708   1.517 -1.1010  1.1983 -0.8030
  280MOL0     H37771   8.275   0.611   1.634  4.3530 -1.5147 -0.4896
  280MOL0     H37772   8.350   0.776   1.816  0.8452 -0.8127  1.0141
  280MOL0     H37773   8.459   0.837   1.697 -2.0956  0.7665 -1.8419
  280MOL0     H37774   8.433   0.548   1.800 -1.2218  1.5087  0.5926
  280MOL0     H37775   8.560   0.581   1.685  0.6652 -0.5886  0.4448
  280MOL0     H37776   8.654   0.584   1.918 -2.1118 -2.0418  0.9797
  280MOL0     H37777   8.552   0.731   1.947  0.3488  2.6493 -3.3121
  280MOL0     H37778   8.726   0.724   1.706  1.7529  0.4605 -0.3448
  280MOL0     H37779   8.667   0.866   1.800 -1.1340 -1.1155 -1.7038
  280MOL0     H37780   8.139   1.204   1.252 -0.0495  0.4433 -0.0351
  280MOL0     H37781   8.004   1.362   1.124  0.1737 -1.8021 -3.1161
  280MOL0     H37782   7.782   1.757   1.166  1.3376 -1.6764  0.0892
  280MOL0     H37783   7.636   1.936   1.078  3.2102 -0.4388 -0.1720
  280MOL0     H37784   5.447   2.008   0.486 -0.1499  3.3382 -0.1154
  280MOL0     H37785   5.195   2.040   0.575  0.0094 -2.1647 -1.9364
  280MOL0     H37786   5.026   1.993   1.157 -0.1369 -1.3961 -1.0923
  280MOL0     H37787   4.807   2.011   1.257  2.0134 -0.5431  0.2812
  280MOL0     H37788   4.622   2.027   1.331  2.2807  1.0537 -2.2618
  280MOL0     H37789   4.566   1.883   1.232 -2.2960  0.3940 -4.1345
  280MOL0     H37790   4.410   1.929   1.394  3.2643 -0.0612  0.5592
  280MOL0     H37791   4.345   1.970   1.230  0.2223  0.0289  0.8925
  280MOL0     H37792   4.265   2.132   1.375 -0.5258  0.9582  0.2695
  280MOL0     H37793   4.377   2.217   1.274 -2.0504 -0.0909  0.6858
  280MOL0     H37794   4.563   2.183   1.450  0.5609 -1.8923  0.7368
  280MOL0     H37795   4.439   2.297   1.484 -1.0101 -0.4806  0.2907
  280MOL0     H37796   4.411   2.019   1.801 -0.6137  0.8182 -0.7056
  280MOL0     H37797   4.627   2.064   0.880  0.1686  2.2047  0.3788
  280MOL0     H37798   4.906   1.975   0.688 -0.9285 -0.8938  0.9541
  280MOL0     H37799   4.748   2.039   0.692 -0.7816 -0.0365  1.4195
  280MOL0     H37800   4.884   2.153   0.692 -1.3935 -0.9102 -1.6351
  281MOL0     O37801   6.199   8.790   0.564  0.2383 -0.0580  0.4726
  281MOL0     C37802   6.269   8.747   0.657 -0.6546 -0.4771 -0.0003
  281MOL0     O37803   6.371   8.824   0.718  0.1459  0.4323 -0.2386
  281MOL0     C37804   6.348   8.952   0.752 -0.5837  0.0820  0.1478
  281MOL0     C37805   6.228   8.997   0.818 -0.2770  0.1139  0.5771
  281MOL0     C37806   6.212   9.127   0.855 -0.2916 -0.0279 -0.6944
  281MOL0     C37807   6.320   9.220   0.832  0.0643  0.2756 -0.3368
  281MOL0     O37808   6.318   9.357   0.867  0.1025  0.7860 -0.2236
  281MOL0     C37809   6.217   9.444   0.805  1.0091  0.3986 -1.2200
  281MOL0     C37810   6.212   9.427   0.656 -0.1759  0.3337 -0.3752
  281MOL0     C37811   6.099   9.504   0.587 -0.1847  0.1206  0.7967
  281MOL0     C37812   6.085   9.447   0.439 -0.5586  0.7741  0.4292
  281MOL0     C37813   6.014   9.528   0.339  0.4354 -0.6710  0.0235
  281MOL0     C37814   6.029   9.483   0.201  0.3548 -0.0907  1.0060
  281MOL0     C37815   5.982   9.344   0.164 -0.3171 -0.2452  0.0529
  281MOL0     C37816   5.970   9.331   0.002  0.8320 -1.1355 -1.5126
  281MOL0     N37817   6.092   9.368  -0.075  0.2515  0.2450  0.0305
  281MOL0     C37818   6.206   9.286  -0.087  0.7663 -0.1726  0.6321
  281MOL0     C37819   6.288   9.343  -0.179  0.9094 -0.0963  0.5609
  281MOL0     C37820   6.404   9.290  -0.258 -0.5490 -0.1513 -0.2082
  281MOL0     C37821   6.486   9.186  -0.179 -0.9220 -0.8124  0.6428
  281MOL0     C37822   6.567   9.257  -0.072  0.4841 -1.1313 -0.0305
  281MOL0     C37823   6.693   9.179  -0.033  0.0036 -0.2098  0.4638
  281MOL0     O37824   6.671   9.044   0.006 -0.2253 -0.0423  0.3068
  281MOL0     C37825   6.767   8.959   0.053 -0.1689 -0.8303 -0.0974
  281MOL0     C37826   6.734   8.832   0.088  0.0387 -0.3841 -0.4321
  281MOL0     C37827   6.833   8.750   0.142  0.1936 -0.0838 -0.1610
  281MOL0     C37828   6.968   8.784   0.142 -0.6106 -0.1192 -0.3202
  281MOL0     C37829   7.077   8.689   0.203  0.8477  0.8668  0.3087
  281MOL0     O37830   7.203   8.744   0.220  0.0459  0.6047  0.4857
  281MOL0     C37831   7.308   8.650   0.242  0.5586 -1.1036  0.6113
  281MOL0     C37832   7.359   8.586   0.132  0.1298 -0.6283 -0.6982
  281MOL0     C37833   7.450   8.482   0.146  0.7842 -1.0637 -0.4802
  281MOL0     C37834   7.480   8.433   0.272 -0.9176  0.1550  0.1110
  281MOL0     O37835   7.536   8.301   0.283  0.6468  0.1389  0.3080
  281MOL0     C37836   7.672   8.294   0.331 -0.1819  1.0521  0.2367
  281MOL0     C37837   7.685   8.182   0.435 -0.4248 -0.4084  0.6350
  281MOL0     C37838   7.832   8.146   0.467  0.0547  1.0062 -1.3396
  281MOL0     C37839   7.840   8.076   0.594  1.0629 -0.2941  0.0757
  281MOL0     C37840   7.968   8.014   0.633 -1.6330  0.1981  0.3079
  281MOL0     C37841   7.968   7.952   0.773  0.5583 -0.1075  0.0265
  281MOL0     C37842   8.103   7.927   0.843  0.0999 -0.2138 -1.0806
  281MOL0     C37843   8.193   7.828   0.766 -0.5305  0.5876 -0.2289
  281MOL0    Cl37844   8.358   7.827   0.839 -0.0516  0.4810  0.1639
  281MOL0     C37845   7.430   8.494   0.390  0.2758 -0.1340  0.0229
  281MOL0     C37846   7.353   8.615   0.373  0.3550 -1.2811  0.0990
  281MOL0     O37847   7.045   8.565   0.204  0.3465 -1.3063  0.4912
  281MOL0     C37848   7.004   8.915   0.110  0.5268 -0.0143 -0.2193
  281MOL0     C37849   6.902   9.004   0.064  0.1846  0.2626 -1.2068
  281MOL0     N37850   6.220   9.466  -0.223  0.1786  0.5319 -0.2813
  281MOL0     N37851   6.105   9.474  -0.155 -0.3365 -1.4528  0.3947
  281MOL0     C37852   6.439   9.167   0.771  0.2841 -0.1870 -0.7169
  281MOL0     C37853   6.457   9.032   0.732 -0.0152  0.0168 -0.0068
  281MOL0     C37854   6.260   8.602   0.688  0.9208  0.6812  0.1328
  281MOL0     C37855   6.326   8.547   0.805 -0.2069 -0.6462 -0.1149
  281MOL0     C37856   6.306   8.417   0.851 -0.4390  0.4739 -0.1173
  281MOL0     C37857   6.236   8.317   0.774 -1.2936 -0.2263 -0.1023
  281MOL0     O37858   6.221   8.182   0.798 -0.4344  0.2345  0.4175
  281MOL0     C37859   6.279   8.125   0.923  0.5886 -0.0154  0.3506
  281MOL0     C37860   6.168   8.106   1.027 -0.0129 -0.5517 -0.3172
  281MOL0     C37861   6.164   8.229   1.131 -0.5319 -0.7867  0.2620
  281MOL0     C37862   6.099   8.185   1.254 -0.2493  0.4006  0.7768
  281MOL0     C37863   6.009   8.279   1.325 -0.5111  0.3442 -0.0431
  281MOL0     C37864   5.936   8.350   1.394  0.2503  0.0474  0.0707
  281MOL0     C37865   6.176   8.372   0.657  0.0227  0.5242  0.3284
  281MOL0     C37866   6.186   8.508   0.612 -0.4307  0.0239 -0.3465
  281MOL0     C37867   6.112   8.536   0.480  1.0199  0.3830  0.2224
  281MOL0     H37868   6.152   8.921   0.830 -1.2998  1.1957  1.1353
  281MOL0     H37869   6.127   9.155   0.915  1.0556  0.6145  0.9924
  281MOL0     H37870   6.119   9.422   0.847  1.5375 -1.5346 -0.9021
  281MOL0     H37871   6.237   9.544   0.845  0.3896 -0.7832  2.3674
  281MOL0     H37872   6.200   9.320   0.633  1.2403  0.7416 -3.5184
  281MOL0     H37873   6.304   9.459   0.607  0.1206 -1.3713 -1.0212
  281MOL0     H37874   6.129   9.609   0.582 -4.0945  1.4773  1.9668
  281MOL0     H37875   6.008   9.495   0.646  0.7826 -1.1928  2.1643
  281MOL0     H37876   6.184   9.434   0.395 -1.7054  0.3580 -2.2238
  281MOL0     H37877   6.042   9.346   0.439  0.5442  0.2301 -2.1704
  281MOL0     H37878   5.908   9.543   0.361  0.7559 -2.0386  3.0527
  281MOL0     H37879   6.056   9.629   0.344  1.0980 -0.9811  3.6748
  281MOL0     H37880   5.979   9.556   0.136 -0.7786 -0.5087  1.3771
  281MOL0     H37881   6.135   9.490   0.175  0.2585 -0.2108  0.5626
  281MOL0     H37882   5.888   9.330   0.219  0.7926  1.3299  2.5574
  281MOL0     H37883   6.058   9.272   0.196  0.5688  1.7635  2.9941
  281MOL0     H37884   5.938   9.230  -0.027 -2.0731 -1.8655  3.0141
  281MOL0     H37885   5.889   9.399  -0.027 -0.7204 -1.2249  2.0121
  281MOL0     H37886   6.208   9.180  -0.067  1.6353 -0.9573 -2.8772
  281MOL0     H37887   6.358   9.257  -0.352  1.6068  1.4817 -1.9465
  281MOL0     H37888   6.469   9.375  -0.277  1.5455 -1.8256 -0.9480
  281MOL0     H37889   6.430   9.102  -0.139  0.2995 -2.1260 -0.3080
  281MOL0     H37890   6.564   9.136  -0.237 -2.9168 -2.8724 -0.4050
  281MOL0     H37891   6.506   9.258   0.019  0.3800 -2.9287 -0.0514
  281MOL0     H37892   6.596   9.358  -0.102 -0.3106 -1.7835 -3.3954
  281MOL0     H37893   6.752   9.239   0.036 -0.9596  2.6245 -1.0446
  281MOL0     H37894   6.752   9.176  -0.125  2.4055  0.0782  1.9085
  281MOL0     H37895   6.634   8.794   0.074  0.1274 -0.5738 -0.5481
  281MOL0     H37896   6.804   8.656   0.189 -1.4491  0.8747  0.8307
  281MOL0     H37897   7.330   8.619   0.033 -0.9173 -0.7555 -0.4387
  281MOL0     H37898   7.482   8.438   0.052 -2.1269 -0.2704 -1.9587
  281MOL0     H37899   7.737   8.270   0.246  1.3394 -1.7373  2.0586
  281MOL0     H37900   7.696   8.383   0.390  0.8406  0.7529  0.2864
  281MOL0     H37901   7.620   8.218   0.515  0.7917  0.3678  1.3101
  281MOL0     H37902   7.636   8.094   0.392  0.3389 -0.3408 -0.4026
  281MOL0     H37903   7.875   8.080   0.392 -0.4187  0.3667 -1.0568
  281MOL0     H37904   7.892   8.238   0.467  2.1931 -0.2552  1.0588
  281MOL0     H37905   7.777   7.987   0.582 -1.2006  1.4189 -1.6319
  281MOL0     H37906   7.802   8.135   0.677  1.6770 -2.2552  1.8305
  281MOL0     H37907   8.036   8.099   0.631 -1.2842 -0.0712  0.6936
  281MOL0     H37908   7.988   7.935   0.559 -1.1869  2.9229 -2.7090
  281MOL0     H37909   7.915   8.026   0.833 -3.2365 -1.2038 -1.6924
  281MOL0     H37910   7.907   7.861   0.778 -1.4974  1.1380 -1.2740
  281MOL0     H37911   8.064   7.878   0.933 -2.2523  2.3661 -0.5530
  281MOL0     H37912   8.151   8.023   0.864 -1.5195  0.6069 -0.9888
  281MOL0     H37913   8.164   7.722   0.763  0.3944  0.2467  1.4559
  281MOL0     H37914   8.192   7.856   0.660 -2.8668  0.2445 -0.3648
  281MOL0     H37915   7.456   8.443   0.482  1.1264 -0.2613 -0.2831
  281MOL0     H37916   7.320   8.671   0.460  2.9546  2.2417 -0.9439
  281MOL0     H37917   7.109   8.944   0.118  0.4496  0.1572  0.2195
  281MOL0     H37918   6.946   9.099   0.037  1.7080  0.7147  2.3291
  281MOL0     H37919   6.516   9.242   0.761 -0.3486  0.6906  0.6737
  281MOL0     H37920   6.540   8.997   0.671 -0.8778 -1.0383 -0.6182
  281MOL0     H37921   6.385   8.607   0.873 -2.1040  0.7128  0.4156
  281MOL0     H37922   6.359   8.387   0.940  0.4390  2.1265 -0.0345
  281MOL0     H37923   6.361   8.184   0.964  0.8257 -0.1073  0.0088
  281MOL0     H37924   6.320   8.025   0.904 -1.0214 -0.8891  1.2105
  281MOL0     H37925   6.191   8.013   1.081 -0.0896 -0.4157 -0.0536
  281MOL0     H37926   6.068   8.104   0.985 -0.3424  0.4246  0.3985
  281MOL0     H37927   6.103   8.308   1.086 -1.3501 -0.6959  1.5067
  281MOL0     H37928   6.264   8.262   1.160 -0.9581  1.3972 -0.5336
  281MOL0     H37929   6.041   8.095   1.232  4.2178 -2.1965 -2.0290
  281MOL0     H37930   6.184   8.149   1.313 -0.6299  1.3080  1.9252
  281MOL0     H37931   5.875   8.422   1.445  2.1281  3.2159 -1.8103
  281MOL0     H37932   6.123   8.305   0.590  1.6190 -1.5319  1.0180
  281MOL0     H37933   6.069   8.449   0.429 -0.9879  1.0877  0.6251
  281MOL0     H37934   6.028   8.601   0.504  0.8086 -0.2219  1.1515
  281MOL0     H37935   6.181   8.589   0.413 -0.7625  0.3945 -1.7144
  282MOL0     O37936   7.074   9.635   0.586  1.0574 -0.6499 -0.6785
  282MOL0     C37937   6.966   9.587   0.552  0.0612  0.6250 -0.0848
  282MOL0     O37938   6.952   9.465   0.498  0.2646 -0.4624 -0.4337
  282MOL0     C37939   7.066   9.389   0.474 -0.1542  0.0379 -0.8639
  282MOL0     C37940   7.121   9.315   0.581 -0.0640 -0.9592  0.9253
  282MOL0     C37941   7.227   9.229   0.560 -0.1180 -0.8067 -0.0184
  282MOL0     C37942   7.275   9.199   0.440 -0.3534  1.0211  1.1134
  282MOL0     O37943   7.382   9.112   0.423  1.2168 -0.2751  0.0180
  282MOL0     C37944   7.399   9.041   0.304 -0.2028  0.0138  1.3627
  282MOL0     C37945   7.533   8.957   0.324  0.3879  0.0596  0.5173
  282MOL0     C37946   7.593   8.899   0.200 -0.9595 -0.0474  0.0559
  282MOL0     C37947   7.703   8.801   0.249 -0.2249  0.6668  0.1017
  282MOL0     C37948   7.787   8.733   0.135 -0.2737 -0.0142 -0.0989
  282MOL0     C37949   7.861   8.609   0.185  0.0057  0.4751  0.1157
  282MOL0     C37950   7.924   8.529   0.075 -0.7309  0.0383  0.1873
  282MOL0     C37951   8.054   8.460   0.112  0.4126 -0.7763 -0.4509
  282MOL0     N37952   8.113   8.394  -0.007  0.6031 -0.6767 -0.9717
  282MOL0     C37953   8.234   8.416  -0.063 -0.1183 -0.1192 -0.9023
  282MOL0     C37954   8.245   8.318  -0.158 -0.7426 -0.6339 -0.3982
  282MOL0     C37955   8.364   8.295  -0.256  0.1866 -0.0582  0.1713
  282MOL0     C37956   8.481   8.229  -0.182 -0.4062  0.2037  0.6104
  282MOL0     C37957   8.451   8.088  -0.134 -0.0842 -0.6509  0.0935
  282MOL0     C37958   8.412   7.988  -0.246 -0.0686 -0.3527 -1.1752
  282MOL0     O37959   8.509   7.958  -0.343  0.1483 -0.0626 -0.0115
  282MOL0     C37960   8.618   7.878  -0.305 -0.1471 -0.4623 -0.7052
  282MOL0     C37961   8.628   7.808  -0.178  0.5584 -0.0403  0.5659
  282MOL0     C37962   8.737   7.729  -0.151 -0.3818  0.2219 -0.6855
  282MOL0     C37963   8.840   7.711  -0.248  0.1459 -0.7885 -0.4932
  282MOL0     C37964   8.958   7.626  -0.221  0.2751  0.0928  0.6769
  282MOL0     O37965   8.937   7.540  -0.127 -0.2471  0.6351  0.4117
  282MOL0     C37966   8.998   7.422  -0.141  0.0271 -0.4860  0.3746
  282MOL0     C37967   9.072   7.382  -0.028  0.7357 -0.3244  0.9074
  282MOL0     C37968   9.142   7.263  -0.037 -0.2610  0.4159 -0.2756
  282MOL0     C37969   9.152   7.178  -0.142  0.6198 -0.2674  0.7751
  282MOL0     O37970   9.232   7.074  -0.124  0.0451 -0.0801  0.1282
  282MOL0     C37971   9.229   6.974  -0.226 -0.2061 -0.6528 -0.6676
  282MOL0     C37972   9.293   6.856  -0.168 -0.6560 -0.1259  0.6919
  282MOL0     C37973   9.324   6.738  -0.261 -0.1723  0.1868  0.1610
  282MOL0     C37974   9.415   6.646  -0.190  0.4385  0.4150 -0.6830
  282MOL0     C37975   9.474   6.539  -0.277 -0.6104  0.7162  0.2697
  282MOL0     C37976   9.613   6.564  -0.329  0.3985 -0.7465 -0.2036
  282MOL0     C37977   9.645   6.479  -0.453 -0.6219  0.0484 -0.2349
  282MOL0     C37978   9.673   6.339  -0.399 -0.0113 -0.5792  0.1781
  282MOL0    Cl37979   9.841   6.316  -0.325 -0.4735 -0.2735 -0.0118
  282MOL0     C37980   9.065   7.216  -0.252 -0.0544  0.4135 -0.7213
  282MOL0     C37981   8.995   7.335  -0.251 -1.4680 -0.7429  0.1799
  282MOL0     O37982   9.052   7.626  -0.301 -0.0897  1.0476 -0.8145
  282MOL0     C37983   8.842   7.791  -0.361  0.6879  0.3547 -0.1162
  282MOL0     C37984   8.724   7.867  -0.388 -1.1851 -0.0786 -0.1745
  282MOL0     N37985   8.141   8.234  -0.155 -0.2831  0.5509 -0.0308
  282MOL0     N37986   8.062   8.277  -0.062 -0.8590 -0.6892  0.0463
  282MOL0     C37987   7.221   9.269   0.336 -0.1093 -0.4787  0.2465
  282MOL0     C37988   7.117   9.371   0.350  0.4918 -0.2066 -0.6854
  282MOL0     C37989   6.837   9.651   0.604 -0.1726 -0.4231  0.6813
  282MOL0     C37990   6.738   9.574   0.666  0.2772 -0.2233 -0.6230
  282MOL0     C37991   6.607   9.629   0.693  0.1352  0.4708  0.0784
  282MOL0     C37992   6.585   9.765   0.674  0.8434 -0.4248 -0.4807
  282MOL0     O37993   6.461   9.816   0.700  0.2972 -0.0904 -0.1142
  282MOL0     C37994   6.433   9.957   0.692 -0.2520 -0.7404  0.1280
  282MOL0     C37995   6.294  10.003   0.741  0.0542  0.4111  0.1962
  282MOL0     C37996   6.176   9.921   0.691 -0.5263 -0.7236  0.9426
  282MOL0     C37997   6.150   9.968   0.545  0.1168  0.5846 -0.3809
  282MOL0     C37998   6.019   9.906   0.505 -0.1370 -0.5092 -0.4112
  282MOL0     C37999   5.925   9.845   0.454  0.0730 -0.4858 -0.2353
  282MOL0     C38000   6.692   9.846   0.620  0.2914 -0.4276  0.6891
  282MOL0     C38001   6.811   9.789   0.578  0.3146 -0.6757 -0.2745
  282MOL0     C38002   6.903   9.875   0.490  0.0944  0.3015  0.0723
  282MOL0     H38003   7.092   9.342   0.682  3.7717 -0.6948  2.1517
  282MOL0     H38004   7.267   9.185   0.651  2.1164  1.9335  0.4805
  282MOL0     H38005   7.325   8.964   0.281 -0.4337  0.8518 -1.0008
  282MOL0     H38006   7.426   9.107   0.221 -1.7181  1.5371  2.0369
  282MOL0     H38007   7.517   8.880   0.400 -1.9960 -0.5654 -0.5281
  282MOL0     H38008   7.614   9.024   0.357  1.7936 -1.4129  0.1678
  282MOL0     H38009   7.637   8.980   0.141  1.1571 -0.8110  0.5230
  282MOL0     H38010   7.518   8.842   0.143 -0.1758 -0.6876 -0.3524
  282MOL0     H38011   7.773   8.855   0.314  2.0862 -1.9471 -0.0357
  282MOL0     H38012   7.656   8.720   0.305  1.1391 -1.8528 -2.1746
  282MOL0     H38013   7.717   8.695   0.060  1.5644  0.2076 -2.0126
  282MOL0     H38014   7.850   8.809   0.088  0.8743  0.9128  2.7585
  282MOL0     H38015   7.932   8.642   0.262  0.1191  1.8753 -0.5513
  282MOL0     H38016   7.796   8.534   0.230  0.1911 -0.9618 -1.8844
  282MOL0     H38017   7.932   8.601  -0.007  1.4330  3.1726  2.8916
  282MOL0     H38018   7.857   8.463   0.020 -3.3490  3.1459 -0.6231
  282MOL0     H38019   8.128   8.533   0.144  1.8373 -1.2215 -2.4936
  282MOL0     H38020   8.040   8.387   0.192 -1.7922  0.8363  0.7523
  282MOL0     H38021   8.320   8.472  -0.029  0.4689 -2.2641  1.4774
  282MOL0     H38022   8.331   8.228  -0.336 -0.4118  1.7764 -1.1934
  282MOL0     H38023   8.394   8.386  -0.308  0.5015  0.6142  1.4683
  282MOL0     H38024   8.564   8.228  -0.253 -0.1872  0.2960  0.8589
  282MOL0     H38025   8.507   8.292  -0.096  0.0415 -1.3903  1.6714
  282MOL0     H38026   8.365   8.084  -0.066  0.1048 -1.4778  0.3009
  282MOL0     H38027   8.527   8.043  -0.070  1.2534 -0.9388 -1.6250
  282MOL0     H38028   8.316   8.013  -0.292  0.9001  2.5163 -1.8447
  282MOL0     H38029   8.379   7.895  -0.199 -1.8194 -0.2955 -2.1999
  282MOL0     H38030   8.551   7.819  -0.102  1.4701 -1.3950  1.7409
  282MOL0     H38031   8.747   7.674  -0.058 -3.4667 -2.5513 -1.7823
  282MOL0     H38032   9.091   7.455   0.050  2.4031  0.5956 -0.3057
  282MOL0     H38033   9.199   7.235   0.052  0.0404  1.5706 -0.0858
  282MOL0     H38034   9.126   6.946  -0.251 -1.4701  3.1346 -0.2645
  282MOL0     H38035   9.295   7.000  -0.310  1.5217 -1.6498  0.3048
  282MOL0     H38036   9.386   6.888  -0.120 -0.8691  0.2377  0.8659
  282MOL0     H38037   9.231   6.813  -0.089 -0.9588 -0.1536  0.4387
  282MOL0     H38038   9.231   6.687  -0.288 -0.8091  1.4099 -0.0599
  282MOL0     H38039   9.381   6.764  -0.351  2.4223  0.0873  1.6837
  282MOL0     H38040   9.347   6.601  -0.118 -0.2239 -1.7750 -2.5568
  282MOL0     H38041   9.497   6.690  -0.132  2.2693 -2.9705 -0.4423
  282MOL0     H38042   9.404   6.501  -0.353 -2.3177  0.7013  1.7900
  282MOL0     H38043   9.485   6.454  -0.210  0.7224  2.6065  2.5910
  282MOL0     H38044   9.620   6.666  -0.367  2.3228 -0.4468  0.8046
  282MOL0     H38045   9.675   6.551  -0.240 -2.9931  0.3157  2.5108
  282MOL0     H38046   9.738   6.508  -0.502  0.6337 -1.7869  0.9173
  282MOL0     H38047   9.560   6.477  -0.521 -1.1194 -1.4577  0.3972
  282MOL0     H38048   9.600   6.302  -0.326  0.1468  0.7518  1.0473
  282MOL0     H38049   9.655   6.274  -0.485 -2.2624 -0.2721  0.3640
  282MOL0     H38050   9.074   7.148  -0.336  0.1552 -1.6367  0.8723
  282MOL0     H38051   8.955   7.361  -0.349  0.1002 -3.3698 -1.2642
  282MOL0     H38052   8.918   7.776  -0.437  1.8240  1.9367  0.6583
  282MOL0     H38053   8.729   7.920  -0.483  1.6518  0.8753  0.3869
  282MOL0     H38054   7.273   9.251   0.241  0.4808 -2.7844  0.9365
  282MOL0     H38055   7.087   9.441   0.273  1.8626  0.0488 -1.0120
  282MOL0     H38056   6.734   9.467   0.685 -1.0431  0.2433  2.2955
  282MOL0     H38057   6.526   9.565   0.726 -0.2403 -0.9072 -3.1309
  282MOL0     H38058   6.448   9.985   0.587 -0.0531  1.3924  0.6928
  282MOL0     H38059   6.494  10.013   0.763  0.3326 -1.8508  0.5358
  282MOL0     H38060   6.272  10.109   0.724 -1.6547 -0.0584 -0.8423
  282MOL0     H38061   6.289  10.006   0.850 -0.7698 -0.4940  0.1945
  282MOL0     H38062   6.094   9.934   0.762  0.7740  1.1754  2.1967
  282MOL0     H38063   6.199   9.814   0.691  0.8348 -0.4982 -1.6930
  282MOL0     H38064   6.149  10.077   0.536  1.1487  0.7329  1.0101
  282MOL0     H38065   6.221   9.923   0.476  1.3393 -0.0683  1.2267
  282MOL0     H38066   5.841   9.789   0.418 -0.8460  1.4554 -1.2573
  282MOL0     H38067   6.678   9.949   0.588  0.9828 -0.3116  0.7426
  282MOL0     H38068   6.882   9.982   0.501 -2.4895 -0.2945  1.8646
  282MOL0     H38069   7.010   9.869   0.511 -0.2823  0.4158  2.1754
  282MOL0     H38070   6.894   9.858   0.382  2.3262  0.7794 -0.2386
  283MOL0     O38071   5.707   7.104   2.010 -0.3540  0.0456 -0.1475
  283MOL0     C38072   5.773   7.036   1.928  0.1757 -0.0377  0.2945
  283MOL0     O38073   5.714   6.990   1.812 -0.4750  0.0486  0.5224
  283MOL0     C38074   5.576   6.994   1.808 -0.2249 -0.3111 -0.5526
  283MOL0     C38075   5.509   6.874   1.830 -0.1748  0.0890 -0.0925
  283MOL0     C38076   5.373   6.861   1.833 -0.3417  0.6066 -0.4456
  283MOL0     C38077   5.297   6.973   1.818 -0.6211  0.3915  0.3951
  283MOL0     O38078   5.162   6.968   1.826 -0.1699  0.3807  0.3295
  283MOL0     C38079   5.101   6.853   1.895  0.0598  0.2184 -0.1218
  283MOL0     C38080   4.948   6.874   1.879 -0.0432 -0.7556 -0.2997
  283MOL0     C38081   4.891   6.991   1.960  0.6375  0.1917  0.0977
  283MOL0     C38082   4.737   6.986   1.945  0.2684  0.4441  0.4053
  283MOL0     C38083   4.667   7.077   2.048 -0.1803 -0.1731 -0.1961
  283MOL0     C38084   4.525   7.027   2.076  0.0019 -0.0884 -0.5645
  283MOL0     C38085   4.469   7.131   2.174 -0.1126 -0.2518  0.5185
  283MOL0     C38086   4.331   7.096   2.215  0.4904  0.3784 -0.5816
  283MOL0     N38087   4.335   6.974   2.303 -0.1824 -0.2136  0.4761
  283MOL0     C38088   4.363   6.984   2.437 -0.1679  0.4791  0.2186
  283MOL0     C38089   4.349   6.855   2.484  0.2145 -0.0002  0.3309
  283MOL0     C38090   4.365   6.803   2.629  0.2090  1.0418  0.7131
  283MOL0     C38091   4.506   6.754   2.657 -1.1954  0.3727 -1.3647
  283MOL0     C38092   4.536   6.729   2.809 -0.2563  0.1044  0.3903
  283MOL0     C38093   4.665   6.652   2.827  0.1907 -0.4219  0.1209
  283MOL0     O38094   4.778   6.736   2.771 -0.5015  0.3201 -0.0217
  283MOL0     C38095   4.899   6.676   2.759  0.3980 -0.4097  0.1945
  283MOL0     C38096   4.939   6.550   2.813 -0.0303  0.6967 -0.1704
  283MOL0     C38097   5.069   6.509   2.795  0.1220 -0.5735  0.2795
  283MOL0     C38098   5.161   6.580   2.717  0.3857  0.5109  0.4783
  283MOL0     C38099   5.303   6.535   2.703  0.1204 -0.1126 -0.0273
  283MOL0     O38100   5.373   6.602   2.603 -0.3080 -0.2816  0.1215
  283MOL0     C38101   5.500   6.570   2.578 -0.0037  1.2941  0.1347
  283MOL0     C38102   5.596   6.668   2.599  0.7196  0.0954  1.2173
  283MOL0     C38103   5.727   6.646   2.567  0.3889 -0.0827 -0.7609
  283MOL0     C38104   5.763   6.524   2.513 -0.7841  0.1693 -0.0579
  283MOL0     O38105   5.896   6.490   2.496  0.4295 -0.0326  0.0448
  283MOL0     C38106   5.946   6.464   2.364 -0.8549  0.7681 -0.6024
  283MOL0     C38107   6.091   6.433   2.374 -1.5044 -0.1802 -0.9663
  283MOL0     C38108   6.162   6.402   2.238 -0.3314 -0.4074 -0.4151
  283MOL0     C38109   6.317   6.401   2.264 -1.7402 -0.0250 -0.7864
  283MOL0     C38110   6.389   6.364   2.134  0.4257 -0.1521  0.2105
  283MOL0     C38111   6.533   6.318   2.157 -0.5717 -0.4294 -0.5133
  283MOL0     C38112   6.620   6.425   2.231 -0.0962  0.0359 -0.3171
  283MOL0     C38113   6.644   6.545   2.146  0.1910 -0.1080 -0.3767
  283MOL0    Cl38114   6.762   6.663   2.216 -0.1054 -0.4028 -0.0844
  283MOL0     C38115   5.668   6.432   2.473  0.1754 -0.1356  0.0739
  283MOL0     C38116   5.532   6.460   2.506 -0.8527 -0.0574  0.2544
  283MOL0     O38117   5.353   6.447   2.775  0.0356  0.0446 -0.2374
  283MOL0     C38118   5.117   6.708   2.666 -0.1948  0.1129 -0.0869
  283MOL0     C38119   4.986   6.753   2.682 -0.3347 -0.3593  0.1007
  283MOL0     N38120   4.310   6.770   2.381 -0.3505  0.4848 -0.7039
  283MOL0     N38121   4.306   6.841   2.280 -0.0474 -0.5641  0.1271
  283MOL0     C38122   5.361   7.102   1.797  0.3151 -0.0584  0.1694
  283MOL0     C38123   5.504   7.107   1.783 -0.7569 -0.9828 -0.0659
  283MOL0     C38124   5.920   7.012   1.939  0.3147 -0.1541  1.5704
  283MOL0     C38125   5.991   6.972   1.826  0.8480 -1.2904 -0.5473
  283MOL0     C38126   6.128   6.965   1.828  0.1296 -0.0884  0.4088
  283MOL0     C38127   6.200   6.988   1.943 -0.5504  0.9294 -0.3398
  283MOL0     O38128   6.340   6.987   1.957  0.3413 -0.4777  0.3679
  283MOL0     C38129   6.419   6.953   1.836  0.3256 -0.9941 -0.5559
  283MOL0     C38130   6.566   6.954   1.876  0.0473 -0.6682 -0.0639
  283MOL0     C38131   6.634   6.848   1.792 -0.7082  0.2085 -0.5437
  283MOL0     C38132   6.787   6.838   1.818  0.5609 -0.3166 -0.4685
  283MOL0     C38133   6.855   6.775   1.701  0.5378 -0.1815 -0.5719
  283MOL0     C38134   6.914   6.720   1.606  1.4223  0.7900 -0.4690
  283MOL0     C38135   6.133   7.028   2.050  0.0912 -0.2665 -0.1069
  283MOL0     C38136   5.993   7.036   2.054  0.4954 -0.7975 -0.1223
  283MOL0     C38137   5.923   7.088   2.184  0.0572  0.3935  0.0897
  283MOL0     H38138   5.558   6.779   1.846 -1.6825 -0.8536 -0.8830
  283MOL0     H38139   5.334   6.768   1.872  0.6419 -0.3668 -1.6811
  283MOL0     H38140   5.123   6.756   1.852  1.0668 -0.1553  1.1687
  283MOL0     H38141   5.146   6.847   1.995  0.4275 -0.3005 -0.3181
  283MOL0     H38142   4.902   6.779   1.911  0.7080 -1.3703 -1.0093
  283MOL0     H38143   4.908   6.885   1.778 -0.5120 -3.7443 -0.5245
  283MOL0     H38144   4.935   7.088   1.932  1.5225  0.0667  0.9929
  283MOL0     H38145   4.916   6.984   2.066  0.5944  2.1477  0.2780
  283MOL0     H38146   4.705   7.013   1.844 -0.1000  1.4073  0.7621
  283MOL0     H38147   4.700   6.883   1.945 -0.0343  0.5511  0.3054
  283MOL0     H38148   4.725   7.068   2.140  0.3595  0.4742 -0.4709
  283MOL0     H38149   4.665   7.181   2.014 -2.1968 -0.3798 -0.8492
  283MOL0     H38150   4.458   7.017   1.991 -1.0554  2.2651 -0.0978
  283MOL0     H38151   4.534   6.933   2.131  0.7541  1.4437  2.1442
  283MOL0     H38152   4.473   7.225   2.119  3.0615  0.9271  2.4693
  283MOL0     H38153   4.538   7.135   2.259  2.1078 -0.0642 -1.1968
  283MOL0     H38154   4.287   7.178   2.272 -2.1735 -0.7307 -0.8768
  283MOL0     H38155   4.274   7.078   2.123  0.0839  0.9584 -0.4441
  283MOL0     H38156   4.391   7.072   2.494  1.2202 -0.0672  0.4204
  283MOL0     H38157   4.341   6.880   2.702  2.0201  3.7893 -1.3933
  283MOL0     H38158   4.295   6.720   2.643  1.5789 -0.0164  1.5823
  283MOL0     H38159   4.529   6.666   2.596 -0.6967  0.4028 -1.2250
  283MOL0     H38160   4.573   6.826   2.608 -2.3484  0.6040 -2.6702
  283MOL0     H38161   4.460   6.665   2.854  1.8336 -1.5941  1.6850
  283MOL0     H38162   4.540   6.829   2.855  0.5732  0.1346  0.2527
  283MOL0     H38163   4.654   6.550   2.788  0.1420 -0.5965  0.5836
  283MOL0     H38164   4.678   6.640   2.934  1.4003 -1.3850 -0.1200
  283MOL0     H38165   4.881   6.481   2.873  0.8458 -1.9158 -2.1278
  283MOL0     H38166   5.103   6.415   2.838  1.2245  0.9000  2.8124
  283MOL0     H38167   5.564   6.751   2.661 -0.4595 -1.7807  3.2618
  283MOL0     H38168   5.801   6.722   2.589 -0.2960  0.1110  1.0776
  283MOL0     H38169   5.906   6.373   2.320  0.0747  0.2271 -0.3539
  283MOL0     H38170   5.920   6.551   2.303 -2.7836  0.4542 -0.2886
  283MOL0     H38171   6.129   6.527   2.415 -0.7432 -0.2589 -1.4680
  283MOL0     H38172   6.111   6.352   2.445  3.3216  1.8040  0.4154
  283MOL0     H38173   6.139   6.307   2.189 -0.6536  0.3744 -1.8073
  283MOL0     H38174   6.153   6.489   2.173  1.3984  0.0498 -0.0892
  283MOL0     H38175   6.355   6.334   2.342  3.2960  0.9739 -2.0366
  283MOL0     H38176   6.348   6.500   2.299  0.3192  0.4024 -3.4786
  283MOL0     H38177   6.385   6.460   2.083 -2.0293 -0.7709 -0.9316
  283MOL0     H38178   6.326   6.294   2.077 -2.4041  3.7245 -1.8700
  283MOL0     H38179   6.526   6.229   2.220  0.7596  0.1275  0.4858
  283MOL0     H38180   6.571   6.305   2.055 -1.7211  1.8063 -1.2918
  283MOL0     H38181   6.722   6.397   2.259  0.7032  2.0708 -0.9397
  283MOL0     H38182   6.586   6.450   2.332 -0.4932  0.4309 -0.5425
  283MOL0     H38183   6.661   6.516   2.041 -2.0014 -0.9086 -0.5600
  283MOL0     H38184   6.549   6.599   2.148 -0.9885 -2.1041  0.0747
  283MOL0     H38185   5.696   6.341   2.420  1.2861  1.3425 -2.0062
  283MOL0     H38186   5.454   6.386   2.485  1.1770 -1.9237 -1.2230
  283MOL0     H38187   5.188   6.775   2.618 -0.4038  1.4539  1.3977
  283MOL0     H38188   4.958   6.850   2.640  2.0218  0.8324  1.0946
  283MOL0     H38189   5.310   7.197   1.788  1.5840  0.8349  1.7101
  283MOL0     H38190   5.554   7.203   1.776 -1.6496 -0.2927  2.1225
  283MOL0     H38191   5.941   6.968   1.730 -2.6830  0.1392  1.0530
  283MOL0     H38192   6.169   6.937   1.731 -1.2873  0.4318 -0.3655
  283MOL0     H38193   6.393   7.014   1.749 -0.0391  0.0897  0.2885
  283MOL0     H38194   6.389   6.853   1.802 -0.5240 -0.2758 -2.0281
  283MOL0     H38195   6.585   6.928   1.980  0.9077 -0.4759 -0.1671
  283MOL0     H38196   6.619   7.047   1.856  0.2932 -0.7833  0.0527
  283MOL0     H38197   6.610   6.873   1.688  1.3834 -0.2910 -1.1936
  283MOL0     H38198   6.591   6.752   1.823 -0.0181 -0.0743 -0.4442
  283MOL0     H38199   6.838   6.934   1.829  2.3421 -1.4426  2.5166
  283MOL0     H38200   6.808   6.789   1.914  1.2493  0.8677  0.0173
  283MOL0     H38201   6.955   6.690   1.511  1.0473  4.2058 -1.8784
  283MOL0     H38202   6.197   7.046   2.136  1.3220 -3.3971 -0.2307
  283MOL0     H38203   5.995   7.070   2.264 -2.0098 -0.0395  1.9591
  283MOL0     H38204   5.910   7.197   2.184 -2.5801  0.1461  0.8779
  283MOL0     H38205   5.834   7.031   2.214  0.4736 -3.2367 -4.3775
  284MOL0     O38206   9.002   4.211   5.696 -0.2492  0.4120  0.4080
  284MOL0     C38207   9.017   4.187   5.814 -0.1358 -0.1762  0.1275
  284MOL0     O38208   9.130   4.148   5.877  0.3686 -0.1733  0.1677
  284MOL0     C38209   9.262   4.166   5.832  0.5094  0.7365  0.2756
  284MOL0     C38210   9.311   4.212   5.704  1.0149  0.4692  0.9338
  284MOL0     C38211   9.449   4.218   5.681 -0.3910 -0.4301 -0.3916
  284MOL0     C38212   9.544   4.198   5.783 -0.3858  0.0742  0.1168
  284MOL0     O38213   9.677   4.210   5.758  0.1341  0.1971  0.4953
  284MOL0     C38214   9.714   4.295   5.643  0.0801  0.6612 -0.0936
  284MOL0     C38215   9.856   4.351   5.655 -0.1484 -0.7243 -0.8061
  284MOL0     C38216   9.882   4.449   5.550  0.5398 -0.3069  0.6734
  284MOL0     C38217   9.841   4.592   5.589 -0.3871  0.1403 -0.8796
  284MOL0     C38218   9.947   4.650   5.689  0.3303  0.4984 -0.0304
  284MOL0     C38219  10.091   4.639   5.649 -1.1371 -0.8550 -0.0045
  284MOL0     C38220  10.184   4.732   5.726 -0.5211 -0.3495 -0.2043
  284MOL0     C38221  10.225   4.666   5.866  0.3686 -0.3317  0.1683
  284MOL0     N38222  10.336   4.732   5.935  0.2783  0.1334  0.3160
  284MOL0     C38223  10.364   4.863   5.961  0.2320  0.2780 -1.1987
  284MOL0     C38224  10.490   4.863   6.024  0.3321 -0.0817  0.4359
  284MOL0     C38225  10.558   4.984   6.076 -0.0917  0.6776 -0.3080
  284MOL0     C38226  10.634   5.075   5.981 -0.4942  0.1500  0.3619
  284MOL0     C38227  10.707   5.178   6.067 -0.2801 -0.0242  0.3695
  284MOL0     C38228  10.775   5.294   5.984 -0.4481 -0.5267  0.4378
  284MOL0     O38229  10.871   5.248   5.888  0.2133  0.5345 -0.5737
  284MOL0     C38230  11.002   5.277   5.907 -0.3774  0.0524  0.6569
  284MOL0     C38231  11.050   5.409   5.928 -0.0796 -0.0985 -0.3092
  284MOL0     C38232  11.187   5.429   5.953  0.3310  0.4109 -0.3075
  284MOL0     C38233  11.276   5.312   5.957 -0.2163  0.0667  0.4400
  284MOL0     C38234  11.412   5.341   5.998 -0.4034 -0.4535  0.8486
  284MOL0     O38235  11.496   5.233   6.024 -0.5306 -0.5027  0.0816
  284MOL0     C38236  11.627   5.239   6.033 -0.2848  0.4088  0.5978
  284MOL0     C38237  11.692   5.125   6.089 -0.1754 -0.2288  0.1656
  284MOL0     C38238  11.831   5.111   6.083  0.2346 -0.0077  0.7125
  284MOL0     C38239  11.908   5.199   6.017  0.1552  0.9264  0.3862
  284MOL0     O38240  12.033   5.169   5.978 -0.0345 -0.4377 -0.2047
  284MOL0     C38241  12.126   5.280   5.963 -0.2008  0.1936 -0.4754
  284MOL0     C38242  12.267   5.223   5.984  0.3912 -0.3820 -0.0937
  284MOL0     C38243  12.374   5.327   5.966  0.7251 -0.3661  0.1832
  284MOL0     C38244  12.511   5.279   6.022  0.3186 -0.0713 -0.5112
  284MOL0     C38245  12.627   5.387   6.019  0.0406  0.1857 -0.1823
  284MOL0     C38246  12.763   5.326   6.017 -0.7560  0.3489 -0.0782
  284MOL0     C38247  12.800   5.270   6.158  0.6098 -0.5320 -0.6883
  284MOL0     C38248  12.942   5.242   6.178  0.2026  0.6099 -0.1562
  284MOL0    Cl38249  12.987   5.089   6.091 -0.1296 -0.5249 -0.1374
  284MOL0     C38250  11.842   5.291   5.939 -0.2058  0.7104 -0.3874
  284MOL0     C38251  11.705   5.321   5.959 -0.3055 -0.6021  0.0774
  284MOL0     O38252  11.442   5.460   6.008  0.7847  0.2079  1.1761
  284MOL0     C38253  11.231   5.187   5.917  0.4901  0.9603  1.2432
  284MOL0     C38254  11.095   5.170   5.898 -0.0004 -0.5710  0.1748
  284MOL0     N38255  10.531   4.727   6.038  0.2222 -0.5611  0.6583
  284MOL0     N38256  10.441   4.655   5.980  0.4509 -0.1255  0.1904
  284MOL0     C38257   9.496   4.146   5.900 -1.0678  0.0845 -0.6342
  284MOL0     C38258   9.359   4.131   5.921  0.5466  0.5854  0.2167
  284MOL0     C38259   8.893   4.197   5.909  0.0478 -0.3431  0.6347
  284MOL0     C38260   8.893   4.108   6.021 -0.2405 -0.7003 -0.8023
  284MOL0     C38261   8.794   4.107   6.117  0.3253 -0.1779 -0.5549
  284MOL0     C38262   8.682   4.192   6.106  0.2837  0.4864 -0.1739
  284MOL0     O38263   8.580   4.183   6.195 -0.5859 -0.3951 -0.0322
  284MOL0     C38264   8.450   4.219   6.145  0.0914 -1.0163  0.2032
  284MOL0     C38265   8.348   4.148   6.239 -0.1752  0.5617 -0.1024
  284MOL0     C38266   8.201   4.191   6.251  0.2802 -0.3480  1.2708
  284MOL0     C38267   8.195   4.324   6.321  0.4821 -0.3552  0.1217
  284MOL0     C38268   8.212   4.324   6.465 -0.0019 -0.1581  0.7466
  284MOL0     C38269   8.219   4.319   6.586 -0.1176  0.9621  0.4442
  284MOL0     C38270   8.682   4.277   5.993  0.3936 -0.1590 -0.4666
  284MOL0     C38271   8.781   4.287   5.893 -0.4134  0.1341 -0.2118
  284MOL0     C38272   8.768   4.389   5.786  0.5571 -0.4602  0.8427
  284MOL0     H38273   9.249   4.214   5.616  1.6383  1.1857  0.4994
  284MOL0     H38274   9.478   4.261   5.586 -1.8080  3.3114  0.6593
  284MOL0     H38275   9.697   4.243   5.549  0.6771  0.0835  0.1048
  284MOL0     H38276   9.650   4.383   5.635 -1.9287 -0.8004 -0.7123
  284MOL0     H38277   9.931   4.272   5.665  1.7276  1.2391  2.9489
  284MOL0     H38278   9.871   4.393   5.755 -1.8672 -2.2960  0.1597
  284MOL0     H38279   9.813   4.427   5.467 -2.4806 -1.6933  3.3294
  284MOL0     H38280   9.986   4.438   5.521  0.5522  1.0236  0.1520
  284MOL0     H38281   9.846   4.653   5.498 -0.3167  3.2799  1.0596
  284MOL0     H38282   9.742   4.610   5.632 -0.2724  2.8198 -1.5543
  284MOL0     H38283   9.924   4.755   5.704 -0.4337  0.8552 -3.0339
  284MOL0     H38284   9.930   4.608   5.788  0.7191  0.4107 -0.0003
  284MOL0     H38285  10.126   4.535   5.654 -0.7973 -0.7857 -0.7384
  284MOL0     H38286  10.108   4.678   5.548  0.8725  1.2488  1.0449
  284MOL0     H38287  10.137   4.831   5.730  1.1001  0.4789 -0.8993
  284MOL0     H38288  10.278   4.737   5.671  0.7689  0.4346  1.9376
  284MOL0     H38289  10.141   4.673   5.936  0.3949  2.8742  0.0004
  284MOL0     H38290  10.253   4.561   5.850 -5.6390 -2.7044  2.1273
  284MOL0     H38291  10.295   4.943   5.935 -0.4232  0.8459  1.9116
  284MOL0     H38292  10.469   5.032   6.117  1.1212  0.6344  2.5834
  284MOL0     H38293  10.611   4.954   6.167 -1.9925 -0.8178  0.4029
  284MOL0     H38294  10.708   5.016   5.927 -1.3466 -0.5557 -0.0665
  284MOL0     H38295  10.570   5.120   5.905 -0.6285 -0.2536  0.2321
  284MOL0     H38296  10.789   5.128   6.118  0.9761  0.4252 -1.1431
  284MOL0     H38297  10.632   5.226   6.131 -1.7965  3.2684 -3.3910
  284MOL0     H38298  10.838   5.351   6.054  3.0504 -1.2988 -1.8351
  284MOL0     H38299  10.705   5.362   5.935 -0.5698 -1.6004 -0.9368
  284MOL0     H38300  10.980   5.492   5.930 -0.2569 -0.2407 -0.5121
  284MOL0     H38301  11.222   5.530   5.974  1.8416  0.0686 -1.0363
  284MOL0     H38302  11.626   5.059   6.145 -1.8605  0.7876 -0.5395
  284MOL0     H38303  11.885   5.026   6.123 -2.6155 -2.9837 -1.2529
  284MOL0     H38304  12.109   5.327   5.866 -1.6018 -0.2690 -0.4784
  284MOL0     H38305  12.118   5.352   6.045  0.8597  0.0555 -0.2369
  284MOL0     H38306  12.265   5.185   6.087 -0.8236  1.1301  0.4787
  284MOL0     H38307  12.282   5.143   5.911 -0.5892  0.6944 -1.5444
  284MOL0     H38308  12.391   5.331   5.858  2.2232 -0.4208  0.3999
  284MOL0     H38309  12.361   5.429   6.003 -0.7844 -0.5250  0.1883
  284MOL0     H38310  12.544   5.182   5.983 -1.6305 -1.5696  1.3220
  284MOL0     H38311  12.500   5.258   6.129  1.0012  0.2021 -0.3847
  284MOL0     H38312  12.622   5.460   6.099 -0.6483  0.6380 -0.6258
  284MOL0     H38313  12.611   5.444   5.927 -2.1808 -1.9320 -1.2402
  284MOL0     H38314  12.759   5.241   5.949 -0.0758  0.5631 -0.3969
  284MOL0     H38315  12.837   5.399   5.984  0.5217 -1.5365 -1.5906
  284MOL0     H38316  12.734   5.187   6.185 -2.0479  0.8941 -2.2757
  284MOL0     H38317  12.769   5.350   6.227  0.4031 -0.9293 -0.3173
  284MOL0     H38318  13.014   5.323   6.163  1.7214 -0.7163 -0.2860
  284MOL0     H38319  12.952   5.208   6.282 -2.3593 -1.0288 -0.3408
  284MOL0     H38320  11.897   5.345   5.863 -1.0793 -1.6819 -2.8527
  284MOL0     H38321  11.664   5.405   5.904 -2.2746 -0.0070  2.2922
  284MOL0     H38322  11.306   5.110   5.899 -0.2261  0.6001 -0.3451
  284MOL0     H38323  11.061   5.072   5.867  1.3803 -1.2244  0.6443
  284MOL0     H38324   9.568   4.104   5.970  0.4727  1.8986 -1.0485
  284MOL0     H38325   9.313   4.087   6.009 -0.2681 -2.2119 -1.5097
  284MOL0     H38326   8.974   4.040   6.046 -0.3449 -0.3197  0.6602
  284MOL0     H38327   8.787   4.025   6.188 -0.3464 -1.5838 -2.1739
  284MOL0     H38328   8.432   4.203   6.039 -1.1104  1.8641 -0.1350
  284MOL0     H38329   8.428   4.325   6.165 -1.4474 -1.6030  1.9673
  284MOL0     H38330   8.384   4.145   6.342 -1.1522  1.7890  0.2924
  284MOL0     H38331   8.342   4.045   6.202 -1.7978  0.4676  0.3224
  284MOL0     H38332   8.149   4.117   6.313 -0.6349 -0.9953 -0.2000
  284MOL0     H38333   8.157   4.196   6.150 -1.4003  1.9987  2.0241
  284MOL0     H38334   8.266   4.393   6.275  4.3137 -1.0219  4.3334
  284MOL0     H38335   8.099   4.364   6.287  0.7214 -0.1987 -0.3956
  284MOL0     H38336   8.217   4.309   6.692  0.5624 -1.4105  0.2846
  284MOL0     H38337   8.603   4.352   5.995  1.2734  0.7934 -0.4760
  284MOL0     H38338   8.822   4.482   5.805  0.3696 -0.0534 -0.4872
  284MOL0     H38339   8.811   4.358   5.691  1.6477  2.7409  0.1646
  284MOL0     H38340   8.660   4.402   5.771  0.2307 -0.7411  2.7335
  285MOL0     O38341   2.994   8.961   9.390 -0.0948 -0.4944  0.0509
  285MOL0     C38342   2.910   8.918   9.309  0.0120  0.0751  0.3666
  285MOL0     O38343   2.942   8.870   9.190  0.7923  0.1416  0.0909
  285MOL0     C38344   3.060   8.914   9.130 -0.1365 -0.1580  0.1027
  285MOL0     C38345   3.188   8.883   9.179  0.6869 -0.1842 -0.7578
  285MOL0     C38346   3.296   8.924   9.116 -0.0469 -0.5863  0.7787
  285MOL0     C38347   3.288   9.009   8.998  0.0305 -0.1524 -0.5437
  285MOL0     O38348   3.400   9.041   8.922  0.1333  0.8058  0.3602
  285MOL0     C38349   3.532   9.051   8.972  0.6826 -0.2684  0.0347
  285MOL0     C38350   3.613   9.013   8.850 -0.2173  0.1627  0.2950
  285MOL0     C38351   3.753   9.065   8.856  0.1620  0.0528 -0.0934
  285MOL0     C38352   3.849   8.989   8.758  0.0426  0.4431  0.3623
  285MOL0     C38353   3.993   9.013   8.807  0.2200  0.0917  0.1863
  285MOL0     C38354   4.046   9.143   8.759 -0.8798 -0.5514  0.5321
  285MOL0     C38355   4.198   9.156   8.785 -0.0720  0.7089  0.5202
  285MOL0     C38356   4.239   9.287   8.732 -0.0728  0.7313  0.5809
  285MOL0     N38357   4.386   9.305   8.751  0.5526 -0.3800  0.1381
  285MOL0     C38358   4.479   9.215   8.795 -0.7463 -0.5605  0.4560
  285MOL0     C38359   4.598   9.280   8.784 -0.2543 -0.6745 -0.4966
  285MOL0     C38360   4.727   9.219   8.825 -0.1117 -0.7723 -0.2862
  285MOL0     C38361   4.777   9.121   8.717  0.3593 -0.8362 -0.5340
  285MOL0     C38362   4.817   9.200   8.587 -0.6196 -0.4468 -0.2163
  285MOL0     C38363   4.868   9.104   8.487 -0.1303  0.1330  0.5942
  285MOL0     O38364   4.983   9.035   8.538  0.3011  0.1997 -1.1346
  285MOL0     C38365   5.110   9.081   8.522 -0.2982 -0.1291  0.0257
  285MOL0     C38366   5.213   9.026   8.602  0.2319 -0.6676  0.3274
  285MOL0     C38367   5.348   9.065   8.600  1.1326 -0.4955  0.1111
  285MOL0     C38368   5.385   9.181   8.537 -0.9419  0.0407  0.7974
  285MOL0     C38369   5.524   9.225   8.548  0.3645 -0.4186  0.3815
  285MOL0     O38370   5.555   9.346   8.487  0.1957 -0.4087  0.4982
  285MOL0     C38371   5.683   9.397   8.506 -0.5749  0.5067 -0.1283
  285MOL0     C38372   5.725   9.450   8.635 -0.3216  0.3356 -0.5559
  285MOL0     C38373   5.850   9.517   8.649  0.2679  0.5545 -0.4221
  285MOL0     C38374   5.941   9.521   8.542  0.0689 -0.4976  0.1365
  285MOL0     O38375   6.062   9.590   8.558  0.6291 -0.1282  0.2304
  285MOL0     C38376   6.182   9.558   8.483 -0.3712 -0.4991 -0.0690
  285MOL0     C38377   6.283   9.664   8.537  1.0661 -0.5106 -0.1243
  285MOL0     C38378   6.429   9.614   8.509  0.0234  0.1228  0.5547
  285MOL0     C38379   6.454   9.590   8.363  0.0332  0.4590 -0.1792
  285MOL0     C38380   6.583   9.652   8.311 -0.1320  0.6345  0.0217
  285MOL0     C38381   6.584   9.623   8.162  0.0074  0.6993  0.0304
  285MOL0     C38382   6.683   9.710   8.082  0.2349  0.2315  0.2993
  285MOL0     C38383   6.818   9.718   8.136  0.3814  0.2320  0.1430
  285MOL0    Cl38384   6.905   9.801   8.002 -0.3516 -0.2485 -0.1135
  285MOL0     C38385   5.900   9.473   8.418  0.4199 -0.3360  0.0984
  285MOL0     C38386   5.772   9.425   8.396  0.5900  0.1809  0.3164
  285MOL0     O38387   5.602   9.151   8.601 -0.4716  0.0060  0.1645
  285MOL0     C38388   5.289   9.248   8.460  0.5866 -0.1788 -0.9047
  285MOL0     C38389   5.153   9.202   8.455  0.1768  0.5548 -0.6365
  285MOL0     N38390   4.581   9.398   8.720 -0.9836  0.3087 -0.2979
  285MOL0     N38391   4.454   9.418   8.705  0.4938 -0.3646  0.5720
  285MOL0     C38392   3.167   9.053   8.949  0.3936 -0.3548 -0.9870
  285MOL0     C38393   3.050   9.006   9.016  0.4402  0.4518 -0.3241
  285MOL0     C38394   2.774   8.909   9.362 -0.6687 -0.7731  1.2910
  285MOL0     C38395   2.680   8.869   9.262  0.9422  0.4967  0.1931
  285MOL0     C38396   2.543   8.856   9.296  0.1143  0.1165 -0.5589
  285MOL0     C38397   2.515   8.864   9.427  0.2969 -0.0951  1.0413
  285MOL0     O38398   2.397   8.811   9.471 -0.0526  0.0814  0.5055
  285MOL0     C38399   2.368   8.664   9.475  0.8193 -0.2880  0.2598
  285MOL0     C38400   2.478   8.579   9.541  0.0383  0.4453 -0.1451
  285MOL0     C38401   2.483   8.628   9.686  0.1988  0.8027 -0.6682
  285MOL0     C38402   2.485   8.509   9.786  0.3549  0.0151 -0.3094
  285MOL0     C38403   2.357   8.436   9.793  0.2737 -0.1901  0.5743
  285MOL0     C38404   2.253   8.384   9.796  1.0868  0.4462 -0.0206
  285MOL0     C38405   2.598   8.909   9.522 -0.0980  1.6115 -0.1811
  285MOL0     C38406   2.732   8.936   9.493  0.0034 -0.4465 -0.4603
  285MOL0     C38407   2.817   8.987   9.608 -0.1809  0.5919  0.5277
  285MOL0     H38408   3.191   8.821   9.268 -0.7665 -0.0770 -0.6115
  285MOL0     H38409   3.391   8.890   9.157 -0.9064 -1.8121  1.8209
  285MOL0     H38410   3.540   9.159   8.986 -0.7254  0.1784 -2.1800
  285MOL0     H38411   3.553   9.005   9.070 -0.6461  1.6644  1.2971
  285MOL0     H38412   3.567   9.052   8.758 -0.0233 -2.2641 -0.9147
  285MOL0     H38413   3.604   8.904   8.839 -3.5795  0.5377 -2.6648
  285MOL0     H38414   3.783   9.056   8.961 -0.4132 -1.4004 -0.0225
  285MOL0     H38415   3.749   9.171   8.829 -0.3908  0.2880  0.8409
  285MOL0     H38416   3.837   8.881   8.749  0.7832  0.2880  1.0978
  285MOL0     H38417   3.846   9.035   8.658  0.3232  1.9567  1.0185
  285MOL0     H38418   3.988   9.004   8.916 -0.7115 -1.7230  0.0371
  285MOL0     H38419   4.062   8.932   8.781 -0.2994 -0.7080  1.2088
  285MOL0     H38420   4.038   9.155   8.651 -0.2552  0.0856  0.5437
  285MOL0     H38421   3.996   9.228   8.806  1.3750  1.9863 -1.2812
  285MOL0     H38422   4.255   9.078   8.733  0.8467  1.7098 -0.0262
  285MOL0     H38423   4.220   9.146   8.891  0.2944 -1.2765  0.2963
  285MOL0     H38424   4.214   9.310   8.628 -0.5667  2.1364  0.9853
  285MOL0     H38425   4.193   9.370   8.786 -1.5407  1.4944 -1.7145
  285MOL0     H38426   4.458   9.120   8.845 -0.9613  0.0208  1.5015
  285MOL0     H38427   4.787   9.309   8.842 -2.1381  0.9969 -1.9357
  285MOL0     H38428   4.722   9.151   8.910  3.2758 -2.3259 -1.1668
  285MOL0     H38429   4.858   9.060   8.757  0.7331 -0.4117 -0.6317
  285MOL0     H38430   4.689   9.059   8.699  0.9739 -1.8164 -0.2396
  285MOL0     H38431   4.895   9.273   8.611 -1.5174  0.5375 -0.2033
  285MOL0     H38432   4.739   9.270   8.554  0.1838  1.5372  1.8534
  285MOL0     H38433   4.899   9.159   8.398 -2.0917 -2.0399 -1.5593
  285MOL0     H38434   4.789   9.036   8.455  1.4323 -1.0531 -0.9273
  285MOL0     H38435   5.178   8.949   8.670 -1.7745 -0.8743 -0.8538
  285MOL0     H38436   5.413   9.011   8.667  0.6465 -1.7805 -0.4097
  285MOL0     H38437   5.664   9.427   8.721 -0.8210  0.1064 -0.9656
  285MOL0     H38438   5.873   9.550   8.750 -2.2854 -2.6131  1.3826
  285MOL0     H38439   6.235   9.464   8.505  2.5957  0.2788 -2.9925
  285MOL0     H38440   6.160   9.557   8.376  0.2135  0.8222 -0.2206
  285MOL0     H38441   6.268   9.757   8.481 -2.1693 -0.4545  0.6507
  285MOL0     H38442   6.266   9.685   8.643 -1.2340 -0.2484 -0.5098
  285MOL0     H38443   6.506   9.680   8.549 -1.2047 -0.6900  4.7413
  285MOL0     H38444   6.452   9.521   8.563 -0.7866 -1.4032 -1.6100
  285MOL0     H38445   6.369   9.618   8.302  0.8085 -1.1747 -2.1312
  285MOL0     H38446   6.463   9.481   8.357 -1.0596  0.3387  0.1525
  285MOL0     H38447   6.669   9.609   8.363  1.3552  0.6210 -2.3058
  285MOL0     H38448   6.580   9.760   8.329 -3.0310  0.8212 -1.1574
  285MOL0     H38449   6.602   9.516   8.145  0.9418  1.0014 -1.0110
  285MOL0     H38450   6.490   9.655   8.115  1.4091  1.9933 -2.0415
  285MOL0     H38451   6.662   9.814   8.057  0.9197 -0.6441 -5.2460
  285MOL0     H38452   6.680   9.675   7.978 -2.7067 -2.8136  1.2417
  285MOL0     H38453   6.825   9.776   8.229 -0.5514 -0.6644  0.7984
  285MOL0     H38454   6.859   9.621   8.166  1.0547  0.3101 -0.5236
  285MOL0     H38455   5.966   9.477   8.332 -0.1502  0.9214 -0.3071
  285MOL0     H38456   5.737   9.417   8.293 -1.7000  0.4510  1.0216
  285MOL0     H38457   5.308   9.338   8.403 -0.6173  0.3795 -0.4664
  285MOL0     H38458   5.082   9.256   8.392  0.0489  3.2988  1.6382
  285MOL0     H38459   3.150   9.125   8.869  0.1828  1.1463  0.3586
  285MOL0     H38460   2.955   9.049   8.985 -0.4775 -1.7029 -0.7224
  285MOL0     H38461   2.688   8.850   9.156 -1.0924 -0.5912  0.1837
  285MOL0     H38462   2.464   8.827   9.227  0.0022  0.2256 -0.4767
  285MOL0     H38463   2.349   8.642   9.369 -2.7085 -0.3199  0.8048
  285MOL0     H38464   2.274   8.640   9.525  0.7074  0.8902  0.6411
  285MOL0     H38465   2.571   8.589   9.484 -0.5241  4.3652 -0.6873
  285MOL0     H38466   2.453   8.474   9.528  0.5569  0.4313 -1.1057
  285MOL0     H38467   2.406   8.702   9.710  0.1026  1.2239 -2.1776
  285MOL0     H38468   2.578   8.680   9.701 -0.8677  3.0955 -1.3174
  285MOL0     H38469   2.564   8.433   9.778  1.5755  0.9763  1.8100
  285MOL0     H38470   2.509   8.541   9.888 -1.5234 -2.0826  0.8801
  285MOL0     H38471   2.156   8.338   9.795 -0.2505  2.8080  3.2223
  285MOL0     H38472   2.571   8.905   9.627 -1.2558  0.7719 -0.4813
  285MOL0     H38473   2.880   9.073   9.582  0.9676 -0.5183 -0.5476
  285MOL0     H38474   2.750   9.008   9.691 -0.8620 -3.3578  1.1577
  285MOL0     H38475   2.895   8.917   9.640  2.4797  3.5546  1.0024
  286MOL0     O38476   2.193   6.009   0.328 -0.1289 -0.1681  0.0625
  286MOL0     C38477   2.175   5.931   0.419 -0.2693 -0.4401 -0.3058
  286MOL0     O38478   2.088   5.829   0.422  0.0676 -0.1835 -0.4073
  286MOL0     C38479   1.993   5.816   0.320 -0.6130 -0.4484 -0.1150
  286MOL0     C38480   2.027   5.814   0.180  0.7705  0.9689 -1.2117
  286MOL0     C38481   1.935   5.791   0.082  0.9113 -0.0350 -0.2373
  286MOL0     C38482   1.806   5.759   0.112  0.0537 -0.3932  0.1778
  286MOL0     O38483   1.709   5.750   0.007 -0.8528  0.0084 -0.1980
  286MOL0     C38484   1.639   5.617   0.003 -0.0436  0.1263  0.1297
  286MOL0     C38485   1.746   5.515  -0.027 -0.7458  0.7800  0.1451
  286MOL0     C38486   1.689   5.377  -0.060 -0.4439 -0.2115  0.2558
  286MOL0     C38487   1.755   5.259   0.023  0.2503 -0.6332  0.3163
  286MOL0     C38488   1.905   5.252   0.024  0.2815  0.0670  0.2454
  286MOL0     C38489   1.948   5.140   0.113  0.1672 -0.5556  0.3346
  286MOL0     C38490   2.094   5.166   0.122  1.0798 -1.5654 -0.7783
  286MOL0     C38491   2.162   5.048   0.186  0.3580  0.1651  0.2481
  286MOL0     N38492   2.309   5.052   0.180  0.7035  0.7594 -0.4890
  286MOL0     C38493   2.383   5.134   0.251  0.0426 -1.2783  0.0093
  286MOL0     C38494   2.508   5.122   0.208  0.2626  0.7796  0.0927
  286MOL0     C38495   2.632   5.204   0.255 -0.0638 -0.0913 -0.1853
  286MOL0     C38496   2.753   5.113   0.242 -0.1443  0.4209 -0.4301
  286MOL0     C38497   2.875   5.175   0.306 -0.5937  0.3572 -0.4852
  286MOL0     C38498   3.001   5.102   0.256  0.1598 -0.6323  0.3346
  286MOL0     O38499   3.122   5.171   0.307  0.6008 -0.2185  0.0717
  286MOL0     C38500   3.251   5.121   0.286 -0.1443  0.3097  0.3360
  286MOL0     C38501   3.281   4.990   0.234  1.2599 -0.8230 -1.1575
  286MOL0     C38502   3.412   4.954   0.214 -0.2776  0.9810  0.0010
  286MOL0     C38503   3.519   5.036   0.258  0.2850  0.0636  0.3225
  286MOL0     C38504   3.651   4.986   0.251 -0.7692 -0.5959  0.5331
  286MOL0     O38505   3.753   5.077   0.247 -0.3519  0.0833  0.5180
  286MOL0     C38506   3.886   5.048   0.233 -0.5348  0.0147  0.0231
  286MOL0     C38507   3.952   4.942   0.158  0.1038  0.4427 -0.2237
  286MOL0     C38508   4.089   4.939   0.154 -0.5137 -0.0578  0.4733
  286MOL0     C38509   4.168   5.042   0.208 -0.1874 -0.1615  0.2414
  286MOL0     O38510   4.295   5.042   0.175 -0.8445  0.1906  0.4767
  286MOL0     C38511   4.390   5.140   0.207  0.3510 -0.1564 -0.5091
  286MOL0     C38512   4.519   5.100   0.145 -0.1624 -0.3313  0.5369
  286MOL0     C38513   4.506   5.065  -0.003 -0.7744  0.1051 -0.0351
  286MOL0     C38514   4.653   5.028  -0.061  0.9261 -0.2518 -0.3827
  286MOL0     C38515   4.651   5.004  -0.208  0.5076 -0.1142  0.1459
  286MOL0     C38516   4.796   4.970  -0.266 -0.7205  0.0598 -0.1726
  286MOL0     C38517   4.790   4.980  -0.418 -0.5051  0.4734  0.4459
  286MOL0     C38518   4.931   5.005  -0.480  0.0018 -0.6941 -0.3586
  286MOL0    Cl38519   5.043   4.881  -0.423  0.2547 -0.3175  0.0545
  286MOL0     C38520   4.102   5.153   0.269 -0.1405  0.7617 -0.4797
  286MOL0     C38521   3.962   5.149   0.284 -0.6921 -0.2945  0.0413
  286MOL0     O38522   3.674   4.865   0.252  0.7673  0.2409 -0.2258
  286MOL0     C38523   3.489   5.164   0.307 -0.1875  0.3771  1.4894
  286MOL0     C38524   3.359   5.199   0.320  0.9406  0.4089  0.2558
  286MOL0     N38525   2.513   5.043   0.102 -0.0797  0.8802 -0.1162
  286MOL0     N38526   2.393   4.999   0.083 -0.1647  0.4470  0.6435
  286MOL0     C38527   1.771   5.759   0.250 -0.6221 -0.3766 -0.0605
  286MOL0     C38528   1.865   5.771   0.359 -0.3330 -0.2330  0.5911
  286MOL0     C38529   2.266   5.949   0.541  0.4702  0.0065 -0.0225
  286MOL0     C38530   2.301   5.836   0.619  0.6106 -0.1245  0.0066
  286MOL0     C38531   2.399   5.852   0.722 -0.4985 -0.8045  0.5191
  286MOL0     C38532   2.432   5.982   0.762 -0.5931 -0.4855  0.1102
  286MOL0     O38533   2.508   5.998   0.871  0.1769  0.6274  0.6571
  286MOL0     C38534   2.632   6.076   0.868  0.5129 -0.6339  0.9787
  286MOL0     C38535   2.753   5.999   0.888 -0.0899  0.3236 -0.1443
  286MOL0     C38536   2.777   5.960   1.031  0.3221  0.2143 -0.6712
  286MOL0     C38537   2.909   5.880   1.042  0.9593  0.8049 -0.1464
  286MOL0     C38538   3.015   5.968   1.030 -0.2508  0.1491 -0.0044
  286MOL0     C38539   3.104   6.046   1.051  0.1455 -1.0678  0.4422
  286MOL0     C38540   2.371   6.095   0.701  0.4547 -0.3630  0.3713
  286MOL0     C38541   2.298   6.083   0.584 -0.9721  1.1276 -0.7770
  286MOL0     C38542   2.264   6.213   0.514 -0.2029 -0.5543 -0.3664
  286MOL0     H38543   2.133   5.833   0.162  0.5132  1.5033 -2.2379
  286MOL0     H38544   1.969   5.788  -0.021 -0.3208 -1.8660 -0.6404
  286MOL0     H38545   1.567   5.602   0.084 -2.1800  2.2038 -1.2824
  286MOL0     H38546   1.571   5.620  -0.082 -1.7680 -0.9436  1.3919
  286MOL0     H38547   1.813   5.494   0.058 -1.8155 -0.8558  0.6427
  286MOL0     H38548   1.805   5.549  -0.112  0.7640 -0.0797  0.7979
  286MOL0     H38549   1.691   5.365  -0.168  0.9475  2.3127 -0.0676
  286MOL0     H38550   1.585   5.373  -0.027 -0.2142  1.5723  1.3353
  286MOL0     H38551   1.723   5.278   0.126  3.6832 -0.0372  1.4082
  286MOL0     H38552   1.714   5.161  -0.002  1.8135 -1.1685 -0.2102
  286MOL0     H38553   1.932   5.236  -0.081 -3.0382  1.6727 -1.0068
  286MOL0     H38554   1.942   5.348   0.062 -2.7485  1.0802  0.8747
  286MOL0     H38555   1.905   5.146   0.214 -0.2536 -0.4807  0.1521
  286MOL0     H38556   1.927   5.045   0.064 -1.3138 -0.6960  1.1988
  286MOL0     H38557   2.113   5.250   0.190  2.6932 -2.1936 -0.4108
  286MOL0     H38558   2.138   5.184   0.024 -2.4773 -1.0308 -2.4538
  286MOL0     H38559   2.143   5.054   0.293 -2.6531  0.8576 -0.2117
  286MOL0     H38560   2.123   4.953   0.148 -1.0218 -0.7116  3.4844
  286MOL0     H38561   2.343   5.206   0.322  0.4208  0.6374 -1.6210
  286MOL0     H38562   2.628   5.301   0.203 -1.4646 -0.3125 -0.5258
  286MOL0     H38563   2.621   5.222   0.362 -0.7283 -1.6646  0.0295
  286MOL0     H38564   2.735   5.016   0.288  0.2299  0.9229  0.8117
  286MOL0     H38565   2.759   5.105   0.133  2.4352  2.4153 -0.5316
  286MOL0     H38566   2.874   5.164   0.415 -2.8246 -0.9773 -0.5724
  286MOL0     H38567   2.877   5.281   0.282 -0.2934  0.8728  1.6719
  286MOL0     H38568   3.001   5.093   0.147  0.9997 -0.3201  0.3074
  286MOL0     H38569   3.005   4.996   0.283  2.2528 -1.2959 -2.2307
  286MOL0     H38570   3.203   4.917   0.215  0.8195 -0.6369 -0.1224
  286MOL0     H38571   3.448   4.856   0.184 -1.8417 -0.1476  1.5882
  286MOL0     H38572   3.891   4.866   0.111 -2.4321  2.6795 -0.8070
  286MOL0     H38573   4.141   4.862   0.097 -4.6155 -1.0541 -2.3677
  286MOL0     H38574   4.357   5.237   0.168  2.2696  0.7859  0.0513
  286MOL0     H38575   4.406   5.159   0.313  2.1108 -0.7921 -0.6179
  286MOL0     H38576   4.602   5.170   0.159  2.1444 -2.6971 -0.3244
  286MOL0     H38577   4.565   5.014   0.193  3.5992  0.5866 -1.0072
  286MOL0     H38578   4.439   4.982  -0.023  1.9795 -1.9077 -1.6151
  286MOL0     H38579   4.480   5.159  -0.053  2.4612  0.8214 -0.6144
  286MOL0     H38580   4.707   4.944  -0.015  3.1990 -0.0409 -2.4672
  286MOL0     H38581   4.727   5.108  -0.049  1.5741 -0.9526  0.4410
  286MOL0     H38582   4.621   5.089  -0.271  4.3208 -0.0346 -1.8238
  286MOL0     H38583   4.581   4.926  -0.238 -0.3787  0.0806  1.6039
  286MOL0     H38584   4.869   5.032  -0.213 -0.8267  0.1748 -0.1576
  286MOL0     H38585   4.824   4.866  -0.248  1.8395  0.2599 -2.3832
  286MOL0     H38586   4.716   5.054  -0.449 -1.4897 -1.5770 -2.6784
  286MOL0     H38587   4.755   4.890  -0.470  2.6808 -1.5455  1.4900
  286MOL0     H38588   4.914   4.990  -0.587  0.3022 -0.4863 -0.4370
  286MOL0     H38589   4.962   5.107  -0.457 -1.6502 -0.4895  1.1559
  286MOL0     H38590   4.164   5.226   0.319 -1.6961  2.4125 -0.8635
  286MOL0     H38591   3.912   5.233   0.330 -0.2129  0.0875 -0.1250
  286MOL0     H38592   3.569   5.233   0.333  1.6012 -0.0310 -2.2334
  286MOL0     H38593   3.339   5.298   0.360 -0.5818  0.2855 -0.1567
  286MOL0     H38594   1.669   5.735   0.278 -0.0562  0.2313  2.8414
  286MOL0     H38595   1.831   5.761   0.461  2.6422  0.0764  1.6822
  286MOL0     H38596   2.264   5.737   0.594  2.8940 -0.1638 -4.1689
  286MOL0     H38597   2.445   5.771   0.778 -0.6881 -0.5570  1.0439
  286MOL0     H38598   2.616   6.155   0.941 -0.4793  0.9799 -0.8835
  286MOL0     H38599   2.645   6.106   0.764  1.4492  0.3022  1.3485
  286MOL0     H38600   2.832   6.064   0.851 -0.1359 -0.2281 -1.2426
  286MOL0     H38601   2.746   5.911   0.824  4.4888 -0.1916 -0.2781
  286MOL0     H38602   2.699   5.893   1.069 -0.1440  0.8496 -0.4928
  286MOL0     H38603   2.779   6.042   1.104  1.4492 -1.5601  1.3960
  286MOL0     H38604   2.929   5.827   1.136 -1.0071  0.7419  0.2688
  286MOL0     H38605   2.915   5.800   0.968 -2.6857  1.8147 -1.7542
  286MOL0     H38606   3.188   6.109   1.070 -0.0290 -0.5301 -0.5082
  286MOL0     H38607   2.390   6.191   0.747  0.4692  1.0193 -2.3149
  286MOL0     H38608   2.259   6.290   0.592  0.1513  0.1817 -1.0520
  286MOL0     H38609   2.345   6.235   0.444  0.4817  4.6574  1.5793
  286MOL0     H38610   2.171   6.206   0.456  0.5651 -1.0628 -1.5739
  287MOL0     O38611   7.778   1.428   0.126  0.4426 -0.2754  0.5423
  287MOL0     C38612   7.751   1.519   0.042  1.4026 -0.3973 -0.3821
  287MOL0     O38613   7.832   1.561  -0.051 -0.0622 -0.4563 -0.0841
  287MOL0     C38614   7.966   1.519  -0.054  0.9528 -0.8437  0.0347
  287MOL0     C38615   8.066   1.594   0.013  0.9005 -0.0497  0.4313
  287MOL0     C38616   8.204   1.566  -0.008 -0.5448 -1.1304  0.5535
  287MOL0     C38617   8.242   1.463  -0.094 -0.5919 -0.2542  0.0448
  287MOL0     O38618   8.378   1.442  -0.111  1.0111  0.2441 -0.0976
  287MOL0     C38619   8.417   1.312  -0.165 -0.2892 -0.1165 -0.2932
  287MOL0     C38620   8.573   1.308  -0.186  0.8651 -0.0842 -0.4033
  287MOL0     C38621   8.669   1.272  -0.074 -0.4276  0.3737  0.8284
  287MOL0     C38622   8.686   1.118  -0.054  0.6695 -0.2991  0.0126
  287MOL0     C38623   8.758   1.081   0.074  0.2559  0.2555  0.1842
  287MOL0     C38624   8.796   0.929   0.064  1.0275 -0.1857 -0.0150
  287MOL0     C38625   8.863   0.887   0.194 -0.8005  0.0194  0.6110
  287MOL0     C38626   8.894   0.740   0.200 -0.6529  0.0116 -0.4892
  287MOL0     N38627   9.004   0.685   0.117 -0.6329  0.0661 -0.5767
  287MOL0     C38628   9.018   0.679  -0.020 -0.4381 -0.0956  0.0193
  287MOL0     C38629   9.142   0.630  -0.026  0.1680  0.1718 -0.1873
  287MOL0     C38630   9.190   0.599  -0.162  0.6382 -0.1691  0.6760
  287MOL0     C38631   9.288   0.704  -0.218 -0.4962 -0.6552 -0.4176
  287MOL0     C38632   9.438   0.681  -0.182 -0.1339 -0.0949  0.3340
  287MOL0     C38633   9.515   0.769  -0.278  0.0143  0.7060 -0.2918
  287MOL0     O38634   9.481   0.909  -0.251 -0.1106 -0.1977 -0.1562
  287MOL0     C38635   9.576   0.988  -0.297 -0.0208 -0.0898  0.8597
  287MOL0     C38636   9.663   1.046  -0.202  0.8367  0.6105  0.3707
  287MOL0     C38637   9.779   1.113  -0.236  0.2563 -0.1591  0.2957
  287MOL0     C38638   9.783   1.154  -0.373  0.4176 -0.6078  0.9734
  287MOL0     C38639   9.897   1.235  -0.423 -0.2111 -0.1045 -1.1486
  287MOL0     O38640   9.883   1.299  -0.547 -0.4433 -0.7112  0.3439
  287MOL0     C38641   9.985   1.380  -0.598  0.0082  0.6874  0.3904
  287MOL0     C38642  10.123   1.345  -0.589  0.0149 -1.0424 -0.3733
  287MOL0     C38643  10.222   1.431  -0.636  0.8184 -0.3346  0.0271
  287MOL0     C38644  10.180   1.548  -0.692  0.1508  0.3119 -0.8330
  287MOL0     O38645  10.286   1.626  -0.743  0.9221 -0.1151  0.4097
  287MOL0     C38646  10.262   1.704  -0.861 -0.8348  0.1084  0.1285
  287MOL0     C38647  10.402   1.770  -0.893 -0.3805 -0.7582 -0.4759
  287MOL0     C38648  10.523   1.666  -0.897  0.3557 -0.0073 -0.1396
  287MOL0     C38649  10.650   1.726  -0.930 -0.3479  0.9133  0.3326
  287MOL0     C38650  10.752   1.617  -0.977 -0.3255  0.0210 -0.9855
  287MOL0     C38651  10.890   1.675  -0.954 -0.7309 -0.3232  0.2278
  287MOL0     C38652  10.996   1.576  -0.994 -0.3653  0.2187 -0.0959
  287MOL0     C38653  10.981   1.546  -1.138  0.0006  0.1852  0.7920
  287MOL0    Cl38654  11.132   1.492  -1.228 -0.2952 -0.3288 -0.5610
  287MOL0     C38655  10.049   1.579  -0.702 -0.1629 -0.0088 -0.7067
  287MOL0     C38656   9.953   1.501  -0.658  0.3199 -0.9261  0.9311
  287MOL0     O38657   9.992   1.244  -0.343  0.0670 -0.3763 -0.0037
  287MOL0     C38658   9.694   1.102  -0.465 -0.2757 -0.1984 -0.0541
  287MOL0     C38659   9.591   1.016  -0.436 -0.6087 -0.4186 -0.4252
  287MOL0     N38660   9.202   0.608   0.090  0.1584  0.6521 -0.1536
  287MOL0     N38661   9.119   0.643   0.174  0.4936  0.4765  0.3660
  287MOL0     C38662   8.139   1.379  -0.150  0.0915 -0.1497  0.1608
  287MOL0     C38663   8.002   1.412  -0.130  0.2876  0.0440  0.9107
  287MOL0     C38664   7.618   1.593   0.075 -0.1300  0.3549  0.1320
  287MOL0     C38665   7.520   1.531   0.145 -0.0690  0.2486  0.3528
  287MOL0     C38666   7.398   1.592   0.168 -0.6754  0.0916  0.4616
  287MOL0     C38667   7.375   1.730   0.126 -0.2146 -0.2109  0.6531
  287MOL0     O38668   7.248   1.782   0.151  0.1284 -0.3845  0.3486
  287MOL0     C38669   7.213   1.907   0.096 -0.2704 -0.7975  0.0374
  287MOL0     C38670   7.070   1.917   0.126 -0.1469 -0.2066 -0.0964
  287MOL0     C38671   6.987   1.842   0.024 -0.9741 -0.7530 -0.9458
  287MOL0     C38672   6.978   1.696   0.049  0.1820 -0.4854  0.0629
  287MOL0     C38673   6.883   1.637  -0.033  0.1562  0.4200  0.4211
  287MOL0     C38674   6.815   1.576  -0.113  0.1254  0.3892 -0.6206
  287MOL0     C38675   7.478   1.793   0.063  0.2988 -0.2003  0.7146
  287MOL0     C38676   7.599   1.726   0.027 -0.2268  0.5635 -0.0194
  287MOL0     C38677   7.693   1.807  -0.057 -0.5749 -0.2971 -0.4703
  287MOL0     H38678   8.033   1.669   0.084  0.3677 -2.6748  3.1657
  287MOL0     H38679   8.273   1.639   0.032  0.9571 -0.2378 -3.2867
  287MOL0     H38680   8.392   1.229  -0.098  1.6212  0.3071  1.0415
  287MOL0     H38681   8.375   1.280  -0.260 -0.5653  0.0956 -0.2435
  287MOL0     H38682   8.603   1.407  -0.220 -0.4149  0.5024  0.1328
  287MOL0     H38683   8.600   1.239  -0.267 -1.0004 -0.1816 -0.9761
  287MOL0     H38684   8.635   1.312   0.022 -0.5516  2.2365  0.0502
  287MOL0     H38685   8.765   1.321  -0.092 -0.7440  1.1052  1.0944
  287MOL0     H38686   8.586   1.074  -0.063 -0.0695  1.2233  0.4295
  287MOL0     H38687   8.743   1.075  -0.137 -1.8728 -1.5983 -1.1780
  287MOL0     H38688   8.844   1.145   0.096 -1.2590  2.7016 -0.6060
  287MOL0     H38689   8.688   1.097   0.157 -0.1521 -2.2871  0.3956
  287MOL0     H38690   8.708   0.866   0.047  1.1173 -0.3823  0.2562
  287MOL0     H38691   8.863   0.929  -0.023  1.5413 -1.8353  0.3608
  287MOL0     H38692   8.806   0.911   0.284  0.5651  0.0304  1.4998
  287MOL0     H38693   8.958   0.941   0.201  0.9118 -2.1505 -2.9369
  287MOL0     H38694   8.918   0.718   0.304  1.1736  1.1393 -0.6338
  287MOL0     H38695   8.803   0.683   0.178 -0.5979  0.4594 -1.9893
  287MOL0     H38696   8.958   0.719  -0.100  1.5811  1.0207 -1.0177
  287MOL0     H38697   9.248   0.507  -0.165  0.2560 -0.4164  0.8481
  287MOL0     H38698   9.104   0.584  -0.227  1.1519 -0.8146  0.1332
  287MOL0     H38699   9.274   0.698  -0.327  1.3508  0.6007 -0.7606
  287MOL0     H38700   9.251   0.802  -0.186  2.5021  0.3269  0.3243
  287MOL0     H38701   9.468   0.577  -0.192 -3.2166 -1.4369  3.1985
  287MOL0     H38702   9.453   0.717  -0.080  0.5782 -3.3058  1.4605
  287MOL0     H38703   9.495   0.739  -0.381 -1.9098  1.4682 -0.1875
  287MOL0     H38704   9.623   0.762  -0.262 -0.2466 -0.3314  1.1643
  287MOL0     H38705   9.643   1.036  -0.096 -1.5635 -0.4283 -0.1086
  287MOL0     H38706   9.851   1.141  -0.161  1.4341 -2.7719  0.2450
  287MOL0     H38707  10.145   1.249  -0.543 -1.8890 -1.6957 -0.7407
  287MOL0     H38708  10.330   1.423  -0.630  1.2107  2.5814 -1.1592
  287MOL0     H38709  10.236   1.640  -0.946  1.6222  0.1251 -0.7227
  287MOL0     H38710  10.189   1.784  -0.844 -3.0064 -1.7352 -0.0382
  287MOL0     H38711  10.405   1.819  -0.991  2.1715 -3.3763 -1.8683
  287MOL0     H38712  10.415   1.851  -0.820  0.0404  2.6030 -3.9615
  287MOL0     H38713  10.538   1.604  -0.809  0.8697 -0.6524 -0.6705
  287MOL0     H38714  10.505   1.587  -0.971 -0.2827 -0.8176  0.8646
  287MOL0     H38715  10.688   1.785  -0.846  1.5664 -0.7897  0.7396
  287MOL0     H38716  10.631   1.796  -1.013 -0.6578  0.0697 -0.3176
  287MOL0     H38717  10.727   1.576  -1.075  0.3947 -2.3299 -0.2376
  287MOL0     H38718  10.743   1.536  -0.904  1.5317  0.0917 -0.6283
  287MOL0     H38719  10.902   1.762  -1.019  0.6899  0.7938  1.9047
  287MOL0     H38720  10.906   1.704  -0.850 -0.3947  2.6434 -0.5772
  287MOL0     H38721  10.994   1.480  -0.942 -1.2188 -1.0534 -2.3538
  287MOL0     H38722  11.100   1.605  -0.976  0.3165 -1.5188 -1.0308
  287MOL0     H38723  10.909   1.466  -1.156  1.2822 -1.1895  1.5803
  287MOL0     H38724  10.944   1.633  -1.193 -0.1894 -1.4997 -1.9633
  287MOL0     H38725  10.035   1.682  -0.733  0.8516  0.5277  0.5258
  287MOL0     H38726   9.847   1.524  -0.668  0.9391  1.4730 -0.7360
  287MOL0     H38727   9.703   1.147  -0.564  0.8445 -2.3840 -1.0162
  287MOL0     H38728   9.535   0.960  -0.510 -2.0906 -1.8826  1.6917
  287MOL0     H38729   8.169   1.291  -0.205 -0.3815 -0.7695  0.8879
  287MOL0     H38730   7.921   1.352  -0.171  1.0441 -0.9621  0.8478
  287MOL0     H38731   7.518   1.424   0.160 -0.2641  0.2136  0.0801
  287MOL0     H38732   7.313   1.541   0.211 -1.8772  0.0377 -1.8101
  287MOL0     H38733   7.230   1.906  -0.012 -1.7523 -0.2560 -0.2277
  287MOL0     H38734   7.277   1.978   0.150 -0.0158  0.9588 -2.4395
  287MOL0     H38735   7.042   2.022   0.123 -0.5260 -0.1563  2.7568
  287MOL0     H38736   7.050   1.871   0.224 -0.3965  0.1512  0.0227
  287MOL0     H38737   7.022   1.851  -0.079 -1.4929 -0.4532 -1.0979
  287MOL0     H38738   6.891   1.893   0.034 -0.7811 -0.4942 -0.3319
  287MOL0     H38739   7.068   1.635   0.036 -0.8357 -2.3020  1.0387
  287MOL0     H38740   6.960   1.679   0.155  2.1862  0.9099  0.6629
  287MOL0     H38741   6.744   1.524  -0.174  0.0196  0.9973 -1.0302
  287MOL0     H38742   7.457   1.892   0.024 -0.0031 -0.6182 -0.2139
  287MOL0     H38743   7.646   1.895  -0.101 -0.1979 -0.2479 -0.7892
  287MOL0     H38744   7.779   1.834   0.006 -0.3015  2.0691 -1.7308
  287MOL0     H38745   7.732   1.751  -0.143  0.1390  0.6495 -0.7822
  288MOL0     O38746   0.599  10.726   3.744 -0.2800 -0.6591 -0.8180
  288MOL0     C38747   0.541  10.839   3.748 -0.2843  0.9339 -0.2218
  288MOL0     O38748   0.604  10.951   3.731 -0.1079 -0.1457  0.0934
  288MOL0     C38749   0.741  10.946   3.736 -0.0314 -0.4798 -0.6097
  288MOL0     C38750   0.822  10.879   3.832  0.3724 -0.1303  0.3575
  288MOL0     C38751   0.957  10.886   3.837  0.0010 -0.4452 -0.1101
  288MOL0     C38752   1.029  10.957   3.748 -0.2686  0.0829  0.2487
  288MOL0     O38753   1.168  10.965   3.745 -0.4751  0.0391 -0.0916
  288MOL0     C38754   1.229  10.839   3.732 -0.5847  0.5396 -0.5251
  288MOL0     C38755   1.373  10.860   3.668  0.7069  0.5851 -0.3957
  288MOL0     C38756   1.481  10.927   3.751  0.2349  0.3422 -0.2254
  288MOL0     C38757   1.618  10.918   3.681  0.0894 -0.7272  0.5925
  288MOL0     C38758   1.730  10.962   3.774 -0.1680 -0.2757  1.0529
  288MOL0     C38759   1.740  11.120   3.783 -0.6187 -0.3960 -0.1067
  288MOL0     C38760   1.836  11.173   3.895 -0.3113 -0.2187  0.0462
  288MOL0     C38761   1.980  11.149   3.856 -0.2655  0.2166 -0.0652
  288MOL0     N38762   2.077  11.223   3.937  0.1428  0.1975  0.2151
  288MOL0     C38763   2.091  11.228   4.080  0.4025 -1.0864 -0.1060
  288MOL0     C38764   2.204  11.302   4.103 -0.0617  0.5150  0.5584
  288MOL0     C38765   2.245  11.330   4.243  0.0418 -0.2225 -0.0159
  288MOL0     C38766   2.299  11.472   4.245 -0.4810 -0.2662 -0.2763
  288MOL0     C38767   2.307  11.539   4.379 -0.3676 -0.4223 -0.4610
  288MOL0     C38768   2.351  11.684   4.369 -0.1854  0.0297  0.1895
  288MOL0     O38769   2.384  11.730   4.508  0.0628 -0.0791  1.0712
  288MOL0     C38770   2.500  11.717   4.562 -1.0213 -0.3487 -0.2106
  288MOL0     C38771   2.604  11.635   4.514  0.4227 -0.7722 -0.0141
  288MOL0     C38772   2.717  11.609   4.594 -0.4529  0.5674 -0.2838
  288MOL0     C38773   2.745  11.680   4.713  0.4574  0.5026  0.0394
  288MOL0     C38774   2.866  11.651   4.798  0.4023  0.5851 -0.1250
  288MOL0     O38775   2.968  11.581   4.741  0.6749 -0.4882  0.3046
  288MOL0     C38776   3.044  11.511   4.816 -0.7682  0.0815 -0.4875
  288MOL0     C38777   3.006  11.448   4.935  0.3189 -0.3855 -0.7838
  288MOL0     C38778   3.097  11.367   5.005  0.3549 -0.3016 -1.7712
  288MOL0     C38779   3.221  11.337   4.955 -0.2266 -0.2760  0.7846
  288MOL0     O38780   3.298  11.230   4.997  0.0240  0.5223 -0.0240
  288MOL0     C38781   3.312  11.216   5.138 -0.3313  0.2495  0.5248
  288MOL0     C38782   3.417  11.111   5.175  0.0186 -0.2215 -0.3568
  288MOL0     C38783   3.559  11.147   5.144 -0.1224 -0.2479  0.9824
  288MOL0     C38784   3.664  11.092   5.243  0.5305 -1.3753  0.4097
  288MOL0     C38785   3.802  11.124   5.192  0.5643 -0.5008 -0.0848
  288MOL0     C38786   3.903  11.052   5.286 -0.5681  0.2559 -0.3412
  288MOL0     C38787   4.039  11.048   5.223 -0.1319  0.1345 -0.0960
  288MOL0     C38788   4.127  10.958   5.312 -0.1481  0.6259  0.6531
  288MOL0    Cl38789   4.297  10.983   5.262  0.1665 -0.1374 -0.1680
  288MOL0     C38790   3.263  11.405   4.836  0.5117  0.1793 -0.4989
  288MOL0     C38791   3.174  11.480   4.769 -0.0999 -0.1673  0.4009
  288MOL0     O38792   2.867  11.695   4.914 -0.0008  0.6193 -0.4459
  288MOL0     C38793   2.641  11.774   4.755 -0.5027  0.3608  0.1665
  288MOL0     C38794   2.520  11.792   4.673 -0.4300  0.0907  0.4645
  288MOL0     N38795   2.259  11.325   3.978  0.1434  0.7035  0.7335
  288MOL0     N38796   2.189  11.277   3.880 -0.3945 -0.4746 -0.0213
  288MOL0     C38797   0.953  11.028   3.649 -0.1853  0.0645  0.4645
  288MOL0     C38798   0.815  11.026   3.643  1.0908  0.2888 -0.5142
  288MOL0     C38799   0.389  10.830   3.770 -0.0013 -0.3735  0.3132
  288MOL0     C38800   0.339  10.709   3.824 -0.1665 -0.3942 -0.6455
  288MOL0     C38801   0.204  10.687   3.848 -0.1760 -0.1879  0.0706
  288MOL0     C38802   0.108  10.793   3.816 -0.5057  0.5457 -0.2395
  288MOL0     O38803  -0.025  10.794   3.817  0.7444  0.3232  0.1859
  288MOL0     C38804  -0.094  10.671   3.830 -0.1739  0.8932  0.2222
  288MOL0     C38805  -0.232  10.669   3.774 -0.1660 -0.3041 -0.3309
  288MOL0     C38806  -0.345  10.597   3.854 -0.8049  0.2093  0.5582
  288MOL0     C38807  -0.368  10.652   3.989 -0.2786 -0.2286 -0.0793
  288MOL0     C38808  -0.406  10.793   4.003  1.1212  0.1044  0.8598
  288MOL0     C38809  -0.430  10.911   4.007  0.1368 -0.3915 -0.5546
  288MOL0     C38810   0.157  10.914   3.765  0.1981  0.1110 -0.1578
  288MOL0     C38811   0.297  10.938   3.749  0.6144 -0.3983  0.2281
  288MOL0     C38812   0.341  11.085   3.718  0.0720 -0.6378  0.0594
  288MOL0     H38813   0.776  10.811   3.904 -1.7783 -1.8487 -2.4551
  288MOL0     H38814   1.013  10.822   3.905 -1.4048 -0.5480  1.0110
  288MOL0     H38815   1.238  10.786   3.827  1.1514  1.5149 -0.0943
  288MOL0     H38816   1.169  10.774   3.667 -0.5058 -0.0364 -0.0308
  288MOL0     H38817   1.359  10.917   3.576 -1.3373  0.5470 -0.1594
  288MOL0     H38818   1.403  10.759   3.638  1.0455  0.4363  0.4032
  288MOL0     H38819   1.502  10.877   3.846 -0.2885 -3.3341 -1.8852
  288MOL0     H38820   1.457  11.033   3.763  1.3235  0.4372  1.5958
  288MOL0     H38821   1.627  10.816   3.645  1.0564  0.3215 -2.4096
  288MOL0     H38822   1.610  10.982   3.593 -0.8935 -2.1320 -0.3761
  288MOL0     H38823   1.723  10.919   3.874  1.8606  0.2315  1.4425
  288MOL0     H38824   1.822  10.920   3.733 -0.8693  0.9287 -2.0922
  288MOL0     H38825   1.785  11.148   3.688 -1.0203  1.2895  0.1533
  288MOL0     H38826   1.638  11.158   3.780 -0.9776 -1.4228 -1.3801
  288MOL0     H38827   1.824  11.119   3.990 -1.3402  0.0493  0.0752
  288MOL0     H38828   1.822  11.280   3.914 -0.6818 -0.5063  1.5737
  288MOL0     H38829   2.006  11.043   3.865  0.8408  0.6299  2.3638
  288MOL0     H38830   1.999  11.176   3.752 -0.3989 -2.3407 -0.8075
  288MOL0     H38831   2.016  11.183   4.145 -0.1257  1.0783  0.8729
  288MOL0     H38832   2.154  11.326   4.305 -1.0626  2.4311 -1.3500
  288MOL0     H38833   2.317  11.252   4.272  1.5495  0.1029 -2.6036
  288MOL0     H38834   2.406  11.468   4.221 -0.6637  2.4219 -1.9232
  288MOL0     H38835   2.260  11.530   4.162  3.5460  0.6647 -1.7799
  288MOL0     H38836   2.370  11.496   4.456 -0.4775  2.7478  1.6089
  288MOL0     H38837   2.207  11.523   4.420 -1.1273  0.7179 -1.7526
  288MOL0     H38838   2.261  11.738   4.338 -0.6496  1.3396  3.4016
  288MOL0     H38839   2.436  11.709   4.305  1.2615 -2.5189  0.9986
  288MOL0     H38840   2.588  11.558   4.438  1.2852 -1.4441  0.4632
  288MOL0     H38841   2.780  11.528   4.559 -3.8634 -4.3620  3.6564
  288MOL0     H38842   2.909  11.478   4.975  2.4817  3.4278  2.3162
  288MOL0     H38843   3.068  11.307   5.090  3.2796 -1.3001 -1.3551
  288MOL0     H38844   3.345  11.311   5.181  0.7864 -0.5654  1.5348
  288MOL0     H38845   3.217  11.187   5.183 -0.6082  0.2048 -0.0759
  288MOL0     H38846   3.403  11.096   5.282 -1.3085  5.4317  0.5968
  288MOL0     H38847   3.393  11.014   5.129  0.7986 -1.2680  1.3663
  288MOL0     H38848   3.589  11.124   5.041  0.3647  0.0414  1.0580
  288MOL0     H38849   3.566  11.255   5.154 -2.9389  0.0863  0.2650
  288MOL0     H38850   3.644  10.984   5.248 -0.1668 -1.3321 -0.9530
  288MOL0     H38851   3.651  11.137   5.342 -0.1356 -0.4042 -0.1063
  288MOL0     H38852   3.825  11.231   5.195 -1.1386 -0.1098 -0.1865
  288MOL0     H38853   3.801  11.087   5.089  0.1675  0.3324 -0.3835
  288MOL0     H38854   3.918  11.111   5.377 -3.0605 -3.1195  2.5233
  288MOL0     H38855   3.878  10.949   5.313 -1.0880  0.4030 -0.2580
  288MOL0     H38856   4.083  11.146   5.205 -2.2133  0.8200 -1.9507
  288MOL0     H38857   4.027  11.010   5.121  1.9951 -1.0566  0.0442
  288MOL0     H38858   4.126  10.986   5.418  2.0661 -1.0725  1.1997
  288MOL0     H38859   4.096  10.854   5.305  2.0980 -0.1848  1.6604
  288MOL0     H38860   3.359  11.379   4.791 -0.3681 -2.3511 -1.0973
  288MOL0     H38861   3.195  11.521   4.670 -1.5751 -2.2152 -0.8443
  288MOL0     H38862   2.641  11.830   4.848 -2.4022 -2.0352  1.7453
  288MOL0     H38863   2.452  11.868   4.710 -1.3857 -0.9068  0.8169
  288MOL0     H38864   0.998  11.084   3.567  2.3563 -1.3841  0.7743
  288MOL0     H38865   0.749  11.081   3.576  0.2279 -2.4204 -2.0305
  288MOL0     H38866   0.405  10.626   3.846  0.4214  0.2899  0.2286
  288MOL0     H38867   0.169  10.598   3.900 -0.9381 -1.4465 -2.4211
  288MOL0     H38868  -0.091  10.632   3.932  0.5631 -0.5202 -0.3066
  288MOL0     H38869  -0.043  10.597   3.767 -0.0005  0.2410  1.1178
  288MOL0     H38870  -0.235  10.624   3.674  1.1953  0.8056 -0.9084
  288MOL0     H38871  -0.265  10.773   3.761 -3.2331 -0.2910  4.7499
  288MOL0     H38872  -0.319  10.491   3.860 -0.3020 -0.0013 -2.8939
  288MOL0     H38873  -0.436  10.602   3.794  0.1339 -0.2433 -0.9606
  288MOL0     H38874  -0.437  10.588   4.045  0.3125 -0.6966  0.1316
  288MOL0     H38875  -0.273  10.634   4.040 -0.2959 -1.3954 -0.4261
  288MOL0     H38876  -0.446  11.016   3.993  0.0655 -0.3503 -0.1602
  288MOL0     H38877   0.090  10.998   3.752  0.4836  0.1277 -1.8409
  288MOL0     H38878   0.264  11.160   3.693  1.3218 -0.4969 -4.0730
  288MOL0     H38879   0.396  11.112   3.808 -0.5814  1.1095 -0.0143
  288MOL0     H38880   0.405  11.081   3.629 -1.2713  3.8553 -1.3899
  289MOL0     O38881   3.698   9.751   4.104  0.2130 -0.6834 -0.5692
  289MOL0     C38882   3.716   9.800   3.994  0.2491  0.0556  0.1515
  289MOL0     O38883   3.840   9.808   3.934 -0.9019  0.7518  0.8525
  289MOL0     C38884   3.934   9.706   3.959  0.3130  0.6283 -0.6153
  289MOL0     C38885   4.058   9.739   4.030  1.0957 -0.0219 -0.6301
  289MOL0     C38886   4.154   9.637   4.037 -0.7656 -0.6907  0.0544
  289MOL0     C38887   4.132   9.519   3.966  0.0499 -0.2606 -0.4871
  289MOL0     O38888   4.236   9.427   3.972  0.7903 -0.6317 -0.6777
  289MOL0     C38889   4.232   9.326   3.873 -0.7800  0.4381 -0.2201
  289MOL0     C38890   4.368   9.259   3.861  0.1057 -0.2415 -0.2710
  289MOL0     C38891   4.350   9.113   3.881  0.0193  0.5385 -0.1007
  289MOL0     C38892   4.299   9.063   4.017 -0.6921 -0.0767  0.3057
  289MOL0     C38893   4.327   8.915   4.042 -0.4266  0.1359 -0.1442
  289MOL0     C38894   4.276   8.835   3.935 -0.3005 -0.0950  0.1038
  289MOL0     C38895   4.263   8.683   3.972 -0.0635 -0.6058 -0.1511
  289MOL0     C38896   4.399   8.618   4.013  0.3422 -0.1191  0.0362
  289MOL0     N38897   4.509   8.625   3.905  0.4054  0.7344 -0.4639
  289MOL0     C38898   4.528   8.544   3.800 -0.5846 -0.3286 -0.2537
  289MOL0     C38899   4.643   8.589   3.749  0.0319  0.0637  0.3667
  289MOL0     C38900   4.709   8.537   3.624  0.6514 -0.2795 -0.9549
  289MOL0     C38901   4.641   8.575   3.491  0.6180  0.2731 -0.5063
  289MOL0     C38902   4.586   8.477   3.394 -0.3445 -0.0043 -0.6050
  289MOL0     C38903   4.546   8.340   3.454 -0.1914  0.5328 -0.5004
  289MOL0     O38904   4.431   8.358   3.539 -0.6720  0.4613 -0.4149
  289MOL0     C38905   4.384   8.251   3.618  0.4631 -0.3653 -0.3418
  289MOL0     C38906   4.283   8.281   3.718 -0.4216 -0.1707  0.1592
  289MOL0     C38907   4.239   8.181   3.803 -0.4665  0.3945 -0.0803
  289MOL0     C38908   4.287   8.051   3.803 -0.5624 -0.9539 -0.7915
  289MOL0     C38909   4.246   7.947   3.898  0.0433 -0.2708 -0.5778
  289MOL0     O38910   4.307   7.824   3.892  0.2999 -0.8651 -0.2379
  289MOL0     C38911   4.262   7.734   3.986  0.1547 -0.5491 -0.4543
  289MOL0     C38912   4.347   7.660   4.072  0.6936 -0.8139 -0.4642
  289MOL0     C38913   4.299   7.552   4.154 -0.8186  0.1256  0.2888
  289MOL0     C38914   4.163   7.522   4.163 -0.3756 -0.3904 -0.1685
  289MOL0     O38915   4.124   7.425   4.250  0.4056 -0.2100 -0.7170
  289MOL0     C38916   3.985   7.405   4.277  0.2633 -1.0707 -0.7454
  289MOL0     C38917   3.924   7.282   4.227  0.1239  0.6475  0.2981
  289MOL0     C38918   3.780   7.252   4.270  0.9129  1.2710 -0.9580
  289MOL0     C38919   3.676   7.321   4.192  0.1803 -0.6560  0.2361
  289MOL0     C38920   3.548   7.248   4.216 -1.4712  0.5585  0.0122
  289MOL0     C38921   3.509   7.246   4.372 -0.8230  0.2059  0.7806
  289MOL0     C38922   3.384   7.168   4.391  0.0459  0.1995 -0.0497
  289MOL0     C38923   3.286   7.227   4.494  0.5893 -1.0620 -1.2949
  289MOL0    Cl38924   3.252   7.407   4.475 -0.3943  0.3347  0.2107
  289MOL0     C38925   4.074   7.598   4.073  0.1610 -0.2666 -0.2978
  289MOL0     C38926   4.127   7.698   3.987  0.4980 -0.2644  0.5671
  289MOL0     O38927   4.147   7.979   3.961  0.2469  0.4209 -1.1092
  289MOL0     C38928   4.390   8.023   3.709  0.6451  0.0707  0.1454
  289MOL0     C38929   4.439   8.122   3.631 -0.2241  0.0874 -0.0365
  289MOL0     N38930   4.692   8.689   3.822 -0.0833 -0.5632  0.3445
  289MOL0     N38931   4.611   8.709   3.919 -0.2158 -0.1212 -0.1313
  289MOL0     C38932   4.013   9.500   3.895  0.6165  0.4973  0.3332
  289MOL0     C38933   3.910   9.592   3.895  0.2964 -0.1123 -0.1831
  289MOL0     C38934   3.598   9.869   3.931  0.7461 -1.4964  0.1811
  289MOL0     C38935   3.629   9.958   3.819  0.4058 -0.4878  0.5484
  289MOL0     C38936   3.535  10.026   3.739  0.3796 -1.0623  0.4559
  289MOL0     C38937   3.396  10.005   3.772 -0.5063  0.1130  0.0375
  289MOL0     O38938   3.308  10.061   3.687  0.1567 -0.6377  0.2219
  289MOL0     C38939   3.189   9.992   3.662 -1.4779  0.0378  0.4722
  289MOL0     C38940   3.069  10.037   3.736 -0.7260 -0.1007 -0.4656
  289MOL0     C38941   2.949   9.956   3.687 -0.7109  0.3940  0.4157
  289MOL0     C38942   2.832  10.028   3.758  0.2507 -0.2946 -0.8951
  289MOL0     C38943   2.704   9.963   3.730 -0.1184 -0.2503 -0.0691
  289MOL0     C38944   2.590   9.919   3.717  0.4599 -0.2368 -0.2644
  289MOL0     C38945   3.364   9.946   3.896  0.6111 -0.0827 -0.4277
  289MOL0     C38946   3.463   9.876   3.975  0.7441 -0.3377 -0.5358
  289MOL0     C38947   3.419   9.822   4.112 -0.0931 -0.4788 -0.0559
  289MOL0     H38948   4.069   9.837   4.076 -1.1376  1.6224 -3.2857
  289MOL0     H38949   4.254   9.652   4.076  0.6572 -0.2385 -3.3928
  289MOL0     H38950   4.146   9.274   3.917 -0.6845  1.5024  1.2835
  289MOL0     H38951   4.200   9.369   3.778 -1.9368  3.2124  1.3082
  289MOL0     H38952   4.436   9.299   3.937  0.0032  1.4024 -0.9863
  289MOL0     H38953   4.396   9.273   3.757 -1.7280 -3.1085 -1.2779
  289MOL0     H38954   4.449   9.069   3.868  1.5577  3.7143 -0.3036
  289MOL0     H38955   4.284   9.073   3.804 -0.1410  2.7704 -1.2158
  289MOL0     H38956   4.341   9.129   4.093 -2.5548  1.6243 -0.0642
  289MOL0     H38957   4.192   9.080   4.029 -0.9547 -2.3519  1.7467
  289MOL0     H38958   4.434   8.895   4.049 -0.0375  1.4977 -1.8036
  289MOL0     H38959   4.278   8.879   4.134 -0.7387 -4.1063 -1.7421
  289MOL0     H38960   4.184   8.883   3.898 -1.1276 -1.3928  0.4115
  289MOL0     H38961   4.341   8.830   3.847 -0.9662 -4.4922 -0.3561
  289MOL0     H38962   4.226   8.615   3.896 -0.2851 -1.5063  0.7438
  289MOL0     H38963   4.199   8.675   4.061  1.2112  0.8670  0.9603
  289MOL0     H38964   4.424   8.670   4.106 -0.5192 -1.7458  1.2126
  289MOL0     H38965   4.387   8.515   4.046  0.3923  0.3488  1.6034
  289MOL0     H38966   4.456   8.478   3.751  0.5943 -0.7623 -1.4803
  289MOL0     H38967   4.811   8.578   3.625  0.8113  0.0255  4.6644
  289MOL0     H38968   4.709   8.429   3.639 -2.4229 -0.0667  1.5527
  289MOL0     H38969   4.551   8.632   3.515  0.2579  0.0917 -1.3740
  289MOL0     H38970   4.710   8.642   3.439  1.0957  1.2677  1.3086
  289MOL0     H38971   4.668   8.471   3.321  0.5750  1.5368  0.2465
  289MOL0     H38972   4.506   8.524   3.336 -1.4035 -2.5829 -1.3987
  289MOL0     H38973   4.621   8.290   3.516 -0.0752  1.2004 -0.0899
  289MOL0     H38974   4.525   8.265   3.378 -0.2792  1.0960 -1.0423
  289MOL0     H38975   4.235   8.377   3.708  1.3013  0.7577  0.5299
  289MOL0     H38976   4.164   8.192   3.880  0.7976 -1.8782  1.6134
  289MOL0     H38977   4.451   7.690   4.076  0.8500 -1.4581  1.3956
  289MOL0     H38978   4.373   7.515   4.224 -0.5063 -0.8891 -0.5430
  289MOL0     H38979   3.975   7.391   4.385 -3.1798  0.1020 -0.7723
  289MOL0     H38980   3.922   7.493   4.258  0.1768 -1.2982 -1.5516
  289MOL0     H38981   3.920   7.298   4.119 -4.0678 -0.2678  0.1256
  289MOL0     H38982   3.992   7.199   4.249 -1.1278 -0.2455  0.9667
  289MOL0     H38983   3.768   7.143   4.263 -1.0634  1.1138  2.6140
  289MOL0     H38984   3.772   7.275   4.377  0.1759  2.4816 -1.2514
  289MOL0     H38985   3.698   7.305   4.086  0.3156 -1.9294  0.4367
  289MOL0     H38986   3.672   7.429   4.205  2.4200 -0.7461  2.4863
  289MOL0     H38987   3.560   7.145   4.181  0.8020 -0.3357  3.0094
  289MOL0     H38988   3.468   7.297   4.160 -1.1839  0.7457 -0.2340
  289MOL0     H38989   3.588   7.207   4.436  0.6271  1.5172 -0.1397
  289MOL0     H38990   3.499   7.352   4.398 -1.2059  0.2846  0.3433
  289MOL0     H38991   3.400   7.062   4.416  4.2592  0.8433  0.6546
  289MOL0     H38992   3.333   7.166   4.294  0.2834  1.3065 -0.2039
  289MOL0     H38993   3.187   7.182   4.479 -0.2508  0.6363 -1.1229
  289MOL0     H38994   3.317   7.207   4.597 -2.0792  1.2433  0.1252
  289MOL0     H38995   3.967   7.581   4.058  0.1906  0.3736 -1.3436
  289MOL0     H38996   4.060   7.752   3.921  1.1464  1.6661  1.4358
  289MOL0     H38997   4.443   7.929   3.719  0.7428 -0.3111 -2.9467
  289MOL0     H38998   4.532   8.102   3.578 -0.1026 -0.6736  0.4532
  289MOL0     H38999   3.998   9.416   3.829 -3.3946  0.3875  1.0960
  289MOL0     H39000   3.813   9.576   3.850 -0.4467 -1.0510  1.6800
  289MOL0     H39001   3.729   9.985   3.784 -0.0502 -0.0965 -0.4763
  289MOL0     H39002   3.560  10.073   3.644 -1.1787 -0.9139  0.0940
  289MOL0     H39003   3.210   9.885   3.667  0.0227  0.3682  2.5458
  289MOL0     H39004   3.178  10.019   3.557  1.4776  1.5570  0.4613
  289MOL0     H39005   3.063  10.145   3.718 -0.0316 -0.2935 -2.0163
  289MOL0     H39006   3.074  10.025   3.844 -3.9411 -0.0016 -0.1986
  289MOL0     H39007   2.952   9.851   3.717 -0.9667  0.0408 -0.7663
  289MOL0     H39008   2.940   9.956   3.578 -0.4085  1.1480  0.3803
  289MOL0     H39009   2.835  10.022   3.867 -0.9655 -1.6948 -0.9053
  289MOL0     H39010   2.831  10.134   3.729 -2.5174 -0.2815 -1.0301
  289MOL0     H39011   2.496   9.870   3.706  0.3217  0.1683 -0.9490
  289MOL0     H39012   3.260   9.940   3.926  0.5795  1.0435 -0.2371
  289MOL0     H39013   3.318   9.856   4.138 -0.3770 -0.4783 -1.1069
  289MOL0     H39014   3.418   9.713   4.106  1.2945 -0.4655 -1.1013
  289MOL0     H39015   3.490   9.843   4.193 -2.1892  0.0662  1.7128
  290MOL0     O39016   0.301   3.717   9.677 -0.1000  0.3130 -0.1767
  290MOL0     C39017   0.262   3.815   9.742  0.4309  0.0324 -0.2378
  290MOL0     O39018   0.347   3.916   9.788  0.6499  0.1114  0.0970
  290MOL0     C39019   0.472   3.883   9.814 -0.4177 -0.8241  0.6998
  290MOL0     C39020   0.576   3.946   9.745 -0.0116 -1.1127  0.0879
  290MOL0     C39021   0.706   3.902   9.771 -0.5473 -0.0428 -0.0730
  290MOL0     C39022   0.735   3.798   9.863  0.4134  0.4599 -0.9012
  290MOL0     O39023   0.866   3.749   9.886  0.7869 -0.2424 -0.5000
  290MOL0     C39024   0.963   3.766   9.780  0.7200 -0.3993 -0.7715
  290MOL0     C39025   1.079   3.685   9.812 -0.3551 -0.3258  0.7519
  290MOL0     C39026   1.194   3.716   9.720  0.4337  0.5970 -0.5904
  290MOL0     C39027   1.318   3.791   9.785  0.1677  0.6632 -0.6119
  290MOL0     C39028   1.416   3.823   9.673  0.1840  0.1741 -0.5840
  290MOL0     C39029   1.527   3.920   9.713  0.0718 -0.1260  0.3264
  290MOL0     C39030   1.619   3.972   9.598  0.8644 -0.4611  0.3165
  290MOL0     C39031   1.536   4.061   9.503 -0.6245 -0.0890  0.4564
  290MOL0     N39032   1.620   4.111   9.395 -0.2589 -0.1917  0.0100
  290MOL0     C39033   1.688   4.233   9.390  0.1255 -0.6738  1.1646
  290MOL0     C39034   1.707   4.253   9.264 -0.2132 -0.4032  0.7016
  290MOL0     C39035   1.790   4.360   9.205  0.8484  0.2431 -0.1408
  290MOL0     C39036   1.932   4.330   9.237  0.1144 -0.1847  0.3648
  290MOL0     C39037   2.037   4.431   9.192 -0.4121  0.2364 -0.4105
  290MOL0     C39038   2.084   4.401   9.047  0.1168  0.2615  0.3782
  290MOL0     O39039   2.161   4.277   9.053  0.1334  0.4964  0.3152
  290MOL0     C39040   2.294   4.296   9.013  0.0830  0.5290 -0.0090
  290MOL0     C39041   2.348   4.219   8.905 -0.2816 -0.3216 -0.9233
  290MOL0     C39042   2.486   4.218   8.877  0.0186  0.5572  0.3180
  290MOL0     C39043   2.569   4.298   8.948 -0.0685 -0.1936  0.2120
  290MOL0     C39044   2.711   4.318   8.911 -0.7038  0.8188 -0.5377
  290MOL0     O39045   2.776   4.213   8.851  0.4410  0.4610  0.4151
  290MOL0     C39046   2.902   4.222   8.819 -1.2783  0.1783  0.7498
  290MOL0     C39047   3.006   4.224   8.909 -0.5029  0.7220 -0.2040
  290MOL0     C39048   3.136   4.212   8.859 -0.7637 -1.0197 -0.0526
  290MOL0     C39049   3.168   4.218   8.725  0.5329  0.4844  0.0465
  290MOL0     O39050   3.298   4.200   8.666 -0.2168 -0.1584  0.5668
  290MOL0     C39051   3.417   4.169   8.741 -0.4939 -0.6531 -0.5720
  290MOL0     C39052   3.536   4.193   8.651 -0.6238 -0.2729  0.2809
  290MOL0     C39053   3.560   4.076   8.552 -0.1746  0.0466  0.4536
  290MOL0     C39054   3.685   4.100   8.462 -0.4725 -0.7635 -0.2074
  290MOL0     C39055   3.668   4.196   8.337  0.2683  0.4105 -0.0476
  290MOL0     C39056   3.801   4.278   8.307 -0.5284  1.1314  0.7951
  290MOL0     C39057   3.851   4.359   8.426  0.1650  0.1909 -0.0096
  290MOL0     C39058   3.929   4.487   8.389 -0.0538 -0.2600  1.0754
  290MOL0    Cl39059   3.810   4.617   8.350  0.3284  0.3411  0.2069
  290MOL0     C39060   3.063   4.223   8.634  0.2988 -0.0840  0.3655
  290MOL0     C39061   2.925   4.224   8.678 -0.4303 -0.2969  0.0938
  290MOL0     O39062   2.770   4.421   8.950 -0.1447  0.3071 -0.6706
  290MOL0     C39063   2.511   4.376   9.046  0.0757 -1.1472  0.0557
  290MOL0     C39064   2.381   4.376   9.087 -0.1345  0.0012 -0.2370
  290MOL0     N39065   1.638   4.154   9.191 -0.3677 -0.0103  0.4686
  290MOL0     N39066   1.596   4.068   9.271  0.1712  0.1724  0.1542
  290MOL0     C39067   0.628   3.731   9.922  0.8453  0.5034 -0.6016
  290MOL0     C39068   0.492   3.777   9.902 -1.6413  0.5167 -0.4292
  290MOL0     C39069   0.117   3.831   9.747 -0.4187 -0.1498  0.7563
  290MOL0     C39070   0.054   3.919   9.838 -0.0472  0.0682 -0.4936
  290MOL0     C39071  -0.082   3.945   9.850  0.6552 -0.0404  1.1670
  290MOL0     C39072  -0.173   3.875   9.766  1.0337  0.4184  0.1927
  290MOL0     O39073  -0.306   3.901   9.779 -0.2157 -0.1730  0.7630
  290MOL0     C39074  -0.396   3.793   9.750  0.3100 -0.2272 -0.2367
  290MOL0     C39075  -0.534   3.829   9.796 -0.1469 -0.1697 -0.2929
  290MOL0     C39076  -0.541   3.849   9.947 -0.3327 -0.1835  0.1045
  290MOL0     C39077  -0.662   3.931   9.991 -0.4486  0.0993  0.0940
  290MOL0     C39078  -0.783   3.861   9.956 -1.2390  0.2639 -0.2675
  290MOL0     C39079  -0.885   3.798   9.925  0.0193 -1.1165  0.0341
  290MOL0     C39080  -0.114   3.786   9.669 -0.2931 -0.0641 -1.0175
  290MOL0     C39081   0.027   3.765   9.654  0.3519 -0.1935 -1.1095
  290MOL0     C39082   0.066   3.686   9.543  0.0535 -0.0555  0.5689
  290MOL0     H39083   0.562   4.036   9.686  1.5525  0.8703  2.5274
  290MOL0     H39084   0.792   3.955   9.729  0.3539 -0.6938  0.9063
  290MOL0     H39085   0.910   3.736   9.689 -0.9869 -1.9135  0.6450
  290MOL0     H39086   0.989   3.872   9.780 -0.5573  0.1905  4.6244
  290MOL0     H39087   1.049   3.582   9.797  1.2779 -0.8305  0.7030
  290MOL0     H39088   1.115   3.712   9.912 -0.9606  0.6982  0.7114
  290MOL0     H39089   1.160   3.784   9.641  0.6280  1.3351 -0.0382
  290MOL0     H39090   1.235   3.623   9.678  4.1147  2.3828 -1.3483
  290MOL0     H39091   1.276   3.882   9.830 -2.4584 -1.0145  0.6252
  290MOL0     H39092   1.363   3.737   9.868 -1.9419  1.6440  1.2738
  290MOL0     H39093   1.455   3.729   9.633 -1.2465 -1.0767  0.7987
  290MOL0     H39094   1.359   3.877   9.596 -1.6106 -0.1742  0.4497
  290MOL0     H39095   1.486   4.012   9.756  0.3321  0.9991 -1.6737
  290MOL0     H39096   1.595   3.865   9.778  1.2129  0.7239 -0.0997
  290MOL0     H39097   1.660   3.890   9.539  0.8938  0.5557 -1.1225
  290MOL0     H39098   1.700   4.034   9.637 -2.1499  1.2637  4.6655
  290MOL0     H39099   1.458   4.003   9.453 -0.0703 -2.5553  2.2776
  290MOL0     H39100   1.492   4.144   9.559  0.1465 -0.3870  1.5113
  290MOL0     H39101   1.729   4.281   9.478  0.6733  2.4237 -0.6358
  290MOL0     H39102   1.769   4.358   9.098  0.1402 -1.6962 -0.0121
  290MOL0     H39103   1.763   4.459   9.243 -1.5458  0.8330 -2.9639
  290MOL0     H39104   1.937   4.331   9.346 -0.5384  3.0241  0.4575
  290MOL0     H39105   1.945   4.228   9.200 -2.6030 -0.8455  1.0633
  290MOL0     H39106   2.124   4.415   9.255 -0.7141 -1.5475 -0.4144
  290MOL0     H39107   1.981   4.524   9.205 -1.5531 -0.6559  1.4984
  290MOL0     H39108   2.136   4.484   8.999  1.3774 -3.0609 -4.8671
  290MOL0     H39109   1.998   4.382   8.983  1.3104 -1.8602 -0.7010
  290MOL0     H39110   2.276   4.156   8.852 -0.6445 -0.7279  0.0309
  290MOL0     H39111   2.535   4.158   8.802 -0.2357  0.7916 -0.0347
  290MOL0     H39112   3.004   4.217   9.018 -2.7813  0.2222 -0.2235
  290MOL0     H39113   3.219   4.206   8.930 -2.5840  0.0027  2.2958
  290MOL0     H39114   3.418   4.228   8.833 -2.0672 -0.4019 -0.6874
  290MOL0     H39115   3.422   4.067   8.781  1.2377 -0.8048 -1.1087
  290MOL0     H39116   3.525   4.276   8.581  1.5335  0.1488  0.3638
  290MOL0     H39117   3.630   4.206   8.706  0.1593  0.2449 -1.1189
  290MOL0     H39118   3.565   3.974   8.589 -2.1596 -0.8426 -1.5103
  290MOL0     H39119   3.473   4.077   8.485 -0.7964 -3.1198  1.0774
  290MOL0     H39120   3.706   4.004   8.414 -0.3284  0.0153 -1.7625
  290MOL0     H39121   3.772   4.135   8.518  1.2412  1.6515 -3.9737
  290MOL0     H39122   3.587   4.269   8.353 -1.4080 -0.7195 -2.7465
  290MOL0     H39123   3.644   4.142   8.245  1.0083  0.3962 -0.2354
  290MOL0     H39124   3.880   4.204   8.290  0.7800  2.7046 -0.2294
  290MOL0     H39125   3.785   4.345   8.222  0.2224  1.4431  0.8856
  290MOL0     H39126   3.912   4.301   8.495  1.2653  1.0544 -0.2205
  290MOL0     H39127   3.758   4.386   8.478  0.6179  2.1773 -0.1275
  290MOL0     H39128   3.998   4.505   8.472 -1.2004  1.2176  1.7515
  290MOL0     H39129   3.988   4.469   8.298 -0.1906  0.2037  0.8918
  290MOL0     H39130   3.094   4.226   8.531 -0.7862 -4.1512 -0.2497
  290MOL0     H39131   2.832   4.240   8.624 -2.1367  0.7935  3.1015
  290MOL0     H39132   2.581   4.445   9.094 -0.1095 -0.7891 -0.1832
  290MOL0     H39133   2.353   4.439   9.171 -1.9975 -2.6923  1.3040
  290MOL0     H39134   0.647   3.645   9.986 -0.1493  0.1804 -0.7247
  290MOL0     H39135   0.411   3.725   9.953 -0.0810  0.5684  2.3061
  290MOL0     H39136   0.123   3.965   9.908  0.4078  1.1018 -1.6075
  290MOL0     H39137  -0.136   4.018   9.910 -0.9710 -1.4517  1.5050
  290MOL0     H39138  -0.370   3.709   9.814 -1.2381  0.2601  1.0847
  290MOL0     H39139  -0.402   3.780   9.641 -0.2386 -1.2139 -0.0885
  290MOL0     H39140  -0.604   3.750   9.765 -2.7031  1.6513  0.4953
  290MOL0     H39141  -0.567   3.922   9.749 -0.2545  0.3294  0.7671
  290MOL0     H39142  -0.448   3.892   9.985 -1.4178  1.5531  0.9282
  290MOL0     H39143  -0.545   3.756  10.004 -0.0022  1.2849  2.6549
  290MOL0     H39144  -0.660   3.965  10.095  0.0621  0.1002  0.0898
  290MOL0     H39145  -0.673   4.028   9.941  2.7186  0.1471 -0.7396
  290MOL0     H39146  -0.973   3.742   9.903 -1.4638 -0.3040  3.3707
  290MOL0     H39147  -0.187   3.730   9.613 -1.6594 -0.9035  1.4478
  290MOL0     H39148  -0.025   3.665   9.487  0.6949  1.0292 -0.9403
  290MOL0     H39149   0.131   3.745   9.477 -2.4818  0.6520 -1.4552
  290MOL0     H39150   0.102   3.586   9.570 -0.0676  0.1020  1.3451
  291MOL0     O39151   6.030   6.564   4.851  1.2629 -0.2021 -0.0713
  291MOL0     C39152   5.966   6.664   4.889 -0.6007 -0.1913 -0.7474
  291MOL0     O39153   6.028   6.782   4.938  0.3844  0.2443 -0.4294
  291MOL0     C39154   6.165   6.800   4.922  0.1719 -0.0599 -0.7660
  291MOL0     C39155   6.219   6.802   4.794 -0.0999  0.0368  1.2430
  291MOL0     C39156   6.357   6.814   4.779 -0.5941  0.3325  1.0194
  291MOL0     C39157   6.446   6.814   4.889  0.0768 -0.1355  0.0376
  291MOL0     O39158   6.578   6.831   4.861 -0.3616  0.1012  0.7321
  291MOL0     C39159   6.669   6.778   4.944 -0.2823  0.2559 -0.5792
  291MOL0     C39160   6.819   6.813   4.900 -0.3611  0.6838 -0.2758
  291MOL0     C39161   6.853   6.784   4.752 -0.1285  0.6195 -0.4880
  291MOL0     C39162   6.971   6.863   4.700 -0.4701 -0.6616  0.8880
  291MOL0     C39163   7.054   6.795   4.595  0.0466 -0.6414 -0.0421
  291MOL0     C39164   7.197   6.857   4.594 -0.2512 -0.8178  0.5430
  291MOL0     C39165   7.276   6.795   4.481 -0.2268  0.2081  0.2045
  291MOL0     C39166   7.413   6.869   4.444 -1.0642 -0.0957 -0.1735
  291MOL0     N39167   7.506   6.889   4.559  0.2903  0.7309  0.0290
  291MOL0     C39168   7.565   6.789   4.633 -0.7217 -0.3185  0.0385
  291MOL0     C39169   7.659   6.850   4.702  0.1427  0.0753 -0.9197
  291MOL0     C39170   7.744   6.781   4.803  0.3669 -1.0704  0.1017
  291MOL0     C39171   7.880   6.864   4.816  0.7569  0.8623  0.0696
  291MOL0     C39172   7.983   6.777   4.899 -0.8911  0.5132 -0.4487
  291MOL0     C39173   8.117   6.847   4.917 -0.2376 -1.7153 -0.2492
  291MOL0     O39174   8.211   6.765   4.995  0.1806  0.8354 -0.1234
  291MOL0     C39175   8.306   6.823   5.072  1.0445 -0.3921  0.8163
  291MOL0     C39176   8.380   6.749   5.163 -0.3254  0.9359 -0.0357
  291MOL0     C39177   8.486   6.808   5.243 -0.2423  0.4666  0.4674
  291MOL0     C39178   8.516   6.946   5.235  0.3447 -0.1733  0.0507
  291MOL0     C39179   8.614   7.012   5.316 -0.0861 -0.2308  0.2394
  291MOL0     O39180   8.642   6.959   5.439 -0.4021 -0.1849 -0.4508
  291MOL0     C39181   8.734   7.012   5.521 -0.3203  0.2253 -0.2887
  291MOL0     C39182   8.715   7.131   5.587  0.0360 -0.5274 -1.3395
  291MOL0     C39183   8.816   7.169   5.678  0.3357  0.0479 -0.4144
  291MOL0     C39184   8.930   7.095   5.710  0.4030 -0.3237  0.5414
  291MOL0     O39185   9.028   7.133   5.795 -0.3461 -0.0830 -0.5645
  291MOL0     C39186   9.036   7.268   5.854  0.4751  0.0114  0.3289
  291MOL0     C39187   9.156   7.266   5.947  0.7050  0.6930 -0.2983
  291MOL0     C39188   9.174   7.391   6.032  0.4187  0.3207  0.2645
  291MOL0     C39189   9.288   7.392   6.137 -0.5437  0.4091 -0.3321
  291MOL0     C39190   9.288   7.516   6.238 -0.4336  0.1845  0.1302
  291MOL0     C39191   9.432   7.516   6.301 -0.2912  0.0103 -0.0593
  291MOL0     C39192   9.450   7.643   6.385 -0.3243  0.4528 -0.7346
  291MOL0     C39193   9.598   7.663   6.428  0.6353 -0.4373  0.7802
  291MOL0    Cl39194   9.651   7.534   6.547 -0.0208  0.1581  0.4621
  291MOL0     C39195   8.945   6.976   5.636 -0.4440 -1.3429 -0.0256
  291MOL0     C39196   8.846   6.937   5.549 -0.1594 -0.0639 -0.6468
  291MOL0     O39197   8.685   7.098   5.270  0.3727 -0.1022 -0.2885
  291MOL0     C39198   8.445   7.026   5.144  0.9514 -0.1873  1.5951
  291MOL0     C39199   8.342   6.967   5.060  0.3137  0.4260 -0.8284
  291MOL0     N39200   7.655   6.988   4.675 -0.1894 -0.4703  0.6446
  291MOL0     N39201   7.561   7.009   4.590 -0.5102  0.2359 -0.2717
  291MOL0     C39202   6.388   6.789   5.013  0.9120  0.3567 -0.3293
  291MOL0     C39203   6.253   6.788   5.038 -0.6746  0.3265 -0.2914
  291MOL0     C39204   5.822   6.657   4.903 -0.4669 -0.0449  0.4519
  291MOL0     C39205   5.759   6.731   5.006  0.7127 -0.2648  0.6891
  291MOL0     C39206   5.619   6.722   5.029 -0.1152  0.3579 -0.8158
  291MOL0     C39207   5.544   6.625   4.960 -0.8461 -0.5841  0.2754
  291MOL0     O39208   5.411   6.600   4.996 -0.8956  0.4139 -0.5275
  291MOL0     C39209   5.329   6.711   5.042 -0.2159 -0.5596 -0.6102
  291MOL0     C39210   5.186   6.659   5.056  0.0638  0.0450 -0.8367
  291MOL0     C39211   5.135   6.605   4.921  1.0420  0.8845  0.2128
  291MOL0     C39212   4.980   6.590   4.926 -0.1204  1.4822  0.3254
  291MOL0     C39213   4.928   6.476   5.010 -0.4055 -0.3689  0.4708
  291MOL0     C39214   4.878   6.389   5.084 -0.6811 -0.7327  0.6803
  291MOL0     C39215   5.606   6.551   4.860  0.0931 -0.5493 -0.8415
  291MOL0     C39216   5.742   6.570   4.825 -0.2947 -0.4992 -0.6680
  291MOL0     C39217   5.784   6.497   4.704 -0.0273 -0.5740 -0.8197
  291MOL0     H39218   6.154   6.784   4.709  0.1229 -1.0620  1.2903
  291MOL0     H39219   6.402   6.834   4.682  2.5546  0.2478  2.3374
  291MOL0     H39220   6.666   6.822   5.044 -1.8468 -1.0085 -0.0381
  291MOL0     H39221   6.653   6.670   4.945 -2.9517  0.5684  1.9371
  291MOL0     H39222   6.881   6.747   4.962  3.2985  3.3088 -0.8299
  291MOL0     H39223   6.830   6.918   4.928 -4.1831  0.7803  1.4421
  291MOL0     H39224   6.768   6.813   4.689 -0.1709  0.6496 -0.4164
  291MOL0     H39225   6.874   6.677   4.738  0.1125  0.5613  0.2810
  291MOL0     H39226   6.942   6.961   4.661  1.9569 -0.0307  0.5017
  291MOL0     H39227   7.037   6.890   4.783  0.5984  0.3336 -0.2519
  291MOL0     H39228   7.059   6.686   4.609 -0.4972 -0.8599 -1.4779
  291MOL0     H39229   6.991   6.807   4.507 -0.1301 -0.9164  0.0442
  291MOL0     H39230   7.192   6.966   4.580  2.3923 -0.4656  1.7997
  291MOL0     H39231   7.249   6.839   4.688 -1.4972  0.1492  1.4532
  291MOL0     H39232   7.215   6.781   4.392 -0.9491 -2.2662  1.0127
  291MOL0     H39233   7.309   6.696   4.514  2.6532  0.8767 -0.3513
  291MOL0     H39234   7.461   6.808   4.366  0.8148 -0.1977  1.0191
  291MOL0     H39235   7.393   6.967   4.400 -1.0241  0.7269  1.5821
  291MOL0     H39236   7.538   6.684   4.632  3.3161 -1.5641 -1.5126
  291MOL0     H39237   7.695   6.777   4.901 -0.5685 -4.1093 -0.3784
  291MOL0     H39238   7.762   6.676   4.776 -1.2206 -1.0454 -1.1742
  291MOL0     H39239   7.923   6.889   4.719  1.5813 -1.8191 -0.3577
  291MOL0     H39240   7.862   6.960   4.865 -2.8901  0.6893 -0.6644
  291MOL0     H39241   8.005   6.681   4.853  0.0840  0.3152  0.3870
  291MOL0     H39242   7.951   6.756   5.002 -0.9630  2.5634 -0.0159
  291MOL0     H39243   8.097   6.944   4.964  2.5051 -1.0965 -0.1919
  291MOL0     H39244   8.160   6.867   4.818  1.6618 -0.3669  0.7883
  291MOL0     H39245   8.358   6.643   5.164  1.3970  0.5061 -1.9339
  291MOL0     H39246   8.535   6.744   5.316  1.8102 -1.1143 -2.0897
  291MOL0     H39247   8.638   7.201   5.558  0.8619  1.0324  0.0586
  291MOL0     H39248   8.803   7.265   5.728 -0.7478  0.9163 -2.2742
  291MOL0     H39249   9.040   7.355   5.788 -1.8340 -0.6918 -0.8287
  291MOL0     H39250   8.938   7.283   5.899 -0.7294 -5.0948  0.0157
  291MOL0     H39251   9.142   7.181   6.014 -0.5954  0.4410 -0.8568
  291MOL0     H39252   9.247   7.253   5.888  0.4425  0.3021 -0.6211
  291MOL0     H39253   9.181   7.474   5.961  0.3151  0.3287  0.2625
  291MOL0     H39254   9.079   7.401   6.085  0.2099  3.2339 -0.5302
  291MOL0     H39255   9.382   7.393   6.081 -1.2393 -1.2527 -1.5963
  291MOL0     H39256   9.287   7.301   6.198  3.2133  0.6824  0.4051
  291MOL0     H39257   9.211   7.506   6.315 -0.4811 -2.5112 -0.1597
  291MOL0     H39258   9.265   7.606   6.180 -2.5655 -0.7928 -0.6563
  291MOL0     H39259   9.441   7.423   6.357 -0.1649  0.6210  0.9485
  291MOL0     H39260   9.505   7.517   6.220 -1.4864  1.9846 -1.2101
  291MOL0     H39261   9.384   7.635   6.472 -0.2860  0.6087 -0.6912
  291MOL0     H39262   9.419   7.735   6.335  3.7984  0.0439 -4.6930
  291MOL0     H39263   9.672   7.650   6.348  1.6864 -0.6682  1.7499
  291MOL0     H39264   9.603   7.770   6.451 -1.1648 -0.4502  1.3543
  291MOL0     H39265   9.036   6.918   5.652  0.5612 -0.2614 -1.5250
  291MOL0     H39266   8.847   6.842   5.495 -3.3722 -1.9276  2.1540
  291MOL0     H39267   8.462   7.132   5.131 -2.3533  0.1701 -1.3556
  291MOL0     H39268   8.290   7.039   4.997 -1.2544  1.3068  1.3567
  291MOL0     H39269   6.451   6.775   5.100  1.5633  1.8585 -0.5198
  291MOL0     H39270   6.218   6.775   5.140  2.0080 -0.1181  0.6442
  291MOL0     H39271   5.816   6.800   5.067 -1.3334  1.5609  0.6672
  291MOL0     H39272   5.584   6.790   5.106 -0.1349 -1.3950  0.8059
  291MOL0     H39273   5.335   6.803   4.984 -0.6707  1.3491  2.1906
  291MOL0     H39274   5.354   6.740   5.144 -1.0459  2.0331 -1.0708
  291MOL0     H39275   5.124   6.740   5.096 -0.4347 -0.3958 -0.7123
  291MOL0     H39276   5.182   6.576   5.126  1.0323  1.6717  1.2648
  291MOL0     H39277   5.177   6.505   4.905 -1.6759 -1.0017  3.4571
  291MOL0     H39278   5.159   6.665   4.833  1.8831 -0.1180 -0.2702
  291MOL0     H39279   4.926   6.682   4.950 -3.0520  0.6908 -2.5397
  291MOL0     H39280   4.950   6.577   4.821 -1.9398  1.4289  0.8078
  291MOL0     H39281   4.830   6.321   5.151 -2.3741  0.0158  0.2691
  291MOL0     H39282   5.541   6.496   4.793  1.8688 -0.9134 -2.3720
  291MOL0     H39283   5.701   6.457   4.644 -1.6585  0.4790  0.6235
  291MOL0     H39284   5.846   6.562   4.642  0.9314 -0.6255  0.0702
  291MOL0     H39285   5.841   6.410   4.737 -0.4026 -0.7184 -0.5497
  292MOL0     O39286   6.060   1.221   8.434  0.3810  0.0171 -0.1790
  292MOL0     C39287   6.012   1.105   8.426  0.9349 -0.2793  0.4986
  292MOL0     O39288   6.073   0.981   8.404  0.3584 -0.0725  0.1799
  292MOL0     C39289   6.204   0.967   8.373 -0.5180  1.2283 -0.6303
  292MOL0     C39290   6.274   1.070   8.296 -0.2673  0.3366 -0.4040
  292MOL0     C39291   6.412   1.058   8.279 -0.3871 -0.2649  0.3895
  292MOL0     C39292   6.486   0.955   8.326 -0.4428  0.5541 -1.1414
  292MOL0     O39293   6.618   0.934   8.291  0.4444 -0.6212  0.1862
  292MOL0     C39294   6.720   1.018   8.353  0.4020  0.5458  0.0665
  292MOL0     C39295   6.855   0.958   8.323 -0.2163 -0.0733 -0.4818
  292MOL0     C39296   6.971   1.050   8.372  0.0204  0.3912  0.2311
  292MOL0     C39297   7.096   0.980   8.325 -1.0511  0.2191 -1.1871
  292MOL0     C39298   7.226   1.056   8.353 -0.6305 -0.3447 -0.5966
  292MOL0     C39299   7.354   0.994   8.296 -0.3666  0.2896  1.0541
  292MOL0     C39300   7.478   1.023   8.371 -0.0449  0.0120 -0.0997
  292MOL0     C39301   7.496   0.959   8.514  0.4006 -0.4050  0.1808
  292MOL0     N39302   7.630   0.969   8.571  1.1999  0.0464 -0.7107
  292MOL0     C39303   7.734   0.877   8.558 -0.1959 -0.1047 -0.6163
  292MOL0     C39304   7.850   0.943   8.575  0.4870 -0.1621 -0.4255
  292MOL0     C39305   7.989   0.896   8.602  0.5766 -0.0048  0.6008
  292MOL0     C39306   8.095   0.966   8.506  0.6311 -0.4386 -0.1549
  292MOL0     C39307   8.239   0.926   8.533 -0.4378  0.2443 -0.4384
  292MOL0     C39308   8.298   1.013   8.642 -0.2674  0.5637  0.8059
  292MOL0     O39309   8.418   0.955   8.691 -0.9216  0.4273 -0.3028
  292MOL0     C39310   8.532   1.020   8.656 -0.7302  0.1737 -0.6172
  292MOL0     C39311   8.569   1.044   8.526 -0.4139 -1.0388  0.6284
  292MOL0     C39312   8.680   1.117   8.498  0.4783  0.1682 -0.1330
  292MOL0     C39313   8.773   1.157   8.601  0.3170 -0.5491  0.1470
  292MOL0     C39314   8.881   1.245   8.568  0.6745  0.7925  0.1194
  292MOL0     O39315   8.898   1.269   8.433  0.1722  0.4408  0.6873
  292MOL0     C39316   9.008   1.330   8.389  0.0936 -0.4014  0.4633
  292MOL0     C39317   8.995   1.429   8.288  0.7310  0.6184  0.1145
  292MOL0     C39318   9.104   1.506   8.246  1.0312 -0.1350 -0.5877
  292MOL0     C39319   9.234   1.488   8.295 -0.0180 -0.0166 -0.0919
  292MOL0     O39320   9.343   1.558   8.260  0.0420  1.0566 -0.3869
  292MOL0     C39321   9.316   1.699   8.271 -0.2215  0.0406 -0.2559
  292MOL0     C39322   9.374   1.736   8.409  0.3511  0.3524 -0.1644
  292MOL0     C39323   9.394   1.885   8.416  0.5099 -0.1845 -0.1863
  292MOL0     C39324   9.275   1.971   8.371 -0.2127  0.6720 -0.4030
  292MOL0     C39325   9.327   2.115   8.360 -0.4469  0.5694 -0.3031
  292MOL0     C39326   9.434   2.143   8.255 -0.4536  0.4194  0.8526
  292MOL0     C39327   9.468   2.293   8.228 -0.3353  0.0709 -0.3134
  292MOL0     C39328   9.570   2.333   8.333  1.1076 -0.3705 -0.4020
  292MOL0    Cl39329   9.734   2.258   8.305  0.4963  0.0234  0.3426
  292MOL0     C39330   9.244   1.381   8.379 -0.2617  0.4169  0.1429
  292MOL0     C39331   9.138   1.308   8.427  0.9106  0.4961 -1.3922
  292MOL0     O39332   8.952   1.284   8.659  0.7477 -0.4730 -0.3374
  292MOL0     C39333   8.746   1.114   8.731 -0.1635 -0.4597  0.5405
  292MOL0     C39334   8.622   1.048   8.760  0.7702 -0.5869 -0.4163
  292MOL0     N39335   7.819   1.078   8.586 -0.2919  0.3669  0.5789
  292MOL0     N39336   7.687   1.089   8.596  0.2694 -0.3776  0.0347
  292MOL0     C39337   6.424   0.849   8.391 -0.5641  0.0291  0.0996
  292MOL0     C39338   6.290   0.856   8.413  0.3875  0.1577 -1.2874
  292MOL0     C39339   5.865   1.098   8.466  0.0896 -0.2690  0.3774
  292MOL0     C39340   5.791   1.216   8.455  0.7573  0.0732 -0.3555
  292MOL0     C39341   5.655   1.220   8.484  0.3220  0.3626  0.4633
  292MOL0     C39342   5.586   1.102   8.528 -0.8665 -0.2267  0.3577
  292MOL0     O39343   5.456   1.087   8.557 -0.4868  0.1277 -0.3006
  292MOL0     C39344   5.354   1.169   8.499 -0.3992 -0.6326 -0.4964
  292MOL0     C39345   5.220   1.090   8.496 -0.4092  1.1031 -0.1412
  292MOL0     C39346   5.113   1.154   8.405 -0.3259  0.2192  0.2752
  292MOL0     C39347   5.058   1.290   8.450  0.4661 -0.1124 -0.0736
  292MOL0     C39348   4.965   1.341   8.351  0.2547 -0.0206  0.2298
  292MOL0     C39349   4.887   1.386   8.265  0.6202 -0.5233  0.5861
  292MOL0     C39350   5.655   0.982   8.538  0.4388  0.8467  0.2684
  292MOL0     C39351   5.795   0.977   8.509 -0.2643 -0.2490  0.5866
  292MOL0     C39352   5.850   0.834   8.521 -0.1130  0.4072  0.5165
  292MOL0     H39353   6.208   1.143   8.250 -1.4637 -2.5676 -3.7819
  292MOL0     H39354   6.465   1.132   8.220 -0.6986 -0.2480  0.1333
  292MOL0     H39355   6.725   1.120   8.312  4.0388  0.1000 -0.9290
  292MOL0     H39356   6.705   1.015   8.461 -0.1908 -3.4004  0.0095
  292MOL0     H39357   6.877   0.952   8.216  0.6308  0.5286 -0.3595
  292MOL0     H39358   6.862   0.860   8.372  1.8929  0.0182 -0.5028
  292MOL0     H39359   6.970   1.061   8.481 -0.3365  4.9068 -0.0387
  292MOL0     H39360   6.964   1.154   8.338  3.2340  0.2647 -1.2114
  292MOL0     H39361   7.100   0.890   8.387  0.1296  2.5810  2.4786
  292MOL0     H39362   7.114   0.966   8.218  1.3831  0.7714 -0.9067
  292MOL0     H39363   7.215   1.161   8.324  3.3678  0.8709  1.5020
  292MOL0     H39364   7.237   1.060   8.462  0.7357  0.2949 -0.7358
  292MOL0     H39365   7.354   0.885   8.303  1.2860  0.1639 -0.4918
  292MOL0     H39366   7.373   1.028   8.194  0.5361 -3.1197 -0.0434
  292MOL0     H39367   7.512   1.127   8.375  3.9364 -1.0129 -2.3629
  292MOL0     H39368   7.557   0.983   8.307  0.0305 -0.2258  0.1371
  292MOL0     H39369   7.429   1.018   8.577  0.4160  1.3509 -1.3546
  292MOL0     H39370   7.471   0.853   8.504  1.6039 -0.7405  0.5734
  292MOL0     H39371   7.713   0.770   8.553 -1.0368  0.0855 -1.3467
  292MOL0     H39372   8.014   0.926   8.705 -1.7360 -0.7424  1.4331
  292MOL0     H39373   7.989   0.787   8.592  0.5539 -0.3084  3.1134
  292MOL0     H39374   8.073   0.927   8.406  1.9664 -1.4926 -0.0641
  292MOL0     H39375   8.094   1.075   8.517  1.1728 -0.3307 -1.0724
  292MOL0     H39376   8.292   0.918   8.438  0.9406 -1.8325  0.4548
  292MOL0     H39377   8.239   0.827   8.579  2.0494  1.2193  1.9563
  292MOL0     H39378   8.221   1.012   8.720 -3.3578  2.6983 -1.9456
  292MOL0     H39379   8.306   1.118   8.613 -2.8235  0.0788 -2.1490
  292MOL0     H39380   8.508   1.004   8.445 -1.6114  2.5306 -0.3956
  292MOL0     H39381   8.696   1.134   8.392 -0.4367  2.3034  0.0147
  292MOL0     H39382   8.897   1.442   8.242 -0.6156  0.7362  2.8195
  292MOL0     H39383   9.092   1.573   8.162  3.3910  1.9224  0.5694
  292MOL0     H39384   9.357   1.763   8.192 -0.4939  1.6102  0.8234
  292MOL0     H39385   9.211   1.725   8.259  0.1312  1.9116  0.2976
  292MOL0     H39386   9.309   1.710   8.494  1.2432 -1.4153  0.0038
  292MOL0     H39387   9.479   1.707   8.420  0.4102  0.7825  0.4634
  292MOL0     H39388   9.421   1.910   8.519  3.4403  0.5298 -1.0370
  292MOL0     H39389   9.489   1.913   8.370  0.4695  0.3673  0.0562
  292MOL0     H39390   9.198   1.970   8.448  2.1891  1.5733  2.1769
  292MOL0     H39391   9.229   1.943   8.275 -1.4010 -0.6667  0.5229
  292MOL0     H39392   9.371   2.144   8.456 -0.2323 -2.5400  0.6436
  292MOL0     H39393   9.232   2.163   8.333 -0.3321 -0.1293 -2.0682
  292MOL0     H39394   9.527   2.102   8.294  1.9440  1.4726 -3.1435
  292MOL0     H39395   9.416   2.083   8.165  0.1870  1.3022  0.1297
  292MOL0     H39396   9.384   2.362   8.242 -0.6724  0.1472 -2.4238
  292MOL0     H39397   9.491   2.300   8.121  0.5956 -1.2685 -0.2121
  292MOL0     H39398   9.569   2.442   8.340 -2.4126 -0.3618  0.5572
  292MOL0     H39399   9.539   2.296   8.431 -0.8762 -0.1762 -0.9271
  292MOL0     H39400   9.344   1.346   8.404 -1.0933 -1.7452  0.6383
  292MOL0     H39401   9.170   1.243   8.508 -0.8782  1.6959  0.3858
  292MOL0     H39402   8.821   1.145   8.804  1.1330 -0.2199 -0.8517
  292MOL0     H39403   8.567   1.015   8.848 -3.6766 -0.4356 -2.8727
  292MOL0     H39404   6.476   0.758   8.416 -1.6540 -2.1562 -4.5044
  292MOL0     H39405   6.248   0.776   8.472  0.3536  0.6518 -0.6360
  292MOL0     H39406   5.832   1.313   8.431  2.7910 -0.5962  0.1893
  292MOL0     H39407   5.598   1.311   8.490 -2.6454 -1.1157 -2.5708
  292MOL0     H39408   5.382   1.218   8.405 -0.2267 -1.1277 -0.7085
  292MOL0     H39409   5.345   1.258   8.561  0.0779 -0.8913 -0.0464
  292MOL0     H39410   5.176   1.085   8.595  0.7228 -0.8417  0.3234
  292MOL0     H39411   5.246   0.989   8.460  1.2914  2.0187 -1.6633
  292MOL0     H39412   5.033   1.086   8.373 -0.1874  1.0819 -2.1667
  292MOL0     H39413   5.152   1.167   8.303 -1.8188 -5.1427 -1.3056
  292MOL0     H39414   5.005   1.276   8.545  0.2160 -1.8051 -0.4306
  292MOL0     H39415   5.136   1.366   8.463  0.5216  0.0491 -1.2723
  292MOL0     H39416   4.825   1.430   8.189  0.7338 -0.0271  0.7762
  292MOL0     H39417   5.603   0.892   8.567  1.4721 -0.2834 -1.2334
  292MOL0     H39418   5.902   0.805   8.430 -3.0140 -0.5926 -0.9218
  292MOL0     H39419   5.909   0.814   8.612 -0.4764  1.1968  0.9390
  292MOL0     H39420   5.769   0.761   8.518 -1.4340  1.8463 -0.2598
  293MOL0     O39421  10.517   7.019   5.713 -0.2258 -0.5526 -1.0701
  293MOL0     C39422  10.497   6.959   5.607 -0.7269  0.7296  0.0281
  293MOL0     O39423  10.573   6.984   5.495  0.3986  0.4838  0.3036
  293MOL0     C39424  10.675   7.072   5.500 -0.2793 -0.0816  0.9796
  293MOL0     C39425  10.811   7.037   5.524  0.3148 -0.5559 -0.1945
  293MOL0     C39426  10.908   7.138   5.537 -0.0479 -0.1850  0.5355
  293MOL0     C39427  10.885   7.272   5.524  0.8486  0.0777 -0.1994
  293MOL0     O39428  10.969   7.377   5.509 -0.0494 -0.7992 -0.3159
  293MOL0     C39429  11.108   7.359   5.541 -0.2849  0.0978 -0.0445
  293MOL0     C39430  11.184   7.486   5.571 -0.6743  0.1874  0.5935
  293MOL0     C39431  11.337   7.477   5.600 -0.4100 -0.6866 -0.0939
  293MOL0     C39432  11.357   7.391   5.735  0.2878 -0.0626  0.2717
  293MOL0     C39433  11.499   7.353   5.755  0.2561 -0.4494  0.4068
  293MOL0     C39434  11.586   7.473   5.799  0.3659 -0.3658  0.0999
  293MOL0     C39435  11.569   7.498   5.948 -0.5358 -0.1554 -0.1839
  293MOL0     C39436  11.660   7.420   6.042  0.3108 -0.5299  0.0395
  293MOL0     N39437  11.799   7.447   6.005 -0.3588  0.0855 -0.0951
  293MOL0     C39438  11.863   7.565   6.009  0.4316  0.6599 -0.7136
  293MOL0     C39439  11.977   7.529   5.948  1.0646  0.1834  0.1448
  293MOL0     C39440  12.079   7.629   5.932 -0.5263 -0.7151  0.3982
  293MOL0     C39441  12.148   7.677   6.058  0.2568  0.3827  0.5213
  293MOL0     C39442  12.244   7.792   6.025  0.2879  0.5165  0.3057
  293MOL0     C39443  12.294   7.862   6.146 -0.1943 -0.2396 -0.2121
  293MOL0     O39444  12.318   7.773   6.257 -0.3922  0.0347 -0.3562
  293MOL0     C39445  12.420   7.802   6.354 -0.1127  0.0891  0.1213
  293MOL0     C39446  12.480   7.927   6.388 -0.4999  0.1571  0.9545
  293MOL0     C39447  12.575   7.941   6.487  0.1042  1.4599  0.3004
  293MOL0     C39448  12.623   7.833   6.559  1.0533  0.1148 -0.5174
  293MOL0     C39449  12.726   7.853   6.665  0.0979  0.6047  0.0337
  293MOL0     O39450  12.746   7.756   6.760  0.3442 -0.2601 -0.3246
  293MOL0     C39451  12.846   7.775   6.843  0.1560 -0.0848 -0.3456
  293MOL0     C39452  12.985   7.775   6.799  0.5030 -0.5622 -0.2097
  293MOL0     C39453  13.090   7.805   6.897 -0.0536 -0.2081 -0.3562
  293MOL0     C39454  13.054   7.835   7.026 -0.3273 -0.8223 -0.9509
  293MOL0     O39455  13.155   7.846   7.116 -0.8770  0.4401 -0.0609
  293MOL0     C39456  13.149   7.774   7.241 -0.5091 -0.3320 -0.4193
  293MOL0     C39457  13.159   7.620   7.233 -0.6924  0.1527  0.3669
  293MOL0     C39458  13.298   7.567   7.227 -0.7784  0.6910  0.0384
  293MOL0     C39459  13.288   7.419   7.183 -0.2155 -0.4447 -0.2651
  293MOL0     C39460  13.429   7.364   7.184 -0.5142 -0.2417  0.7599
  293MOL0     C39461  13.420   7.206   7.179  0.9601 -0.3924  0.4903
  293MOL0     C39462  13.561   7.144   7.204 -0.1785 -0.0497 -0.0221
  293MOL0     C39463  13.540   7.001   7.234  0.0507  0.3830  0.2886
  293MOL0    Cl39464  13.488   6.973   7.399 -0.1223  0.0060  0.0215
  293MOL0     C39465  12.918   7.838   7.064  0.2317  0.5511  0.0592
  293MOL0     C39466  12.815   7.805   6.974 -0.2181 -0.0850  0.1141
  293MOL0     O39467  12.792   7.955   6.660  0.2751 -0.3880 -0.9057
  293MOL0     C39468  12.558   7.706   6.532 -0.4580 -0.7549 -0.0435
  293MOL0     C39469  12.466   7.693   6.429 -0.7105 -0.3519 -0.7572
  293MOL0     N39470  11.992   7.394   5.920 -0.0025  0.1072  0.2208
  293MOL0     N39471  11.872   7.353   5.947  0.5185  0.3465  0.1247
  293MOL0     C39472  10.750   7.305   5.514  0.2289 -0.4256  0.6694
  293MOL0     C39473  10.648   7.212   5.487  0.0656 -0.1134 -0.8031
  293MOL0     C39474  10.370   6.878   5.598 -0.7400  0.2712 -0.6359
  293MOL0     C39475  10.318   6.857   5.469  0.0049 -0.4831 -0.3391
  293MOL0     C39476  10.210   6.770   5.452 -0.6839 -0.1610 -0.4549
  293MOL0     C39477  10.144   6.704   5.557  0.1073  0.6587  0.3758
  293MOL0     O39478  10.043   6.613   5.528 -0.2946 -0.0525  0.3244
  293MOL0     C39479  10.005   6.521   5.630 -0.2824  0.4683 -0.1810
  293MOL0     C39480   9.930   6.398   5.552  0.0857  0.1858  0.2321
  293MOL0     C39481   9.807   6.458   5.483  0.3161  0.9023  0.0721
  293MOL0     C39482   9.719   6.347   5.437  0.9403  0.2550 -0.3930
  293MOL0     C39483   9.629   6.405   5.339  0.5988 -0.4679  0.1845
  293MOL0     C39484   9.547   6.447   5.259 -0.2024 -1.4127  0.7663
  293MOL0     C39485  10.194   6.730   5.683 -0.4343  0.3703 -0.0861
  293MOL0     C39486  10.305   6.819   5.708  0.7681 -0.7874 -0.3107
  293MOL0     C39487  10.347   6.840   5.848 -0.2391  0.2139 -0.1229
  293MOL0     H39488  10.835   6.932   5.538  2.5096 -0.0849 -0.0222
  293MOL0     H39489  11.010   7.102   5.545  0.1519 -0.4121 -2.1350
  293MOL0     H39490  11.111   7.281   5.619 -1.6200 -0.8396 -0.8817
  293MOL0     H39491  11.150   7.305   5.456  0.1754 -0.8143  0.7414
  293MOL0     H39492  11.137   7.547   5.649  0.1283  0.3499  0.9623
  293MOL0     H39493  11.172   7.546   5.481  2.3653  0.9005  0.5758
  293MOL0     H39494  11.377   7.578   5.608 -0.8222 -0.4707 -0.7024
  293MOL0     H39495  11.375   7.431   5.509 -0.7448  1.9555 -1.6420
  293MOL0     H39496  11.326   7.444   5.825  2.2503 -1.3983  1.8487
  293MOL0     H39497  11.303   7.296   5.732  1.3515 -0.7058  0.5721
  293MOL0     H39498  11.512   7.275   5.831  2.0580  0.9394  1.6176
  293MOL0     H39499  11.533   7.332   5.654 -0.5713 -0.1774  0.0653
  293MOL0     H39500  11.691   7.451   5.781  0.1734 -0.9176 -0.3925
  293MOL0     H39501  11.554   7.569   5.757  1.1281 -0.7033 -1.3305
  293MOL0     H39502  11.466   7.471   5.974 -1.4097  2.4218 -0.7420
  293MOL0     H39503  11.576   7.605   5.971  0.8579 -0.5595  1.5116
  293MOL0     H39504  11.631   7.454   6.142  1.5736  1.2790 -0.1498
  293MOL0     H39505  11.647   7.312   6.037  0.1954 -0.5212 -4.2624
  293MOL0     H39506  11.832   7.663   6.047  0.8903  1.0095 -1.2267
  293MOL0     H39507  12.155   7.578   5.872 -0.2923 -0.2939  0.3335
  293MOL0     H39508  12.040   7.714   5.876 -2.2482 -0.1005  2.3832
  293MOL0     H39509  12.066   7.704   6.124  1.7160  1.8837  1.8077
  293MOL0     H39510  12.211   7.600   6.104  2.8428  2.5375  0.8495
  293MOL0     H39511  12.203   7.871   5.962  2.8376  2.4490  0.9009
  293MOL0     H39512  12.326   7.739   5.977  1.8962  0.1982  3.1637
  293MOL0     H39513  12.218   7.937   6.170  0.3087  0.6231 -1.2152
  293MOL0     H39514  12.385   7.915   6.115 -0.6394  1.6147  1.4528
  293MOL0     H39515  12.447   8.019   6.342 -0.1472  0.9598  2.2420
  293MOL0     H39516  12.608   8.039   6.518  1.8848  0.3108  2.2772
  293MOL0     H39517  13.013   7.751   6.697  1.2045  1.9573 -0.6757
  293MOL0     H39518  13.194   7.803   6.867 -1.1694  1.2000 -5.1107
  293MOL0     H39519  13.240   7.795   7.296 -0.4526 -1.4623 -0.0642
  293MOL0     H39520  13.061   7.807   7.298  0.1361  1.2820 -0.3213
  293MOL0     H39521  13.112   7.580   7.324  1.0759 -3.6943 -0.2092
  293MOL0     H39522  13.100   7.584   7.148  0.2642 -0.4307 -0.0686
  293MOL0     H39523  13.352   7.627   7.153 -0.6543 -0.3360 -0.7276
  293MOL0     H39524  13.355   7.581   7.318  2.8722  0.0546 -1.9621
  293MOL0     H39525  13.239   7.408   7.086 -0.4500 -0.0260 -0.1936
  293MOL0     H39526  13.225   7.377   7.261 -0.1805  0.2846  0.1548
  293MOL0     H39527  13.476   7.390   7.279  0.4602 -0.7080  0.4186
  293MOL0     H39528  13.492   7.408   7.106 -2.9435 -1.8954 -2.3682
  293MOL0     H39529  13.350   7.166   7.254  2.3064 -0.5681  1.7027
  293MOL0     H39530  13.378   7.187   7.080 -2.2849 -1.9543  2.0020
  293MOL0     H39531  13.599   7.183   7.299 -2.8579  0.4048  0.9396
  293MOL0     H39532  13.625   7.152   7.116  0.1322  0.7590  0.2634
  293MOL0     H39533  13.471   6.960   7.159 -2.5567  2.2585  1.4898
  293MOL0     H39534  13.637   6.952   7.224  0.9056  1.9876  0.3832
  293MOL0     H39535  12.892   7.874   7.163 -0.3972 -1.1909  0.5703
  293MOL0     H39536  12.712   7.807   7.007 -0.5186  2.0240 -0.7988
  293MOL0     H39537  12.600   7.625   6.591 -1.1636 -2.3656 -1.6396
  293MOL0     H39538  12.439   7.590   6.408  0.5461 -0.6141 -1.1968
  293MOL0     H39539  10.716   7.404   5.488 -0.1659 -0.8375 -0.4539
  293MOL0     H39540  10.551   7.245   5.451 -1.1985 -2.1388  0.5502
  293MOL0     H39541  10.357   6.900   5.377 -2.0434  2.8496  0.1650
  293MOL0     H39542  10.186   6.747   5.348 -0.7848  1.0978 -0.7225
  293MOL0     H39543   9.926   6.564   5.693 -1.5080  0.3801 -1.5810
  293MOL0     H39544  10.090   6.489   5.690  0.3844  0.6945 -0.9975
  293MOL0     H39545   9.905   6.316   5.619 -0.3489 -1.0167 -1.3464
  293MOL0     H39546   9.999   6.359   5.476 -1.2319 -4.1359  0.9801
  293MOL0     H39547   9.844   6.514   5.397 -0.3293 -1.3579 -1.8015
  293MOL0     H39548   9.756   6.521   5.557  0.4975 -1.5309  2.4568
  293MOL0     H39549   9.775   6.262   5.397  0.7121 -0.0846 -0.0015
  293MOL0     H39550   9.654   6.308   5.516 -0.6378  1.6291 -0.9491
  293MOL0     H39551   9.475   6.495   5.196  0.8226  1.5998  1.6786
  293MOL0     H39552  10.141   6.685   5.766 -1.8999 -2.8043 -2.5381
  293MOL0     H39553  10.368   6.944   5.876 -0.8894  0.0689  0.9512
  293MOL0     H39554  10.268   6.813   5.918  0.5145 -2.7870 -0.3004
  293MOL0     H39555  10.437   6.779   5.863  0.3399  0.8408 -0.9215
  294MOL0     O39556   3.747   3.737   5.176  0.0186 -0.6460  0.1584
  294MOL0     C39557   3.727   3.630   5.235 -0.1635  0.5173 -0.2001
  294MOL0     O39558   3.810   3.527   5.238  0.2857  0.3974  0.2301
  294MOL0     C39559   3.940   3.539   5.207  0.3640  0.3172  0.0703
  294MOL0     C39560   4.029   3.608   5.281 -0.1932  0.4534 -0.1410
  294MOL0     C39561   4.161   3.615   5.243  0.1560  0.4036 -0.7342
  294MOL0     C39562   4.215   3.539   5.142  0.7355  0.3744 -0.7871
  294MOL0     O39563   4.354   3.541   5.116 -0.0495  0.3438 -0.6275
  294MOL0     C39564   4.434   3.505   5.234  0.5807  0.0321 -0.1329
  294MOL0     C39565   4.578   3.453   5.214 -1.2954  1.2126  0.1401
  294MOL0     C39566   4.658   3.537   5.121 -0.2480 -0.5705  0.1630
  294MOL0     C39567   4.802   3.493   5.107  0.5378  0.4283 -0.3938
  294MOL0     C39568   4.826   3.362   5.033 -0.3548  0.3688 -0.0563
  294MOL0     C39569   4.973   3.361   4.986  0.4214  0.5484 -0.2835
  294MOL0     C39570   5.052   3.243   5.025 -0.3982 -0.3020  0.2206
  294MOL0     C39571   5.080   3.238   5.177 -0.0827 -0.2335 -0.6516
  294MOL0     N39572   5.202   3.159   5.191 -0.5217 -0.2839  0.2200
  294MOL0     C39573   5.230   3.022   5.189 -0.0567 -0.0637 -0.3840
  294MOL0     C39574   5.366   3.012   5.189  0.3650 -0.8707  0.1798
  294MOL0     C39575   5.432   2.888   5.165  0.4592  0.6353 -0.4878
  294MOL0     C39576   5.404   2.779   5.262  0.2183 -0.1974 -0.3646
  294MOL0     C39577   5.476   2.804   5.400  0.0057  0.5041  0.0643
  294MOL0     C39578   5.623   2.766   5.391  0.3446  0.1598  0.3694
  294MOL0     O39579   5.672   2.747   5.521  0.0425 -0.3201  0.1532
  294MOL0     C39580   5.798   2.685   5.530  0.0315 -0.5166  0.0605
  294MOL0     C39581   5.905   2.669   5.437 -0.2512 -0.1281  0.2770
  294MOL0     C39582   6.030   2.621   5.462 -0.8436  0.2762 -0.0709
  294MOL0     C39583   6.068   2.583   5.593 -0.0075 -0.2859  0.4520
  294MOL0     C39584   6.203   2.529   5.633 -0.4538  0.1493 -0.8747
  294MOL0     O39585   6.294   2.498   5.536  0.0762  0.3099  0.5097
  294MOL0     C39586   6.409   2.436   5.577 -0.0726 -0.5456  0.7944
  294MOL0     C39587   6.422   2.300   5.605 -0.5992 -0.6047 -0.6952
  294MOL0     C39588   6.547   2.239   5.629  1.2925 -0.7771 -0.0430
  294MOL0     C39589   6.665   2.323   5.610  0.6397 -0.1954  0.0889
  294MOL0     O39590   6.785   2.269   5.622  0.1050  0.4848  0.0601
  294MOL0     C39591   6.825   2.273   5.761  0.0087  0.6582 -0.7382
  294MOL0     C39592   6.922   2.158   5.795  0.0599 -0.3577  0.5381
  294MOL0     C39593   7.062   2.183   5.733  0.5985  1.1324  1.4363
  294MOL0     C39594   7.129   2.311   5.760 -0.7800 -0.5167 -0.3545
  294MOL0     C39595   7.275   2.319   5.716 -0.1895 -0.2654 -0.2520
  294MOL0     C39596   7.340   2.464   5.741  0.0833  0.5144 -0.2866
  294MOL0     C39597   7.472   2.493   5.676 -0.4290  0.0547 -0.4146
  294MOL0     C39598   7.544   2.599   5.760 -0.3905 -0.2375  0.4852
  294MOL0    Cl39599   7.602   2.546   5.915  0.3745  0.1034 -0.1327
  294MOL0     C39600   6.647   2.460   5.581  0.3231  0.3629 -0.2442
  294MOL0     C39601   6.526   2.517   5.584  0.3639  0.8197 -0.6483
  294MOL0     O39602   6.233   2.525   5.755 -0.4125  0.4452  0.0505
  294MOL0     C39603   5.961   2.595   5.688 -0.4316 -0.2790  0.1029
  294MOL0     C39604   5.835   2.647   5.660 -0.2037  0.2736  0.0980
  294MOL0     N39605   5.420   3.140   5.197 -0.1800  0.2825  0.4602
  294MOL0     N39606   5.318   3.223   5.190 -0.2122  0.3828  1.0346
  294MOL0     C39607   4.116   3.474   5.062 -0.5011 -0.3676  0.7815
  294MOL0     C39608   3.980   3.479   5.088 -0.4144  0.9925 -0.3263
  294MOL0     C39609   3.595   3.606   5.299  0.8839  0.0510 -0.7759
  294MOL0     C39610   3.484   3.664   5.244 -0.5195 -0.0819 -0.6287
  294MOL0     C39611   3.357   3.617   5.282 -0.3094  0.5446 -0.0053
  294MOL0     C39612   3.340   3.511   5.368  0.5956 -0.1488 -0.3577
  294MOL0     O39613   3.219   3.478   5.405 -0.4559  0.4354  0.3739
  294MOL0     C39614   3.105   3.546   5.361 -0.7129 -0.1788 -0.3343
  294MOL0     C39615   2.982   3.475   5.409  0.4464  0.5431 -0.7946
  294MOL0     C39616   2.954   3.347   5.337  0.4257 -0.4722 -0.1222
  294MOL0     C39617   2.943   3.345   5.181  0.0032  0.0633 -0.3249
  294MOL0     C39618   2.852   3.450   5.120 -0.1660 -0.2539 -0.9212
  294MOL0     C39619   2.801   3.538   5.054  0.4314  0.6108  0.4503
  294MOL0     C39620   3.449   3.457   5.433 -0.0747 -0.1105 -0.2549
  294MOL0     C39621   3.575   3.514   5.405 -0.8203  0.4348  0.3617
  294MOL0     C39622   3.683   3.454   5.487 -0.3227  0.0240  0.5739
  294MOL0     H39623   3.985   3.657   5.367  0.9658  2.3167 -0.5593
  294MOL0     H39624   4.237   3.662   5.305 -0.7691  1.1445 -0.1390
  294MOL0     H39625   4.442   3.591   5.302 -1.0944  0.1296 -0.0138
  294MOL0     H39626   4.375   3.437   5.296 -0.7026  0.0211 -1.3372
  294MOL0     H39627   4.581   3.351   5.174  1.2001  1.7959 -1.3994
  294MOL0     H39628   4.628   3.460   5.311 -2.8122  1.1162  0.9556
  294MOL0     H39629   4.647   3.636   5.166  0.7414  0.2303 -1.2916
  294MOL0     H39630   4.612   3.535   5.021  2.0819 -0.8781 -0.9561
  294MOL0     H39631   4.858   3.569   5.052 -1.8577 -0.0922 -3.9435
  294MOL0     H39632   4.849   3.491   5.206 -1.6936 -1.7346  0.7308
  294MOL0     H39633   4.805   3.281   5.104  4.5682 -0.7137  0.5161
  294MOL0     H39634   4.755   3.367   4.950  0.5091  1.0110 -0.7781
  294MOL0     H39635   4.962   3.359   4.878 -1.5863 -1.1288 -0.1107
  294MOL0     H39636   5.035   3.449   5.005 -0.7777  1.5770 -1.0383
  294MOL0     H39637   5.145   3.256   4.968 -0.4121  1.6428  0.5701
  294MOL0     H39638   4.995   3.154   4.999 -2.3007  0.2643  2.1707
  294MOL0     H39639   5.111   3.339   5.205  2.8998 -1.0290 -0.7754
  294MOL0     H39640   4.993   3.202   5.233  0.0982  0.5896  0.1813
  294MOL0     H39641   5.157   2.942   5.196  0.0320 -0.0689  0.5893
  294MOL0     H39642   5.404   2.849   5.066  1.1488 -0.9651 -0.0865
  294MOL0     H39643   5.537   2.914   5.152  1.1676 -0.8705  1.7300
  294MOL0     H39644   5.296   2.773   5.275  0.3337 -0.1187  0.7514
  294MOL0     H39645   5.432   2.687   5.210  0.3397  0.7654 -2.0549
  294MOL0     H39646   5.434   2.749   5.485 -2.2251  2.8661  0.6077
  294MOL0     H39647   5.462   2.912   5.413 -0.6461  0.2498  1.8328
  294MOL0     H39648   5.679   2.841   5.334 -2.4605  0.8675 -1.6716
  294MOL0     H39649   5.624   2.678   5.326  3.0115  0.1128  0.3899
  294MOL0     H39650   5.880   2.692   5.334 -1.8589 -1.6979  0.2724
  294MOL0     H39651   6.103   2.612   5.382 -0.1092  0.2613  0.5915
  294MOL0     H39652   6.325   2.250   5.600 -3.7879  4.6080  1.0031
  294MOL0     H39653   6.565   2.134   5.647  0.0691 -0.7991  1.2237
  294MOL0     H39654   6.860   2.371   5.794 -0.6180  0.7885 -0.4409
  294MOL0     H39655   6.741   2.254   5.828 -0.3367  0.9736 -1.0757
  294MOL0     H39656   6.928   2.147   5.904  0.5518 -0.0054  0.5506
  294MOL0     H39657   6.888   2.059   5.765 -1.8962 -0.6230  3.2697
  294MOL0     H39658   7.123   2.096   5.758  4.2805  3.4507  1.4332
  294MOL0     H39659   7.049   2.181   5.625  2.3170 -0.1354  1.2158
  294MOL0     H39660   7.122   2.317   5.869 -0.6845  2.6881 -0.4556
  294MOL0     H39661   7.075   2.393   5.713 -0.2551  0.9041  1.4213
  294MOL0     H39662   7.271   2.312   5.607 -0.6649 -0.8366 -0.2006
  294MOL0     H39663   7.345   2.240   5.746  0.1231  0.3721  0.7552
  294MOL0     H39664   7.264   2.534   5.706 -2.4685 -2.8285 -2.0847
  294MOL0     H39665   7.354   2.470   5.849  3.1397  0.0030 -0.5813
  294MOL0     H39666   7.465   2.530   5.573  1.6689  0.5507 -0.4214
  294MOL0     H39667   7.532   2.402   5.677 -0.0531  0.2870  1.5910
  294MOL0     H39668   7.627   2.627   5.694  1.4496 -0.6925  2.4834
  294MOL0     H39669   7.476   2.684   5.771 -0.6744 -0.4651  0.4999
  294MOL0     H39670   6.741   2.511   5.566  1.0041 -0.0939  1.9779
  294MOL0     H39671   6.525   2.626   5.588  0.6747  0.8053  2.8978
  294MOL0     H39672   5.977   2.555   5.787  0.3075  2.3394  1.1319
  294MOL0     H39673   5.755   2.643   5.734 -0.4544 -3.4684 -0.2112
  294MOL0     H39674   4.170   3.428   4.979  0.6970  0.8095  0.8791
  294MOL0     H39675   3.912   3.422   5.026  1.2352 -1.9775  0.4006
  294MOL0     H39676   3.486   3.741   5.167  1.5350  3.2459  2.4452
  294MOL0     H39677   3.277   3.672   5.233 -0.8491  0.7028  1.0163
  294MOL0     H39678   3.108   3.551   5.252  1.7185  1.0130 -0.2971
  294MOL0     H39679   3.112   3.651   5.391  2.4015 -0.7100  1.2332
  294MOL0     H39680   2.888   3.530   5.407 -0.1218 -0.2277  1.3155
  294MOL0     H39681   2.991   3.443   5.513  0.0096  0.1087 -0.8858
  294MOL0     H39682   2.856   3.315   5.375 -0.8326  1.0267 -1.8995
  294MOL0     H39683   3.029   3.278   5.375  2.2261  0.1229 -2.3696
  294MOL0     H39684   3.043   3.338   5.138 -0.8222  0.2063 -2.3612
  294MOL0     H39685   2.891   3.257   5.143 -3.0271  2.0749 -1.1681
  294MOL0     H39686   2.760   3.619   4.997 -0.8310 -0.9507 -0.9818
  294MOL0     H39687   3.434   3.376   5.504  1.3308 -1.4093 -1.3643
  294MOL0     H39688   3.727   3.362   5.447  3.7465  1.3579  1.4235
  294MOL0     H39689   3.766   3.526   5.489 -1.6574  1.8745 -3.0398
  294MOL0     H39690   3.646   3.451   5.590 -1.6338 -0.1781  0.1133
  295MOL0     O39691   8.830   3.270   8.772  0.5409 -0.1116  0.1972
  295MOL0     C39692   8.796   3.209   8.671  0.5917 -0.0565  0.5098
  295MOL0     O39693   8.885   3.137   8.601 -0.3262 -0.3873 -0.1608
  295MOL0     C39694   9.014   3.142   8.631 -0.7401  1.2226  0.0134
  295MOL0     C39695   9.059   3.025   8.698  0.2006  0.3923 -0.0649
  295MOL0     C39696   9.186   3.009   8.751  0.5116  0.2001  1.2286
  295MOL0     C39697   9.276   3.109   8.729 -0.5464 -0.2295  0.2364
  295MOL0     O39698   9.409   3.085   8.773  0.2939  0.2649 -0.4692
  295MOL0     C39699   9.508   3.182   8.730  0.0788 -0.5681 -0.4071
  295MOL0     C39700   9.642   3.140   8.784  0.7061  0.5433  0.1030
  295MOL0     C39701   9.762   3.222   8.731 -0.3888 -0.4400  0.2789
  295MOL0     C39702   9.865   3.220   8.834  0.4012 -0.4858 -0.2127
  295MOL0     C39703  10.015   3.249   8.781 -0.8254  0.1214 -0.2850
  295MOL0     C39704  10.059   3.396   8.761  0.0048 -0.3038  0.1365
  295MOL0     C39705  10.009   3.443   8.621  0.1093  0.5740  0.3793
  295MOL0     C39706  10.065   3.577   8.568  0.2168  0.2318  0.1196
  295MOL0     N39707  10.200   3.563   8.533 -0.3792  1.1722  0.4080
  295MOL0     C39708  10.247   3.522   8.411 -0.3429 -0.7998  0.1040
  295MOL0     C39709  10.383   3.516   8.427  0.1504 -0.3229  0.2531
  295MOL0     C39710  10.482   3.500   8.314  0.2562  0.8102  0.1674
  295MOL0     C39711  10.608   3.411   8.341 -0.1934  0.0408  0.2933
  295MOL0     C39712  10.711   3.459   8.443  0.0339 -0.1369 -0.1081
  295MOL0     C39713  10.838   3.378   8.432 -0.0730 -0.4309 -0.2763
  295MOL0     O39714  10.914   3.410   8.311  0.3572  0.4526  0.7036
  295MOL0     C39715  11.037   3.346   8.300 -0.6801 -0.6773 -0.7095
  295MOL0     C39716  11.100   3.335   8.171 -0.7617  0.5966  0.3292
  295MOL0     C39717  11.230   3.280   8.157 -0.1847  0.1037  0.3864
  295MOL0     C39718  11.303   3.227   8.259  0.2349 -0.2557 -0.2668
  295MOL0     C39719  11.443   3.178   8.245  0.2172  0.5430  0.5552
  295MOL0     O39720  11.504   3.155   8.360 -0.5798 -0.1485 -0.2641
  295MOL0     C39721  11.630   3.104   8.376 -0.2843  0.1474  0.7113
  295MOL0     C39722  11.718   3.053   8.276 -0.5145  0.0676 -0.0645
  295MOL0     C39723  11.842   2.984   8.318 -0.1230  0.6319 -0.3984
  295MOL0     C39724  11.869   2.967   8.455  1.0341  0.8019 -1.1829
  295MOL0     O39725  11.976   2.906   8.503  0.1292  0.1840  0.4700
  295MOL0     C39726  11.940   2.781   8.576 -0.9309 -0.5169 -0.5036
  295MOL0     C39727  11.869   2.666   8.494 -0.7221  0.0597  0.1878
  295MOL0     C39728  11.970   2.582   8.420  0.8290  0.2898  0.5851
  295MOL0     C39729  11.908   2.470   8.327  0.6324 -0.5096  0.0152
  295MOL0     C39730  12.013   2.380   8.258  0.2268  0.3372  0.6451
  295MOL0     C39731  12.103   2.283   8.342  0.3069  0.4970 -0.6472
  295MOL0     C39732  12.018   2.175   8.415 -0.2358 -0.1757  0.2904
  295MOL0     C39733  12.102   2.072   8.485  0.7684 -0.1298 -0.0688
  295MOL0    Cl39734  12.204   1.984   8.363 -0.3826  0.2035  0.2328
  295MOL0     C39735  11.778   3.019   8.547 -0.8585 -0.5176  0.4722
  295MOL0     C39736  11.664   3.093   8.511  0.3159 -0.6318 -0.0809
  295MOL0     O39737  11.482   3.154   8.130 -0.2641  0.4292 -0.4003
  295MOL0     C39738  11.245   3.238   8.386 -0.4526  0.3522 -0.0372
  295MOL0     C39739  11.120   3.299   8.408 -0.2198  0.1366  0.3010
  295MOL0     N39740  10.407   3.547   8.558 -0.7803 -0.2360 -0.6665
  295MOL0     N39741  10.305   3.564   8.627  0.0535 -0.2802  0.3391
  295MOL0     C39742   9.239   3.231   8.676  0.2106 -0.5181  1.3728
  295MOL0     C39743   9.105   3.246   8.628  0.4036 -0.5840 -0.3897
  295MOL0     C39744   8.651   3.213   8.635 -0.2543 -0.2124  0.4253
  295MOL0     C39745   8.614   3.139   8.521 -0.3574  0.7337 -0.1273
  295MOL0     C39746   8.483   3.139   8.472 -0.9777 -1.2410  0.1209
  295MOL0     C39747   8.382   3.196   8.548 -0.4319 -1.1170 -0.3201
  295MOL0     O39748   8.264   3.187   8.488  0.3153 -0.0602  0.4414
  295MOL0     C39749   8.149   3.263   8.522 -1.0037  0.3216  0.5567
  295MOL0     C39750   8.052   3.177   8.604  0.3239  0.6519  0.7021
  295MOL0     C39751   7.959   3.265   8.680  0.6532  0.8073 -0.0501
  295MOL0     C39752   7.832   3.304   8.601  0.6981  0.7333 -0.6020
  295MOL0     C39753   7.752   3.385   8.697  0.5024 -0.2186  1.5277
  295MOL0     C39754   7.671   3.440   8.768 -0.3428 -0.7821 -0.9310
  295MOL0     C39755   8.415   3.274   8.654 -0.2259 -0.1086 -0.0206
  295MOL0     C39756   8.551   3.292   8.699 -0.0513  0.2832  0.0013
  295MOL0     C39757   8.564   3.373   8.824  0.1462  0.0399 -0.2038
  295MOL0     H39758   8.990   2.942   8.708 -0.0918  0.7278  0.8498
  295MOL0     H39759   9.205   2.916   8.804  1.3353  0.1431  0.8591
  295MOL0     H39760   9.514   3.226   8.630 -0.7268  4.4066  1.4294
  295MOL0     H39761   9.473   3.265   8.792 -1.4529 -0.3578 -1.5010
  295MOL0     H39762   9.658   3.032   8.778 -2.1012  0.0183  0.9089
  295MOL0     H39763   9.636   3.154   8.893 -0.2991  0.0745  0.1171
  295MOL0     H39764   9.736   3.324   8.704  1.8459 -0.8345 -4.2965
  295MOL0     H39765   9.801   3.170   8.643 -0.3689 -0.0819  0.0732
  295MOL0     H39766   9.852   3.294   8.913  4.2517 -0.8820  0.9855
  295MOL0     H39767   9.861   3.118   8.875 -0.1844 -0.2045  0.4510
  295MOL0     H39768  10.083   3.208   8.857  0.2245 -0.3108 -1.4310
  295MOL0     H39769  10.043   3.189   8.694 -2.4035 -0.7718 -0.2193
  295MOL0     H39770  10.034   3.472   8.835 -0.1683  0.6242 -0.8471
  295MOL0     H39771  10.168   3.395   8.768 -0.1064  0.1083  3.7468
  295MOL0     H39772   9.904   3.473   8.631 -0.1179 -0.2094  0.3657
  295MOL0     H39773  10.014   3.364   8.546 -3.3206  0.1580  0.4181
  295MOL0     H39774  10.007   3.623   8.487  0.0695  1.3220  0.8278
  295MOL0     H39775  10.057   3.644   8.654  2.1229 -1.3385  1.6076
  295MOL0     H39776  10.190   3.520   8.318  0.6801 -0.1991 -0.5570
  295MOL0     H39777  10.420   3.459   8.233  1.8712  0.1483 -0.7686
  295MOL0     H39778  10.515   3.600   8.285  1.7880  0.3816  0.3554
  295MOL0     H39779  10.567   3.312   8.363 -2.7083  1.3385  1.9987
  295MOL0     H39780  10.659   3.397   8.245  2.5273  4.7923  0.7507
  295MOL0     H39781  10.659   3.465   8.539 -0.2459  1.1079 -0.3123
  295MOL0     H39782  10.748   3.559   8.417 -0.0211 -0.0983 -0.0385
  295MOL0     H39783  10.808   3.273   8.438 -2.5388  0.2432  0.2155
  295MOL0     H39784  10.897   3.411   8.519  2.0461  0.6605 -2.0307
  295MOL0     H39785  11.043   3.368   8.085  1.3658  2.7058 -0.3704
  295MOL0     H39786  11.275   3.266   8.059 -0.6937 -3.0022  0.4942
  295MOL0     H39787  11.691   3.068   8.172  1.6028 -1.8171 -0.9879
  295MOL0     H39788  11.907   2.939   8.243 -0.9847  0.6695 -1.2002
  295MOL0     H39789  12.033   2.740   8.615 -0.8601  1.9123  2.1874
  295MOL0     H39790  11.879   2.798   8.665 -2.0092  2.0417 -1.6377
  295MOL0     H39791  11.804   2.609   8.562 -1.8305  0.8726 -0.1699
  295MOL0     H39792  11.791   2.705   8.429 -1.5879 -1.4822  0.2362
  295MOL0     H39793  12.026   2.648   8.353  0.1713 -0.9441 -1.2760
  295MOL0     H39794  12.036   2.535   8.494  1.7498 -0.0337 -0.4118
  295MOL0     H39795  11.862   2.525   8.245 -0.0108  1.0104  1.3380
  295MOL0     H39796  11.821   2.410   8.358 -0.7412 -1.1655 -4.3981
  295MOL0     H39797  12.084   2.446   8.206  0.3444 -0.5657 -0.3865
  295MOL0     H39798  11.957   2.324   8.182  2.7747  2.1318 -2.8810
  295MOL0     H39799  12.175   2.230   8.278 -0.0994 -0.2845 -0.4707
  295MOL0     H39800  12.152   2.343   8.420 -2.9797  1.0219  1.1991
  295MOL0     H39801  11.964   2.122   8.336  2.8862 -0.5850 -1.7648
  295MOL0     H39802  11.946   2.225   8.480  0.6685  1.6050 -0.0052
  295MOL0     H39803  12.170   2.117   8.558  0.5292 -0.9653  0.6951
  295MOL0     H39804  12.035   2.002   8.535  1.1365  1.0583  2.2266
  295MOL0     H39805  11.787   2.996   8.652  0.4201 -2.1475  0.0485
  295MOL0     H39806  11.603   3.137   8.589 -0.5240 -3.0077  0.6770
  295MOL0     H39807  11.283   3.189   8.475 -1.9763  0.1918  0.5498
  295MOL0     H39808  11.077   3.299   8.507  1.4781 -3.6543  1.2312
  295MOL0     H39809   9.310   3.312   8.662  0.1581 -0.7077 -0.1911
  295MOL0     H39810   9.065   3.338   8.585  1.1351 -0.1931 -0.2445
  295MOL0     H39811   8.696   3.095   8.465 -1.9693  0.9262 -2.7900
  295MOL0     H39812   8.456   3.095   8.377  1.1334 -0.9307 -0.6770
  295MOL0     H39813   8.105   3.296   8.428  1.9142  0.2280 -0.9432
  295MOL0     H39814   8.179   3.353   8.576 -0.4583 -0.4783  1.6440
  295MOL0     H39815   8.089   3.097   8.668 -1.4821 -0.5585  0.3073
  295MOL0     H39816   8.002   3.118   8.527  0.7367 -2.0597  2.3765
  295MOL0     H39817   8.010   3.360   8.697  1.8678  0.2257 -0.3485
  295MOL0     H39818   7.947   3.221   8.779 -2.5708 -1.2920 -1.1670
  295MOL0     H39819   7.843   3.361   8.508 -0.4928  1.1878 -0.4929
  295MOL0     H39820   7.785   3.208   8.576  2.7042 -1.3260  2.7675
  295MOL0     H39821   7.587   3.479   8.821 -1.5579 -3.7096 -0.4647
  295MOL0     H39822   8.339   3.321   8.715  0.0378 -1.6078  1.5482
  295MOL0     H39823   8.470   3.421   8.852  1.0342  2.7391 -1.4561
  295MOL0     H39824   8.593   3.304   8.904  2.6905  2.7939  1.4968
  295MOL0     H39825   8.637   3.455   8.818 -0.2484  1.5474  6.5953
  296MOL0     O39826   4.801   7.930   0.478  0.2151 -0.1511  0.0278
  296MOL0     C39827   4.730   7.963   0.387 -0.3851  0.4029  0.5529
  296MOL0     O39828   4.775   7.997   0.261 -0.3344  0.0412 -0.7790
  296MOL0     C39829   4.908   8.019   0.242 -0.5259  0.7843 -0.0212
  296MOL0     C39830   4.966   8.151   0.226 -0.0519 -0.2437  0.3132
  296MOL0     C39831   5.101   8.167   0.204 -0.4143  1.1645 -0.3537
  296MOL0     C39832   5.186   8.056   0.190  0.1200 -0.5103  0.1933
  296MOL0     O39833   5.324   8.091   0.163 -0.4426 -0.2920 -0.3790
  296MOL0     C39834   5.396   8.000   0.098 -0.2842  0.0235  0.7445
  296MOL0     C39835   5.483   8.071  -0.006 -0.8415  0.1965  0.1519
  296MOL0     C39836   5.627   8.036   0.031 -0.4552 -0.0880  0.6956
  296MOL0     C39837   5.728   8.144  -0.017 -0.2891 -0.4182 -0.0707
  296MOL0     C39838   5.866   8.135   0.053  0.7399  0.4010 -0.3866
  296MOL0     C39839   5.955   8.265   0.026  0.3480  0.3846 -0.1528
  296MOL0     C39840   6.079   8.254   0.113 -0.2729 -0.1085  0.2283
  296MOL0     C39841   6.183   8.379   0.131 -1.2706  0.9121  0.1142
  296MOL0     N39842   6.276   8.386   0.014 -0.2542  0.1105  0.2498
  296MOL0     C39843   6.399   8.435   0.020  0.4359 -0.3851 -0.1779
  296MOL0     C39844   6.445   8.422  -0.106  0.4100 -0.4711  0.3681
  296MOL0     C39845   6.566   8.484  -0.162  0.4331 -0.4661 -0.8473
  296MOL0     C39846   6.695   8.438  -0.082 -0.7590 -0.5225  0.2971
  296MOL0     C39847   6.818   8.515  -0.135  0.4784  0.0376 -0.0316
  296MOL0     C39848   6.954   8.465  -0.083  0.2824  0.2683 -1.0340
  296MOL0     O39849   7.000   8.361  -0.170  0.2711 -0.1485 -0.3098
  296MOL0     C39850   7.120   8.295  -0.143 -0.1159 -0.8813 -0.1788
  296MOL0     C39851   7.170   8.284  -0.016 -0.0523 -0.0388 -0.4512
  296MOL0     C39852   7.301   8.228  -0.001  0.6744  0.2332 -1.0759
  296MOL0     C39853   7.373   8.182  -0.120 -0.1330  0.1640 -0.4935
  296MOL0     C39854   7.504   8.130  -0.105 -0.5817  0.1699  0.1689
  296MOL0     O39855   7.569   8.156   0.009 -0.3743  0.0715  0.2907
  296MOL0     C39856   7.679   8.072   0.036 -0.0741 -0.0608 -0.2777
  296MOL0     C39857   7.668   7.993   0.150 -0.3796  0.5563 -0.2253
  296MOL0     C39858   7.776   7.911   0.191 -0.5861 -0.7449 -0.4234
  296MOL0     C39859   7.893   7.916   0.117 -0.0230 -0.2587  0.1955
  296MOL0     O39860   8.001   7.849   0.168  0.9307 -0.0123 -0.0292
  296MOL0     C39861   8.118   7.924   0.195 -0.3209  0.5297  0.1519
  296MOL0     C39862   8.228   7.824   0.164 -0.3260 -0.2265  0.1582
  296MOL0     C39863   8.360   7.893   0.207 -0.6249 -0.0346 -0.2417
  296MOL0     C39864   8.476   7.786   0.193  0.2825 -0.5309 -0.2009
  296MOL0     C39865   8.616   7.831   0.251 -0.2911 -0.4973 -0.2445
  296MOL0     C39866   8.708   7.705   0.272 -0.1081 -0.0195 -0.1418
  296MOL0     C39867   8.857   7.757   0.295  0.4533 -0.3240 -0.8457
  296MOL0     C39868   8.935   7.798   0.169 -0.1185 -0.8404  0.5206
  296MOL0    Cl39869   9.115   7.825   0.213 -0.0089 -0.0644  0.0692
  296MOL0     C39870   7.901   8.007   0.001 -0.8668 -0.1346  0.1560
  296MOL0     C39871   7.791   8.080  -0.040 -0.2937  0.6990 -0.6070
  296MOL0     O39872   7.548   8.052  -0.193 -0.4238  0.1254 -0.0951
  296MOL0     C39873   7.314   8.192  -0.243  0.3369 -1.1783 -0.1300
  296MOL0     C39874   7.188   8.245  -0.256  0.4392  0.3292 -0.0237
  296MOL0     N39875   6.336   8.380  -0.187  0.1193 -0.9364 -0.0954
  296MOL0     N39876   6.240   8.361  -0.112  0.0028 -0.0935 -0.1644
  296MOL0     C39877   5.129   7.924   0.192  1.0211 -0.0122 -0.6138
  296MOL0     C39878   4.993   7.910   0.220  0.6525 -0.4820  0.4577
  296MOL0     C39879   4.581   7.954   0.414 -0.2443  0.0368 -0.8603
  296MOL0     C39880   4.504   7.901   0.307 -0.2978 -0.5105 -0.5170
  296MOL0     C39881   4.367   7.874   0.320  0.3681 -0.2940 -0.3641
  296MOL0     C39882   4.302   7.891   0.432 -0.2638 -0.4933  0.7680
  296MOL0     O39883   4.171   7.877   0.413  0.3009 -0.6678  0.4037
  296MOL0     C39884   4.084   7.903   0.528  0.4770 -0.4641  0.2760
  296MOL0     C39885   3.951   7.864   0.480  0.9463 -0.0174  0.3107
  296MOL0     C39886   3.905   7.966   0.367 -0.2912  0.2050 -0.2072
  296MOL0     C39887   3.793   7.902   0.292  0.0569 -0.8053  0.7765
  296MOL0     C39888   3.676   7.869   0.372 -0.7763  0.3362 -0.4711
  296MOL0     C39889   3.573   7.852   0.440  0.2193 -0.4447  0.4282
  296MOL0     C39890   4.373   7.947   0.542  0.6289 -0.0019  0.2151
  296MOL0     C39891   4.513   7.990   0.531  1.3209 -0.1990 -0.5253
  296MOL0     C39892   4.578   8.061   0.645 -0.1785 -0.7191  0.4133
  296MOL0     H39893   4.901   8.238   0.220 -0.0992 -0.1833  1.3925
  296MOL0     H39894   5.139   8.269   0.214 -0.0636  1.2670 -2.3663
  296MOL0     H39895   5.450   7.939   0.171 -0.6014  0.9807  1.7986
  296MOL0     H39896   5.333   7.932   0.040  0.2686 -1.5363  1.8733
  296MOL0     H39897   5.470   8.179   0.001 -0.5475  0.1568  1.6586
  296MOL0     H39898   5.450   8.037  -0.105 -0.0750  0.6272 -0.2599
  296MOL0     H39899   5.658   7.946  -0.023  0.2248 -0.2769  1.3715
  296MOL0     H39900   5.647   8.030   0.139  2.8747  0.6453  0.2286
  296MOL0     H39901   5.737   8.125  -0.124 -0.9398 -2.0147  0.1205
  296MOL0     H39902   5.690   8.243   0.010  1.3768 -0.3914  2.5162
  296MOL0     H39903   5.862   8.130   0.162  2.5165 -0.6281 -0.3357
  296MOL0     H39904   5.919   8.043   0.028 -0.0002 -0.3625  0.7136
  296MOL0     H39905   5.977   8.275  -0.081  2.1541  0.5284  0.2053
  296MOL0     H39906   5.895   8.350   0.060  2.5442  1.9608 -0.0338
  296MOL0     H39907   6.119   8.156   0.085  0.3020  0.2447 -0.2058
  296MOL0     H39908   6.034   8.245   0.212 -3.8740 -1.5529 -1.3454
  296MOL0     H39909   6.116   8.466   0.134 -3.6741 -0.8320  0.0937
  296MOL0     H39910   6.240   8.370   0.223 -0.5113  2.6141 -0.1521
  296MOL0     H39911   6.456   8.470   0.106 -0.7696  1.4171 -0.0652
  296MOL0     H39912   6.578   8.450  -0.265 -1.3113  0.8032 -1.5250
  296MOL0     H39913   6.557   8.592  -0.176  1.8535 -0.4063 -1.4122
  296MOL0     H39914   6.684   8.466   0.023  0.9177  1.7184 -0.0516
  296MOL0     H39915   6.706   8.331  -0.098 -1.0376 -0.1479 -3.4112
  296MOL0     H39916   6.801   8.621  -0.112 -1.3412 -0.1503 -0.3239
  296MOL0     H39917   6.836   8.510  -0.243  2.4193 -1.4313  0.3079
  296MOL0     H39918   6.932   8.418   0.014 -1.3562  0.0935 -1.4610
  296MOL0     H39919   7.033   8.539  -0.067  2.5197 -2.3263  1.0078
  296MOL0     H39920   7.115   8.300   0.077  0.9160  1.5773 -0.1126
  296MOL0     H39921   7.342   8.214   0.099 -1.2228  0.7918 -0.1715
  296MOL0     H39922   7.583   7.999   0.218  2.5932  4.3289  3.7301
  296MOL0     H39923   7.780   7.860   0.287 -0.5695 -2.3829 -1.2565
  296MOL0     H39924   8.124   8.015   0.134 -2.2200  0.2656 -0.4948
  296MOL0     H39925   8.114   7.958   0.299  0.4827  2.1094 -0.2969
  296MOL0     H39926   8.208   7.725   0.206 -4.3461 -1.1075 -3.2314
  296MOL0     H39927   8.222   7.812   0.056 -2.8758 -2.1601  0.4150
  296MOL0     H39928   8.376   7.974   0.136 -2.3994  2.3338  1.8549
  296MOL0     H39929   8.356   7.926   0.311 -3.7378 -2.7258  0.6825
  296MOL0     H39930   8.485   7.761   0.087  2.5559  1.5685 -0.5886
  296MOL0     H39931   8.442   7.693   0.239  0.1127 -0.9807 -1.2095
  296MOL0     H39932   8.608   7.889   0.344  1.8389  2.0918 -1.5539
  296MOL0     H39933   8.665   7.898   0.181 -0.7941  0.0487 -0.0786
  296MOL0     H39934   8.671   7.640   0.352  1.5097 -0.8512 -0.0231
  296MOL0     H39935   8.704   7.652   0.177  0.9114  1.8616 -1.2922
  296MOL0     H39936   8.920   7.677   0.334  0.1700 -0.8550 -1.4500
  296MOL0     H39937   8.867   7.834   0.371  1.7660 -1.0955 -0.2122
  296MOL0     H39938   8.923   7.710   0.107  0.4300 -0.5427 -0.0171
  296MOL0     H39939   8.895   7.882   0.110  2.6917 -1.9702 -3.4002
  296MOL0     H39940   7.992   8.024  -0.055 -2.1194  0.3625 -1.8337
  296MOL0     H39941   7.800   8.143  -0.128  0.2619 -1.9660 -2.6195
  296MOL0     H39942   7.373   8.163  -0.329  1.1023 -0.8099  0.2630
  296MOL0     H39943   7.140   8.269  -0.350 -3.9479  1.7972  2.2985
  296MOL0     H39944   5.191   7.835   0.191  2.6514  1.0844 -1.0309
  296MOL0     H39945   4.949   7.813   0.240  1.6226 -0.5186  2.8459
  296MOL0     H39946   4.555   7.870   0.217 -0.1407  0.7946 -0.8882
  296MOL0     H39947   4.301   7.847   0.238  1.8989 -3.4976 -0.7029
  296MOL0     H39948   4.086   8.007   0.561  0.7078 -0.6479  0.8589
  296MOL0     H39949   4.105   7.846   0.619 -1.5173  1.7632  2.2359
  296MOL0     H39950   3.877   7.862   0.561 -2.0095 -2.4437 -2.2092
  296MOL0     H39951   3.960   7.758   0.457 -2.5644 -0.6626  1.3317
  296MOL0     H39952   3.983   7.982   0.292  0.5578  1.6614  0.9285
  296MOL0     H39953   3.876   8.066   0.401 -1.0484  0.0356 -0.3411
  296MOL0     H39954   3.752   7.971   0.217  1.1396  0.3990  1.2412
  296MOL0     H39955   3.834   7.820   0.231  0.7424 -1.0515  1.5571
  296MOL0     H39956   3.483   7.817   0.487 -1.0241 -2.3638 -2.9912
  296MOL0     H39957   4.316   7.966   0.632  2.1341  0.6880  1.0440
  296MOL0     H39958   4.591   8.003   0.737 -0.2867  1.6498  2.0109
  296MOL0     H39959   4.675   8.107   0.628 -1.3840  1.8066 -0.1178
  296MOL0     H39960   4.516   8.146   0.677 -0.2687 -0.7544  0.3331
  297MOL0     O39961   3.828   6.868   0.280 -0.4071  0.1790 -0.0478
  297MOL0     C39962   3.771   6.924   0.188  0.5924 -0.4747  0.3496
  297MOL0     O39963   3.830   6.943   0.066 -0.0022 -0.2708 -0.0075
  297MOL0     C39964   3.967   6.923   0.035  0.0942  0.4622 -0.5663
  297MOL0     C39965   3.994   6.898  -0.098  0.6605 -0.0835  0.2871
  297MOL0     C39966   4.123   6.892  -0.145 -0.0737 -0.4318  0.1826
  297MOL0     C39967   4.229   6.907  -0.059  0.8551  0.3782 -0.0267
  297MOL0     O39968   4.356   6.908  -0.113  0.3698 -0.2150 -0.2743
  297MOL0     C39969   4.462   6.868  -0.023  0.3827 -0.6294  0.2446
  297MOL0     C39970   4.576   6.822  -0.112  0.3565 -0.7391 -0.1627
  297MOL0     C39971   4.685   6.783  -0.017  0.0002 -0.1001 -0.2612
  297MOL0     C39972   4.798   6.708  -0.095  0.0346  0.2905 -0.1962
  297MOL0     C39973   4.912   6.680  -0.012 -0.2983 -0.2976  0.2151
  297MOL0     C39974   5.029   6.611  -0.072 -0.2097  0.4854  0.6486
  297MOL0     C39975   5.126   6.701  -0.152 -0.1386  0.0543  0.0044
  297MOL0     C39976   5.133   6.849  -0.120 -0.9135 -0.2937 -0.1200
  297MOL0     N39977   5.264   6.895  -0.172 -0.2446 -0.3984 -0.6767
  297MOL0     C39978   5.279   6.922  -0.304 -0.6636  0.4577 -0.1171
  297MOL0     C39979   5.404   6.965  -0.317  1.2412 -1.0991  0.0464
  297MOL0     C39980   5.469   7.004  -0.446 -0.2509 -0.0920 -0.6577
  297MOL0     C39981   5.602   6.932  -0.472 -0.7549 -1.3306 -1.2114
  297MOL0     C39982   5.663   7.003  -0.596 -0.4776  0.3935  0.3130
  297MOL0     C39983   5.799   6.951  -0.631 -0.0469 -0.3453  0.1490
  297MOL0     O39984   5.891   6.965  -0.519 -0.1366  0.1500  0.6348
  297MOL0     C39985   6.025   6.987  -0.549 -0.1667 -0.1458 -0.5603
  297MOL0     C39986   6.084   7.046  -0.669 -0.0951  0.0341  0.1115
  297MOL0     C39987   6.220   7.050  -0.684  0.5359  0.1584 -0.7093
  297MOL0     C39988   6.305   7.011  -0.582 -0.2558  0.4202  0.5164
  297MOL0     C39989   6.451   7.008  -0.608 -0.2764 -0.9606  0.7039
  297MOL0     O39990   6.494   7.006  -0.739  0.9428 -0.2562 -0.0786
  297MOL0     C39991   6.612   7.053  -0.771 -0.5619  0.5486  0.3602
  297MOL0     C39992   6.667   6.994  -0.881  0.1216  0.2998  0.0169
  297MOL0     C39993   6.783   7.048  -0.936 -0.3032 -0.9960 -0.0123
  297MOL0     C39994   6.840   7.157  -0.874 -0.1294  0.0745  0.4197
  297MOL0     O39995   6.952   7.225  -0.922 -0.1303  0.4808  0.4594
  297MOL0     C39996   7.023   7.178  -1.036  0.5452 -0.2997 -0.1769
  297MOL0     C39997   7.156   7.258  -1.050  0.0153  0.6716  0.7329
  297MOL0     C39998   7.206   7.242  -1.193  0.3787 -0.5089 -1.4434
  297MOL0     C39999   7.328   7.339  -1.213  0.3961  0.1203  0.5294
  297MOL0     C40000   7.383   7.331  -1.365 -0.4304  0.5920 -0.1832
  297MOL0     C40001   7.530   7.386  -1.357 -0.6774 -0.5904 -0.5352
  297MOL0     C40002   7.590   7.414  -1.499  0.0620 -0.5833  0.3231
  297MOL0     C40003   7.730   7.480  -1.490  0.6379  0.3099 -0.2793
  297MOL0    Cl40004   7.776   7.553  -1.639 -0.1453 -0.2357  0.0744
  297MOL0     C40005   6.774   7.221  -0.777 -0.7744 -0.0997  0.3195
  297MOL0     C40006   6.670   7.164  -0.717  0.1831 -0.3316 -0.8494
  297MOL0     O40007   6.525   7.019  -0.511  0.0595  0.3082  0.1684
  297MOL0     C40008   6.255   6.955  -0.465 -0.9250 -0.0104  0.2170
  297MOL0     C40009   6.115   6.951  -0.443  0.4629  1.1593 -0.4545
  297MOL0     N40010   5.453   6.975  -0.182  0.3273 -0.3628  1.5534
  297MOL0     N40011   5.366   6.943  -0.101 -0.8486  0.2357 -0.8822
  297MOL0     C40012   4.204   6.927   0.079 -0.2013 -0.5243  0.0960
  297MOL0     C40013   4.072   6.940   0.119 -0.6601 -0.2535 -0.1493
  297MOL0     C40014   3.633   6.988   0.212 -0.2525  0.0288  0.1545
  297MOL0     C40015   3.611   7.039   0.337 -0.1378 -0.2898 -0.1900
  297MOL0     C40016   3.483   7.077   0.372  0.5091 -0.1007  0.1390
  297MOL0     C40017   3.374   7.065   0.279  0.3002  0.2422 -0.0179
  297MOL0     O40018   3.244   7.111   0.309 -0.5167 -0.7091 -0.4422
  297MOL0     C40019   3.219   7.206   0.415  0.4698  0.2624  0.3243
  297MOL0     C40020   3.100   7.300   0.396 -0.7061  0.1807 -0.2072
  297MOL0     C40021   2.968   7.217   0.386 -0.8174  0.1783 -0.1790
  297MOL0     C40022   2.847   7.309   0.367  0.0269  1.2782  0.5577
  297MOL0     C40023   2.864   7.404   0.261  0.0594 -0.3213  0.4422
  297MOL0     C40024   2.874   7.482   0.166 -0.6905 -0.3721  0.1870
  297MOL0     C40025   3.405   7.012   0.156 -0.2143  1.2302  0.4656
  297MOL0     C40026   3.535   6.984   0.111 -0.8062  0.7436  0.8083
  297MOL0     C40027   3.564   6.919  -0.023  0.3280  0.3716 -0.4532
  297MOL0     H40028   3.913   6.892  -0.170  0.6002  0.2178  0.3287
  297MOL0     H40029   4.149   6.876  -0.249  0.7382 -1.0444  0.4711
  297MOL0     H40030   4.477   6.957   0.039  2.7566 -1.3249  0.7818
  297MOL0     H40031   4.434   6.779   0.033  3.1083 -0.6797  1.6991
  297MOL0     H40032   4.611   6.899  -0.182  1.9840 -1.0946  0.2007
  297MOL0     H40033   4.539   6.734  -0.165 -0.4367  0.2066 -1.2251
  297MOL0     H40034   4.650   6.718   0.064 -0.5989 -0.6507 -0.9500
  297MOL0     H40035   4.719   6.871   0.037 -1.5694 -0.4996  1.4899
  297MOL0     H40036   4.759   6.614  -0.134  0.3114  0.4960 -0.9763
  297MOL0     H40037   4.817   6.773  -0.181  0.3405  0.1414 -0.2436
  297MOL0     H40038   4.939   6.774   0.037 -0.2111 -0.4750  0.5115
  297MOL0     H40039   4.887   6.616   0.073  2.5658 -0.4581  1.0467
  297MOL0     H40040   5.093   6.570   0.007  1.0948  0.4630 -0.3728
  297MOL0     H40041   4.995   6.531  -0.138  2.5799 -0.7318  0.5167
  297MOL0     H40042   5.091   6.699  -0.256  1.2881 -3.2072 -0.5346
  297MOL0     H40043   5.221   6.647  -0.150  0.0127  0.3315  1.4420
  297MOL0     H40044   5.042   6.899  -0.156 -1.4027  0.3907  1.9086
  297MOL0     H40045   5.136   6.868  -0.012 -0.5776  2.4927 -0.5386
  297MOL0     H40046   5.201   6.908  -0.378 -0.8777  0.6515  0.0713
  297MOL0     H40047   5.410   6.993  -0.538  2.6357  2.0095 -2.9420
  297MOL0     H40048   5.497   7.109  -0.433 -0.7352  0.0653 -0.8747
  297MOL0     H40049   5.673   6.940  -0.390 -0.1939 -3.1811 -1.4791
  297MOL0     H40050   5.570   6.831  -0.498 -2.8106 -1.3561  1.0917
  297MOL0     H40051   5.680   7.110  -0.583 -2.0227  1.1815 -3.0401
  297MOL0     H40052   5.597   6.993  -0.683  2.5365 -0.2840 -2.0349
  297MOL0     H40053   5.827   7.008  -0.721 -0.8600 -1.3978 -0.8063
  297MOL0     H40054   5.791   6.842  -0.645  0.1905 -0.3267 -0.1642
  297MOL0     H40055   6.017   7.096  -0.738 -1.4928  1.0161  2.0803
  297MOL0     H40056   6.268   7.100  -0.767  0.2183  1.7812  0.0451
  297MOL0     H40057   6.607   6.919  -0.931 -0.1679  0.9641 -0.6483
  297MOL0     H40058   6.828   7.005  -1.025  2.1297 -1.8629  1.5229
  297MOL0     H40059   7.054   7.073  -1.035  2.0455  0.0490 -2.4911
  297MOL0     H40060   6.955   7.179  -1.122 -1.9193  3.1882  1.5607
  297MOL0     H40061   7.114   7.359  -1.047 -1.3531  0.1502  0.2882
  297MOL0     H40062   7.230   7.233  -0.974 -0.5359 -1.2564  0.6752
  297MOL0     H40063   7.244   7.141  -1.204  1.6634 -0.0190 -1.7090
  297MOL0     H40064   7.123   7.258  -1.263 -0.3503 -1.8103 -0.9012
  297MOL0     H40065   7.411   7.323  -1.143  1.4608  1.1466 -0.4569
  297MOL0     H40066   7.297   7.440  -1.186 -1.2651 -0.4848  1.0110
  297MOL0     H40067   7.304   7.382  -1.421 -1.0818  1.1558  1.1910
  297MOL0     H40068   7.401   7.229  -1.400  3.3949  0.7253  0.9450
  297MOL0     H40069   7.527   7.471  -1.289  1.8886 -0.8244 -0.0345
  297MOL0     H40070   7.596   7.316  -1.305  0.0994  0.9984  0.7030
  297MOL0     H40071   7.515   7.478  -1.547  0.6801  0.3011  0.5189
  297MOL0     H40072   7.590   7.323  -1.561  0.7014  0.3124 -1.0326
  297MOL0     H40073   7.749   7.550  -1.408  1.4808  1.3817 -1.3600
  297MOL0     H40074   7.795   7.396  -1.465 -0.5895 -1.0658 -1.5751
  297MOL0     H40075   6.813   7.317  -0.744  0.1080 -0.7211  1.1650
  297MOL0     H40076   6.628   7.209  -0.627  2.2242  0.0310 -0.0155
  297MOL0     H40077   6.331   6.918  -0.397 -1.3897  0.1454  0.8327
  297MOL0     H40078   6.078   6.909  -0.350  2.1920  2.5970  0.9378
  297MOL0     H40079   4.287   6.942   0.147 -0.1048  0.4329 -0.2186
  297MOL0     H40080   4.059   6.964   0.224  0.4551  1.0620 -0.2915
  297MOL0     H40081   3.687   7.052   0.413 -0.7549  2.1966  0.1167
  297MOL0     H40082   3.460   7.119   0.469 -0.4213  1.6773 -0.7868
  297MOL0     H40083   3.306   7.272   0.419  0.9099 -0.0568 -2.1250
  297MOL0     H40084   3.213   7.145   0.506  3.0258  2.3615  2.0388
  297MOL0     H40085   3.128   7.356   0.307 -1.7915 -0.0289 -0.7015
  297MOL0     H40086   3.107   7.377   0.473  1.8506 -0.8807  0.7257
  297MOL0     H40087   2.958   7.165   0.482  2.4117  0.6452  0.5277
  297MOL0     H40088   2.976   7.142   0.307  3.0003 -0.2614  0.4064
  297MOL0     H40089   2.756   7.251   0.345 -0.7721  3.1090 -1.2808
  297MOL0     H40090   2.830   7.371   0.455 -0.2855 -3.7713  4.5249
  297MOL0     H40091   2.863   7.546   0.081 -2.6770  0.3633  0.9345
  297MOL0     H40092   3.317   7.008   0.093  1.6157 -0.6707 -2.1636
  297MOL0     H40093   3.634   6.977  -0.084 -0.9103 -1.7231 -4.1816
  297MOL0     H40094   3.602   6.818  -0.009  3.6495  1.6958  1.0703
  297MOL0     H40095   3.464   6.905  -0.065 -0.1303 -1.6049  1.1622
  298MOL0     O40096   1.342   0.654   5.785  0.6885  0.1022  0.1907
  298MOL0     C40097   1.313   0.646   5.666  0.0461 -0.4734  0.1590
  298MOL0     O40098   1.359   0.748   5.572 -0.1069  0.3041  0.5705
  298MOL0     C40099   1.442   0.839   5.623  0.1435  0.5338 -0.5607
  298MOL0     C40100   1.572   0.840   5.573  0.6137  0.7225 -0.4685
  298MOL0     C40101   1.664   0.929   5.622  1.1348 -0.3921 -0.5532
  298MOL0     C40102   1.633   1.034   5.706  0.0690  0.6164  0.4052
  298MOL0     O40103   1.718   1.129   5.737  0.5887 -0.1734 -0.0555
  298MOL0     C40104   1.839   1.149   5.663  0.8784 -0.2256 -0.4817
  298MOL0     C40105   1.927   1.264   5.731 -0.4846  1.3038 -0.1386
  298MOL0     C40106   1.878   1.407   5.678  0.8291  0.4936  0.1791
  298MOL0     C40107   1.992   1.502   5.629 -0.2383 -0.8731 -0.1618
  298MOL0     C40108   2.100   1.529   5.742  0.0336 -0.7855  0.8280
  298MOL0     C40109   2.215   1.600   5.686 -0.3918  1.1911 -0.3432
  298MOL0     C40110   2.340   1.585   5.780  0.4516 -0.1472 -0.0688
  298MOL0     C40111   2.457   1.568   5.679 -0.6130  0.0847  0.4019
  298MOL0     N40112   2.592   1.583   5.746  0.3421 -0.1632  1.0653
  298MOL0     C40113   2.631   1.535   5.861  0.7961  0.3480 -0.3121
  298MOL0     C40114   2.763   1.560   5.866 -0.8851 -0.0096  1.0358
  298MOL0     C40115   2.853   1.509   5.976 -0.3818 -0.5960 -0.0556
  298MOL0     C40116   2.996   1.577   5.977  0.1732 -0.1784  0.1976
  298MOL0     C40117   3.071   1.552   6.107 -0.6112 -0.2654  0.4485
  298MOL0     C40118   3.216   1.591   6.085 -0.4858 -0.2300 -0.0156
  298MOL0     O40119   3.276   1.564   6.214  0.0982  0.3981 -0.5549
  298MOL0     C40120   3.412   1.584   6.228 -1.1196  0.2007  0.4174
  298MOL0     C40121   3.515   1.587   6.130  0.2750  0.0406  0.6770
  298MOL0     C40122   3.650   1.600   6.169 -0.7924  0.0503  0.1249
  298MOL0     C40123   3.681   1.592   6.301  0.3069  0.0107  0.2214
  298MOL0     C40124   3.825   1.586   6.353  0.4747 -0.1408  0.3798
  298MOL0     O40125   3.925   1.579   6.258 -0.4188  0.1931 -0.3270
  298MOL0     C40126   4.058   1.548   6.289  0.3409  0.6824 -0.9782
  298MOL0     C40127   4.166   1.625   6.231  0.4510 -0.1061  0.8095
  298MOL0     C40128   4.305   1.603   6.260 -0.5554  0.9736 -0.1816
  298MOL0     C40129   4.338   1.516   6.356 -0.6560  0.3426  0.3892
  298MOL0     O40130   4.466   1.485   6.396 -0.1859  0.6551  0.6377
  298MOL0     C40131   4.529   1.423   6.288 -0.3668 -0.0068 -0.4416
  298MOL0     C40132   4.488   1.273   6.266 -0.6124  0.4646  0.2072
  298MOL0     C40133   4.573   1.206   6.157 -0.7241 -1.0716 -0.0421
  298MOL0     C40134   4.552   1.054   6.170  0.6834 -0.5227 -0.3623
  298MOL0     C40135   4.693   0.993   6.189  0.2170 -0.8820 -0.3241
  298MOL0     C40136   4.678   0.843   6.150  0.0784 -0.8368 -0.6771
  298MOL0     C40137   4.814   0.774   6.141  0.6445 -0.5952  0.6583
  298MOL0     C40138   4.819   0.676   6.024 -0.3862  0.2038 -0.1972
  298MOL0    Cl40139   4.682   0.560   6.036 -0.2631  0.4449  0.0926
  298MOL0     C40140   4.235   1.428   6.415 -0.2380 -0.6848  0.2562
  298MOL0     C40141   4.103   1.450   6.392  0.6421 -0.2030 -0.5197
  298MOL0     O40142   3.839   1.565   6.473 -0.5452  0.1624  0.1823
  298MOL0     C40143   3.579   1.591   6.406  0.0102  1.1701  0.0294
  298MOL0     C40144   3.450   1.585   6.359  0.8820  0.3851 -0.0345
  298MOL0     N40145   2.807   1.616   5.748  0.0377  0.2933 -0.4228
  298MOL0     N40146   2.701   1.627   5.671  0.2138  0.3617  0.0405
  298MOL0     C40147   1.505   1.037   5.756 -0.7664 -0.6698  0.6635
  298MOL0     C40148   1.406   0.942   5.719 -0.7329 -0.2591  0.6282
  298MOL0     C40149   1.231   0.538   5.607  0.6832 -0.5309 -0.2624
  298MOL0     C40150   1.235   0.529   5.470  0.6358 -0.5058  0.0324
  298MOL0     C40151   1.166   0.426   5.406 -0.2388 -0.1306 -0.0686
  298MOL0     C40152   1.090   0.329   5.471  0.6060 -0.0013 -0.2598
  298MOL0     O40153   1.011   0.240   5.399  0.4876  0.0645 -0.0803
  298MOL0     C40154   0.870   0.240   5.420  0.6894 -0.4241  0.0557
  298MOL0     C40155   0.778   0.189   5.305 -0.8746  0.3894 -0.4011
  298MOL0     C40156   0.806   0.042   5.270  0.7615  0.0325 -0.1768
  298MOL0     C40157   0.739  -0.059   5.370  0.0229 -0.6045  0.2380
  298MOL0     C40158   0.602  -0.087   5.325 -0.4625  0.3745 -0.5574
  298MOL0     C40159   0.487  -0.105   5.294  0.1740  0.1593 -0.2693
  298MOL0     C40160   1.088   0.336   5.614 -0.4289 -0.0216  0.0652
  298MOL0     C40161   1.159   0.433   5.677 -1.0350  1.0553 -0.1750
  298MOL0     C40162   1.139   0.441   5.833  0.4737 -0.2632 -0.2290
  298MOL0     H40163   1.608   0.764   5.505  1.5032  1.1748 -0.5128
  298MOL0     H40164   1.762   0.936   5.576  1.8887  0.7981  1.1227
  298MOL0     H40165   1.904   1.062   5.670 -0.7920 -1.5429 -0.5495
  298MOL0     H40166   1.814   1.174   5.559 -0.0540 -0.5260 -0.3425
  298MOL0     H40167   2.032   1.249   5.704 -1.4199 -0.4122 -3.3540
  298MOL0     H40168   1.920   1.250   5.840  2.1978 -2.3531 -0.2385
  298MOL0     H40169   1.809   1.447   5.753  3.5352 -3.8006  5.6843
  298MOL0     H40170   1.814   1.389   5.591 -0.5231  1.0150  1.0373
  298MOL0     H40171   2.030   1.456   5.537 -0.3270  1.4820 -1.4636
  298MOL0     H40172   1.947   1.599   5.607 -0.6665 -1.0691 -0.1585
  298MOL0     H40173   2.048   1.594   5.814 -2.2789 -2.6423  0.9423
  298MOL0     H40174   2.132   1.432   5.780  2.0053 -0.1412  0.9299
  298MOL0     H40175   2.231   1.555   5.588 -3.4802  0.7775 -0.7810
  298MOL0     H40176   2.197   1.707   5.676 -1.1584  1.2259  1.1223
  298MOL0     H40177   2.330   1.503   5.852 -0.4783  1.9957  2.4029
  298MOL0     H40178   2.358   1.673   5.843 -1.9510  0.5021 -0.2057
  298MOL0     H40179   2.439   1.476   5.624 -2.8297  0.3285  0.6417
  298MOL0     H40180   2.447   1.648   5.605 -2.0034 -1.1838 -0.8215
  298MOL0     H40181   2.567   1.477   5.926  2.1431  0.0352  0.7863
  298MOL0     H40182   2.805   1.508   6.074 -0.2729 -1.2792 -0.0034
  298MOL0     H40183   2.882   1.405   5.959  0.0188 -0.4610 -0.2309
  298MOL0     H40184   3.059   1.541   5.895  3.0793  0.3138  2.0870
  298MOL0     H40185   2.980   1.684   5.967  0.2179 -0.1537  0.3928
  298MOL0     H40186   3.073   1.444   6.123 -0.1041 -0.3279 -0.0240
  298MOL0     H40187   3.034   1.617   6.187 -2.2433 -1.8913  1.0953
  298MOL0     H40188   3.214   1.688   6.034 -1.4686 -0.7927 -1.1159
  298MOL0     H40189   3.260   1.519   6.016  1.1534  2.9873 -2.6117
  298MOL0     H40190   3.492   1.594   6.024 -0.4225 -0.0757  0.8187
  298MOL0     H40191   3.725   1.611   6.091  1.2281 -2.5528  1.5554
  298MOL0     H40192   4.134   1.705   6.165  2.2105  0.7560  0.9401
  298MOL0     H40193   4.388   1.652   6.209  0.6806  1.2661  2.0078
  298MOL0     H40194   4.521   1.474   6.191  2.7469 -1.9304 -1.8808
  298MOL0     H40195   4.637   1.429   6.305 -0.6454  1.0118  1.1183
  298MOL0     H40196   4.506   1.218   6.359  1.0441 -0.6627 -0.7335
  298MOL0     H40197   4.381   1.265   6.245 -1.0486  2.2997  1.4778
  298MOL0     H40198   4.530   1.231   6.060  0.5483  1.9682  0.0812
  298MOL0     H40199   4.679   1.233   6.151 -1.0483 -0.0040 -1.5547
  298MOL0     H40200   4.501   1.026   6.077  1.7794  1.2131 -1.5404
  298MOL0     H40201   4.482   1.030   6.251 -2.0458  0.7541 -2.1754
  298MOL0     H40202   4.722   1.007   6.294 -2.7996 -3.2830  1.0022
  298MOL0     H40203   4.771   1.041   6.130 -1.3669  0.2074 -1.6145
  298MOL0     H40204   4.603   0.781   6.199  1.3670 -1.4967  0.5432
  298MOL0     H40205   4.639   0.847   6.048 -0.8615  1.1902 -0.2967
  298MOL0     H40206   4.841   0.721   6.233  3.0470  0.5604  0.6732
  298MOL0     H40207   4.900   0.835   6.115  1.9596 -2.7756 -0.4032
  298MOL0     H40208   4.805   0.725   5.928 -1.3126  0.7223  0.1912
  298MOL0     H40209   4.904   0.607   6.017 -0.8817 -0.4391  0.0551
  298MOL0     H40210   4.252   1.353   6.493 -4.5800 -2.0232  0.1666
  298MOL0     H40211   4.034   1.399   6.458  0.9840  1.7084  1.4362
  298MOL0     H40212   3.599   1.580   6.512  2.7935 -3.4542 -0.7153
  298MOL0     H40213   3.374   1.590   6.436  1.0844  0.5279  0.1582
  298MOL0     H40214   1.478   1.119   5.822 -0.9704 -0.8112  0.7573
  298MOL0     H40215   1.306   0.960   5.758 -0.9374 -0.7437  0.3451
  298MOL0     H40216   1.283   0.604   5.407  0.1586  0.0709  0.3460
  298MOL0     H40217   1.150   0.424   5.298 -0.1676  0.5924 -0.0983
  298MOL0     H40218   0.835   0.342   5.437 -0.6982 -0.8297 -0.2686
  298MOL0     H40219   0.848   0.186   5.513 -2.2245 -0.5562 -0.6279
  298MOL0     H40220   0.785   0.251   5.215 -0.9288 -0.8927 -1.3081
  298MOL0     H40221   0.676   0.199   5.342 -1.0725  0.2007 -0.8892
  298MOL0     H40222   0.915   0.034   5.270  0.7625 -0.1080  0.6189
  298MOL0     H40223   0.764   0.030   5.170 -3.0586  0.4389  1.2297
  298MOL0     H40224   0.788  -0.156   5.358 -0.5337 -1.0311  1.1987
  298MOL0     H40225   0.748  -0.041   5.478  4.7361  0.2828 -0.1201
  298MOL0     H40226   0.392  -0.115   5.246 -0.6687 -1.9145  1.6600
  298MOL0     H40227   1.035   0.256   5.665  2.6982 -2.9957 -0.8966
  298MOL0     H40228   1.223   0.395   5.887  0.4798 -1.7591 -1.4411
  298MOL0     H40229   1.138   0.544   5.870  0.0440 -0.4166  0.1969
  298MOL0     H40230   1.047   0.390   5.861  0.8276 -0.0672  1.3898
  299MOL0     O40231   7.157   5.062   2.327 -0.3516  0.4393  0.6673
  299MOL0     C40232   7.091   5.119   2.244 -0.4724  0.9409  1.0093
  299MOL0     O40233   7.140   5.143   2.118  0.3105 -0.1703 -0.9245
  299MOL0     C40234   7.268   5.116   2.080  0.7511  0.1727 -0.6766
  299MOL0     C40235   7.305   5.182   1.959  0.1086 -0.3783 -0.4035
  299MOL0     C40236   7.437   5.193   1.910 -0.4692  0.1104  0.0905
  299MOL0     C40237   7.544   5.118   1.974  0.2274 -0.3851  0.4521
  299MOL0     O40238   7.675   5.135   1.947  0.0430 -0.6217  0.3715
  299MOL0     C40239   7.776   5.153   2.045 -0.7766 -0.3198 -0.0512
  299MOL0     C40240   7.891   5.253   2.006  0.0262 -0.6880 -1.1533
  299MOL0     C40241   8.012   5.258   2.097 -0.7469 -0.3908 -0.6583
  299MOL0     C40242   8.108   5.370   2.048 -0.1231  0.5213  0.3673
  299MOL0     C40243   8.236   5.368   2.131 -0.4248  0.5556 -0.2919
  299MOL0     C40244   8.334   5.477   2.073 -0.6829  0.0794  0.2082
  299MOL0     C40245   8.479   5.451   2.116  0.1473  0.3865  0.1719
  299MOL0     C40246   8.508   5.525   2.249  0.2153 -0.0145  0.5643
  299MOL0     N40247   8.646   5.519   2.294 -0.0460  0.2590 -0.2350
  299MOL0     C40248   8.751   5.570   2.221  0.1438  0.2751 -0.4298
  299MOL0     C40249   8.864   5.545   2.283 -0.3591  0.7509  0.7605
  299MOL0     C40250   9.000   5.592   2.237  0.1539  0.3975 -0.3838
  299MOL0     C40251   9.111   5.551   2.336 -0.1300  0.1848  0.4253
  299MOL0     C40252   9.113   5.643   2.453  0.3317  0.0722  0.9193
  299MOL0     C40253   9.253   5.629   2.528  0.7998  0.3520 -0.1162
  299MOL0     O40254   9.218   5.663   2.663 -0.3757  0.8499  0.3454
  299MOL0     C40255   9.322   5.679   2.758  0.3792 -0.3546  0.0400
  299MOL0     C40256   9.284   5.695   2.891  0.3170 -0.1045 -0.0177
  299MOL0     C40257   9.379   5.714   2.995  0.6465 -0.0019 -0.5774
  299MOL0     C40258   9.519   5.725   2.963 -0.5974  0.7402 -0.4181
  299MOL0     C40259   9.619   5.767   3.064  0.3094  0.2751  0.2895
  299MOL0     O40260   9.748   5.728   3.037 -0.2188  0.5769 -0.3003
  299MOL0     C40261   9.863   5.761   3.113  1.3732 -0.3755 -0.4587
  299MOL0     C40262   9.973   5.673   3.101 -0.7854  0.3002 -1.2491
  299MOL0     C40263  10.097   5.701   3.168  0.2415 -0.0160  0.8127
  299MOL0     C40264  10.106   5.824   3.241  0.0895 -0.0847  0.7731
  299MOL0     O40265  10.223   5.842   3.303  0.4263  0.1315  0.0132
  299MOL0     C40266  10.252   5.970   3.365 -0.0874  0.4185  0.9401
  299MOL0     C40267  10.403   5.966   3.362 -0.2450  0.0940 -0.2451
  299MOL0     C40268  10.462   5.896   3.488 -0.7259  1.2459  0.2937
  299MOL0     C40269  10.621   5.897   3.475 -0.2682  0.4586  0.6581
  299MOL0     C40270  10.695   5.870   3.610 -0.0362 -0.5031  0.2301
  299MOL0     C40271  10.848   5.891   3.598 -1.2846  0.3646  0.1862
  299MOL0     C40272  10.919   5.813   3.484 -0.7478  0.5947 -0.3855
  299MOL0     C40273  11.072   5.801   3.495 -0.1977 -0.4940  0.4405
  299MOL0    Cl40274  11.150   5.681   3.394  0.0683  0.1736  0.0469
  299MOL0     C40275   9.992   5.906   3.259  0.5874  0.1194  0.7552
  299MOL0     C40276   9.868   5.879   3.194  0.3230  0.7969 -0.5218
  299MOL0     O40277   9.575   5.823   3.167  0.1928  0.2286 -0.0940
  299MOL0     C40278   9.562   5.698   2.831  0.8741 -0.0812  0.2009
  299MOL0     C40279   9.463   5.681   2.732  0.4253 -0.1791 -0.5296
  299MOL0     N40280   8.837   5.478   2.402  0.4496 -0.2812 -0.4511
  299MOL0     N40281   8.702   5.455   2.404 -0.5439  0.2139  0.0977
  299MOL0     C40282   7.506   5.061   2.094  0.2214 -0.5495 -0.0533
  299MOL0     C40283   7.374   5.055   2.144 -0.6538 -0.1941  0.2781
  299MOL0     C40284   6.949   5.159   2.288 -0.2051 -0.2430 -0.6069
  299MOL0     C40285   6.918   5.139   2.419  1.1805  0.4455 -0.8457
  299MOL0     C40286   6.793   5.163   2.477 -0.3346 -0.5054  0.1014
  299MOL0     C40287   6.688   5.215   2.402  0.0379  0.8389  0.2393
  299MOL0     O40288   6.561   5.238   2.445 -0.1075 -0.4516  0.1931
  299MOL0     C40289   6.531   5.198   2.579  0.7602  0.1241  0.4749
  299MOL0     C40290   6.401   5.268   2.611  0.3624 -0.3532  0.1139
  299MOL0     C40291   6.385   5.274   2.765  0.6537  0.0708 -0.9324
  299MOL0     C40292   6.259   5.345   2.803 -0.1224  0.2240  1.3540
  299MOL0     C40293   6.218   5.338   2.939 -0.5726  0.1462  0.5084
  299MOL0     C40294   6.189   5.326   3.052 -1.3757 -1.0088  0.4017
  299MOL0     C40295   6.717   5.250   2.264 -0.0044 -0.0137 -0.0156
  299MOL0     C40296   6.846   5.230   2.213  0.3761  0.5666  0.4078
  299MOL0     C40297   6.872   5.281   2.074  0.0872 -0.0932  0.6138
  299MOL0     H40298   7.233   5.242   1.905 -1.1339 -1.6276 -0.1721
  299MOL0     H40299   7.452   5.238   1.812 -1.0957 -0.5354 -0.3109
  299MOL0     H40300   7.745   5.194   2.142  2.8212 -0.3360  1.2529
  299MOL0     H40301   7.819   5.054   2.061 -0.3111  0.0748  1.3163
  299MOL0     H40302   7.855   5.352   1.978  1.9927  0.3291 -0.2440
  299MOL0     H40303   7.926   5.226   1.906  0.1252  1.8617 -1.8624
  299MOL0     H40304   8.062   5.160   2.093 -3.0152 -1.7289  1.2109
  299MOL0     H40305   7.981   5.276   2.201 -1.2796  0.7942 -1.0093
  299MOL0     H40306   8.125   5.365   1.940 -0.9867  2.6933  0.0866
  299MOL0     H40307   8.057   5.461   2.081 -2.1329 -0.7305  0.8861
  299MOL0     H40308   8.221   5.397   2.236  1.3573  2.6722 -0.5436
  299MOL0     H40309   8.282   5.269   2.129 -1.2756  0.1278  0.4667
  299MOL0     H40310   8.335   5.477   1.964  0.7619 -0.3989  0.2045
  299MOL0     H40311   8.300   5.576   2.107  0.3324 -0.5593  3.3910
  299MOL0     H40312   8.527   5.505   2.034 -2.9585  2.1142 -0.6710
  299MOL0     H40313   8.502   5.344   2.119  0.5121  0.4322 -0.7178
  299MOL0     H40314   8.480   5.631   2.243 -1.2074 -0.3918  0.1593
  299MOL0     H40315   8.449   5.468   2.322  2.8872 -0.9189  2.1629
  299MOL0     H40316   8.736   5.634   2.134 -0.8442  0.4759 -0.1201
  299MOL0     H40317   9.016   5.542   2.141  0.2661  1.5730 -1.0023
  299MOL0     H40318   9.008   5.699   2.216  2.7777  0.1689 -0.8406
  299MOL0     H40319   9.088   5.450   2.370 -1.7857  1.1388  2.3363
  299MOL0     H40320   9.210   5.541   2.292 -0.2921 -0.6481  0.2351
  299MOL0     H40321   9.039   5.593   2.516  0.4648 -1.3954 -0.0478
  299MOL0     H40322   9.088   5.746   2.427  0.2610  0.0528  0.9135
  299MOL0     H40323   9.323   5.698   2.481  4.0248 -2.1856  0.5837
  299MOL0     H40324   9.290   5.526   2.519 -1.2976 -0.9749  3.9104
  299MOL0     H40325   9.180   5.685   2.920 -0.4035  0.5206 -2.1482
  299MOL0     H40326   9.347   5.737   3.097 -2.8540  0.3714 -1.6086
  299MOL0     H40327   9.979   5.584   3.039  3.2189 -0.8860  0.5309
  299MOL0     H40328  10.188   5.643   3.178  0.1457 -0.0813  1.3508
  299MOL0     H40329  10.208   6.057   3.316 -2.3464  0.0716  2.1949
  299MOL0     H40330  10.212   5.964   3.467 -1.5309 -2.0573  0.2986
  299MOL0     H40331  10.438   5.920   3.269 -0.8960 -2.7337  0.8257
  299MOL0     H40332  10.441   6.069   3.371 -1.4891  1.1128 -4.3847
  299MOL0     H40333  10.417   5.944   3.575 -2.5524  0.1245  0.0182
  299MOL0     H40334  10.432   5.791   3.496  1.2380  0.6832  0.9413
  299MOL0     H40335  10.661   5.988   3.429  0.8780 -0.6115 -0.5568
  299MOL0     H40336  10.648   5.817   3.406  1.0175  0.1163  1.5232
  299MOL0     H40337  10.677   5.765   3.634 -0.7327 -0.9157 -1.8331
  299MOL0     H40338  10.666   5.931   3.696  2.1862 -0.0884  0.7250
  299MOL0     H40339  10.868   5.999   3.605  2.5233 -0.0441 -1.7385
  299MOL0     H40340  10.891   5.847   3.688  1.5178 -0.5520 -1.4702
  299MOL0     H40341  10.898   5.874   3.395 -0.6895 -1.2152 -1.6865
  299MOL0     H40342  10.884   5.710   3.485 -0.2599  0.4105  1.4254
  299MOL0     H40343  11.124   5.897   3.480  1.9835 -1.6562  0.1858
  299MOL0     H40344  11.101   5.788   3.599 -0.6170  0.6039  0.7121
  299MOL0     H40345   9.995   6.000   3.314 -1.0991 -0.0007  1.0925
  299MOL0     H40346   9.782   5.945   3.208  0.1349  0.9484 -2.1872
  299MOL0     H40347   9.666   5.720   2.811  0.6951  1.4117  0.7816
  299MOL0     H40348   9.486   5.665   2.628  1.6032  3.1111 -0.8879
  299MOL0     H40349   7.580   5.012   2.157 -1.6374 -1.7559  1.2893
  299MOL0     H40350   7.366   4.993   2.234 -0.2592 -1.7219 -0.6952
  299MOL0     H40351   6.992   5.084   2.476  1.0389 -0.1004 -1.1790
  299MOL0     H40352   6.783   5.127   2.579 -2.4984 -1.0347 -0.2379
  299MOL0     H40353   6.608   5.220   2.653  0.9957 -0.1915  0.3272
  299MOL0     H40354   6.519   5.089   2.579  2.3728 -0.2190 -3.2605
  299MOL0     H40355   6.317   5.222   2.558  1.4935 -2.1466 -0.2157
  299MOL0     H40356   6.408   5.371   2.575 -0.5221 -0.8778 -1.6809
  299MOL0     H40357   6.474   5.320   2.809  1.4602 -2.5262  0.3589
  299MOL0     H40358   6.386   5.170   2.799 -0.6772  0.1473 -0.5983
  299MOL0     H40359   6.260   5.450   2.771 -1.0668  0.6117  2.5364
  299MOL0     H40360   6.177   5.294   2.753 -3.2578  1.8906  4.3802
  299MOL0     H40361   6.149   5.322   3.151 -0.2754 -3.3618  0.8181
  299MOL0     H40362   6.642   5.292   2.199 -2.2104  0.5030  2.6606
  299MOL0     H40363   6.887   5.191   2.013  0.7470  0.3052  0.1748
  299MOL0     H40364   6.795   5.350   2.037  0.1168  0.1439  0.9981
  299MOL0     H40365   6.973   5.323   2.069 -0.2290  0.6636 -4.1040
  300MOL0     O40366  10.944   9.046   9.832  0.2273 -0.6614 -0.6598
  300MOL0     C40367  10.867   9.096   9.752  0.3981  0.5691  0.3894
  300MOL0     O40368  10.911   9.156   9.633  0.4489 -0.0545 -0.0653
  300MOL0     C40369  11.044   9.190   9.633  0.2289 -1.2596  0.1342
  300MOL0     C40370  11.144   9.110   9.568  0.3919  0.3112 -0.1688
  300MOL0     C40371  11.277   9.137   9.578  0.5015 -0.7818  0.0167
  300MOL0     C40372  11.320   9.251   9.644  0.5017  0.2166 -0.2049
  300MOL0     O40373  11.453   9.277   9.655 -0.5378 -0.0107 -0.7490
  300MOL0     C40374  11.516   9.340   9.771  0.3636 -0.1896 -0.1446
  300MOL0     C40375  11.649   9.406   9.725 -0.2179  0.3121  0.6149
  300MOL0     C40376  11.742   9.312   9.646 -0.0447 -0.2613  0.0126
  300MOL0     C40377  11.886   9.356   9.631 -0.2546 -0.2909 -0.0576
  300MOL0     C40378  11.953   9.279   9.511  0.7409 -0.2139 -0.0845
  300MOL0     C40379  12.093   9.335   9.484 -1.0778 -1.1989  0.1932
  300MOL0     C40380  12.178   9.237   9.401  0.7240  0.2042 -0.6992
  300MOL0     C40381  12.323   9.285   9.398 -0.4177 -0.6094 -0.5467
  300MOL0     N40382  12.383   9.252   9.270 -0.8846 -0.3166 -0.1252
  300MOL0     C40383  12.455   9.141   9.240 -0.0625 -0.2480 -1.0765
  300MOL0     C40384  12.526   9.158   9.129  0.7641  0.0714  0.3470
  300MOL0     C40385  12.630   9.060   9.070  0.1610  0.2596  0.8064
  300MOL0     C40386  12.763   9.146   9.056  0.1338  0.5699 -0.2169
  300MOL0     C40387  12.829   9.202   9.179 -0.1139  0.0072 -0.4459
  300MOL0     C40388  12.967   9.252   9.151  0.3231  0.4502  0.5727
  300MOL0     O40389  13.052   9.159   9.081  0.9645 -0.2209  0.0352
  300MOL0     C40390  13.181   9.209   9.043  1.1826  0.2478 -0.3672
  300MOL0     C40391  13.226   9.337   9.060 -0.7192  0.2302  0.8823
  300MOL0     C40392  13.363   9.358   9.026  0.1942 -0.4647 -0.5869
  300MOL0     C40393  13.447   9.255   8.977 -0.3938 -0.7852  0.5095
  300MOL0     C40394  13.586   9.282   8.946 -0.2430 -0.1946  0.5114
  300MOL0     O40395  13.645   9.206   8.846 -0.5121  0.9997 -0.1192
  300MOL0     C40396  13.780   9.226   8.826 -0.6228 -0.2383  0.1116
  300MOL0     C40397  13.824   9.272   8.701 -0.4532 -0.6098 -1.1520
  300MOL0     C40398  13.954   9.288   8.666 -0.6177 -0.0077 -0.0760
  300MOL0     C40399  14.058   9.259   8.753  0.1173 -0.6101  0.6861
  300MOL0     O40400  14.193   9.257   8.724 -0.2182  0.3348 -0.2437
  300MOL0     C40401  14.237   9.243   8.586 -0.0437  0.6732 -0.3708
  300MOL0     C40402  14.359   9.163   8.575 -0.2056  0.0400 -1.4348
  300MOL0     C40403  14.487   9.247   8.593 -0.6463 -0.1261 -1.2974
  300MOL0     C40404  14.618   9.166   8.581  0.1903  0.3022  0.0259
  300MOL0     C40405  14.736   9.280   8.571  0.2336  0.3782  0.3643
  300MOL0     C40406  14.848   9.253   8.463  0.7624 -0.2153  0.2183
  300MOL0     C40407  14.935   9.383   8.447  0.8001  0.0227  0.2405
  300MOL0     C40408  15.057   9.360   8.354 -0.8591  0.2337  0.2210
  300MOL0    Cl40409  15.177   9.258   8.447  0.7597  0.2709 -0.2357
  300MOL0     C40410  14.017   9.242   8.888  0.3507  0.6966  0.0001
  300MOL0     C40411  13.884   9.214   8.922 -0.1165 -0.2138  0.4815
  300MOL0     O40412  13.632   9.373   9.006  0.1475 -0.5707 -0.8076
  300MOL0     C40413  13.397   9.132   8.975  0.0297  0.5758 -0.4302
  300MOL0     C40414  13.265   9.106   9.000  0.7126 -1.1711  0.0799
  300MOL0     N40415  12.503   9.290   9.091 -0.6052  0.3078 -0.2192
  300MOL0     N40416  12.422   9.342   9.171  0.0875  0.2935 -0.1277
  300MOL0     C40417  11.225   9.336   9.703 -0.2140  0.5853 -0.0111
  300MOL0     C40418  11.086   9.314   9.692  0.3771  1.0843  0.9501
  300MOL0     C40419  10.718   9.096   9.774  0.0005  0.0627  0.5780
  300MOL0     C40420  10.642   9.144   9.661 -0.8777  0.3272 -0.1464
  300MOL0     C40421  10.509   9.161   9.666  1.3020 -0.1977 -0.4711
  300MOL0     C40422  10.429   9.104   9.771 -0.5176 -0.2151  0.0885
  300MOL0     O40423  10.291   9.108   9.789 -0.1136 -0.4745  0.1111
  300MOL0     C40424  10.208   9.163   9.680 -0.3623 -0.8820  0.4517
  300MOL0     C40425  10.059   9.144   9.724  0.1151 -0.4567 -1.9623
  300MOL0     C40426   9.953   9.158   9.627  0.7858  0.4227  0.4995
  300MOL0     C40427   9.876   9.289   9.619 -0.2098 -0.4656  0.2043
  300MOL0     C40428   9.759   9.271   9.534  0.5246  0.8060  0.4202
  300MOL0     C40429   9.658   9.264   9.465  0.6970 -0.0944 -1.2548
  300MOL0     C40430  10.497   9.036   9.869  0.4380 -0.0363  0.4210
  300MOL0     C40431  10.640   9.031   9.879 -0.5201 -0.9225 -0.5425
  300MOL0     C40432  10.696   8.972  10.005 -0.1086  0.6733 -0.3835
  300MOL0     H40433  11.118   9.021   9.512  1.5658 -1.0489  1.3284
  300MOL0     H40434  11.344   9.055   9.551 -1.2645 -1.2104 -3.7783
  300MOL0     H40435  11.458   9.428   9.799  0.5464  0.3934 -1.5432
  300MOL0     H40436  11.542   9.272   9.853  0.2606  0.4864  0.4607
  300MOL0     H40437  11.704   9.449   9.809 -0.5515 -1.8986  2.0615
  300MOL0     H40438  11.625   9.483   9.652  0.3195 -1.2292 -1.2835
  300MOL0     H40439  11.689   9.306   9.551 -2.9386  2.9521  1.2319
  300MOL0     H40440  11.735   9.218   9.703 -0.4785 -0.9704 -1.1909
  300MOL0     H40441  11.902   9.464   9.625  2.3352 -0.6547 -0.8453
  300MOL0     H40442  11.938   9.332   9.725 -1.7619 -2.3511  0.3216
  300MOL0     H40443  11.963   9.172   9.534 -1.8228 -0.5034 -0.0507
  300MOL0     H40444  11.895   9.289   9.419  0.8812  2.3411  0.0417
  300MOL0     H40445  12.082   9.428   9.427  1.1238 -0.0651  1.4608
  300MOL0     H40446  12.133   9.365   9.581 -2.5046 -0.2228  0.5127
  300MOL0     H40447  12.138   9.240   9.300  1.8240  2.0355 -1.1070
  300MOL0     H40448  12.162   9.134   9.437 -2.5163  0.8994  0.2103
  300MOL0     H40449  12.320   9.394   9.407 -3.7240 -0.4953 -1.6271
  300MOL0     H40450  12.377   9.246   9.485  1.3230  1.5394 -0.5861
  300MOL0     H40451  12.460   9.056   9.307  0.3663 -2.4968 -3.8418
  300MOL0     H40452  12.652   8.979   9.140  2.2107  0.8256  0.8759
  300MOL0     H40453  12.600   9.019   8.973 -1.4590  1.0283  0.9413
  300MOL0     H40454  12.823   9.063   9.016 -0.4461 -0.0960  0.2674
  300MOL0     H40455  12.738   9.222   8.982 -0.8970  2.7751  2.2458
  300MOL0     H40456  12.836   9.125   9.257 -0.8346  1.8472  1.5364
  300MOL0     H40457  12.767   9.280   9.226  2.1930  1.4228  0.4410
  300MOL0     H40458  13.015   9.278   9.246  5.3466 -0.2284 -1.4481
  300MOL0     H40459  12.958   9.345   9.094  0.1899  0.5675  0.7842
  300MOL0     H40460  13.160   9.417   9.091 -0.3316  0.8893  0.0582
  300MOL0     H40461  13.394   9.462   9.035  0.3214 -0.4287 -1.4204
  300MOL0     H40462  13.748   9.277   8.624 -0.6656  0.0100 -0.9086
  300MOL0     H40463  13.981   9.317   8.564 -0.3535 -0.2617 -0.0801
  300MOL0     H40464  14.163   9.198   8.520  1.7803 -0.1431 -1.9261
  300MOL0     H40465  14.265   9.339   8.541  0.9868  0.6632  0.2053
  300MOL0     H40466  14.348   9.088   8.653 -2.2730  0.4835 -1.2393
  300MOL0     H40467  14.363   9.112   8.478  2.3828 -3.5874  0.3721
  300MOL0     H40468  14.477   9.328   8.520  0.0518  2.3561  1.1962
  300MOL0     H40469  14.479   9.293   8.692 -0.9645  0.7274 -1.7103
  300MOL0     H40470  14.624   9.109   8.487 -0.2066  2.8727 -1.6646
  300MOL0     H40471  14.634   9.105   8.670 -0.6030  1.8396  1.2788
  300MOL0     H40472  14.782   9.303   8.668  0.9213  0.8336 -0.0549
  300MOL0     H40473  14.683   9.367   8.533 -0.8312 -0.4493 -0.0771
  300MOL0     H40474  14.906   9.169   8.501 -1.0321 -1.8264 -0.4295
  300MOL0     H40475  14.809   9.219   8.367 -0.1495  0.9395  0.1525
  300MOL0     H40476  14.969   9.421   8.544 -2.5342  0.1750  1.4531
  300MOL0     H40477  14.865   9.451   8.398 -1.0793 -1.8464  0.2384
  300MOL0     H40478  15.020   9.313   8.263 -0.4391 -0.8175  0.5745
  300MOL0     H40479  15.111   9.451   8.327  2.8065 -1.7309  0.2898
  300MOL0     H40480  14.094   9.242   8.964  0.7584 -1.9744 -0.3092
  300MOL0     H40481  13.857   9.169   9.016 -0.5962 -1.7621 -0.3645
  300MOL0     H40482  13.453   9.047   8.937 -3.5146 -2.3465  0.3952
  300MOL0     H40483  13.233   9.003   8.996 -0.3718 -1.0748  3.5393
  300MOL0     H40484  11.259   9.430   9.746 -0.4694  0.4343  0.5329
  300MOL0     H40485  11.024   9.386   9.744 -1.1584  0.2970  0.2556
  300MOL0     H40486  10.685   9.163   9.564  2.6665 -0.1450  1.1683
  300MOL0     H40487  10.450   9.196   9.582  1.6980 -0.7311 -0.9776
  300MOL0     H40488  10.231   9.105   9.590 -1.7623  1.9862 -1.9330
  300MOL0     H40489  10.218   9.265   9.641  0.8361 -1.0993  0.1503
  300MOL0     H40490  10.047   9.219   9.803  3.1314 -0.6781 -1.1498
  300MOL0     H40491  10.058   9.043   9.766  2.9634  0.7537  1.5624
  300MOL0     H40492   9.880   9.079   9.642  1.0132  0.1401  0.1413
  300MOL0     H40493  10.004   9.149   9.530  0.1367 -1.2745  0.2851
  300MOL0     H40494   9.839   9.315   9.719 -0.2130  1.2054 -0.2183
  300MOL0     H40495   9.940   9.369   9.582 -2.3316  0.7553 -0.9872
  300MOL0     H40496   9.575   9.251   9.399  0.0972  1.4089 -0.8487
  300MOL0     H40497  10.445   9.009   9.960 -0.7524 -4.7214 -1.3914
  300MOL0     H40498  10.673   9.037  10.090 -1.4046 -1.1100  0.6974
  300MOL0     H40499  10.641   8.880  10.028 -0.3189  0.4786 -1.6134
  300MOL0     H40500  10.804   8.959  10.001 -0.0249  1.4285 -0.8097
  301MOL0     O40501   5.256   2.676   9.420 -0.4342  0.0549 -0.6739
  301MOL0     C40502   5.289   2.785   9.378  0.3428 -0.5749  0.0460
  301MOL0     O40503   5.375   2.809   9.277  0.6868  0.5768  0.2034
  301MOL0     C40504   5.423   2.697   9.209 -0.1459 -0.1552 -0.1590
  301MOL0     C40505   5.547   2.634   9.236  0.4581 -0.1952 -0.7514
  301MOL0     C40506   5.586   2.521   9.171  0.1060 -0.3924 -0.5699
  301MOL0     C40507   5.505   2.466   9.076 -0.1362  0.5710 -0.2861
  301MOL0     O40508   5.551   2.352   9.008  0.2486  0.0772  0.5302
  301MOL0     C40509   5.462   2.256   8.949  0.3575 -0.1688 -0.5765
  301MOL0     C40510   5.522   2.125   8.882 -0.1516 -0.3438 -0.3057
  301MOL0     C40511   5.639   2.165   8.791  0.6452  0.1114 -0.0322
  301MOL0     C40512   5.691   2.038   8.715 -0.8166 -0.4660  0.1041
  301MOL0     C40513   5.824   2.064   8.639  0.4156  0.6686 -0.5399
  301MOL0     C40514   5.951   2.075   8.726 -0.0505 -0.2347  0.5715
  301MOL0     C40515   5.957   1.970   8.837 -1.0921  0.3396  0.7041
  301MOL0     C40516   6.090   1.980   8.912 -0.5721 -0.3062  1.2624
  301MOL0     N40517   6.211   1.983   8.829 -0.4351  0.5237 -0.2200
  301MOL0     C40518   6.258   1.872   8.760  0.3455  0.5508  0.9227
  301MOL0     C40519   6.379   1.913   8.713 -0.0368  0.1405  0.1687
  301MOL0     C40520   6.453   1.822   8.617 -0.1328 -0.2734 -0.0994
  301MOL0     C40521   6.604   1.816   8.650 -0.3060  0.0836  0.5173
  301MOL0     C40522   6.695   1.760   8.538  0.7687 -0.2254  0.4360
  301MOL0     C40523   6.838   1.726   8.600  0.0519  0.8335  0.1344
  301MOL0     O40524   6.917   1.845   8.593  0.3780  0.1068 -1.6716
  301MOL0     C40525   7.044   1.840   8.637  0.5787 -0.4602  0.6055
  301MOL0     C40526   7.109   1.961   8.654  0.8917  0.1718 -0.1001
  301MOL0     C40527   7.238   1.983   8.695  0.2660 -0.1605 -0.1108
  301MOL0     C40528   7.317   1.866   8.718  0.0436 -1.0513 -0.0806
  301MOL0     C40529   7.463   1.868   8.741 -0.2977  0.7031  0.1509
  301MOL0     O40530   7.522   1.995   8.731  0.4594 -0.0160 -0.6252
  301MOL0     C40531   7.648   2.016   8.792  0.0272  0.1400  1.1869
  301MOL0     C40532   7.767   1.951   8.752  0.2512  0.4065  0.4875
  301MOL0     C40533   7.902   1.983   8.799  0.3449 -0.2137 -0.1612
  301MOL0     C40534   7.909   2.092   8.896  0.0936  0.4803  0.3332
  301MOL0     O40535   8.022   2.139   8.939  0.4102  0.4622  0.1616
  301MOL0     C40536   8.148   2.086   8.907 -0.6633 -0.2899  0.6747
  301MOL0     C40537   8.244   2.156   9.001  0.3615  0.8690 -0.4270
  301MOL0     C40538   8.239   2.305   8.994  0.7772 -0.7401 -0.0775
  301MOL0     C40539   8.298   2.360   9.129 -0.0759 -0.1052  0.0749
  301MOL0     C40540   8.444   2.319   9.144 -0.1231  0.1733 -0.7599
  301MOL0     C40541   8.507   2.378   9.273 -0.0802  0.0307  0.1006
  301MOL0     C40542   8.527   2.528   9.267 -0.9675  0.4873 -0.6495
  301MOL0     C40543   8.512   2.591   9.410 -0.2436  0.6257 -0.2591
  301MOL0    Cl40544   8.653   2.554   9.519  0.2208  0.2361 -0.3097
  301MOL0     C40545   7.786   2.152   8.935 -0.3142 -0.0629  0.2782
  301MOL0     C40546   7.662   2.117   8.887 -0.3095  0.0574  0.0498
  301MOL0     O40547   7.514   1.761   8.781  0.7782  0.2199  0.4057
  301MOL0     C40548   7.247   1.742   8.703 -0.6300 -0.0243 -0.5316
  301MOL0     C40549   7.117   1.733   8.667  0.5535 -0.0587 -0.3923
  301MOL0     N40550   6.393   2.039   8.753 -0.4259 -0.4113  0.7928
  301MOL0     N40551   6.303   2.082   8.826  0.3121 -0.0568  0.3564
  301MOL0     C40552   5.383   2.528   9.044  0.1115  0.0309  0.0154
  301MOL0     C40553   5.341   2.643   9.108  0.0484 -0.1325  0.2475
  301MOL0     C40554   5.200   2.895   9.416  0.4272 -0.6162  0.0701
  301MOL0     C40555   5.199   3.019   9.342  0.3733 -0.4124 -0.0653
  301MOL0     C40556   5.108   3.123   9.385 -0.9846 -0.5190  0.6849
  301MOL0     C40557   5.045   3.124   9.502  0.7889  0.3402 -0.5713
  301MOL0     O40558   4.980   3.243   9.541  0.4959  0.4609 -0.5344
  301MOL0     C40559   4.863   3.229   9.629  0.7320  0.3328  0.0489
  301MOL0     C40560   4.750   3.150   9.559 -1.2133 -0.8112 -0.3753
  301MOL0     C40561   4.740   3.162   9.410  0.7222  1.0103  0.4373
  301MOL0     C40562   4.601   3.209   9.360 -0.0711 -1.0691  0.6218
  301MOL0     C40563   4.494   3.110   9.388 -0.3222 -0.6141  1.4043
  301MOL0     C40564   4.417   3.024   9.421 -0.1424  0.9716 -0.0135
  301MOL0     C40565   5.051   3.008   9.580  0.2640  0.4806  0.4682
  301MOL0     C40566   5.135   2.899   9.545 -0.1564  0.9028  0.6220
  301MOL0     C40567   5.148   2.793   9.648  1.2906 -0.4012  0.3522
  301MOL0     H40568   5.610   2.693   9.303  1.1890  0.3181 -1.8609
  301MOL0     H40569   5.680   2.468   9.187  1.4500  1.8286 -0.7135
  301MOL0     H40570   5.401   2.223   9.034 -0.0523  2.2193  0.1487
  301MOL0     H40571   5.393   2.295   8.872 -3.5194 -3.2453  1.0087
  301MOL0     H40572   5.442   2.079   8.823 -0.0890 -2.4316  1.1320
  301MOL0     H40573   5.563   2.053   8.953 -0.2353  2.7156  3.1449
  301MOL0     H40574   5.716   2.213   8.852 -0.1546  0.5296  0.6680
  301MOL0     H40575   5.606   2.240   8.718  0.4580  0.7820  0.7331
  301MOL0     H40576   5.705   1.966   8.796 -0.7763 -0.1597  0.3727
  301MOL0     H40577   5.617   2.005   8.642 -0.2068  1.5458 -1.5433
  301MOL0     H40578   5.834   1.983   8.566  1.5550 -0.1947  0.5223
  301MOL0     H40579   5.808   2.156   8.583  1.2906  2.8711  2.5646
  301MOL0     H40580   6.040   2.069   8.663  0.9035  1.6749  1.6608
  301MOL0     H40581   5.955   2.171   8.777 -2.7596 -1.4062  3.3179
  301MOL0     H40582   5.956   1.868   8.798 -0.6013 -0.5854  2.9329
  301MOL0     H40583   5.875   1.987   8.907 -1.3504 -1.1779  0.7978
  301MOL0     H40584   6.097   2.062   8.984  0.7743  1.0992 -0.3959
  301MOL0     H40585   6.104   1.884   8.964  3.2193  0.3955  1.8585
  301MOL0     H40586   6.211   1.776   8.745  1.8253 -0.0615 -0.0193
  301MOL0     H40587   6.398   1.729   8.625  0.0373 -0.3570  0.0967
  301MOL0     H40588   6.436   1.873   8.521 -0.3092 -1.6717 -0.8397
  301MOL0     H40589   6.639   1.919   8.664 -1.2194  0.3475  0.9236
  301MOL0     H40590   6.601   1.761   8.745 -0.2677 -1.2316 -0.2140
  301MOL0     H40591   6.688   1.826   8.451  0.7581 -0.3831  0.3163
  301MOL0     H40592   6.654   1.664   8.506  0.0822  0.4453 -0.7629
  301MOL0     H40593   6.871   1.644   8.535  0.3244  0.0187  1.2788
  301MOL0     H40594   6.819   1.680   8.697 -1.7780 -3.1954 -1.9146
  301MOL0     H40595   7.048   2.047   8.630  1.7945  0.7241 -0.4717
  301MOL0     H40596   7.271   2.086   8.704  0.8672 -0.3719  0.2151
  301MOL0     H40597   7.760   1.885   8.666  3.4900  2.4853 -1.5675
  301MOL0     H40598   7.987   1.927   8.761 -1.1422 -0.2636 -3.7736
  301MOL0     H40599   8.150   1.977   8.915  1.2958 -0.3023  0.4708
  301MOL0     H40600   8.174   2.118   8.806  0.5489 -1.7033  0.5033
  301MOL0     H40601   8.210   2.115   9.096  0.5807 -1.6075 -1.3278
  301MOL0     H40602   8.345   2.116   8.985  1.7252  3.3790  1.2516
  301MOL0     H40603   8.293   2.340   8.906  0.2154 -1.1212 -0.5801
  301MOL0     H40604   8.136   2.342   8.990  1.4872  1.2304 -1.5053
  301MOL0     H40605   8.246   2.327   9.220  0.5741 -0.8683  0.1838
  301MOL0     H40606   8.300   2.469   9.127  1.0867 -0.1160 -0.7733
  301MOL0     H40607   8.516   2.351   9.068  0.7148  0.9513  0.3039
  301MOL0     H40608   8.444   2.213   9.168 -1.3719  0.1270 -0.9134
  301MOL0     H40609   8.442   2.360   9.358 -0.6072  1.1261 -0.0479
  301MOL0     H40610   8.601   2.327   9.295 -1.0133 -0.7626  2.5151
  301MOL0     H40611   8.450   2.581   9.212 -1.4799  1.0744  0.5880
  301MOL0     H40612   8.630   2.545   9.235 -0.5404 -1.3394 -0.3589
  301MOL0     H40613   8.500   2.700   9.400  4.2156  1.4051  0.5889
  301MOL0     H40614   8.422   2.560   9.464 -0.5664  0.4447 -0.8901
  301MOL0     H40615   7.795   2.231   9.009  1.3935 -1.5978  1.8297
  301MOL0     H40616   7.586   2.184   8.925 -1.0114 -1.0291  0.5955
  301MOL0     H40617   7.291   1.653   8.746 -3.2099 -0.3139  1.8072
  301MOL0     H40618   7.082   1.631   8.657  1.5399 -0.3622 -0.8359
  301MOL0     H40619   5.323   2.491   8.962  0.9251 -0.5907 -0.3204
  301MOL0     H40620   5.251   2.694   9.074  0.3682 -0.1827 -0.7087
  301MOL0     H40621   5.248   3.028   9.245  3.1843 -2.7555  0.9981
  301MOL0     H40622   5.116   3.213   9.325  1.3255 -1.6433 -0.8613
  301MOL0     H40623   4.832   3.333   9.632 -2.7485 -0.6044  1.2055
  301MOL0     H40624   4.877   3.196   9.732  1.9134 -2.7533 -0.9657
  301MOL0     H40625   4.657   3.177   9.610 -1.0159  2.1180 -1.3949
  301MOL0     H40626   4.776   3.045   9.578  1.8436 -0.0311  0.2767
  301MOL0     H40627   4.768   3.069   9.359  0.6681  1.1395  0.1746
  301MOL0     H40628   4.802   3.244   9.375  1.7455  1.0831  2.2683
  301MOL0     H40629   4.582   3.307   9.404  0.7501 -1.4044  1.7547
  301MOL0     H40630   4.596   3.232   9.253 -0.0053  3.3244  1.3684
  301MOL0     H40631   4.341   2.960   9.459  0.0132  0.7050 -0.1500
  301MOL0     H40632   4.999   3.002   9.675  1.9085 -2.3972  1.3175
  301MOL0     H40633   5.085   2.811   9.736  2.5269  0.3068  1.1297
  301MOL0     H40634   5.112   2.700   9.604  1.5425  0.0760 -0.9174
  301MOL0     H40635   5.256   2.782   9.666  1.4616  0.9379  0.2952
  302MOL0     O40636   8.333   6.555   8.997  0.0242 -0.0443 -0.5504
  302MOL0     C40637   8.265   6.457   9.015  0.2740 -1.0117  0.5758
  302MOL0     O40638   8.314   6.326   9.011 -0.0864 -0.6789  0.3963
  302MOL0     C40639   8.453   6.314   8.987  0.5571  0.5052  0.0047
  302MOL0     C40640   8.504   6.304   8.863 -0.4876  0.4601  0.3962
  302MOL0     C40641   8.637   6.300   8.848 -0.0769 -0.4979 -0.3131
  302MOL0     C40642   8.725   6.288   8.958 -0.7383 -0.9016 -0.1466
  302MOL0     O40643   8.857   6.252   8.925  0.1202 -0.2817  0.2751
  302MOL0     C40644   8.932   6.179   9.024  0.3685  0.9325  0.8103
  302MOL0     C40645   9.062   6.137   8.953 -0.4128 -0.5057 -0.9455
  302MOL0     C40646   9.157   6.260   8.983  0.1001  0.8840  0.4565
  302MOL0     C40647   9.296   6.231   8.921  0.0774  0.2999  0.4581
  302MOL0     C40648   9.392   6.334   8.945  0.7920  0.2325  0.1836
  302MOL0     C40649   9.532   6.311   8.879 -0.4180  0.2805  0.3743
  302MOL0     C40650   9.635   6.424   8.911 -0.0748 -0.3954 -0.3232
  302MOL0     C40651   9.775   6.385   8.861  0.4117 -0.1907  0.3051
  302MOL0     N40652   9.861   6.501   8.851 -0.2333  0.0842  0.3482
  302MOL0     C40653   9.998   6.506   8.871  0.0422  0.3872 -0.8223
  302MOL0     C40654  10.034   6.638   8.882  0.6558  0.8658 -0.1154
  302MOL0     C40655  10.169   6.689   8.910 -0.4449 -0.4438  0.2466
  302MOL0     C40656  10.200   6.677   9.051  0.4175  0.6817 -0.2667
  302MOL0     C40657  10.347   6.701   9.087  0.8907  0.4258 -0.0974
  302MOL0     C40658  10.405   6.835   9.075  0.3922 -0.1273 -0.1433
  302MOL0     O40659  10.524   6.831   9.146 -0.5795 -0.7146  0.1899
  302MOL0     C40660  10.522   6.848   9.285  1.2609 -0.3305  0.1616
  302MOL0     C40661  10.643   6.857   9.346  0.5084 -0.6743 -0.3469
  302MOL0     C40662  10.663   6.844   9.490  0.4131  0.4967  1.3095
  302MOL0     C40663  10.552   6.822   9.571  0.2919 -0.2093  0.8235
  302MOL0     C40664  10.576   6.789   9.709  0.2379 -0.4614 -0.9543
  302MOL0     O40665  10.706   6.807   9.756 -0.1827 -0.1802 -0.7521
  302MOL0     C40666  10.748   6.764   9.884  0.5198 -0.6552 -0.6292
  302MOL0     C40667  10.819   6.850   9.959 -0.0267  0.6577 -0.0888
  302MOL0     C40668  10.883   6.818  10.079  0.6457  0.1490 -0.5698
  302MOL0     C40669  10.873   6.690  10.129  0.6208  0.1153  0.2943
  302MOL0     O40670  10.916   6.651  10.255  0.0724 -0.0408  0.2904
  302MOL0     C40671  10.939   6.747  10.356 -0.3569  0.4687  0.4428
  302MOL0     C40672  10.810   6.805  10.407  0.6918  0.6337 -0.2858
  302MOL0     C40673  10.730   6.692  10.479  0.1657 -0.5186 -0.0958
  302MOL0     C40674  10.813   6.592  10.565 -0.2853  0.8301  0.6079
  302MOL0     C40675  10.725   6.500  10.655 -0.7391  0.7702  0.0477
  302MOL0     C40676  10.812   6.402  10.725  0.2720  0.5321  0.2794
  302MOL0     C40677  10.726   6.307  10.818 -0.5976  0.6275  0.3748
  302MOL0     C40678  10.797   6.184  10.857 -0.2423 -0.3792 -0.7622
  302MOL0    Cl40679  10.949   6.224  10.937  0.0194  0.0934 -0.3929
  302MOL0     C40680  10.811   6.596  10.046  0.4492 -0.5465 -0.3389
  302MOL0     C40681  10.751   6.630   9.920 -0.8411  0.5045  0.4049
  302MOL0     O40682  10.487   6.741   9.777  0.6048  1.2350 -0.4224
  302MOL0     C40683  10.425   6.812   9.515 -0.0094  0.2385  1.3369
  302MOL0     C40684  10.408   6.830   9.378 -0.6925  0.3987 -0.1698
  302MOL0     N40685   9.913   6.704   8.854 -0.4420 -1.0956  0.5771
  302MOL0     N40686   9.818   6.627   8.841  0.0496  0.5196 -0.8717
  302MOL0     C40687   8.674   6.289   9.088  0.4622  0.4649  0.4244
  302MOL0     C40688   8.536   6.313   9.096 -0.8511 -0.1412 -0.4773
  302MOL0     C40689   8.122   6.478   9.043  0.0803 -0.8070 -0.7620
  302MOL0     C40690   8.081   6.608   9.089  0.4392  1.2043  0.2031
  302MOL0     C40691   7.949   6.640   9.125  0.3319  1.2786 -0.3350
  302MOL0     C40692   7.849   6.541   9.114 -0.7167 -0.0533 -0.2176
  302MOL0     O40693   7.722   6.553   9.157  0.2260  0.0559  0.4844
  302MOL0     C40694   7.657   6.675   9.204  0.6290  0.2526  0.7236
  302MOL0     C40695   7.565   6.660   9.312  0.8176  0.9853  0.4690
  302MOL0     C40696   7.622   6.558   9.413  0.1856 -0.6810 -0.4250
  302MOL0     C40697   7.535   6.537   9.539  0.1610  0.3326  0.9425
  302MOL0     C40698   7.614   6.487   9.646  0.0545 -0.1909 -0.2327
  302MOL0     C40699   7.680   6.438   9.729 -0.1121 -0.8007 -0.0016
  302MOL0     C40700   7.886   6.410   9.073  0.0221 -0.5821  0.5269
  302MOL0     C40701   8.016   6.377   9.041 -0.3486 -0.4377  0.0599
  302MOL0     C40702   8.039   6.245   8.978  0.0357  0.4219 -0.3511
  302MOL0     H40703   8.440   6.296   8.776 -1.9548  0.9253  1.3924
  302MOL0     H40704   8.685   6.294   8.751 -2.0367 -0.4481 -1.3411
  302MOL0     H40705   8.947   6.243   9.111  0.1243  1.3103  0.5727
  302MOL0     H40706   8.885   6.086   9.058  2.6617 -1.1751 -1.3085
  302MOL0     H40707   9.043   6.116   8.848  0.1023  1.0263 -1.3798
  302MOL0     H40708   9.108   6.055   9.009 -0.2172  0.9959  1.2666
  302MOL0     H40709   9.169   6.278   9.090 -2.6886 -0.0981  1.0099
  302MOL0     H40710   9.111   6.344   8.930 -1.2232 -1.2183 -1.9719
  302MOL0     H40711   9.335   6.137   8.963 -0.0172 -0.2444 -0.6225
  302MOL0     H40712   9.279   6.212   8.814 -1.7207  2.0123  0.3805
  302MOL0     H40713   9.339   6.422   8.908  0.9548 -0.2873 -1.3522
  302MOL0     H40714   9.410   6.355   9.051 -0.1515 -0.1525  0.4287
  302MOL0     H40715   9.568   6.213   8.912 -4.3960 -0.9489  1.5837
  302MOL0     H40716   9.518   6.293   8.772 -1.6295 -0.5562  0.6514
  302MOL0     H40717   9.644   6.436   9.019  1.7346  2.3581 -0.6720
  302MOL0     H40718   9.598   6.514   8.861 -1.0301 -2.0143 -2.7250
  302MOL0     H40719   9.834   6.325   8.931  0.6641 -3.8730 -2.7687
  302MOL0     H40720   9.770   6.318   8.775  1.4913 -3.8207  2.8454
  302MOL0     H40721  10.060   6.420   8.889 -1.2580 -0.4398 -0.1892
  302MOL0     H40722  10.240   6.632   8.849 -0.4400 -0.7665  0.5492
  302MOL0     H40723  10.189   6.791   8.877  1.7404 -1.4157 -1.7553
  302MOL0     H40724  10.144   6.740   9.120  0.5816  1.6721 -1.0175
  302MOL0     H40725  10.176   6.575   9.082  4.1197 -0.4744 -0.6539
  302MOL0     H40726  10.410   6.625   9.040 -0.8539 -0.3084 -1.3946
  302MOL0     H40727  10.348   6.678   9.194 -0.4175  0.2834 -0.0986
  302MOL0     H40728  10.349   6.922   9.108  0.6469 -0.5461  1.4874
  302MOL0     H40729  10.414   6.843   8.966 -1.2986  0.5969 -0.2596
  302MOL0     H40730  10.718   6.879   9.270 -0.7010  1.6147 -0.9652
  302MOL0     H40731  10.760   6.863   9.535 -1.3445  1.0983  5.2360
  302MOL0     H40732  10.826   6.947   9.910 -3.1660 -0.2881 -2.7782
  302MOL0     H40733  10.937   6.892  10.137 -0.7844  0.3345  0.5981
  302MOL0     H40734  10.986   6.695  10.440 -0.1182  2.2468  1.4382
  302MOL0     H40735  11.013   6.824  10.334  0.5576 -0.2668  0.8936
  302MOL0     H40736  10.831   6.890  10.473 -1.2028  1.0911 -0.2063
  302MOL0     H40737  10.747   6.836  10.324  0.6855 -0.7624 -0.8349
  302MOL0     H40738  10.657   6.749  10.537  2.2986  1.3529  0.8752
  302MOL0     H40739  10.677   6.629  10.406 -0.6332 -0.2617  0.2504
  302MOL0     H40740  10.880   6.643  10.635 -1.5276  0.1489  2.3704
  302MOL0     H40741  10.866   6.517  10.506 -1.2791  2.1698 -2.1892
  302MOL0     H40742  10.653   6.453  10.587 -2.9172  1.8214  1.4929
  302MOL0     H40743  10.669   6.556  10.731 -1.9046  1.4014 -1.2213
  302MOL0     H40744  10.878   6.348  10.657 -1.1819 -0.4739 -0.3590
  302MOL0     H40745  10.887   6.465  10.775  0.8818 -0.1790  0.2760
  302MOL0     H40746  10.633   6.280  10.766  1.3472 -1.3418 -2.3625
  302MOL0     H40747  10.704   6.364  10.908 -0.1122  0.8230  0.3717
  302MOL0     H40748  10.739   6.122  10.926  0.8113  1.1954  1.6650
  302MOL0     H40749  10.827   6.128  10.768  2.2485 -1.3977  0.6033
  302MOL0     H40750  10.786   6.497  10.083  1.4157  0.2519  2.7595
  302MOL0     H40751  10.689   6.557   9.869  0.2994  0.1553 -0.5397
  302MOL0     H40752  10.342   6.783   9.579  0.4243 -4.5902  0.1442
  302MOL0     H40753  10.314   6.824   9.325 -0.1238  1.6812 -1.3846
  302MOL0     H40754   8.738   6.299   9.175  2.5875  1.6452 -1.1713
  302MOL0     H40755   8.488   6.320   9.193  0.2642  0.5322  0.0465
  302MOL0     H40756   8.167   6.674   9.089  2.2361 -0.6905 -4.9809
  302MOL0     H40757   7.921   6.734   9.172 -0.6806 -0.9054  3.8807
  302MOL0     H40758   7.591   6.712   9.125 -0.0699 -0.8914  0.7455
  302MOL0     H40759   7.727   6.755   9.228 -0.0086  1.6625 -1.8120
  302MOL0     H40760   7.469   6.617   9.281  1.5347 -2.0984  2.1301
  302MOL0     H40761   7.542   6.758   9.353 -0.3047  1.2433 -0.6820
  302MOL0     H40762   7.719   6.593   9.452  0.1506 -0.8383 -0.1951
  302MOL0     H40763   7.649   6.462   9.369  1.2630 -0.7378  0.3099
  302MOL0     H40764   7.484   6.626   9.577  0.4758  0.8780  0.1319
  302MOL0     H40765   7.455   6.467   9.513  2.9448 -2.6990 -0.1388
  302MOL0     H40766   7.746   6.397   9.803 -0.0991 -1.5620 -0.4248
  302MOL0     H40767   7.810   6.332   9.066 -1.0215  0.5380 -1.1311
  302MOL0     H40768   8.101   6.233   8.889  1.1441  1.4392  0.2636
  302MOL0     H40769   8.087   6.175   9.047  1.5731  0.9559 -0.8501
  302MOL0     H40770   7.943   6.200   8.950  0.9248 -1.7159 -0.1476
  303MOL0     O40771   2.092   5.262   0.463  0.0193 -0.5397 -0.0021
  303MOL0     C40772   2.026   5.360   0.464 -0.1573  0.5588 -0.5102
  303MOL0     O40773   2.068   5.479   0.430  0.1460 -0.2529 -0.2203
  303MOL0     C40774   2.202   5.511   0.465  0.4980  0.4253  0.2063
  303MOL0     C40775   2.260   5.487   0.595  0.0595  0.7276 -0.1754
  303MOL0     C40776   2.404   5.499   0.614  0.0566 -0.4925 -0.5998
  303MOL0     C40777   2.480   5.541   0.510  0.3149 -0.7271  0.0737
  303MOL0     O40778   2.619   5.566   0.538 -0.5336  0.0732 -0.5354
  303MOL0     C40779   2.708   5.567   0.426  0.5505 -0.7709 -0.5013
  303MOL0     C40780   2.859   5.539   0.458  0.8388 -0.5072 -0.1595
  303MOL0     C40781   2.920   5.612   0.584 -0.5720  0.1116  0.4785
  303MOL0     C40782   3.067   5.565   0.622 -0.4634 -0.0739  0.3892
  303MOL0     C40783   3.094   5.418   0.640 -0.1423 -0.0261  0.0806
  303MOL0     C40784   3.248   5.390   0.655  0.5426  0.1055 -0.5364
  303MOL0     C40785   3.301   5.420   0.796  1.5972  0.3281  0.4628
  303MOL0     C40786   3.447   5.451   0.774 -0.5721 -0.2091  0.1657
  303MOL0     N40787   3.530   5.330   0.742  0.2311 -0.2097  0.6847
  303MOL0     C40788   3.570   5.238   0.835  0.9173 -0.1867 -0.4956
  303MOL0     C40789   3.626   5.142   0.746  0.2950 -0.7122 -0.9315
  303MOL0     C40790   3.688   5.011   0.781  0.5724  0.3175 -0.7127
  303MOL0     C40791   3.840   5.027   0.779  0.2215 -0.0501 -0.7543
  303MOL0     C40792   3.892   5.033   0.641  0.3097  0.0123  0.1579
  303MOL0     C40793   4.048   5.014   0.647  0.3853  0.3873  0.2898
  303MOL0     O40794   4.094   5.148   0.673 -0.4169  0.3097 -0.2803
  303MOL0     C40795   4.216   5.202   0.646  0.2485  0.3290  0.2810
  303MOL0     C40796   4.327   5.121   0.608  0.7646 -0.1954 -0.1823
  303MOL0     C40797   4.449   5.174   0.598 -0.4554 -0.5453 -0.0382
  303MOL0     C40798   4.480   5.316   0.609 -0.2371 -0.2071  0.6692
  303MOL0     C40799   4.619   5.368   0.574 -0.2625  0.2254 -0.4844
  303MOL0     O40800   4.704   5.271   0.533 -0.2603  0.3490  0.1464
  303MOL0     C40801   4.830   5.287   0.486 -0.8130 -0.1290  1.1012
  303MOL0     C40802   4.893   5.175   0.437 -0.1016  0.1568 -0.6228
  303MOL0     C40803   5.021   5.179   0.394 -0.5036 -0.3937  0.0266
  303MOL0     C40804   5.096   5.296   0.380 -0.1608  0.2478  0.3876
  303MOL0     O40805   5.225   5.301   0.340  0.2733  0.4166  0.4748
  303MOL0     C40806   5.278   5.188   0.264 -0.2113  0.0043 -0.0200
  303MOL0     C40807   5.422   5.232   0.223 -0.2091 -0.8258 -0.8052
  303MOL0     C40808   5.518   5.235   0.340  0.0220  0.0294 -0.2043
  303MOL0     C40809   5.670   5.219   0.299 -0.2998 -0.1941 -0.5144
  303MOL0     C40810   5.708   5.070   0.278  0.1131 -0.8988 -1.1868
  303MOL0     C40811   5.852   5.045   0.224 -0.0837 -0.2249 -0.0473
  303MOL0     C40812   5.964   5.099   0.313  0.3697 -0.3326  0.4086
  303MOL0     C40813   6.099   5.062   0.251  0.0400 -0.3610 -0.1228
  303MOL0    Cl40814   6.103   4.895   0.196 -0.4881  0.0409 -0.0957
  303MOL0     C40815   5.035   5.407   0.441  0.2230  0.0529 -0.1853
  303MOL0     C40816   4.903   5.407   0.484 -0.7385 -0.3063  0.3022
  303MOL0     O40817   4.646   5.482   0.596 -0.4927 -0.0597 -0.1658
  303MOL0     C40818   4.374   5.392   0.657 -0.2520  0.2869  1.3320
  303MOL0     C40819   4.250   5.336   0.671 -0.2258  0.2411  0.2600
  303MOL0     N40820   3.613   5.188   0.619  0.0671 -0.1308 -0.4145
  303MOL0     N40821   3.554   5.299   0.613 -0.4893  0.2684 -0.1726
  303MOL0     C40822   2.421   5.577   0.386 -0.0432  0.2755  0.0502
  303MOL0     C40823   2.284   5.558   0.358 -0.2014 -0.1060  0.9129
  303MOL0     C40824   1.883   5.336   0.464  0.7387  0.4283  1.3801
  303MOL0     C40825   1.799   5.420   0.378  0.8887 -0.3926  0.2884
  303MOL0     C40826   1.660   5.403   0.360  0.1626  0.1588 -0.2345
  303MOL0     C40827   1.591   5.298   0.416 -0.1329 -0.0273 -0.2731
  303MOL0     O40828   1.459   5.283   0.402 -0.3986  0.1997  0.2576
  303MOL0     C40829   1.387   5.161   0.416 -0.2130  0.5693 -0.9035
  303MOL0     C40830   1.251   5.181   0.359  0.3419 -0.1043  0.0986
  303MOL0     C40831   1.255   5.147   0.215  0.2042  0.5923 -0.1373
  303MOL0     C40832   1.105   5.126   0.169 -1.0379  0.2361  0.9480
  303MOL0     C40833   1.056   4.992   0.198  0.4536  0.5929 -0.1280
  303MOL0     C40834   0.997   4.898   0.243  0.5027 -0.3195  0.4349
  303MOL0     C40835   1.665   5.230   0.515 -0.5948  0.3647 -0.4404
  303MOL0     C40836   1.805   5.245   0.537 -0.3893  0.3990  0.2154
  303MOL0     C40837   1.867   5.174   0.657  0.4961 -0.2905  0.1115
  303MOL0     H40838   2.191   5.471   0.678  0.9795  4.1177  1.4359
  303MOL0     H40839   2.446   5.488   0.714  3.2747  1.3813 -1.6003
  303MOL0     H40840   2.672   5.485   0.363 -1.5073 -3.4129  3.6555
  303MOL0     H40841   2.697   5.657   0.365 -3.5410 -0.5859  0.2397
  303MOL0     H40842   2.907   5.561   0.362 -3.3093 -0.2597 -2.4019
  303MOL0     H40843   2.876   5.434   0.482  4.9960 -0.3436 -1.5239
  303MOL0     H40844   2.851   5.601   0.668 -1.6100 -0.4164 -0.4140
  303MOL0     H40845   2.928   5.719   0.563  0.7177  0.0350  0.5613
  303MOL0     H40846   3.127   5.608   0.542  0.6636 -0.9527  0.7410
  303MOL0     H40847   3.085   5.629   0.709 -1.3123 -0.7023  1.0356
  303MOL0     H40848   3.049   5.374   0.730  2.2765 -2.2750  0.3114
  303MOL0     H40849   3.053   5.368   0.552  0.3180  1.0176 -0.7500
  303MOL0     H40850   3.262   5.282   0.639 -0.4007  0.1451 -1.7974
  303MOL0     H40851   3.298   5.447   0.577  3.3164  0.0549  1.0502
  303MOL0     H40852   3.266   5.331   0.848 -0.1206  1.1254  0.7567
  303MOL0     H40853   3.254   5.508   0.841  1.2362 -0.4787  1.7170
  303MOL0     H40854   3.460   5.521   0.691  2.7783  1.4153  1.8692
  303MOL0     H40855   3.489   5.509   0.857  2.8690 -1.7423 -0.3065
  303MOL0     H40856   3.551   5.236   0.942  0.0112 -0.3053 -0.6521
  303MOL0     H40857   3.651   4.979   0.878  0.9568  0.7821 -0.4064
  303MOL0     H40858   3.657   4.931   0.713 -0.5962 -1.0528  1.3453
  303MOL0     H40859   3.880   5.109   0.841  1.0209 -2.3175  1.9393
  303MOL0     H40860   3.855   4.933   0.834 -0.4787  2.3079  4.0331
  303MOL0     H40861   3.852   5.126   0.601 -1.7520 -0.9770 -0.2591
  303MOL0     H40862   3.851   4.962   0.569  0.2888  1.9654 -1.8692
  303MOL0     H40863   4.089   4.974   0.554  0.1640 -0.7737  0.6758
  303MOL0     H40864   4.082   4.939   0.718  2.7743  1.4872  0.3896
  303MOL0     H40865   4.322   5.013   0.605  0.6890 -0.1771 -1.0839
  303MOL0     H40866   4.529   5.104   0.576  0.8969  0.5584  1.1685
  303MOL0     H40867   4.829   5.089   0.450  1.0671 -0.6280  0.0726
  303MOL0     H40868   5.068   5.085   0.365  2.9096  1.3926 -0.7626
  303MOL0     H40869   5.296   5.103   0.331 -1.6636  0.2313  0.6948
  303MOL0     H40870   5.231   5.154   0.172  2.2033 -1.7403 -0.7409
  303MOL0     H40871   5.458   5.164   0.146 -0.9231 -1.2299 -0.7898
  303MOL0     H40872   5.427   5.336   0.190 -1.4387 -0.5434 -0.1836
  303MOL0     H40873   5.501   5.322   0.403  1.4221 -1.5655  2.5979
  303MOL0     H40874   5.505   5.148   0.405 -2.7680 -0.0284 -0.7459
  303MOL0     H40875   5.733   5.265   0.376  1.4062  1.7010 -2.8863
  303MOL0     H40876   5.693   5.272   0.207  0.1028  1.2076  0.3664
  303MOL0     H40877   5.636   5.017   0.215 -1.8282 -0.3141  0.4255
  303MOL0     H40878   5.699   5.029   0.379  3.1255  2.5592  0.7105
  303MOL0     H40879   5.855   4.936   0.226 -3.2274 -0.4041  0.9259
  303MOL0     H40880   5.868   5.091   0.126  0.3153  1.7337  0.8833
  303MOL0     H40881   5.962   5.050   0.411 -1.4836 -0.9181  0.1120
  303MOL0     H40882   5.950   5.208   0.314  0.1252 -0.2688 -2.5699
  303MOL0     H40883   6.125   5.123   0.164 -2.4849  0.5240 -0.3183
  303MOL0     H40884   6.181   5.078   0.322  1.7702 -3.1825 -1.3345
  303MOL0     H40885   5.086   5.502   0.454 -1.3629  0.6395  2.6536
  303MOL0     H40886   4.872   5.501   0.528 -1.5711 -0.1179 -0.6466
  303MOL0     H40887   4.388   5.499   0.670 -3.1145  0.9169 -0.0614
  303MOL0     H40888   4.173   5.404   0.704  0.6126  0.2054  2.4340
  303MOL0     H40889   2.485   5.612   0.307  0.3948  1.3585  0.8663
  303MOL0     H40890   2.234   5.581   0.264 -1.5074 -2.2506  1.0153
  303MOL0     H40891   1.852   5.498   0.324  0.9807 -1.4458 -1.1831
  303MOL0     H40892   1.604   5.479   0.308 -2.1031  0.2461  2.1704
  303MOL0     H40893   1.377   5.140   0.523  2.5089  1.7609 -0.3424
  303MOL0     H40894   1.448   5.090   0.359 -0.6089  1.2111 -2.1556
  303MOL0     H40895   1.212   5.280   0.381 -0.5374  0.2632 -2.7230
  303MOL0     H40896   1.181   5.112   0.407 -0.8141  0.8667 -0.1661
  303MOL0     H40897   1.305   5.055   0.185  1.2959  1.0943  0.1202
  303MOL0     H40898   1.294   5.232   0.159 -0.3839  3.1191  2.9567
  303MOL0     H40899   1.026   5.193   0.206 -2.8924 -2.0306  1.3605
  303MOL0     H40900   1.105   5.144   0.061  0.2931  2.2309  1.2205
  303MOL0     H40901   0.955   4.809   0.284 -0.5660 -0.0946 -0.1383
  303MOL0     H40902   1.616   5.154   0.575 -1.2072  2.2722  1.6430
  303MOL0     H40903   1.926   5.236   0.725  2.1218 -1.8096  0.1431
  303MOL0     H40904   1.779   5.130   0.706 -1.9174  1.6683 -2.1277
  303MOL0     H40905   1.930   5.093   0.618  2.2224  0.2044  1.7435
  304MOL0     O40906   0.691   2.421   9.306 -0.3243  0.0808 -0.3023
  304MOL0     C40907   0.702   2.532   9.354  0.1476  0.8637  0.0142
  304MOL0     O40908   0.814   2.617   9.353 -0.6448  0.2874 -0.0345
  304MOL0     C40909   0.940   2.566   9.319 -0.0024 -0.5609 -0.1694
  304MOL0     C40910   0.975   2.427   9.325 -0.0475 -0.6927 -0.0064
  304MOL0     C40911   1.115   2.382   9.310  0.6742 -0.9303  0.4304
  304MOL0     C40912   1.211   2.483   9.291 -0.4690  0.0317  0.3027
  304MOL0     O40913   1.343   2.444   9.281  0.7224  0.2588  0.6512
  304MOL0     C40914   1.409   2.404   9.409  0.1726  0.0062  0.6953
  304MOL0     C40915   1.572   2.397   9.391  1.3086  0.8221  0.5027
  304MOL0     C40916   1.629   2.525   9.323 -0.3251 -0.4469  0.4464
  304MOL0     C40917   1.775   2.546   9.326 -0.6157  0.3182  0.0498
  304MOL0     C40918   1.813   2.651   9.217  0.5696 -0.2977  0.2580
  304MOL0     C40919   1.956   2.699   9.248  0.6926 -0.2166 -0.3878
  304MOL0     C40920   2.028   2.771   9.143 -1.4910 -0.8140 -0.3591
  304MOL0     C40921   2.155   2.831   9.194  0.0188 -0.1280  0.5652
  304MOL0     N40922   2.215   2.929   9.097 -0.2651 -0.1356 -0.0010
  304MOL0     C40923   2.329   2.995   9.115 -0.0239  0.5281 -0.2463
  304MOL0     C40924   2.357   3.045   8.993 -0.0632  1.0564  0.2883
  304MOL0     C40925   2.484   3.111   8.956 -0.0024  0.9134 -0.2021
  304MOL0     C40926   2.502   3.258   8.998  0.0728 -0.0240  0.3971
  304MOL0     C40927   2.607   3.333   8.918 -0.9221  0.4110  0.1152
  304MOL0     C40928   2.745   3.267   8.922 -0.6440  0.0353  0.1754
  304MOL0     O40929   2.835   3.351   8.850  0.8808  0.4009 -0.0002
  304MOL0     C40930   2.951   3.295   8.811 -0.7617  0.1518 -0.5260
  304MOL0     C40931   3.027   3.368   8.723  0.1652  0.9518  0.3976
  304MOL0     C40932   3.140   3.313   8.663 -0.2448  0.7152  0.1627
  304MOL0     C40933   3.179   3.178   8.695  0.5712  0.3210  0.1499
  304MOL0     C40934   3.297   3.118   8.634  0.0490 -1.2938 -0.5085
  304MOL0     O40935   3.366   3.016   8.709  0.0563 -0.8055  0.6212
  304MOL0     C40936   3.497   3.000   8.668  0.3057 -0.2611  0.5539
  304MOL0     C40937   3.585   3.095   8.721  0.3519 -0.0368 -0.1757
  304MOL0     C40938   3.722   3.077   8.689  0.3185 -0.4928  0.0625
  304MOL0     C40939   3.753   2.976   8.596 -0.2249  0.3243  0.4596
  304MOL0     O40940   3.890   2.970   8.559  0.0063  0.1839 -0.4016
  304MOL0     C40941   3.957   2.842   8.537  0.1829 -1.0131 -0.5410
  304MOL0     C40942   4.092   2.855   8.474  1.0191 -0.8415  0.0049
  304MOL0     C40943   4.086   2.923   8.336  0.2058 -0.6098 -0.1551
  304MOL0     C40944   3.972   2.888   8.239  0.4444 -0.3525 -0.2949
  304MOL0     C40945   3.998   2.944   8.093 -0.1502 -0.1397 -0.9569
  304MOL0     C40946   3.990   3.095   8.088  0.2171  0.5749  0.3031
  304MOL0     C40947   4.124   3.160   8.041  0.0020  0.2468  0.1235
  304MOL0     C40948   4.131   3.295   8.114 -0.0494  0.1870 -1.1257
  304MOL0    Cl40949   4.286   3.376   8.092  0.5355 -0.5393  0.2144
  304MOL0     C40950   3.655   2.886   8.539 -0.3400 -0.0327 -0.1546
  304MOL0     C40951   3.527   2.896   8.575 -0.0629 -0.3987 -0.1097
  304MOL0     O40952   3.318   3.154   8.523 -0.4638  0.4767  0.1088
  304MOL0     C40953   3.102   3.102   8.777  0.2577 -0.0295 -0.8662
  304MOL0     C40954   2.987   3.158   8.830  0.1962 -0.5589 -0.5813
  304MOL0     N40955   2.247   3.028   8.908 -0.6371  0.6410 -0.0931
  304MOL0     N40956   2.165   2.948   8.975  0.5833  0.2605  0.7962
  304MOL0     C40957   1.184   2.614   9.284  0.2998 -0.0880  0.4313
  304MOL0     C40958   1.045   2.657   9.302  0.6535 -0.4892 -0.5612
  304MOL0     C40959   0.589   2.584   9.430 -0.2234 -0.6481  0.3161
  304MOL0     C40960   0.588   2.722   9.462  0.1826  0.7180 -0.2201
  304MOL0     C40961   0.486   2.784   9.534  0.0105  0.5616 -0.0135
  304MOL0     C40962   0.377   2.708   9.568  0.4692 -0.5141  0.1642
  304MOL0     O40963   0.281   2.776   9.638  0.0252 -0.8527 -0.0359
  304MOL0     C40964   0.142   2.733   9.639 -0.8476  0.5688  0.4808
  304MOL0     C40965   0.064   2.816   9.731  0.1018  0.1660 -0.4694
  304MOL0     C40966   0.114   2.824   9.876 -0.5700  0.2879 -0.1989
  304MOL0     C40967   0.154   2.698   9.934 -0.6090 -0.0137  0.3394
  304MOL0     C40968   0.044   2.605   9.953  0.4196 -0.1166  1.1418
  304MOL0     C40969  -0.058   2.542   9.965 -0.9584 -0.0956 -0.8455
  304MOL0     C40970   0.370   2.574   9.526  0.4894  0.4951 -0.9573
  304MOL0     C40971   0.478   2.508   9.462  0.1197 -0.0060  1.2885
  304MOL0     C40972   0.451   2.356   9.431 -0.2013 -0.9510  0.3120
  304MOL0     H40973   0.896   2.354   9.343  0.2596 -1.1610 -0.5282
  304MOL0     H40974   1.143   2.277   9.311 -1.0159 -1.4290  0.0972
  304MOL0     H40975   1.382   2.478   9.485 -1.5246  0.5007 -0.3173
  304MOL0     H40976   1.385   2.303   9.442 -0.7705  0.5828  1.8686
  304MOL0     H40977   1.594   2.306   9.336  1.0860  0.7456  0.5407
  304MOL0     H40978   1.604   2.377   9.494 -3.7013 -2.4089  1.7648
  304MOL0     H40979   1.584   2.613   9.370 -1.7069  0.8113 -2.9260
  304MOL0     H40980   1.611   2.514   9.216  2.1361 -3.6501  0.1932
  304MOL0     H40981   1.792   2.578   9.429  1.1020  1.2301 -0.4928
  304MOL0     H40982   1.834   2.454   9.316 -0.1966  0.6439 -0.4681
  304MOL0     H40983   1.811   2.607   9.117 -2.5289  1.8206 -0.7326
  304MOL0     H40984   1.749   2.739   9.218  0.1865 -0.4571 -2.5416
  304MOL0     H40985   1.947   2.751   9.344  1.9711 -3.8483  1.9140
  304MOL0     H40986   2.012   2.609   9.278  0.6215 -0.2956 -0.4934
  304MOL0     H40987   1.973   2.858   9.106 -0.4898 -0.4384 -1.0117
  304MOL0     H40988   2.054   2.706   9.059 -0.6211 -1.6348  0.5178
  304MOL0     H40989   2.146   2.869   9.296  1.5749 -2.7599  1.7784
  304MOL0     H40990   2.231   2.753   9.207  1.9691  1.9627  2.5382
  304MOL0     H40991   2.396   2.992   9.200  1.8942  2.4426 -1.5843
  304MOL0     H40992   2.566   3.054   9.001 -1.4165  1.2859  3.0931
  304MOL0     H40993   2.498   3.091   8.849 -0.3215  1.8506 -0.4338
  304MOL0     H40994   2.403   3.304   8.992  0.3125  0.7179  1.7173
  304MOL0     H40995   2.531   3.267   9.103 -0.8954  0.6474  0.6186
  304MOL0     H40996   2.611   3.436   8.957 -0.2486  0.0190  1.1289
  304MOL0     H40997   2.575   3.336   8.814  1.2966  0.4525 -0.6146
  304MOL0     H40998   2.725   3.169   8.876  1.0176 -0.7066  0.9641
  304MOL0     H40999   2.776   3.240   9.023 -1.9637  0.2925  0.6761
  304MOL0     H41000   2.992   3.470   8.712  0.2797  1.1048  1.4309
  304MOL0     H41001   3.197   3.364   8.586  0.5654  0.0408  0.2941
  304MOL0     H41002   3.551   3.177   8.784 -0.2034  0.7668 -1.4657
  304MOL0     H41003   3.801   3.145   8.720 -1.5678  1.2606  1.2845
  304MOL0     H41004   3.968   2.801   8.637  0.4042 -2.4339 -1.1270
  304MOL0     H41005   3.900   2.775   8.472  0.0774 -0.6316 -0.8488
  304MOL0     H41006   4.163   2.903   8.542  0.1944  0.2462  0.1257
  304MOL0     H41007   4.121   2.751   8.457  0.7957 -0.5561 -2.4156
  304MOL0     H41008   4.091   3.032   8.347  2.0596 -0.6019 -0.7184
  304MOL0     H41009   4.186   2.906   8.295 -0.1399 -0.6701 -1.0041
  304MOL0     H41010   3.877   2.928   8.276 -0.2448 -2.4794  0.4003
  304MOL0     H41011   3.970   2.778   8.241  1.9170 -0.4331 -1.5834
  304MOL0     H41012   3.917   2.897   8.035 -0.4399  1.1020 -1.5946
  304MOL0     H41013   4.089   2.908   8.045  1.0641  3.0799 -1.3268
  304MOL0     H41014   3.913   3.123   8.015  1.4832  1.2294 -0.8202
  304MOL0     H41015   3.951   3.128   8.184 -2.4427  2.9245 -1.4144
  304MOL0     H41016   4.136   3.158   7.933  0.4905 -1.5446  0.1750
  304MOL0     H41017   4.206   3.097   8.078  1.5673  0.6412 -2.4445
  304MOL0     H41018   4.041   3.352   8.092 -2.0116 -2.0810  0.4799
  304MOL0     H41019   4.119   3.275   8.221 -2.6570 -0.3990 -1.4501
  304MOL0     H41020   3.695   2.813   8.470 -0.0971 -0.8889  0.8661
  304MOL0     H41021   3.443   2.842   8.531 -0.6497  2.8939 -3.5356
  304MOL0     H41022   3.125   2.997   8.796 -1.7273  0.0456  2.7478
  304MOL0     H41023   2.920   3.098   8.891 -0.0549 -3.3847 -3.3419
  304MOL0     H41024   1.262   2.689   9.278 -0.2387  0.7689  3.0714
  304MOL0     H41025   1.015   2.762   9.303  0.4620 -0.5196  1.6005
  304MOL0     H41026   0.666   2.786   9.422  1.2787  0.0047  0.7351
  304MOL0     H41027   0.493   2.890   9.560  1.7085  0.2059  1.1471
  304MOL0     H41028   0.130   2.633   9.681  0.2977 -0.5355 -1.6802
  304MOL0     H41029   0.101   2.743   9.538  2.5563  1.3760 -0.9736
  304MOL0     H41030  -0.034   2.767   9.736  0.2085 -0.1919 -1.6216
  304MOL0     H41031   0.051   2.914   9.684 -0.3961  0.4498  0.2268
  304MOL0     H41032   0.041   2.872   9.941 -1.4174 -2.5641  1.1360
  304MOL0     H41033   0.197   2.895   9.869 -2.9083  3.1414 -0.8725
  304MOL0     H41034   0.231   2.652   9.871 -1.7361  0.6487 -1.6355
  304MOL0     H41035   0.194   2.731  10.030 -1.3528  0.5885  0.4550
  304MOL0     H41036  -0.148   2.485   9.976  0.2459 -1.7830  1.2167
  304MOL0     H41037   0.282   2.516   9.550 -0.9624  1.7782 -2.8266
  304MOL0     H41038   0.544   2.301   9.443  1.7427  1.0516 -3.6586
  304MOL0     H41039   0.379   2.318   9.505 -1.3204  1.4373  0.5576
  304MOL0     H41040   0.403   2.348   9.333 -1.2467  2.5212  0.4035
  305MOL0     O41041   8.952   1.289   0.698  0.0592  0.2259 -0.0851
  305MOL0     C41042   8.931   1.409   0.717  0.8163  0.0801 -0.1636
  305MOL0     O41043   9.030   1.502   0.753 -0.4660  0.0894 -0.7518
  305MOL0     C41044   9.165   1.470   0.739  0.0677 -0.3289  0.2630
  305MOL0     C41045   9.219   1.388   0.633  0.1199  0.1292 -0.5972
  305MOL0     C41046   9.355   1.389   0.611 -0.6295 -0.1144  0.7780
  305MOL0     C41047   9.439   1.474   0.686 -0.7578  0.0265  0.3100
  305MOL0     O41048   9.570   1.518   0.667 -0.1034 -0.6429 -0.1923
  305MOL0     C41049   9.650   1.452   0.567  0.7659  0.2562  0.5533
  305MOL0     C41050   9.760   1.547   0.520  0.8537 -0.5141 -0.5208
  305MOL0     C41051   9.864   1.481   0.432 -0.3705  1.0943 -0.0432
  305MOL0     C41052   9.997   1.560   0.421  0.4704 -0.2505  0.0864
  305MOL0     C41053  10.113   1.476   0.362 -0.2244  0.2586 -0.5706
  305MOL0     C41054  10.245   1.534   0.406 -0.0027  0.0081 -0.0143
  305MOL0     C41055  10.370   1.492   0.327  0.0880 -0.0883  0.2225
  305MOL0     C41056  10.495   1.556   0.386  0.1304 -0.4688 -0.0589
  305MOL0     N41057  10.614   1.543   0.300  0.1235 -0.6626 -0.1082
  305MOL0     C41058  10.637   1.606   0.176  0.7895 -0.1337  0.3613
  305MOL0     C41059  10.751   1.536   0.130 -0.2407 -0.3957 -0.0401
  305MOL0     C41060  10.821   1.544   0.000  0.1868  0.0123 -0.1967
  305MOL0     C41061  10.889   1.690   0.001  0.1576  0.4850 -0.5046
  305MOL0     C41062  10.929   1.728  -0.138  0.7280  0.1942  0.7124
  305MOL0     C41063  11.008   1.860  -0.149 -0.0587 -0.5184  0.7287
  305MOL0     O41064  11.076   1.860  -0.270  0.0045  0.1531  0.2985
  305MOL0     C41065  11.205   1.845  -0.257  0.4042  0.0208  0.8218
  305MOL0     C41066  11.288   1.941  -0.314 -0.9616 -0.3309  0.7836
  305MOL0     C41067  11.420   1.918  -0.327 -0.6462 -0.5001 -0.0279
  305MOL0     C41068  11.481   1.808  -0.263  0.3410  0.2080 -0.1420
  305MOL0     C41069  11.626   1.782  -0.262 -0.0874 -0.0378  1.1848
  305MOL0     O41070  11.663   1.682  -0.186  0.1405  0.5592 -0.0234
  305MOL0     C41071  11.796   1.687  -0.150  0.3891 -0.1023  0.9015
  305MOL0     C41072  11.863   1.800  -0.102  0.4725  0.3482  0.0329
  305MOL0     C41073  11.993   1.804  -0.073 -0.0038  0.4353  0.2540
  305MOL0     C41074  12.068   1.681  -0.074  0.2811  0.7751  0.3311
  305MOL0     O41075  12.206   1.662  -0.047 -0.2713 -1.3627  0.6762
  305MOL0     C41076  12.293   1.779  -0.029  0.4414 -0.6435  0.3708
  305MOL0     C41077  12.341   1.812  -0.163 -0.2523 -0.3841 -0.5892
  305MOL0     C41078  12.427   1.698  -0.235  1.0502  0.0356  0.3344
  305MOL0     C41079  12.572   1.698  -0.187 -0.7365 -0.4615 -0.2187
  305MOL0     C41080  12.662   1.754  -0.302 -0.7381  0.6162  0.5655
  305MOL0     C41081  12.801   1.800  -0.263 -0.7756 -0.8732 -0.2178
  305MOL0     C41082  12.887   1.694  -0.188  0.6421 -0.4833 -0.1863
  305MOL0     C41083  13.034   1.729  -0.207 -0.2123 -0.3345  0.0972
  305MOL0    Cl41084  13.146   1.611  -0.119 -0.3290 -0.7488 -0.0435
  305MOL0     C41085  12.004   1.570  -0.126  0.1734  0.2973  0.2175
  305MOL0     C41086  11.874   1.574  -0.161  0.4095  0.3321  0.5876
  305MOL0     O41087  11.697   1.850  -0.336 -0.0608  0.0838 -0.1122
  305MOL0     C41088  11.395   1.714  -0.200 -0.7791  0.2927  0.1524
  305MOL0     C41089  11.257   1.730  -0.192 -0.1116 -0.5880 -0.5988
  305MOL0     N41090  10.809   1.464   0.233 -0.1654  0.0324 -0.9001
  305MOL0     N41091  10.731   1.472   0.334  0.6490 -0.1163 -0.3376
  305MOL0     C41092   9.385   1.542   0.792  0.1420 -0.6794  0.4597
  305MOL0     C41093   9.252   1.545   0.811 -0.1994  0.6777 -0.5071
  305MOL0     C41094   8.792   1.471   0.736  0.4641 -0.0472 -0.7289
  305MOL0     C41095   8.688   1.378   0.769  0.4700  0.4501 -0.6504
  305MOL0     C41096   8.557   1.412   0.790  1.6770 -0.0277 -0.4782
  305MOL0     C41097   8.516   1.547   0.783  0.6351 -0.0360  0.4342
  305MOL0     O41098   8.377   1.566   0.803 -0.5538 -0.7701  0.3737
  305MOL0     C41099   8.304   1.659   0.729 -0.4506  0.6244 -0.3755
  305MOL0     C41100   8.295   1.626   0.576 -0.0365 -0.7176  0.0377
  305MOL0     C41101   8.233   1.728   0.477  0.4826 -0.2134 -0.4363
  305MOL0     C41102   8.095   1.689   0.438  0.0681  0.1355  0.5763
  305MOL0     C41103   8.026   1.789   0.355 -0.9822 -0.3419  0.1944
  305MOL0     C41104   7.972   1.872   0.294  0.1311 -0.9818  0.3112
  305MOL0     C41105   8.610   1.636   0.729 -0.1812 -0.2481  0.6930
  305MOL0     C41106   8.750   1.602   0.700 -0.3814 -0.2131  0.6095
  305MOL0     C41107   8.833   1.692   0.614 -0.3042  0.1779  0.2238
  305MOL0     H41108   9.157   1.332   0.564 -0.0838  0.5108 -0.7277
  305MOL0     H41109   9.403   1.333   0.533 -0.3407  0.6007  0.4293
  305MOL0     H41110   9.701   1.360   0.598 -0.0866  0.1771  1.8299
  305MOL0     H41111   9.591   1.440   0.476  2.1217 -3.3553 -0.0180
  305MOL0     H41112   9.807   1.587   0.610 -2.7894  2.4286  0.3579
  305MOL0     H41113   9.715   1.634   0.471  0.1244 -1.8731 -2.3941
  305MOL0     H41114   9.816   1.480   0.334 -2.2274  0.9827  0.8183
  305MOL0     H41115   9.897   1.378   0.449  1.4615  0.8776 -3.8898
  305MOL0     H41116   9.977   1.643   0.353 -0.5874 -1.8122 -1.5871
  305MOL0     H41117  10.007   1.596   0.523  0.3744 -0.4862  0.1788
  305MOL0     H41118  10.116   1.374   0.402  2.2123  0.0774 -1.0549
  305MOL0     H41119  10.103   1.465   0.254 -3.6929  0.6658 -0.3942
  305MOL0     H41120  10.237   1.641   0.387  0.6010  0.1432  0.4471
  305MOL0     H41121  10.265   1.525   0.514  1.8189  1.0664 -0.2228
  305MOL0     H41122  10.350   1.503   0.220  0.6040  0.5194  0.1864
  305MOL0     H41123  10.389   1.385   0.343 -1.0319 -0.8538 -2.8682
  305MOL0     H41124  10.481   1.664   0.400 -0.4327 -0.5353 -0.1066
  305MOL0     H41125  10.510   1.514   0.486 -1.5373  1.1210  0.9348
  305MOL0     H41126  10.568   1.670   0.122  0.3930 -0.9854 -0.1487
  305MOL0     H41127  10.894   1.463  -0.014 -0.2758  0.0063 -3.1360
  305MOL0     H41128  10.745   1.536  -0.078  2.5833 -0.5549 -2.6146
  305MOL0     H41129  10.820   1.766   0.038 -0.4450 -1.2219  2.2035
  305MOL0     H41130  10.975   1.686   0.069 -1.6022  4.0063  2.2799
  305MOL0     H41131  10.848   1.728  -0.211  1.6089 -2.9148 -0.4473
  305MOL0     H41132  11.001   1.650  -0.165  1.0431  0.0193  1.9669
  305MOL0     H41133  11.072   1.886  -0.064  0.4523  1.4652 -0.1949
  305MOL0     H41134  10.926   1.933  -0.152 -0.3470 -0.8816 -0.7646
  305MOL0     H41135  11.249   2.033  -0.358  2.8684  1.0957 -0.1108
  305MOL0     H41136  11.496   1.984  -0.369  0.4038 -0.8594  1.2152
  305MOL0     H41137  11.808   1.891  -0.077  1.8927  1.0884  0.6060
  305MOL0     H41138  12.037   1.897  -0.037 -1.0808  1.6691 -1.4910
  305MOL0     H41139  12.237   1.862   0.017 -0.3916  0.6198 -2.6804
  305MOL0     H41140  12.381   1.756   0.032  0.2232 -0.1942  0.8746
  305MOL0     H41141  12.257   1.835  -0.229  0.1313 -1.1647 -1.3770
  305MOL0     H41142  12.407   1.899  -0.165  0.5942 -0.9880 -3.3608
  305MOL0     H41143  12.387   1.601  -0.204  1.4923 -0.7837 -1.5560
  305MOL0     H41144  12.423   1.699  -0.344  4.4772 -4.0962 -0.0954
  305MOL0     H41145  12.598   1.594  -0.169  0.8450 -0.0478  0.0414
  305MOL0     H41146  12.578   1.754  -0.093 -3.3945  0.9933 -0.8018
  305MOL0     H41147  12.621   1.841  -0.355  1.1068  0.4184 -1.3033
  305MOL0     H41148  12.667   1.675  -0.378  1.5758 -1.4509  2.6696
  305MOL0     H41149  12.848   1.838  -0.354 -1.5760  0.5807 -0.0624
  305MOL0     H41150  12.782   1.886  -0.197 -1.6123 -1.1142 -0.1320
  305MOL0     H41151  12.865   1.591  -0.219  0.1826 -0.4762  0.1059
  305MOL0     H41152  12.870   1.695  -0.080 -1.7164 -2.0726 -0.4580
  305MOL0     H41153  13.057   1.715  -0.313  2.0580  0.1428  0.4904
  305MOL0     H41154  13.058   1.832  -0.180 -0.3235 -0.2337 -0.1857
  305MOL0     H41155  12.056   1.474  -0.123  0.5677  0.5241  0.7004
  305MOL0     H41156  11.828   1.480  -0.189  3.8273 -1.7003  1.1976
  305MOL0     H41157  11.432   1.622  -0.156  0.6518  1.4571  1.4814
  305MOL0     H41158  11.189   1.658  -0.146 -3.8791  3.0656  0.2337
  305MOL0     H41159   9.444   1.613   0.848 -0.5933 -0.1183  0.5431
  305MOL0     H41160   9.223   1.614   0.890 -0.4579  1.1114 -0.9748
  305MOL0     H41161   8.715   1.274   0.780  2.6324  1.0326 -0.0331
  305MOL0     H41162   8.482   1.338   0.817 -0.9949  3.2708  1.9712
  305MOL0     H41163   8.354   1.756   0.740 -1.2607  1.1729 -1.2886
  305MOL0     H41164   8.206   1.680   0.774 -0.7670  0.6056 -1.0368
  305MOL0     H41165   8.246   1.529   0.557  0.7893 -0.9395 -1.0529
  305MOL0     H41166   8.395   1.603   0.538  0.4557  1.3475 -0.0355
  305MOL0     H41167   8.286   1.740   0.382  2.0497 -1.8994  0.1877
  305MOL0     H41168   8.225   1.831   0.514 -2.3628  0.3362 -2.1959
  305MOL0     H41169   8.094   1.590   0.393  0.4913 -0.1472  1.1701
  305MOL0     H41170   8.036   1.680   0.530 -0.8953  0.8795  0.0445
  305MOL0     H41171   7.920   1.943   0.232 -0.0564 -0.8831  0.5782
  305MOL0     H41172   8.579   1.734   0.695 -0.5196 -1.5586 -3.2196
  305MOL0     H41173   8.885   1.626   0.544  1.7108  1.9018 -0.0138
  305MOL0     H41174   8.768   1.756   0.554  0.0211 -0.4882 -0.8652
  305MOL0     H41175   8.898   1.752   0.679 -0.0316 -0.0975  0.2069
  306MOL0     O41176   4.851   5.783   3.010  1.0132  0.0722 -0.1294
  306MOL0     C41177   4.840   5.735   2.900  0.0061  0.8853  0.1537
  306MOL0     O41178   4.917   5.634   2.848 -0.0607  0.2452  0.1150
  306MOL0     C41179   4.988   5.549   2.935 -0.4323 -0.9283  0.5619
  306MOL0     C41180   5.076   5.589   3.036 -0.5453 -0.6071  0.3590
  306MOL0     C41181   5.159   5.494   3.096 -0.2524  0.4254 -0.7890
  306MOL0     C41182   5.161   5.354   3.066  0.5323 -0.5769  0.3785
  306MOL0     O41183   5.229   5.259   3.131  0.5621 -0.4772 -0.8494
  306MOL0     C41184   5.376   5.255   3.105 -0.5223  0.1557 -0.6427
  306MOL0     C41185   5.430   5.121   3.148 -0.2304 -0.5377 -0.3329
  306MOL0     C41186   5.582   5.118   3.118 -0.1816 -0.0555 -0.6657
  306MOL0     C41187   5.649   5.017   3.223 -1.1088 -0.3403  0.0086
  306MOL0     C41188   5.785   4.980   3.181 -0.7139 -0.0549 -0.1847
  306MOL0     C41189   5.858   4.856   3.250 -0.3361 -0.3516  0.7252
  306MOL0     C41190   6.006   4.833   3.208  0.1256 -0.2441 -1.0477
  306MOL0     C41191   6.101   4.943   3.243 -0.4263 -0.5342 -0.1246
  306MOL0     N41192   6.240   4.897   3.264 -0.4703  0.2905  0.1054
  306MOL0     C41193   6.279   4.848   3.382 -1.6145 -0.4997 -1.2140
  306MOL0     C41194   6.414   4.833   3.367 -0.3244 -0.7599  0.4431
  306MOL0     C41195   6.518   4.785   3.454 -0.3852  0.0669 -0.3887
  306MOL0     C41196   6.566   4.906   3.541 -0.2963  0.3020  0.3205
  306MOL0     C41197   6.663   4.871   3.660  0.2670 -0.1083  0.2387
  306MOL0     C41198   6.708   4.976   3.748 -0.2139 -0.6517 -0.4978
  306MOL0     O41199   6.788   5.066   3.672  0.6006 -0.2142 -0.1596
  306MOL0     C41200   6.923   5.044   3.680  0.3964 -0.0636 -0.3568
  306MOL0     C41201   6.996   5.164   3.644 -0.0619  1.4855  0.2620
  306MOL0     C41202   7.134   5.153   3.646  0.2688 -0.1447  0.1510
  306MOL0     C41203   7.207   5.038   3.690  0.3974  0.3835 -0.2482
  306MOL0     C41204   7.353   5.026   3.689  0.4832  0.0668 -0.2551
  306MOL0     O41205   7.407   4.906   3.740 -0.3770  0.3603  0.8587
  306MOL0     C41206   7.541   4.873   3.736  0.7366  0.8830 -0.1007
  306MOL0     C41207   7.598   4.794   3.840 -0.1586  0.4618  1.2403
  306MOL0     C41208   7.736   4.748   3.823 -0.3254 -0.7707 -0.0532
  306MOL0     C41209   7.801   4.781   3.705 -0.2722  0.1325  0.6528
  306MOL0     O41210   7.932   4.728   3.688  0.5711 -0.0885 -0.5720
  306MOL0     C41211   7.987   4.709   3.556  0.7262 -0.6240 -0.6953
  306MOL0     C41212   8.098   4.613   3.545 -0.7404 -0.7480 -0.1602
  306MOL0     C41213   8.207   4.638   3.651  0.8315  0.5874  0.2674
  306MOL0     C41214   8.329   4.548   3.642 -0.5356 -0.0179  0.3445
  306MOL0     C41215   8.454   4.595   3.723 -0.3074  0.3343 -0.7053
  306MOL0     C41216   8.527   4.480   3.793  0.7901  0.1294 -0.6738
  306MOL0     C41217   8.658   4.506   3.860 -0.0618  0.0150  0.0509
  306MOL0     C41218   8.727   4.380   3.920  0.5906 -1.0326 -0.7052
  306MOL0    Cl41219   8.809   4.279   3.802  0.1579 -0.5306 -0.1894
  306MOL0     C41220   7.748   4.875   3.613 -0.5678 -0.3697 -0.5167
  306MOL0     C41221   7.618   4.919   3.628 -0.1343 -0.1513 -0.8684
  306MOL0     O41222   7.415   5.124   3.649  0.2982 -0.6157  0.7120
  306MOL0     C41223   7.130   4.924   3.720  0.2688 -0.8816  0.7946
  306MOL0     C41224   6.987   4.927   3.712 -0.1640  0.1668  0.5303
  306MOL0     N41225   6.454   4.873   3.230  0.2252 -0.2066  0.4353
  306MOL0     N41226   6.344   4.913   3.176  0.7495 -0.8123  0.1196
  306MOL0     C41227   5.076   5.322   2.968  0.8695 -0.1128  0.3183
  306MOL0     C41228   4.980   5.411   2.902 -0.0692  0.2431  0.7099
  306MOL0     C41229   4.735   5.786   2.800  0.6336 -0.0256 -0.8553
  306MOL0     C41230   4.770   5.771   2.665 -0.1098  0.0535  0.2043
  306MOL0     C41231   4.689   5.817   2.559  0.7015 -0.2966 -1.5559
  306MOL0     C41232   4.565   5.878   2.596  0.5880 -0.5882  0.0565
  306MOL0     O41233   4.487   5.920   2.493 -0.5972  0.3693  0.5355
  306MOL0     C41234   4.413   6.036   2.508  0.3287  0.4812 -0.6710
  306MOL0     C41235   4.284   6.016   2.426 -0.2300 -0.5314  0.3122
  306MOL0     C41236   4.193   5.930   2.511 -0.0863  0.6478 -0.1864
  306MOL0     C41237   4.041   5.947   2.473 -0.3392  0.8659  0.0134
  306MOL0     C41238   3.955   5.875   2.577  0.2318 -0.9531 -0.4410
  306MOL0     C41239   3.883   5.821   2.652  0.8789 -0.3549  0.4810
  306MOL0     C41240   4.529   5.895   2.737 -0.6941 -0.8139 -0.2776
  306MOL0     C41241   4.615   5.856   2.839  0.6640  0.3665  0.0087
  306MOL0     C41242   4.561   5.876   2.977 -0.9828 -1.0895  0.1823
  306MOL0     H41243   5.083   5.694   3.066 -1.0135 -0.5315  0.2045
  306MOL0     H41244   5.228   5.516   3.177  0.1698 -0.2245 -0.9705
  306MOL0     H41245   5.404   5.267   3.000 -2.3137 -0.1735 -1.2035
  306MOL0     H41246   5.424   5.338   3.157 -3.2053  1.7623 -0.5288
  306MOL0     H41247   5.386   5.038   3.092 -0.3690 -0.5018 -0.2777
  306MOL0     H41248   5.403   5.098   3.252 -2.5491  0.4981 -0.6544
  306MOL0     H41249   5.629   5.216   3.135  0.2086 -0.2407 -0.6547
  306MOL0     H41250   5.595   5.085   3.014 -1.3260  0.4042 -0.9739
  306MOL0     H41251   5.642   5.058   3.324  0.4201  1.0102 -0.3874
  306MOL0     H41252   5.594   4.923   3.215  0.4469 -1.3840  1.0404
  306MOL0     H41253   5.786   4.959   3.073  3.2613  0.9117 -0.4973
  306MOL0     H41254   5.842   5.074   3.188  0.8284 -0.7630 -2.0921
  306MOL0     H41255   5.854   4.866   3.359 -0.3180 -3.2431  1.0817
  306MOL0     H41256   5.796   4.767   3.231  0.4915 -1.1995  1.8597
  306MOL0     H41257   5.999   4.823   3.100 -0.8763 -1.3898 -0.8982
  306MOL0     H41258   6.040   4.738   3.252 -1.3560 -0.8655 -1.2046
  306MOL0     H41259   6.104   5.008   3.155  1.9873 -2.3184 -1.4804
  306MOL0     H41260   6.074   5.012   3.323  1.4586 -1.2029  1.1686
  306MOL0     H41261   6.227   4.835   3.476  3.2301  1.4760  2.1436
  306MOL0     H41262   6.493   4.699   3.517 -0.3344  0.9010  0.7973
  306MOL0     H41263   6.600   4.738   3.398 -0.6628 -2.4859  1.2008
  306MOL0     H41264   6.608   4.984   3.476 -0.7509 -0.8900 -1.4676
  306MOL0     H41265   6.475   4.956   3.576 -0.7501  0.1738 -0.6533
  306MOL0     H41266   6.742   4.811   3.615  1.3467  0.2547  1.5925
  306MOL0     H41267   6.620   4.800   3.732  1.5170 -1.1708 -0.0125
  306MOL0     H41268   6.748   4.918   3.832 -2.3667 -0.1202  0.9552
  306MOL0     H41269   6.618   5.031   3.777 -0.8715  0.0287 -3.4896
  306MOL0     H41270   6.946   5.247   3.595 -3.6116 -0.3258  0.4042
  306MOL0     H41271   7.188   5.237   3.603 -0.7644 -0.3552 -1.6631
  306MOL0     H41272   7.552   4.750   3.927  3.2670 -3.2521  1.4687
  306MOL0     H41273   7.795   4.689   3.892  2.1341  0.3294 -1.1155
  306MOL0     H41274   7.909   4.680   3.485  0.9330  3.3742 -2.8485
  306MOL0     H41275   8.019   4.807   3.518 -1.0809 -0.1800 -1.1554
  306MOL0     H41276   8.061   4.512   3.567 -0.1536 -0.3060  3.4849
  306MOL0     H41277   8.136   4.617   3.442 -0.8937  0.8110 -0.1684
  306MOL0     H41278   8.243   4.741   3.656  0.5835  0.6415  1.1536
  306MOL0     H41279   8.168   4.611   3.750  2.1337 -0.2655  0.5719
  306MOL0     H41280   8.361   4.541   3.537 -0.8577 -1.9443  0.3348
  306MOL0     H41281   8.299   4.448   3.675  3.6444 -0.8964  1.9880
  306MOL0     H41282   8.427   4.668   3.800  0.7041  0.6676 -0.6497
  306MOL0     H41283   8.519   4.642   3.648  3.1679 -1.8229  0.7148
  306MOL0     H41284   8.458   4.429   3.861  0.8807 -1.1998 -1.5318
  306MOL0     H41285   8.555   4.403   3.721  1.3824 -1.9149  1.6095
  306MOL0     H41286   8.640   4.571   3.946  3.9529 -0.4686  1.4582
  306MOL0     H41287   8.725   4.549   3.785 -0.7765  0.3962 -0.3768
  306MOL0     H41288   8.802   4.416   3.992 -0.2521 -2.3330  0.9158
  306MOL0     H41289   8.660   4.324   3.986  0.4908 -2.3694 -1.8993
  306MOL0     H41290   7.813   4.912   3.533 -0.9716  0.6020 -0.4087
  306MOL0     H41291   7.572   4.970   3.544  0.9298 -0.0186 -1.3859
  306MOL0     H41292   7.185   4.832   3.739  1.3259 -0.7922 -1.4786
  306MOL0     H41293   6.945   4.831   3.739  3.0667 -2.0094 -1.4295
  306MOL0     H41294   5.066   5.216   2.950 -0.8981  0.2478 -1.1697
  306MOL0     H41295   4.911   5.387   2.822 -0.2285  1.5520  0.4338
  306MOL0     H41296   4.869   5.728   2.651  0.0052 -0.0126  1.1646
  306MOL0     H41297   4.696   5.801   2.452 -0.8548 -1.0665 -1.5654
  306MOL0     H41298   4.473   6.107   2.450  3.3620  0.3722  2.0285
  306MOL0     H41299   4.401   6.067   2.613  0.8633 -1.5513  0.0348
  306MOL0     H41300   4.313   5.975   2.329 -0.8749 -0.4312  0.0751
  306MOL0     H41301   4.246   6.117   2.409 -1.6010 -0.7312  1.9047
  306MOL0     H41302   4.213   5.952   2.616  0.0696  0.8092 -0.2492
  306MOL0     H41303   4.208   5.823   2.490  1.0416  1.2346 -2.7534
  306MOL0     H41304   4.023   6.054   2.483 -1.2962  1.2464 -4.1943
  306MOL0     H41305   4.005   5.906   2.379 -2.1005  0.5692  0.7855
  306MOL0     H41306   3.809   5.777   2.717  0.3955  0.3344  0.4025
  306MOL0     H41307   4.436   5.939   2.771  1.4193  2.5071  1.7794
  306MOL0     H41308   4.463   5.927   2.977 -1.3332 -1.6650 -1.6828
  306MOL0     H41309   4.540   5.780   3.023 -2.4819 -1.0338 -0.3209
  306MOL0     H41310   4.640   5.932   3.028 -0.4949  0.5278 -2.1528
  307MOL0     O41311   3.746   3.401  10.307  0.1482 -0.0033  0.0967
  307MOL0     C41312   3.647   3.334  10.334 -0.2674 -0.1540  0.6086
  307MOL0     O41313   3.635   3.254  10.432  0.0905  0.2465 -0.9769
  307MOL0     C41314   3.747   3.232  10.517 -0.5626 -0.1151 -0.0871
  307MOL0     C41315   3.747   3.299  10.634 -0.0203  0.2988 -0.4322
  307MOL0     C41316   3.852   3.316  10.723 -0.2732  0.5350  0.5012
  307MOL0     C41317   3.966   3.226  10.694 -0.4191 -0.1828  0.6455
  307MOL0     O41318   4.074   3.221  10.781  0.8566 -0.0145  0.3301
  307MOL0     C41319   4.174   3.320  10.752  0.4593  0.3496  1.2794
  307MOL0     C41320   4.303   3.300  10.843  0.9362 -0.2464 -0.6331
  307MOL0     C41321   4.403   3.405  10.807  0.2750 -0.0558 -0.1618
  307MOL0     C41322   4.509   3.394  10.912  0.0124  0.1994 -1.0631
  307MOL0     C41323   4.641   3.454  10.860 -0.3381  0.1738  0.0742
  307MOL0     C41324   4.759   3.417  10.947  0.5873 -0.5024 -0.7830
  307MOL0     C41325   4.884   3.436  10.866  0.4425 -0.0795  0.8222
  307MOL0     C41326   5.004   3.376  10.929 -0.5714  0.2280  0.2488
  307MOL0     N41327   5.136   3.428  10.892  0.2653 -0.2905 -0.0529
  307MOL0     C41328   5.195   3.429  10.770  0.3351 -0.6092 -0.0762
  307MOL0     C41329   5.297   3.515  10.768  0.0468  0.5521 -1.3541
  307MOL0     C41330   5.388   3.558  10.650  0.2475 -0.4524  0.0927
  307MOL0     C41331   5.506   3.471  10.614 -0.5723  0.7456  0.4634
  307MOL0     C41332   5.616   3.481  10.711 -0.1606 -0.5413 -0.8711
  307MOL0     C41333   5.739   3.435  10.635  0.7414  0.3104 -0.6386
  307MOL0     O41334   5.823   3.373  10.734  0.3703  0.3525  0.1896
  307MOL0     C41335   5.958   3.371  10.711 -0.5330  0.3090  0.5906
  307MOL0     C41336   6.047   3.361  10.823 -0.4364 -1.2913 -0.6496
  307MOL0     C41337   6.190   3.367  10.810 -0.2580  0.1426  0.3521
  307MOL0     C41338   6.246   3.381  10.682  0.4850  0.1724  0.0845
  307MOL0     C41339   6.399   3.382  10.659  0.4949  0.7070  0.7799
  307MOL0     O41340   6.452   3.403  10.531  0.3979  0.1438  0.9627
  307MOL0     C41341   6.578   3.459  10.509  0.4279 -0.0794 -0.2059
  307MOL0     C41342   6.629   3.564  10.594  0.5748  0.0417  0.6236
  307MOL0     C41343   6.761   3.609  10.568  0.9276  0.0750  0.1527
  307MOL0     C41344   6.835   3.566  10.454 -0.3954  0.3092 -0.6304
  307MOL0     O41345   6.952   3.630  10.415  0.2573  0.8813 -0.2857
  307MOL0     C41346   7.049   3.681  10.511  0.4765 -0.8989 -0.1458
  307MOL0     C41347   7.184   3.715  10.444 -0.3728 -0.1649 -0.1522
  307MOL0     C41348   7.182   3.847  10.355 -0.4572  1.0637  0.0615
  307MOL0     C41349   7.303   3.928  10.331 -0.7512 -0.5198 -0.4176
  307MOL0     C41350   7.293   4.040  10.220  0.5957  0.1640  0.0019
  307MOL0     C41351   7.389   4.160  10.241 -0.0635 -0.1465 -0.2619
  307MOL0     C41352   7.343   4.272  10.142 -0.0559 -0.3077 -0.3949
  307MOL0     C41353   7.407   4.412  10.192  0.5961  0.2966 -0.6296
  307MOL0    Cl41354   7.302   4.485  10.309  0.3348 -0.9565  0.1703
  307MOL0     C41355   6.778   3.471  10.377 -0.2315  0.7553 -0.8036
  307MOL0     C41356   6.650   3.415  10.403  0.1492 -0.2085 -0.7433
  307MOL0     O41357   6.466   3.369  10.764  0.0434  0.1213  0.3784
  307MOL0     C41358   6.154   3.392  10.571 -0.5582  0.6137 -0.2389
  307MOL0     C41359   6.017   3.378  10.585  0.1953  0.0455  0.0137
  307MOL0     N41360   5.304   3.570  10.897  0.4278 -0.2385  0.1151
  307MOL0     N41361   5.199   3.528  10.963  0.0999 -0.1801  0.1126
  307MOL0     C41362   3.964   3.148  10.578 -0.3926  0.5171 -0.1539
  307MOL0     C41363   3.853   3.140  10.495 -0.4884 -0.2691 -0.4410
  307MOL0     C41364   3.533   3.369  10.244  0.3635  0.1974 -0.5800
  307MOL0     C41365   3.473   3.259  10.175 -0.7299 -0.3516 -0.2081
  307MOL0     C41366   3.373   3.291  10.079 -0.3857 -0.8141  0.1513
  307MOL0     C41367   3.341   3.424  10.042 -1.0153  0.6535 -0.4849
  307MOL0     O41368   3.258   3.460   9.955  0.1612 -0.2016  0.1224
  307MOL0     C41369   3.115   3.434   9.970  0.2926 -0.7798 -0.0346
  307MOL0     C41370   3.041   3.506  10.086  0.3486 -0.2019  1.1300
  307MOL0     C41371   3.009   3.653  10.054 -0.2018 -0.0485  0.2841
  307MOL0     C41372   2.971   3.736  10.180 -0.1054 -0.5939 -0.0833
  307MOL0     C41373   3.091   3.758  10.269  0.3483 -0.6666 -0.4252
  307MOL0     C41374   3.185   3.772  10.348  0.3184  0.2311 -0.2662
  307MOL0     C41375   3.403   3.529  10.112 -0.5389  0.8078  0.0078
  307MOL0     C41376   3.499   3.502  10.215 -0.0910  0.4743 -0.1137
  307MOL0     C41377   3.542   3.631  10.284  0.4909 -0.5809 -0.9256
  307MOL0     H41378   3.660   3.362  10.648  0.7776  1.4592 -0.5168
  307MOL0     H41379   3.852   3.370  10.818 -0.1488  0.7401  0.3857
  307MOL0     H41380   4.205   3.315  10.648 -0.7966 -1.6981  0.9434
  307MOL0     H41381   4.131   3.419  10.764  1.5251  1.1898 -1.1997
  307MOL0     H41382   4.344   3.199  10.836  1.4011 -0.1216  0.1761
  307MOL0     H41383   4.276   3.321  10.947  1.3060 -4.0237  0.3638
  307MOL0     H41384   4.371   3.510  10.808  2.4897  0.6744 -0.9574
  307MOL0     H41385   4.443   3.379  10.709  0.1738  0.5544 -0.3708
  307MOL0     H41386   4.475   3.435  11.007 -1.3204 -1.5545 -0.7157
  307MOL0     H41387   4.530   3.287  10.922 -0.3418  0.2180 -0.0445
  307MOL0     H41388   4.653   3.406  10.762  1.3159  2.1566 -0.7690
  307MOL0     H41389   4.645   3.563  10.857  1.2067  0.6075  6.0096
  307MOL0     H41390   4.759   3.486  11.032 -3.3910 -0.9611 -0.2333
  307MOL0     H41391   4.754   3.314  10.982 -4.6801  0.0969  1.0265
  307MOL0     H41392   4.899   3.545  10.865  1.3621 -0.2068  0.1845
  307MOL0     H41393   4.867   3.395  10.766 -0.0216 -0.6766  1.1370
  307MOL0     H41394   4.996   3.400  11.035  0.3930  0.0233  0.3769
  307MOL0     H41395   5.009   3.267  10.930  0.6510  0.2608  1.7578
  307MOL0     H41396   5.151   3.380  10.683  0.1834  0.2358 -0.4869
  307MOL0     H41397   5.317   3.557  10.566 -0.1044  1.1990  0.3359
  307MOL0     H41398   5.411   3.663  10.670  1.1931 -0.6695  0.1620
  307MOL0     H41399   5.464   3.371  10.598 -0.3219  0.7273 -0.1284
  307MOL0     H41400   5.536   3.497  10.512 -0.3535 -0.0607  0.3158
  307MOL0     H41401   5.596   3.420  10.800  1.9863 -1.0145 -0.6521
  307MOL0     H41402   5.634   3.584  10.742  2.0293 -0.6554 -1.5855
  307MOL0     H41403   5.781   3.521  10.581  0.6164  2.7210  2.8218
  307MOL0     H41404   5.713   3.350  10.571  1.0479 -1.6064  1.6369
  307MOL0     H41405   6.012   3.344  10.924 -0.5832 -0.1940 -0.5051
  307MOL0     H41406   6.243   3.359  10.905 -2.2089 -2.2506  1.3629
  307MOL0     H41407   6.584   3.612  10.680  2.6076  3.6706 -0.1400
  307MOL0     H41408   6.795   3.686  10.636  1.7030 -0.5639  0.4936
  307MOL0     H41409   7.010   3.771  10.559 -1.7612 -0.5151 -2.4851
  307MOL0     H41410   7.075   3.598  10.578  1.1118 -1.2072 -0.7519
  307MOL0     H41411   7.258   3.727  10.523 -0.4217 -1.1324  0.0498
  307MOL0     H41412   7.208   3.628  10.382 -0.1503 -0.1795 -0.0474
  307MOL0     H41413   7.157   3.813  10.254 -1.3230 -0.3033  0.7046
  307MOL0     H41414   7.109   3.913  10.402 -3.0446 -1.0209 -0.7565
  307MOL0     H41415   7.389   3.867  10.302 -0.1852  1.1980 -2.6363
  307MOL0     H41416   7.333   3.983  10.421  0.9846 -0.4259 -1.0016
  307MOL0     H41417   7.188   4.066  10.237 -0.2900 -2.6330 -0.7046
  307MOL0     H41418   7.291   3.989  10.123 -3.8823 -5.3381  2.3911
  307MOL0     H41419   7.377   4.194  10.344  0.5019 -3.0146  0.8555
  307MOL0     H41420   7.494   4.139  10.221 -0.2978  0.0698 -1.8206
  307MOL0     H41421   7.235   4.287  10.141 -0.1738 -1.0413 -1.5929
  307MOL0     H41422   7.369   4.244  10.039 -0.7878 -0.1000 -0.6341
  307MOL0     H41423   7.501   4.389  10.242  0.8975  0.6080 -1.0435
  307MOL0     H41424   7.429   4.483  10.112  2.0325  1.7849  0.9873
  307MOL0     H41425   6.831   3.442  10.287  0.2539 -1.6484  0.1637
  307MOL0     H41426   6.598   3.356  10.328  0.6164 -0.0371 -1.2093
  307MOL0     H41427   6.190   3.413  10.471 -3.2960  3.4474 -0.8083
  307MOL0     H41428   5.952   3.381  10.499 -2.0937  1.1227  1.6892
  307MOL0     H41429   4.045   3.082  10.547 -1.2182 -0.4584 -0.2919
  307MOL0     H41430   3.858   3.068  10.414  0.3833  0.1426 -0.7657
  307MOL0     H41431   3.505   3.156  10.175 -0.1929 -0.1884  0.2941
  307MOL0     H41432   3.322   3.203  10.039 -1.9395 -0.8531  2.0309
  307MOL0     H41433   3.096   3.327   9.983 -1.1089 -0.4985  0.4847
  307MOL0     H41434   3.055   3.462   9.883  0.2517  4.0174  1.2335
  307MOL0     H41435   3.086   3.500  10.186 -1.4578 -0.6812  1.9454
  307MOL0     H41436   2.945   3.457  10.099  0.0967 -0.4210 -1.1631
  307MOL0     H41437   2.928   3.665   9.982 -2.3733 -3.6959  1.8425
  307MOL0     H41438   3.097   3.698  10.007 -1.6470  1.9708 -0.6288
  307MOL0     H41439   2.950   3.841  10.159  3.1787  0.6521  2.1378
  307MOL0     H41440   2.883   3.706  10.239 -3.8534  3.4067 -2.9856
  307MOL0     H41441   3.259   3.798  10.421 -0.3906 -0.9855  0.9509
  307MOL0     H41442   3.367   3.630  10.097  1.0933  1.1603 -1.9568
  307MOL0     H41443   3.638   3.658  10.239 -0.6798  2.0480 -2.0843
  307MOL0     H41444   3.468   3.711  10.272 -1.5334 -2.3730 -1.0109
  307MOL0     H41445   3.557   3.613  10.391  1.4403  3.6374 -0.1681
  308MOL0     O41446   8.141   8.059   6.520 -0.6302  0.0448  0.6857
  308MOL0     C41447   8.066   8.151   6.542  0.3202 -0.4063  0.1069
  308MOL0     O41448   8.013   8.183   6.665  0.5969  0.0749 -0.6698
  308MOL0     C41449   8.039   8.105   6.776  0.1241 -0.0368 -0.1291
  308MOL0     C41450   7.936   8.062   6.854 -0.7434 -1.4600 -0.3366
  308MOL0     C41451   7.950   7.988   6.968 -0.5432 -0.7212  0.5506
  308MOL0     C41452   8.076   7.961   7.014  0.1393 -0.6469  0.8671
  308MOL0     O41453   8.075   7.910   7.141 -0.6436 -1.1376 -0.0668
  308MOL0     C41454   8.196   7.868   7.196 -0.3577  0.3773  0.6142
  308MOL0     C41455   8.187   7.803   7.326  0.0591  1.0268 -0.3235
  308MOL0     C41456   8.325   7.775   7.397 -0.0642  0.2442  0.5308
  308MOL0     C41457   8.367   7.626   7.402  0.3304 -0.1642  0.5983
  308MOL0     C41458   8.368   7.547   7.270  0.4518 -0.0695  0.0199
  308MOL0     C41459   8.476   7.611   7.168  0.1580 -0.0100  0.4309
  308MOL0     C41460   8.620   7.595   7.204 -1.2426 -0.3598  0.2571
  308MOL0     C41461   8.724   7.609   7.089 -0.3578 -0.3819 -1.0234
  308MOL0     N41462   8.754   7.750   7.053 -0.1054 -0.4111  0.6111
  308MOL0     C41463   8.883   7.808   7.038 -0.0442  0.9401 -0.2238
  308MOL0     C41464   8.859   7.942   7.022 -0.9381  0.3268  0.1937
  308MOL0     C41465   8.949   8.056   6.980 -0.5159 -0.7508  0.6626
  308MOL0     C41466   8.978   8.071   6.826 -0.4079  0.1655  0.1248
  308MOL0     C41467   9.042   8.206   6.792 -0.1076 -0.7317  0.3289
  308MOL0     C41468   9.191   8.197   6.833 -0.1122 -0.4892  0.3961
  308MOL0     O41469   9.269   8.289   6.760  0.1249 -0.3209 -0.1551
  308MOL0     C41470   9.404   8.295   6.786 -0.3154  0.6772  0.4604
  308MOL0     C41471   9.472   8.215   6.887  0.9446  0.2001  0.7154
  308MOL0     C41472   9.612   8.215   6.892  0.0425  0.1070  0.6195
  308MOL0     C41473   9.685   8.308   6.817 -0.5936  0.4556  0.5017
  308MOL0     C41474   9.830   8.326   6.840 -0.2214  0.1716  0.6910
  308MOL0     O41475   9.887   8.243   6.934  0.1139  0.6030 -0.3822
  308MOL0     C41476  10.025   8.248   6.961 -0.6769 -0.1722 -0.7809
  308MOL0     C41477  10.075   8.290   7.082 -0.0370 -0.3764 -1.0920
  308MOL0     C41478  10.213   8.278   7.113 -1.1385  1.0159  0.3851
  308MOL0     C41479  10.297   8.216   7.020  0.2215  0.5146 -0.4448
  308MOL0     O41480  10.431   8.203   7.045 -0.2450  0.9007 -0.2903
  308MOL0     C41481  10.523   8.149   6.946  1.0365  0.1809  0.2503
  308MOL0     C41482  10.672   8.150   7.000  0.8530 -0.4512  0.4541
  308MOL0     C41483  10.772   8.140   6.890 -0.2089  0.2087  0.2316
  308MOL0     C41484  10.910   8.157   6.948 -0.6213  0.8023 -0.0107
  308MOL0     C41485  11.005   8.178   6.826 -0.1249  0.1686 -0.5648
  308MOL0     C41486  11.147   8.235   6.864  1.1169 -0.1407  0.1665
  308MOL0     C41487  11.225   8.154   6.973 -0.2964 -0.2528  0.1611
  308MOL0     C41488  11.362   8.221   6.985 -0.2252  0.3291 -0.0213
  308MOL0    Cl41489  11.456   8.194   6.839  0.1192  0.0602  0.0602
  308MOL0     C41490  10.248   8.192   6.899  0.1981  1.0151  0.2332
  308MOL0     C41491  10.111   8.202   6.866  0.1538 -0.0815 -0.3142
  308MOL0     O41492   9.890   8.415   6.774  0.7070 -0.2927  0.5999
  308MOL0     C41493   9.615   8.382   6.723  0.6326 -0.5130 -0.3345
  308MOL0     C41494   9.484   8.372   6.699 -0.1153 -0.5373  0.1824
  308MOL0     N41495   8.727   7.955   7.030  0.4603 -0.3859 -0.0648
  308MOL0     N41496   8.657   7.841   7.044 -0.0151 -0.6697 -0.1651
  308MOL0     C41497   8.188   7.994   6.933  0.1681  0.3472  0.0991
  308MOL0     C41498   8.169   8.061   6.812  0.7701  0.7669  0.3172
  308MOL0     C41499   8.038   8.254   6.432  0.2809 -0.0342  0.0295
  308MOL0     C41500   7.951   8.363   6.472  0.5904 -0.4431  0.2770
  308MOL0     C41501   7.919   8.463   6.375 -0.3431 -0.6174 -0.4888
  308MOL0     C41502   7.951   8.449   6.242 -1.1328  0.2917  0.4511
  308MOL0     O41503   7.923   8.525   6.135 -0.0147 -0.2102  0.5251
  308MOL0     C41504   7.808   8.609   6.126  0.0635 -0.7330  0.0977
  308MOL0     C41505   7.676   8.529   6.122  0.3847  0.0217  0.7408
  308MOL0     C41506   7.544   8.608   6.078 -0.6849 -0.7984 -0.5882
  308MOL0     C41507   7.513   8.718   6.183 -0.6314  0.0976 -0.7598
  308MOL0     C41508   7.484   8.659   6.316 -0.4198  0.6577 -0.7949
  308MOL0     C41509   7.454   8.603   6.427  0.5912 -0.8653  0.0327
  308MOL0     C41510   8.039   8.338   6.215  0.4633 -0.3895 -0.7674
  308MOL0     C41511   8.087   8.248   6.306 -0.0240 -0.3701  0.3514
  308MOL0     C41512   8.194   8.153   6.257 -0.2544  0.2193 -1.0037
  308MOL0     H41513   7.832   8.084   6.831 -0.1353  1.1288 -0.9940
  308MOL0     H41514   7.866   7.960   7.030 -1.3016  2.6399  1.2384
  308MOL0     H41515   8.250   7.803   7.126  1.4843  0.3456  1.9942
  308MOL0     H41516   8.272   7.947   7.200  2.6728 -2.3748  1.4516
  308MOL0     H41517   8.138   7.707   7.303  2.1980  0.2855 -2.2867
  308MOL0     H41518   8.129   7.856   7.402 -0.6506  1.5802 -1.2342
  308MOL0     H41519   8.315   7.790   7.505  1.5503 -4.0936  1.5067
  308MOL0     H41520   8.401   7.846   7.364 -2.2237  2.9203  0.9789
  308MOL0     H41521   8.461   7.607   7.454  0.2087 -1.0173  0.5239
  308MOL0     H41522   8.288   7.583   7.464 -1.4436 -0.4652 -1.7424
  308MOL0     H41523   8.390   7.441   7.288 -0.4054 -0.3950 -0.7204
  308MOL0     H41524   8.266   7.552   7.231  0.2030  2.6987  0.8260
  308MOL0     H41525   8.459   7.567   7.068 -0.2804 -0.2252  0.5951
  308MOL0     H41526   8.446   7.716   7.158  0.0628  0.0892  1.6230
  308MOL0     H41527   8.631   7.494   7.245 -2.3377 -0.3509  0.6005
  308MOL0     H41528   8.649   7.667   7.281  0.7734  0.9351 -1.6184
  308MOL0     H41529   8.817   7.561   7.121  0.4890  3.4819  3.5033
  308MOL0     H41530   8.692   7.556   7.000 -3.7094 -0.3039 -0.0155
  308MOL0     H41531   8.971   7.745   7.029 -0.7239  0.1608 -2.0345
  308MOL0     H41532   8.885   8.139   7.010  0.4999  0.3323 -0.0470
  308MOL0     H41533   9.047   8.054   7.028 -0.3866 -1.7293  0.3787
  308MOL0     H41534   9.035   7.986   6.790 -0.8733 -0.5837  1.0966
  308MOL0     H41535   8.890   8.079   6.761 -1.3092  2.2532  1.4898
  308MOL0     H41536   8.981   8.287   6.833 -1.5652  0.1596 -3.2265
  308MOL0     H41537   9.050   8.221   6.684  1.1633 -2.6441  0.1136
  308MOL0     H41538   9.224   8.092   6.833  0.3371 -0.3725 -0.9474
  308MOL0     H41539   9.206   8.225   6.937  1.1459 -1.7646  0.5878
  308MOL0     H41540   9.396   8.159   6.941 -3.8144  4.2462 -0.9724
  308MOL0     H41541   9.658   8.147   6.963 -2.1043  2.0586  4.1784
  308MOL0     H41542  10.007   8.323   7.160  2.7835  0.0215  1.4131
  308MOL0     H41543  10.264   8.318   7.200 -0.1404  2.9261 -1.0016
  308MOL0     H41544  10.490   8.046   6.930  0.0427  0.5167  0.0823
  308MOL0     H41545  10.515   8.207   6.854 -1.0655 -0.6822 -0.1559
  308MOL0     H41546  10.694   8.249   7.043  4.8802 -1.7904  1.9857
  308MOL0     H41547  10.688   8.077   7.080 -0.2411 -1.4232 -0.1898
  308MOL0     H41548  10.758   8.037   6.855 -3.5865 -0.0443  1.9035
  308MOL0     H41549  10.744   8.217   6.818 -3.3526  0.5082  1.6048
  308MOL0     H41550  10.932   8.068   7.007 -1.4519 -0.5935 -1.7398
  308MOL0     H41551  10.915   8.250   7.006  3.2406  0.6232  0.1695
  308MOL0     H41552  10.960   8.245   6.753  1.5899  1.1237 -0.8081
  308MOL0     H41553  11.017   8.084   6.772 -0.4345  0.4577 -1.1432
  308MOL0     H41554  11.202   8.252   6.771  0.6031  0.5533 -0.0225
  308MOL0     H41555  11.136   8.330   6.918  2.8769 -0.1064  0.5217
  308MOL0     H41556  11.229   8.048   6.945  1.6006 -0.2233  0.1748
  308MOL0     H41557  11.175   8.154   7.071  0.7169  0.9557  0.7130
  308MOL0     H41558  11.345   8.328   6.999  3.0571  1.0910 -0.8309
  308MOL0     H41559  11.425   8.199   7.072 -1.2426 -0.7185  0.4718
  308MOL0     H41560  10.308   8.140   6.825 -1.5413 -1.9417  0.7215
  308MOL0     H41561  10.070   8.178   6.768 -3.1204  3.4250 -0.0695
  308MOL0     H41562   9.666   8.460   6.668  2.9372  0.9302  3.4521
  308MOL0     H41563   9.445   8.434   6.619 -2.0240 -1.5659  0.2594
  308MOL0     H41564   8.289   7.978   6.969  0.2404 -1.9410 -0.9119
  308MOL0     H41565   8.243   8.101   6.743 -0.6746  0.6385 -1.3785
  308MOL0     H41566   7.918   8.371   6.575 -1.2730  0.2574 -0.3286
  308MOL0     H41567   7.860   8.548   6.409  0.0704 -0.7375  0.5603
  308MOL0     H41568   7.813   8.668   6.034 -0.3573 -3.4436 -1.7880
  308MOL0     H41569   7.801   8.674   6.214 -0.7367 -2.3662  1.2807
  308MOL0     H41570   7.657   8.485   6.220 -1.8023 -0.3728  0.1842
  308MOL0     H41571   7.690   8.449   6.048  0.5914  2.8737 -2.5427
  308MOL0     H41572   7.460   8.538   6.073  0.7102 -2.4088 -2.7790
  308MOL0     H41573   7.556   8.657   5.981  3.0542 -2.8702 -1.3460
  308MOL0     H41574   7.590   8.794   6.190 -0.2400 -0.3054 -0.6347
  308MOL0     H41575   7.424   8.775   6.154  0.8568  2.9329 -0.0938
  308MOL0     H41576   7.412   8.575   6.522  0.2061  1.7916  0.7346
  308MOL0     H41577   8.071   8.344   6.111 -3.1565  2.6428 -1.9475
  308MOL0     H41578   8.241   8.189   6.165  0.9445 -0.7176 -0.7795
  308MOL0     H41579   8.273   8.152   6.333 -0.8532 -0.8017 -0.3622
  308MOL0     H41580   8.144   8.056   6.255  2.0993 -1.0931 -0.2429
  309MOL0     O41581   4.597  11.316  11.268 -0.0096  0.4331 -0.2018
  309MOL0     C41582   4.588  11.190  11.251 -0.1562  0.5462 -0.1582
  309MOL0     O41583   4.695  11.105  11.268 -0.1586  0.0235 -0.2540
  309MOL0     C41584   4.822  11.157  11.267  0.0194  0.8115  0.5040
  309MOL0     C41585   4.873  11.228  11.161  0.4956  1.0466 -0.1093
  309MOL0     C41586   4.996  11.294  11.173 -0.5814 -0.0377  0.7138
  309MOL0     C41587   5.075  11.285  11.279 -0.7429  0.2910  0.2711
  309MOL0     O41588   5.193  11.356  11.284  0.0149  0.4649 -0.2998
  309MOL0     C41589   5.182  11.485  11.339 -0.6136  0.4561  0.1636
  309MOL0     C41590   5.246  11.591  11.242  0.3388  1.3801  0.6685
  309MOL0     C41591   5.391  11.546  11.194 -0.7064 -0.0965  0.2556
  309MOL0     C41592   5.474  11.671  11.158  0.9944  0.3271  0.6330
  309MOL0     C41593   5.614  11.663  11.224 -0.1786  0.1299  0.6459
  309MOL0     C41594   5.724  11.753  11.157  0.3028 -0.0594  0.1505
  309MOL0     C41595   5.873  11.732  11.193 -1.1454 -0.1397 -0.3662
  309MOL0     C41596   5.913  11.793  11.333  0.6343 -0.2845  0.5429
  309MOL0     N41597   6.046  11.758  11.382 -0.6064  0.3692  0.0259
  309MOL0     C41598   6.160  11.826  11.348  0.9769  0.7691  0.5715
  309MOL0     C41599   6.267  11.762  11.400  0.1204  0.7974  0.3097
  309MOL0     C41600   6.413  11.803  11.399 -0.1448 -0.0729  0.1438
  309MOL0     C41601   6.451  11.831  11.551 -0.3294 -0.1400  0.6143
  309MOL0     C41602   6.601  11.875  11.576  0.6124 -0.3198  0.9748
  309MOL0     C41603   6.631  11.864  11.727 -0.2025 -0.4331 -0.3311
  309MOL0     O41604   6.767  11.907  11.734  0.3924 -0.1318  0.1280
  309MOL0     C41605   6.837  11.885  11.849  0.1212 -1.4421  0.3705
  309MOL0     C41606   6.776  11.858  11.969 -0.5204 -1.3050  0.0264
  309MOL0     C41607   6.854  11.830  12.083  0.1555  1.3801  1.5386
  309MOL0     C41608   6.996  11.831  12.074  0.0425  0.5281 -0.4906
  309MOL0     C41609   7.085  11.808  12.193 -0.4425  0.3759  0.1295
  309MOL0     O41610   7.206  11.744  12.173 -0.8212 -0.7461 -0.2406
  309MOL0     C41611   7.293  11.750  12.272  0.1162 -0.3323 -0.9239
  309MOL0     C41612   7.415  11.813  12.253 -0.2441  0.0453 -0.3231
  309MOL0     C41613   7.521  11.800  12.346  0.3876 -0.3178  0.5095
  309MOL0     C41614   7.504  11.719  12.457  0.3699  0.1958  0.8870
  309MOL0     O41615   7.611  11.700  12.540  0.1115 -0.0280 -0.7111
  309MOL0     C41616   7.595  11.683  12.682  0.3429  0.5815  0.1560
  309MOL0     C41617   7.711  11.761  12.760  0.9905 -0.0256 -0.2124
  309MOL0     C41618   7.706  11.749  12.913  0.7501  0.9499  0.3169
  309MOL0     C41619   7.834  11.808  12.972 -0.3343  1.0912  0.3652
  309MOL0     C41620   7.828  11.795  13.123 -0.3763  0.3521 -0.0390
  309MOL0     C41621   7.966  11.806  13.181  0.4003  0.8523  0.0123
  309MOL0     C41622   8.005  11.950  13.198 -0.2943 -0.0652 -0.0792
  309MOL0     C41623   8.132  11.960  13.285 -0.2315  0.0916  0.1584
  309MOL0    Cl41624   8.148  12.122  13.350 -0.0669  0.3177 -0.2213
  309MOL0     C41625   7.373  11.661  12.481 -0.3792 -0.5138 -0.8062
  309MOL0     C41626   7.267  11.677  12.392  0.1692  0.3513 -0.6027
  309MOL0     O41627   7.041  11.845  12.304  0.5190 -0.3038  0.2449
  309MOL0     C41628   7.053  11.868  11.955 -0.8970  0.7303 -0.1178
  309MOL0     C41629   6.978  11.889  11.846 -0.2619  0.4522 -0.0356
  309MOL0     N41630   6.212  11.658  11.473 -0.8636 -0.2714  0.6890
  309MOL0     N41631   6.084  11.654  11.451 -0.7966 -0.0072 -0.1294
  309MOL0     C41632   5.029  11.215  11.390 -0.8641 -0.1850 -0.8778
  309MOL0     C41633   4.907  11.151  11.377 -0.4921  0.9701 -0.5725
  309MOL0     C41634   4.454  11.147  11.192 -0.0659 -0.2144  0.2035
  309MOL0     C41635   4.341  11.238  11.205  0.2644  0.1388  0.7415
  309MOL0     C41636   4.220  11.214  11.137  0.3420  0.6163 -0.3604
  309MOL0     C41637   4.205  11.098  11.070 -0.3217 -0.3185  1.1132
  309MOL0     O41638   4.083  11.071  11.003 -0.1628 -0.6370  0.0569
  309MOL0     C41639   4.032  11.179  10.916 -0.3210  0.3075 -0.5793
  309MOL0     C41640   3.902  11.147  10.859  0.3924  0.1542 -0.5197
  309MOL0     C41641   3.778  11.143  10.955  0.6028 -0.0315  0.1610
  309MOL0     C41642   3.643  11.127  10.877 -0.3872 -0.1261  0.3549
  309MOL0     C41643   3.659  10.999  10.802  0.5745 -0.0592  0.9485
  309MOL0     C41644   3.698  10.904  10.730  0.1108 -0.4083  0.0792
  309MOL0     C41645   4.301  10.998  11.078 -0.4678 -0.8486 -0.1145
  309MOL0     C41646   4.426  11.021  11.131  0.5046  0.5275 -0.2297
  309MOL0     C41647   4.534  10.917  11.110  0.5624  0.5184  0.6165
  309MOL0     H41648   4.810  11.245  11.074  2.9904  4.2987 -1.4849
  309MOL0     H41649   5.023  11.362  11.093 -1.6130 -1.2134 -0.6833
  309MOL0     H41650   5.078  11.515  11.354 -0.5968  0.6368 -0.0716
  309MOL0     H41651   5.246  11.490  11.427  1.0650 -0.0823 -0.9734
  309MOL0     H41652   5.240  11.687  11.292 -1.2854  0.5003  2.2617
  309MOL0     H41653   5.172  11.599  11.162  0.1137 -0.0645  0.6965
  309MOL0     H41654   5.390  11.467  11.118 -0.1167 -0.3311  0.4836
  309MOL0     H41655   5.428  11.486  11.278 -0.3206 -1.1019 -0.6122
  309MOL0     H41656   5.472  11.696  11.051  0.8203 -1.9121  0.0574
  309MOL0     H41657   5.426  11.761  11.196 -0.6739  0.8439 -2.3712
  309MOL0     H41658   5.601  11.690  11.330  1.2562 -1.3796  1.2480
  309MOL0     H41659   5.653  11.561  11.214  1.8858  0.6268  2.6220
  309MOL0     H41660   5.721  11.731  11.050 -0.4934 -0.9771  0.3566
  309MOL0     H41661   5.689  11.857  11.152 -1.8999 -0.8184 -1.4752
  309MOL0     H41662   5.941  11.776  11.120 -0.3935  0.9448  0.9232
  309MOL0     H41663   5.909  11.629  11.190  2.3668  0.8607  1.4284
  309MOL0     H41664   5.921  11.902  11.323  1.5480 -0.3267  0.7042
  309MOL0     H41665   5.837  11.762  11.405  0.3080  0.6249  0.6071
  309MOL0     H41666   6.163  11.918  11.290 -0.4748  0.6913  0.3236
  309MOL0     H41667   6.489  11.734  11.363  1.4570  1.2518  0.8486
  309MOL0     H41668   6.434  11.889  11.334 -3.0762 -1.1608 -2.5251
  309MOL0     H41669   6.391  11.915  11.585  0.1281  1.8063 -2.9128
  309MOL0     H41670   6.434  11.740  11.609  0.2987 -0.9690 -0.4477
  309MOL0     H41671   6.631  11.972  11.537 -2.9822 -0.3015 -2.4093
  309MOL0     H41672   6.661  11.804  11.517  0.8392 -0.7646  1.7258
  309MOL0     H41673   6.615  11.763  11.765  1.7949 -1.9473 -3.1090
  309MOL0     H41674   6.578  11.941  11.783  0.8312 -0.5582  0.8575
  309MOL0     H41675   6.670  11.865  11.987  0.0122  3.1694  3.0500
  309MOL0     H41676   6.797  11.809  12.173 -2.3246  1.4673  0.0530
  309MOL0     H41677   7.431  11.859  12.156 -1.3122 -2.4633 -1.7919
  309MOL0     H41678   7.613  11.848  12.316  0.1224 -1.0760 -1.7362
  309MOL0     H41679   7.503  11.727  12.721  0.0392  1.1437 -1.1544
  309MOL0     H41680   7.598  11.575  12.698 -1.6180  0.3778 -0.6431
  309MOL0     H41681   7.815  11.750  12.730  1.0864  1.7018 -0.6135
  309MOL0     H41682   7.689  11.866  12.738 -1.1567 -0.1212  1.1749
  309MOL0     H41683   7.622  11.806  12.952  0.9444  1.5806 -0.1678
  309MOL0     H41684   7.690  11.647  12.948 -2.0411  1.0792 -0.3804
  309MOL0     H41685   7.844  11.913  12.941  0.7565  0.8734 -0.0471
  309MOL0     H41686   7.912  11.741  12.935 -0.6285  0.9517 -0.0082
  309MOL0     H41687   7.792  11.696  13.154  0.3787  0.6329  1.8904
  309MOL0     H41688   7.758  11.866  13.168  0.2457  0.9718 -0.0357
  309MOL0     H41689   7.964  11.762  13.282 -1.6071  2.2562  0.6397
  309MOL0     H41690   8.041  11.755  13.120  0.5121  1.2168 -0.1568
  309MOL0     H41691   7.917  11.997  13.244 -0.9863 -0.6802 -0.7530
  309MOL0     H41692   8.028  11.987  13.098 -1.9739  0.7733 -0.1973
  309MOL0     H41693   8.130  11.900  13.376  1.9151 -2.5010 -1.3630
  309MOL0     H41694   8.214  11.926  13.221 -1.0687 -4.3773  1.1598
  309MOL0     H41695   7.356  11.616  12.578  0.2062  2.1267  0.6197
  309MOL0     H41696   7.164  11.644  12.398  1.1485 -3.5133 -2.0740
  309MOL0     H41697   7.161  11.870  11.939 -0.4190  3.7232  2.3859
  309MOL0     H41698   7.020  11.896  11.746  1.7836 -2.7407  0.4666
  309MOL0     H41699   5.077  11.206  11.487  0.0712  2.6440 -0.9758
  309MOL0     H41700   4.872  11.103  11.468 -0.8939 -1.1140 -1.7628
  309MOL0     H41701   4.357  11.328  11.263 -0.0744  0.9323 -0.3626
  309MOL0     H41702   4.132  11.277  11.148 -1.5064 -1.5923 -1.6113
  309MOL0     H41703   4.106  11.194  10.837  1.1463 -0.5470  0.5824
  309MOL0     H41704   4.021  11.268  10.978 -1.1564 -0.9976  1.2562
  309MOL0     H41705   3.912  11.052  10.805 -1.8179  0.0271 -0.8181
  309MOL0     H41706   3.884  11.230  10.790  0.1293  0.5681  0.0400
  309MOL0     H41707   3.786  11.238  11.009 -0.8771 -0.0398  0.4419
  309MOL0     H41708   3.789  11.053  11.017  2.3005  0.4136  0.5470
  309MOL0     H41709   3.565  11.114  10.952 -1.2283  0.8347 -0.3221
  309MOL0     H41710   3.628  11.211  10.808 -2.0131 -2.4247 -2.2914
  309MOL0     H41711   3.721  10.826  10.660  0.2286  1.7756 -2.4823
  309MOL0     H41712   4.282  10.911  11.015  1.5183 -1.0071 -0.5648
  309MOL0     H41713   4.615  10.952  11.045 -1.1495  1.7060 -0.9972
  309MOL0     H41714   4.583  10.889  11.203 -0.3254 -2.1038  0.3621
  309MOL0     H41715   4.513  10.817  11.071 -0.3598 -0.1701  2.7547
  310MOL0     O41716   8.082   9.500   4.346 -0.4970 -0.0395 -0.0408
  310MOL0     C41717   8.002   9.486   4.251 -0.4157  0.2858 -0.4417
  310MOL0     O41718   8.026   9.437   4.131 -0.2985  0.4390 -0.7884
  310MOL0     C41719   8.153   9.406   4.089  0.6119 -0.8354 -0.3018
  310MOL0     C41720   8.241   9.325   4.154  0.1499 -0.4574 -0.3777
  310MOL0     C41721   8.378   9.311   4.122  0.0468 -0.6697 -0.6267
  310MOL0     C41722   8.419   9.376   4.006 -1.1932 -0.7204 -0.5413
  310MOL0     O41723   8.551   9.372   3.979  0.0934  0.6178 -0.1800
  310MOL0     C41724   8.601   9.477   3.890 -0.5454 -0.1126 -0.5099
  310MOL0     C41725   8.755   9.480   3.897  0.1406 -0.4174 -0.1424
  310MOL0     C41726   8.826   9.512   3.766  0.5648  0.0816 -0.4832
  310MOL0     C41727   8.976   9.480   3.789 -0.0571 -0.0957 -0.3734
  310MOL0     C41728   9.050   9.514   3.653 -0.4030  0.4786 -0.0092
  310MOL0     C41729   9.195   9.482   3.667  0.3210  0.4084 -0.1900
  310MOL0     C41730   9.273   9.498   3.543  0.1677 -0.0665  0.5396
  310MOL0     C41731   9.314   9.648   3.503 -0.1744  0.1311 -0.3139
  310MOL0     N41732   9.440   9.694   3.573  0.1969 -0.6446 -0.6687
  310MOL0     C41733   9.556   9.625   3.595 -0.2792  0.8932  0.6813
  310MOL0     C41734   9.637   9.698   3.677 -0.4718  0.3201 -0.1931
  310MOL0     C41735   9.776   9.666   3.716 -0.2041  0.4780  0.0860
  310MOL0     C41736   9.875   9.670   3.601 -0.8042 -0.2770 -0.3998
  310MOL0     C41737  10.023   9.635   3.650  1.0671  0.3277  0.2911
  310MOL0     C41738  10.131   9.643   3.542  0.1146  0.2955  0.2684
  310MOL0     O41739  10.098   9.592   3.410  0.2544 -0.0898  0.4337
  310MOL0     C41740  10.209   9.565   3.340  0.9426 -0.2250  0.3718
  310MOL0     C41741  10.258   9.670   3.263  0.1675 -0.0302  0.6511
  310MOL0     C41742  10.377   9.663   3.190 -0.6506  0.2565 -0.2894
  310MOL0     C41743  10.445   9.541   3.190  0.0451 -0.4045 -0.6848
  310MOL0     C41744  10.566   9.519   3.094  0.4539  0.0958  0.2488
  310MOL0     O41745  10.629   9.397   3.100 -0.1793 -0.0876 -0.2466
  310MOL0     C41746  10.719   9.365   2.990  0.5015  0.0845 -0.7245
  310MOL0     C41747  10.839   9.307   3.041 -0.4831 -0.7021  0.0208
  310MOL0     C41748  10.938   9.276   2.956  0.1060 -0.1773  0.2188
  310MOL0     C41749  10.928   9.292   2.818  0.1458 -0.7376  0.0911
  310MOL0     O41750  11.025   9.241   2.733  0.3458  0.2006 -0.2714
  310MOL0     C41751  11.125   9.340   2.701 -0.7672  0.2028 -0.0863
  310MOL0     C41752  11.195   9.406   2.823 -0.2349  0.2866  0.0294
  310MOL0     C41753  11.307   9.491   2.766 -0.0170 -0.4229  0.5927
  310MOL0     C41754  11.270   9.626   2.712  0.2483 -0.3438  0.2337
  310MOL0     C41755  11.395   9.720   2.692 -0.8827  0.2974 -0.5237
  310MOL0     C41756  11.452   9.790   2.823  0.0098  0.7977  0.1307
  310MOL0     C41757  11.591   9.859   2.798  0.0444 -0.6037 -0.2849
  310MOL0     C41758  11.629   9.955   2.912 -0.4527 -0.1234 -0.4270
  310MOL0    Cl41759  11.808   9.988   2.933  0.2598  0.5791  0.0932
  310MOL0     C41760  10.811   9.357   2.767 -1.1401  0.1302 -0.0836
  310MOL0     C41761  10.704   9.384   2.852 -0.1490  0.3311  0.4518
  310MOL0     O41762  10.583   9.610   3.017  0.3442 -0.5824  1.0776
  310MOL0     C41763  10.400   9.430   3.270 -1.0408 -0.5794 -0.1508
  310MOL0     C41764  10.278   9.442   3.340  0.2135  0.3051 -0.1912
  310MOL0     N41765   9.564   9.816   3.698  0.4860  0.0897 -0.1783
  310MOL0     N41766   9.446   9.811   3.641  0.3531  0.1255  0.2714
  310MOL0     C41767   8.326   9.457   3.931  0.8306 -0.4586  0.9449
  310MOL0     C41768   8.194   9.463   3.968 -0.6529 -0.2174  0.2944
  310MOL0     C41769   7.867   9.537   4.280  0.2606  0.2361 -0.5412
  310MOL0     C41770   7.793   9.584   4.168  0.3122 -0.5154 -0.5186
  310MOL0     C41771   7.676   9.653   4.185 -0.0755  0.4016 -0.0408
  310MOL0     C41772   7.617   9.667   4.310 -0.0850  0.2352  0.5413
  310MOL0     O41773   7.505   9.738   4.322 -0.3240  0.1336 -0.4303
  310MOL0     C41774   7.441   9.754   4.454 -0.1396 -0.5599  0.0100
  310MOL0     C41775   7.318   9.845   4.433  0.1246 -0.2528 -0.0165
  310MOL0     C41776   7.314   9.927   4.298  0.2519  0.4784  0.6145
  310MOL0     C41777   7.203  10.032   4.286 -0.5584  0.4417  1.0995
  310MOL0     C41778   7.246  10.148   4.368 -0.3383  0.0157 -0.4887
  310MOL0     C41779   7.278  10.233   4.443  0.1985 -0.6330 -0.5105
  310MOL0     C41780   7.674   9.608   4.420 -0.0216  0.1718 -0.3893
  310MOL0     C41781   7.802   9.544   4.412 -0.2742  0.4699  0.3565
  310MOL0     C41782   7.859   9.476   4.538  0.6795 -0.8125  0.2374
  310MOL0     H41783   8.209   9.282   4.248 -4.1838 -3.0360 -2.7339
  310MOL0     H41784   8.449   9.247   4.173  0.2241 -1.6667 -2.0402
  310MOL0     H41785   8.572   9.456   3.786 -1.0463  1.9413 -0.8455
  310MOL0     H41786   8.563   9.578   3.912  0.0340 -0.3240  1.7129
  310MOL0     H41787   8.786   9.386   3.943  1.5819  0.0265 -0.1561
  310MOL0     H41788   8.766   9.562   3.969 -0.6685 -0.3750 -0.0486
  310MOL0     H41789   8.809   9.615   3.734 -0.7178  0.1405  0.2920
  310MOL0     H41790   8.787   9.441   3.692  1.1272 -1.0923  0.3154
  310MOL0     H41791   9.028   9.531   3.871  1.2475 -0.5470 -0.8882
  310MOL0     H41792   8.985   9.373   3.808  0.8855  0.4263  2.5917
  310MOL0     H41793   9.016   9.446   3.574  0.9360 -0.9662  0.6107
  310MOL0     H41794   9.035   9.617   3.617 -1.4934  1.2527  2.4344
  310MOL0     H41795   9.236   9.545   3.746 -3.6702  0.2332  2.3391
  310MOL0     H41796   9.212   9.376   3.690 -1.2669 -0.0532 -0.9843
  310MOL0     H41797   9.223   9.454   3.456  0.5648  1.6236 -0.6042
  310MOL0     H41798   9.356   9.427   3.554 -0.2746 -0.8521 -0.9552
  310MOL0     H41799   9.326   9.666   3.396 -2.2750  0.7677 -0.4917
  310MOL0     H41800   9.235   9.717   3.534  1.5997  3.4664 -2.6262
  310MOL0     H41801   9.567   9.519   3.571  2.5561  0.7724  2.1755
  310MOL0     H41802   9.808   9.745   3.785 -1.1868  0.2830  0.7981
  310MOL0     H41803   9.780   9.570   3.768 -1.0529  0.8394  0.8559
  310MOL0     H41804   9.856   9.595   3.524  0.4911 -0.2868 -0.7388
  310MOL0     H41805   9.871   9.774   3.568 -2.1624  0.4082  1.7121
  310MOL0     H41806  10.020   9.540   3.703 -1.1887 -0.5965 -1.3582
  310MOL0     H41807  10.049   9.706   3.729 -0.4436 -0.0771  1.1881
  310MOL0     H41808  10.221   9.601   3.588  0.0875 -0.1671 -0.0962
  310MOL0     H41809  10.151   9.751   3.535  0.2869  0.3398  1.2965
  310MOL0     H41810  10.202   9.762   3.272  0.8006  0.2851  1.4499
  310MOL0     H41811  10.407   9.743   3.125  1.9884 -1.0784 -0.8320
  310MOL0     H41812  10.852   9.278   3.144  0.6879 -0.1918  0.0273
  310MOL0     H41813  11.027   9.229   2.997  1.4579  2.1939  0.2128
  310MOL0     H41814  11.200   9.291   2.638  1.5789  5.2794 -1.8201
  310MOL0     H41815  11.078   9.422   2.646 -2.4999  1.9840  3.6971
  310MOL0     H41816  11.131   9.463   2.892  0.7185  0.7556  0.5470
  310MOL0     H41817  11.248   9.328   2.877  1.7572  1.3757 -0.2632
  310MOL0     H41818  11.380   9.508   2.845 -1.9672 -0.3460  2.4605
  310MOL0     H41819  11.364   9.439   2.688 -1.3708 -1.1764  0.0683
  310MOL0     H41820  11.213   9.682   2.787  3.5770  0.9756  1.9675
  310MOL0     H41821  11.217   9.617   2.617  1.4826  1.0999 -0.6325
  310MOL0     H41822  11.370   9.799   2.620  0.6742  0.0233 -1.4164
  310MOL0     H41823  11.474   9.665   2.640 -1.7206 -1.5157  0.0331
  310MOL0     H41824  11.378   9.853   2.872 -2.6974 -0.7914 -1.6713
  310MOL0     H41825  11.458   9.701   2.887  0.0140 -0.9026 -2.1139
  310MOL0     H41826  11.596   9.913   2.703 -2.1873  1.3960  0.6117
  310MOL0     H41827  11.668   9.783   2.786  0.0210 -0.3663 -2.2172
  310MOL0     H41828  11.579  10.052   2.905 -0.0887  0.0744 -0.3647
  310MOL0     H41829  11.600   9.900   3.002  3.3653 -2.0875 -0.2000
  310MOL0     H41830  10.802   9.387   2.664  1.8804 -1.3492 -0.8886
  310MOL0     H41831  10.619   9.437   2.810 -0.9299  1.2522  3.0278
  310MOL0     H41832  10.453   9.336   3.274  1.7527  0.9235  0.6578
  310MOL0     H41833  10.245   9.352   3.391  0.8979 -1.5269 -2.8299
  310MOL0     H41834   8.355   9.515   3.844 -2.1774  1.3378  0.9769
  310MOL0     H41835   8.134   9.518   3.897  1.5093 -0.2318 -1.6940
  310MOL0     H41836   7.826   9.582   4.065 -1.2023 -0.0435 -1.0434
  310MOL0     H41837   7.623   9.696   4.100 -0.3773  1.1575  0.5257
  310MOL0     H41838   7.510   9.804   4.522 -1.0493  0.5194  0.1753
  310MOL0     H41839   7.403   9.660   4.494 -1.4788 -0.9750 -2.0865
  310MOL0     H41840   7.311   9.908   4.523  2.1793  0.4467 -0.2855
  310MOL0     H41841   7.234   9.775   4.437  1.9384 -2.5447 -0.0723
  310MOL0     H41842   7.300   9.858   4.215  1.4793  0.0265  0.7608
  310MOL0     H41843   7.411   9.974   4.277 -0.2478  1.3444  0.1717
  310MOL0     H41844   7.192  10.068   4.184  2.2221  0.1253  0.6088
  310MOL0     H41845   7.106   9.995   4.320 -1.5616  0.5695 -1.4176
  310MOL0     H41846   7.289  10.317   4.508 -1.8306  0.1860 -1.1470
  310MOL0     H41847   7.616   9.608   4.511 -2.3668  0.1778 -1.8164
  310MOL0     H41848   7.902   9.563   4.589 -3.1947 -0.6742  3.7785
  310MOL0     H41849   7.772   9.448   4.598 -0.3176  1.8342  0.1113
  310MOL0     H41850   7.929   9.394   4.517  2.0274  0.4250 -0.2863
  311MOL0     O41851   7.106   4.350   7.550 -0.1280  0.0877 -0.9382
  311MOL0     C41852   7.133   4.412   7.452 -0.7864  0.3215  0.9073
  311MOL0     O41853   7.256   4.478   7.427 -0.2658  0.5331  0.0166
  311MOL0     C41854   7.350   4.469   7.524 -0.1949 -0.0928  0.1356
  311MOL0     C41855   7.402   4.348   7.561 -0.0131 -0.7314  0.3540
  311MOL0     C41856   7.515   4.337   7.648 -0.6410 -0.3104 -0.0226
  311MOL0     C41857   7.569   4.451   7.711  0.1489  0.3060  0.5510
  311MOL0     O41858   7.673   4.460   7.799  0.1301  0.9761 -0.3818
  311MOL0     C41859   7.757   4.339   7.829 -0.2721  0.0814  0.2544
  311MOL0     C41860   7.890   4.383   7.884  0.2768  0.3515 -0.8287
  311MOL0     C41861   8.001   4.427   7.789 -0.0867  1.3181 -0.2026
  311MOL0     C41862   7.954   4.523   7.686 -0.4971 -0.0654  0.1625
  311MOL0     C41863   8.075   4.567   7.589  0.0978 -0.0481 -0.7217
  311MOL0     C41864   8.158   4.453   7.532  0.5488  0.4726  0.6305
  311MOL0     C41865   8.084   4.354   7.432 -0.1383  0.2701  0.3165
  311MOL0     C41866   8.184   4.261   7.378 -0.5457  1.1582  0.7017
  311MOL0     N41867   8.242   4.168   7.483 -0.3953  1.1125 -0.6195
  311MOL0     C41868   8.377   4.150   7.519 -0.0889 -0.4920 -0.1422
  311MOL0     C41869   8.376   4.079   7.635  0.3801  0.9577  0.2409
  311MOL0     C41870   8.506   4.050   7.698  0.5231 -0.4084  0.6614
  311MOL0     C41871   8.509   3.900   7.746  0.3029  1.4395  0.7728
  311MOL0     C41872   8.638   3.869   7.807 -0.5045  0.2095  0.0815
  311MOL0     C41873   8.753   3.904   7.723 -0.4472 -0.2007  0.5679
  311MOL0     O41874   8.879   3.844   7.777  0.2045  0.6211  0.1046
  311MOL0     C41875   8.998   3.894   7.739 -0.2520  0.0774  0.4854
  311MOL0     C41876   9.112   3.836   7.804  0.4547  0.3493  0.5526
  311MOL0     C41877   9.240   3.865   7.758 -0.9877  0.2101  0.2321
  311MOL0     C41878   9.261   3.948   7.650  0.1018 -0.4505  0.7127
  311MOL0     C41879   9.396   3.967   7.590  0.3939 -1.0265  0.6365
  311MOL0     O41880   9.483   3.866   7.592 -0.5932  0.3526 -0.9448
  311MOL0     C41881   9.618   3.885   7.583 -0.7677 -0.6434  0.4884
  311MOL0     C41882   9.687   3.860   7.465 -0.4197  0.1318  0.0517
  311MOL0     C41883   9.824   3.868   7.450 -0.2564 -0.5098  0.1137
  311MOL0     C41884   9.903   3.898   7.562  1.3599  0.1143  0.4235
  311MOL0     O41885  10.041   3.895   7.546 -0.0082 -0.2309 -0.0775
  311MOL0     C41886  10.122   3.983   7.620 -0.1661  0.4381 -0.2900
  311MOL0     C41887  10.275   3.947   7.602 -0.2760 -0.3386  0.4206
  311MOL0     C41888  10.376   4.030   7.692  0.0081 -0.0500 -0.6029
  311MOL0     C41889  10.517   4.034   7.645  0.4294 -0.2744 -0.2436
  311MOL0     C41890  10.593   4.126   7.738  0.2253  0.0770 -0.0297
  311MOL0     C41891  10.729   4.158   7.697  0.6729 -0.6490  0.6180
  311MOL0     C41892  10.807   4.035   7.684 -0.5097 -0.0262 -0.5185
  311MOL0     C41893  10.951   4.069   7.674 -0.4309 -0.0368 -0.6456
  311MOL0    Cl41894  11.040   3.919   7.638 -0.3122  0.0598  0.4401
  311MOL0     C41895   9.829   3.930   7.682 -1.2227 -1.0818  0.8850
  311MOL0     C41896   9.695   3.927   7.689 -0.1930 -0.5355  0.0559
  311MOL0     O41897   9.422   4.080   7.554 -0.4613 -0.4428 -0.6195
  311MOL0     C41898   9.154   4.017   7.596 -0.5855  0.0198  0.0561
  311MOL0     C41899   9.025   3.978   7.629  0.2984  1.1964 -0.2429
  311MOL0     N41900   8.242   4.044   7.667 -0.1081 -0.0423 -0.3509
  311MOL0     N41901   8.170   4.092   7.574  0.0310 -0.1072  0.1998
  311MOL0     C41902   7.509   4.573   7.691  0.0488 -0.5796  0.2766
  311MOL0     C41903   7.400   4.586   7.592 -0.5675  0.3764  0.4759
  311MOL0     C41904   7.026   4.417   7.348  0.4981 -0.3627 -0.4736
  311MOL0     C41905   7.049   4.517   7.249  0.3076  0.4536  0.0042
  311MOL0     C41906   6.961   4.536   7.148  1.5400  0.5281 -0.5267
  311MOL0     C41907   6.838   4.466   7.140  0.1691  0.5195  0.0022
  311MOL0     O41908   6.776   4.487   7.020 -0.1852  0.7992  0.3575
  311MOL0     C41909   6.647   4.435   6.995 -1.0108  0.4823 -0.3910
  311MOL0     C41910   6.538   4.514   7.070  0.1933 -0.7294  0.0663
  311MOL0     C41911   6.403   4.459   7.060 -0.0524 -1.2221 -0.4042
  311MOL0     C41912   6.337   4.506   6.924  0.1131  0.9121 -0.0040
  311MOL0     C41913   6.211   4.427   6.902 -0.2771 -0.6945  0.5826
  311MOL0     C41914   6.100   4.382   6.894  0.4784 -0.7486  0.4066
  311MOL0     C41915   6.805   4.383   7.246  0.8793 -0.8661 -0.0191
  311MOL0     C41916   6.898   4.347   7.349 -0.0984  0.4252  0.4297
  311MOL0     C41917   6.863   4.224   7.435 -0.3931  0.3913 -0.4594
  311MOL0     H41918   7.349   4.254   7.547 -0.9767 -0.1193 -0.2824
  311MOL0     H41919   7.541   4.232   7.661 -2.2881 -0.8579 -0.7720
  311MOL0     H41920   7.703   4.278   7.902  1.0903  0.0433  1.2660
  311MOL0     H41921   7.770   4.285   7.735 -1.5795 -1.3540  0.8480
  311MOL0     H41922   7.917   4.304   7.956  2.0063  1.1433 -0.5616
  311MOL0     H41923   7.856   4.466   7.947 -3.1330 -2.1149  0.9343
  311MOL0     H41924   8.023   4.330   7.744  1.8423  1.0096  1.2611
  311MOL0     H41925   8.091   4.467   7.837 -2.4554  1.5515  4.7224
  311MOL0     H41926   7.878   4.478   7.621 -2.1433  2.6041  0.0692
  311MOL0     H41927   7.898   4.610   7.722 -2.9101 -0.6013 -1.9339
  311MOL0     H41928   8.041   4.625   7.502  0.4236  1.6765  0.2492
  311MOL0     H41929   8.133   4.635   7.653 -0.6898 -0.4737  0.4602
  311MOL0     H41930   8.240   4.498   7.474  1.5765 -1.2395  0.6841
  311MOL0     H41931   8.202   4.393   7.612  1.7091 -0.3034 -0.5486
  311MOL0     H41932   8.034   4.414   7.355  0.1711 -0.3300 -0.3607
  311MOL0     H41933   8.010   4.294   7.486  0.2419 -0.1385  0.3879
  311MOL0     H41934   8.132   4.192   7.312  1.8070  0.0477 -0.0833
  311MOL0     H41935   8.267   4.294   7.315  2.5072 -5.5607  0.3321
  311MOL0     H41936   8.459   4.181   7.455 -1.4194  4.9227  0.3221
  311MOL0     H41937   8.580   4.053   7.617  1.3530 -0.4149  1.4018
  311MOL0     H41938   8.518   4.137   7.763  2.7400  0.6885 -1.0590
  311MOL0     H41939   8.436   3.865   7.819  2.1262 -0.6567  1.6886
  311MOL0     H41940   8.483   3.848   7.653  0.7576  1.6733  0.5083
  311MOL0     H41941   8.641   3.762   7.830  2.1903  0.9730  4.6266
  311MOL0     H41942   8.644   3.928   7.899 -2.3314  1.7426 -0.7160
  311MOL0     H41943   8.767   4.011   7.708  0.0655 -0.5560 -1.9770
  311MOL0     H41944   8.725   3.866   7.624  0.4923  1.4268 -0.3608
  311MOL0     H41945   9.100   3.747   7.864  1.6104  0.2327  0.6383
  311MOL0     H41946   9.318   3.813   7.814  0.5746  1.8506 -0.3070
  311MOL0     H41947   9.633   3.824   7.377  0.3683 -1.3560  0.1556
  311MOL0     H41948   9.867   3.835   7.356  1.4083 -0.6595  0.8836
  311MOL0     H41949  10.103   4.085   7.588  0.2850 -0.1278 -2.5219
  311MOL0     H41950  10.086   3.962   7.721 -1.0665 -1.4246 -0.9542
  311MOL0     H41951  10.287   3.841   7.624 -0.2796 -0.0737  1.7878
  311MOL0     H41952  10.305   3.961   7.498 -0.7508  2.6074  0.5942
  311MOL0     H41953  10.343   4.135   7.692 -1.4912 -0.4854 -1.2443
  311MOL0     H41954  10.373   3.985   7.791 -3.3451  0.9545 -0.0904
  311MOL0     H41955  10.518   4.071   7.543  0.6304 -0.0149 -0.1489
  311MOL0     H41956  10.560   3.933   7.656  0.4255 -0.1883  0.6304
  311MOL0     H41957  10.603   4.083   7.839 -0.3393  0.6156  0.2619
  311MOL0     H41958  10.544   4.224   7.741  3.0727  1.6411 -0.6652
  311MOL0     H41959  10.728   4.215   7.603  2.5001 -0.6221  0.5938
  311MOL0     H41960  10.781   4.223   7.767 -0.6218 -1.4542  2.4296
  311MOL0     H41961  10.785   3.986   7.589 -1.6988  0.8232 -0.7041
  311MOL0     H41962  10.798   3.979   7.778  4.5572  2.1063  1.6144
  311MOL0     H41963  10.959   4.133   7.586 -2.5465 -0.8323 -1.4652
  311MOL0     H41964  10.986   4.126   7.761 -0.5394  1.6304 -1.6463
  311MOL0     H41965   9.888   3.946   7.771  2.6797  3.0270 -1.9704
  311MOL0     H41966   9.649   3.951   7.784  3.4855  1.5650  1.4767
  311MOL0     H41967   9.173   4.093   7.521 -3.5403  1.7760  0.9113
  311MOL0     H41968   8.938   4.029   7.587 -1.0806  0.8652  2.0393
  311MOL0     H41969   7.539   4.666   7.738  0.3721  0.1635 -1.3093
  311MOL0     H41970   7.379   4.687   7.557  1.3417  0.5934 -0.1902
  311MOL0     H41971   7.138   4.580   7.246 -1.3862  3.0569  0.8875
  311MOL0     H41972   6.987   4.614   7.078 -1.3980  1.3766 -0.8333
  311MOL0     H41973   6.643   4.329   7.021  1.0867 -0.5558 -3.5800
  311MOL0     H41974   6.635   4.435   6.886  0.8339 -0.0553 -0.6170
  311MOL0     H41975   6.539   4.619   7.038  1.1880 -0.9564 -0.7242
  311MOL0     H41976   6.569   4.518   7.175 -0.7465  2.0079  0.3246
  311MOL0     H41977   6.340   4.500   7.140 -1.4449 -1.8603 -1.1470
  311MOL0     H41978   6.408   4.351   7.076 -0.1792 -1.1907 -0.1286
  311MOL0     H41979   6.315   4.613   6.922  2.0029  1.3439  0.2036
  311MOL0     H41980   6.399   4.489   6.836 -0.6902 -2.4098 -0.0460
  311MOL0     H41981   6.006   4.332   6.899  0.0135  0.2045  1.8662
  311MOL0     H41982   6.709   4.334   7.258  0.1652  0.1991 -1.1094
  311MOL0     H41983   6.761   4.235   7.473  0.1891 -0.3418  1.3990
  311MOL0     H41984   6.851   4.130   7.379  2.4945 -0.6605  0.5303
  311MOL0     H41985   6.936   4.208   7.514 -0.9979 -1.8171 -0.2728
  312MOL0     O41986  10.484   3.626   2.108  0.5028 -0.4815  0.7937
  312MOL0     C41987  10.378   3.574   2.146  1.0045  0.3085  0.1109
  312MOL0     O41988  10.372   3.467   2.233  0.8537 -0.3268 -0.7304
  312MOL0     C41989  10.493   3.402   2.254  0.1834  0.1603 -1.5569
  312MOL0     C41990  10.547   3.422   2.381 -0.1832  0.4299 -0.0889
  312MOL0     C41991  10.669   3.367   2.410 -1.0710 -1.0972 -0.2455
  312MOL0     C41992  10.746   3.291   2.320  0.0056  0.4714 -0.0080
  312MOL0     O41993  10.867   3.243   2.353  0.0964 -0.0915 -0.1024
  312MOL0     C41994  10.975   3.261   2.253  0.2670  0.2529  0.0368
  312MOL0     C41995  11.107   3.221   2.302  0.2885 -0.5446  0.0605
  312MOL0     C41996  11.113   3.287   2.443 -0.8207 -0.1776 -0.2089
  312MOL0     C41997  11.254   3.312   2.486  0.4063 -0.3790  0.1915
  312MOL0     C41998  11.278   3.381   2.615 -0.5400  0.0153 -0.1520
  312MOL0     C41999  11.421   3.368   2.660 -0.4547  0.5169 -0.0199
  312MOL0     C42000  11.495   3.498   2.689  0.8489 -0.4027 -0.5583
  312MOL0     C42001  11.649   3.492   2.728  0.3920  0.4496  0.6309
  312MOL0     N42002  11.701   3.624   2.716  0.7239 -0.3943 -1.0409
  312MOL0     C42003  11.795   3.666   2.627  0.0644  0.0131  0.4716
  312MOL0     C42004  11.829   3.792   2.669 -0.2351 -0.0138  0.1659
  312MOL0     C42005  11.923   3.882   2.596 -0.5119 -0.6722 -0.3584
  312MOL0     C42006  12.065   3.816   2.580  0.3044  0.3097 -0.6759
  312MOL0     C42007  12.159   3.885   2.479  1.7706  0.6326 -0.9597
  312MOL0     C42008  12.298   3.833   2.486  0.1089  0.2212 -0.4543
  312MOL0     O42009  12.379   3.876   2.373  0.2251 -0.7833 -0.2517
  312MOL0     C42010  12.513   3.852   2.376 -0.4936  0.4364  0.4934
  312MOL0     C42011  12.580   3.844   2.251  0.2841  0.4778 -0.1069
  312MOL0     C42012  12.712   3.808   2.232 -0.4647 -0.0234  0.0817
  312MOL0     C42013  12.795   3.794   2.343  0.5371 -0.4454 -0.2367
  312MOL0     C42014  12.937   3.769   2.327  0.0073  0.1694  0.2040
  312MOL0     O42015  12.977   3.715   2.204 -0.1059 -0.8135 -0.1316
  312MOL0     C42016  13.111   3.696   2.197  0.2040 -0.3351 -0.0823
  312MOL0     C42017  13.200   3.798   2.200  0.5332  0.4993 -0.0722
  312MOL0     C42018  13.331   3.763   2.187 -0.3209 -0.6858  0.4096
  312MOL0     C42019  13.376   3.627   2.191  0.5194  0.0681  0.1899
  312MOL0     O42020  13.511   3.600   2.170 -0.3983  0.2336  0.1740
  312MOL0     C42021  13.574   3.473   2.191  0.0595  0.0157  0.2866
  312MOL0     C42022  13.722   3.495   2.163  0.1582 -0.2825  0.2036
  312MOL0     C42023  13.812   3.370   2.171 -0.3472 -0.1676  0.1598
  312MOL0     C42024  13.940   3.388   2.091  0.4390 -0.3553  0.5861
  312MOL0     C42025  14.010   3.244   2.106  0.2883 -0.2159  0.3560
  312MOL0     C42026  14.131   3.238   2.012  0.9902 -0.1374 -0.1488
  312MOL0     C42027  14.234   3.354   2.013  1.1642 -0.1042 -0.3927
  312MOL0     C42028  14.359   3.318   1.933  1.1587 -0.1573  0.0929
  312MOL0    Cl42029  14.422   3.154   1.959 -0.2250 -0.3971  0.3068
  312MOL0     C42030  13.278   3.529   2.193  0.3246 -0.6684 -0.0479
  312MOL0     C42031  13.144   3.563   2.193 -0.1848  0.4266  0.0144
  312MOL0     O42032  13.007   3.813   2.419  0.1818 -0.1431  0.6206
  312MOL0     C42033  12.732   3.812   2.474 -0.0452 -0.1167 -0.1174
  312MOL0     C42034  12.596   3.831   2.485  0.1665  0.0165  0.7588
  312MOL0     N42035  11.756   3.815   2.787  0.1036 -0.3145  0.3041
  312MOL0     N42036  11.679   3.715   2.814 -0.0254 -0.4788  0.1679
  312MOL0     C42037  10.697   3.285   2.189  0.3281  1.0537  0.0808
  312MOL0     C42038  10.570   3.330   2.168 -0.0283 -1.0097  0.2662
  312MOL0     C42039  10.248   3.623   2.097 -0.2335 -0.2381  0.0150
  312MOL0     C42040  10.244   3.652   1.957 -0.1270  0.1994 -0.8524
  312MOL0     C42041  10.117   3.698   1.903 -0.3164  0.2992 -0.1046
  312MOL0     C42042  10.006   3.711   1.981  0.6297 -0.1698 -0.1887
  312MOL0     O42043   9.889   3.754   1.920  0.2681  0.1876  0.3327
  312MOL0     C42044   9.772   3.782   2.004  0.3116 -0.2476 -0.0375
  312MOL0     C42045   9.675   3.660   2.023 -0.2702 -0.3819  0.0703
  312MOL0     C42046   9.538   3.715   2.073  0.7803  0.6762  0.1623
  312MOL0     C42047   9.451   3.743   1.946 -0.0312  1.0247  0.2858
  312MOL0     C42048   9.308   3.776   1.967 -1.1285  0.0474 -0.1140
  312MOL0     C42049   9.197   3.822   1.985  0.5276  0.1097 -0.2216
  312MOL0     C42050  10.019   3.676   2.114  0.4658 -0.6617  0.0480
  312MOL0     C42051  10.134   3.639   2.173 -0.3562 -0.1190  0.4135
  312MOL0     C42052  10.126   3.632   2.325 -0.4772  0.2171 -0.0197
  312MOL0     H42053  10.490   3.477   2.455 -0.3041  0.6672 -0.3526
  312MOL0     H42054  10.709   3.375   2.510  0.1425 -1.1421 -0.7113
  312MOL0     H42055  10.956   3.200   2.165  2.1988 -0.1828 -0.1103
  312MOL0     H42056  10.969   3.366   2.221  0.7480  0.2222 -0.1630
  312MOL0     H42057  11.189   3.266   2.245 -1.3427  2.1090 -0.3955
  312MOL0     H42058  11.110   3.112   2.293 -2.4301 -0.5257 -2.9889
  312MOL0     H42059  11.077   3.217   2.519  0.9520 -1.1722 -0.2334
  312MOL0     H42060  11.068   3.386   2.439 -0.1110  0.1172 -3.3098
  312MOL0     H42061  11.311   3.219   2.483  0.3415 -0.4691  1.4380
  312MOL0     H42062  11.296   3.382   2.412 -1.0029 -0.2545 -0.5207
  312MOL0     H42063  11.236   3.482   2.611  1.1247  0.6839 -1.8397
  312MOL0     H42064  11.219   3.328   2.691  0.1830 -0.7896 -0.1427
  312MOL0     H42065  11.428   3.308   2.752  0.0278  1.8140  0.8099
  312MOL0     H42066  11.481   3.317   2.583  0.7422 -0.0344  1.2333
  312MOL0     H42067  11.444   3.554   2.767  2.3248 -1.9148  1.6174
  312MOL0     H42068  11.481   3.553   2.596 -1.2359 -2.7012 -1.7295
  312MOL0     H42069  11.659   3.468   2.834 -0.6659  0.3971  0.7285
  312MOL0     H42070  11.702   3.421   2.665 -2.9161 -1.2456 -0.5203
  312MOL0     H42071  11.844   3.605   2.551  0.6434  0.1843  0.7009
  312MOL0     H42072  11.883   3.902   2.496  0.0272  1.0564 -0.2577
  312MOL0     H42073  11.943   3.983   2.634 -0.2674 -1.5584  2.0244
  312MOL0     H42074  12.120   3.811   2.675  2.0217  2.8403 -1.4663
  312MOL0     H42075  12.042   3.715   2.545 -3.3099  0.3742  1.0564
  312MOL0     H42076  12.164   3.995   2.472  2.4623  0.5098 -4.5385
  312MOL0     H42077  12.122   3.860   2.379  1.5942  1.2473 -1.0541
  312MOL0     H42078  12.304   3.724   2.498  2.1354  0.3425  0.0444
  312MOL0     H42079  12.330   3.879   2.580 -2.4933  1.6338 -0.1612
  312MOL0     H42080  12.513   3.855   2.166  2.3040  2.9602 -1.5282
  312MOL0     H42081  12.750   3.809   2.130 -1.1409  1.1616 -0.1799
  312MOL0     H42082  13.178   3.904   2.203  0.9581  0.6595 -1.6785
  312MOL0     H42083  13.402   3.844   2.175 -0.2730 -0.9022 -0.9210
  312MOL0     H42084  13.558   3.436   2.292  0.1863  1.8830  1.0321
  312MOL0     H42085  13.541   3.398   2.119 -2.5551  0.9102  0.4451
  312MOL0     H42086  13.718   3.551   2.069 -0.1041  0.7243  0.7901
  312MOL0     H42087  13.761   3.566   2.237 -1.7433 -1.0679  2.0734
  312MOL0     H42088  13.833   3.365   2.278 -2.9820  2.3273  0.9062
  312MOL0     H42089  13.759   3.285   2.127  1.6290 -1.7381  0.6309
  312MOL0     H42090  14.004   3.472   2.120  1.7690 -0.1934 -2.3966
  312MOL0     H42091  13.911   3.406   1.987 -0.4790 -1.4725  0.6271
  312MOL0     H42092  13.940   3.181   2.050 -0.4087  0.9081 -0.0748
  312MOL0     H42093  14.017   3.212   2.210  0.7639 -1.3597 -0.0140
  312MOL0     H42094  14.169   3.138   2.035 -0.3471 -0.3393  1.3986
  312MOL0     H42095  14.098   3.240   1.908 -0.2896 -0.8205  0.2209
  312MOL0     H42096  14.270   3.372   2.115  1.3219  0.9245 -0.6246
  312MOL0     H42097  14.188   3.440   1.965 -1.9099 -0.8277  0.9932
  312MOL0     H42098  14.345   3.346   1.828  1.3496 -0.4703 -0.0186
  312MOL0     H42099  14.439   3.383   1.970  0.3619 -0.4264  2.4817
  312MOL0     H42100  13.289   3.421   2.192 -0.2196 -0.7299 -1.3171
  312MOL0     H42101  13.068   3.488   2.171  1.0960 -0.5547 -1.2944
  312MOL0     H42102  12.782   3.810   2.571 -0.8956  1.6473  0.3869
  312MOL0     H42103  12.560   3.846   2.587 -0.0864 -0.8994  0.8089
  312MOL0     H42104  10.752   3.232   2.112 -0.1523  0.5019  0.1068
  312MOL0     H42105  10.546   3.320   2.062 -1.2322 -5.0103  0.7413
  312MOL0     H42106  10.327   3.631   1.891  0.1055  0.9344 -0.8054
  312MOL0     H42107  10.113   3.690   1.795 -0.2192 -1.6751  0.0111
  312MOL0     H42108   9.719   3.862   1.952 -0.5934 -0.2942  0.8074
  312MOL0     H42109   9.798   3.822   2.102 -1.5539 -1.6641  1.0949
  312MOL0     H42110   9.723   3.599   2.099 -0.5657 -2.0146 -0.9973
  312MOL0     H42111   9.663   3.602   1.932 -1.4998 -2.1870  1.3224
  312MOL0     H42112   9.542   3.802   2.140 -0.4621  0.2142  0.8724
  312MOL0     H42113   9.497   3.630   2.127 -1.0868  0.5463 -1.3662
  312MOL0     H42114   9.500   3.823   1.890 -0.4256  0.4084 -0.9723
  312MOL0     H42115   9.466   3.653   1.885  0.3987  2.6052 -2.0649
  312MOL0     H42116   9.092   3.845   1.978  0.7806  1.2674 -0.3977
  312MOL0     H42117   9.924   3.683   2.166 -2.1191 -5.4203 -3.2555
  312MOL0     H42118  10.224   3.605   2.366 -0.0692  0.3226 -0.9030
  312MOL0     H42119  10.070   3.710   2.377 -0.4058 -0.1219  0.5712
  312MOL0     H42120  10.061   3.551   2.358 -0.8974 -0.4301 -2.2762
  313MOL0     O42121  10.998   7.623   0.963  0.0382 -0.0625 -0.5505
  313MOL0     C42122  10.955   7.576   1.074 -0.2678 -1.0928  0.3923
  313MOL0     O42123  11.040   7.547   1.182 -0.6112  0.1992  0.0676
  313MOL0     C42124  11.175   7.586   1.169 -0.5824  0.7130 -0.2055
  313MOL0     C42125  11.264   7.494   1.214  0.1681  0.6245  0.4569
  313MOL0     C42126  11.398   7.519   1.209 -0.1570 -0.0911 -0.6450
  313MOL0     C42127  11.446   7.637   1.147  0.5307  0.5832 -0.8274
  313MOL0     O42128  11.579   7.672   1.144 -0.9057 -0.3722 -0.4374
  313MOL0     C42129  11.681   7.565   1.165 -0.4555 -0.0544  0.5295
  313MOL0     C42130  11.798   7.625   1.089 -0.0030  1.0590  0.7290
  313MOL0     C42131  11.924   7.534   1.115  0.6554 -0.1389  0.5011
  313MOL0     C42132  12.037   7.571   1.023  0.2524 -0.3867 -0.2328
  313MOL0     C42133  12.145   7.463   1.033  0.3715  0.6285 -0.0631
  313MOL0     C42134  12.283   7.517   1.018 -0.6434 -0.0507  0.2057
  313MOL0     C42135  12.396   7.410   1.012  0.5893 -0.3733  0.1825
  313MOL0     C42136  12.527   7.481   1.002  0.2051 -0.8921  0.8011
  313MOL0     N42137  12.561   7.556   0.873 -0.4752  0.4521  0.3775
  313MOL0     C42138  12.487   7.545   0.760 -0.5830 -0.6941  0.8354
  313MOL0     C42139  12.534   7.646   0.681  0.4482 -0.4742 -0.0918
  313MOL0     C42140  12.491   7.701   0.547  0.5451  0.3706  0.1663
  313MOL0     C42141  12.533   7.612   0.433  0.4198 -0.3090 -0.5347
  313MOL0     C42142  12.682   7.596   0.411 -0.2248 -1.1212 -0.0645
  313MOL0     C42143  12.772   7.717   0.413 -0.4817 -0.4452 -0.3470
  313MOL0     O42144  12.910   7.673   0.403  0.3092 -0.0389  0.6728
  313MOL0     C42145  13.003   7.760   0.362  0.1166 -0.1274  0.8564
  313MOL0     C42146  13.130   7.709   0.334  0.0458  0.3175  0.6905
  313MOL0     C42147  13.240   7.788   0.305 -0.0374  0.2156 -0.2446
  313MOL0     C42148  13.229   7.926   0.302  0.0189 -0.4982  0.6747
  313MOL0     C42149  13.357   8.009   0.301 -0.6734 -0.2762 -0.3906
  313MOL0     O42150  13.471   7.949   0.259  0.0943  0.3799 -0.0723
  313MOL0     C42151  13.585   8.022   0.264  0.4714 -0.5480  0.1084
  313MOL0     C42152  13.602   8.132   0.182 -0.2503  0.4881  0.9673
  313MOL0     C42153  13.717   8.210   0.200  0.0456  0.6031  0.4374
  313MOL0     C42154  13.813   8.179   0.293  0.3353 -0.1758  0.0952
  313MOL0     O42155  13.916   8.264   0.328  0.1030 -0.1709 -0.1518
  313MOL0     C42156  13.983   8.334   0.222 -0.0672  0.1347 -0.0896
  313MOL0     C42157  13.982   8.490   0.228 -0.4263  1.0232 -0.8078
  313MOL0     C42158  14.086   8.539   0.135  0.0013 -0.1722  0.9448
  313MOL0     C42159  14.104   8.696   0.131 -0.3462  0.0380  0.2617
  313MOL0     C42160  14.202   8.749   0.026  0.7972 -0.3295  0.5891
  313MOL0     C42161  14.167   8.896  -0.022 -0.8214  0.1795 -0.1882
  313MOL0     C42162  14.269   8.950  -0.127 -0.4284 -0.8393 -0.5421
  313MOL0     C42163  14.222   9.097  -0.154  0.0152 -0.6122  0.0162
  313MOL0    Cl42164  14.372   9.202  -0.169 -0.4319 -0.2105  0.3110
  313MOL0     C42165  13.801   8.074   0.370  0.2069  0.2510 -0.9608
  313MOL0     C42166  13.691   7.990   0.354  0.8768 -0.3283 -0.8160
  313MOL0     O42167  13.344   8.120   0.353 -0.4946  0.1016  0.5715
  313MOL0     C42168  13.098   7.987   0.313 -0.6732  0.4892  0.2637
  313MOL0     C42169  12.994   7.904   0.345  0.7024  0.7009  0.5217
  313MOL0     N42170  12.637   7.713   0.747  0.5980 -0.9379 -0.3615
  313MOL0     N42171  12.654   7.660   0.857  0.1719  0.8738 -0.0308
  313MOL0     C42172  11.355   7.725   1.097  0.5141 -0.2041 -0.0736
  313MOL0     C42173  11.219   7.705   1.111 -0.6119 -0.3724  0.6708
  313MOL0     C42174  10.812   7.548   1.094 -0.8607  0.2979  0.2519
  313MOL0     C42175  10.773   7.486   1.213 -0.1361 -0.3048 -0.2693
  313MOL0     C42176  10.643   7.461   1.249  0.1452  0.7088  0.0019
  313MOL0     C42177  10.536   7.489   1.168  0.3883  0.0654 -0.4898
  313MOL0     O42178  10.407   7.469   1.229  0.3681 -0.0665  0.0967
  313MOL0     C42179  10.296   7.482   1.142  0.0805  0.0442  0.2683
  313MOL0     C42180  10.172   7.423   1.218 -1.0653 -0.1693 -0.6295
  313MOL0     C42181  10.194   7.269   1.230 -1.0550  0.6619 -0.6778
  313MOL0     C42182  10.069   7.201   1.293 -0.2964 -0.1478 -0.6963
  313MOL0     C42183   9.962   7.202   1.198  1.0058 -0.2049 -0.4738
  313MOL0     C42184   9.864   7.195   1.123 -0.0217 -0.3454 -0.4278
  313MOL0     C42185  10.570   7.562   1.054 -0.3339 -0.6359  0.7233
  313MOL0     C42186  10.700   7.589   1.018 -0.1718  0.0203 -0.3776
  313MOL0     C42187  10.713   7.684   0.905  0.1031 -0.4240 -0.1121
  313MOL0     H42188  11.246   7.398   1.260  3.8253 -0.0245  0.8155
  313MOL0     H42189  11.463   7.450   1.261 -1.3813 -0.1532  0.8607
  313MOL0     H42190  11.704   7.541   1.269 -0.1983 -0.0420  0.4760
  313MOL0     H42191  11.653   7.468   1.121  1.9750 -0.8024  0.4871
  313MOL0     H42192  11.820   7.725   1.127  1.4901  0.3277  1.9037
  313MOL0     H42193  11.770   7.633   0.984  0.5134  0.3774  0.5329
  313MOL0     H42194  11.891   7.431   1.097 -0.6927  0.2340  0.6942
  313MOL0     H42195  11.964   7.531   1.216  1.9278 -1.1057  0.0003
  313MOL0     H42196  12.015   7.585   0.916  0.8319 -0.9124 -0.4300
  313MOL0     H42197  12.084   7.665   1.051 -0.6474 -0.1308  0.4675
  313MOL0     H42198  12.143   7.412   1.130 -1.1851 -2.2109 -1.4616
  313MOL0     H42199  12.139   7.386   0.956  1.4367 -1.2911  1.6993
  313MOL0     H42200  12.286   7.570   0.923 -2.8735 -1.6140 -0.8061
  313MOL0     H42201  12.301   7.590   1.098  1.1364 -0.0649 -0.1342
  313MOL0     H42202  12.383   7.336   0.932  4.5743 -2.1464  0.9620
  313MOL0     H42203  12.390   7.348   1.102  1.7737  1.1532  1.3670
  313MOL0     H42204  12.550   7.548   1.087 -1.6290  0.3730  0.3679
  313MOL0     H42205  12.598   7.400   1.018  0.5497 -0.8204 -0.3499
  313MOL0     H42206  12.408   7.472   0.745  0.8493 -2.2937  0.9261
  313MOL0     H42207  12.382   7.700   0.545  0.5485  0.0663 -1.9905
  313MOL0     H42208  12.524   7.803   0.528 -0.4555  0.3629 -1.8581
  313MOL0     H42209  12.475   7.519   0.437 -4.9557  2.5315 -2.3010
  313MOL0     H42210  12.495   7.653   0.339  0.7557 -2.0367 -1.4570
  313MOL0     H42211  12.694   7.531   0.324 -2.8034 -1.3557 -0.3512
  313MOL0     H42212  12.723   7.531   0.489  7.1713  0.9754 -1.4528
  313MOL0     H42213  12.774   7.774   0.507  2.5144 -0.2249 -0.4399
  313MOL0     H42214  12.744   7.786   0.332 -0.5584  1.5398  1.2710
  313MOL0     H42215  13.138   7.601   0.342 -0.5071  0.1196 -1.0879
  313MOL0     H42216  13.338   7.741   0.307  0.5775  1.4516 -0.1090
  313MOL0     H42217  13.537   8.178   0.108  3.9016  0.5556 -3.0674
  313MOL0     H42218  13.728   8.303   0.145  2.4700 -1.5834 -3.1730
  313MOL0     H42219  14.089   8.307   0.225  0.3956  1.6814 -1.1964
  313MOL0     H42220  13.948   8.304   0.122  0.4470 -0.8358  0.0162
  313MOL0     H42221  13.882   8.534   0.214 -0.4381  1.3679  0.2150
  313MOL0     H42222  14.015   8.512   0.330  0.6825  0.0859 -0.9589
  313MOL0     H42223  14.184   8.496   0.159  0.2146 -0.0095  0.3700
  313MOL0     H42224  14.072   8.504   0.033  0.6129 -0.8615  1.0823
  313MOL0     H42225  14.120   8.734   0.233  0.6007  0.7678 -0.1417
  313MOL0     H42226  14.004   8.720   0.094 -1.8190 -2.7878  2.0321
  313MOL0     H42227  14.190   8.689  -0.064  0.9440 -0.0631  0.3912
  313MOL0     H42228  14.304   8.739   0.065  1.0810  1.0190  0.2448
  313MOL0     H42229  14.067   8.902  -0.065 -0.5160  1.9448 -0.7269
  313MOL0     H42230  14.177   8.955   0.070 -0.4720 -0.8796  0.4822
  313MOL0     H42231  14.263   8.888  -0.217  0.9733 -2.0693  0.1607
  313MOL0     H42232  14.371   8.954  -0.087  0.0157 -0.2080 -1.7213
  313MOL0     H42233  14.162   9.095  -0.246 -2.0861 -0.5092  1.3144
  313MOL0     H42234  14.165   9.138  -0.069 -2.2129  0.1902 -1.7575
  313MOL0     H42235  13.855   8.055   0.463 -3.6808 -4.0812  0.8330
  313MOL0     H42236  13.684   7.900   0.415 -1.1092 -1.3492 -2.4082
  313MOL0     H42237  13.090   8.095   0.308 -0.7058  0.4528 -0.4942
  313MOL0     H42238  12.904   7.965   0.345  0.2553  0.0760 -1.0122
  313MOL0     H42239  11.395   7.815   1.051  0.6363 -0.5225 -0.5924
  313MOL0     H42240  11.141   7.773   1.081  0.3598 -0.0247 -1.1899
  313MOL0     H42241  10.854   7.455   1.277  0.8647 -1.4454 -1.9939
  313MOL0     H42242  10.616   7.407   1.339  3.1504 -0.0083  0.5691
  313MOL0     H42243  10.322   7.420   1.055  2.5882 -1.1658  1.7827
  313MOL0     H42244  10.286   7.581   1.097  0.2072 -1.0810 -2.4133
  313MOL0     H42245  10.087   7.455   1.157  0.4696  3.4035 -1.1487
  313MOL0     H42246  10.172   7.474   1.315 -1.6778 -0.3870 -0.5085
  313MOL0     H42247  10.288   7.259   1.285 -1.5333  0.1364  0.0526
  313MOL0     H42248  10.210   7.219   1.134  1.0875  2.6110 -1.4508
  313MOL0     H42249  10.092   7.102   1.331 -0.3874 -0.0504 -0.3850
  313MOL0     H42250  10.050   7.267   1.378  2.7537  1.3487 -0.9944
  313MOL0     H42251   9.773   7.186   1.068 -1.2459 -0.0996  1.4912
  313MOL0     H42252  10.490   7.601   0.992  2.2645  1.2136 -1.6900
  313MOL0     H42253  10.747   7.777   0.951 -3.0738  1.1380 -0.6343
  313MOL0     H42254  10.787   7.659   0.829  2.7069  1.8993  1.4983
  313MOL0     H42255  10.613   7.705   0.865  0.3381 -1.4804 -1.3227
  314MOL0     O42256   8.677  10.218   8.347  0.6996 -0.7629 -0.3185
  314MOL0     C42257   8.689  10.171   8.463 -0.2081 -0.0948  0.3537
  314MOL0     O42258   8.790  10.196   8.548 -0.1914  0.8072 -0.2384
  314MOL0     C42259   8.908  10.236   8.489 -0.5025 -1.0411 -0.8749
  314MOL0     C42260   9.023  10.155   8.472 -0.7043  0.6086  0.2579
  314MOL0     C42261   9.147  10.199   8.426 -0.9225 -0.6297  0.1503
  314MOL0     C42262   9.160  10.336   8.388 -0.0715  0.7920 -0.2961
  314MOL0     O42263   9.277  10.384   8.338  0.1665 -0.2039  0.0602
  314MOL0     C42264   9.357  10.481   8.419  0.0955  0.6294 -0.4768
  314MOL0     C42265   9.403  10.409   8.551 -0.5777  0.1179  0.4505
  314MOL0     C42266   9.543  10.343   8.535  0.1680  0.7174  0.2460
  314MOL0     C42267   9.528  10.211   8.463  0.8662 -0.2657  0.3951
  314MOL0     C42268   9.658  10.159   8.399 -0.1431  0.3172 -0.6375
  314MOL0     C42269   9.627  10.020   8.333 -0.0582 -0.0880 -0.0550
  314MOL0     C42270   9.735   9.980   8.235 -0.6399 -1.0958  0.4735
  314MOL0     C42271   9.860   9.923   8.290 -1.1465 -0.9611 -0.1889
  314MOL0     N42272   9.959   9.939   8.178 -0.3137  0.2788 -0.3620
  314MOL0     C42273   9.945   9.883   8.056  0.1141  0.2812  0.3185
  314MOL0     C42274  10.060   9.915   7.989  0.0963  0.4580  0.6643
  314MOL0     C42275  10.097   9.852   7.857 -0.4376  0.7130 -0.1780
  314MOL0     C42276  10.249   9.831   7.854  0.2601 -0.1385 -0.1144
  314MOL0     C42277  10.308   9.738   7.755  0.1194 -1.2371 -0.0072
  314MOL0     C42278  10.453   9.702   7.772  0.8676  0.2637 -0.1349
  314MOL0     O42279  10.535   9.786   7.682  0.5276 -0.6952 -0.3666
  314MOL0     C42280  10.669   9.759   7.678  0.1746 -0.3693 -0.1824
  314MOL0     C42281  10.741   9.665   7.757  0.6912  0.0877  0.1480
  314MOL0     C42282  10.877   9.659   7.754  0.2255 -0.0917  0.7721
  314MOL0     C42283  10.950   9.741   7.662 -0.1678  0.1851 -0.7428
  314MOL0     C42284  11.096   9.743   7.659  0.2419  0.0084  0.3252
  314MOL0     O42285  11.162   9.677   7.755  0.2857  0.1952  0.0707
  314MOL0     C42286  11.296   9.702   7.757  0.7776 -0.5182 -0.0942
  314MOL0     C42287  11.348   9.813   7.836 -0.1875  0.3160  0.2467
  314MOL0     C42288  11.481   9.823   7.867 -0.5070 -0.6318  0.0836
  314MOL0     C42289  11.577   9.729   7.814 -0.8437 -0.2710 -0.4515
  314MOL0     O42290  11.709   9.742   7.852  0.0167 -0.5276 -0.1275
  314MOL0     C42291  11.803   9.644   7.809 -0.1354 -0.2638 -0.0010
  314MOL0     C42292  11.930   9.676   7.879  0.2400  0.9190  0.3847
  314MOL0     C42293  12.045   9.602   7.814  0.8877 -0.8764 -0.4526
  314MOL0     C42294  12.167   9.623   7.902 -0.0826  0.1134  0.2265
  314MOL0     C42295  12.284   9.532   7.862 -0.1845 -0.3253  0.6248
  314MOL0     C42296  12.398   9.516   7.973  1.2738 -0.3288 -0.1476
  314MOL0     C42297  12.509   9.422   7.931 -0.8303  0.6136  0.2696
  314MOL0     C42298  12.468   9.272   7.916  0.0642  0.0168 -0.0211
  314MOL0    Cl42299  12.622   9.190   7.879  0.1146 -0.0308 -0.3875
  314MOL0     C42300  11.526   9.632   7.724 -0.1370 -0.7094 -0.0179
  314MOL0     C42301  11.386   9.613   7.707  0.0702 -0.2609  0.2214
  314MOL0     O42302  11.146   9.816   7.572  0.1851  0.3086  1.6548
  314MOL0     C42303  10.881   9.825   7.577  0.8323  0.0838  0.1411
  314MOL0     C42304  10.743   9.830   7.579 -0.1312  0.2195 -0.0501
  314MOL0     N42305  10.132  10.009   8.066 -0.1744  0.2512  0.8674
  314MOL0     N42306  10.068  10.020   8.176 -0.3887  0.6948  0.7972
  314MOL0     C42307   9.052  10.415   8.406  1.1898 -0.6584  0.7678
  314MOL0     C42308   8.933  10.372   8.454  0.0569 -0.4672 -0.0794
  314MOL0     C42309   8.583  10.095   8.506  0.1916  0.2807  0.6601
  314MOL0     C42310   8.522  10.021   8.398  0.7498  0.7219 -0.2161
  314MOL0     C42311   8.406   9.951   8.426  0.1208  0.0561  0.1289
  314MOL0     C42312   8.343   9.967   8.550  0.4483  0.1630  0.2236
  314MOL0     O42313   8.215   9.921   8.577 -0.3989  0.2318 -0.1969
  314MOL0     C42314   8.180   9.783   8.566  1.2231  1.1685  0.0369
  314MOL0     C42315   8.030   9.786   8.559 -0.0264  0.5478 -0.4607
  314MOL0     C42316   7.975   9.834   8.698 -0.3702  0.0555 -0.2044
  314MOL0     C42317   7.830   9.784   8.705  0.4971  0.0086  0.4614
  314MOL0     C42318   7.811   9.641   8.721 -0.0338  0.4529  0.8629
  314MOL0     C42319   7.795   9.521   8.730 -0.0635  0.5436  0.4562
  314MOL0     C42320   8.401  10.046   8.650 -0.6754 -0.2718 -0.4234
  314MOL0     C42321   8.526  10.098   8.633  0.3870 -0.6667 -0.1601
  314MOL0     C42322   8.594  10.154   8.760 -0.2673  0.7308  0.2696
  314MOL0     H42323   9.019  10.048   8.491  2.2523  0.2424 -0.6871
  314MOL0     H42324   9.235  10.136   8.428  0.4485  1.1255  3.0257
  314MOL0     H42325   9.442  10.533   8.374  0.3023  1.1289  0.4772
  314MOL0     H42326   9.292  10.562   8.453 -0.6723  0.7204 -2.0543
  314MOL0     H42327   9.333  10.332   8.585  1.9376 -3.0734 -0.9863
  314MOL0     H42328   9.422  10.489   8.622  2.8272  0.2370 -0.4277
  314MOL0     H42329   9.555  10.317   8.640 -0.7792 -0.6452  0.0438
  314MOL0     H42330   9.621  10.409   8.497 -0.2711  1.2717  0.3041
  314MOL0     H42331   9.485  10.135   8.528  0.5771 -2.8819 -2.6260
  314MOL0     H42332   9.452  10.219   8.385  0.3287 -1.0613  0.8295
  314MOL0     H42333   9.695  10.220   8.316 -0.4434 -2.0294 -2.5987
  314MOL0     H42334   9.737  10.147   8.473  0.8163 -1.0590 -1.8427
  314MOL0     H42335   9.620   9.939   8.405 -1.7063 -0.9528 -1.1354
  314MOL0     H42336   9.535  10.037   8.277  1.4095 -0.1509 -2.6502
  314MOL0     H42337   9.761  10.065   8.172 -3.0089  0.1933  1.0811
  314MOL0     H42338   9.696   9.909   8.161  1.7049  0.3602 -2.3421
  314MOL0     H42339   9.904   9.969   8.380 -0.3831 -0.4603 -0.8077
  314MOL0     H42340   9.849   9.817   8.315  2.4354 -1.3301  0.4282
  314MOL0     H42341   9.867   9.825   8.007  2.1882 -1.1376 -1.5273
  314MOL0     H42342  10.037   9.762   7.841 -2.9058  2.2792 -0.3385
  314MOL0     H42343  10.074   9.927   7.781  1.9754  1.6651 -0.0298
  314MOL0     H42344  10.292   9.931   7.840  1.3862 -0.4735  0.7385
  314MOL0     H42345  10.279   9.802   7.956 -0.2365  2.3332  0.8220
  314MOL0     H42346  10.290   9.781   7.656 -1.7088 -0.9910  0.4131
  314MOL0     H42347  10.244   9.649   7.750 -0.6799 -0.6043 -2.4013
  314MOL0     H42348  10.467   9.596   7.749 -3.0365 -0.7564  1.3863
  314MOL0     H42349  10.498   9.710   7.871 -0.3488  1.1029  0.3738
  314MOL0     H42350  10.691   9.600   7.828 -1.9787  2.4101  0.5626
  314MOL0     H42351  10.924   9.585   7.818 -1.4969 -0.8906  1.1888
  314MOL0     H42352  11.275   9.884   7.874 -1.3272  0.2914 -1.7787
  314MOL0     H42353  11.519   9.897   7.937 -1.9664 -1.0247  1.3524
  314MOL0     H42354  11.767   9.543   7.832 -0.7585  0.2488  1.3916
  314MOL0     H42355  11.814   9.650   7.700 -1.8988 -0.4896 -0.2316
  314MOL0     H42356  11.953   9.783   7.883  4.5123  0.2132 -0.9601
  314MOL0     H42357  11.926   9.634   7.980 -2.2693 -0.0841 -0.0416
  314MOL0     H42358  12.022   9.495   7.809 -2.2344 -0.3097  0.2731
  314MOL0     H42359  12.065   9.649   7.716  3.0566  1.3634  0.9311
  314MOL0     H42360  12.150   9.598   8.007 -1.3335 -1.8466 -0.3819
  314MOL0     H42361  12.196   9.728   7.892  0.4366 -0.2311 -3.2025
  314MOL0     H42362  12.324   9.572   7.769 -1.2353 -2.7152 -0.9509
  314MOL0     H42363  12.235   9.438   7.836 -1.3762  1.0165 -2.3595
  314MOL0     H42364  12.441   9.615   7.990 -1.8872  0.7945  2.2297
  314MOL0     H42365  12.353   9.477   8.064 -0.4174  3.5676  0.9054
  314MOL0     H42366  12.592   9.423   8.002 -1.0126 -3.2980  0.7735
  314MOL0     H42367  12.547   9.456   7.835 -1.3923 -1.2803 -0.6648
  314MOL0     H42368  12.427   9.235   8.010  1.4094  0.2353  0.6768
  314MOL0     H42369  12.389   9.252   7.843 -1.1374 -0.3665  1.3431
  314MOL0     H42370  11.583   9.558   7.668 -1.1762 -1.1219 -0.5567
  314MOL0     H42371  11.339   9.529   7.657  2.5041 -1.2196 -0.6025
  314MOL0     H42372  10.927   9.902   7.515  0.5045  0.0809 -0.1085
  314MOL0     H42373  10.689   9.903   7.520 -2.2804 -0.1851  1.3089
  314MOL0     H42374   9.042  10.523   8.393 -4.3600 -0.9054  0.4628
  314MOL0     H42375   8.852  10.445   8.458 -0.0397 -0.5882  0.2955
  314MOL0     H42376   8.565  10.008   8.299  0.1451 -0.9904 -0.2755
  314MOL0     H42377   8.370   9.892   8.343  2.7125 -0.6171 -0.6291
  314MOL0     H42378   8.219   9.727   8.651 -2.1129 -1.7635 -0.1403
  314MOL0     H42379   8.217   9.744   8.470  1.2543 -0.6676  0.7639
  314MOL0     H42380   7.988   9.686   8.543 -0.1682  0.5391 -0.0224
  314MOL0     H42381   8.000   9.855   8.479 -0.8764  2.4531  1.4166
  314MOL0     H42382   7.974   9.943   8.712  0.9696  0.0561  0.0796
  314MOL0     H42383   8.040   9.785   8.771  3.5257  0.5589 -2.9723
  314MOL0     H42384   7.796   9.830   8.799 -1.7863 -0.5572 -0.0308
  314MOL0     H42385   7.771   9.834   8.627 -0.3166 -1.8145 -0.1405
  314MOL0     H42386   7.789   9.416   8.747  0.7133 -0.0683 -2.4799
  314MOL0     H42387   8.345  10.052   8.743 -1.7549 -1.3042 -0.9854
  314MOL0     H42388   8.528  10.175   8.845 -0.9701 -0.8939  0.1692
  314MOL0     H42389   8.681  10.091   8.781 -0.4751 -0.5380 -2.2012
  314MOL0     H42390   8.635  10.254   8.744  1.3539 -0.1850 -1.6683
  315MOL0     O42391   2.027   4.901   6.189  0.6770 -0.4826 -0.3541
  315MOL0     C42392   1.929   4.919   6.265 -1.1919 -0.3220  0.9111
  315MOL0     O42393   1.916   5.032   6.335  0.5508 -0.1157 -0.5689
  315MOL0     C42394   1.999   5.133   6.316 -0.7870 -0.4716 -0.2119
  315MOL0     C42395   2.112   5.155   6.406  0.4166  0.9906 -0.2824
  315MOL0     C42396   2.221   5.256   6.382 -0.1870 -0.0250  0.4287
  315MOL0     C42397   2.214   5.338   6.270 -0.3169 -0.0322 -0.2629
  315MOL0     O42398   2.306   5.424   6.222  0.1700  0.2043  0.2893
  315MOL0     C42399   2.444   5.387   6.248 -0.3662 -0.6502 -0.0457
  315MOL0     C42400   2.545   5.452   6.142 -0.3938  0.7228  0.4923
  315MOL0     C42401   2.685   5.401   6.176 -0.1625  0.2446 -0.7394
  315MOL0     C42402   2.782   5.436   6.064 -0.4067  0.0728 -0.2594
  315MOL0     C42403   2.931   5.400   6.103 -0.1228 -0.0259  0.1364
  315MOL0     C42404   2.986   5.279   6.040 -0.2458 -0.1949  0.1825
  315MOL0     C42405   3.136   5.260   6.087  0.8889  0.4801  0.4370
  315MOL0     C42406   3.150   5.226   6.230 -0.2822 -0.2724 -0.1215
  315MOL0     N42407   3.288   5.204   6.262 -0.2632 -0.2997 -0.6352
  315MOL0     C42408   3.360   5.091   6.237  0.0152  0.6500  0.3640
  315MOL0     C42409   3.480   5.107   6.296 -0.0539  0.6120  0.7368
  315MOL0     C42410   3.600   5.016   6.281 -0.1891 -0.2772 -0.1368
  315MOL0     C42411   3.678   5.074   6.162  0.4556  1.0083 -0.6042
  315MOL0     C42412   3.815   5.005   6.144  0.4743  0.1788  0.3621
  315MOL0     C42413   3.922   5.059   6.239 -0.0860  1.0864 -0.2817
  315MOL0     O42414   4.045   5.006   6.189  0.2182 -0.8152  0.1977
  315MOL0     C42415   4.165   5.040   6.244 -0.5700 -0.3416  0.1805
  315MOL0     C42416   4.184   5.151   6.334 -0.2760 -0.3225  0.2244
  315MOL0     C42417   4.314   5.171   6.382  0.2371  0.0619 -0.4869
  315MOL0     C42418   4.429   5.097   6.342 -0.3486  0.3095 -0.0128
  315MOL0     C42419   4.572   5.137   6.384 -0.1330  0.5897 -0.5554
  315MOL0     O42420   4.665   5.083   6.310 -0.3958 -0.2401 -0.3293
  315MOL0     C42421   4.801   5.115   6.306 -0.0595 -0.0008 -0.2007
  315MOL0     C42422   4.881   5.011   6.283 -0.0701  0.4852 -0.5116
  315MOL0     C42423   5.022   5.025   6.268 -0.3040  0.4494 -0.1724
  315MOL0     C42424   5.076   5.153   6.296 -0.3005  0.8822  0.4558
  315MOL0     O42425   5.211   5.167   6.297  0.1560  0.1360  0.7092
  315MOL0     C42426   5.263   5.162   6.433  0.8779  0.3784  0.5577
  315MOL0     C42427   5.410   5.179   6.438 -0.4700 -0.2019 -0.6113
  315MOL0     C42428   5.470   5.161   6.581 -0.5696 -0.5508 -0.3776
  315MOL0     C42429   5.594   5.252   6.607  0.1763  0.3193  0.3322
  315MOL0     C42430   5.728   5.199   6.549 -0.3737 -0.6245 -0.6687
  315MOL0     C42431   5.799   5.081   6.623 -0.2056  0.3434  0.8884
  315MOL0     C42432   5.932   5.038   6.561  0.5913 -0.1265  0.6296
  315MOL0     C42433   6.038   5.147   6.581 -0.6324  0.3558 -0.2066
  315MOL0    Cl42434   6.048   5.199   6.756  0.1005 -0.0759  0.1442
  315MOL0     C42435   4.990   5.261   6.334  0.3862  0.0301  0.2409
  315MOL0     C42436   4.852   5.244   6.327 -0.2778 -0.5915 -0.6693
  315MOL0     O42437   4.579   5.217   6.478  0.8838 -0.3664 -0.0509
  315MOL0     C42438   4.410   4.982   6.261  0.2055  0.2695  0.1208
  315MOL0     C42439   4.273   4.957   6.218  0.5450 -0.7534 -0.1166
  315MOL0     N42440   3.476   5.229   6.366 -0.4668 -0.0442 -0.7258
  315MOL0     N42441   3.357   5.285   6.347  0.0366 -0.0212 -0.0161
  315MOL0     C42442   2.100   5.313   6.183  1.2376  0.0500 -0.2118
  315MOL0     C42443   1.996   5.219   6.202  0.1761 -0.1586  0.0432
  315MOL0     C42444   1.819   4.818   6.278 -0.1280 -0.6186 -0.4697
  315MOL0     C42445   1.734   4.826   6.389  0.0215 -0.1985 -0.5686
  315MOL0     C42446   1.646   4.721   6.418  0.0155 -0.0462  0.0611
  315MOL0     C42447   1.634   4.607   6.336 -1.4131 -0.5849 -0.4942
  315MOL0     O42448   1.552   4.510   6.387  0.5587 -1.0996 -0.3128
  315MOL0     C42449   1.498   4.419   6.287  0.1923 -0.4591 -0.6783
  315MOL0     C42450   1.590   4.300   6.291 -0.3618 -0.3682 -0.6000
  315MOL0     C42451   1.527   4.186   6.202  0.6612 -0.5526 -0.8640
  315MOL0     C42452   1.505   4.239   6.055 -0.8192  0.0347 -0.0239
  315MOL0     C42453   1.630   4.272   5.986  0.3858  0.0048 -0.7089
  315MOL0     C42454   1.742   4.288   5.942 -0.4058 -0.0317 -0.0497
  315MOL0     C42455   1.705   4.608   6.217 -0.1832  0.8145 -0.0005
  315MOL0     C42456   1.796   4.707   6.187 -0.1174  0.2733 -0.1668
  315MOL0     C42457   1.868   4.701   6.053 -0.3751 -0.3876 -0.4943
  315MOL0     H42458   2.103   5.098   6.498 -3.0160  0.8198 -0.5815
  315MOL0     H42459   2.297   5.265   6.459  0.8668 -0.0486 -0.5890
  315MOL0     H42460   2.466   5.425   6.348 -0.2335  2.7914 -1.2394
  315MOL0     H42461   2.452   5.278   6.247 -2.9377 -0.9843  2.2841
  315MOL0     H42462   2.555   5.561   6.136  3.2794  0.4273 -1.1591
  315MOL0     H42463   2.513   5.418   6.043 -0.3641 -1.6346  1.2275
  315MOL0     H42464   2.695   5.293   6.193  3.7559  0.3425 -1.3994
  315MOL0     H42465   2.707   5.447   6.272 -1.9195 -1.7527  0.7259
  315MOL0     H42466   2.768   5.381   5.970  2.1530 -0.0297 -0.6383
  315MOL0     H42467   2.785   5.540   6.031  2.5829 -0.4965 -2.1342
  315MOL0     H42468   3.001   5.479   6.075 -0.8318  1.4028  2.1579
  315MOL0     H42469   2.939   5.396   6.212 -1.2456  0.1707  0.2385
  315MOL0     H42470   2.940   5.182   6.063 -1.5451 -0.0640 -1.6302
  315MOL0     H42471   2.978   5.294   5.932 -3.2252  1.4097  0.5308
  315MOL0     H42472   3.206   5.341   6.066  2.3078 -0.9309 -0.4982
  315MOL0     H42473   3.180   5.183   6.024  0.2388  0.8435 -0.4892
  315MOL0     H42474   3.113   5.301   6.300 -1.9854 -2.2096  1.1570
  315MOL0     H42475   3.086   5.145   6.266 -0.9398 -0.1279 -0.9295
  315MOL0     H42476   3.346   5.013   6.163  3.8338  0.5514 -0.4644
  315MOL0     H42477   3.661   5.010   6.371  0.1063 -2.9554 -0.4199
  315MOL0     H42478   3.573   4.911   6.267 -0.5843  0.0102 -1.8153
  315MOL0     H42479   3.619   5.056   6.072  1.0336 -1.9687 -0.4888
  315MOL0     H42480   3.691   5.179   6.190 -2.0764  1.2988 -0.3088
  315MOL0     H42481   3.844   5.047   6.047  0.2677 -1.4011 -0.4114
  315MOL0     H42482   3.815   4.897   6.125  3.9962  0.0956  0.1558
  315MOL0     H42483   3.906   5.015   6.337 -0.7685  2.1868  0.1257
  315MOL0     H42484   3.924   5.168   6.249  3.3871  1.3140 -1.9412
  315MOL0     H42485   4.104   5.215   6.370  0.7268  1.2398 -0.2471
  315MOL0     H42486   4.337   5.258   6.442 -0.3129 -0.4586  0.5033
  315MOL0     H42487   4.845   4.909   6.273  0.4037  0.4807 -2.9730
  315MOL0     H42488   5.085   4.940   6.244  1.4250  1.7272 -0.3134
  315MOL0     H42489   5.212   5.239   6.490 -1.5199 -0.6334 -0.1099
  315MOL0     H42490   5.224   5.074   6.483 -2.2771  1.7090  0.6792
  315MOL0     H42491   5.462   5.117   6.365 -0.0000  1.0270 -1.3457
  315MOL0     H42492   5.431   5.283   6.411 -0.5027 -0.3114 -1.0669
  315MOL0     H42493   5.387   5.188   6.647 -1.5292 -4.3331  0.2076
  315MOL0     H42494   5.496   5.055   6.587  0.6391 -0.2154  1.2455
  315MOL0     H42495   5.609   5.275   6.713 -0.7692  1.9948  0.1296
  315MOL0     H42496   5.569   5.349   6.565  0.7995  0.0336 -0.7329
  315MOL0     H42497   5.793   5.287   6.549 -0.6058 -0.4069 -2.7945
  315MOL0     H42498   5.706   5.171   6.446  0.8202  0.4225 -1.2375
  315MOL0     H42499   5.805   5.089   6.732 -0.2066 -2.7692  1.2174
  315MOL0     H42500   5.735   4.994   6.607 -2.5399  2.5803 -4.4550
  315MOL0     H42501   5.913   5.004   6.459 -0.9647 -0.9586  1.1834
  315MOL0     H42502   5.964   4.949   6.616 -0.9918  0.4466  2.5665
  315MOL0     H42503   6.132   5.117   6.535 -0.3026  1.0862 -0.0241
  315MOL0     H42504   6.007   5.238   6.528  0.6423  0.5982 -0.5543
  315MOL0     H42505   5.037   5.352   6.368  1.7265 -0.8425  0.8177
  315MOL0     H42506   4.793   5.330   6.358  0.9757  0.0418  0.0436
  315MOL0     H42507   4.490   4.912   6.240 -0.5776 -0.8392  0.7180
  315MOL0     H42508   4.257   4.868   6.158  1.6426 -1.6005  0.7847
  315MOL0     H42509   2.093   5.370   6.090  1.6701  1.1283  0.3936
  315MOL0     H42510   1.913   5.206   6.134 -0.0470 -1.9976  0.5914
  315MOL0     H42511   1.721   4.920   6.442 -0.4844  1.0336 -2.7847
  315MOL0     H42512   1.586   4.725   6.508 -1.2530 -0.4313 -0.7403
  315MOL0     H42513   1.481   4.470   6.192 -0.1946  2.0750  0.6638
  315MOL0     H42514   1.402   4.379   6.320 -0.8907  2.6648  0.2914
  315MOL0     H42515   1.598   4.259   6.392  0.8146  1.4374  0.0941
  315MOL0     H42516   1.689   4.335   6.259  0.5027 -1.0578  1.2010
  315MOL0     H42517   1.430   4.154   6.241  1.0329  0.9706  1.5493
  315MOL0     H42518   1.594   4.102   6.183 -0.6355 -1.0783 -3.6268
  315MOL0     H42519   1.456   4.163   5.994  2.1820 -2.5877  0.5450
  315MOL0     H42520   1.421   4.308   6.060 -0.5388  0.2881  3.1281
  315MOL0     H42521   1.842   4.271   5.906 -0.6063 -1.5067  0.0302
  315MOL0     H42522   1.691   4.528   6.145  1.4561  0.1513  0.3754
  315MOL0     H42523   1.870   4.799   6.005 -0.5315 -0.3974 -0.5227
  315MOL0     H42524   1.967   4.659   6.072  0.5782  2.2865  1.0332
  315MOL0     H42525   1.813   4.633   5.987 -0.3168  0.1712 -1.1254
  316MOL0     O42526   1.247   5.095   8.626 -1.3078 -0.0518  0.5943
  316MOL0     C42527   1.341   5.158   8.576  0.0625 -0.1641 -0.0182
  316MOL0     O42528   1.341   5.195   8.444 -0.4242 -0.3626 -0.3836
  316MOL0     C42529   1.223   5.176   8.370 -0.3677 -0.7947  0.3243
  316MOL0     C42530   1.144   5.283   8.317 -0.4349  0.3656 -0.4048
  316MOL0     C42531   1.027   5.254   8.240 -0.6336 -0.0683 -0.5558
  316MOL0     C42532   0.991   5.120   8.208  0.2202  0.2744  0.4664
  316MOL0     O42533   0.877   5.091   8.135 -0.4066 -0.1334  0.3451
  316MOL0     C42534   0.753   5.169   8.178 -0.1846  0.9210  0.2467
  316MOL0     C42535   0.634   5.139   8.094  0.0966 -0.0694  0.0836
  316MOL0     C42536   0.573   4.999   8.119 -0.3661  0.0207 -0.3472
  316MOL0     C42537   0.465   4.965   8.010 -0.2570  0.3852  0.4765
  316MOL0     C42538   0.392   4.837   8.049  0.4754  0.1974  0.5586
  316MOL0     C42539   0.296   4.801   7.924 -0.2856 -0.2605  0.1189
  316MOL0     C42540   0.270   4.651   7.925  0.3105  0.2807 -0.3357
  316MOL0     C42541   0.169   4.603   7.824 -0.6672  1.1028 -0.0015
  316MOL0     N42542   0.118   4.470   7.861  0.2404 -0.9460 -0.1599
  316MOL0     C42543   0.110   4.360   7.775  0.6227 -0.3680 -0.1362
  316MOL0     C42544   0.079   4.249   7.844 -0.2740  0.1918 -0.0825
  316MOL0     C42545   0.053   4.103   7.799 -0.6153 -0.6858 -0.3608
  316MOL0     C42546  -0.000   4.010   7.903 -0.3608  1.2144 -0.9195
  316MOL0     C42547   0.105   3.937   7.993  0.0743 -0.2138 -0.3572
  316MOL0     C42548   0.212   4.018   8.069 -0.6962  0.2430  0.5271
  316MOL0     O42549   0.303   3.938   8.148 -0.1251 -0.3835  0.2772
  316MOL0     C42550   0.407   3.997   8.207 -0.4572 -0.2367 -0.3480
  316MOL0     C42551   0.443   4.127   8.203 -0.2814  0.1109 -1.1039
  316MOL0     C42552   0.564   4.167   8.271 -0.1482 -0.0541  0.5240
  316MOL0     C42553   0.650   4.078   8.335 -0.0749 -0.3772 -0.0527
  316MOL0     C42554   0.765   4.129   8.414 -0.9381  0.0684  0.1486
  316MOL0     O42555   0.784   4.263   8.423  1.2190 -0.0013  0.0585
  316MOL0     C42556   0.875   4.311   8.509 -0.5761 -1.1498  1.2340
  316MOL0     C42557   0.827   4.345   8.637 -0.3669  0.0360  0.5777
  316MOL0     C42558   0.922   4.390   8.740  0.1893  0.3070  0.4161
  316MOL0     C42559   1.064   4.397   8.711  1.1033 -0.3113 -0.1909
  316MOL0     O42560   1.148   4.446   8.812 -0.4435  0.1504 -0.3264
  316MOL0     C42561   1.203   4.581   8.784  0.0331  0.3333  0.2660
  316MOL0     C42562   1.092   4.680   8.813  0.3318  0.3992  0.6301
  316MOL0     C42563   1.145   4.822   8.832  0.0359  1.2662 -0.3831
  316MOL0     C42564   1.046   4.914   8.898  0.5958 -0.0493  0.4331
  316MOL0     C42565   1.124   5.038   8.955 -0.1810  0.6638  0.9319
  316MOL0     C42566   1.031   5.130   9.033 -0.3794 -0.0800 -0.9797
  316MOL0     C42567   1.106   5.257   9.072  0.1769 -0.4581 -0.1823
  316MOL0     C42568   1.013   5.357   9.135  0.2650 -0.0801  0.0949
  316MOL0    Cl42569   1.104   5.515   9.132 -0.3921 -0.2239 -0.3117
  316MOL0     C42570   1.110   4.352   8.588  0.9275  0.5418 -0.1783
  316MOL0     C42571   1.011   4.310   8.484 -1.0145 -0.0365  0.8945
  316MOL0     O42572   0.827   4.039   8.482 -0.3517  0.2034  0.7127
  316MOL0     C42573   0.593   3.952   8.355 -1.0581 -0.3860 -0.6564
  316MOL0     C42574   0.476   3.911   8.291  0.3383 -0.0822  0.5250
  316MOL0     N42575   0.075   4.291   7.972 -0.3127 -0.1868 -0.2625
  316MOL0     N42576   0.114   4.414   7.978  0.7146  0.7407 -0.4785
  316MOL0     C42577   1.082   5.019   8.239 -0.5581  0.9728 -0.9909
  316MOL0     C42578   1.194   5.046   8.321 -0.1490  0.7573 -1.3172
  316MOL0     C42579   1.453   5.200   8.663 -0.3272 -1.1256 -0.2021
  316MOL0     C42580   1.506   5.099   8.748  0.2806 -0.2569  0.1250
  316MOL0     C42581   1.625   5.109   8.819  0.1151  0.8284 -0.0457
  316MOL0     C42582   1.687   5.229   8.819 -0.5492 -0.1185  0.0522
  316MOL0     O42583   1.806   5.243   8.893  0.6731  0.3258  0.2153
  316MOL0     C42584   1.869   5.140   8.977 -1.0422 -0.1606  0.4992
  316MOL0     C42585   1.787   5.131   9.108 -0.3584  0.2507 -0.0485
  316MOL0     C42586   1.759   5.272   9.172 -0.7400  0.0372  0.6016
  316MOL0     C42587   1.642   5.265   9.275 -0.2060  0.9077 -0.7117
  316MOL0     C42588   1.524   5.184   9.238 -0.3790 -0.4580 -0.6242
  316MOL0     C42589   1.426   5.113   9.218  0.7329 -0.1950  0.3071
  316MOL0     C42590   1.637   5.331   8.747 -0.1401 -0.2089  0.6412
  316MOL0     C42591   1.525   5.323   8.666  0.7165  0.4037  0.9263
  316MOL0     C42592   1.482   5.449   8.588 -0.2277 -0.9860 -0.4707
  316MOL0     H42593   1.168   5.383   8.348 -0.9829  0.7265 -1.1022
  316MOL0     H42594   0.971   5.339   8.203  0.9557 -0.1160 -3.3669
  316MOL0     H42595   0.730   5.144   8.283 -1.1542  2.5398  0.4518
  316MOL0     H42596   0.777   5.275   8.187  1.4306  0.6207 -0.3048
  316MOL0     H42597   0.663   5.152   7.990  2.8107  1.0436  0.8758
  316MOL0     H42598   0.564   5.215   8.130  1.4532  0.7230  1.1850
  316MOL0     H42599   0.533   4.994   8.221 -0.7086 -1.8094 -0.5415
  316MOL0     H42600   0.654   4.926   8.119 -1.1799 -0.9222 -1.6112
  316MOL0     H42601   0.397   5.050   8.000 -0.2601  0.5126  1.5385
  316MOL0     H42602   0.512   4.951   7.912 -0.7181  1.6119  0.0635
  316MOL0     H42603   0.465   4.759   8.071 -0.5717 -1.4081 -1.2890
  316MOL0     H42604   0.339   4.870   8.139  2.4878 -0.4789  2.0587
  316MOL0     H42605   0.207   4.863   7.932  0.9498  1.7185 -0.7284
  316MOL0     H42606   0.346   4.823   7.829  1.1995  1.4107  1.2155
  316MOL0     H42607   0.244   4.623   8.027  4.1571 -1.8810  0.2642
  316MOL0     H42608   0.366   4.603   7.901 -0.5176 -1.2295 -0.7045
  316MOL0     H42609   0.091   4.679   7.815 -2.0567 -0.4279 -1.4586
  316MOL0     H42610   0.215   4.597   7.725 -1.6586  2.4073 -0.5710
  316MOL0     H42611   0.122   4.364   7.667 -0.7726  0.7610 -0.2897
  316MOL0     H42612  -0.009   4.102   7.709  0.6936 -1.5563 -1.2684
  316MOL0     H42613   0.155   4.076   7.771 -0.5120 -0.8280  0.1385
  316MOL0     H42614  -0.071   4.062   7.968  2.6147  2.4123  1.5997
  316MOL0     H42615  -0.052   3.927   7.855  0.7223 -0.2086  0.2790
  316MOL0     H42616   0.158   3.865   7.930 -0.8632  0.0301 -1.4583
  316MOL0     H42617   0.050   3.889   8.074 -0.0900  1.1937  0.3975
  316MOL0     H42618   0.160   4.090   8.132 -0.4652  0.6561  0.2498
  316MOL0     H42619   0.267   4.063   7.986  0.3110 -1.7898  0.0371
  316MOL0     H42620   0.374   4.199   8.163  0.6868  1.5056 -0.3475
  316MOL0     H42621   0.592   4.272   8.262  2.8822 -0.9333 -2.4495
  316MOL0     H42622   0.720   4.333   8.644 -0.2925 -0.6288  0.5731
  316MOL0     H42623   0.889   4.405   8.843  1.5175 -1.3775  1.1375
  316MOL0     H42624   1.284   4.592   8.857 -1.7083 -1.5057  2.6953
  316MOL0     H42625   1.249   4.588   8.686 -1.4070  0.4106 -0.4348
  316MOL0     H42626   1.022   4.687   8.729 -1.7294  0.1815  2.2330
  316MOL0     H42627   1.037   4.637   8.898  0.2053  0.0489  0.3770
  316MOL0     H42628   1.229   4.815   8.902  1.9600  0.3987 -2.6162
  316MOL0     H42629   1.179   4.867   8.738 -1.3480 -0.4054 -1.7567
  316MOL0     H42630   1.007   4.859   8.984  1.2313 -0.9402  0.1703
  316MOL0     H42631   0.963   4.945   8.835 -0.8437 -1.7821  1.3982
  316MOL0     H42632   1.163   5.101   8.874 -1.2294 -0.5750 -0.5836
  316MOL0     H42633   1.212   5.011   9.014  0.3783 -0.5535 -0.3990
  316MOL0     H42634   0.938   5.144   8.977  0.1573  1.7503 -1.4667
  316MOL0     H42635   0.998   5.080   9.125  0.8379  2.5599  1.0156
  316MOL0     H42636   1.138   5.304   8.979 -0.4222 -0.0568 -0.1939
  316MOL0     H42637   1.187   5.228   9.140 -2.9375 -3.2848  2.7043
  316MOL0     H42638   0.917   5.373   9.083  1.3404  0.2289 -1.9069
  316MOL0     H42639   0.988   5.330   9.238 -1.5807 -0.7625 -0.4709
  316MOL0     H42640   1.213   4.346   8.552  0.5261 -0.8101 -1.2020
  316MOL0     H42641   1.038   4.271   8.386 -1.6843 -2.7346  1.7113
  316MOL0     H42642   0.639   3.884   8.426  0.3783 -1.2368 -2.3313
  316MOL0     H42643   0.443   3.807   8.292 -2.1788  0.5646 -2.0444
  316MOL0     H42644   1.057   4.921   8.200  0.1882 -0.0351  0.9053
  316MOL0     H42645   1.259   4.965   8.353  0.2236  1.4122 -0.3640
  316MOL0     H42646   1.470   4.997   8.748 -0.0996 -0.1322  0.7898
  316MOL0     H42647   1.666   5.015   8.855  0.0659  0.9249  0.2695
  316MOL0     H42648   1.968   5.181   9.000 -0.8449 -0.9727  1.1457
  316MOL0     H42649   1.873   5.041   8.932 -1.9365 -0.4216  0.9863
  316MOL0     H42650   1.843   5.077   9.185  0.5480  0.9997 -0.1552
  316MOL0     H42651   1.693   5.077   9.093 -1.5146  0.7589  4.1680
  316MOL0     H42652   1.746   5.350   9.097 -0.3586 -1.6994 -1.3861
  316MOL0     H42653   1.845   5.305   9.230  2.4945 -0.0328 -3.6214
  316MOL0     H42654   1.694   5.211   9.356  2.5988  0.1967 -2.8230
  316MOL0     H42655   1.603   5.361   9.309  1.9334  1.7623 -0.5135
  316MOL0     H42656   1.342   5.050   9.197  0.1452  0.7239 -0.2096
  316MOL0     H42657   1.680   5.430   8.745 -0.0471 -0.2534  0.4311
  316MOL0     H42658   1.525   5.447   8.488  2.2046  0.8953  0.4257
  316MOL0     H42659   1.373   5.446   8.583 -0.1697 -1.6427 -1.6852
  316MOL0     H42660   1.519   5.540   8.637 -1.5067 -0.0434 -1.1581
  317MOL0     O42661   6.141   4.789   5.972  0.4931  0.4247  0.2700
  317MOL0     C42662   6.129   4.909   5.957  0.1683 -0.7208  0.4229
  317MOL0     O42663   6.231   4.988   5.905  0.0582  0.3671 -0.8329
  317MOL0     C42664   6.351   4.923   5.864  0.2501  0.1673 -0.6327
  317MOL0     C42665   6.422   4.858   5.957  0.6655 -0.1776 -0.3678
  317MOL0     C42666   6.542   4.805   5.936 -0.2228 -0.1781 -0.3330
  317MOL0     C42667   6.593   4.807   5.807 -0.4477  0.0011 -0.2766
  317MOL0     O42668   6.718   4.754   5.782  0.7808 -0.8765 -0.8311
  317MOL0     C42669   6.819   4.755   5.887 -0.4617 -0.1684  0.0838
  317MOL0     C42670   6.950   4.792   5.820  0.1028  0.1447  0.6827
  317MOL0     C42671   7.062   4.817   5.921 -0.5883 -0.1367 -0.2785
  317MOL0     C42672   7.181   4.864   5.837 -0.1322  0.6416 -0.0368
  317MOL0     C42673   7.310   4.887   5.920  0.0348 -0.0562 -0.3969
  317MOL0     C42674   7.435   4.907   5.828  0.0810  0.5343 -1.3221
  317MOL0     C42675   7.481   4.791   5.728 -0.3426  0.6763  0.1211
  317MOL0     C42676   7.573   4.855   5.617  0.4797  0.0720  0.5869
  317MOL0     N42677   7.714   4.874   5.661 -0.0469  0.2289 -0.2951
  317MOL0     C42678   7.775   4.991   5.673  0.6375 -0.6472  0.0282
  317MOL0     C42679   7.883   4.971   5.748  0.1758  0.2964 -0.6203
  317MOL0     C42680   7.968   5.087   5.777 -0.1554  0.1834  0.0176
  317MOL0     C42681   8.102   5.060   5.834  0.1029  0.4228 -0.2131
  317MOL0     C42682   8.188   4.992   5.735 -0.0923 -0.6647 -0.3160
  317MOL0     C42683   8.332   4.982   5.802  0.2522 -0.9651 -0.4834
  317MOL0     O42684   8.380   5.117   5.785  0.2874 -0.1389 -0.6535
  317MOL0     C42685   8.489   5.159   5.857  1.1124  0.4400 -0.5428
  317MOL0     C42686   8.529   5.290   5.836  0.2551  0.4738 -0.3984
  317MOL0     C42687   8.643   5.345   5.898 -0.6027  0.4040 -0.5347
  317MOL0     C42688   8.724   5.259   5.986 -1.1497  0.5432  0.7226
  317MOL0     C42689   8.857   5.307   6.038  0.4404  0.6634  1.1658
  317MOL0     O42690   8.883   5.262   6.157 -0.1785  0.1362  0.0758
  317MOL0     C42691   8.986   5.320   6.220 -0.4966  0.1967  0.2140
  317MOL0     C42692   9.023   5.458   6.217  1.0705  0.5661  0.7870
  317MOL0     C42693   9.146   5.500   6.261 -0.1518  0.3180  0.5402
  317MOL0     C42694   9.217   5.420   6.338 -1.1462  0.0395 -0.4168
  317MOL0     O42695   9.342   5.443   6.403  0.2727  0.1933  0.3284
  317MOL0     C42696   9.387   5.577   6.392 -0.7508 -0.7741 -0.8336
  317MOL0     C42697   9.540   5.571   6.441  0.3623 -0.6496  0.3808
  317MOL0     C42698   9.565   5.506   6.581  0.4910 -0.0882 -0.1092
  317MOL0     C42699   9.701   5.546   6.634 -0.6373  0.5792 -0.7064
  317MOL0     C42700   9.742   5.474   6.762 -0.4309 -0.0947 -0.5563
  317MOL0     C42701   9.862   5.535   6.830  0.1240  0.4264  0.6883
  317MOL0     C42702   9.859   5.523   6.979 -1.4131  0.3558  0.4240
  317MOL0     C42703   9.773   5.618   7.054  0.6018  0.4996  0.2682
  317MOL0    Cl42704   9.784   5.591   7.226  0.1142 -0.1804  0.2438
  317MOL0     C42705   9.184   5.290   6.357  0.0063  0.3438  0.2776
  317MOL0     C42706   9.067   5.236   6.298 -0.5213 -0.2663 -0.1913
  317MOL0     O42707   8.934   5.364   5.958  0.1324  0.3114 -0.1672
  317MOL0     C42708   8.684   5.131   6.001 -0.4041  0.1198 -0.3900
  317MOL0     C42709   8.565   5.075   5.938  0.5319  0.5770  0.9736
  317MOL0     N42710   7.891   4.839   5.785  1.0216 -0.1065 -0.5166
  317MOL0     N42711   7.796   4.780   5.722  0.3928  0.4802  0.2964
  317MOL0     C42712   6.531   4.870   5.703 -0.5475 -0.3242 -1.3319
  317MOL0     C42713   6.400   4.920   5.732 -0.2479  0.9091 -0.4788
  317MOL0     C42714   6.010   4.974   5.999  0.0318 -0.3033 -0.0228
  317MOL0     C42715   5.891   4.966   5.916 -0.9602 -0.5783 -0.9859
  317MOL0     C42716   5.784   5.047   5.948  0.8155 -0.7707  0.4574
  317MOL0     C42717   5.794   5.153   6.042 -0.5421 -0.8288 -0.3209
  317MOL0     O42718   5.690   5.242   6.061  0.8140 -0.1164  0.4500
  317MOL0     C42719   5.718   5.380   6.093 -0.3216 -0.1060  0.5554
  317MOL0     C42720   5.711   5.406   6.245  0.6086 -0.8078 -0.3139
  317MOL0     C42721   5.729   5.556   6.268 -0.6472  0.5715  0.3527
  317MOL0     C42722   5.782   5.583   6.401 -0.4823 -0.0036  0.6269
  317MOL0     C42723   5.932   5.577   6.399 -0.7325 -0.4637 -1.4552
  317MOL0     C42724   6.052   5.595   6.415  0.0655  0.0958  0.1569
  317MOL0     C42725   5.917   5.167   6.117  0.4558  0.0375  0.6493
  317MOL0     C42726   6.015   5.069   6.104 -0.5461 -0.4112  0.1306
  317MOL0     C42727   6.133   5.081   6.195  0.2474  0.6727 -0.5920
  317MOL0     H42728   6.383   4.864   6.059 -1.0691  2.5980 -1.0697
  317MOL0     H42729   6.595   4.756   6.017  0.3103 -1.9675 -1.7100
  317MOL0     H42730   6.787   4.835   5.954 -0.8063 -0.6939  0.5555
  317MOL0     H42731   6.834   4.661   5.942  1.2168  0.0339  0.0418
  317MOL0     H42732   6.935   4.888   5.770 -1.8527 -0.7332 -0.5342
  317MOL0     H42733   6.969   4.710   5.750  1.0040  0.1034  0.9601
  317MOL0     H42734   7.085   4.727   5.978 -0.6495 -0.0212 -0.0684
  317MOL0     H42735   7.035   4.899   5.988  2.9632  1.3724 -0.4897
  317MOL0     H42736   7.202   4.787   5.762  0.8109 -0.1384  0.9993
  317MOL0     H42737   7.150   4.956   5.785 -2.5817  0.1697  0.4751
  317MOL0     H42738   7.293   4.982   5.973  2.3047  0.3769 -0.3629
  317MOL0     H42739   7.328   4.805   5.990  3.5322  0.6562 -0.2787
  317MOL0     H42740   7.437   5.000   5.769  2.1701  0.0659 -2.0758
  317MOL0     H42741   7.524   4.926   5.889  0.0928  0.4940 -1.3264
  317MOL0     H42742   7.400   4.735   5.680  1.5942 -3.0851  0.8945
  317MOL0     H42743   7.543   4.717   5.778  0.5389  0.1744 -1.6379
  317MOL0     H42744   7.559   4.788   5.532  0.8841 -1.5426  1.7424
  317MOL0     H42745   7.517   4.941   5.579 -0.4595 -0.1611  1.4087
  317MOL0     H42746   7.742   5.090   5.645 -0.7055 -1.3701 -1.0590
  317MOL0     H42747   7.995   5.128   5.680 -0.1860 -1.4317 -0.7125
  317MOL0     H42748   7.910   5.160   5.836 -0.4649  1.0416 -1.3203
  317MOL0     H42749   8.145   5.150   5.880  1.9494 -1.0095  0.9876
  317MOL0     H42750   8.091   4.983   5.910 -0.3597 -0.3515 -1.0435
  317MOL0     H42751   8.198   5.059   5.650  1.4945  0.9709  1.0768
  317MOL0     H42752   8.135   4.902   5.703 -2.3718  0.5595 -0.1429
  317MOL0     H42753   8.404   4.909   5.762 -1.1892 -0.8190 -3.7028
  317MOL0     H42754   8.306   4.963   5.906 -2.9345  0.2811 -0.9554
  317MOL0     H42755   8.466   5.346   5.766  2.6637  0.8812 -2.3932
  317MOL0     H42756   8.664   5.449   5.875  3.5515 -0.3881 -1.1191
  317MOL0     H42757   8.959   5.530   6.167  0.3709  0.5582  1.6417
  317MOL0     H42758   9.178   5.602   6.243  0.7299  0.1359  1.0215
  317MOL0     H42759   9.404   5.600   6.287 -1.5120 -4.8255 -1.9897
  317MOL0     H42760   9.324   5.647   6.448 -0.9971 -1.2794 -0.4689
  317MOL0     H42761   9.593   5.516   6.363  0.2732  1.1690 -1.0386
  317MOL0     H42762   9.573   5.676   6.448 -1.9184  0.0289  2.7104
  317MOL0     H42763   9.487   5.537   6.651 -1.8366 -0.6080 -2.3080
  317MOL0     H42764   9.542   5.399   6.572 -1.2275  0.3054 -0.9119
  317MOL0     H42765   9.712   5.655   6.639  0.6157  0.4104  2.6166
  317MOL0     H42766   9.782   5.522   6.564  0.5643  0.0277  0.8294
  317MOL0     H42767   9.753   5.366   6.748  0.3585 -0.0786 -0.0912
  317MOL0     H42768   9.658   5.477   6.833  1.3530 -1.2540  1.7204
  317MOL0     H42769   9.946   5.476   6.793 -0.3285 -0.5235  1.1477
  317MOL0     H42770   9.862   5.643   6.810  0.7863  0.6520  1.8037
  317MOL0     H42771   9.961   5.556   7.000 -1.0457 -0.8510  0.6252
  317MOL0     H42772   9.838   5.417   6.998  2.1434 -0.6527 -0.5013
  317MOL0     H42773   9.795   5.723   7.030  1.0580  0.3719  0.1077
  317MOL0     H42774   9.671   5.596   7.021  0.8080  0.2749 -0.2309
  317MOL0     H42775   9.245   5.238   6.430  0.2922  0.1738 -0.0776
  317MOL0     H42776   9.056   5.130   6.321  2.2902 -0.0204  3.2874
  317MOL0     H42777   8.731   5.056   6.064 -0.1819  1.1388  0.6938
  317MOL0     H42778   8.523   4.977   5.957 -2.7558  1.4335 -0.9958
  317MOL0     H42779   6.571   4.884   5.603 -2.1824  1.4115 -1.8159
  317MOL0     H42780   6.348   4.976   5.655  0.5826  1.6888 -0.4875
  317MOL0     H42781   5.870   4.903   5.831  0.1204  0.7435 -2.2802
  317MOL0     H42782   5.695   5.035   5.887  1.1360 -1.6637  0.1477
  317MOL0     H42783   5.642   5.436   6.039  1.0392  0.9371 -0.3349
  317MOL0     H42784   5.815   5.416   6.059  0.0222 -1.1029  0.4365
  317MOL0     H42785   5.789   5.352   6.299  1.4306  0.1346 -0.5407
  317MOL0     H42786   5.618   5.363   6.283  0.8420  1.0661  2.6344
  317MOL0     H42787   5.635   5.611   6.267 -2.5621 -2.4427  1.8874
  317MOL0     H42788   5.802   5.580   6.190 -0.2796 -0.6049  0.3163
  317MOL0     H42789   5.751   5.687   6.419  0.9678  0.1305  2.6772
  317MOL0     H42790   5.748   5.518   6.481  4.0017 -1.7881  1.3718
  317MOL0     H42791   6.155   5.607   6.442 -0.7275  3.9696  2.2921
  317MOL0     H42792   5.936   5.246   6.190  0.2788  3.1522 -2.4265
  317MOL0     H42793   6.229   5.091   6.145  0.4722 -0.3989 -0.3915
  317MOL0     H42794   6.133   5.168   6.262  1.7972  1.1269 -1.1365
  317MOL0     H42795   6.137   4.991   6.257  0.7751 -0.1079 -1.7294
  318MOL0     O42796  10.557   0.844   7.242 -0.7247 -0.3805 -0.8536
  318MOL0     C42797  10.608   0.940   7.182 -0.1063  0.2986 -0.8887
  318MOL0     O42798  10.720   0.996   7.217  0.6286  0.4750 -0.7729
  318MOL0     C42799  10.804   0.941   7.312 -0.6342 -0.3758 -0.0322
  318MOL0     C42800  10.773   0.896   7.440 -0.1675 -0.0425  0.1350
  318MOL0     C42801  10.864   0.830   7.515  0.5383  0.3093  0.4190
  318MOL0     C42802  11.007   0.818   7.481  0.1491 -1.1997  0.0277
  318MOL0     O42803  11.099   0.739   7.544 -0.8724 -0.4105  0.6426
  318MOL0     C42804  11.069   0.688   7.668  0.7349 -0.5064 -0.5051
  318MOL0     C42805  11.066   0.534   7.668 -0.1178 -0.0277 -1.1328
  318MOL0     C42806  11.172   0.474   7.575  0.0281 -0.0655 -0.4177
  318MOL0     C42807  11.316   0.474   7.632 -0.0157  0.6634  0.4185
  318MOL0     C42808  11.327   0.378   7.754  1.0857  0.6154 -0.5103
  318MOL0     C42809  11.468   0.349   7.787 -0.4549 -0.2692 -0.2416
  318MOL0     C42810  11.495   0.306   7.932 -0.5925  0.4789  0.0641
  318MOL0     C42811  11.440   0.169   7.971  0.2222  0.5639 -0.4964
  318MOL0     N42812  11.530   0.065   7.912  0.4304  0.2250 -0.0884
  318MOL0     C42813  11.481  -0.045   7.845  0.4245  0.0935  0.0043
  318MOL0     C42814  11.581  -0.137   7.841 -0.1990 -0.2620  0.6391
  318MOL0     C42815  11.579  -0.280   7.786  0.0952 -0.5794  0.4740
  318MOL0     C42816  11.567  -0.378   7.900  0.6252  0.2885 -0.7152
  318MOL0     C42817  11.712  -0.407   7.953  0.0161 -0.6343  0.9007
  318MOL0     C42818  11.795  -0.514   7.877  0.2533 -0.6083 -0.0355
  318MOL0     O42819  11.908  -0.547   7.963 -0.6647  0.1183 -0.1198
  318MOL0     C42820  12.028  -0.474   7.956  0.2258 -0.8494  0.4764
  318MOL0     C42821  12.109  -0.483   8.072  0.1359 -1.1713  0.9560
  318MOL0     C42822  12.239  -0.422   8.066  0.5458 -0.1210  0.0412
  318MOL0     C42823  12.280  -0.346   7.952 -0.6299 -0.1066  0.0771
  318MOL0     C42824  12.418  -0.293   7.943  0.4318 -1.0796 -0.0893
  318MOL0     O42825  12.439  -0.224   7.824  0.1928 -0.3659 -0.1397
  318MOL0     C42826  12.571  -0.211   7.794 -0.6938  0.1129  0.4336
  318MOL0     C42827  12.632  -0.088   7.804  0.1655 -0.0052  1.2089
  318MOL0     C42828  12.767  -0.073   7.779 -0.4642 -0.5788  0.0090
  318MOL0     C42829  12.849  -0.181   7.722  0.0733 -0.2232 -0.3228
  318MOL0     O42830  12.982  -0.161   7.696 -0.1815  0.1715 -0.3103
  318MOL0     C42831  13.076  -0.268   7.664 -0.8338  0.2486  0.3923
  318MOL0     C42832  13.212  -0.203   7.632  0.2812 -0.0715  0.1139
  318MOL0     C42833  13.317  -0.312   7.629 -0.6643 -0.1309 -0.2320
  318MOL0     C42834  13.448  -0.231   7.667  0.2976  0.5516 -0.1319
  318MOL0     C42835  13.574  -0.320   7.677 -0.2608  1.0194  0.4093
  318MOL0     C42836  13.701  -0.235   7.684  0.1197  0.4818 -0.1937
  318MOL0     C42837  13.825  -0.324   7.682 -0.7780 -0.2875 -0.2558
  318MOL0     C42838  13.942  -0.271   7.606  0.8784 -0.9051 -0.7736
  318MOL0    Cl42839  14.083  -0.377   7.615  0.6415 -0.0070 -0.0818
  318MOL0     C42840  12.783  -0.306   7.713 -0.1313  0.6699  0.0588
  318MOL0     C42841  12.648  -0.316   7.753 -0.8843  0.2668  0.3330
  318MOL0     O42842  12.499  -0.322   8.029 -0.0502 -0.1397  0.8618
  318MOL0     C42843  12.196  -0.331   7.847 -0.5611  0.4740  0.4813
  318MOL0     C42844  12.070  -0.394   7.851  0.2044 -0.6664  0.5244
  318MOL0     N42845  11.696  -0.066   7.889  0.1958  0.2360  0.6368
  318MOL0     N42846  11.664   0.050   7.937 -0.5097 -0.1535  0.3104
  318MOL0     C42847  11.039   0.877   7.357  0.8102  0.5608  0.3928
  318MOL0     C42848  10.939   0.938   7.276 -0.0630 -0.7666  0.2333
  318MOL0     C42849  10.532   0.995   7.071 -0.3810 -0.1606  0.5816
  318MOL0     C42850  10.444   0.904   7.004 -0.3858  0.0461 -0.4734
  318MOL0     C42851  10.385   0.934   6.886  0.5427 -0.0190  0.4254
  318MOL0     C42852  10.397   1.063   6.832  0.6308 -0.2857 -0.2421
  318MOL0     O42853  10.334   1.090   6.718  0.1308 -0.4331  0.2555
  318MOL0     C42854  10.310   0.980   6.621 -0.8448 -0.7350 -0.2162
  318MOL0     C42855  10.349   1.028   6.474  0.4765  0.5440  0.2277
  318MOL0     C42856  10.504   1.051   6.464 -0.2761  0.7065 -0.0221
  318MOL0     C42857  10.545   1.122   6.331  1.4953  0.0112 -0.3062
  318MOL0     C42858  10.546   1.040   6.216 -0.2446 -0.5488 -0.5897
  318MOL0     C42859  10.556   0.973   6.121  0.0396  0.5964  0.0018
  318MOL0     C42860  10.472   1.152   6.894 -0.7215 -0.9586 -0.9404
  318MOL0     C42861  10.555   1.123   7.007  0.4432  0.6251 -0.1676
  318MOL0     C42862  10.650   1.233   7.067 -0.2222  0.6128 -0.3459
  318MOL0     H42863  10.669   0.904   7.470 -0.2160 -0.4461  0.0742
  318MOL0     H42864  10.827   0.804   7.614 -0.0681  1.9892  0.6588
  318MOL0     H42865  11.161   0.718   7.721  0.7789  2.1131 -1.8783
  318MOL0     H42866  10.987   0.733   7.724  0.6704 -0.3795 -0.6980
  318MOL0     H42867  10.972   0.508   7.619  0.5643  1.1624 -3.1654
  318MOL0     H42868  11.068   0.496   7.771  3.1779  0.7947 -0.7873
  318MOL0     H42869  11.159   0.521   7.476  1.1559 -0.9972 -1.0289
  318MOL0     H42870  11.140   0.369   7.570 -0.0344 -0.0665 -0.0136
  318MOL0     H42871  11.386   0.438   7.556 -2.0599  1.1125 -1.7960
  318MOL0     H42872  11.362   0.569   7.660  2.2768  0.5573 -2.5073
  318MOL0     H42873  11.280   0.423   7.842  1.1500 -1.1080  0.4350
  318MOL0     H42874  11.274   0.285   7.732  1.0479  0.1535  1.3377
  318MOL0     H42875  11.514   0.269   7.729  3.1853  1.6513 -0.2657
  318MOL0     H42876  11.534   0.435   7.772 -1.1633 -0.1073 -2.8341
  318MOL0     H42877  11.456   0.384   7.997  3.3417  1.1510  1.9175
  318MOL0     H42878  11.601   0.304   7.958 -0.2715 -0.0921 -1.1893
  318MOL0     H42879  11.448   0.151   8.078 -3.0416 -3.3406 -0.6831
  318MOL0     H42880  11.336   0.163   7.938  0.9847  0.6299 -3.1403
  318MOL0     H42881  11.382  -0.066   7.806  0.9435  1.0690 -1.9410
  318MOL0     H42882  11.498  -0.287   7.714  0.2618 -3.0511  0.4383
  318MOL0     H42883  11.678  -0.294   7.741  0.7366 -0.7840  1.8668
  318MOL0     H42884  11.495  -0.344   7.975  0.4453  0.8047 -1.1089
  318MOL0     H42885  11.524  -0.473   7.867  2.2318 -0.7294  0.0070
  318MOL0     H42886  11.689  -0.452   8.050  1.6438  1.4013  2.3328
  318MOL0     H42887  11.779  -0.321   7.966 -1.7414  1.0786 -0.5931
  318MOL0     H42888  11.832  -0.471   7.783  1.5086  1.2773  1.2477
  318MOL0     H42889  11.730  -0.599   7.858 -1.4250  0.1228  2.0011
  318MOL0     H42890  12.087  -0.541   8.161 -0.8867  2.3914  3.2298
  318MOL0     H42891  12.308  -0.432   8.149 -1.4883 -0.0128  1.8254
  318MOL0     H42892  12.571  -0.002   7.830  1.7671  1.1830  1.2085
  318MOL0     H42893  12.808   0.026   7.793  1.4147 -1.5356  1.7840
  318MOL0     H42894  13.095  -0.329   7.753  1.5005  0.4471  0.1090
  318MOL0     H42895  13.045  -0.337   7.584  1.1550 -2.0262  1.4454
  318MOL0     H42896  13.204  -0.153   7.536 -1.1445  0.9369  0.7328
  318MOL0     H42897  13.233  -0.126   7.707  0.5072  0.9076 -0.9437
  318MOL0     H42898  13.289  -0.382   7.708 -1.7778  1.5957  0.9882
  318MOL0     H42899  13.312  -0.361   7.532  0.1878  1.2270 -0.9862
  318MOL0     H42900  13.429  -0.186   7.765  0.6755  0.0519  0.1772
  318MOL0     H42901  13.455  -0.159   7.585  1.0418  0.7063  0.0502
  318MOL0     H42902  13.588  -0.372   7.582 -0.4235 -0.3330  1.1059
  318MOL0     H42903  13.572  -0.381   7.768 -0.4155 -0.0281 -0.2865
  318MOL0     H42904  13.704  -0.164   7.601 -0.3749 -1.2745 -1.7696
  318MOL0     H42905  13.689  -0.178   7.777 -1.0782  0.6932 -0.4574
  318MOL0     H42906  13.795  -0.414   7.628 -0.0973 -0.4222 -0.4196
  318MOL0     H42907  13.859  -0.351   7.783  0.1914  1.8093  0.0135
  318MOL0     H42908  13.917  -0.269   7.499  0.0480 -3.1391 -0.6737
  318MOL0     H42909  13.966  -0.172   7.645  0.5701 -1.4835  0.9821
  318MOL0     H42910  12.849  -0.387   7.682 -1.9054 -0.5451 -0.6717
  318MOL0     H42911  12.599  -0.412   7.741  0.9759 -0.6822 -0.2202
  318MOL0     H42912  12.234  -0.294   7.752  0.9710 -2.4165 -0.1733
  318MOL0     H42913  12.010  -0.382   7.760 -0.2767 -1.1367  0.7724
  318MOL0     H42914  11.144   0.867   7.332  0.5601 -0.8516 -0.1956
  318MOL0     H42915  10.967   0.974   7.178  3.9440 -0.9855  1.1308
  318MOL0     H42916  10.429   0.808   7.053  0.6976 -0.5515 -1.2748
  318MOL0     H42917  10.324   0.856   6.842  2.3053 -1.2683  0.0555
  318MOL0     H42918  10.206   0.947   6.621 -0.5020 -1.8718 -0.8123
  318MOL0     H42919  10.364   0.891   6.654 -0.6012 -0.4681  0.1154
  318MOL0     H42920  10.294   1.121   6.452 -0.0351 -0.0947 -1.3374
  318MOL0     H42921  10.321   0.952   6.400  1.5887  2.0099 -1.8171
  318MOL0     H42922  10.561   0.959   6.476  0.2731  1.1561  1.0084
  318MOL0     H42923  10.530   1.114   6.550 -1.5101  1.1126  0.0741
  318MOL0     H42924  10.466   1.196   6.312  0.3466 -1.0923  0.0116
  318MOL0     H42925  10.640   1.173   6.348 -0.4304  3.7276  0.5580
  318MOL0     H42926  10.574   0.917   6.031  1.1836  1.8413 -0.5788
  318MOL0     H42927  10.477   1.253   6.854  0.4207 -0.2065  0.9930
  318MOL0     H42928  10.750   1.194   7.047  0.3363  1.1130  1.2940
  318MOL0     H42929  10.628   1.326   7.013 -1.9463  1.3673  1.5275
  318MOL0     H42930  10.635   1.255   7.173  1.0031 -1.9960  0.4510
  319MOL0     O42931   2.975   6.144   8.943  0.0323  0.1258  0.6782
  319MOL0     C42932   2.922   6.250   8.906  0.0614  0.0094 -1.0845
  319MOL0     O42933   2.997   6.361   8.868 -0.1312 -1.0514 -0.0121
  319MOL0     C42934   3.129   6.359   8.882  0.6457  0.1772  0.9871
  319MOL0     C42935   3.205   6.356   8.760 -0.2650  0.3104  0.2464
  319MOL0     C42936   3.346   6.346   8.763  0.0901  0.0995 -0.0111
  319MOL0     C42937   3.415   6.346   8.883 -0.1517  0.3844  0.6133
  319MOL0     O42938   3.553   6.340   8.894 -0.5756  0.0223  0.5652
  319MOL0     C42939   3.642   6.278   8.793  0.3875  0.0089 -0.5240
  319MOL0     C42940   3.714   6.380   8.704 -0.3305  1.0840  0.7974
  319MOL0     C42941   3.805   6.297   8.616  0.3157  0.4868  0.0690
  319MOL0     C42942   3.949   6.325   8.637 -0.6799  0.4930  0.4709
  319MOL0     C42943   4.029   6.252   8.533  0.2402  0.5827  0.1729
  319MOL0     C42944   4.179   6.261   8.549  0.2031 -0.6404  0.0425
  319MOL0     C42945   4.253   6.157   8.456 -0.3869  0.2433  0.1726
  319MOL0     C42946   4.388   6.114   8.507 -0.5912 -0.1400 -0.6300
  319MOL0     N42947   4.482   6.227   8.516 -0.1518  0.3976 -0.7609
  319MOL0     C42948   4.545   6.294   8.416 -0.2019  0.0443  0.2323
  319MOL0     C42949   4.645   6.364   8.472  0.1193 -0.5376 -0.4804
  319MOL0     C42950   4.750   6.449   8.411  0.7466 -0.6214  0.3375
  319MOL0     C42951   4.884   6.382   8.411  0.6321  0.4509 -0.0880
  319MOL0     C42952   4.996   6.481   8.390 -0.0594  0.5543  0.9625
  319MOL0     C42953   5.126   6.410   8.364  0.0739  1.6319  0.2332
  319MOL0     O42954   5.136   6.307   8.264 -0.0647  0.4529  0.2012
  319MOL0     C42955   5.260   6.242   8.255  0.7127 -0.7198 -0.5999
  319MOL0     C42956   5.259   6.130   8.177 -0.5198 -0.1928 -0.2455
  319MOL0     C42957   5.381   6.064   8.143 -0.2120 -0.3048 -0.0940
  319MOL0     C42958   5.506   6.115   8.194  0.3632  0.3924  0.1019
  319MOL0     C42959   5.633   6.041   8.178  0.7863 -0.2724  0.0691
  319MOL0     O42960   5.742   6.101   8.215 -0.0733 -0.3183 -0.2046
  319MOL0     C42961   5.855   6.035   8.203 -0.7018 -0.4816  0.3362
  319MOL0     C42962   5.939   6.067   8.099  0.2781 -0.1409 -0.0590
  319MOL0     C42963   6.061   5.993   8.076 -0.0879 -0.8002 -0.1808
  319MOL0     C42964   6.101   5.897   8.165  0.0984 -0.0659  0.2205
  319MOL0     O42965   6.224   5.844   8.142 -0.6900  0.1221  0.3431
  319MOL0     C42966   6.317   5.834   8.253 -0.7266 -0.1312 -0.0990
  319MOL0     C42967   6.466   5.830   8.189  0.6912 -0.5728  0.0560
  319MOL0     C42968   6.477   5.950   8.090  0.0370 -0.1829 -0.7066
  319MOL0     C42969   6.615   6.004   8.095  0.0424 -0.5919  0.3550
  319MOL0     C42970   6.717   5.933   8.012  0.6461 -0.3194 -0.2165
  319MOL0     C42971   6.843   6.016   7.995  0.1072  0.7657 -0.3092
  319MOL0     C42972   6.913   5.952   7.865 -1.1997 -0.5969  0.7326
  319MOL0     C42973   7.045   6.024   7.837 -1.3988 -1.0956 -0.3137
  319MOL0    Cl42974   7.118   5.940   7.691 -0.0497 -0.2201 -0.3281
  319MOL0     C42975   6.020   5.869   8.274 -0.2412  0.4137  0.0544
  319MOL0     C42976   5.890   5.926   8.280  0.8707  0.5586 -0.3587
  319MOL0     O42977   5.621   5.928   8.122  0.0621  0.7501  0.0832
  319MOL0     C42978   5.502   6.230   8.270  0.0585 -0.3399  0.2113
  319MOL0     C42979   5.382   6.289   8.310  0.8074  0.5646 -0.7441
  319MOL0     N42980   4.630   6.334   8.612  0.0571  0.2980 -0.1623
  319MOL0     N42981   4.531   6.256   8.633 -0.0138 -1.0135 -0.5123
  319MOL0     C42982   3.342   6.341   9.000  0.0731  0.3675  0.6417
  319MOL0     C42983   3.198   6.340   9.002 -0.1887 -0.0537 -0.2626
  319MOL0     C42984   2.780   6.269   8.937  0.4476  0.3070 -0.4587
  319MOL0     C42985   2.736   6.402   8.946 -0.2456  0.7207 -0.6786
  319MOL0     C42986   2.612   6.429   8.986 -0.1813  0.4278  0.5664
  319MOL0     C42987   2.520   6.331   9.012  0.3959  0.4331 -0.1108
  319MOL0     O42988   2.385   6.351   9.038  0.0048 -0.5692  0.2197
  319MOL0     C42989   2.311   6.462   9.005  0.7412 -0.2894 -0.4009
  319MOL0     C42990   2.182   6.470   9.083  0.5562  0.2628  0.2837
  319MOL0     C42991   2.091   6.589   9.065  0.6471  0.3587 -0.2548
  319MOL0     C42992   2.047   6.596   8.914  0.2497 -0.6961  0.5221
  319MOL0     C42993   1.909   6.656   8.907 -0.3571  0.2628 -0.8951
  319MOL0     C42994   1.801   6.712   8.908 -0.7468  0.3471 -0.6445
  319MOL0     C42995   2.562   6.194   9.008 -0.5010  0.2044 -0.1039
  319MOL0     C42996   2.687   6.161   8.964 -0.6203  0.0648 -0.1792
  319MOL0     C42997   2.717   6.016   8.951 -0.4708  0.2428  0.1000
  319MOL0     H42998   3.159   6.356   8.662 -2.1575  2.1263  1.0484
  319MOL0     H42999   3.406   6.344   8.673 -0.2949  0.9578 -0.2983
  319MOL0     H43000   3.721   6.221   8.841  2.3094  1.7072 -1.5139
  319MOL0     H43001   3.581   6.208   8.734  1.2075 -0.8771 -0.3458
  319MOL0     H43002   3.777   6.453   8.757  0.7162  0.9710 -0.2382
  319MOL0     H43003   3.656   6.441   8.634  0.9168  2.0776  0.5722
  319MOL0     H43004   3.785   6.333   8.515 -1.7693  0.4981  0.4290
  319MOL0     H43005   3.782   6.191   8.628  1.5912  0.0609 -0.9650
  319MOL0     H43006   3.971   6.431   8.621 -0.5439  0.3701 -0.1675
  319MOL0     H43007   3.975   6.296   8.739  2.6766  0.4798 -0.2699
  319MOL0     H43008   4.004   6.147   8.549  1.5746 -0.1008 -1.8553
  319MOL0     H43009   4.014   6.285   8.430 -0.9159  0.1092  0.1790
  319MOL0     H43010   4.211   6.363   8.527  2.0045 -0.9078  1.1882
  319MOL0     H43011   4.208   6.237   8.652  1.1416 -1.0297 -0.2945
  319MOL0     H43012   4.269   6.195   8.354 -3.0425 -0.5401 -0.6069
  319MOL0     H43013   4.183   6.074   8.446  1.5828 -1.2050 -3.2607
  319MOL0     H43014   4.383   6.058   8.601 -0.4045  2.0307  0.7521
  319MOL0     H43015   4.434   6.047   8.433  1.3804 -1.2399  1.4524
  319MOL0     H43016   4.538   6.289   8.307  4.0287  1.3886 -0.2596
  319MOL0     H43017   4.705   6.495   8.322 -3.4634  0.6446  2.8449
  319MOL0     H43018   4.774   6.535   8.474 -0.0520  1.7424 -2.4021
  319MOL0     H43019   4.907   6.322   8.499  4.4522  1.0447 -0.5047
  319MOL0     H43020   4.871   6.318   8.323 -1.7288  2.0022 -0.9591
  319MOL0     H43021   5.000   6.546   8.477  0.8915 -0.4855  1.7282
  319MOL0     H43022   4.961   6.539   8.304 -0.1967  1.9373  1.9322
  319MOL0     H43023   5.143   6.355   8.457 -0.8355  1.3576  0.2439
  319MOL0     H43024   5.204   6.486   8.363  0.7422  0.9778  1.0749
  319MOL0     H43025   5.161   6.106   8.136 -0.6879 -1.8512  1.0136
  319MOL0     H43026   5.381   5.980   8.075  2.0897  1.1548 -2.0304
  319MOL0     H43027   5.917   6.146   8.028  0.9404 -1.0015 -1.2777
  319MOL0     H43028   6.122   6.003   7.987 -2.2488 -2.7805 -1.9975
  319MOL0     H43029   6.315   5.912   8.329  1.8003 -1.4993  1.5033
  319MOL0     H43030   6.298   5.748   8.318 -2.0085  1.9335  2.4419
  319MOL0     H43031   6.532   5.838   8.276  1.3220  0.1842 -0.4758
  319MOL0     H43032   6.481   5.734   8.138  0.9613 -0.6623  0.3031
  319MOL0     H43033   6.455   5.921   7.987 -2.0469 -0.1926 -0.3117
  319MOL0     H43034   6.410   6.030   8.123 -1.8318 -0.8752 -2.5413
  319MOL0     H43035   6.649   6.007   8.199  0.0978 -1.0845  0.3534
  319MOL0     H43036   6.601   6.106   8.056 -2.2873 -1.3118 -0.9054
  319MOL0     H43037   6.673   5.908   7.915  0.6233 -3.2280  0.4499
  319MOL0     H43038   6.742   5.836   8.057  1.5991 -0.3975 -0.8808
  319MOL0     H43039   6.819   6.122   7.978  1.8271  1.0087 -1.4058
  319MOL0     H43040   6.906   5.999   8.083  1.9681  0.5962 -1.6373
  319MOL0     H43041   6.852   5.957   7.774 -1.7159 -1.0062  1.0497
  319MOL0     H43042   6.939   5.846   7.877  3.8303  0.4486  1.1973
  319MOL0     H43043   7.033   6.131   7.818  0.3030 -1.3317 -3.4515
  319MOL0     H43044   7.110   6.014   7.924  0.6589 -0.4299 -1.7016
  319MOL0     H43045   6.045   5.793   8.347  1.7355  0.1070 -0.8764
  319MOL0     H43046   5.816   5.901   8.355  2.4707  2.9577  2.2646
  319MOL0     H43047   5.594   6.271   8.313  0.6366 -0.1234 -1.1873
  319MOL0     H43048   5.397   6.369   8.381  0.0099 -0.3052  0.4493
  319MOL0     H43049   3.405   6.350   9.087  0.2362  0.3062  0.5312
  319MOL0     H43050   3.152   6.354   9.099  0.1778  0.5469 -0.1678
  319MOL0     H43051   2.808   6.482   8.930 -1.0782  1.4885 -0.6852
  319MOL0     H43052   2.562   6.526   8.981 -2.7458 -0.8088  0.8018
  319MOL0     H43053   2.303   6.460   8.896  0.3355  1.3473 -0.4298
  319MOL0     H43054   2.354   6.561   9.025 -0.4615  0.1377  0.1759
  319MOL0     H43055   2.196   6.469   9.191  1.5620  1.0082  0.1741
  319MOL0     H43056   2.130   6.374   9.072  5.5003 -3.0657  2.2925
  319MOL0     H43057   2.132   6.685   9.098 -1.5595  1.5414 -0.7230
  319MOL0     H43058   2.001   6.571   9.125 -1.3757  0.5848 -3.0321
  319MOL0     H43059   2.111   6.658   8.851 -1.0581  2.1899  1.8546
  319MOL0     H43060   2.048   6.494   8.874  1.5188 -0.7668  0.6700
  319MOL0     H43061   1.698   6.741   8.900 -1.7541 -0.9292  4.4449
  319MOL0     H43062   2.491   6.124   9.051  0.5746 -0.5890  0.4204
  319MOL0     H43063   2.631   5.949   8.955 -0.4327  0.2238  0.8962
  319MOL0     H43064   2.783   5.988   8.869  0.3815 -2.8286  1.6541
  319MOL0     H43065   2.774   5.975   9.036 -0.0255 -1.9620 -1.1847
  320MOL0     O43066   3.754   4.625   3.847 -0.6165 -0.7121  0.3708
  320MOL0     C43067   3.702   4.594   3.739 -0.0694  0.4281  0.0396
  320MOL0     O43068   3.776   4.573   3.622 -0.9074  0.1585 -0.0934
  320MOL0     C43069   3.913   4.609   3.604  0.5737 -0.2688  0.6073
  320MOL0     C43070   3.990   4.703   3.675 -0.1268  0.0707 -0.7655
  320MOL0     C43071   4.133   4.723   3.651  0.6641  0.3947 -0.4307
  320MOL0     C43072   4.191   4.650   3.542  0.7684  0.2183 -0.0373
  320MOL0     O43073   4.322   4.658   3.500  0.0232  0.2458 -0.2189
  320MOL0     C43074   4.389   4.782   3.538  0.2694  0.3451 -0.2929
  320MOL0     C43075   4.520   4.785   3.458  0.0852 -1.0314 -0.1379
  320MOL0     C43076   4.621   4.685   3.532  0.1808 -0.3254  0.0275
  320MOL0     C43077   4.736   4.671   3.434 -0.7071 -0.0416 -0.2678
  320MOL0     C43078   4.736   4.540   3.363  0.3083 -0.3658  0.3684
  320MOL0     C43079   4.868   4.505   3.304  0.0698  0.0372 -0.5518
  320MOL0     C43080   4.907   4.593   3.176  0.3157  0.2475 -0.8774
  320MOL0     C43081   5.061   4.588   3.153 -0.1353 -0.2944 -1.0866
  320MOL0     N43082   5.117   4.450   3.147  0.3664  0.8355 -0.2512
  320MOL0     C43083   5.202   4.408   3.052 -0.7414  0.4291  0.6357
  320MOL0     C43084   5.277   4.310   3.109 -0.2073 -0.3018  0.1459
  320MOL0     C43085   5.375   4.223   3.036 -0.3216 -0.4906 -1.0779
  320MOL0     C43086   5.510   4.290   3.036  1.1718  0.6271 -0.1626
  320MOL0     C43087   5.626   4.189   2.985  0.6427 -0.0123 -0.0958
  320MOL0     C43088   5.758   4.282   2.999 -0.2176  0.9711  0.2049
  320MOL0     O43089   5.787   4.347   3.128  0.4459 -0.6628 -0.0996
  320MOL0     C43090   5.862   4.276   3.223  0.0048  0.8182  1.0581
  320MOL0     C43091   5.889   4.140   3.214 -0.7075  0.6020  0.1551
  320MOL0     C43092   5.983   4.075   3.292  0.4265 -0.3006 -0.5459
  320MOL0     C43093   6.048   4.143   3.393  0.0993 -0.2237 -0.5612
  320MOL0     C43094   6.152   4.080   3.472 -0.3400  0.0773  0.6820
  320MOL0     O43095   6.152   3.942   3.480 -0.1415 -0.6815  0.5502
  320MOL0     C43096   6.253   3.885   3.560  0.4009  1.1220 -0.7422
  320MOL0     C43097   6.377   3.862   3.505  0.5540 -1.0073 -0.1101
  320MOL0     C43098   6.473   3.787   3.565 -0.2236  0.3415  0.9335
  320MOL0     C43099   6.450   3.747   3.700  0.1436  0.1878  0.0525
  320MOL0     O43100   6.543   3.691   3.785  0.5323  0.1985  0.1069
  320MOL0     C43101   6.653   3.624   3.720  1.0741 -0.4550  0.0191
  320MOL0     C43102   6.722   3.520   3.799 -0.2151 -0.2929  0.1923
  320MOL0     C43103   6.850   3.567   3.879 -0.0800  0.0074 -0.6348
  320MOL0     C43104   6.906   3.454   3.962 -0.2364  0.6904  0.6275
  320MOL0     C43105   7.016   3.513   4.069 -0.3096  0.0216 -0.9599
  320MOL0     C43106   7.050   3.408   4.173 -0.5606 -0.5853 -0.5378
  320MOL0     C43107   7.144   3.465   4.280 -0.3040  0.3788  0.6854
  320MOL0     C43108   7.185   3.358   4.384 -0.2075 -0.5688 -0.2886
  320MOL0    Cl43109   7.045   3.321   4.488 -0.4490 -0.1000 -0.1588
  320MOL0     C43110   6.329   3.777   3.758 -0.6722 -0.5560 -0.5416
  320MOL0     C43111   6.225   3.830   3.686  0.2696 -0.8065 -0.0523
  320MOL0     O43112   6.225   4.152   3.542  0.8897  0.0908  0.2542
  320MOL0     C43113   6.020   4.278   3.411  0.3176 -0.6633  0.2159
  320MOL0     C43114   5.927   4.342   3.325  0.3444 -0.5073  0.7615
  320MOL0     N43115   5.247   4.302   3.242 -0.1148  0.8442 -0.1814
  320MOL0     N43116   5.150   4.387   3.262  0.2728 -0.0469  0.7446
  320MOL0     C43117   4.108   4.563   3.468  0.5447 -0.2726  0.8183
  320MOL0     C43118   3.978   4.549   3.498 -0.1447 -0.3706  0.0376
  320MOL0     C43119   3.555   4.572   3.718  1.2940  0.4001  0.8179
  320MOL0     C43120   3.502   4.552   3.587  0.9147 -0.7563 -0.2534
  320MOL0     C43121   3.361   4.541   3.558 -0.1602 -0.0954  0.1246
  320MOL0     C43122   3.268   4.539   3.664 -0.2531 -0.2293  0.5003
  320MOL0     O43123   3.136   4.525   3.653  0.8100  0.0300 -0.1056
  320MOL0     C43124   3.083   4.458   3.536  0.7618  0.1588 -0.4081
  320MOL0     C43125   3.100   4.303   3.528 -0.5098 -0.3293 -0.8451
  320MOL0     C43126   3.019   4.242   3.640  0.4943 -0.2610  1.0302
  320MOL0     C43127   3.036   4.085   3.651  0.0651  0.5447  0.0403
  320MOL0     C43128   2.953   4.002   3.552 -0.9096  0.1976  0.6229
  320MOL0     C43129   2.889   3.942   3.463 -0.3290  0.4212 -0.0608
  320MOL0     C43130   3.318   4.553   3.796 -0.8255  0.1307  0.4722
  320MOL0     C43131   3.456   4.567   3.828  0.1225 -0.9308  0.8694
  320MOL0     C43132   3.496   4.593   3.977  0.2508  0.6759 -0.6525
  320MOL0     H43133   3.945   4.768   3.749  0.7166  0.5344 -0.6548
  320MOL0     H43134   4.187   4.795   3.710 -2.2172  1.1563  1.4678
  320MOL0     H43135   4.325   4.867   3.512 -2.3138 -0.9878  1.3132
  320MOL0     H43136   4.410   4.794   3.644  0.7912 -2.5640  0.0212
  320MOL0     H43137   4.555   4.888   3.454  2.8574 -1.8901 -0.8721
  320MOL0     H43138   4.501   4.748   3.357 -2.5818  1.0415 -0.5050
  320MOL0     H43139   4.575   4.588   3.550 -0.3865 -0.5648 -2.3718
  320MOL0     H43140   4.656   4.728   3.626  0.1534  0.4113 -0.2894
  320MOL0     H43141   4.735   4.750   3.358  1.9435  0.4138  0.0665
  320MOL0     H43142   4.831   4.677   3.487  1.1876  1.1598 -3.4914
  320MOL0     H43143   4.732   4.463   3.440  1.9949  0.5320  1.4079
  320MOL0     H43144   4.655   4.515   3.293  0.7444 -3.3668  0.8096
  320MOL0     H43145   4.951   4.520   3.373  1.0647 -1.8350 -1.2665
  320MOL0     H43146   4.870   4.398   3.281 -0.0418  0.1527 -1.1308
  320MOL0     H43147   4.880   4.698   3.188 -0.5348 -0.0800  0.3093
  320MOL0     H43148   4.845   4.556   3.093 -1.7869  1.2701  0.1451
  320MOL0     H43149   5.073   4.638   3.057 -2.7778  0.3524 -1.1492
  320MOL0     H43150   5.117   4.655   3.218 -1.1290  0.0799 -0.5938
  320MOL0     H43151   5.215   4.441   2.949 -0.3041  2.8923  1.4281
  320MOL0     H43152   5.379   4.133   3.097 -1.4442  0.1228 -0.0771
  320MOL0     H43153   5.340   4.201   2.934 -0.7257  0.0357 -1.0540
  320MOL0     H43154   5.484   4.375   2.972  1.8755  1.2088  0.3048
  320MOL0     H43155   5.543   4.336   3.130 -0.4761 -0.3709  0.9457
  320MOL0     H43156   5.600   4.145   2.889 -3.2163  0.3678  0.6069
  320MOL0     H43157   5.640   4.113   3.062  0.9308  1.2836  1.1711
  320MOL0     H43158   5.739   4.362   2.926 -2.8478  0.9225  0.7463
  320MOL0     H43159   5.846   4.222   2.973 -1.3230 -0.6845  0.1312
  320MOL0     H43160   5.835   4.086   3.137  3.7891 -1.9632 -1.6138
  320MOL0     H43161   5.996   3.971   3.262 -0.4899 -0.4975 -0.2979
  320MOL0     H43162   6.406   3.908   3.412  3.9076 -1.8236  0.4101
  320MOL0     H43163   6.568   3.770   3.514 -1.0168 -0.2839 -0.3666
  320MOL0     H43164   6.614   3.568   3.635  0.2258 -0.9568  0.7178
  320MOL0     H43165   6.725   3.699   3.685  1.8225 -2.8341 -4.1423
  320MOL0     H43166   6.646   3.474   3.863  0.6694 -1.1547  0.6402
  320MOL0     H43167   6.763   3.440   3.736  0.7042  1.5649 -1.7136
  320MOL0     H43168   6.934   3.602   3.819  0.9128 -2.6984 -0.9523
  320MOL0     H43169   6.812   3.650   3.941  0.6524  2.4632 -3.2777
  320MOL0     H43170   6.935   3.373   3.895 -0.5519  1.7161 -0.7956
  320MOL0     H43171   6.822   3.412   4.019  0.0523 -1.2373 -0.3100
  320MOL0     H43172   6.965   3.597   4.117  0.6878 -1.0736  2.3115
  320MOL0     H43173   7.108   3.550   4.024  0.9796  0.1796  1.6134
  320MOL0     H43174   6.957   3.366   4.212 -1.3152  2.6029  1.4913
  320MOL0     H43175   7.099   3.330   4.114  0.8549  0.0984 -0.3333
  320MOL0     H43176   7.087   3.537   4.340  1.0377  1.9202  0.1708
  320MOL0     H43177   7.243   3.499   4.249  0.0455  0.6708  2.0433
  320MOL0     H43178   7.212   3.264   4.336  1.8353 -1.0437  1.6582
  320MOL0     H43179   7.265   3.395   4.449 -2.1763 -2.3987  3.5433
  320MOL0     H43180   6.313   3.733   3.856  4.0708  1.5491  1.4457
  320MOL0     H43181   6.125   3.847   3.723 -0.5407 -0.4418 -2.2506
  320MOL0     H43182   6.065   4.346   3.482 -0.7530 -0.5654  0.8279
  320MOL0     H43183   5.894   4.444   3.341 -0.8934 -0.5853 -1.0375
  320MOL0     H43184   4.154   4.510   3.385 -0.7360  0.6024 -0.5003
  320MOL0     H43185   3.934   4.474   3.433  0.3495 -0.3343 -0.3417
  320MOL0     H43186   3.569   4.554   3.502 -1.0633  1.7894 -1.9012
  320MOL0     H43187   3.346   4.525   3.452  1.3758  0.0601 -0.1367
  320MOL0     H43188   3.131   4.501   3.447  2.5553  0.2469  0.5538
  320MOL0     H43189   2.976   4.480   3.533 -0.1640 -3.7011  0.1011
  320MOL0     H43190   3.204   4.272   3.542 -0.7532 -0.4708  0.9936
  320MOL0     H43191   3.070   4.272   3.428 -3.5591  1.5018 -0.6311
  320MOL0     H43192   2.912   4.256   3.629  0.2132 -2.8916 -0.2126
  320MOL0     H43193   3.039   4.279   3.741  0.3582  0.9144  0.6407
  320MOL0     H43194   3.140   4.051   3.642 -0.0402  0.3975 -0.6632
  320MOL0     H43195   3.002   4.053   3.750  1.7188  1.9372  1.1196
  320MOL0     H43196   2.811   3.905   3.398  0.6694  1.2875 -1.8221
  320MOL0     H43197   3.243   4.540   3.874  0.3465  3.4365  2.3604
  320MOL0     H43198   3.522   4.698   3.993 -0.4316  0.5284  1.7460
  320MOL0     H43199   3.409   4.576   4.041 -2.5629 -0.2912 -4.3739
  320MOL0     H43200   3.584   4.536   4.006  0.0009 -0.5884 -2.2361
  321MOL0     O43201  11.314   5.414   1.662 -0.2327 -0.2260  0.9820
  321MOL0     C43202  11.393   5.507   1.642 -0.4684 -0.5187 -0.2101
  321MOL0     O43203  11.374   5.605   1.551 -0.7673 -0.2118  0.0912
  321MOL0     C43204  11.251   5.605   1.479  0.3529  0.8716 -0.4937
  321MOL0     C43205  11.223   5.510   1.382 -0.0829 -1.2621  0.6549
  321MOL0     C43206  11.100   5.517   1.317  0.3244  1.0046 -0.3469
  321MOL0     C43207  11.003   5.609   1.355 -0.0946  0.0916  0.4962
  321MOL0     O43208  10.875   5.598   1.304 -0.2488  0.0171 -0.0713
  321MOL0     C43209  10.859   5.656   1.169  0.8182 -0.1193 -0.6659
  321MOL0     C43210  10.715   5.678   1.129  1.0089 -0.9748 -0.1616
  321MOL0     C43211  10.719   5.724   0.988  0.1567  0.0250  0.0697
  321MOL0     C43212  10.576   5.777   0.961 -0.5298  0.4518 -0.7209
  321MOL0     C43213  10.578   5.835   0.823 -0.2055  0.1240 -0.1574
  321MOL0     C43214  10.439   5.899   0.788 -0.4294 -0.1052 -1.0613
  321MOL0     C43215  10.322   5.810   0.766 -0.3046  0.5658  0.2241
  321MOL0     C43216  10.210   5.880   0.691 -0.0087  0.1334 -0.6455
  321MOL0     N43217  10.093   5.801   0.676 -0.0101 -0.0968  0.3255
  321MOL0     C43218  10.066   5.721   0.570  0.2331  0.1215  1.6116
  321MOL0     C43219   9.954   5.656   0.608 -0.0975 -1.2039  0.2065
  321MOL0     C43220   9.853   5.571   0.530 -0.4665 -0.6067 -1.7955
  321MOL0     C43221   9.893   5.507   0.395 -0.8805  0.1950  0.5953
  321MOL0     C43222   9.976   5.380   0.423 -0.3137  0.4687 -0.1023
  321MOL0     C43223  10.011   5.316   0.292 -0.1513  0.2784 -0.6907
  321MOL0     O43224  10.059   5.182   0.316  0.4668  0.0644 -0.3311
  321MOL0     C43225  10.192   5.152   0.316 -0.5917  0.2140  0.6005
  321MOL0     C43226  10.237   5.027   0.310  0.1453 -0.3403 -0.5913
  321MOL0     C43227  10.372   4.992   0.327  0.1194  0.7197 -0.3518
  321MOL0     C43228  10.469   5.093   0.354 -0.3985  0.2881 -0.3672
  321MOL0     C43229  10.610   5.061   0.377  0.3519  1.1945 -0.0891
  321MOL0     O43230  10.702   5.146   0.327 -0.2770  0.3100 -0.3512
  321MOL0     C43231  10.836   5.131   0.351 -0.5525  0.5739  0.1255
  321MOL0     C43232  10.926   5.161   0.245  1.1224 -0.3223 -0.0881
  321MOL0     C43233  11.064   5.153   0.262  0.6852  0.9257 -0.0550
  321MOL0     C43234  11.121   5.119   0.384  0.6406  0.0571  0.3589
  321MOL0     O43235  11.263   5.121   0.406  0.8412 -0.3926 -0.4487
  321MOL0     C43236  11.337   5.239   0.378  1.2190 -0.4637 -0.6392
  321MOL0     C43237  11.449   5.213   0.296  0.1083 -0.6364  0.3988
  321MOL0     C43238  11.508   5.352   0.251 -0.0440 -0.1766  0.1939
  321MOL0     C43239  11.651   5.344   0.196  0.3149  0.5969  0.8639
  321MOL0     C43240  11.759   5.332   0.306 -0.3763  0.0691  1.1388
  321MOL0     C43241  11.900   5.320   0.236  0.4966  0.7900  0.7292
  321MOL0     C43242  12.004   5.346   0.338 -0.6038  0.2310 -0.2820
  321MOL0     C43243  12.137   5.323   0.288 -0.0856 -0.2058  0.1335
  321MOL0    Cl43244  12.256   5.284   0.416  0.5098 -0.3833  0.4051
  321MOL0     C43245  11.035   5.096   0.490 -0.4039 -0.8037 -1.1046
  321MOL0     C43246  10.893   5.104   0.473  0.2765 -0.1993 -0.2536
  321MOL0     O43247  10.639   4.953   0.432  0.7264  0.0579  0.3573
  321MOL0     C43248  10.427   5.225   0.329  0.1815 -0.5373  0.2686
  321MOL0     C43249  10.286   5.255   0.327  0.1692  0.5136  0.3591
  321MOL0     N43250   9.919   5.705   0.732  0.0288  0.2162 -0.4413
  321MOL0     N43251  10.001   5.794   0.777  0.0797  0.2259  0.0212
  321MOL0     C43252  11.027   5.694   1.457 -0.0221  0.2198 -0.0197
  321MOL0     C43253  11.155   5.698   1.509 -0.0346  0.1593  0.4407
  321MOL0     C43254  11.521   5.528   1.732 -0.2287  0.1424  0.4808
  321MOL0     C43255  11.634   5.585   1.669 -0.1100  0.7226  1.2702
  321MOL0     C43256  11.756   5.609   1.733 -0.5301  0.1831 -0.6102
  321MOL0     C43257  11.770   5.583   1.869  0.3830  0.0692  0.4867
  321MOL0     O43258  11.881   5.610   1.946  0.0193  0.1321 -0.0591
  321MOL0     C43259  11.933   5.738   1.933 -0.2049 -0.3909  0.0248
  321MOL0     C43260  12.082   5.730   1.959 -0.1005  0.8051 -0.7228
  321MOL0     C43261  12.156   5.639   1.854 -1.0343  0.3730  0.3221
  321MOL0     C43262  12.222   5.510   1.918  0.0424 -0.2545  0.1708
  321MOL0     C43263  12.326   5.543   2.016  0.3024 -0.4828 -0.5637
  321MOL0     C43264  12.417   5.580   2.092  0.1239  0.2413 -0.8519
  321MOL0     C43265  11.656   5.537   1.942 -0.8585 -0.7118 -0.3171
  321MOL0     C43266  11.535   5.507   1.878  0.0387  0.1507  0.2615
  321MOL0     C43267  11.423   5.466   1.969  0.4362 -0.1559 -0.0440
  321MOL0     H43268  11.304   5.439   1.368 -0.0387 -1.0271 -0.3380
  321MOL0     H43269  11.075   5.456   1.232 -1.1109  2.1322 -0.7827
  321MOL0     H43270  10.909   5.754   1.169 -3.4115  2.4623  2.7532
  321MOL0     H43271  10.908   5.580   1.108 -0.1827 -0.9885 -0.4196
  321MOL0     H43272  10.670   5.751   1.196  2.6513 -0.1477  0.0925
  321MOL0     H43273  10.659   5.584   1.136  1.5551 -1.3607 -0.7846
  321MOL0     H43274  10.753   5.646   0.920 -2.2210 -0.1121 -1.0582
  321MOL0     H43275  10.791   5.806   0.981 -0.1127  0.3318  0.7367
  321MOL0     H43276  10.508   5.693   0.981 -0.0660  0.9747  4.3106
  321MOL0     H43277  10.540   5.858   1.024 -0.0416  1.4156 -1.6470
  321MOL0     H43278  10.651   5.917   0.822  0.8418 -0.7823 -0.5190
  321MOL0     H43279  10.606   5.758   0.751 -1.6907 -1.7120  1.1547
  321MOL0     H43280  10.411   5.971   0.865 -0.9212 -2.0569  0.6703
  321MOL0     H43281  10.463   5.956   0.698  1.5567 -2.3716 -2.0656
  321MOL0     H43282  10.276   5.780   0.861 -1.8941 -1.4167 -1.0718
  321MOL0     H43283  10.345   5.725   0.701  2.6585  2.0413 -0.8305
  321MOL0     H43284  10.177   5.966   0.749  3.5704  0.0317  1.8872
  321MOL0     H43285  10.248   5.909   0.593 -2.1935  2.2021 -0.9525
  321MOL0     H43286  10.115   5.706   0.475 -1.3764 -2.2227  1.0766
  321MOL0     H43287   9.827   5.488   0.597  0.4304 -0.6088 -1.4373
  321MOL0     H43288   9.765   5.633   0.512 -0.7689 -0.5496 -0.2660
  321MOL0     H43289   9.812   5.478   0.328  0.7215  1.0171 -1.8281
  321MOL0     H43290   9.957   5.575   0.337  0.7745 -2.9916 -1.6284
  321MOL0     H43291   9.914   5.314   0.484  1.1897  0.1007  1.0833
  321MOL0     H43292  10.060   5.409   0.488 -1.7810 -0.3894  2.2923
  321MOL0     H43293  10.077   5.384   0.238  1.4224  1.8480  2.8952
  321MOL0     H43294   9.920   5.295   0.235 -0.8733 -0.9565  0.8468
  321MOL0     H43295  10.166   4.945   0.304 -2.2121  1.6720 -1.8274
  321MOL0     H43296  10.393   4.886   0.326 -0.6591  0.4731  2.2557
  321MOL0     H43297  10.893   5.196   0.148 -0.7692 -0.4222  0.4940
  321MOL0     H43298  11.133   5.181   0.183  2.6735  1.6188  1.8122
  321MOL0     H43299  11.270   5.295   0.311 -0.4085 -3.9728 -2.2335
  321MOL0     H43300  11.353   5.295   0.471 -1.3056  1.5669 -1.2889
  321MOL0     H43301  11.524   5.156   0.352  0.6742 -1.3624 -1.0380
  321MOL0     H43302  11.416   5.166   0.203 -2.3017  0.1237  0.7966
  321MOL0     H43303  11.442   5.412   0.188  1.5752  0.2439 -1.1723
  321MOL0     H43304  11.510   5.414   0.342 -1.4280  0.3197 -0.0871
  321MOL0     H43305  11.667   5.438   0.142  0.5728  0.2689  0.3604
  321MOL0     H43306  11.657   5.262   0.123 -1.5995  1.8536 -0.8213
  321MOL0     H43307  11.746   5.240   0.365 -1.3269 -0.2183  0.5099
  321MOL0     H43308  11.749   5.413   0.378  0.8679  1.0059  0.2867
  321MOL0     H43309  11.912   5.219   0.196 -3.1986 -1.1346  3.8181
  321MOL0     H43310  11.913   5.407   0.170  0.6271  1.6051  1.7945
  321MOL0     H43311  11.980   5.280   0.422 -0.7289  0.2187 -0.3268
  321MOL0     H43312  11.988   5.449   0.368 -2.3419  0.6978 -2.4686
  321MOL0     H43313  12.140   5.239   0.219 -0.0651  1.0918 -1.5177
  321MOL0     H43314  12.175   5.407   0.229  0.4178  0.0661  0.8203
  321MOL0     H43315  11.080   5.065   0.583  0.3342 -0.3879 -1.3178
  321MOL0     H43316  10.831   5.078   0.558  1.4110  4.8315  2.4775
  321MOL0     H43317  10.496   5.308   0.332 -1.4645  0.8848  0.3679
  321MOL0     H43318  10.253   5.359   0.321 -1.5664 -0.0615 -3.1684
  321MOL0     H43319  10.951   5.755   1.504  0.3951 -0.3222  1.4295
  321MOL0     H43320  11.183   5.778   1.576  3.3891  0.9829 -1.7026
  321MOL0     H43321  11.630   5.601   1.562  5.7867  0.3679  0.6874
  321MOL0     H43322  11.831   5.656   1.670  0.1875 -1.2602 -0.8602
  321MOL0     H43323  11.889   5.813   2.000  0.7611  1.1722 -1.0262
  321MOL0     H43324  11.916   5.780   1.834  0.9576  1.7270  0.6620
  321MOL0     H43325  12.097   5.691   2.060 -1.2814  0.1101 -0.7913
  321MOL0     H43326  12.117   5.833   1.950  1.7222  0.6777  3.0517
  321MOL0     H43327  12.241   5.698   1.819 -0.1409 -0.6369  0.7367
  321MOL0     H43328  12.097   5.600   1.770  2.6776 -1.6210 -1.5753
  321MOL0     H43329  12.139   5.463   1.972 -2.3841  1.4841 -1.7929
  321MOL0     H43330  12.263   5.436   1.848  3.0484  1.2351  0.1958
  321MOL0     H43331  12.507   5.613   2.139 -0.5446 -0.4275  0.9631
  321MOL0     H43332  11.676   5.525   2.048  2.9141 -0.6424 -0.8849
  321MOL0     H43333  11.346   5.416   1.909 -1.7968  2.3356  0.5713
  321MOL0     H43334  11.460   5.388   2.036  2.1680 -1.3242 -2.2051
  321MOL0     H43335  11.370   5.540   2.029  0.8721  0.0756  0.0629
  322MOL0     O43336   3.807  10.877   4.140  0.1945 -0.3741 -0.1080
  322MOL0     C43337   3.754  10.975   4.189 -0.4325 -0.4175 -0.2046
  322MOL0     O43338   3.824  11.063   4.274  0.2666 -0.0833 -0.2860
  322MOL0     C43339   3.947  11.028   4.318  0.4178 -0.6694  0.0855
  322MOL0     C43340   4.056  11.110   4.296 -0.2927  0.2815  0.4421
  322MOL0     C43341   4.187  11.080   4.339 -0.4199 -0.2805  0.0849
  322MOL0     C43342   4.218  10.965   4.413  0.3541  0.2125  0.0539
  322MOL0     O43343   4.331  10.895   4.453  0.1109 -0.5821  0.7755
  322MOL0     C43344   4.450  10.928   4.384  0.0515 -0.0989 -0.5479
  322MOL0     C43345   4.560  10.820   4.414  0.4281 -0.1344  0.9787
  322MOL0     C43346   4.609  10.820   4.556 -0.0826 -0.1695 -0.1506
  322MOL0     C43347   4.690  10.700   4.586 -0.5726 -0.1332  0.0184
  322MOL0     C43348   4.831  10.706   4.533 -0.8277 -0.4432  0.0888
  322MOL0     C43349   4.930  10.597   4.582 -0.2903 -0.3282 -0.3946
  322MOL0     C43350   5.072  10.627   4.532  0.9202  1.0707 -0.6181
  322MOL0     C43351   5.173  10.518   4.563  0.1547  0.4281 -0.3385
  322MOL0     N43352   5.205  10.527   4.700 -0.0671  0.2308 -0.2560
  322MOL0     C43353   5.307  10.598   4.766  0.4091 -0.6682  0.6891
  322MOL0     C43354   5.303  10.561   4.893  0.4052  0.4730  0.4474
  322MOL0     C43355   5.396  10.610   4.997  0.2562 -0.1246  0.7397
  322MOL0     C43356   5.542  10.599   4.971 -0.2495  0.1732 -0.7840
  322MOL0     C43357   5.583  10.448   4.953 -0.5295  0.2406  0.0323
  322MOL0     C43358   5.732  10.432   4.919 -0.0914  0.2182  0.4284
  322MOL0     O43359   5.759  10.448   4.782 -0.3932  0.3387 -0.5550
  322MOL0     C43360   5.887  10.473   4.754 -0.7092 -0.1973 -0.6954
  322MOL0     C43361   5.907  10.566   4.649  0.0904  0.0885  0.0936
  322MOL0     C43362   6.027  10.616   4.621 -0.2383 -0.0901  0.1733
  322MOL0     C43363   6.137  10.580   4.695 -1.1549  0.4935 -0.4945
  322MOL0     C43364   6.267  10.662   4.666 -0.4098 -0.0626 -0.6910
  322MOL0     O43365   6.266  10.778   4.595  1.1700  0.0012 -0.4327
  322MOL0     C43366   6.373  10.857   4.564 -0.0086  0.4231 -0.0688
  322MOL0     C43367   6.349  10.996   4.576  0.4147  0.0525  0.0157
  322MOL0     C43368   6.457  11.081   4.566  0.6292 -0.4436 -0.6014
  322MOL0     C43369   6.594  11.037   4.539 -0.3882 -0.0636  0.4756
  322MOL0     O43370   6.708  11.118   4.519 -1.1282  0.0389 -0.1807
  322MOL0     C43371   6.704  11.233   4.609 -0.4215 -0.6258  0.6547
  322MOL0     C43372   6.843  11.280   4.645 -0.1073  1.0283 -0.8850
  322MOL0     C43373   6.931  11.176   4.724  0.9451  0.4028  0.2017
  322MOL0     C43374   7.071  11.222   4.732 -0.1473 -0.6584  0.4690
  322MOL0     C43375   7.157  11.125   4.808  0.0049 -0.2104  0.8857
  322MOL0     C43376   7.306  11.163   4.824  0.1796  0.6293 -0.5611
  322MOL0     C43377   7.357  11.069   4.940  0.1850  0.1931 -0.1244
  322MOL0     C43378   7.510  11.077   4.955  0.2030  0.1915  0.3223
  322MOL0    Cl43379   7.600  11.027   4.802  0.1241 -0.3648 -0.0379
  322MOL0     C43380   6.609  10.902   4.516  0.1461  0.3621 -0.3883
  322MOL0     C43381   6.498  10.810   4.532 -0.4883 -0.3169  0.1991
  322MOL0     O43382   6.365  10.616   4.723 -0.3129 -0.1801  0.1426
  322MOL0     C43383   6.123  10.476   4.793 -0.0675 -0.6210 -0.4715
  322MOL0     C43384   6.001  10.427   4.826  0.5318  0.0465  0.0158
  322MOL0     N43385   5.203  10.462   4.904 -0.6258  0.3227  0.4983
  322MOL0     N43386   5.145  10.447   4.792 -0.3132 -0.3813 -0.1456
  322MOL0     C43387   4.106  10.886   4.449 -0.5807 -0.0200  0.3515
  322MOL0     C43388   3.974  10.921   4.400  1.0627  0.7596 -0.2519
  322MOL0     C43389   3.608  11.000   4.161 -0.4277 -0.5693 -0.3997
  322MOL0     C43390   3.568  11.134   4.181  1.0193  0.4724  0.6143
  322MOL0     C43391   3.436  11.167   4.154  0.3906 -0.0216 -0.3160
  322MOL0     C43392   3.340  11.081   4.105  0.3094 -0.3643  0.0722
  322MOL0     O43393   3.225  11.138   4.065  0.3443 -0.0642  0.6885
  322MOL0     C43394   3.107  11.056   4.032 -0.4022 -0.1694 -0.5954
  322MOL0     C43395   3.050  10.987   4.154  0.1826 -0.7894 -0.4402
  322MOL0     C43396   2.939  10.892   4.103 -0.1750 -0.9951 -0.3801
  322MOL0     C43397   2.978  10.779   4.014 -0.5113  0.1232 -0.0874
  322MOL0     C43398   3.051  10.674   4.088  0.7815 -0.1629 -0.4272
  322MOL0     C43399   3.125  10.605   4.156 -0.1393  0.7894 -0.0900
  322MOL0     C43400   3.377  10.948   4.088 -0.1645 -0.2403 -0.2036
  322MOL0     C43401   3.510  10.903   4.115  0.4911  0.5822 -0.3649
  322MOL0     C43402   3.546  10.757   4.093  0.5867  0.3145 -0.1931
  322MOL0     H43403   4.037  11.201   4.241 -0.1132  2.7812  4.1308
  322MOL0     H43404   4.267  11.150   4.314 -0.9323 -0.0022 -0.8301
  322MOL0     H43405   4.432  10.916   4.277 -3.0325 -4.9629  0.2197
  322MOL0     H43406   4.490  11.023   4.420 -0.5682 -0.6601  1.7926
  322MOL0     H43407   4.645  10.846   4.349 -0.5377 -1.5796 -0.9714
  322MOL0     H43408   4.524  10.726   4.371 -2.8019  1.8689 -1.1358
  322MOL0     H43409   4.520  10.827   4.620 -0.2670  3.2594 -0.6217
  322MOL0     H43410   4.677  10.902   4.577  0.5618 -0.8336  0.4147
  322MOL0     H43411   4.687  10.693   4.695  0.3749 -1.3768 -0.0059
  322MOL0     H43412   4.653  10.603   4.551  6.7465 -3.9895  0.9597
  322MOL0     H43413   4.834  10.728   4.426  2.2994  2.9557  0.6736
  322MOL0     H43414   4.868  10.801   4.573  1.6649 -0.4263 -2.0039
  322MOL0     H43415   4.928  10.598   4.692 -1.5280  2.7539 -0.3436
  322MOL0     H43416   4.894  10.496   4.562 -2.4823  0.6052 -1.4294
  322MOL0     H43417   5.103  10.726   4.565 -2.6335  1.8183  1.0112
  322MOL0     H43418   5.073  10.630   4.423  0.1130 -0.5477 -0.7034
  322MOL0     H43419   5.132  10.421   4.531  0.5343 -0.0556  0.6087
  322MOL0     H43420   5.266  10.539   4.509  1.5582  0.9754  2.1650
  322MOL0     H43421   5.372  10.674   4.725  1.3389 -1.1706  1.1762
  322MOL0     H43422   5.377  10.714   5.025 -0.5883 -0.6205  2.1249
  322MOL0     H43423   5.360  10.546   5.077 -0.7113  0.9107  1.1739
  322MOL0     H43424   5.558  10.644   4.872 -0.4218 -1.0161 -1.3614
  322MOL0     H43425   5.602  10.656   5.043 -0.0623  2.3957 -2.5736
  322MOL0     H43426   5.523  10.407   4.872  2.1362 -0.7128 -1.5949
  322MOL0     H43427   5.557  10.398   5.047  2.3823 -0.8444  0.3855
  322MOL0     H43428   5.782  10.347   4.966 -0.2648  1.1209  2.3114
  322MOL0     H43429   5.782  10.521   4.960  0.9982 -0.9210  1.6659
  322MOL0     H43430   5.821  10.598   4.591 -0.3925 -2.1907 -0.5477
  322MOL0     H43431   6.036  10.697   4.549  1.4447 -1.0132 -0.7112
  322MOL0     H43432   6.246  11.025   4.596  0.6386 -0.3679  1.9518
  322MOL0     H43433   6.438  11.186   4.583 -0.5280 -1.0680  2.4633
  322MOL0     H43434   6.655  11.322   4.568  1.9687  0.0363 -1.0036
  322MOL0     H43435   6.663  11.205   4.706  0.9737 -0.7970  1.2177
  322MOL0     H43436   6.905  11.308   4.560 -2.1919  2.1430 -2.1495
  322MOL0     H43437   6.830  11.369   4.707 -0.5757  1.1813 -1.1918
  322MOL0     H43438   6.870  11.161   4.813 -0.4531  1.0299 -0.6266
  322MOL0     H43439   6.925  11.081   4.670 -4.5216  0.9188 -0.6746
  322MOL0     H43440   7.080  11.323   4.776 -1.1622  1.3858 -3.5658
  322MOL0     H43441   7.110  11.229   4.630  2.1525 -0.9965  1.2536
  322MOL0     H43442   7.156  11.026   4.763  1.7730 -0.8963  2.2578
  322MOL0     H43443   7.117  11.111   4.909  1.4569  1.6082  1.7835
  322MOL0     H43444   7.367  11.138   4.736 -0.3870 -2.1456 -0.2598
  322MOL0     H43445   7.309  11.267   4.859 -0.8911  1.4023 -2.5953
  322MOL0     H43446   7.331  10.962   4.935  1.2407 -0.1324  0.8773
  322MOL0     H43447   7.312  11.113   5.030  0.8507  0.5816  0.0227
  322MOL0     H43448   7.536  11.182   4.975 -0.3868  0.8533 -2.0890
  322MOL0     H43449   7.548  11.025   5.043  0.3238 -1.2639 -0.5631
  322MOL0     H43450   6.711  10.866   4.501  0.0646 -0.5240  0.9231
  322MOL0     H43451   6.522  10.705   4.520 -0.8624 -0.2327 -1.4574
  322MOL0     H43452   6.213  10.443   4.844  0.7862  1.6738 -0.3642
  322MOL0     H43453   5.993  10.348   4.899  3.2482 -1.6543 -1.3658
  322MOL0     H43454   4.120  10.795   4.507  1.3492  0.0613  0.0610
  322MOL0     H43455   3.897  10.852   4.434  1.5096  0.0873 -0.5810
  322MOL0     H43456   3.640  11.210   4.208  0.0879  1.3555  0.6510
  322MOL0     H43457   3.398  11.267   4.170  0.7634  0.2818 -1.2212
  322MOL0     H43458   3.148  10.988   3.956  1.1033  0.0307  0.0065
  322MOL0     H43459   3.034  11.122   3.984 -0.2341  0.8749  0.5302
  322MOL0     H43460   3.018  11.059   4.230 -0.9316  0.1175 -1.7133
  322MOL0     H43461   3.132  10.937   4.206  0.9120  2.2812  1.6188
  322MOL0     H43462   2.872  10.963   4.054  2.0537  0.2084 -1.8617
  322MOL0     H43463   2.882  10.853   4.188  1.3980 -2.0298  0.2559
  322MOL0     H43464   2.882  10.737   3.983 -0.7829  1.8029 -1.7165
  322MOL0     H43465   3.037  10.820   3.931  0.2018 -0.1839  0.2562
  322MOL0     H43466   3.187  10.559   4.230 -1.0062  0.5128  0.4757
  322MOL0     H43467   3.298  10.876   4.070 -0.0280 -0.3764 -0.2584
  322MOL0     H43468   3.607  10.736   4.005  0.8129 -2.3669  0.5357
  322MOL0     H43469   3.590  10.716   4.184 -1.6314 -3.1146 -0.4482
  322MOL0     H43470   3.456  10.695   4.081  1.6017 -1.1508 -0.5228
  323MOL0     O43471  10.318   2.262   9.363 -0.7512 -0.2295  0.5556
  323MOL0     C43472  10.277   2.368   9.327  0.5779 -0.4771  0.1620
  323MOL0     O43473  10.347   2.449   9.241  0.4435 -0.5633 -0.0832
  323MOL0     C43474  10.475   2.417   9.207  0.1253  0.7467 -0.8501
  323MOL0     C43475  10.483   2.350   9.091 -0.3932  0.9002  0.7937
  323MOL0     C43476  10.610   2.323   9.030  0.8567  0.3105 -0.5923
  323MOL0     C43477  10.731   2.353   9.097  0.7900 -0.9200  0.2738
  323MOL0     O43478  10.853   2.331   9.045  0.6039 -0.1209  0.4687
  323MOL0     C43479  10.872   2.246   8.939  0.6400 -0.0219  0.1403
  323MOL0     C43480  11.011   2.254   8.893 -0.0452  0.0797  0.2176
  323MOL0     C43481  11.123   2.210   8.991  0.5660  0.2336  0.0061
  323MOL0     C43482  11.259   2.257   8.939  0.6682 -0.6120 -0.3143
  323MOL0     C43483  11.367   2.229   9.046  0.2102 -0.2734 -0.5291
  323MOL0     C43484  11.505   2.257   8.997 -0.2496  0.4412 -0.0915
  323MOL0     C43485  11.591   2.281   9.114  0.5010  0.6696  0.1655
  323MOL0     C43486  11.732   2.302   9.075  0.0728  0.5728 -0.0541
  323MOL0     N43487  11.792   2.179   9.021 -0.0025 -1.0628 -0.1748
  323MOL0     C43488  11.891   2.100   9.075 -0.1107 -0.7054  0.1124
  323MOL0     C43489  11.944   2.018   8.974  0.2450 -0.5921  0.5998
  323MOL0     C43490  12.049   1.918   9.002 -0.6556 -0.2736 -1.0471
  323MOL0     C43491  12.190   1.966   8.990 -0.0573  0.0766 -0.3002
  323MOL0     C43492  12.220   2.019   8.844 -1.1714 -0.4159  0.4239
  323MOL0     C43493  12.365   2.039   8.812 -0.3544  0.1795 -0.7683
  323MOL0     O43494  12.411   2.138   8.900  0.0192 -0.9045 -0.6151
  323MOL0     C43495  12.538   2.174   8.879 -0.0174 -0.4586  0.1621
  323MOL0     C43496  12.581   2.272   8.968  0.0589 -0.5120  0.9431
  323MOL0     C43497  12.716   2.311   8.988 -0.0726  0.3288  0.1796
  323MOL0     C43498  12.802   2.262   8.899 -0.3130  0.5816  0.3452
  323MOL0     C43499  12.945   2.290   8.916  0.6468 -0.3305  0.7857
  323MOL0     O43500  13.022   2.264   8.797  0.1625  0.8178  0.3854
  323MOL0     C43501  13.138   2.333   8.785 -0.6411  0.2262 -0.2724
  323MOL0     C43502  13.246   2.283   8.844 -0.4874  0.0533  0.0055
  323MOL0     C43503  13.374   2.354   8.855 -0.2828  0.1224 -0.4178
  323MOL0     C43504  13.395   2.471   8.788  0.5633 -0.3153  0.6934
  323MOL0     O43505  13.520   2.524   8.793 -0.5168  0.1005 -0.4058
  323MOL0     C43506  13.537   2.646   8.718 -0.7572 -0.2526 -0.1676
  323MOL0     C43507  13.681   2.704   8.724  0.2761  1.2824  0.4044
  323MOL0     C43508  13.699   2.834   8.653 -0.9776  0.6365 -0.3086
  323MOL0     C43509  13.840   2.894   8.650  0.2729  0.0238  0.8977
  323MOL0     C43510  13.932   2.814   8.560 -0.7515 -0.1841 -0.8852
  323MOL0     C43511  14.082   2.866   8.575 -0.1898  1.7232 -0.0829
  323MOL0     C43512  14.164   2.795   8.463 -0.1588  0.2161  0.5394
  323MOL0     C43513  14.295   2.734   8.516 -0.6427  0.2076 -0.8869
  323MOL0    Cl43514  14.414   2.850   8.576  0.0749 -0.3842 -0.6710
  323MOL0     C43515  13.283   2.523   8.726 -0.2913  0.0384 -0.1149
  323MOL0     C43516  13.162   2.452   8.732  0.2140 -0.0988 -0.2111
  323MOL0     O43517  12.991   2.349   9.018  0.3707 -0.3799  0.8946
  323MOL0     C43518  12.760   2.173   8.794 -0.5518  0.2096  0.1872
  323MOL0     C43519  12.628   2.129   8.783 -0.1447  0.0217 -0.4372
  323MOL0     N43520  11.881   2.047   8.856 -0.6218  0.1317  0.0967
  323MOL0     N43521  11.791   2.132   8.891  0.0874  0.1550 -0.2656
  323MOL0     C43522  10.721   2.430   9.209  0.2244  0.0761 -0.8409
  323MOL0     C43523  10.596   2.466   9.266 -0.1626 -0.1691 -0.0654
  323MOL0     C43524  10.151   2.415   9.393 -0.1775  0.7582 -0.1025
  323MOL0     C43525  10.131   2.553   9.388  0.5335  0.2219  0.8890
  323MOL0     C43526  10.019   2.607   9.447  1.0912 -0.1318 -1.1357
  323MOL0     C43527   9.929   2.533   9.520  0.1926 -0.8743  1.0693
  323MOL0     O43528   9.819   2.595   9.575  0.3944  0.8219  0.3042
  323MOL0     C43529   9.702   2.568   9.498 -0.5856  0.5840  0.1510
  323MOL0     C43530   9.575   2.597   9.592  0.0348 -0.0755 -0.3136
  323MOL0     C43531   9.604   2.536   9.732  0.2373  0.3543  0.1199
  323MOL0     C43532   9.470   2.512   9.799 -0.1912 -0.8162  0.5329
  323MOL0     C43533   9.482   2.456   9.929 -0.6904 -0.4036  1.1230
  323MOL0     C43534   9.499   2.423  10.046 -0.5053 -0.2100 -0.7868
  323MOL0     C43535   9.950   2.396   9.535  0.5424  0.7271 -0.0750
  323MOL0     C43536  10.051   2.331   9.466 -1.5278 -0.7250  0.1624
  323MOL0     C43537  10.069   2.179   9.483 -0.6485 -0.7107  0.6027
  323MOL0     H43538  10.388   2.323   9.046  0.3950  1.7069 -1.4953
  323MOL0     H43539  10.595   2.283   8.930 -3.6944 -3.8443  1.3235
  323MOL0     H43540  10.853   2.146   8.980  1.1597  0.2389  1.0464
  323MOL0     H43541  10.803   2.266   8.856  0.4671 -0.8027  0.0879
  323MOL0     H43542  11.030   2.355   8.856 -3.0773  0.6713  0.0313
  323MOL0     H43543  11.014   2.181   8.811 -0.8734  1.5706 -1.1922
  323MOL0     H43544  11.120   2.101   8.995 -0.9429  0.2774  1.3942
  323MOL0     H43545  11.106   2.254   9.089  3.3879  0.8709  0.2873
  323MOL0     H43546  11.276   2.205   8.845  0.4846  0.8642 -1.1929
  323MOL0     H43547  11.254   2.365   8.923 -1.0828 -0.3550  1.5649
  323MOL0     H43548  11.344   2.295   9.130 -0.0111  0.3462 -1.0630
  323MOL0     H43549  11.355   2.127   9.083 -3.3262  0.0547 -0.3689
  323MOL0     H43550  11.547   2.167   8.952  0.1852  0.5203  0.1493
  323MOL0     H43551  11.498   2.338   8.924  2.8368  2.3422  1.5096
  323MOL0     H43552  11.587   2.198   9.185  1.5982 -0.0267 -0.5457
  323MOL0     H43553  11.564   2.364   9.181  2.4561  0.1105  1.7538
  323MOL0     H43554  11.731   2.379   8.997 -2.3983  0.5171 -0.1476
  323MOL0     H43555  11.794   2.340   9.156 -0.8651 -1.0411  1.4656
  323MOL0     H43556  11.931   2.119   9.175  1.4531  1.3661 -0.8246
  323MOL0     H43557  12.032   1.872   9.100  0.8849  1.0305 -0.1212
  323MOL0     H43558  12.039   1.838   8.929 -1.8491 -0.2317 -0.9526
  323MOL0     H43559  12.211   2.043   9.065 -1.4877  0.5634 -0.3761
  323MOL0     H43560  12.260   1.887   9.018  1.6710  1.9920  1.0872
  323MOL0     H43561  12.168   2.115   8.842 -0.9189 -0.2138  1.9110
  323MOL0     H43562  12.178   1.952   8.769  2.1757 -1.5756 -0.5778
  323MOL0     H43563  12.380   2.073   8.709  3.3135 -0.4516 -0.5952
  323MOL0     H43564  12.423   1.946   8.823 -0.5525 -0.5172 -4.3285
  323MOL0     H43565  12.508   2.307   9.041 -1.9881 -2.6722  0.0764
  323MOL0     H43566  12.735   2.382   9.068  1.1567  1.0272 -0.6914
  323MOL0     H43567  13.222   2.184   8.881 -2.8619  0.2120 -0.9896
  323MOL0     H43568  13.463   2.310   8.898  0.7076  0.4053 -2.0641
  323MOL0     H43569  13.502   2.639   8.614  0.4562  1.2120 -0.7124
  323MOL0     H43570  13.479   2.724   8.767 -1.8729 -1.0218 -0.2244
  323MOL0     H43571  13.704   2.711   8.831 -3.1900 -3.3166  1.8244
  323MOL0     H43572  13.751   2.625   8.693 -0.5781 -1.2348  4.1942
  323MOL0     H43573  13.668   2.814   8.550 -0.7984 -2.2627  0.0914
  323MOL0     H43574  13.615   2.889   8.696 -0.8028  0.8306 -0.2113
  323MOL0     H43575  13.885   2.891   8.749  0.0218  0.6110  1.0323
  323MOL0     H43576  13.833   2.997   8.613  4.4903 -0.1275 -0.9282
  323MOL0     H43577  13.899   2.827   8.457  0.7447 -1.7191 -1.6031
  323MOL0     H43578  13.936   2.709   8.589  0.9761  0.4191  1.3756
  323MOL0     H43579  14.089   2.974   8.558 -2.3866  1.6419 -2.1364
  323MOL0     H43580  14.120   2.844   8.675 -0.4106  1.1359 -0.1234
  323MOL0     H43581  14.172   2.863   8.377 -0.4582 -0.5422 -0.1029
  323MOL0     H43582  14.097   2.716   8.428 -1.3387  1.4148 -0.0194
  323MOL0     H43583  14.265   2.671   8.600 -0.0899  0.2099 -0.6841
  323MOL0     H43584  14.334   2.660   8.445 -2.0563 -0.8243 -0.6326
  323MOL0     H43585  13.290   2.602   8.652  0.8394 -0.6742 -0.7926
  323MOL0     H43586  13.076   2.499   8.687 -1.3445 -1.0277  1.6549
  323MOL0     H43587  12.832   2.129   8.725  1.1778 -1.9426  3.0940
  323MOL0     H43588  12.600   2.056   8.708 -0.1827 -2.9563  2.2575
  323MOL0     H43589  10.816   2.467   9.247  0.4709  1.0001 -2.2792
  323MOL0     H43590  10.586   2.540   9.346 -4.5735 -0.1973 -0.3078
  323MOL0     H43591  10.187   2.630   9.335 -0.1531  1.6575  2.1453
  323MOL0     H43592   9.987   2.710   9.435 -3.1135 -0.7306  2.1402
  323MOL0     H43593   9.718   2.470   9.453  1.4256  1.2121 -0.6255
  323MOL0     H43594   9.694   2.639   9.415 -1.4194 -0.4488 -0.6703
  323MOL0     H43595   9.488   2.553   9.544 -1.7965  1.9336  0.9947
  323MOL0     H43596   9.566   2.706   9.600  1.4340  0.2060 -1.9623
  323MOL0     H43597   9.665   2.608   9.787  2.6020  1.8348 -4.0415
  323MOL0     H43598   9.656   2.440   9.724 -0.0296  0.2376 -0.2461
  323MOL0     H43599   9.423   2.610   9.808 -1.2871 -1.3418  0.7383
  323MOL0     H43600   9.406   2.449   9.736  0.7543 -0.1977 -1.1008
  323MOL0     H43601   9.520   2.382  10.142  0.8837  1.6829 -0.2303
  323MOL0     H43602   9.878   2.344   9.597  2.8303 -2.7407 -0.0653
  323MOL0     H43603  10.139   2.170   9.567  0.3222  3.0610  0.3873
  323MOL0     H43604   9.974   2.129   9.503  0.3219 -2.4369  1.1159
  323MOL0     H43605  10.107   2.127   9.394 -2.5087  0.6403 -1.0707
  324MOL0     O43606  10.784   5.740   4.019  0.1248 -0.2669 -0.4194
  324MOL0     C43607  10.826   5.627   4.029 -0.3299 -0.0442 -0.3459
  324MOL0     O43608  10.752   5.513   3.997 -0.2841 -0.5441 -0.2578
  324MOL0     C43609  10.640   5.521   3.919  0.4553  0.0136  0.1641
  324MOL0     C43610  10.652   5.491   3.789 -0.0061 -0.2752 -0.3027
  324MOL0     C43611  10.535   5.501   3.705 -0.4770 -0.0830 -0.1183
  324MOL0     C43612  10.409   5.520   3.758  0.7887 -0.0620 -0.2258
  324MOL0     O43613  10.305   5.501   3.673  0.1650 -0.7050  1.0462
  324MOL0     C43614  10.212   5.617   3.668 -0.4192  0.3947  0.1203
  324MOL0     C43615  10.120   5.612   3.543 -0.1148  0.3796  0.1907
  324MOL0     C43616  10.046   5.480   3.516 -0.9382  0.0118  0.5820
  324MOL0     C43617   9.934   5.514   3.419  0.1869  0.4653  0.3587
  324MOL0     C43618   9.833   5.396   3.403  0.9427  0.1815 -0.6328
  324MOL0     C43619   9.728   5.411   3.519  0.5752  0.1139 -0.8026
  324MOL0     C43620   9.607   5.314   3.487  1.5308  0.0854 -0.0230
  324MOL0     C43621   9.507   5.357   3.373 -0.7053  0.2227 -0.4181
  324MOL0     N43622   9.416   5.466   3.416  0.1990  0.3432 -0.1450
  324MOL0     C43623   9.431   5.599   3.389 -0.2126 -1.4454  0.6653
  324MOL0     C43624   9.357   5.667   3.484 -0.5073  0.7273 -0.3404
  324MOL0     C43625   9.360   5.812   3.516  0.6322 -0.5677 -0.4308
  324MOL0     C43626   9.474   5.864   3.600 -0.2729 -0.5604 -0.1140
  324MOL0     C43627   9.580   5.920   3.501  0.4896  0.7284 -0.1015
  324MOL0     C43628   9.711   5.952   3.570  0.0125  0.9204 -0.4704
  324MOL0     O43629   9.770   5.823   3.593 -0.7097  0.6035 -0.3954
  324MOL0     C43630   9.845   5.811   3.706  0.6462  0.0421 -0.8983
  324MOL0     C43631   9.824   5.695   3.780  0.1600 -0.0596  0.8728
  324MOL0     C43632   9.878   5.682   3.909  0.5940 -0.3670 -0.3619
  324MOL0     C43633   9.978   5.776   3.952  0.2964  0.3381 -0.9246
  324MOL0     C43634  10.039   5.757   4.077  0.0932 -0.3029 -0.3698
  324MOL0     O43635   9.999   5.653   4.155  0.2087  0.1735  0.3419
  324MOL0     C43636  10.061   5.616   4.278  0.1464  0.3006 -0.2235
  324MOL0     C43637  10.185   5.654   4.316 -0.3560  0.5586  0.0774
  324MOL0     C43638  10.227   5.632   4.441  0.0960  1.1235  1.1139
  324MOL0     C43639  10.151   5.556   4.536 -0.0584 -0.4352  0.3696
  324MOL0     O43640  10.200   5.514   4.661 -0.1232 -0.2657 -0.4111
  324MOL0     C43641  10.337   5.518   4.686 -0.9531  0.0445  0.6277
  324MOL0     C43642  10.370   5.459   4.818 -0.1534 -0.4013  0.2291
  324MOL0     C43643  10.513   5.482   4.858  0.9075  0.2996 -0.2096
  324MOL0     C43644  10.518   5.428   4.997  0.1018  0.1305  0.9889
  324MOL0     C43645  10.659   5.453   5.061  1.3099 -0.6052  0.5146
  324MOL0     C43646  10.683   5.361   5.187 -0.4286 -0.5729 -0.0709
  324MOL0     C43647  10.815   5.390   5.247 -0.2429 -0.0165  0.2187
  324MOL0     C43648  10.921   5.322   5.166  0.4173 -0.7065 -0.2954
  324MOL0    Cl43649  11.060   5.366   5.260  0.0257 -0.0425  0.0421
  324MOL0     C43650  10.016   5.532   4.496 -0.2737 -0.3060  0.1779
  324MOL0     C43651   9.974   5.552   4.367 -0.0711 -0.7089  0.9793
  324MOL0     O43652  10.107   5.851   4.118  0.5766 -0.1541 -0.3264
  324MOL0     C43653   9.993   5.891   3.875 -0.2484 -0.8744 -0.3596
  324MOL0     C43654   9.930   5.907   3.752  0.3701 -0.5983 -0.1225
  324MOL0     N43655   9.294   5.571   3.558  0.2729 -0.0216  0.1027
  324MOL0     N43656   9.323   5.451   3.515 -0.5968 -0.5431  0.1526
  324MOL0     C43657  10.401   5.553   3.893 -0.8762  0.7176  0.0671
  324MOL0     C43658  10.518   5.560   3.970  0.0611 -0.1895 -1.0568
  324MOL0     C43659  10.948   5.607   4.116  0.2790  0.5579 -0.2269
  324MOL0     C43660  10.942   5.552   4.241  0.0668  0.3566 -0.1394
  324MOL0     C43661  11.051   5.550   4.328 -0.2537 -0.8997  0.4574
  324MOL0     C43662  11.174   5.603   4.282 -0.2164 -0.1623  0.7852
  324MOL0     O43663  11.293   5.605   4.347 -0.2793  0.4016 -0.9968
  324MOL0     C43664  11.326   5.510   4.455 -0.4246  0.1264 -0.2249
  324MOL0     C43665  11.382   5.383   4.388 -0.6114  0.0178  0.4712
  324MOL0     C43666  11.520   5.407   4.329  0.5830  0.0494  0.6744
  324MOL0     C43667  11.586   5.275   4.286  0.2905  0.3478 -0.1883
  324MOL0     C43668  11.720   5.325   4.243 -0.5951  0.4088  0.0769
  324MOL0     C43669  11.830   5.353   4.204  0.6748 -0.2814 -0.0005
  324MOL0     C43670  11.180   5.678   4.159  0.2888 -0.0391 -0.6341
  324MOL0     C43671  11.076   5.670   4.070  0.1506 -0.2076  0.1651
  324MOL0     C43672  11.098   5.715   3.935 -0.4149 -0.6839 -0.7220
  324MOL0     H43673  10.749   5.466   3.749 -1.1630 -0.1872 -3.4496
  324MOL0     H43674  10.549   5.474   3.601  0.2447  2.4437 -0.7614
  324MOL0     H43675  10.136   5.613   3.747 -1.8545 -1.5540 -1.2276
  324MOL0     H43676  10.272   5.707   3.676 -3.2369  2.2874  1.6068
  324MOL0     H43677  10.184   5.625   3.456 -0.1063 -0.2373  0.0987
  324MOL0     H43678  10.046   5.692   3.545 -1.6501 -0.8948 -1.7933
  324MOL0     H43679  10.003   5.442   3.609  2.0693 -0.0030  2.0658
  324MOL0     H43680  10.106   5.397   3.479 -0.7115 -0.4563  1.9639
  324MOL0     H43681   9.886   5.610   3.436 -0.5181  0.2345 -0.2409
  324MOL0     H43682   9.988   5.521   3.324  1.5774 -0.6593  1.0182
  324MOL0     H43683   9.789   5.404   3.304 -5.6495 -2.3956  1.5662
  324MOL0     H43684   9.881   5.299   3.424 -3.1612 -1.5134  2.2159
  324MOL0     H43685   9.785   5.386   3.609 -0.4089  0.2444 -0.1242
  324MOL0     H43686   9.713   5.518   3.533  1.3536  0.2392 -0.8718
  324MOL0     H43687   9.540   5.308   3.574  1.2529  3.3652  0.1217
  324MOL0     H43688   9.628   5.207   3.477  1.1985 -0.2216  2.0418
  324MOL0     H43689   9.554   5.374   3.276 -3.0408 -0.6746 -1.7905
  324MOL0     H43690   9.437   5.275   3.355  2.5485 -3.4058  1.7457
  324MOL0     H43691   9.499   5.639   3.315 -1.4763  0.7422  0.6118
  324MOL0     H43692   9.363   5.867   3.421  0.0236 -1.7259 -1.1429
  324MOL0     H43693   9.266   5.835   3.567  1.0153 -1.5614  0.7529
  324MOL0     H43694   9.438   5.948   3.661 -0.7530 -0.1063 -0.9911
  324MOL0     H43695   9.512   5.793   3.673 -0.2390  0.5668  0.9889
  324MOL0     H43696   9.539   6.017   3.471  0.0892  0.7190  0.3983
  324MOL0     H43697   9.597   5.846   3.422 -1.7384 -1.1658  1.0803
  324MOL0     H43698   9.691   6.008   3.662  1.9017  1.3439 -0.2743
  324MOL0     H43699   9.777   6.010   3.506  1.6932  1.7808  1.8724
  324MOL0     H43700   9.753   5.619   3.746 -2.7177  1.6247  2.6752
  324MOL0     H43701   9.851   5.588   3.956 -0.7286 -0.4516 -1.2530
  324MOL0     H43702  10.244   5.701   4.238 -3.4769 -1.0135 -3.5742
  324MOL0     H43703  10.328   5.652   4.476  0.7083  0.4686 -0.1776
  324MOL0     H43704  10.400   5.470   4.611  1.8152  2.0353  1.5039
  324MOL0     H43705  10.379   5.619   4.675  2.3633 -1.1725  1.2072
  324MOL0     H43706  10.308   5.524   4.882 -1.6402 -2.7353  1.2928
  324MOL0     H43707  10.347   5.352   4.821  1.0592 -0.7327 -1.1507
  324MOL0     H43708  10.585   5.434   4.791  1.5305  0.6038  0.2318
  324MOL0     H43709  10.523   5.591   4.855  0.6075  0.3074 -2.1243
  324MOL0     H43710  10.499   5.320   4.989  0.9142  0.0122  0.5158
  324MOL0     H43711  10.433   5.465   5.055 -3.0940 -1.9439 -1.9412
  324MOL0     H43712  10.666   5.558   5.088  1.4168 -0.6742  0.7618
  324MOL0     H43713  10.736   5.430   4.985  2.7041  0.2759  1.6113
  324MOL0     H43714  10.606   5.384   5.262  0.2791 -1.9308  1.1147
  324MOL0     H43715  10.665   5.254   5.172  0.2016 -1.2275  3.1285
  324MOL0     H43716  10.807   5.362   5.352 -3.5701  2.2582  0.7294
  324MOL0     H43717  10.837   5.497   5.243 -0.5997  0.0683 -4.0871
  324MOL0     H43718  10.908   5.214   5.152 -0.0944 -0.5196 -1.3610
  324MOL0     H43719  10.941   5.369   5.069 -1.1782  2.5235  0.8142
  324MOL0     H43720   9.944   5.475   4.553 -4.1289  1.4108 -2.4689
  324MOL0     H43721   9.881   5.522   4.320  1.1188  0.6168 -2.5766
  324MOL0     H43722  10.050   5.975   3.912  0.1785 -2.6941  3.5448
  324MOL0     H43723   9.939   5.996   3.690 -1.7807 -0.1088  0.2052
  324MOL0     H43724  10.302   5.545   3.937 -0.1921  0.1171  1.5544
  324MOL0     H43725  10.516   5.569   4.078 -0.5657  0.6286 -1.1265
  324MOL0     H43726  10.849   5.511   4.277  0.6918  0.2887  1.4558
  324MOL0     H43727  11.043   5.524   4.433  0.3160 -1.5663  0.3392
  324MOL0     H43728  11.239   5.482   4.515  0.3425  0.3109  1.0350
  324MOL0     H43729  11.400   5.558   4.520 -2.0261  3.8716 -0.9165
  324MOL0     H43730  11.310   5.336   4.320 -1.1228 -3.8329  3.3459
  324MOL0     H43731  11.391   5.314   4.473 -0.6207 -0.2615  0.2444
  324MOL0     H43732  11.576   5.462   4.406  2.1082  2.6779 -2.0825
  324MOL0     H43733  11.516   5.467   4.238 -1.4962 -0.3244  0.4644
  324MOL0     H43734  11.604   5.200   4.364 -1.7402  0.8900  0.8565
  324MOL0     H43735  11.527   5.235   4.203 -0.5388  1.8212 -0.3440
  324MOL0     H43736  11.935   5.354   4.179  1.0636 -2.1520  1.2614
  324MOL0     H43737  11.274   5.726   4.134 -0.5716  1.7526 -0.5930
  324MOL0     H43738  11.021   5.677   3.868 -1.1728  0.5680 -0.5941
  324MOL0     H43739  11.101   5.825   3.934  3.0689 -0.6539 -0.8882
  324MOL0     H43740  11.194   5.682   3.894  0.4570  3.4715 -2.6354
  325MOL0     O43741   8.269   3.543   9.460  1.1466  0.0432  0.6222
  325MOL0     C43742   8.244   3.599   9.566 -0.0291 -0.0479 -0.1531
  325MOL0     O43743   8.331   3.684   9.628 -0.1926  0.4381 -0.2846
  325MOL0     C43744   8.463   3.682   9.585  0.7244  0.5333  0.5672
  325MOL0     C43745   8.495   3.729   9.455 -0.7368  0.2989 -0.2359
  325MOL0     C43746   8.631   3.742   9.422  0.1964 -1.3064  0.4794
  325MOL0     C43747   8.732   3.703   9.506  0.5903  1.0187  0.4619
  325MOL0     O43748   8.861   3.708   9.489 -0.5744 -0.6721 -0.5479
  325MOL0     C43749   8.909   3.803   9.400  0.9740 -0.3860  0.2219
  325MOL0     C43750   9.059   3.815   9.402  0.3400 -0.3018 -0.1479
  325MOL0     C43751   9.149   3.709   9.335 -0.6266 -0.1403  0.5370
  325MOL0     C43752   9.294   3.721   9.388 -0.1247  0.8720 -1.0375
  325MOL0     C43753   9.406   3.734   9.288  0.7112 -0.2193 -0.3622
  325MOL0     C43754   9.527   3.796   9.353 -0.0497  0.7227  0.3296
  325MOL0     C43755   9.644   3.806   9.254  0.5363  1.5498  0.2997
  325MOL0     C43756   9.752   3.905   9.310  0.1070 -0.0749  0.2748
  325MOL0     N43757   9.873   3.897   9.232 -0.0816  0.6183  0.7966
  325MOL0     C43758   9.981   3.816   9.260  0.5927  0.4347  0.8063
  325MOL0     C43759  10.076   3.860   9.176 -0.4566  0.1571  0.6373
  325MOL0     C43760  10.216   3.792   9.159 -1.1788  0.7456 -0.3454
  325MOL0     C43761  10.262   3.787   9.014 -0.5920 -0.8392 -0.4711
  325MOL0     C43762  10.396   3.703   9.023  0.6399  0.1891  0.2253
  325MOL0     C43763  10.465   3.696   8.890 -0.1669  0.3315 -0.3067
  325MOL0     O43764  10.561   3.798   8.888  0.6141 -0.4964 -0.3188
  325MOL0     C43765  10.692   3.750   8.902  0.4463 -1.0018  0.0930
  325MOL0     C43766  10.766   3.818   8.999 -0.0860 -0.2801  0.5808
  325MOL0     C43767  10.905   3.791   9.007 -0.4566  0.6038  0.9701
  325MOL0     C43768  10.972   3.697   8.921  0.2323 -0.1320 -0.7337
  325MOL0     C43769  11.112   3.653   8.936  0.1832  0.2405 -0.2813
  325MOL0     O43770  11.200   3.723   9.013  1.0399  0.0105 -0.0075
  325MOL0     C43771  11.332   3.702   8.988  0.4199 -0.7066 -0.7807
  325MOL0     C43772  11.416   3.717   9.106 -0.5186  0.0768  0.0110
  325MOL0     C43773  11.553   3.685   9.100 -0.0863  0.4583  0.0157
  325MOL0     C43774  11.622   3.662   8.976 -0.4516  0.5218  0.4074
  325MOL0     O43775  11.759   3.631   8.979  0.0670 -0.3581  1.0780
  325MOL0     C43776  11.816   3.551   8.874  0.4745  0.1721 -1.1743
  325MOL0     C43777  11.954   3.490   8.898  0.5023  0.7036  0.7995
  325MOL0     C43778  12.056   3.599   8.940  0.6262  0.2283 -0.0076
  325MOL0     C43779  12.201   3.550   8.959  0.0767 -0.5275 -0.0203
  325MOL0     C43780  12.277   3.660   9.044  0.1257  0.3947  0.5566
  325MOL0     C43781  12.410   3.597   9.090  0.0205 -0.7550 -0.8663
  325MOL0     C43782  12.497   3.704   9.174 -0.1965  0.2536  0.2647
  325MOL0     C43783  12.615   3.623   9.233 -1.1335  0.4617  0.5761
  325MOL0    Cl43784  12.560   3.528   9.366 -0.2320  0.1010  0.1468
  325MOL0     C43785  11.542   3.664   8.861  0.6295  0.7466  0.0506
  325MOL0     C43786  11.399   3.682   8.863 -0.4163  0.6551 -0.1105
  325MOL0     O43787  11.137   3.538   8.887  0.4056 -0.7433 -0.1942
  325MOL0     C43788  10.891   3.643   8.818  0.0064  0.3878 -0.0599
  325MOL0     C43789  10.757   3.663   8.821  0.5179  0.9296  0.6772
  325MOL0     N43790  10.039   3.979   9.120  0.0594  0.1007 -0.0450
  325MOL0     N43791   9.920   3.996   9.156 -0.6776 -0.5017  0.6792
  325MOL0     C43792   8.704   3.659   9.630  0.1022 -0.3117  0.1891
  325MOL0     C43793   8.571   3.645   9.669 -0.2033  0.0066  0.2313
  325MOL0     C43794   8.107   3.604   9.616 -0.0956  0.0777  0.1833
  325MOL0     C43795   8.070   3.710   9.706 -0.4968  0.9669 -0.1898
  325MOL0     C43796   7.945   3.710   9.774 -0.1875  0.5339 -0.4192
  325MOL0     C43797   7.850   3.618   9.745 -0.1678  0.4196 -0.7125
  325MOL0     O43798   7.729   3.636   9.816 -0.5828  0.1122 -0.4534
  325MOL0     C43799   7.642   3.527   9.813 -0.2431 -0.0652  0.8333
  325MOL0     C43800   7.503   3.560   9.884 -0.7799  0.4917 -0.1850
  325MOL0     C43801   7.460   3.708   9.871  0.1475  0.4434 -0.4126
  325MOL0     C43802   7.375   3.749   9.992  0.3467 -0.0022 -0.5363
  325MOL0     C43803   7.241   3.690   9.988 -0.2327  0.8684  0.5077
  325MOL0     C43804   7.127   3.635   9.978 -1.1415 -0.2992 -0.4953
  325MOL0     C43805   7.874   3.519   9.648  0.5647 -0.7394  0.2158
  325MOL0     C43806   7.999   3.513   9.581  0.3874  0.1903  0.1385
  325MOL0     C43807   8.021   3.398   9.492  0.3292 -0.0766 -0.2011
  325MOL0     H43808   8.423   3.775   9.389  1.0435  1.2659 -1.5937
  325MOL0     H43809   8.650   3.779   9.321  0.6175  0.1242  1.0545
  325MOL0     H43810   8.878   3.788   9.296 -0.6687  2.8738  0.1127
  325MOL0     H43811   8.863   3.898   9.426 -0.1381 -0.5510 -1.0508
  325MOL0     H43812   9.100   3.838   9.501  2.1167 -1.6623 -0.5093
  325MOL0     H43813   9.088   3.910   9.357  1.2553 -0.1085  0.7944
  325MOL0     H43814   9.156   3.728   9.227  3.7020 -0.3229  0.6278
  325MOL0     H43815   9.106   3.609   9.345  1.1229 -0.9199  0.6059
  325MOL0     H43816   9.308   3.803   9.459  3.6810 -1.9074  1.8446
  325MOL0     H43817   9.309   3.641   9.462  0.1556  1.5095 -0.3954
  325MOL0     H43818   9.423   3.642   9.233 -1.6431  0.1918 -1.9094
  325MOL0     H43819   9.386   3.812   9.214  0.7202 -1.6560 -1.9341
  325MOL0     H43820   9.500   3.900   9.372  3.1007  1.7301 -0.0781
  325MOL0     H43821   9.549   3.741   9.444 -2.1743 -0.9405 -0.1036
  325MOL0     H43822   9.606   3.834   9.155 -2.1963  0.4076  0.9474
  325MOL0     H43823   9.689   3.708   9.238 -2.1642  0.7520 -4.0592
  325MOL0     H43824   9.712   4.006   9.303 -2.0414 -0.9027 -0.3816
  325MOL0     H43825   9.768   3.884   9.416  0.6848  0.5573  0.3130
  325MOL0     H43826   9.987   3.731   9.326 -0.1569  0.8561  1.4255
  325MOL0     H43827  10.281   3.866   9.205 -2.5773  1.4473  0.5438
  325MOL0     H43828  10.224   3.696   9.212 -2.1367  0.7974 -0.0862
  325MOL0     H43829  10.194   3.737   8.945 -1.2846  0.0935 -0.4721
  325MOL0     H43830  10.291   3.888   8.986  0.2567 -1.5203 -2.1934
  325MOL0     H43831  10.371   3.600   9.051 -0.0285  0.7984  2.0708
  325MOL0     H43832  10.464   3.746   9.097 -0.4098  0.7894  0.8748
  325MOL0     H43833  10.384   3.708   8.817  1.4044 -0.0683 -2.1849
  325MOL0     H43834  10.510   3.598   8.872  1.3342  0.6365  1.4826
  325MOL0     H43835  10.722   3.903   9.050  0.1378  2.0201 -2.7226
  325MOL0     H43836  10.967   3.840   9.082 -0.3984 -0.2205  1.4768
  325MOL0     H43837  11.373   3.728   9.205 -1.5080  3.6327 -0.6990
  325MOL0     H43838  11.629   3.671   9.176  2.5850 -2.0354 -2.8325
  325MOL0     H43839  11.743   3.474   8.847 -1.0437  0.9632  0.4752
  325MOL0     H43840  11.822   3.618   8.787 -1.6679  1.2294 -0.5665
  325MOL0     H43841  11.953   3.403   8.964 -0.2094 -0.4168 -0.6433
  325MOL0     H43842  11.986   3.446   8.804  2.0217  0.8925  1.2145
  325MOL0     H43843  12.044   3.685   8.874 -3.0681 -0.5765 -0.6061
  325MOL0     H43844  12.030   3.633   9.041  4.1971 -1.0556  1.5170
  325MOL0     H43845  12.247   3.538   8.860  1.1294  0.6548  0.3156
  325MOL0     H43846  12.212   3.461   9.022 -0.7532  0.8382  2.1437
  325MOL0     H43847  12.212   3.694   9.125 -3.0098 -0.5815 -1.3955
  325MOL0     H43848  12.288   3.751   8.985 -2.3294 -0.0776 -0.7643
  325MOL0     H43849  12.377   3.514   9.153 -1.3348  0.6472  0.3629
  325MOL0     H43850  12.467   3.560   9.005 -0.8779  0.5212 -2.0697
  325MOL0     H43851  12.434   3.742   9.256 -1.4099 -0.2878 -0.3924
  325MOL0     H43852  12.539   3.786   9.116  3.9065 -0.8989  1.2732
  325MOL0     H43853  12.671   3.562   9.161  4.1932  1.2097  3.5696
  325MOL0     H43854  12.696   3.695   9.248 -0.9781  0.5982 -0.7352
  325MOL0     H43855  11.586   3.636   8.765  0.0134 -2.9466  0.7026
  325MOL0     H43856  11.344   3.685   8.770 -0.4413 -1.3555 -0.2064
  325MOL0     H43857  10.927   3.578   8.739  0.8566  0.2759  0.4132
  325MOL0     H43858  10.692   3.614   8.749 -1.2211  0.4539  2.4843
  325MOL0     H43859   8.781   3.628   9.699 -1.4210 -1.7469  1.3193
  325MOL0     H43860   8.554   3.611   9.771  0.1477  1.3816  0.7615
  325MOL0     H43861   8.140   3.784   9.743  0.1462 -0.1300  0.8680
  325MOL0     H43862   7.926   3.791   9.844  1.9412  1.0664 -0.3969
  325MOL0     H43863   7.681   3.427   9.833  1.5480  0.3505 -0.3285
  325MOL0     H43864   7.614   3.524   9.707  2.8083  2.7751 -0.2069
  325MOL0     H43865   7.514   3.531   9.989  0.2773 -0.3125 -0.5055
  325MOL0     H43866   7.429   3.491   9.842 -0.0835  0.2710 -1.0723
  325MOL0     H43867   7.403   3.728   9.780  0.8120  0.4074 -0.8416
  325MOL0     H43868   7.542   3.780   9.868 -1.2957  2.1573 -0.6258
  325MOL0     H43869   7.415   3.712  10.087 -0.1150  0.9168  0.0299
  325MOL0     H43870   7.362   3.858   9.992 -1.4736 -0.1883 -2.0017
  325MOL0     H43871   7.029   3.598   9.957 -1.5856  1.5481 -1.9084
  325MOL0     H43872   7.807   3.434   9.638 -0.3472 -0.8463  4.9653
  325MOL0     H43873   8.079   3.328   9.553  0.0532  1.8114  2.4413
  325MOL0     H43874   7.925   3.357   9.459  1.0149 -0.8926 -1.2257
  325MOL0     H43875   8.069   3.432   9.400  1.6089 -1.2450  0.0078
  326MOL0     O43876   6.800  10.477   0.057  0.4076  0.7393  0.4384
  326MOL0     C43877   6.859  10.566   0.112  0.4049 -0.3997  0.1470
  326MOL0     O43878   6.950  10.555   0.216 -0.3447 -0.4452  0.5104
  326MOL0     C43879   7.010  10.429   0.238 -0.2550  0.7241  0.4844
  326MOL0     C43880   7.075  10.352   0.138  0.3894 -0.4070  0.3297
  326MOL0     C43881   7.110  10.220   0.163 -0.4809 -1.1062 -0.1094
  326MOL0     C43882   7.094  10.176   0.301 -0.0794  0.2394  0.1063
  326MOL0     O43883   7.142  10.050   0.325 -0.3356  0.9473 -0.3171
  326MOL0     C43884   7.262  10.040   0.394 -0.2452 -0.3661 -0.0943
  326MOL0     C43885   7.371  10.090   0.298 -0.3240 -0.0147 -0.3504
  326MOL0     C43886   7.513  10.053   0.332 -0.0575  0.7301 -0.1261
  326MOL0     C43887   7.535   9.903   0.351 -0.7545  0.7041 -0.6607
  326MOL0     C43888   7.676   9.869   0.347 -1.1914 -0.1095 -0.1534
  326MOL0     C43889   7.728   9.856   0.204 -0.3802  0.5099 -0.6560
  326MOL0     C43890   7.864   9.791   0.190 -0.4410  0.3889 -0.1207
  326MOL0     C43891   7.980   9.876   0.252  0.5050  0.3145 -0.5388
  326MOL0     N43892   7.962  10.019   0.205  0.2024  0.0308 -0.1225
  326MOL0     C43893   7.940  10.056   0.071  0.2815  0.0706  0.0768
  326MOL0     C43894   7.893  10.182   0.082  0.2129 -0.0053 -0.2316
  326MOL0     C43895   7.856  10.252  -0.040  0.0283  0.2859  0.1499
  326MOL0     C43896   7.966  10.347  -0.098  0.1707  0.4568 -0.0951
  326MOL0     C43897   8.101  10.304  -0.119 -0.7708 -0.1963 -0.0619
  326MOL0     C43898   8.193  10.427  -0.145 -0.3543  0.5317  0.2371
  326MOL0     O43899   8.328  10.384  -0.158  0.3030 -0.5270  0.6555
  326MOL0     C43900   8.434  10.480  -0.162 -0.1623  0.1810  0.3049
  326MOL0     C43901   8.560  10.431  -0.198 -1.0006 -0.3177  0.4652
  326MOL0     C43902   8.679  10.511  -0.206  0.1495 -0.1889  0.3026
  326MOL0     C43903   8.666  10.648  -0.174  0.0925  0.6330  0.2531
  326MOL0     C43904   8.775  10.741  -0.196  0.5776  0.1915 -0.5740
  326MOL0     O43905   8.904  10.689  -0.192 -0.8902  0.0665  0.1390
  326MOL0     C43906   9.002  10.741  -0.277  0.2450 -0.0863 -0.7021
  326MOL0     C43907   9.035  10.653  -0.369  0.1019 -0.2728  0.2464
  326MOL0     C43908   9.139  10.683  -0.456 -0.2122  0.0186 -0.1328
  326MOL0     C43909   9.196  10.811  -0.453 -0.9206  0.2278 -0.0407
  326MOL0     O43910   9.292  10.829  -0.550  0.2563 -0.3087  0.3779
  326MOL0     C43911   9.365  10.950  -0.552 -0.2861  0.6201  0.5448
  326MOL0     C43912   9.481  10.937  -0.647  0.2316 -0.3782 -0.1199
  326MOL0     C43913   9.424  10.968  -0.796  0.4920  0.4312  0.1704
  326MOL0     C43914   9.529  10.966  -0.901 -0.1332  0.3315  0.1573
  326MOL0     C43915   9.466  11.002  -1.039  0.6905  0.5263  0.7338
  326MOL0     C43916   9.571  11.001  -1.154 -0.6129  0.2993  0.1462
  326MOL0     C43917   9.625  10.864  -1.182 -0.0935  0.1925 -0.5380
  326MOL0     C43918   9.709  10.843  -1.308  0.5792 -0.3687 -0.5658
  326MOL0    Cl43919   9.837  10.968  -1.325 -0.2782 -0.0916 -0.1901
  326MOL0     C43920   9.159  10.903  -0.353  0.0383  0.0101 -0.5938
  326MOL0     C43921   9.058  10.868  -0.267  0.1894  1.5068 -1.4613
  326MOL0     O43922   8.746  10.854  -0.218 -0.3813  0.4276  0.4288
  326MOL0     C43923   8.539  10.697  -0.131  0.2188 -0.9668 -0.3248
  326MOL0     C43924   8.423  10.620  -0.130 -0.1845 -0.2222  0.1890
  326MOL0     N43925   7.896  10.216   0.217  0.2289 -0.7975 -0.1110
  326MOL0     N43926   7.937  10.119   0.292 -0.3014 -0.3192 -0.8064
  326MOL0     C43927   7.037  10.249   0.404 -0.3479  0.1794  0.2818
  326MOL0     C43928   7.004  10.376   0.370  0.1655 -0.7677 -0.1304
  326MOL0     C43929   6.811  10.708   0.084 -0.3099 -0.1369  0.3540
  326MOL0     C43930   6.805  10.787   0.198  0.0055 -0.1995  1.0585
  326MOL0     C43931   6.755  10.915   0.188  0.2196 -0.0906 -0.5913
  326MOL0     C43932   6.733  10.974   0.063  0.9454 -0.1809  0.5383
  326MOL0     O43933   6.702  11.101   0.063  0.3109 -0.0848  0.1789
  326MOL0     C43934   6.589  11.134  -0.019 -1.2646  0.8908  0.7806
  326MOL0     C43935   6.532  11.270  -0.001  0.0910  0.2496  0.4317
  326MOL0     C43936   6.440  11.267   0.125 -0.4805  0.8478  0.4630
  326MOL0     C43937   6.514  11.302   0.253  1.2843 -0.1329 -0.1055
  326MOL0     C43938   6.426  11.273   0.370  1.5659 -0.0700 -0.1992
  326MOL0     C43939   6.339  11.244   0.454 -0.3339  0.0076 -0.2127
  326MOL0     C43940   6.755  10.900  -0.057  0.3687  0.4065 -0.0623
  326MOL0     C43941   6.793  10.762  -0.042 -0.3055  0.4074 -0.7465
  326MOL0     C43942   6.812  10.684  -0.165  0.0881 -0.3052 -0.4094
  326MOL0     H43943   7.095  10.406   0.046  1.5431 -1.6111 -0.1419
  326MOL0     H43944   7.162  10.157   0.092  1.4977  0.5410 -0.2129
  326MOL0     H43945   7.272  10.098   0.486  2.3944 -2.8658  1.3461
  326MOL0     H43946   7.285   9.935   0.414  1.5067 -0.3228 -1.6454
  326MOL0     H43947   7.363  10.199   0.296  1.9393  0.1855 -1.2346
  326MOL0     H43948   7.346  10.057   0.197  2.2696 -1.2099 -0.6849
  326MOL0     H43949   7.548  10.105   0.421 -0.6357  1.3789 -0.2615
  326MOL0     H43950   7.574  10.089   0.248 -0.0848  3.2648  0.8547
  326MOL0     H43951   7.492   9.874   0.447 -1.3734 -0.0985 -1.1661
  326MOL0     H43952   7.472   9.842   0.285 -0.6282 -1.6511  1.2668
  326MOL0     H43953   7.736   9.938   0.407 -0.5084 -2.9223  2.6622
  326MOL0     H43954   7.688   9.773   0.399  0.0628 -1.0755 -2.0808
  326MOL0     H43955   7.657   9.783   0.165  0.5978 -2.0297  1.9434
  326MOL0     H43956   7.717   9.948   0.147 -1.4169 -0.7827 -2.6439
  326MOL0     H43957   7.884   9.790   0.082  2.6537 -1.6574  0.3253
  326MOL0     H43958   7.859   9.688   0.226  1.2162  0.2009 -0.3491
  326MOL0     H43959   7.988   9.875   0.361  1.0181 -2.1095 -0.5411
  326MOL0     H43960   8.083   9.844   0.233  1.1888  2.1013 -0.1316
  326MOL0     H43961   7.936   9.994  -0.019  1.2497  1.8573 -1.2498
  326MOL0     H43962   7.827  10.181  -0.118 -0.7678  0.2152  0.4986
  326MOL0     H43963   7.766  10.308  -0.014 -2.2646 -2.4871 -1.2985
  326MOL0     H43964   7.932  10.386  -0.194  1.3824  0.9062 -0.3661
  326MOL0     H43965   7.967  10.436  -0.034  0.2632 -0.8057  1.7307
  326MOL0     H43966   8.107  10.239  -0.208  0.5086 -0.0451 -0.1077
  326MOL0     H43967   8.135  10.248  -0.031  0.6972 -1.2428 -1.2365
  326MOL0     H43968   8.185  10.499  -0.063  0.8395 -1.8723  2.5950
  326MOL0     H43969   8.162  10.467  -0.242  1.0172  2.5024  0.5454
  326MOL0     H43970   8.556  10.331  -0.240 -0.4203 -0.6935  1.2845
  326MOL0     H43971   8.773  10.473  -0.246 -0.1532 -1.5124  0.7954
  326MOL0     H43972   8.993  10.554  -0.376  1.7648 -0.9430 -1.1889
  326MOL0     H43973   9.172  10.602  -0.520  1.6585 -0.1838  1.0090
  326MOL0     H43974   9.298  11.031  -0.585  0.2405  0.7088 -0.3358
  326MOL0     H43975   9.400  10.978  -0.453 -0.7205 -1.1154  1.2130
  326MOL0     H43976   9.551  11.016  -0.619 -1.4383  0.1229  3.1932
  326MOL0     H43977   9.516  10.834  -0.643 -1.8492 -1.0935  0.7576
  326MOL0     H43978   9.355  10.885  -0.817 -0.1315  0.5522  1.6361
  326MOL0     H43979   9.369  11.062  -0.796  0.9039  0.7839  3.4943
  326MOL0     H43980   9.575  10.867  -0.901 -1.3118 -0.2334 -0.0462
  326MOL0     H43981   9.608  11.039  -0.883 -1.7318  2.2967 -0.3272
  326MOL0     H43982   9.413  11.098  -1.037  0.3522  0.3828 -0.6205
  326MOL0     H43983   9.384  10.932  -1.057 -0.5932  1.8203  1.3634
  326MOL0     H43984   9.523  11.044  -1.242 -1.8986  0.3099  0.8338
  326MOL0     H43985   9.664  11.052  -1.127 -0.5102  0.2672 -0.1415
  326MOL0     H43986   9.550  10.784  -1.183 -1.5933  1.3685  2.6365
  326MOL0     H43987   9.682  10.828  -1.096 -2.9720 -1.1960  0.9390
  326MOL0     H43988   9.745  10.740  -1.305 -3.9331 -2.1759  1.6123
  326MOL0     H43989   9.639  10.857  -1.391 -1.4349 -3.0263  0.5192
  326MOL0     H43990   9.189  11.006  -0.338  0.3037  0.0867 -1.5743
  326MOL0     H43991   9.020  10.932  -0.188  0.6077 -0.2479  0.2246
  326MOL0     H43992   8.523  10.803  -0.114 -2.1333 -1.2003 -0.7546
  326MOL0     H43993   8.328  10.668  -0.107 -0.9981 -2.3093  1.4189
  326MOL0     H43994   7.043  10.222   0.509  0.2785 -0.6366  0.0438
  326MOL0     H43995   6.951  10.438   0.442 -0.5695 -0.1849 -1.1580
  326MOL0     H43996   6.819  10.742   0.296 -0.7516  0.7570  1.6234
  326MOL0     H43997   6.738  10.967   0.282  0.2632 -2.2214  0.6508
  326MOL0     H43998   6.504  11.066  -0.010 -4.1588  3.5871 -2.9704
  326MOL0     H43999   6.619  11.129  -0.124  1.0304  1.2338  1.3600
  326MOL0     H44000   6.473  11.298  -0.089  0.7170  1.3588  0.3329
  326MOL0     H44001   6.614  11.343   0.002  0.9130 -0.5718 -1.0176
  326MOL0     H44002   6.395  11.168   0.136  0.3194  0.4185 -0.1294
  326MOL0     H44003   6.359  11.341   0.122  0.6046  2.0626  0.1663
  326MOL0     H44004   6.605  11.242   0.248  1.0240 -0.4577 -1.0139
  326MOL0     H44005   6.542  11.407   0.261 -2.7000  1.1946 -1.4596
  326MOL0     H44006   6.267  11.221   0.530 -1.6668 -2.9900 -2.1944
  326MOL0     H44007   6.746  10.951  -0.152 -2.1112 -0.3056 -0.2776
  326MOL0     H44008   6.893  10.611  -0.164 -1.9916 -2.8500 -2.8447
  326MOL0     H44009   6.720  10.625  -0.171 -1.3116  1.3524  2.5945
  326MOL0     H44010   6.810  10.751  -0.251 -1.9382  2.0956  1.3661
  327MOL0     O44011   7.898   7.310  10.381  0.7257  0.0889  0.3515
  327MOL0     C44012   7.935   7.198  10.398  0.6307 -0.8257 -0.4015
  327MOL0     O44013   8.052   7.152  10.339 -0.7770  0.2153 -0.8727
  327MOL0     C44014   8.106   7.227  10.238 -0.9456  0.0919  0.0008
  327MOL0     C44015   8.215   7.319  10.276  0.2923  0.0211 -0.0772
  327MOL0     C44016   8.293   7.385  10.189 -0.5674  0.7260  0.8435
  327MOL0     C44017   8.255   7.379  10.048 -0.2966 -1.0509 -0.2126
  327MOL0     O44018   8.331   7.467   9.969 -0.0551 -0.0004  0.4451
  327MOL0     C44019   8.290   7.460   9.831  0.2485 -0.3442  0.6996
  327MOL0     C44020   8.381   7.542   9.734 -0.4051  0.1654 -1.0395
  327MOL0     C44021   8.524   7.488   9.747  0.7587 -0.1769 -0.6746
  327MOL0     C44022   8.613   7.565   9.648 -0.1901  0.6794 -0.2662
  327MOL0     C44023   8.763   7.510   9.659  0.5454 -0.8479 -0.4302
  327MOL0     C44024   8.864   7.584   9.576  0.4561  0.2052  0.1819
  327MOL0     C44025   9.016   7.557   9.612 -0.3884 -0.6562  0.4192
  327MOL0     C44026   9.102   7.645   9.508 -0.1857 -0.4137 -0.4351
  327MOL0     N44027   9.239   7.605   9.499 -0.0276 -0.2083  0.5061
  327MOL0     C44028   9.327   7.583   9.607  0.5912  1.1289  0.2307
  327MOL0     C44029   9.440   7.530   9.554  0.5100 -0.7985 -0.1629
  327MOL0     C44030   9.554   7.477   9.619 -0.2220 -0.7240 -0.1334
  327MOL0     C44031   9.675   7.561   9.577 -0.3835 -0.7259  0.0749
  327MOL0     C44032   9.795   7.508   9.657 -0.4157  0.3643  0.4511
  327MOL0     C44033   9.915   7.591   9.603  0.3170  0.2981 -0.3364
  327MOL0     O44034  10.037   7.548   9.667 -0.0177 -0.3374  0.2297
  327MOL0     C44035  10.162   7.579   9.629 -0.2470  0.5216  0.1504
  327MOL0     C44036  10.180   7.693   9.550  0.1146  0.2857  0.3518
  327MOL0     C44037  10.313   7.725   9.509 -0.0190 -0.1923  0.3224
  327MOL0     C44038  10.433   7.649   9.555  0.0489 -0.5312 -0.5870
  327MOL0     C44039  10.570   7.670   9.500  1.0622 -0.0116 -0.8856
  327MOL0     O44040  10.648   7.564   9.525 -0.2478  0.0671  0.6945
  327MOL0     C44041  10.779   7.563   9.487  0.4315  0.4631  0.4989
  327MOL0     C44042  10.869   7.526   9.586 -0.3807 -0.7154 -0.5380
  327MOL0     C44043  11.002   7.527   9.547 -0.2118  0.8030  0.1676
  327MOL0     C44044  11.057   7.581   9.429  0.4746  0.1774  0.1611
  327MOL0     O44045  11.183   7.584   9.382 -0.1219  0.2831 -0.3358
  327MOL0     C44046  11.274   7.501   9.457  0.0643 -0.1529 -0.8420
  327MOL0     C44047  11.410   7.531   9.401  0.3743 -0.1947 -0.3401
  327MOL0     C44048  11.507   7.454   9.479  0.2791  0.3154  0.2698
  327MOL0     C44049  11.647   7.490   9.445  0.5064 -0.4640  0.3683
  327MOL0     C44050  11.739   7.384   9.490 -0.4070 -0.5598 -0.0099
  327MOL0     C44051  11.877   7.445   9.528 -0.4868 -0.0966  0.7413
  327MOL0     C44052  11.967   7.331   9.567 -0.8566 -0.8859 -0.2415
  327MOL0     C44053  12.080   7.390   9.658  0.7388 -0.1810  0.1977
  327MOL0    Cl44054  12.192   7.493   9.571 -0.5679  0.8608 -0.1321
  327MOL0     C44055  10.961   7.620   9.331 -0.4907 -0.7287  0.3119
  327MOL0     C44056  10.824   7.609   9.355  0.5870  0.2400  0.8331
  327MOL0     O44057  10.595   7.768   9.433 -0.1841 -0.2237  0.1315
  327MOL0     C44058  10.398   7.541   9.648  0.3048 -0.1191  0.1668
  327MOL0     C44059  10.264   7.500   9.672 -0.3310  0.2348 -0.0281
  327MOL0     N44060   9.420   7.538   9.416  0.5534  0.7035 -0.0299
  327MOL0     N44061   9.300   7.563   9.389  0.6060 -0.4361 -0.0281
  327MOL0     C44062   8.161   7.283  10.012 -0.1146  0.6023 -0.0260
  327MOL0     C44063   8.084   7.213  10.104 -0.2419  0.5545 -1.8022
  327MOL0     C44064   7.854   7.109  10.493  0.8195  0.1822 -1.0449
  327MOL0     C44065   7.915   6.991  10.540  0.3923 -0.6422 -0.6364
  327MOL0     C44066   7.845   6.897  10.617  1.0208 -0.0163  1.0821
  327MOL0     C44067   7.709   6.920  10.647  0.3012  0.9989 -0.1485
  327MOL0     O44068   7.633   6.836  10.720  0.2364 -0.3246 -0.3604
  327MOL0     C44069   7.684   6.703  10.745 -0.2194  0.2850 -0.2723
  327MOL0     C44070   7.586   6.607  10.817  0.5482 -0.6808 -0.6183
  327MOL0     C44071   7.513   6.675  10.937  0.0753 -0.5550 -0.6480
  327MOL0     C44072   7.402   6.593  11.002 -0.1559 -0.8919 -0.0861
  327MOL0     C44073   7.447   6.465  11.055  0.0924  0.1368 -0.2871
  327MOL0     C44074   7.483   6.350  11.087 -0.1305 -0.6318 -0.1874
  327MOL0     C44075   7.654   7.040  10.609  1.0554 -0.1593  0.5108
  327MOL0     C44076   7.719   7.133  10.530 -1.3433 -0.0411  0.2848
  327MOL0     C44077   7.631   7.251  10.494 -0.2912 -0.5230 -0.4712
  327MOL0     H44078   8.236   7.309  10.383  1.5875  1.6874 -0.1414
  327MOL0     H44079   8.385   7.437  10.213  2.4428 -2.7990 -1.9063
  327MOL0     H44080   8.307   7.354   9.810  3.0564  0.0864  0.3795
  327MOL0     H44081   8.184   7.475   9.814  0.2125 -2.5504 -1.7093
  327MOL0     H44082   8.378   7.649   9.758  1.6106  0.1816 -0.7082
  327MOL0     H44083   8.349   7.538   9.629 -3.6378  3.3873 -0.4066
  327MOL0     H44084   8.523   7.384   9.714  2.1108  0.5010 -3.0365
  327MOL0     H44085   8.558   7.497   9.851  1.1130  1.3232 -0.9047
  327MOL0     H44086   8.573   7.549   9.547  1.0442 -3.3393 -0.2806
  327MOL0     H44087   8.610   7.668   9.685 -0.3731 -0.1223  2.1510
  327MOL0     H44088   8.789   7.520   9.765  2.0882 -3.0272 -0.5450
  327MOL0     H44089   8.764   7.405   9.628 -0.4213 -0.7047 -0.9799
  327MOL0     H44090   8.837   7.558   9.473  0.0397 -0.6345  0.4905
  327MOL0     H44091   8.842   7.689   9.595  0.7086  0.0192  1.6638
  327MOL0     H44092   9.042   7.451   9.606  1.0711 -0.3313  0.7719
  327MOL0     H44093   9.038   7.600   9.710 -0.0306  1.7827 -0.6363
  327MOL0     H44094   9.048   7.639   9.413  1.9878 -0.6260 -1.7230
  327MOL0     H44095   9.097   7.750   9.538  0.8398  0.6830 -3.6854
  327MOL0     H44096   9.317   7.605   9.713  3.0927  1.8424  0.3920
  327MOL0     H44097   9.524   7.484   9.724 -1.1945  1.7883 -0.5219
  327MOL0     H44098   9.562   7.370   9.598  1.8237 -0.8907  1.2004
  327MOL0     H44099   9.704   7.550   9.473 -0.8301 -0.1886 -0.1086
  327MOL0     H44100   9.655   7.667   9.596 -1.1762 -0.9724  0.7341
  327MOL0     H44101   9.814   7.401   9.646 -2.3553 -0.1209  1.3573
  327MOL0     H44102   9.781   7.532   9.763  3.4021  1.0604  0.9630
  327MOL0     H44103   9.900   7.699   9.614  0.1186  0.0530  2.5591
  327MOL0     H44104   9.931   7.556   9.500 -1.7369 -0.1244 -0.5575
  327MOL0     H44105  10.098   7.755   9.515  0.4668  2.5672  3.1110
  327MOL0     H44106  10.321   7.816   9.449  0.0205  1.2412  2.3782
  327MOL0     H44107  10.834   7.498   9.685  0.5242 -0.6694 -0.1926
  327MOL0     H44108  11.067   7.479   9.620 -0.5203 -0.2498 -0.2311
  327MOL0     H44109  11.275   7.549   9.556  0.6079 -0.1844 -0.8278
  327MOL0     H44110  11.259   7.393   9.459 -0.2369 -0.2092 -3.3259
  327MOL0     H44111  11.419   7.510   9.294  0.0489  1.6984 -0.7696
  327MOL0     H44112  11.436   7.635   9.423  2.2952 -1.1733  2.6124
  327MOL0     H44113  11.491   7.477   9.585  1.9903  0.1866  0.5882
  327MOL0     H44114  11.488   7.346   9.479 -0.2682  0.3935  1.5712
  327MOL0     H44115  11.665   7.584   9.497  0.6942  0.0752 -0.6530
  327MOL0     H44116  11.664   7.496   9.337 -0.0559 -0.7146  0.2578
  327MOL0     H44117  11.745   7.311   9.409 -0.1268 -1.0985  0.4937
  327MOL0     H44118  11.705   7.324   9.575  2.5644 -2.0746  0.1999
  327MOL0     H44119  11.929   7.494   9.445  0.3115  2.1561  2.4739
  327MOL0     H44120  11.869   7.514   9.612  0.4820 -0.2518  0.9705
  327MOL0     H44121  12.019   7.288   9.480  0.8822  0.9692 -0.1909
  327MOL0     H44122  11.920   7.258   9.634  0.2007 -0.0814  1.4140
  327MOL0     H44123  12.042   7.441   9.746 -1.0560 -1.4527  0.2102
  327MOL0     H44124  12.135   7.304   9.699 -0.4716 -1.6311 -1.0802
  327MOL0     H44125  10.987   7.665   9.236  0.6133 -1.4638  0.2424
  327MOL0     H44126  10.762   7.664   9.285 -0.3231  0.2913  1.6700
  327MOL0     H44127  10.483   7.488   9.692  1.0779  1.2215  0.3394
  327MOL0     H44128  10.240   7.417   9.738 -2.3822  2.2128  1.8668
  327MOL0     H44129   8.126   7.278   9.910 -2.0582  1.3625  0.5701
  327MOL0     H44130   7.996   7.159  10.068 -0.5070 -0.1891 -0.1151
  327MOL0     H44131   8.010   6.957  10.501 -0.5542 -3.4350 -0.7878
  327MOL0     H44132   7.892   6.811  10.664  2.7716 -0.1424 -0.8023
  327MOL0     H44133   7.772   6.710  10.810 -0.3809  1.7731 -0.1892
  327MOL0     H44134   7.718   6.649  10.657 -0.8980  3.4225 -2.6206
  327MOL0     H44135   7.636   6.517  10.855  0.6140 -0.7738 -0.9209
  327MOL0     H44136   7.500   6.587  10.753  0.8875  0.3583 -1.4272
  327MOL0     H44137   7.464   6.762  10.893 -0.3927  0.0380  0.9874
  327MOL0     H44138   7.580   6.698  11.020 -0.9050 -2.1533  0.6588
  327MOL0     H44139   7.353   6.654  11.080  1.3359  2.4762 -1.5656
  327MOL0     H44140   7.321   6.588  10.928 -0.0279 -0.6338 -0.2467
  327MOL0     H44141   7.511   6.254  11.125  1.1851 -0.9961 -1.9590
  327MOL0     H44142   7.549   7.047  10.636  1.0385 -0.3513  0.4946
  327MOL0     H44143   7.587   7.237  10.395  1.0528  0.4399 -1.2462
  327MOL0     H44144   7.560   7.271  10.575  0.4541 -2.6906  0.7995
  327MOL0     H44145   7.675   7.351  10.483 -0.0598 -0.6631 -0.8075
  328MOL0     O44146   7.547  10.348   2.561 -0.2342  0.3190 -0.0182
  328MOL0     C44147   7.516  10.454   2.617  0.8044  0.3352  0.1694
  328MOL0     O44148   7.596  10.557   2.634 -0.3910 -0.3762  0.2666
  328MOL0     C44149   7.731  10.545   2.624 -0.2400 -0.3286 -0.5060
  328MOL0     C44150   7.808  10.452   2.693 -0.3876 -0.0061 -0.1892
  328MOL0     C44151   7.950  10.450   2.680  0.1892 -0.0462 -0.7725
  328MOL0     C44152   8.015  10.552   2.617  0.6182 -0.3545  0.1861
  328MOL0     O44153   8.151  10.554   2.620 -0.2553 -0.5110  0.5888
  328MOL0     C44154   8.233  10.672   2.581  0.5292 -0.5528 -0.7086
  328MOL0     C44155   8.378  10.640   2.622  0.5451 -0.7906 -0.1456
  328MOL0     C44156   8.464  10.776   2.632  0.2721 -0.6555 -0.6999
  328MOL0     C44157   8.598  10.745   2.697 -0.3529 -0.4338  0.7184
  328MOL0     C44158   8.698  10.860   2.668 -0.4725 -0.4300 -0.3723
  328MOL0     C44159   8.652  10.992   2.718  0.3230 -0.4597 -0.5522
  328MOL0     C44160   8.771  11.082   2.714  0.5878  0.2859 -0.0599
  328MOL0     C44161   8.733  11.229   2.733  0.0158 -0.3726  0.0289
  328MOL0     N44162   8.837  11.318   2.782 -0.4904  0.1630  0.2164
  328MOL0     C44163   8.870  11.333   2.916 -0.2440 -0.3620  0.1631
  328MOL0     C44164   8.962  11.432   2.908 -0.4161  0.3896  0.3465
  328MOL0     C44165   9.016  11.480   3.040 -0.4077  0.3654 -0.1830
  328MOL0     C44166   9.096  11.616   3.030 -0.9010 -0.7959 -0.4543
  328MOL0     C44167   9.160  11.660   3.172  0.9823  0.3021  0.4619
  328MOL0     C44168   9.234  11.796   3.158  0.3394  0.3963 -0.2408
  328MOL0     O44169   9.297  11.826   3.033 -0.8488  0.5224  0.2913
  328MOL0     C44170   9.423  11.778   3.012  0.0490  0.0985  0.0005
  328MOL0     C44171   9.487  11.814   2.890  0.5063  0.5713 -0.9221
  328MOL0     C44172   9.619  11.762   2.860 -0.2718  0.0913 -0.7954
  328MOL0     C44173   9.688  11.690   2.950 -0.7851  0.0379 -0.5650
  328MOL0     C44174   9.828  11.645   2.910  0.5239 -0.6743  0.3729
  328MOL0     O44175   9.880  11.733   2.817 -0.1427 -0.1240  0.8051
  328MOL0     C44176  10.012  11.727   2.775  0.4315 -0.1129 -0.2483
  328MOL0     C44177  10.037  11.761   2.641  0.2564 -0.8289  0.2336
  328MOL0     C44178  10.163  11.746   2.588 -0.1705  0.4013  0.4599
  328MOL0     C44179  10.276  11.711   2.665  0.3179 -0.6783 -0.8374
  328MOL0     O44180  10.400  11.709   2.601 -0.1831 -0.5358 -0.5316
  328MOL0     C44181  10.521  11.698   2.685 -0.3262 -0.3938  0.9276
  328MOL0     C44182  10.638  11.696   2.581 -0.0563  0.5459 -0.3462
  328MOL0     C44183  10.772  11.709   2.646 -0.1344 -0.3628  0.0709
  328MOL0     C44184  10.832  11.588   2.715  0.1357  0.1774  0.0270
  328MOL0     C44185  10.980  11.601   2.736 -0.6180  0.6378  0.0060
  328MOL0     C44186  11.024  11.504   2.858  0.2604 -0.7983 -0.3259
  328MOL0     C44187  11.174  11.502   2.876 -0.5314  0.0532 -0.3724
  328MOL0     C44188  11.217  11.390   2.970 -0.3319 -0.3485  1.1171
  328MOL0    Cl44189  11.101  11.354   3.091 -0.4745  0.0755 -0.3284
  328MOL0     C44190  10.255  11.685   2.798 -0.9911 -1.6210 -0.4706
  328MOL0     C44191  10.122  11.691   2.850  0.4547 -0.5077 -0.5091
  328MOL0     O44192   9.887  11.547   2.953  0.0569  0.2025 -0.2180
  328MOL0     C44193   9.630  11.662   3.073  0.3703 -1.0490 -0.8994
  328MOL0     C44194   9.494  11.687   3.098 -0.8804 -0.6688  0.3153
  328MOL0     N44195   9.004  11.451   2.781  0.4206  0.4033  0.1246
  328MOL0     N44196   8.919  11.399   2.705  0.6460  0.4025  0.1560
  328MOL0     C44197   7.936  10.655   2.557 -0.5106 -0.3236 -0.6671
  328MOL0     C44198   7.796  10.649   2.545  0.8093  0.3290 -0.0011
  328MOL0     C44199   7.368  10.464   2.650 -0.4146  0.1119 -0.4279
  328MOL0     C44200   7.298  10.348   2.700  0.1038  0.3167 -0.5708
  328MOL0     C44201   7.156  10.342   2.729  0.3084  0.2759 -0.3231
  328MOL0     C44202   7.083  10.466   2.704  0.1416  0.2791 -0.1100
  328MOL0     O44203   6.943  10.472   2.744 -1.0734 -0.0512 -0.4036
  328MOL0     C44204   6.870  10.590   2.695  0.3707 -0.4346  0.5653
  328MOL0     C44205   6.715  10.565   2.702  0.3479  0.0898  1.0717
  328MOL0     C44206   6.671  10.499   2.577  0.2364  0.3523 -0.4795
  328MOL0     C44207   6.514  10.474   2.578  0.0791 -0.4813 -0.1711
  328MOL0     C44208   6.439  10.601   2.579 -0.4401  0.0827 -0.4461
  328MOL0     C44209   6.386  10.706   2.567  0.7609 -0.0694 -0.5812
  328MOL0     C44210   7.152  10.575   2.647  0.1916 -0.3421  1.5002
  328MOL0     C44211   7.290  10.574   2.616 -0.1629  0.3185  0.2532
  328MOL0     C44212   7.333  10.692   2.530  0.7301  1.1469  0.0198
  328MOL0     H44213   7.762  10.373   2.751  1.8837 -0.6481  0.8709
  328MOL0     H44214   7.995  10.357   2.714 -1.2302 -0.3078  0.4788
  328MOL0     H44215   8.221  10.689   2.474  0.3774  1.8414 -0.3764
  328MOL0     H44216   8.195  10.757   2.638 -0.4399 -1.2095 -0.3575
  328MOL0     H44217   8.407  10.566   2.547 -1.3371 -1.0974 -0.6246
  328MOL0     H44218   8.399  10.589   2.716  0.7749 -0.1311  0.1747
  328MOL0     H44219   8.420  10.850   2.700 -0.4244 -2.1596  0.5495
  328MOL0     H44220   8.468  10.826   2.535 -0.6054  2.9947  0.9722
  328MOL0     H44221   8.600  10.736   2.807  0.5669  5.5907  1.5245
  328MOL0     H44222   8.641  10.655   2.652 -0.1630  0.2962 -0.5847
  328MOL0     H44223   8.789  10.830   2.721 -0.9013  0.1568  0.7087
  328MOL0     H44224   8.722  10.860   2.561  1.0818 -0.1813 -0.0432
  328MOL0     H44225   8.579  11.048   2.659  1.5455  0.1716 -1.5277
  328MOL0     H44226   8.629  10.983   2.825  0.3186  2.2481 -0.2490
  328MOL0     H44227   8.812  11.083   2.612  2.3368 -1.3748  0.5580
  328MOL0     H44228   8.844  11.045   2.787  0.5895 -0.8051 -0.5872
  328MOL0     H44229   8.717  11.268   2.632  1.8785 -0.2738 -0.2592
  328MOL0     H44230   8.646  11.235   2.799 -0.4322  3.3921 -0.6500
  328MOL0     H44231   8.820  11.300   3.006  0.1832  1.6260  1.1760
  328MOL0     H44232   8.939  11.487   3.118 -0.7225 -2.0147 -0.2282
  328MOL0     H44233   9.094  11.414   3.080 -0.3874  1.8211  2.4528
  328MOL0     H44234   9.188  11.591   2.976  1.1402 -0.9224  2.8518
  328MOL0     H44235   9.031  11.688   2.980 -1.5355  0.1454  1.6238
  328MOL0     H44236   9.234  11.586   3.205  0.0135  0.6705  3.7636
  328MOL0     H44237   9.084  11.675   3.249  2.1827  3.0149  1.2269
  328MOL0     H44238   9.303  11.812   3.241 -0.0557  1.3862 -0.0833
  328MOL0     H44239   9.151  11.868   3.161 -0.2556 -0.2830 -0.2013
  328MOL0     H44240   9.427  11.876   2.824 -1.8225  1.2767  1.6607
  328MOL0     H44241   9.664  11.800   2.769  2.2187  3.2231  1.5628
  328MOL0     H44242   9.958  11.809   2.584 -1.5534 -1.3227  2.1939
  328MOL0     H44243  10.174  11.771   2.483 -1.4193  1.2462  0.5118
  328MOL0     H44244  10.528  11.784   2.753 -1.1927  0.5558 -0.1417
  328MOL0     H44245  10.509  11.606   2.742 -5.9856 -0.2353  0.5454
  328MOL0     H44246  10.637  11.609   2.515  2.4390  1.3640 -1.6110
  328MOL0     H44247  10.616  11.776   2.509  1.0972  1.1160 -0.0901
  328MOL0     H44248  10.840  11.746   2.569 -1.5561  0.4932 -0.8063
  328MOL0     H44249  10.775  11.787   2.723 -4.3432  0.0871 -0.0151
  328MOL0     H44250  10.813  11.498   2.655 -0.6886  0.8197 -0.7142
  328MOL0     H44251  10.794  11.576   2.817  2.0920  0.3746  0.8045
  328MOL0     H44252  10.989  11.705   2.770  2.7622  0.9296 -1.4042
  328MOL0     H44253  11.031  11.580   2.642  1.2971 -1.4455  1.4091
  328MOL0     H44254  10.976  11.541   2.949  2.8649 -2.3926  1.8639
  328MOL0     H44255  10.993  11.402   2.831  1.3626 -1.1750 -0.2275
  328MOL0     H44256  11.213  11.595   2.918  0.0379 -0.1140 -0.5235
  328MOL0     H44257  11.223  11.500   2.778  0.4232  0.0388  0.0959
  328MOL0     H44258  11.237  11.303   2.907  2.3917  1.2363 -0.3577
  328MOL0     H44259  11.310  11.424   3.015 -1.3536  0.0529  3.0354
  328MOL0     H44260  10.332  11.671   2.873 -2.4072 -2.8581  0.8423
  328MOL0     H44261  10.105  11.677   2.957 -1.3283 -1.5173 -0.8791
  328MOL0     H44262   9.687  11.604   3.145 -0.3493 -0.1961  0.4009
  328MOL0     H44263   9.444  11.637   3.180  0.6248 -5.1588 -1.1567
  328MOL0     H44264   7.974  10.751   2.524  0.7261 -0.9849 -1.2420
  328MOL0     H44265   7.741  10.725   2.491  2.8100  1.7810 -0.1116
  328MOL0     H44266   7.356  10.258   2.719 -0.6248 -0.0005  0.1884
  328MOL0     H44267   7.112  10.260   2.785  0.6920  0.7157  0.6416
  328MOL0     H44268   6.902  10.600   2.591 -0.2782  2.1923  0.5569
  328MOL0     H44269   6.900  10.681   2.747 -0.6452 -0.9303  2.1050
  328MOL0     H44270   6.672  10.665   2.705 -1.1158 -0.5426  1.6261
  328MOL0     H44271   6.682  10.501   2.784 -1.7656  0.0428  0.2290
  328MOL0     H44272   6.733  10.409   2.570  3.4770  2.4171 -0.2944
  328MOL0     H44273   6.704  10.560   2.493 -0.0693  3.5671  1.5405
  328MOL0     H44274   6.498  10.421   2.483 -0.6228  3.0029 -2.1590
  328MOL0     H44275   6.496  10.419   2.671 -1.7771 -0.9346 -0.7573
  328MOL0     H44276   6.333  10.798   2.561  3.5165  1.6473 -0.1537
  328MOL0     H44277   7.091  10.663   2.628 -0.5095 -0.9811  0.7325
  328MOL0     H44278   7.439  10.678   2.508  0.7387 -1.5138  1.3761
  328MOL0     H44279   7.285  10.672   2.434  0.2655 -1.2518  0.6851
  328MOL0     H44280   7.312  10.786   2.582  1.3256  0.3847  1.7369
  329MOL0     O44281   5.900   6.411  10.494 -0.5664 -0.0702  0.5825
  329MOL0     C44282   5.886   6.425  10.613 -0.1418 -0.3715  0.9119
  329MOL0     O44283   5.986   6.449  10.701 -0.3032  0.4471  0.2845
  329MOL0     C44284   6.116   6.481  10.665 -0.5371 -0.0784 -0.0637
  329MOL0     C44285   6.168   6.599  10.712 -0.1207 -0.3869 -0.2840
  329MOL0     C44286   6.300   6.627  10.671 -0.0273 -0.3157  0.3684
  329MOL0     C44287   6.369   6.537  10.583 -0.5605 -0.4302 -0.1994
  329MOL0     O44288   6.502   6.556  10.553 -0.3648 -0.1321  0.7666
  329MOL0     C44289   6.582   6.658  10.620  0.2679  0.4275 -0.3805
  329MOL0     C44290   6.726   6.639  10.571  0.2930 -0.1531 -0.6959
  329MOL0     C44291   6.821   6.705  10.670 -0.2940  0.1441  0.0648
  329MOL0     C44292   6.969   6.659  10.636 -1.0658 -0.7838 -0.9019
  329MOL0     C44293   7.069   6.756  10.719 -0.0060  0.7036  0.6616
  329MOL0     C44294   7.222   6.738  10.697 -0.9141  0.9676  0.2927
  329MOL0     C44295   7.291   6.741  10.561  0.2224  0.7696 -0.2243
  329MOL0     C44296   7.233   6.848  10.484 -0.3038  0.7794  0.0511
  329MOL0     N44297   7.315   6.879  10.366  0.2783  0.3386 -0.2047
  329MOL0     C44298   7.443   6.921  10.348  0.3068 -0.4503 -1.1983
  329MOL0     C44299   7.448   6.932  10.216 -0.2893 -0.1691  0.7070
  329MOL0     C44300   7.564   6.978  10.144 -1.0661 -0.1107 -0.1180
  329MOL0     C44301   7.675   6.866  10.153  0.1668 -0.6629 -0.4010
  329MOL0     C44302   7.813   6.933  10.152  0.0784 -0.6514 -0.0266
  329MOL0     C44303   7.928   6.834  10.161 -0.4779 -0.3763 -0.0291
  329MOL0     O44304   7.936   6.757  10.037  0.5854 -0.4718  0.4155
  329MOL0     C44305   8.050   6.709   9.989  0.0494  0.3248 -0.1025
  329MOL0     C44306   8.055   6.668   9.858  0.1124 -0.3915 -0.2355
  329MOL0     C44307   8.176   6.619   9.802 -0.0111  0.2815 -0.9250
  329MOL0     C44308   8.289   6.626   9.875 -0.0468  0.3244 -0.5305
  329MOL0     C44309   8.416   6.578   9.819 -0.0714 -0.0036  0.0751
  329MOL0     O44310   8.496   6.514   9.909 -0.5951 -0.0519  0.4199
  329MOL0     C44311   8.627   6.503   9.881 -0.5047 -0.4612 -0.2782
  329MOL0     C44312   8.718   6.609   9.868  0.2965  0.7280  0.6790
  329MOL0     C44313   8.852   6.588   9.836  0.0084  0.6325  0.2330
  329MOL0     C44314   8.906   6.455   9.846 -0.2260  0.4802 -0.7978
  329MOL0     O44315   9.036   6.416   9.821 -0.4610 -0.3775  0.5451
  329MOL0     C44316   9.142   6.498   9.884 -0.1847  1.0583 -0.3112
  329MOL0     C44317   9.284   6.430   9.881  0.2783 -0.0410  0.1746
  329MOL0     C44318   9.390   6.523   9.936  0.2570  0.7555  0.3808
  329MOL0     C44319   9.526   6.466   9.886 -0.3378  1.3030 -0.1810
  329MOL0     C44320   9.635   6.577   9.880 -0.5329 -0.5141  0.2292
  329MOL0     C44321   9.772   6.518   9.831 -0.1488 -0.2011 -0.8617
  329MOL0     C44322   9.878   6.628   9.799  0.2559 -0.4389  0.0825
  329MOL0     C44323  10.011   6.560   9.809  0.1757 -0.1072  0.3412
  329MOL0    Cl44324  10.142   6.679   9.783 -0.0750  0.0137 -0.6330
  329MOL0     C44325   8.818   6.349   9.860 -0.2162 -0.5177 -0.1596
  329MOL0     C44326   8.681   6.375   9.869 -0.7486 -0.4454 -0.3541
  329MOL0     O44327   8.449   6.621   9.708  0.2849  0.5502  0.6636
  329MOL0     C44328   8.291   6.681  10.004 -0.9687 -0.2486 -0.4771
  329MOL0     C44329   8.170   6.712  10.066 -0.2994 -0.1627  0.2166
  329MOL0     N44330   7.329   6.904  10.153 -0.2820 -0.0524  0.7539
  329MOL0     N44331   7.256   6.855  10.244 -0.0567  1.0868 -0.1466
  329MOL0     C44332   6.314   6.418  10.549  0.1921 -1.2445 -0.3856
  329MOL0     C44333   6.181   6.388  10.579 -0.0048  0.4924  0.4506
  329MOL0     C44334   5.749   6.425  10.663 -0.3468 -0.4887 -0.1648
  329MOL0     C44335   5.737   6.503  10.780  1.0073 -0.3912 -0.8709
  329MOL0     C44336   5.614   6.503  10.848 -0.0284  0.2242  0.0114
  329MOL0     C44337   5.503   6.429  10.807 -0.6510  0.3517  0.4952
  329MOL0     O44338   5.374   6.431  10.858 -0.3092  0.4824  0.1081
  329MOL0     C44339   5.355   6.433  10.997 -0.1087  0.2998  0.2958
  329MOL0     C44340   5.341   6.282  11.034 -0.8498 -0.3037 -0.0548
  329MOL0     C44341   5.271   6.261  11.172 -0.4898 -0.2077 -0.4258
  329MOL0     C44342   5.302   6.122  11.226  0.1886  0.0383  0.1043
  329MOL0     C44343   5.444   6.096  11.230 -0.1757 -0.7917 -0.2964
  329MOL0     C44344   5.563   6.077  11.232  0.1792  0.3150  0.7855
  329MOL0     C44345   5.519   6.357  10.686  0.6032  0.8986 -0.2370
  329MOL0     C44346   5.637   6.354  10.611  0.2040 -0.5089  0.4004
  329MOL0     C44347   5.642   6.280  10.474  0.3422 -0.2287  0.0249
  329MOL0     H44348   6.123   6.676  10.774  0.4869  0.1568 -0.5085
  329MOL0     H44349   6.343   6.722  10.700  0.6720 -0.5925  0.2731
  329MOL0     H44350   6.554   6.763  10.609  0.1276  0.9635  3.7063
  329MOL0     H44351   6.569   6.650  10.728  0.1647  3.6732 -0.0398
  329MOL0     H44352   6.739   6.683  10.472  0.2511 -0.7480 -0.9693
  329MOL0     H44353   6.757   6.534  10.569 -0.5245 -0.4128 -0.1056
  329MOL0     H44354   6.800   6.686  10.775  4.1153 -5.8571  0.3800
  329MOL0     H44355   6.813   6.814  10.659 -0.0015  0.2703  1.0316
  329MOL0     H44356   6.987   6.552  10.642 -1.2349 -0.8489 -1.5189
  329MOL0     H44357   6.981   6.673  10.529 -0.7678 -0.1868 -0.7968
  329MOL0     H44358   7.038   6.861  10.714 -0.1249  0.6096 -0.7737
  329MOL0     H44359   7.042   6.736  10.823 -0.1747  0.7166  0.6197
  329MOL0     H44360   7.277   6.809  10.759  2.7099 -1.7545  0.4455
  329MOL0     H44361   7.239   6.636  10.730 -0.5936  0.4533 -1.3470
  329MOL0     H44362   7.270   6.646  10.510  1.4069 -1.8191  3.6279
  329MOL0     H44363   7.399   6.745  10.579 -0.0021  0.5839  1.3197
  329MOL0     H44364   7.130   6.819  10.464 -0.3041  0.0929  0.9938
  329MOL0     H44365   7.233   6.932  10.554 -0.6684  1.2985 -0.5590
  329MOL0     H44366   7.518   6.931  10.426 -0.2049 -1.4986 -0.5603
  329MOL0     H44367   7.549   7.001  10.038  0.7238 -2.3042 -0.9375
  329MOL0     H44368   7.600   7.068  10.195 -0.6805  0.0066 -0.5840
  329MOL0     H44369   7.663   6.810  10.246  0.0650  0.7224  0.4453
  329MOL0     H44370   7.675   6.803  10.063 -2.0652 -2.9937  1.1053
  329MOL0     H44371   7.809   6.998  10.240 -0.9390  0.1610 -0.6355
  329MOL0     H44372   7.835   6.995  10.064 -1.2114  1.3682  0.9983
  329MOL0     H44373   7.902   6.769  10.245 -0.7577  1.4644  1.3894
  329MOL0     H44374   8.020   6.890  10.180 -1.4009  1.4382 -0.6584
  329MOL0     H44375   7.959   6.668   9.808  0.1757  2.8318 -0.6031
  329MOL0     H44376   8.180   6.570   9.705  1.5614 -1.6654  0.0509
  329MOL0     H44377   8.675   6.709   9.867 -1.7122 -0.0254  3.0240
  329MOL0     H44378   8.916   6.672   9.812  1.1740 -0.5544 -0.9999
  329MOL0     H44379   9.153   6.596   9.836  0.8427  0.8603 -0.5078
  329MOL0     H44380   9.120   6.523   9.988 -1.7011 -0.5148 -0.2151
  329MOL0     H44381   9.289   6.344   9.948  3.4385  0.4286  0.7303
  329MOL0     H44382   9.299   6.383   9.784  0.2217  2.4624 -1.1412
  329MOL0     H44383   9.376   6.625   9.898  0.8311  0.8658  0.4547
  329MOL0     H44384   9.394   6.529  10.045 -0.3524  3.1982  0.3286
  329MOL0     H44385   9.512   6.404   9.796 -3.2734  1.6872 -0.0906
  329MOL0     H44386   9.555   6.389   9.958 -1.0650  1.2736  0.0835
  329MOL0     H44387   9.646   6.618   9.980  0.4969  0.4744 -0.2697
  329MOL0     H44388   9.597   6.652   9.809 -0.3393 -3.8805 -3.8585
  329MOL0     H44389   9.822   6.458   9.907  4.0018 -0.1297 -3.2104
  329MOL0     H44390   9.760   6.448   9.748  7.0947 -2.6948 -0.4910
  329MOL0     H44391   9.874   6.709   9.873  4.3446 -1.9650  2.3213
  329MOL0     H44392   9.852   6.682   9.708 -1.7679  0.9253  1.3650
  329MOL0     H44393  10.032   6.516   9.907  0.8001 -0.2936  0.1341
  329MOL0     H44394  10.014   6.483   9.731 -0.5831 -1.3452  1.4924
  329MOL0     H44395   8.871   6.254   9.851  1.9383  0.8123 -3.2963
  329MOL0     H44396   8.615   6.289   9.870 -1.9861  0.4857  0.2851
  329MOL0     H44397   8.383   6.675  10.061 -0.8525  0.4519 -0.5891
  329MOL0     H44398   8.174   6.741  10.170  0.9843  1.9708 -0.3704
  329MOL0     H44399   6.373   6.348  10.490  0.7878  0.8064 -2.3654
  329MOL0     H44400   6.133   6.298  10.541  1.2819 -0.8259  1.8305
  329MOL0     H44401   5.811   6.567  10.828 -1.4780 -0.2018  3.1511
  329MOL0     H44402   5.620   6.566  10.936 -0.2983 -0.6853  0.6921
  329MOL0     H44403   5.260   6.479  11.027  0.3375  1.0922  0.5379
  329MOL0     H44404   5.432   6.494  11.045 -2.1910  2.5934  0.9670
  329MOL0     H44405   5.442   6.242  11.048 -0.6213  0.6565  1.2786
  329MOL0     H44406   5.281   6.220  10.967 -2.2336 -0.9689  1.7260
  329MOL0     H44407   5.163   6.257  11.151 -0.3327 -0.3235 -1.2339
  329MOL0     H44408   5.295   6.333  11.250 -1.7786  0.7422 -0.8678
  329MOL0     H44409   5.249   6.109  11.321  0.1887  0.7062  0.2018
  329MOL0     H44410   5.255   6.053  11.156  0.0665 -0.2561  0.4718
  329MOL0     H44411   5.670   6.069  11.239  0.2514 -0.3005 -0.7668
  329MOL0     H44412   5.429   6.309  10.648 -0.6370  1.8282  1.4208
  329MOL0     H44413   5.628   6.359  10.401 -0.3489 -1.5274 -1.3066
  329MOL0     H44414   5.742   6.236  10.461  0.4705  0.1766 -0.3566
  329MOL0     H44415   5.564   6.204  10.460 -0.5441  0.1658  2.3087
  330MOL0     O44416   5.921   1.182   4.236 -0.2687 -0.3823 -0.2762
  330MOL0     C44417   5.842   1.137   4.156  0.6834  0.1987 -0.2000
  330MOL0     O44418   5.870   1.039   4.064 -1.1223  0.3882  0.8781
  330MOL0     C44419   5.995   0.978   4.053 -0.3139 -0.5645  0.0918
  330MOL0     C44420   6.015   0.908   3.933 -0.4062  1.5626  0.3814
  330MOL0     C44421   6.143   0.847   3.905 -0.8866 -0.6610  0.8277
  330MOL0     C44422   6.248   0.848   4.001  0.2883 -0.1816  0.4020
  330MOL0     O44423   6.357   0.785   3.963 -0.4899  0.2411 -0.4606
  330MOL0     C44424   6.468   0.773   4.052 -0.8067 -0.8327  0.1616
  330MOL0     C44425   6.574   0.689   3.980 -1.2289 -0.2608 -0.5371
  330MOL0     C44426   6.682   0.655   4.074  1.0822 -0.1664 -0.8544
  330MOL0     C44427   6.807   0.603   4.004  0.0007  0.0382 -0.5583
  330MOL0     C44428   6.905   0.526   4.096 -0.0056 -0.0511  0.9173
  330MOL0     C44429   7.010   0.452   4.016 -0.1502  0.7435 -0.5522
  330MOL0     C44430   7.147   0.404   4.083  0.7151 -0.7677  0.3787
  330MOL0     C44431   7.238   0.519   4.117 -0.4620  0.0808 -0.8371
  330MOL0     N44432   7.376   0.483   4.156  0.8443  0.8068  0.4259
  330MOL0     C44433   7.410   0.467   4.285 -0.3561 -0.1048 -0.4342
  330MOL0     C44434   7.538   0.437   4.278  0.1219  0.0059  0.1477
  330MOL0     C44435   7.611   0.386   4.398  0.3948  1.1808  0.6178
  330MOL0     C44436   7.669   0.504   4.477 -0.6864 -0.1278 -0.2660
  330MOL0     C44437   7.568   0.581   4.560  0.4767  0.1818 -0.4795
  330MOL0     C44438   7.628   0.707   4.622  0.4453 -0.1577 -0.0524
  330MOL0     O44439   7.739   0.668   4.710 -0.1328  0.3539 -0.8650
  330MOL0     C44440   7.842   0.762   4.722  0.2727  0.1644 -0.4141
  330MOL0     C44441   7.815   0.895   4.703 -0.3064  0.1939  0.9703
  330MOL0     C44442   7.918   0.992   4.710 -0.8408 -0.9523  0.1781
  330MOL0     C44443   8.053   0.944   4.746 -0.5715  0.7891  0.5441
  330MOL0     C44444   8.167   1.044   4.751  0.9278 -0.3539 -0.1064
  330MOL0     O44445   8.164   1.158   4.674 -0.3004 -0.4177 -0.4339
  330MOL0     C44446   8.272   1.242   4.682  0.5561  0.0658 -0.3073
  330MOL0     C44447   8.288   1.337   4.781 -0.3104  0.5636 -0.0237
  330MOL0     C44448   8.388   1.430   4.779 -0.4168 -0.7812 -0.1376
  330MOL0     C44449   8.478   1.419   4.670 -0.9656  0.4115  0.3427
  330MOL0     O44450   8.584   1.508   4.676 -0.7214 -0.6486  0.2049
  330MOL0     C44451   8.685   1.515   4.572  0.9094 -0.4117  0.5836
  330MOL0     C44452   8.812   1.436   4.600  0.1064 -0.3240  0.1856
  330MOL0     C44453   8.901   1.406   4.473 -0.5544 -1.0863 -0.0520
  330MOL0     C44454   9.005   1.288   4.491 -0.6632 -0.3523  0.8624
  330MOL0     C44455   9.028   1.216   4.356 -0.3243  0.1640 -0.1270
  330MOL0     C44456   9.153   1.131   4.368  0.3850  0.1332  0.1386
  330MOL0     C44457   9.171   1.039   4.488  0.4807  0.1127  0.4217
  330MOL0     C44458   9.295   0.954   4.473  0.1532  0.6520 -0.5951
  330MOL0    Cl44459   9.446   1.053   4.502  0.1904  0.1456  0.1598
  330MOL0     C44460   8.460   1.328   4.562 -0.6712 -0.3798 -0.1332
  330MOL0     C44461   8.356   1.240   4.569  0.8422 -0.1132  0.6634
  330MOL0     O44462   8.258   1.016   4.835 -0.5712  0.1296  0.3725
  330MOL0     C44463   8.067   0.809   4.779 -0.4172 -0.2091  0.0080
  330MOL0     C44464   7.965   0.716   4.779  0.2851 -0.3902 -0.0432
  330MOL0     N44465   7.584   0.434   4.147  0.0335  0.5339 -0.4414
  330MOL0     N44466   7.479   0.458   4.068  0.3147 -0.5625 -1.0657
  330MOL0     C44467   6.229   0.923   4.117 -0.0131 -0.6956  0.0055
  330MOL0     C44468   6.106   0.981   4.150 -0.0814  0.5787 -0.4017
  330MOL0     C44469   5.711   1.213   4.130  0.1511 -0.0168 -0.0464
  330MOL0     C44470   5.600   1.131   4.091 -0.1453  0.5793  0.6973
  330MOL0     C44471   5.477   1.189   4.078 -0.5710 -0.2291  0.9270
  330MOL0     C44472   5.461   1.330   4.106 -0.1163 -0.5011 -0.5832
  330MOL0     O44473   5.336   1.384   4.134  0.2814  0.8052 -0.5316
  330MOL0     C44474   5.218   1.303   4.154  0.3234  0.5409  0.1274
  330MOL0     C44475   5.110   1.381   4.230 -0.5088 -0.4400  0.0244
  330MOL0     C44476   4.965   1.325   4.237  0.1194 -0.1738  0.1076
  330MOL0     C44477   4.866   1.409   4.321  1.0764  0.0763 -0.4468
  330MOL0     C44478   4.726   1.384   4.290  0.4710  0.2534 -0.1920
  330MOL0     C44479   4.614   1.368   4.259 -0.4123 -0.8678 -0.1937
  330MOL0     C44480   5.562   1.408   4.150 -0.2354 -0.7643  1.0010
  330MOL0     C44481   5.687   1.350   4.168 -0.2329 -0.1006 -0.0933
  330MOL0     C44482   5.799   1.439   4.208 -1.0048 -0.3948 -0.4595
  330MOL0     H44483   5.930   0.913   3.866 -0.1626 -0.3242 -0.1045
  330MOL0     H44484   6.162   0.784   3.819  0.5272 -0.4087  0.9331
  330MOL0     H44485   6.519   0.866   4.082  2.6277 -1.8154 -2.0632
  330MOL0     H44486   6.431   0.722   4.141  3.0721 -3.8873  0.2686
  330MOL0     H44487   6.621   0.747   3.900 -0.0002  0.2535  0.5038
  330MOL0     H44488   6.532   0.597   3.940  1.4136 -0.7989 -2.3993
  330MOL0     H44489   6.643   0.579   4.142  3.6390 -1.7689 -1.0785
  330MOL0     H44490   6.704   0.747   4.130 -2.0022 -0.1452  0.5614
  330MOL0     H44491   6.783   0.530   3.927 -2.5316  0.6166 -0.4110
  330MOL0     H44492   6.861   0.684   3.955  0.3248 -0.4606 -1.0232
  330MOL0     H44493   6.955   0.597   4.162 -1.0697 -0.0269  1.7229
  330MOL0     H44494   6.861   0.449   4.160  0.1592 -2.1376 -1.3316
  330MOL0     H44495   6.959   0.360   3.985  1.1766 -0.3452  0.3741
  330MOL0     H44496   7.038   0.513   3.929  2.1532  0.3930 -0.1203
  330MOL0     H44497   7.200   0.344   4.010  2.3024  1.8411 -0.7679
  330MOL0     H44498   7.127   0.343   4.172 -2.6396  0.1196  0.3857
  330MOL0     H44499   7.246   0.574   4.023  0.6323  3.4951  1.0732
  330MOL0     H44500   7.190   0.586   4.188  2.3820 -0.6232  2.0171
  330MOL0     H44501   7.348   0.465   4.375  1.8909  0.8497  1.2444
  330MOL0     H44502   7.552   0.323   4.464  0.8630 -1.6529 -1.4629
  330MOL0     H44503   7.693   0.322   4.362 -0.8216  0.1166 -0.3471
  330MOL0     H44504   7.745   0.463   4.544  1.0046  1.9500 -0.7986
  330MOL0     H44505   7.715   0.564   4.398  2.9256 -2.3479 -0.0754
  330MOL0     H44506   7.527   0.521   4.642  1.8597 -0.2838 -0.0936
  330MOL0     H44507   7.486   0.616   4.497 -0.8652 -0.0704  1.0439
  330MOL0     H44508   7.549   0.753   4.683  1.5579  1.5054  0.2085
  330MOL0     H44509   7.649   0.774   4.538 -2.6485  1.4038  0.3033
  330MOL0     H44510   7.721   0.939   4.671 -0.1971 -0.6844 -0.6737
  330MOL0     H44511   7.899   1.095   4.681  2.4404 -0.2997 -0.0639
  330MOL0     H44512   8.213   1.356   4.858 -1.1301  0.2074 -0.7090
  330MOL0     H44513   8.392   1.508   4.854 -1.9056 -1.8922  1.1535
  330MOL0     H44514   8.646   1.498   4.471 -0.6183 -1.4110  1.2959
  330MOL0     H44515   8.712   1.621   4.572 -0.0214 -0.0377 -3.0054
  330MOL0     H44516   8.870   1.485   4.678  0.8326 -0.7105 -0.0963
  330MOL0     H44517   8.779   1.335   4.624 -0.0711 -1.2410 -3.2797
  330MOL0     H44518   8.834   1.366   4.396  0.6887 -0.8455 -1.3061
  330MOL0     H44519   8.937   1.495   4.421 -0.3597 -1.9654 -1.4836
  330MOL0     H44520   8.965   1.226   4.572 -5.2437 -0.0191 -0.8257
  330MOL0     H44521   9.095   1.335   4.530  0.9657 -1.4505 -1.3561
  330MOL0     H44522   9.041   1.287   4.274  1.1427  0.0705  0.0011
  330MOL0     H44523   8.943   1.153   4.327  0.9756 -1.7658  0.1232
  330MOL0     H44524   9.145   1.057   4.287  0.4841 -0.2319  0.4602
  330MOL0     H44525   9.239   1.199   4.361  1.0531 -0.7421 -0.4351
  330MOL0     H44526   9.083   0.976   4.503 -1.2737  2.5513  0.8953
  330MOL0     H44527   9.173   1.095   4.582 -0.4340  2.8479 -1.1184
  330MOL0     H44528   9.296   0.874   4.548  0.2590  1.5203  0.3439
  330MOL0     H44529   9.306   0.906   4.376 -1.3922  1.5309 -1.2438
  330MOL0     H44530   8.531   1.322   4.480  0.6137 -2.1465  1.0338
  330MOL0     H44531   8.323   1.182   4.483  1.2355  2.1334 -1.0987
  330MOL0     H44532   8.168   0.787   4.814 -1.0600 -3.1704  0.2565
  330MOL0     H44533   7.989   0.612   4.799  0.0384 -0.5454 -0.5400
  330MOL0     H44534   6.303   0.932   4.196 -1.8427  1.0449  1.6134
  330MOL0     H44535   6.100   1.035   4.244  0.0380  0.8030 -0.5233
  330MOL0     H44536   5.624   1.031   4.057  0.0551  0.6499  0.6231
  330MOL0     H44537   5.396   1.130   4.035 -1.5457  0.6383  1.5332
  330MOL0     H44538   5.240   1.215   4.215 -2.7948 -0.0992  0.5304
  330MOL0     H44539   5.178   1.275   4.056 -1.8483  1.3058  0.7173
  330MOL0     H44540   5.093   1.476   4.177 -0.8404 -1.1222 -1.1414
  330MOL0     H44541   5.146   1.402   4.331 -2.4128  0.7940  0.5123
  330MOL0     H44542   4.961   1.231   4.293  0.7507  1.1948  2.5783
  330MOL0     H44543   4.933   1.322   4.132  0.1361  0.0506  0.0954
  330MOL0     H44544   4.879   1.404   4.429  0.0411 -3.4293 -0.3583
  330MOL0     H44545   4.881   1.514   4.295 -0.9883  1.1406  2.2379
  330MOL0     H44546   4.508   1.374   4.247 -0.2088  2.5744 -1.2576
  330MOL0     H44547   5.544   1.513   4.169 -0.3784 -0.8211  1.1811
  330MOL0     H44548   5.767   1.535   4.167 -3.4612 -1.5678 -1.4672
  330MOL0     H44549   5.798   1.460   4.315  0.4474  3.0865 -1.0046
  330MOL0     H44550   5.900   1.419   4.170 -0.4418  3.2660 -1.2801
  331MOL0     O44551   6.227   4.753   8.267  1.5059 -0.4727  0.0089
  331MOL0     C44552   6.179   4.844   8.197  0.8681 -0.3244  1.2138
  331MOL0     O44553   6.255   4.923   8.115 -0.0331 -0.0113 -0.6616
  331MOL0     C44554   6.387   4.945   8.140 -0.2096 -0.8667 -0.0082
  331MOL0     C44555   6.473   4.963   8.035 -0.6609 -0.6160  0.9449
  331MOL0     C44556   6.610   4.991   8.063  0.0056  0.2828  0.6549
  331MOL0     C44557   6.661   4.987   8.194 -0.0195 -0.6281  0.4008
  331MOL0     O44558   6.787   5.016   8.236 -0.1873 -0.1330  0.3017
  331MOL0     C44559   6.894   5.032   8.152 -1.1313 -0.1725 -0.3523
  331MOL0     C44560   7.028   5.029   8.222  0.3086 -0.6376 -0.1582
  331MOL0     C44561   7.065   5.153   8.302  0.9263 -0.5993 -0.5110
  331MOL0     C44562   7.190   5.133   8.389  0.5874  0.2927 -0.4531
  331MOL0     C44563   7.231   5.263   8.453  0.2756  0.8224 -0.4740
  331MOL0     C44564   7.343   5.244   8.550  0.1310  0.0327 -0.3112
  331MOL0     C44565   7.391   5.369   8.623  0.5208  0.3850  0.3659
  331MOL0     C44566   7.454   5.463   8.525 -0.3100 -0.0286  0.1868
  331MOL0     N44567   7.566   5.412   8.446  0.3373 -0.3933 -0.3731
  331MOL0     C44568   7.682   5.365   8.501 -0.8062 -0.6394 -0.1769
  331MOL0     C44569   7.734   5.291   8.400 -0.1457 -0.0807 -0.9644
  331MOL0     C44570   7.848   5.200   8.409  0.2643 -0.4823 -0.1427
  331MOL0     C44571   7.810   5.079   8.503 -0.7579  0.4817 -0.1318
  331MOL0     C44572   7.876   4.951   8.467  0.3564  0.0079 -0.3919
  331MOL0     C44573   8.009   4.935   8.533 -0.0623 -0.5026 -0.1352
  331MOL0     O44574   8.086   5.056   8.513 -0.5002  0.0033 -0.8931
  331MOL0     C44575   8.221   5.050   8.482 -0.4033 -0.0009 -0.2261
  331MOL0     C44576   8.279   5.132   8.388 -0.6698 -0.7114 -0.0233
  331MOL0     C44577   8.416   5.136   8.365 -0.3439  0.3538 -0.5370
  331MOL0     C44578   8.503   5.045   8.438  0.0554 -0.5844  0.3058
  331MOL0     C44579   8.651   5.071   8.431 -0.6525  0.0129 -0.4198
  331MOL0     O44580   8.735   4.992   8.505 -0.6303 -0.4145 -0.4499
  331MOL0     C44581   8.876   4.998   8.495  0.2070  0.0416  1.5873
  331MOL0     C44582   8.950   5.071   8.396 -0.1648  0.2966  0.3883
  331MOL0     C44583   9.096   5.075   8.409  1.2815  0.1633 -0.1978
  331MOL0     C44584   9.164   5.012   8.505 -0.5295 -0.0027  0.5267
  331MOL0     O44585   9.300   5.023   8.513  0.6056  0.1802 -0.3306
  331MOL0     C44586   9.381   5.036   8.388 -0.0285 -0.2269  0.1042
  331MOL0     C44587   9.500   4.948   8.405  0.4667  0.5677  1.4609
  331MOL0     C44588   9.577   4.974   8.530 -0.3450 -0.2867 -0.2184
  331MOL0     C44589   9.712   4.893   8.530  0.1546 -0.6723  0.1446
  331MOL0     C44590   9.804   4.934   8.647 -1.1871  1.1904  0.2929
  331MOL0     C44591   9.941   4.871   8.648  0.2563 -0.5410  0.0978
  331MOL0     C44592  10.036   4.940   8.744  0.3415 -1.3681  0.0135
  331MOL0     C44593  10.162   4.880   8.789  0.2531 -0.1460 -0.1321
  331MOL0    Cl44594  10.138   4.763   8.917  0.2560 -0.0283 -0.4469
  331MOL0     C44595   9.091   4.935   8.590  0.0357  0.2634  0.1973
  331MOL0     C44596   8.946   4.929   8.597  0.4429 -0.3307  0.3018
  331MOL0     O44597   8.686   5.172   8.363 -0.2673 -0.9990  0.4946
  331MOL0     C44598   8.439   4.959   8.532 -0.1236  0.3715 -0.3013
  331MOL0     C44599   8.303   4.963   8.560 -0.4680 -0.2809 -0.0156
  331MOL0     N44600   7.655   5.296   8.290 -1.1863  0.5957  0.0970
  331MOL0     N44601   7.555   5.367   8.313  0.9483  0.0310 -0.7442
  331MOL0     C44602   6.576   4.965   8.300 -0.4165  0.5721 -0.3872
  331MOL0     C44603   6.437   4.949   8.276 -1.0056 -0.0762  0.5688
  331MOL0     C44604   6.029   4.846   8.173  0.5836 -0.2895  0.4198
  331MOL0     C44605   5.967   4.720   8.180  0.7690 -0.6708 -0.1162
  331MOL0     C44606   5.829   4.711   8.151  0.3405  0.0922 -0.6320
  331MOL0     C44607   5.754   4.823   8.118 -0.4378  0.5284  0.0128
  331MOL0     O44608   5.621   4.801   8.106  0.4043  0.2759  0.0835
  331MOL0     C44609   5.539   4.910   8.063  0.0159 -0.2779 -0.3240
  331MOL0     C44610   5.404   4.857   8.014  1.2110 -0.0944 -0.4615
  331MOL0     C44611   5.318   4.786   8.122 -0.5879 -0.1698  0.8794
  331MOL0     C44612   5.201   4.720   8.054  0.2995 -0.4710 -0.5317
  331MOL0     C44613   5.105   4.822   8.004 -0.2056 -0.5700  0.2455
  331MOL0     C44614   5.038   4.914   7.970  0.2914  0.4213 -1.3207
  331MOL0     C44615   5.818   4.946   8.109  0.5663  0.4088 -0.8517
  331MOL0     C44616   5.955   4.961   8.135 -0.4618  0.1589 -0.7046
  331MOL0     C44617   6.015   5.106   8.127  0.5454  0.7626 -1.1752
  331MOL0     H44618   6.436   4.961   7.933  1.5844  1.7189 -0.0370
  331MOL0     H44619   6.669   5.015   7.974 -0.9601 -3.9389 -1.3728
  331MOL0     H44620   6.903   4.949   8.081 -0.5712  0.9872 -1.7015
  331MOL0     H44621   6.892   5.122   8.090  3.5228 -0.6235 -1.5367
  331MOL0     H44622   7.101   5.013   8.143 -0.6234 -0.1000 -1.1589
  331MOL0     H44623   7.036   4.941   8.287  1.2164  0.5116  1.3463
  331MOL0     H44624   6.982   5.184   8.367 -0.7323  1.3005 -3.2880
  331MOL0     H44625   7.075   5.242   8.239 -5.0388  1.7037  1.0519
  331MOL0     H44626   7.156   5.069   8.471  0.8632  2.0073  1.0701
  331MOL0     H44627   7.270   5.090   8.329 -0.0703 -2.1409  0.2907
  331MOL0     H44628   7.258   5.336   8.376 -0.5896  0.0342 -1.5581
  331MOL0     H44629   7.153   5.320   8.505  0.6578  0.0739  0.9850
  331MOL0     H44630   7.305   5.176   8.626 -0.3451  0.4361 -0.1839
  331MOL0     H44631   7.437   5.202   8.513  1.6800  0.0925  3.1436
  331MOL0     H44632   7.473   5.341   8.690  1.6278 -0.8530 -1.3981
  331MOL0     H44633   7.308   5.413   8.678 -1.5979 -2.1357 -0.6000
  331MOL0     H44634   7.376   5.494   8.455 -0.4919 -2.3918 -0.7668
  331MOL0     H44635   7.483   5.550   8.585  1.2941 -0.5988  0.3077
  331MOL0     H44636   7.717   5.365   8.603  3.2034  0.4422 -1.3580
  331MOL0     H44637   7.878   5.171   8.308 -1.2547  0.9279 -1.0394
  331MOL0     H44638   7.942   5.248   8.437 -0.3072  0.3479  0.3966
  331MOL0     H44639   7.839   5.110   8.604  0.8419  1.7252 -0.9322
  331MOL0     H44640   7.702   5.067   8.515 -0.3582 -1.1662  2.9173
  331MOL0     H44641   7.886   4.948   8.359 -0.7690  1.2762 -0.5533
  331MOL0     H44642   7.809   4.872   8.503  2.4500 -0.7041  2.2657
  331MOL0     H44643   8.067   4.852   8.492  0.9805 -0.6309  1.5007
  331MOL0     H44644   7.991   4.916   8.639  2.1170  2.2309  0.8525
  331MOL0     H44645   8.222   5.203   8.329 -0.7061  0.5984  1.5083
  331MOL0     H44646   8.453   5.199   8.285  1.4226  1.1787  0.8812
  331MOL0     H44647   8.900   5.128   8.319 -2.4681  3.2236  3.7156
  331MOL0     H44648   9.153   5.146   8.348 -0.2188  2.4580  0.9390
  331MOL0     H44649   9.328   5.002   8.298 -0.3623 -1.1371  0.6313
  331MOL0     H44650   9.422   5.136   8.370 -1.6583  0.4754  0.1131
  331MOL0     H44651   9.454   4.848   8.410 -2.4878  1.7249 -0.0068
  331MOL0     H44652   9.563   4.949   8.316  1.7100  0.5481  2.3257
  331MOL0     H44653   9.600   5.081   8.530 -4.6680  1.0155  4.2802
  331MOL0     H44654   9.515   4.953   8.618 -1.6881  0.7025 -0.8774
  331MOL0     H44655   9.761   4.921   8.436  3.5961 -0.1790  1.9248
  331MOL0     H44656   9.684   4.788   8.525 -0.9795 -0.3308 -1.3932
  331MOL0     H44657   9.759   4.898   8.740 -2.8451  2.4504  0.0413
  331MOL0     H44658   9.805   5.044   8.651 -3.0555  1.3869 -1.9789
  331MOL0     H44659   9.922   4.763   8.652 -1.8110 -0.2624 -0.6731
  331MOL0     H44660   9.980   4.900   8.550 -2.2424 -0.4450 -0.9290
  331MOL0     H44661   9.980   4.966   8.835 -2.4953 -1.6541 -1.5445
  331MOL0     H44662  10.072   5.028   8.691 -0.4657 -0.0976  1.5094
  331MOL0     H44663  10.223   4.831   8.712  0.5293 -2.4544  1.4789
  331MOL0     H44664  10.220   4.960   8.836  0.6829  0.5706 -1.7679
  331MOL0     H44665   9.143   4.895   8.677 -0.0334 -2.0519 -0.7438
  331MOL0     H44666   8.898   4.858   8.664  2.1768 -2.9091 -1.0186
  331MOL0     H44667   8.508   4.886   8.571  0.7372  0.9390 -0.7303
  331MOL0     H44668   8.255   4.900   8.635 -1.3792  0.6779  0.2372
  331MOL0     H44669   6.597   4.964   8.406 -2.3554 -1.8185  0.0878
  331MOL0     H44670   6.368   4.932   8.358  0.3331 -1.2422  1.5144
  331MOL0     H44671   6.024   4.628   8.191  1.3246 -0.2918  0.2432
  331MOL0     H44672   5.782   4.613   8.156  2.2024 -0.8867 -1.2677
  331MOL0     H44673   5.585   4.950   7.972  0.6813 -2.3070 -0.9144
  331MOL0     H44674   5.528   4.992   8.135 -0.0122  0.5952 -1.2969
  331MOL0     H44675   5.422   4.787   7.932 -0.6776  0.8123 -1.7343
  331MOL0     H44676   5.338   4.939   7.983 -1.2530 -0.9237  2.1731
  331MOL0     H44677   5.281   4.843   8.207  0.0593 -3.4857  3.6236
  331MOL0     H44678   5.371   4.698   8.161 -0.2125  0.7488  2.5080
  331MOL0     H44679   5.235   4.661   7.969  0.8223  1.1107 -1.4491
  331MOL0     H44680   5.157   4.652   8.129  4.1601 -4.9883 -1.8967
  331MOL0     H44681   4.993   5.006   7.939  1.1993  1.6109  0.6848
  331MOL0     H44682   5.757   5.035   8.094 -0.0118  0.1419 -0.1226
  331MOL0     H44683   5.948   5.184   8.163  0.9570  0.8517 -0.5924
  331MOL0     H44684   6.097   5.123   8.197 -1.2830 -0.6183  1.4787
  331MOL0     H44685   6.057   5.127   8.028  0.8658  1.4199 -0.9068
  332MOL0     O44686   0.191   7.910   6.025  0.5120  0.7455 -0.4705
  332MOL0     C44687   0.142   8.010   5.976 -0.1137  0.5030  0.0597
  332MOL0     O44688   0.217   8.121   5.952 -0.5609 -0.9921 -0.0408
  332MOL0     C44689   0.356   8.121   5.957  0.3504  0.6418  0.4378
  332MOL0     C44690   0.417   8.129   5.832  1.0915 -0.0086  0.6110
  332MOL0     C44691   0.552   8.132   5.815 -0.0068  0.0738  0.4097
  332MOL0     C44692   0.641   8.108   5.923  0.7461  0.4603  0.2313
  332MOL0     O44693   0.772   8.087   5.916  0.3623  0.1959 -0.1659
  332MOL0     C44694   0.848   8.199   5.863 -0.1802 -0.1098  0.0970
  332MOL0     C44695   0.996   8.173   5.900  0.3440 -0.2820 -0.3337
  332MOL0     C44696   1.084   8.080   5.808 -0.2563 -0.4833 -0.3189
  332MOL0     C44697   1.229   8.101   5.823 -0.4919  0.2893 -0.3388
  332MOL0     C44698   1.293   8.063   5.952 -0.7460  0.5977 -0.1526
  332MOL0     C44699   1.444   8.075   5.956  0.4903 -0.0537 -0.0029
  332MOL0     C44700   1.501   8.067   6.096 -0.0872 -0.0971  0.4674
  332MOL0     C44701   1.653   8.095   6.116  0.5240 -0.3495 -0.1542
  332MOL0     N44702   1.702   8.228   6.074  0.9901  0.0260 -0.8081
  332MOL0     C44703   1.698   8.352   6.146  0.8036  0.4480 -0.4292
  332MOL0     C44704   1.767   8.438   6.068  0.0400 -0.6993  0.5896
  332MOL0     C44705   1.790   8.586   6.082  0.5709 -0.9892  0.1270
  332MOL0     C44706   1.943   8.607   6.100 -1.1494  0.3474 -0.7449
  332MOL0     C44707   1.998   8.544   6.233 -0.0169  0.0653 -0.1018
  332MOL0     C44708   1.967   8.624   6.355  0.2401 -0.4067 -0.7986
  332MOL0     O44709   2.029   8.754   6.359 -0.2529 -0.2293 -0.7869
  332MOL0     C44710   2.156   8.770   6.399 -0.8412 -0.0925  0.2834
  332MOL0     C44711   2.257   8.784   6.310 -1.0875  0.0320  0.6778
  332MOL0     C44712   2.394   8.765   6.345  0.0260 -0.2581 -0.4766
  332MOL0     C44713   2.426   8.735   6.471 -0.4086  0.4670  0.3771
  332MOL0     C44714   2.567   8.722   6.504 -0.3022 -0.4595 -0.5727
  332MOL0     O44715   2.590   8.706   6.636  0.2327 -0.5060 -0.6704
  332MOL0     C44716   2.707   8.658   6.686  0.4196 -0.9228 -0.5609
  332MOL0     C44717   2.819   8.608   6.615  0.4084 -0.1863  0.2110
  332MOL0     C44718   2.921   8.559   6.697 -0.1761  0.4129  0.1487
  332MOL0     C44719   2.922   8.562   6.837 -0.4522 -0.1046 -0.4843
  332MOL0     O44720   3.024   8.494   6.915  0.0607  0.3332  0.0435
  332MOL0     C44721   3.023   8.509   7.053  0.2340 -0.1470  0.1123
  332MOL0     C44722   3.152   8.450   7.106 -0.4950 -0.0244 -0.3543
  332MOL0     C44723   3.278   8.520   7.076 -0.8901 -0.3116 -0.2351
  332MOL0     C44724   3.399   8.450   7.140 -0.0279  0.2644  0.4583
  332MOL0     C44725   3.521   8.534   7.095  0.6373  0.1156 -1.0797
  332MOL0     C44726   3.656   8.476   7.146 -0.8009 -0.0691  0.0165
  332MOL0     C44727   3.675   8.497   7.296 -0.6650 -0.5485 -0.4387
  332MOL0     C44728   3.823   8.499   7.331  0.9072 -0.1064  0.7055
  332MOL0    Cl44729   3.918   8.633   7.245  0.4865  0.1050 -0.1352
  332MOL0     C44730   2.811   8.617   6.902  0.1055  0.3626 -0.6213
  332MOL0     C44731   2.703   8.660   6.830  0.4316  0.1407  0.5037
  332MOL0     O44732   2.653   8.737   6.420  0.0448  0.1243 -0.1590
  332MOL0     C44733   2.327   8.726   6.564 -0.1342  0.4054 -0.3116
  332MOL0     C44734   2.190   8.748   6.532 -0.2923  0.1436  0.4632
  332MOL0     N44735   1.799   8.365   5.946  0.9361 -0.2920  0.2741
  332MOL0     N44736   1.759   8.243   5.955  0.0618 -0.7284  0.5416
  332MOL0     C44737   0.576   8.089   6.051  0.5510 -0.7563  1.3076
  332MOL0     C44738   0.437   8.105   6.068  0.5022  0.5095 -0.6321
  332MOL0     C44739  -0.010   8.032   5.957  0.2010 -0.1783  0.2391
  332MOL0     C44740  -0.053   8.149   5.900  0.5195 -0.0966  0.0225
  332MOL0     C44741  -0.186   8.157   5.851 -0.5817  0.0171  0.3767
  332MOL0     C44742  -0.272   8.057   5.871  0.9995  0.7294 -0.2618
  332MOL0     O44743  -0.413   8.056   5.844 -0.2207 -0.4265  0.1350
  332MOL0     C44744  -0.467   8.189   5.813  0.5696  0.5665 -0.1916
  332MOL0     C44745  -0.615   8.164   5.780 -1.2731  0.2942  0.0151
  332MOL0     C44746  -0.638   8.079   5.656  0.2539  0.2056  0.3628
  332MOL0     C44747  -0.785   8.040   5.612 -0.5640  0.2089 -0.5192
  332MOL0     C44748  -0.865   8.163   5.584 -0.0609 -0.1978 -0.1701
  332MOL0     C44749  -0.950   8.248   5.554  0.5080 -0.0779  0.3705
  332MOL0     C44750  -0.232   7.940   5.936  0.0717 -0.2396 -1.1276
  332MOL0     C44751  -0.098   7.926   5.986 -0.1682 -0.3840  0.1488
  332MOL0     C44752  -0.053   7.792   6.047 -0.3891 -0.5069  0.2040
  332MOL0     H44753   0.348   8.136   5.748  0.3030  0.1068  1.2579
  332MOL0     H44754   0.599   8.137   5.717  0.3564 -0.7517  0.5388
  332MOL0     H44755   0.828   8.215   5.757  0.7996 -0.0403 -0.0876
  332MOL0     H44756   0.815   8.290   5.913 -1.8264 -1.5725  1.8348
  332MOL0     H44757   0.999   8.150   6.007 -0.4875  1.1539  0.0362
  332MOL0     H44758   1.041   8.273   5.896  2.5238 -1.0756  1.9012
  332MOL0     H44759   1.053   8.095   5.704  5.2926 -0.9924 -2.3984
  332MOL0     H44760   1.072   7.973   5.828  0.8015 -0.7882 -1.2179
  332MOL0     H44761   1.267   8.049   5.735 -0.6862 -0.3584 -0.0458
  332MOL0     H44762   1.243   8.209   5.808 -2.5654  0.9578  1.8029
  332MOL0     H44763   1.231   8.113   6.027 -0.7060 -1.2929  1.2252
  332MOL0     H44764   1.276   7.956   5.969  0.1376  0.2958 -1.0642
  332MOL0     H44765   1.491   7.996   5.898  1.7583 -0.3614  1.3916
  332MOL0     H44766   1.472   8.174   5.916 -0.4756  1.5377  2.9572
  332MOL0     H44767   1.489   7.972   6.150  1.4139 -0.6001 -0.0365
  332MOL0     H44768   1.445   8.144   6.150  1.4378  1.2461  0.2005
  332MOL0     H44769   1.671   8.095   6.224 -0.1376  4.0686  0.1024
  332MOL0     H44770   1.727   8.027   6.072 -0.6528 -1.3464 -0.6630
  332MOL0     H44771   1.650   8.361   6.242  0.3415 -0.7272 -0.5337
  332MOL0     H44772   1.757   8.639   5.992  1.2390 -0.5084  0.1543
  332MOL0     H44773   1.730   8.633   6.161 -0.9332  1.2882 -2.2285
  332MOL0     H44774   1.994   8.563   6.014  0.8984 -0.7030  0.9105
  332MOL0     H44775   1.966   8.714   6.104 -1.7375  0.5138 -1.5339
  332MOL0     H44776   2.105   8.536   6.213  0.2906 -1.7091  1.8369
  332MOL0     H44777   1.957   8.443   6.246  0.8152 -0.4050 -0.9854
  332MOL0     H44778   1.990   8.570   6.447 -2.9907 -0.4109  0.1583
  332MOL0     H44779   1.857   8.630   6.357  0.2820  2.2438  2.0341
  332MOL0     H44780   2.236   8.791   6.204  1.1014 -2.1898  0.0138
  332MOL0     H44781   2.472   8.782   6.271  1.1164 -0.6776  0.5484
  332MOL0     H44782   2.821   8.588   6.508  2.4276  0.5285  0.0834
  332MOL0     H44783   3.006   8.514   6.645  1.0150  0.4770  1.9487
  332MOL0     H44784   3.013   8.608   7.099 -0.5322 -1.3496  2.7091
  332MOL0     H44785   2.946   8.444   7.095  1.4100 -1.5181  0.1800
  332MOL0     H44786   3.134   8.442   7.214 -3.1314  0.4958 -0.7027
  332MOL0     H44787   3.163   8.346   7.072  2.0318 -1.3752  3.7736
  332MOL0     H44788   3.293   8.537   6.969 -1.9460  0.7538 -0.2367
  332MOL0     H44789   3.273   8.620   7.119 -0.6093  0.3396 -1.6640
  332MOL0     H44790   3.406   8.347   7.102 -1.3572 -0.0854  1.1120
  332MOL0     H44791   3.397   8.444   7.249  0.5709 -2.0045  0.4062
  332MOL0     H44792   3.511   8.635   7.135  0.3231 -0.9247  1.7210
  332MOL0     H44793   3.524   8.542   6.986 -1.6060  1.4629 -1.1014
  332MOL0     H44794   3.664   8.369   7.122  0.2408 -0.1241  0.5395
  332MOL0     H44795   3.725   8.529   7.080 -2.6627 -0.7985 -2.6670
  332MOL0     H44796   3.613   8.429   7.356  0.7487 -0.2873  1.4093
  332MOL0     H44797   3.647   8.602   7.306 -0.0304  0.0240 -3.4498
  332MOL0     H44798   3.841   8.520   7.437 -0.8070  1.4608  0.7192
  332MOL0     H44799   3.856   8.397   7.310  2.1955  0.1721  1.2395
  332MOL0     H44800   2.795   8.622   7.010 -2.7405  1.6144 -1.0034
  332MOL0     H44801   2.613   8.702   6.874 -0.1530  1.8731 -2.1255
  332MOL0     H44802   2.338   8.695   6.668  3.7268 -1.5901 -1.1478
  332MOL0     H44803   2.114   8.726   6.607  0.1229  1.8932  1.4487
  332MOL0     H44804   0.643   8.077   6.135  0.2818 -2.0406  1.3567
  332MOL0     H44805   0.396   8.116   6.168 -0.4151  0.7965 -1.0314
  332MOL0     H44806   0.011   8.237   5.895 -0.2810  0.6506  2.1410
  332MOL0     H44807  -0.219   8.250   5.805 -2.9877 -2.6275 -3.9304
  332MOL0     H44808  -0.422   8.236   5.725 -0.1158  0.6230 -0.5190
  332MOL0     H44809  -0.445   8.244   5.905 -0.5948 -2.9858  2.4382
  332MOL0     H44810  -0.661   8.263   5.774  0.3605  1.0643 -0.1037
  332MOL0     H44811  -0.655   8.117   5.870  0.4546 -0.9531  0.1836
  332MOL0     H44812  -0.583   7.986   5.674  0.1919  0.3943  1.6541
  332MOL0     H44813  -0.585   8.131   5.576 -1.1638 -1.0214 -1.4416
  332MOL0     H44814  -0.784   7.979   5.521  0.0633 -0.2125 -0.2399
  332MOL0     H44815  -0.818   7.977   5.695  1.1008 -2.8398 -1.9978
  332MOL0     H44816  -1.019   8.325   5.525  1.7086  0.4516 -1.2040
  332MOL0     H44817  -0.303   7.859   5.948 -1.7541  1.2209 -1.6405
  332MOL0     H44818  -0.133   7.728   6.085 -0.0510 -1.1031 -0.0595
  332MOL0     H44819   0.003   7.743   5.967 -0.0669  1.8655 -1.1161
  332MOL0     H44820   0.020   7.814   6.125  0.1982 -1.2191 -0.1306
  333MOL0     O44821   7.804   2.614   0.389  0.4573 -0.2124  0.1249
  333MOL0     C44822   7.891   2.670   0.324  0.1628 -0.3951 -0.0607
  333MOL0     O44823   7.885   2.796   0.279  0.0977 -0.1516 -0.1421
  333MOL0     C44824   7.779   2.881   0.312 -0.1187  0.0224  0.3695
  333MOL0     C44825   7.777   3.005   0.248  0.1570 -0.1616  0.6616
  333MOL0     C44826   7.696   3.111   0.282  0.4904  0.1474  0.5784
  333MOL0     C44827   7.619   3.100   0.402 -0.4924  0.6907 -0.2872
  333MOL0     O44828   7.563   3.221   0.448 -0.1982 -0.3586 -0.1477
  333MOL0     C44829   7.429   3.222   0.494  0.1326  0.0170  0.6918
  333MOL0     C44830   7.334   3.290   0.404  0.4541 -1.2810 -0.5216
  333MOL0     C44831   7.197   3.277   0.461 -0.0676  0.1123 -0.6354
  333MOL0     C44832   7.082   3.357   0.387  0.1341  0.3737  0.6267
  333MOL0     C44833   7.046   3.289   0.245  0.5351  0.4930  0.7500
  333MOL0     C44834   6.949   3.374   0.163 -0.5015 -0.0920 -0.5034
  333MOL0     C44835   6.805   3.344   0.215  0.5656 -0.5610  0.6240
  333MOL0     C44836   6.704   3.405   0.107  0.0310 -0.3245  0.1861
  333MOL0     N44837   6.660   3.535   0.142 -0.0321  0.7185  0.5317
  333MOL0     C44838   6.702   3.656   0.093 -0.1235  0.1408  0.1431
  333MOL0     C44839   6.630   3.750   0.163  0.8230  0.1271 -0.0117
  333MOL0     C44840   6.644   3.896   0.124  0.6419  0.1925  0.0491
  333MOL0     C44841   6.750   3.975   0.201 -0.7549 -0.0891  0.3300
  333MOL0     C44842   6.757   4.125   0.165 -0.0892 -0.4562  0.5848
  333MOL0     C44843   6.859   4.162   0.053  0.1445  0.1454  0.0367
  333MOL0     O44844   6.820   4.097  -0.063  0.0942 -0.2839 -0.3372
  333MOL0     C44845   6.916   4.070  -0.161 -0.6642 -0.8208  0.4864
  333MOL0     C44846   7.044   4.138  -0.161  0.1689  0.2484 -0.6441
  333MOL0     C44847   7.144   4.087  -0.234  0.0705  0.4288  0.0296
  333MOL0     C44848   7.125   3.963  -0.308  0.6254  0.5418 -0.5683
  333MOL0     C44849   7.236   3.911  -0.384 -0.3946 -0.0064 -0.5385
  333MOL0     O44850   7.362   3.961  -0.357 -0.6138  0.5083  0.2867
  333MOL0     C44851   7.465   3.907  -0.423  0.4079 -1.3205  0.2187
  333MOL0     C44852   7.516   3.973  -0.530 -0.8091  0.5207 -0.8034
  333MOL0     C44853   7.632   3.933  -0.590 -0.7862 -0.1967 -0.2676
  333MOL0     C44854   7.691   3.811  -0.559  0.4820 -0.7628  0.2086
  333MOL0     O44855   7.812   3.765  -0.615 -0.2443  0.5810 -0.6884
  333MOL0     C44856   7.870   3.815  -0.738  0.2750  0.1534  0.0880
  333MOL0     C44857   8.000   3.749  -0.777  0.4810 -0.2294 -0.0702
  333MOL0     C44858   7.990   3.598  -0.749 -0.2139  0.3986 -0.3713
  333MOL0     C44859   8.111   3.511  -0.795  0.4214  0.8868 -0.4418
  333MOL0     C44860   8.087   3.360  -0.780  0.8917  0.0130 -0.6875
  333MOL0     C44861   7.990   3.304  -0.889  0.0254 -0.2793 -0.8093
  333MOL0     C44862   8.008   3.152  -0.892  0.3897  0.8083 -0.8841
  333MOL0     C44863   7.930   3.083  -1.005 -0.2907  0.3485 -0.0202
  333MOL0    Cl44864   8.034   3.083  -1.147 -0.3962 -0.2832  0.0824
  333MOL0     C44865   7.625   3.730  -0.461 -0.0413 -0.8590 -1.3565
  333MOL0     C44866   7.516   3.779  -0.391  0.6058 -0.2399  0.2145
  333MOL0     O44867   7.211   3.829  -0.471 -0.1691  0.5633 -0.2578
  333MOL0     C44868   6.996   3.908  -0.309 -0.2185  0.5236  0.4525
  333MOL0     C44869   6.892   3.959  -0.245 -0.7597  0.1471 -0.0353
  333MOL0     N44870   6.549   3.692   0.258  0.0252 -0.1198  0.3612
  333MOL0     N44871   6.571   3.569   0.243  0.2130  0.2861  0.4212
  333MOL0     C44872   7.619   2.971   0.466  0.0155 -0.7318  0.2981
  333MOL0     C44873   7.689   2.859   0.421  0.0638 -0.9543  0.1301
  333MOL0     C44874   8.001   2.584   0.293  0.2245  0.2761  0.3799
  333MOL0     C44875   7.989   2.454   0.246  0.1242  0.4077 -0.1034
  333MOL0     C44876   8.101   2.371   0.232  0.0518 -0.5422 -1.2979
  333MOL0     C44877   8.228   2.424   0.236 -0.6476  0.5241 -0.5646
  333MOL0     O44878   8.342   2.360   0.200 -0.7727  0.1062 -0.0635
  333MOL0     C44879   8.342   2.263   0.084 -0.6498  0.1280  0.3577
  333MOL0     C44880   8.466   2.169   0.090 -0.7217 -0.0947 -0.2917
  333MOL0     C44881   8.602   2.241   0.052  1.4851 -0.9447  0.4011
  333MOL0     C44882   8.710   2.152   0.014  0.0315  0.4112 -0.6969
  333MOL0     C44883   8.798   2.100   0.120 -0.3371  0.2168 -0.4750
  333MOL0     C44884   8.867   2.068   0.205 -0.9031 -0.0660 -0.1289
  333MOL0     C44885   8.240   2.559   0.267  0.7664  0.2444  0.0670
  333MOL0     C44886   8.134   2.644   0.308 -0.0108 -0.5406 -0.0266
  333MOL0     C44887   8.167   2.791   0.371 -0.1043  0.3959  0.0645
  333MOL0     H44888   7.848   3.021   0.167 -0.2418 -0.6115  0.2205
  333MOL0     H44889   7.722   3.210   0.248 -0.8961 -0.3460 -2.2250
  333MOL0     H44890   7.408   3.115   0.510  1.7118 -1.0648 -3.2838
  333MOL0     H44891   7.428   3.277   0.588 -0.1517  3.6007 -1.2358
  333MOL0     H44892   7.333   3.248   0.303 -2.3621  0.8873 -1.5329
  333MOL0     H44893   7.368   3.393   0.392 -1.6343 -0.6761 -1.7593
  333MOL0     H44894   7.195   3.310   0.566  0.9968  0.4388 -0.7011
  333MOL0     H44895   7.174   3.171   0.474  3.5334 -0.6070  1.0122
  333MOL0     H44896   6.991   3.360   0.447 -0.0764  2.0427  0.2856
  333MOL0     H44897   7.108   3.463   0.386 -0.3354  0.6884  4.5213
  333MOL0     H44898   7.139   3.281   0.190 -0.2944 -0.8170 -0.5350
  333MOL0     H44899   7.013   3.186   0.261  1.7886  0.3195  2.5547
  333MOL0     H44900   6.965   3.482   0.173 -0.0467 -0.2632  0.7691
  333MOL0     H44901   6.953   3.350   0.056 -0.9296  0.0959 -0.5644
  333MOL0     H44902   6.789   3.394   0.310  0.0179  0.2818  0.1034
  333MOL0     H44903   6.801   3.235   0.227  1.4493 -0.5989  0.6983
  333MOL0     H44904   6.755   3.402   0.010 -1.3142 -0.5705 -0.5407
  333MOL0     H44905   6.621   3.333   0.103 -0.1274 -0.1826  0.8278
  333MOL0     H44906   6.776   3.675   0.015 -2.9492  1.0467 -2.5297
  333MOL0     H44907   6.642   3.907   0.015 -2.5467 -1.1720 -0.1466
  333MOL0     H44908   6.548   3.940   0.151 -0.8162 -2.5776 -0.3439
  333MOL0     H44909   6.744   3.970   0.310  0.0740  2.4853  0.5362
  333MOL0     H44910   6.852   3.942   0.180 -1.1158 -0.7349 -0.5160
  333MOL0     H44911   6.776   4.182   0.256 -4.6541  2.1539  0.1708
  333MOL0     H44912   6.661   4.153   0.122  0.3342 -1.2739 -0.9949
  333MOL0     H44913   6.960   4.136   0.087  0.8093  1.5074 -0.8218
  333MOL0     H44914   6.855   4.271   0.042 -3.3093  0.4697  2.6125
  333MOL0     H44915   7.042   4.231  -0.106 -1.4742  0.0043 -0.2437
  333MOL0     H44916   7.235   4.141  -0.259 -1.1753  1.4693 -2.7131
  333MOL0     H44917   7.458   4.060  -0.559 -1.5462 -0.3893 -2.1480
  333MOL0     H44918   7.687   3.995  -0.661  1.2165 -0.8173  0.6537
  333MOL0     H44919   7.797   3.799  -0.818  0.7502 -1.3926 -0.0744
  333MOL0     H44920   7.868   3.923  -0.722 -1.3808  0.2094 -0.3015
  333MOL0     H44921   8.019   3.756  -0.885  2.0319 -3.8583 -0.1593
  333MOL0     H44922   8.086   3.799  -0.731 -0.6095  2.5186 -0.7844
  333MOL0     H44923   7.988   3.584  -0.641 -0.6765  1.5837 -0.2199
  333MOL0     H44924   7.904   3.553  -0.799 -0.2805 -0.1619  0.2314
  333MOL0     H44925   8.199   3.545  -0.740 -0.0333 -1.4721  1.9163
  333MOL0     H44926   8.124   3.523  -0.903  0.4858 -0.5542 -0.6080
  333MOL0     H44927   8.039   3.349  -0.682  0.3383  2.3363 -0.6380
  333MOL0     H44928   8.185   3.311  -0.789  0.9842  0.4958 -2.9423
  333MOL0     H44929   7.888   3.340  -0.871  0.7525  1.6088 -0.2228
  333MOL0     H44930   8.018   3.335  -0.990 -4.0203 -0.4616 -2.1706
  333MOL0     H44931   7.982   3.109  -0.795  0.2154 -1.9743 -2.0714
  333MOL0     H44932   8.114   3.125  -0.893  0.6739  1.6590  0.8711
  333MOL0     H44933   7.922   2.978  -0.973  1.1176  0.4199  0.6158
  333MOL0     H44934   7.833   3.132  -1.019 -0.8971 -1.0231 -0.9110
  333MOL0     H44935   7.683   3.642  -0.436  2.2012  0.2221 -2.4420
  333MOL0     H44936   7.475   3.726  -0.305  3.3698 -1.0432  1.1264
  333MOL0     H44937   6.988   3.808  -0.350 -0.4119  0.5318  0.4711
  333MOL0     H44938   6.794   3.916  -0.225 -1.8060  1.9994 -0.8824
  333MOL0     H44939   7.572   2.986   0.563  2.4365 -1.1366  1.6321
  333MOL0     H44940   7.684   2.776   0.490  0.9924  1.9931  4.0856
  333MOL0     H44941   7.892   2.409   0.227 -0.7109  1.8377  0.6473
  333MOL0     H44942   8.090   2.267   0.204  2.0509 -1.1788  0.0538
  333MOL0     H44943   8.338   2.315  -0.012  1.4477 -0.2183  0.0439
  333MOL0     H44944   8.254   2.198   0.092 -0.0966 -1.2656 -3.0579
  333MOL0     H44945   8.445   2.088   0.018  0.4253 -0.0778 -0.6601
  333MOL0     H44946   8.474   2.135   0.193  0.3030  0.4690 -0.1807
  333MOL0     H44947   8.640   2.319   0.119 -0.6830  2.6977 -2.2285
  333MOL0     H44948   8.567   2.292  -0.039 -1.0102 -2.0798  0.6485
  333MOL0     H44949   8.666   2.064  -0.032  2.3299 -1.4096  0.3885
  333MOL0     H44950   8.775   2.198  -0.061  1.4188 -2.6287 -1.4915
  333MOL0     H44951   8.946   2.041   0.272  1.8275  1.6178 -2.4517
  333MOL0     H44952   8.341   2.599   0.260  0.8651  0.1932  1.1206
  333MOL0     H44953   8.275   2.802   0.353 -0.4051  0.4250 -2.0237
  333MOL0     H44954   8.121   2.874   0.316 -1.0332 -2.2227 -3.4555
  333MOL0     H44955   8.135   2.809   0.474  2.8175 -2.0403  1.5374
  334MOL0     O44956   9.637   3.619   7.172 -0.1955 -0.1548 -0.2150
  334MOL0     C44957   9.576   3.514   7.176  0.4101  0.0503  0.9459
  334MOL0     O44958   9.618   3.400   7.112 -0.0679 -0.3960 -0.7459
  334MOL0     C44959   9.744   3.407   7.055 -0.7707 -0.6022 -0.7900
  334MOL0     C44960   9.853   3.332   7.105  0.3998 -1.1950 -0.3113
  334MOL0     C44961   9.979   3.329   7.040  0.1425  0.1478  0.0332
  334MOL0     C44962   9.997   3.405   6.929  0.6240 -0.2436 -0.7526
  334MOL0     O44963  10.117   3.412   6.858  0.0714 -0.3651  0.2732
  334MOL0     C44964  10.241   3.385   6.927  0.3009 -0.1020 -0.0636
  334MOL0     C44965  10.360   3.359   6.834  0.4528 -1.1180 -0.2121
  334MOL0     C44966  10.495   3.334   6.901  0.1920  0.3985  0.9137
  334MOL0     C44967  10.614   3.317   6.804 -0.6593 -0.1543  0.1875
  334MOL0     C44968  10.746   3.323   6.873 -0.3558  0.1020  0.0947
  334MOL0     C44969  10.864   3.327   6.781 -1.1491 -0.0433  0.7072
  334MOL0     C44970  10.988   3.340   6.857 -0.1654 -0.3420  0.9789
  334MOL0     C44971  11.107   3.373   6.766 -0.0818 -0.6332  0.5588
  334MOL0     N44972  11.226   3.386   6.848 -0.2793 -0.2147  0.0970
  334MOL0     C44973  11.251   3.331   6.973 -0.2725  0.0885  0.8690
  334MOL0     C44974  11.383   3.362   6.995 -1.3909 -0.3654 -0.3256
  334MOL0     C44975  11.453   3.328   7.122 -0.2298  0.3456 -0.7642
  334MOL0     C44976  11.371   3.365   7.250  0.6534 -0.5598 -0.5663
  334MOL0     C44977  11.440   3.298   7.377 -0.2221  0.0404 -0.1056
  334MOL0     C44978  11.371   3.342   7.514  0.1612 -0.7237  0.0394
  334MOL0     O44979  11.349   3.487   7.525 -0.0564  0.2265 -0.4476
  334MOL0     C44980  11.450   3.573   7.551  0.3952 -0.3907 -0.5040
  334MOL0     C44981  11.585   3.546   7.552  0.3166  0.5356  0.0332
  334MOL0     C44982  11.680   3.640   7.593  0.8975 -0.4092  0.6253
  334MOL0     C44983  11.633   3.765   7.649  0.0768  0.3486  0.1934
  334MOL0     C44984  11.738   3.862   7.704  0.5742 -0.4139  1.2770
  334MOL0     O44985  11.697   3.984   7.748 -0.2873  0.5579  0.0658
  334MOL0     C44986  11.794   4.061   7.809 -0.0707  0.5060 -0.1398
  334MOL0     C44987  11.897   4.016   7.895 -0.1352  0.2789 -0.6706
  334MOL0     C44988  11.970   4.104   7.973 -0.1841  0.5265 -0.2790
  334MOL0     C44989  11.964   4.237   7.948  0.9145  0.0891 -0.0050
  334MOL0     O44990  12.059   4.323   7.996  0.3139 -0.4189  0.1615
  334MOL0     C44991  12.041   4.459   8.000  0.2592 -1.2131  0.6170
  334MOL0     C44992  12.131   4.530   8.111 -0.2278 -0.1763 -0.2882
  334MOL0     C44993  12.282   4.559   8.071  0.0391 -0.1584 -0.2888
  334MOL0     C44994  12.364   4.594   8.192  0.0887  0.1747  0.2128
  334MOL0     C44995  12.512   4.599   8.157  0.6582 -0.2404  0.9336
  334MOL0     C44996  12.591   4.620   8.287  0.3527  0.0150 -0.3054
  334MOL0     C44997  12.738   4.575   8.275 -0.4803  0.1249 -0.7645
  334MOL0     C44998  12.768   4.450   8.355 -0.0106 -0.0867 -0.4938
  334MOL0    Cl44999  12.782   4.492   8.529 -0.6969 -0.1068 -0.0266
  334MOL0     C45000  11.863   4.290   7.858 -0.2882  0.7470 -1.7114
  334MOL0     C45001  11.779   4.197   7.790 -0.4945 -0.6734 -0.5235
  334MOL0     O45002  11.852   3.816   7.702  0.2920  0.0044  0.0276
  334MOL0     C45003  11.496   3.785   7.652  0.3676  0.3272 -0.7128
  334MOL0     C45004  11.405   3.688   7.602 -0.1176 -0.2625  0.3601
  334MOL0     N45005  11.435   3.429   6.885 -0.6036 -0.1256  0.4847
  334MOL0     N45006  11.338   3.446   6.800 -0.9804  0.3306  0.1084
  334MOL0     C45007   9.888   3.476   6.880  0.9114  0.1478  0.2040
  334MOL0     C45008   9.763   3.476   6.937  1.0215 -0.8708  0.1814
  334MOL0     C45009   9.453   3.502   7.260  0.7228  0.0149 -0.3643
  334MOL0     C45010   9.421   3.375   7.302 -0.1902  0.1470 -0.7844
  334MOL0     C45011   9.320   3.352   7.403  0.1974  0.4309  0.3052
  334MOL0     C45012   9.256   3.461   7.457  0.1269  0.0621 -0.0240
  334MOL0     O45013   9.165   3.426   7.556  0.0317  0.1824  0.1416
  334MOL0     C45014   9.099   3.535   7.627  0.7698  0.2128 -0.5589
  334MOL0     C45015   8.963   3.565   7.554 -0.2287  0.0344 -0.9150
  334MOL0     C45016   8.873   3.445   7.528 -0.3579 -0.2577 -0.0165
  334MOL0     C45017   8.732   3.481   7.480  0.1278 -0.0759  0.7625
  334MOL0     C45018   8.643   3.533   7.583  0.9867  0.9033 -0.8884
  334MOL0     C45019   8.565   3.563   7.670  0.0257  0.0746 -1.0452
  334MOL0     C45020   9.274   3.593   7.398  0.1735  0.0506 -0.2660
  334MOL0     C45021   9.375   3.610   7.301 -0.4585  0.1951 -0.2695
  334MOL0     C45022   9.376   3.749   7.240  0.3233  0.2907  0.2312
  334MOL0     H45023   9.830   3.275   7.194 -2.8131 -1.7533 -1.3602
  334MOL0     H45024  10.060   3.265   7.075  2.0529  0.1786 -3.8313
  334MOL0     H45025  10.262   3.478   6.981 -4.8918  1.9598 -1.0067
  334MOL0     H45026  10.227   3.302   6.996 -0.2690  1.5860  1.9844
  334MOL0     H45027  10.364   3.447   6.769 -0.0157  1.6652  3.2096
  334MOL0     H45028  10.329   3.269   6.780 -0.2966 -0.5364 -0.7783
  334MOL0     H45029  10.489   3.254   6.976  0.5324 -1.1694 -0.6781
  334MOL0     H45030  10.514   3.425   6.959  3.3938  0.2239  0.3437
  334MOL0     H45031  10.601   3.215   6.765  2.1494  0.8107 -3.9175
  334MOL0     H45032  10.607   3.387   6.720 -1.9585  0.4689  0.7840
  334MOL0     H45033  10.748   3.407   6.943  0.2411  1.6344 -1.6881
  334MOL0     H45034  10.753   3.227   6.926 -1.5438  0.6491  1.3037
  334MOL0     H45035  10.861   3.236   6.721 -1.2872 -1.4642  2.7759
  334MOL0     H45036  10.854   3.417   6.719 -0.4513  2.4015  3.8470
  334MOL0     H45037  11.004   3.247   6.913  0.2725 -0.6961  0.2799
  334MOL0     H45038  10.975   3.415   6.935 -2.8705 -0.6706  0.9351
  334MOL0     H45039  11.122   3.293   6.694  2.0974 -0.7701  1.0897
  334MOL0     H45040  11.094   3.468   6.713 -2.6783 -1.9286 -1.3561
  334MOL0     H45041  11.192   3.270   7.041 -0.9047  0.6124  0.8035
  334MOL0     H45042  11.478   3.222   7.119 -1.2703 -0.0253  1.3537
  334MOL0     H45043  11.541   3.392   7.131  0.6909 -0.4843 -3.1414
  334MOL0     H45044  11.375   3.472   7.274 -0.3712 -1.0183  1.9053
  334MOL0     H45045  11.266   3.341   7.231  0.8537  0.0897 -2.8027
  334MOL0     H45046  11.546   3.322   7.366 -0.5701  1.5718 -0.3002
  334MOL0     H45047  11.429   3.189   7.367  1.6020 -0.3220  1.3848
  334MOL0     H45048  11.418   3.299   7.603 -0.6470  2.5432  2.2454
  334MOL0     H45049  11.266   3.312   7.514  0.3022 -1.2473 -1.0533
  334MOL0     H45050  11.631   3.451   7.527 -2.1425 -1.4875  2.5052
  334MOL0     H45051  11.785   3.619   7.575  0.7213 -0.2146 -0.7720
  334MOL0     H45052  11.927   3.912   7.892  0.1473  0.3961 -2.7254
  334MOL0     H45053  12.057   4.061   8.021  1.2888  2.1869 -1.3182
  334MOL0     H45054  12.066   4.496   7.900  0.7602 -1.6168  0.5878
  334MOL0     H45055  11.934   4.468   8.022 -0.9598  0.1222 -4.4770
  334MOL0     H45056  12.082   4.627   8.120 -0.2395  0.1541 -3.0302
  334MOL0     H45057  12.117   4.473   8.203  1.0031 -0.2657 -0.1280
  334MOL0     H45058  12.317   4.466   8.025  2.8255 -1.0101  3.1112
  334MOL0     H45059  12.280   4.635   7.992 -0.6005 -1.1442 -1.2497
  334MOL0     H45060  12.345   4.527   8.276 -0.2003  1.2420  1.0343
  334MOL0     H45061  12.331   4.692   8.229 -2.7890 -0.5181 -0.2413
  334MOL0     H45062  12.535   4.678   8.085 -1.7743 -1.6281 -1.5332
  334MOL0     H45063  12.533   4.500   8.116 -0.5504 -0.5047  0.9014
  334MOL0     H45064  12.587   4.726   8.312 -1.8321 -0.1767  0.3761
  334MOL0     H45065  12.536   4.572   8.368 -2.6981  1.9170 -1.1109
  334MOL0     H45066  12.811   4.655   8.295  0.0625 -0.8269  1.3003
  334MOL0     H45067  12.753   4.548   8.171  2.9290  0.9878 -0.6145
  334MOL0     H45068  12.690   4.374   8.347  1.8909 -2.0495 -1.3692
  334MOL0     H45069  12.864   4.403   8.332 -0.7465 -2.0162  0.1258
  334MOL0     H45070  11.857   4.397   7.843  1.9703  1.1805  0.0506
  334MOL0     H45071  11.698   4.230   7.727  0.6895 -0.1130 -1.8017
  334MOL0     H45072  11.438   3.872   7.682  0.5678  0.1083  0.3362
  334MOL0     H45073  11.298   3.707   7.599  0.2795  2.0622 -0.7942
  334MOL0     H45074   9.924   3.526   6.791  0.0817  1.4214  0.5476
  334MOL0     H45075   9.684   3.534   6.890  0.6485 -0.3723  1.3955
  334MOL0     H45076   9.477   3.292   7.259 -0.2177  0.3864 -1.2828
  334MOL0     H45077   9.294   3.253   7.441 -1.2573  0.7805  0.3014
  334MOL0     H45078   9.153   3.630   7.624  0.9959  0.3737  3.2482
  334MOL0     H45079   9.088   3.506   7.732 -2.0290 -0.2805 -0.9024
  334MOL0     H45080   8.992   3.611   7.460  0.0464 -0.3900 -1.0403
  334MOL0     H45081   8.902   3.629   7.619 -0.3209 -2.2442  1.4470
  334MOL0     H45082   8.859   3.382   7.616  1.0567 -1.2762 -0.4844
  334MOL0     H45083   8.922   3.383   7.453  1.3176 -1.2709  1.7987
  334MOL0     H45084   8.738   3.561   7.405 -0.1684 -0.7321  0.0228
  334MOL0     H45085   8.686   3.391   7.437  3.7321 -1.9203  0.4201
  334MOL0     H45086   8.493   3.593   7.743  0.9076 -0.1688 -0.0580
  334MOL0     H45087   9.211   3.674   7.433 -0.3622 -0.3652 -0.2586
  334MOL0     H45088   9.299   3.746   7.162 -0.6291  1.4017  1.0923
  334MOL0     H45089   9.338   3.825   7.309 -0.9458  0.9746 -1.1454
  334MOL0     H45090   9.476   3.777   7.204  1.3881 -0.8842  2.1428
  335MOL0     O45091   1.077   4.093   6.043  0.3691  0.4670  0.0715
  335MOL0     C45092   0.987   4.167   6.012  0.3967  0.6160 -0.0098
  335MOL0     O45093   0.987   4.256   5.914 -0.4797 -0.3735 -0.8155
  335MOL0     C45094   1.090   4.247   5.832 -0.0294 -0.9740  0.8825
  335MOL0     C45095   1.089   4.177   5.711 -0.6570  0.7332  0.5500
  335MOL0     C45096   1.204   4.172   5.626  0.2764 -0.1277 -0.2554
  335MOL0     C45097   1.310   4.257   5.655  0.8106 -0.6557 -0.6855
  335MOL0     O45098   1.416   4.257   5.571  0.2509  0.0201  0.2865
  335MOL0     C45099   1.547   4.308   5.596 -0.0454 -0.4336  0.2057
  335MOL0     C45100   1.644   4.222   5.507  0.9672  0.2327  0.1449
  335MOL0     C45101   1.781   4.278   5.524 -0.0327 -0.1866  0.2924
  335MOL0     C45102   1.886   4.166   5.469 -0.3527 -0.1206  1.5176
  335MOL0     C45103   2.024   4.212   5.479 -0.2375 -0.0131 -0.0228
  335MOL0     C45104   2.056   4.359   5.426  0.1764  0.2380 -0.2722
  335MOL0     C45105   2.205   4.386   5.407 -0.0711 -0.1795  0.3393
  335MOL0     C45106   2.285   4.343   5.528  0.1677  0.5342 -0.5192
  335MOL0     N45107   2.427   4.375   5.532 -0.0365 -0.3154 -0.0237
  335MOL0     C45108   2.511   4.323   5.438 -0.5038  0.3157  0.7970
  335MOL0     C45109   2.633   4.321   5.497  0.7409 -0.6001  0.7639
  335MOL0     C45110   2.754   4.267   5.428 -1.2681  0.0923  0.2939
  335MOL0     C45111   2.884   4.247   5.513  0.6722  0.0440  0.8824
  335MOL0     C45112   2.982   4.152   5.445  0.1681 -0.4266  0.1596
  335MOL0     C45113   3.118   4.142   5.523  1.2002 -0.1512  0.2691
  335MOL0     O45114   3.204   4.053   5.452  0.0581  0.0561  0.2966
  335MOL0     C45115   3.340   4.055   5.455  0.0330 -0.2251  0.2225
  335MOL0     C45116   3.406   3.960   5.375 -0.6138 -0.8409 -0.2664
  335MOL0     C45117   3.546   3.960   5.374 -1.0074 -0.5957 -0.5545
  335MOL0     C45118   3.624   4.048   5.446 -0.7285  0.2540  0.1913
  335MOL0     C45119   3.776   4.040   5.429  0.7400 -0.0734 -0.3876
  335MOL0     O45120   3.829   3.955   5.339 -0.1827  0.5428 -1.0701
  335MOL0     C45121   3.964   3.963   5.329 -0.9383 -0.6745  0.2511
  335MOL0     C45122   4.053   3.961   5.434  0.2164 -1.0366  0.1781
  335MOL0     C45123   4.188   3.959   5.407  0.5729  0.4383 -0.0019
  335MOL0     C45124   4.245   3.972   5.284 -0.6338  0.8395  0.9330
  335MOL0     O45125   4.383   3.969   5.273 -0.2958 -0.2682 -0.0372
  335MOL0     C45126   4.455   3.946   5.151 -0.3007 -0.2426  0.4805
  335MOL0     C45127   4.591   4.013   5.159  0.5695  0.7709  0.3564
  335MOL0     C45128   4.660   4.056   5.027 -0.4437 -0.1173  0.1300
  335MOL0     C45129   4.812   4.113   5.045  0.1054  0.1516  1.0062
  335MOL0     C45130   4.913   4.018   5.113 -0.5389  0.4202 -0.9600
  335MOL0     C45131   5.063   4.048   5.084  0.2097 -0.1484  0.1050
  335MOL0     C45132   5.145   4.036   5.215  0.7206  0.6034 -0.4536
  335MOL0     C45133   5.295   4.032   5.194 -0.2573  0.7988 -0.3804
  335MOL0    Cl45134   5.383   4.052   5.350 -0.2157  0.0673  0.3606
  335MOL0     C45135   4.150   3.969   5.176 -0.2691 -0.0040 -0.8707
  335MOL0     C45136   4.012   3.967   5.199  0.5693 -0.1437  1.0313
  335MOL0     O45137   3.836   4.131   5.494  0.6207  0.0473  0.2833
  335MOL0     C45138   3.558   4.149   5.520 -0.2578 -0.7546  0.0616
  335MOL0     C45139   3.413   4.157   5.524  0.5020  0.2857 -0.3373
  335MOL0     N45140   2.625   4.393   5.616 -0.9030  0.1101  0.1478
  335MOL0     N45141   2.499   4.416   5.636 -0.1693 -0.2412 -0.2742
  335MOL0     C45142   1.311   4.327   5.776  0.2593 -0.3859 -0.4847
  335MOL0     C45143   1.198   4.325   5.866 -0.6804 -0.9851  0.0455
  335MOL0     C45144   0.870   4.158   6.107 -0.3111 -0.0215 -0.5530
  335MOL0     C45145   0.900   4.136   6.245 -0.3526  0.2493 -0.0571
  335MOL0     C45146   0.807   4.144   6.343  0.6353  0.5524 -0.0218
  335MOL0     C45147   0.670   4.162   6.311  0.2856 -0.0091  0.8916
  335MOL0     O45148   0.569   4.193   6.402 -0.0566  0.4794  0.0877
  335MOL0     C45149   0.588   4.136   6.531 -0.1076  0.0884  0.0482
  335MOL0     C45150   0.459   4.156   6.614  0.2289  0.0225 -0.3140
  335MOL0     C45151   0.437   4.294   6.668 -0.0602 -0.7291  1.4335
  335MOL0     C45152   0.325   4.320   6.774 -0.0374  0.1180  0.3706
  335MOL0     C45153   0.366   4.275   6.908  0.0194 -0.1546  0.2316
  335MOL0     C45154   0.393   4.243   7.025  0.2648 -0.1173  0.1363
  335MOL0     C45155   0.643   4.188   6.180 -0.1074  0.6004  0.0747
  335MOL0     C45156   0.736   4.189   6.078 -1.0527 -0.3639 -0.2835
  335MOL0     C45157   0.690   4.217   5.939 -0.6376 -0.2715 -1.1465
  335MOL0     H45158   0.996   4.121   5.704  0.4265 -1.2151  0.8749
  335MOL0     H45159   1.219   4.113   5.536 -0.5681 -2.8284  1.2266
  335MOL0     H45160   1.555   4.415   5.578 -0.4650 -0.0842  1.8874
  335MOL0     H45161   1.570   4.284   5.701 -0.4729 -3.3179 -0.2828
  335MOL0     H45162   1.609   4.229   5.404  0.4299  0.1450  0.3208
  335MOL0     H45163   1.637   4.119   5.542 -2.8744  1.0821  2.4536
  335MOL0     H45164   1.800   4.287   5.631  0.2579  0.9123  0.1593
  335MOL0     H45165   1.782   4.372   5.469 -1.5965 -0.2437  0.1082
  335MOL0     H45166   1.869   4.074   5.526 -0.6545 -1.9877 -1.3991
  335MOL0     H45167   1.862   4.141   5.365  0.0545 -4.4292  2.2682
  335MOL0     H45168   2.052   4.196   5.583 -0.7343 -3.8928 -0.3439
  335MOL0     H45169   2.090   4.151   5.418  1.4786  2.0150 -0.3219
  335MOL0     H45170   2.015   4.394   5.331  1.9262  2.4211 -0.2949
  335MOL0     H45171   2.020   4.427   5.503  3.8940  1.3805  0.6582
  335MOL0     H45172   2.234   4.489   5.384 -0.6307 -0.5288 -2.2299
  335MOL0     H45173   2.244   4.335   5.319 -0.6239  0.9474 -0.5943
  335MOL0     H45174   2.235   4.375   5.620 -0.6237  2.3826 -1.5569
  335MOL0     H45175   2.291   4.235   5.545  1.4838  0.6660 -0.0232
  335MOL0     H45176   2.489   4.280   5.341  1.7637 -0.6497  0.6522
  335MOL0     H45177   2.725   4.171   5.383  0.0113 -0.5516  0.7872
  335MOL0     H45178   2.780   4.347   5.359 -0.5142 -0.4943 -0.1166
  335MOL0     H45179   2.937   4.342   5.520  1.6477 -0.3189 -0.9155
  335MOL0     H45180   2.850   4.210   5.610 -1.8136  1.0121  0.4650
  335MOL0     H45181   2.993   4.195   5.345 -1.5802  1.6896  0.7890
  335MOL0     H45182   2.938   4.055   5.419 -4.2265  1.5837 -0.8746
  335MOL0     H45183   3.100   4.101   5.623 -3.2937  0.6389 -0.0426
  335MOL0     H45184   3.154   4.244   5.542  0.6919 -0.3119  2.3284
  335MOL0     H45185   3.335   3.892   5.331 -0.7736 -1.1081  0.3878
  335MOL0     H45186   3.601   3.907   5.297  0.9887  1.7685 -0.8964
  335MOL0     H45187   4.012   3.945   5.532 -2.8650  0.9422 -0.6515
  335MOL0     H45188   4.260   3.931   5.482 -0.1928 -0.7727  0.3115
  335MOL0     H45189   4.464   3.839   5.129 -0.5855 -0.4723  1.4352
  335MOL0     H45190   4.412   3.993   5.062  3.2054  1.0794 -0.6537
  335MOL0     H45191   4.579   4.099   5.226 -2.3334 -0.4494  1.5763
  335MOL0     H45192   4.670   3.953   5.204  1.8575  0.6799 -1.9201
  335MOL0     H45193   4.673   3.974   4.955  0.0068  0.5125 -0.5232
  335MOL0     H45194   4.594   4.122   4.970 -1.8889 -2.1702 -0.6784
  335MOL0     H45195   4.807   4.216   5.082  0.5286  0.3511  0.5303
  335MOL0     H45196   4.857   4.120   4.945 -0.6609 -0.5892  0.5939
  335MOL0     H45197   4.888   3.913   5.096  0.6516 -0.3851  1.6742
  335MOL0     H45198   4.907   4.011   5.222  1.1773 -0.0282 -0.8570
  335MOL0     H45199   5.103   3.970   5.018  0.9470  0.2988  0.0049
  335MOL0     H45200   5.067   4.143   5.030  1.1574  1.4960  2.8542
  335MOL0     H45201   5.120   3.947   5.273  2.1666  0.8579  0.6297
  335MOL0     H45202   5.116   4.112   5.287 -2.9854 -0.2798 -0.8192
  335MOL0     H45203   5.333   3.945   5.139  2.9854  2.4515 -1.0141
  335MOL0     H45204   5.317   4.129   5.149  0.5960 -1.2729 -5.0415
  335MOL0     H45205   4.191   3.964   5.075 -3.7834 -1.4309 -2.4021
  335MOL0     H45206   3.939   3.969   5.119  0.6220  1.2725  0.9913
  335MOL0     H45207   3.628   4.205   5.580 -0.0421 -2.4034  1.4486
  335MOL0     H45208   3.375   4.236   5.588 -2.5327 -0.0911 -1.4992
  335MOL0     H45209   1.397   4.389   5.796 -0.2242 -0.1079  0.8321
  335MOL0     H45210   1.188   4.390   5.952  0.6350  0.5909 -0.9419
  335MOL0     H45211   1.002   4.140   6.282 -0.9843  2.9233  1.6893
  335MOL0     H45212   0.827   4.128   6.448 -0.1857  1.9842  0.3688
  335MOL0     H45213   0.671   4.179   6.587 -1.5500  3.3383 -0.0805
  335MOL0     H45214   0.609   4.029   6.522 -4.0399 -0.7761 -0.6251
  335MOL0     H45215   0.452   4.091   6.702  0.3348  1.5197  0.8308
  335MOL0     H45216   0.371   4.129   6.554  0.5966  0.7916 -1.2150
  335MOL0     H45217   0.432   4.358   6.579  1.4493 -1.5746  0.6936
  335MOL0     H45218   0.537   4.321   6.704  0.0592 -0.9896  1.3003
  335MOL0     H45219   0.292   4.424   6.780 -3.1187 -0.6628 -1.0740
  335MOL0     H45220   0.238   4.269   6.730  0.2509  0.9168 -1.2119
  335MOL0     H45221   0.403   4.214   7.128 -1.2816 -1.6756 -0.0993
  335MOL0     H45222   0.541   4.197   6.142  1.2111  1.7464 -3.6032
  335MOL0     H45223   0.584   4.239   5.929 -0.4836 -0.3131 -3.4768
  335MOL0     H45224   0.753   4.293   5.891 -0.2246  2.4419  3.1515
  335MOL0     H45225   0.691   4.126   5.879  3.5555  1.2816 -3.9822
  336MOL0     O45226   4.873   3.071   0.838 -0.7887 -0.0263  0.5610
  336MOL0     C45227   4.782   3.001   0.872 -0.7236  0.1599 -0.7311
  336MOL0     O45228   4.797   2.878   0.932 -0.0007  0.1087  0.4499
  336MOL0     C45229   4.928   2.832   0.948 -0.4932  0.6875 -0.5737
  336MOL0     C45230   4.977   2.795   1.078 -0.3362  0.6527  0.7327
  336MOL0     C45231   5.105   2.750   1.093 -0.7410 -0.1401 -0.5776
  336MOL0     C45232   5.185   2.731   0.984  0.0572  0.5352  0.4457
  336MOL0     O45233   5.315   2.685   1.009 -0.5706  0.0942 -0.4798
  336MOL0     C45234   5.402   2.800   1.006 -0.7462 -0.2018  0.1407
  336MOL0     C45235   5.540   2.754   1.035 -0.6331 -0.5307  0.0915
  336MOL0     C45236   5.564   2.741   1.190  0.2034 -0.5685 -0.3761
  336MOL0     C45237   5.714   2.733   1.208 -0.1902  0.3659 -0.2687
  336MOL0     C45238   5.774   2.740   1.345 -0.3865 -0.1756  0.4449
  336MOL0     C45239   5.916   2.687   1.337  0.4367 -0.3752 -0.6976
  336MOL0     C45240   5.970   2.660   1.480  0.5084 -0.0753 -0.6206
  336MOL0     C45241   6.098   2.573   1.470 -0.0152  0.6379  0.4479
  336MOL0     N45242   6.200   2.666   1.415 -0.4569  0.6014  0.1624
  336MOL0     C45243   6.299   2.623   1.321 -0.5785  0.2547  0.3488
  336MOL0     C45244   6.382   2.725   1.319  0.5321  0.1773  0.6739
  336MOL0     C45245   6.494   2.729   1.213 -0.6821 -0.6071 -0.7543
  336MOL0     C45246   6.618   2.787   1.279 -0.3277 -0.5023  0.3916
  336MOL0     C45247   6.695   2.686   1.363 -0.4295  0.6752 -0.6511
  336MOL0     C45248   6.831   2.731   1.406 -0.2177  0.6912 -0.5190
  336MOL0     O45249   6.892   2.615   1.468  0.2434 -0.3505 -0.5172
  336MOL0     C45250   7.020   2.628   1.530  0.9478  0.3770 -0.4942
  336MOL0     C45251   7.073   2.509   1.592  0.3590 -0.1645  0.2464
  336MOL0     C45252   7.206   2.505   1.633  1.0115  0.2207 -0.6211
  336MOL0     C45253   7.281   2.624   1.638  0.2826  0.2103  0.3280
  336MOL0     C45254   7.415   2.613   1.706 -0.0181 -0.9327  0.6459
  336MOL0     O45255   7.452   2.725   1.770 -0.1592  0.5931 -0.8726
  336MOL0     C45256   7.560   2.719   1.853  0.6396  0.0225 -0.3263
  336MOL0     C45257   7.689   2.706   1.804  0.7203  0.0601  0.2050
  336MOL0     C45258   7.804   2.725   1.879 -0.1753 -0.2870  0.3404
  336MOL0     C45259   7.797   2.746   2.022 -1.0048  0.1887  0.1772
  336MOL0     O45260   7.913   2.721   2.105 -0.3669 -0.5262  0.4832
  336MOL0     C45261   7.925   2.798   2.228  0.0347  0.2419 -0.8732
  336MOL0     C45262   8.066   2.776   2.285 -0.1432  0.1184 -0.2406
  336MOL0     C45263   8.185   2.852   2.212  0.3904  0.3406 -0.3298
  336MOL0     C45264   8.283   2.883   2.315  0.3218 -0.2348 -0.3396
  336MOL0     C45265   8.409   2.951   2.252  1.1535  0.7380  1.0396
  336MOL0     C45266   8.525   2.959   2.345 -0.4096 -0.1926 -0.5176
  336MOL0     C45267   8.492   3.058   2.459  1.3754 -0.2094 -0.9848
  336MOL0     C45268   8.606   3.082   2.556  0.6629 -0.3850 -0.8770
  336MOL0    Cl45269   8.579   3.234   2.636 -0.1452  0.2937 -0.1809
  336MOL0     C45270   7.663   2.757   2.081  0.3918 -0.4563 -0.1438
  336MOL0     C45271   7.550   2.747   1.992 -0.4817 -0.5018 -0.5481
  336MOL0     O45272   7.484   2.517   1.682  0.3381 -0.1838  0.0982
  336MOL0     C45273   7.227   2.743   1.585 -0.6786 -0.0470  0.1753
  336MOL0     C45274   7.100   2.743   1.530  0.2209  0.1130  0.7330
  336MOL0     N45275   6.334   2.830   1.397 -0.4273  0.1635  0.3779
  336MOL0     N45276   6.234   2.787   1.467 -0.0033  0.0247  0.4025
  336MOL0     C45277   5.138   2.767   0.859 -0.1219  0.7566 -0.0064
  336MOL0     C45278   5.010   2.814   0.841  0.0138 -0.2000 -0.4632
  336MOL0     C45279   4.643   3.047   0.841 -0.0614  0.1968 -0.3841
  336MOL0     C45280   4.634   3.155   0.751  0.4538 -0.2301 -0.9317
  336MOL0     C45281   4.513   3.202   0.703 -0.2186  0.2989 -1.8900
  336MOL0     C45282   4.396   3.153   0.750 -0.0782  0.0543  0.7237
  336MOL0     O45283   4.269   3.175   0.693 -0.0998  0.1280  0.3211
  336MOL0     C45284   4.258   3.264   0.582 -0.9998  0.1504  0.2098
  336MOL0     C45285   4.130   3.239   0.512  0.2513  0.4248 -0.0793
  336MOL0     C45286   4.075   3.093   0.521 -0.6365  0.6426 -0.6480
  336MOL0     C45287   3.964   3.047   0.421 -0.5977 -1.2033  0.2645
  336MOL0     C45288   3.848   3.138   0.437 -0.9616  0.4286 -1.0833
  336MOL0     C45289   3.764   3.220   0.460  0.9728  0.2944 -0.7072
  336MOL0     C45290   4.401   3.057   0.850  0.6487 -0.8007 -0.1811
  336MOL0     C45291   4.518   3.001   0.898 -0.1329 -0.6628 -0.2138
  336MOL0     C45292   4.509   2.890   0.991  0.3082  0.2659 -0.0230
  336MOL0     H45293   4.913   2.818   1.163 -0.9198  5.4399 -0.7650
  336MOL0     H45294   5.138   2.718   1.191  0.6127  1.3957 -0.4918
  336MOL0     H45295   5.411   2.819   0.899 -0.0083 -0.2980  0.1799
  336MOL0     H45296   5.363   2.875   1.074 -1.4075 -0.1676 -0.2737
  336MOL0     H45297   5.603   2.829   0.985  0.0282 -0.3369  1.1812
  336MOL0     H45298   5.565   2.664   0.979  0.0958 -0.0267 -0.4160
  336MOL0     H45299   5.516   2.649   1.224  0.8469 -1.4842 -1.8435
  336MOL0     H45300   5.515   2.824   1.243  0.6680 -0.5657  0.0483
  336MOL0     H45301   5.742   2.638   1.162  0.0637 -0.9476  2.3801
  336MOL0     H45302   5.753   2.817   1.149  2.9058 -0.9472 -0.2877
  336MOL0     H45303   5.780   2.839   1.392 -1.3741 -0.4402  1.1797
  336MOL0     H45304   5.704   2.687   1.411  0.9263 -2.8516 -0.1865
  336MOL0     H45305   5.908   2.594   1.280  0.4728 -1.4233  0.9389
  336MOL0     H45306   5.982   2.757   1.286 -2.8272  2.8114 -0.9527
  336MOL0     H45307   5.914   2.605   1.556  1.4575 -0.4272 -0.1571
  336MOL0     H45308   5.997   2.758   1.522 -2.2335  0.0200  1.1911
  336MOL0     H45309   6.123   2.534   1.569  0.5308 -2.9391 -0.9288
  336MOL0     H45310   6.078   2.482   1.412  1.3991  0.5404  0.0645
  336MOL0     H45311   6.315   2.533   1.262 -3.1615 -1.4183  2.0002
  336MOL0     H45312   6.506   2.624   1.184  1.5832 -0.8183  0.6903
  336MOL0     H45313   6.465   2.796   1.132  2.8826  0.6778 -1.1298
  336MOL0     H45314   6.685   2.803   1.194  1.3286 -0.3867  1.6717
  336MOL0     H45315   6.601   2.875   1.343  0.2996 -2.6004  3.7001
  336MOL0     H45316   6.700   2.592   1.309 -2.9671 -1.1233  1.9734
  336MOL0     H45317   6.651   2.666   1.461  2.4323 -1.1801  0.4089
  336MOL0     H45318   6.826   2.809   1.482 -0.2283  0.5884 -0.4149
  336MOL0     H45319   6.894   2.775   1.327 -0.1670  1.1363 -0.2319
  336MOL0     H45320   7.006   2.424   1.593  1.1455 -0.9029 -2.2805
  336MOL0     H45321   7.247   2.411   1.669 -1.9601 -0.8723  0.1389
  336MOL0     H45322   7.706   2.691   1.698 -3.8571  0.0823 -0.7186
  336MOL0     H45323   7.898   2.710   1.827 -0.4450 -0.2483 -0.1584
  336MOL0     H45324   7.922   2.903   2.199  2.6842  0.7867  0.5204
  336MOL0     H45325   7.844   2.774   2.297 -0.8042  0.9070 -1.6026
  336MOL0     H45326   8.052   2.816   2.386 -3.2289  0.7787 -0.8382
  336MOL0     H45327   8.095   2.673   2.307  1.3855 -0.3230 -3.7238
  336MOL0     H45328   8.233   2.793   2.133  1.0331 -0.1542  0.4255
  336MOL0     H45329   8.137   2.943   2.176 -0.9386 -0.7646 -1.5127
  336MOL0     H45330   8.308   2.787   2.360 -5.6419 -1.5803  0.9866
  336MOL0     H45331   8.240   2.952   2.389  1.9416 -0.5806  0.9875
  336MOL0     H45332   8.377   3.044   2.204  0.1739 -0.3621 -0.5451
  336MOL0     H45333   8.440   2.891   2.166 -1.8448  2.4754 -1.4245
  336MOL0     H45334   8.551   2.859   2.380  1.0408 -0.6782 -2.7270
  336MOL0     H45335   8.615   2.999   2.296  0.3585 -1.0570  0.1611
  336MOL0     H45336   8.397   3.036   2.508  0.9006  0.7657 -1.4218
  336MOL0     H45337   8.476   3.154   2.407  1.0559 -0.8562 -2.1104
  336MOL0     H45338   8.598   3.002   2.630 -0.7558  0.4099 -0.1263
  336MOL0     H45339   8.698   3.095   2.499  1.1036  1.3295  0.1428
  336MOL0     H45340   7.634   2.781   2.183 -1.7711  0.9371 -0.9955
  336MOL0     H45341   7.455   2.780   2.034 -1.0829 -1.1945 -1.3287
  336MOL0     H45342   7.296   2.827   1.582  0.1228 -0.6290  1.5887
  336MOL0     H45343   7.079   2.841   1.488 -1.4286  0.4625  2.2275
  336MOL0     H45344   5.194   2.752   0.767 -2.9637  2.0425 -2.1013
  336MOL0     H45345   4.964   2.839   0.746  1.1616 -0.0096 -0.9924
  336MOL0     H45346   4.725   3.200   0.713  0.6726  0.7444  0.6507
  336MOL0     H45347   4.521   3.274   0.622 -0.0016  1.6687 -0.6884
  336MOL0     H45348   4.342   3.233   0.519 -1.4817 -1.1750  0.1695
  336MOL0     H45349   4.287   3.367   0.602  2.1023 -0.8770  1.6547
  336MOL0     H45350   4.123   3.282   0.412 -1.7554  0.2594 -0.0435
  336MOL0     H45351   4.067   3.313   0.564  0.3494 -0.8475  1.9690
  336MOL0     H45352   4.043   3.085   0.625  1.3230  0.0149 -0.0655
  336MOL0     H45353   4.156   3.020   0.520 -0.1321  0.8585  3.9379
  336MOL0     H45354   4.006   3.070   0.323 -0.8740 -1.4409  0.0898
  336MOL0     H45355   3.942   2.940   0.429 -1.6723 -1.1441 -1.3773
  336MOL0     H45356   3.709   3.310   0.476  0.1000 -0.0012 -1.9086
  336MOL0     H45357   4.306   3.023   0.889  0.8922 -0.6354  0.5621
  336MOL0     H45358   4.563   2.915   1.083 -0.2077  1.6920 -0.0747
  336MOL0     H45359   4.406   2.871   1.021  0.7503 -2.0620  0.1388
  336MOL0     H45360   4.543   2.799   0.942  0.6094  1.4930 -2.2273
  337MOL0     O45361   8.935   9.765   6.747  0.1856  1.1871 -0.6444
  337MOL0     C45362   8.968   9.779   6.869  0.3178  0.0800  0.6592
  337MOL0     O45363   9.088   9.750   6.916  0.1945  0.2998  0.5617
  337MOL0     C45364   9.202   9.741   6.841  0.2428  0.1089  0.4377
  337MOL0     C45365   9.320   9.689   6.902  0.5473 -0.0683  0.1919
  337MOL0     C45366   9.444   9.673   6.831  0.7648  0.2817 -0.4705
  337MOL0     C45367   9.452   9.701   6.696 -0.2177 -0.0876  0.8119
  337MOL0     O45368   9.577   9.678   6.631  0.5870 -0.1141  0.0627
  337MOL0     C45369   9.552   9.654   6.486 -0.3309 -1.0101 -0.0813
  337MOL0     C45370   9.674   9.588   6.421  0.6760  0.7984 -0.9638
  337MOL0     C45371   9.665   9.589   6.266 -0.4487 -0.1781  0.0963
  337MOL0     C45372   9.778   9.508   6.209 -0.4626  0.4499 -0.0419
  337MOL0     C45373   9.772   9.478   6.062 -0.0371  0.1382 -0.0700
  337MOL0     C45374   9.802   9.595   5.964  0.6650 -0.0844  0.5625
  337MOL0     C45375   9.802   9.554   5.814  0.2334  0.3784 -0.1184
  337MOL0     C45376   9.902   9.434   5.781 -0.4862 -0.3243  0.1903
  337MOL0     N45377  10.049   9.466   5.819 -0.3014  0.1828  0.4206
  337MOL0     C45378  10.126   9.391   5.903 -0.9547 -1.3258 -0.3118
  337MOL0     C45379  10.251   9.454   5.896 -0.6419 -0.3812 -0.0852
  337MOL0     C45380  10.365   9.412   5.994 -0.9756  0.3203  0.4750
  337MOL0     C45381  10.324   9.404   6.141 -1.1527 -0.2988 -0.4858
  337MOL0     C45382  10.239   9.528   6.198  0.2612  0.8825  0.0144
  337MOL0     C45383  10.303   9.661   6.154  0.0599 -0.2380  0.2631
  337MOL0     O45384  10.286   9.752   6.262 -0.3340 -0.1039  0.2899
  337MOL0     C45385  10.162   9.802   6.295 -0.0539 -0.0808 -0.1212
  337MOL0     C45386  10.158   9.867   6.418 -0.1255  0.2622 -0.4288
  337MOL0     C45387  10.041   9.922   6.466 -0.2099 -0.0279 -0.2653
  337MOL0     C45388   9.924   9.928   6.386  0.5881  0.4886  0.0192
  337MOL0     C45389   9.807   9.994   6.426 -0.4368  0.1072  0.0150
  337MOL0     O45390   9.802  10.031   6.552  0.4030 -0.0624 -0.0713
  337MOL0     C45391   9.681  10.083   6.595 -0.8084  0.5262  0.8817
  337MOL0     C45392   9.640  10.211   6.557 -0.2361  0.0116  1.2593
  337MOL0     C45393   9.515  10.264   6.590  0.0203 -0.0115  0.5496
  337MOL0     C45394   9.426  10.180   6.656  0.5196  0.7958  0.3331
  337MOL0     O45395   9.302  10.234   6.684  0.2862 -0.0787 -0.4526
  337MOL0     C45396   9.201  10.138   6.719  1.4070 -0.2103  0.1342
  337MOL0     C45397   9.081  10.185   6.631 -0.1063 -0.7039 -0.4019
  337MOL0     C45398   8.956  10.087   6.636  0.1517  0.9055 -0.2767
  337MOL0     C45399   8.851  10.141   6.552  0.5016  0.3268  0.1535
  337MOL0     C45400   8.730  10.051   6.552  0.5613  0.0623 -0.0846
  337MOL0     C45401   8.739   9.921   6.480  0.2866  0.4752 -0.1624
  337MOL0     C45402   8.593   9.872   6.447 -0.0636 -0.6417  0.5460
  337MOL0     C45403   8.545   9.916   6.306  0.0832  0.3345  0.0236
  337MOL0    Cl45404   8.369   9.881   6.259  0.2017  0.3196  0.2974
  337MOL0     C45405   9.467  10.059   6.709 -0.6180 -0.3889  0.6911
  337MOL0     C45406   9.599  10.011   6.680  0.4522  0.3961  0.0410
  337MOL0     O45407   9.720  10.013   6.346 -0.1431 -0.2582  0.3734
  337MOL0     C45408   9.935   9.859   6.258  0.2237 -0.2121 -1.7350
  337MOL0     C45409  10.052   9.798   6.216 -0.4350  1.0674  0.0374
  337MOL0     N45410  10.248   9.562   5.806 -0.2013  0.4851  0.0594
  337MOL0     N45411  10.123   9.571   5.767  0.4153 -0.2766  0.0069
  337MOL0     C45412   9.340   9.754   6.632  0.3391 -0.3357  0.6575
  337MOL0     C45413   9.216   9.779   6.706  0.3649 -0.2813 -0.7044
  337MOL0     C45414   8.864   9.852   6.946  0.1393  0.1220 -0.4861
  337MOL0     C45415   8.905   9.950   7.026 -0.2029  0.4773 -0.5795
  337MOL0     C45416   8.818  10.017   7.113 -0.1375 -0.4420 -0.1517
  337MOL0     C45417   8.685   9.981   7.118  0.0101 -0.2694 -0.3037
  337MOL0     O45418   8.593  10.045   7.199 -0.0285 -0.2187 -0.4205
  337MOL0     C45419   8.623  10.032   7.342 -0.8792 -0.0308  0.8680
  337MOL0     C45420   8.493  10.034   7.430  0.5257  0.3290  0.0581
  337MOL0     C45421   8.386   9.935   7.381 -0.2063  0.7288 -0.0913
  337MOL0     C45422   8.271   9.914   7.479 -0.0561  0.7860 -0.1591
  337MOL0     C45423   8.181  10.025   7.506  0.5088 -0.2842 -0.3370
  337MOL0     C45424   8.100  10.108   7.539 -0.3310  0.4515  0.2767
  337MOL0     C45425   8.637   9.892   7.024  0.3403  0.6404 -0.3293
  337MOL0     C45426   8.725   9.824   6.937  0.4655  0.2464  0.4163
  337MOL0     C45427   8.664   9.712   6.844 -0.6013  0.2310 -0.3688
  337MOL0     H45428   9.308   9.671   7.008  3.6679 -0.5223  0.5745
  337MOL0     H45429   9.539   9.654   6.880  1.9675  2.9070 -1.6279
  337MOL0     H45430   9.470   9.584   6.469  0.3209 -1.1785 -3.0727
  337MOL0     H45431   9.535   9.747   6.432  0.2020 -0.5239  0.5716
  337MOL0     H45432   9.662   9.487   6.460 -0.0841  0.3025 -2.3949
  337MOL0     H45433   9.771   9.629   6.453  1.1136 -1.3030  0.5686
  337MOL0     H45434   9.655   9.687   6.219 -0.9624  0.6245  1.8144
  337MOL0     H45435   9.568   9.546   6.238 -1.6121  3.5548 -2.3995
  337MOL0     H45436   9.874   9.552   6.235 -0.0056 -0.4869 -0.0775
  337MOL0     H45437   9.769   9.406   6.249 -2.1604  1.3829  2.1727
  337MOL0     H45438   9.853   9.407   6.043 -1.7583 -1.5108 -1.7203
  337MOL0     H45439   9.682   9.427   6.026 -0.8549  2.0909 -0.9352
  337MOL0     H45440   9.729   9.675   5.979 -0.0008 -0.4278 -0.7302
  337MOL0     H45441   9.904   9.629   5.984  1.2248 -0.4203 -1.5490
  337MOL0     H45442   9.831   9.637   5.750 -0.0872 -0.3788 -1.2669
  337MOL0     H45443   9.701   9.525   5.785  0.2102  0.0118  0.3061
  337MOL0     H45444   9.881   9.340   5.834  0.2302 -0.9191 -0.5614
  337MOL0     H45445   9.906   9.415   5.674 -0.8235  0.8795 -0.0527
  337MOL0     H45446  10.094   9.314   5.972  0.4362 -1.5082  0.1646
  337MOL0     H45447  10.388   9.308   5.969 -2.8776 -0.0372 -0.0053
  337MOL0     H45448  10.454   9.475   5.988 -0.1929 -0.5731  2.0318
  337MOL0     H45449  10.269   9.311   6.158  1.0239 -1.4655  0.6598
  337MOL0     H45450  10.412   9.384   6.203  0.4045 -0.6109 -2.6786
  337MOL0     H45451  10.232   9.508   6.305  0.9392 -0.2090 -0.1274
  337MOL0     H45452  10.134   9.517   6.169 -0.1883  0.6808  1.6204
  337MOL0     H45453  10.264   9.699   6.059 -1.7412  1.5804  1.6455
  337MOL0     H45454  10.412   9.651   6.144 -0.1101 -1.5197 -0.7218
  337MOL0     H45455  10.246   9.874   6.483 -0.5862  0.1706  0.2157
  337MOL0     H45456  10.028   9.970   6.562 -1.6326 -1.1214  0.1168
  337MOL0     H45457   9.708  10.266   6.493 -0.4766 -1.8081 -0.6416
  337MOL0     H45458   9.488  10.364   6.556  0.3192  0.8700  2.7453
  337MOL0     H45459   9.228  10.038   6.683  0.3600 -1.0466  1.5656
  337MOL0     H45460   9.176  10.134   6.826 -2.0191  1.0748 -0.5076
  337MOL0     H45461   9.049  10.278   6.679  0.4177 -1.3329  1.2404
  337MOL0     H45462   9.114  10.198   6.527 -2.7333 -1.3500 -1.3898
  337MOL0     H45463   8.987   9.988   6.602 -1.5408  0.7759 -1.6084
  337MOL0     H45464   8.921  10.089   6.740  1.4503  0.0990  0.1955
  337MOL0     H45465   8.882  10.164   6.450 -1.2182 -0.1784 -0.5253
  337MOL0     H45466   8.820  10.236   6.597  0.6903  1.4764 -2.0408
  337MOL0     H45467   8.652  10.110   6.504  1.5634  1.1986 -0.3556
  337MOL0     H45468   8.702  10.030   6.656  1.7178 -2.7270 -0.2563
  337MOL0     H45469   8.789   9.939   6.385 -2.4900  1.7839 -1.5038
  337MOL0     H45470   8.803   9.857   6.542  0.2414 -0.1173 -0.7182
  337MOL0     H45471   8.529   9.899   6.532 -0.9429 -3.5908  0.9441
  337MOL0     H45472   8.605   9.763   6.454  0.8366 -0.5245  1.0913
  337MOL0     H45473   8.578  10.019   6.293  1.2058 -0.1431 -1.1807
  337MOL0     H45474   8.611   9.867   6.234  0.0151  0.9392 -0.4651
  337MOL0     H45475   9.405  10.010   6.784 -1.3417  0.5201  0.7098
  337MOL0     H45476   9.635   9.917   6.722  1.7289  0.9718  0.3036
  337MOL0     H45477   9.850   9.858   6.190  0.1467 -0.7653 -1.6358
  337MOL0     H45478  10.055   9.754   6.117 -0.7483 -1.1032  0.9431
  337MOL0     H45479   9.343   9.785   6.528  1.8905 -5.3401 -1.0946
  337MOL0     H45480   9.137   9.816   6.641 -1.5124 -2.5307  0.1417
  337MOL0     H45481   9.011   9.974   7.031 -0.3060  0.7423  0.6118
  337MOL0     H45482   8.851  10.094   7.181  0.9395 -1.1290  0.1239
  337MOL0     H45483   8.689  10.113   7.375  1.2172 -1.3933  0.1969
  337MOL0     H45484   8.680   9.941   7.360 -1.0199 -0.2376  0.2702
  337MOL0     H45485   8.460  10.138   7.426  1.9332  0.7841 -0.2624
  337MOL0     H45486   8.516  10.005   7.533 -2.2775  1.5261  1.1088
  337MOL0     H45487   8.430   9.835   7.387 -2.1894 -0.1484  1.1337
  337MOL0     H45488   8.354   9.966   7.281  1.1068  2.4277 -0.0326
  337MOL0     H45489   8.200   9.841   7.438 -0.5962  0.9124  0.5343
  337MOL0     H45490   8.317   9.889   7.575  0.8117  1.9962 -0.2351
  337MOL0     H45491   8.031  10.189   7.550  0.5985  1.3123 -0.0651
  337MOL0     H45492   8.532   9.869   7.013  0.1912  0.0536  1.9509
  337MOL0     H45493   8.728   9.624   6.859  0.7217  0.8310 -2.1214
  337MOL0     H45494   8.559   9.685   6.857 -1.0488  1.4740 -1.2327
  337MOL0     H45495   8.671   9.740   6.739 -0.6914 -0.7153 -0.6405
  338MOL0     O45496   3.230   3.942   2.303  0.0975  0.1636  0.2131
  338MOL0     C45497   3.187   4.036   2.242  0.4724  0.3019 -0.4637
  338MOL0     O45498   3.257   4.105   2.147  0.6560  0.6354 -0.3532
  338MOL0     C45499   3.384   4.074   2.129 -0.2395  0.8276 -0.0997
  338MOL0     C45500   3.425   3.965   2.053  0.0407  0.8609  0.3006
  338MOL0     C45501   3.567   3.924   2.049 -0.1303 -0.3298 -0.4800
  338MOL0     C45502   3.657   3.979   2.132 -0.3150  0.2451 -0.4106
  338MOL0     O45503   3.782   3.915   2.137  0.8074 -0.5318  0.7219
  338MOL0     C45504   3.860   3.951   2.254 -0.3640 -0.3074 -0.4549
  338MOL0     C45505   4.005   3.896   2.248  0.0799 -1.0054  0.2869
  338MOL0     C45506   4.069   3.955   2.120 -0.2966  0.1543  0.2794
  338MOL0     C45507   4.219   3.902   2.118  0.5733  0.0694  0.7609
  338MOL0     C45508   4.311   3.980   2.032  0.2734 -0.3110 -0.4680
  338MOL0     C45509   4.451   3.921   2.042 -0.1760  0.2195 -0.1608
  338MOL0     C45510   4.549   4.007   1.969  0.0528 -0.0132 -0.0102
  338MOL0     C45511   4.696   3.955   1.995  0.5745 -0.1577  0.6059
  338MOL0     N45512   4.786   4.029   1.904 -0.0299 -1.1762  0.7959
  338MOL0     C45513   4.802   4.170   1.900  0.3182 -0.0867  0.5233
  338MOL0     C45514   4.883   4.196   1.792 -0.2115  0.1740 -0.0879
  338MOL0     C45515   4.920   4.328   1.737 -0.1565  0.1267  0.1431
  338MOL0     C45516   5.052   4.331   1.649 -0.1611  0.1564  0.5777
  338MOL0     C45517   5.176   4.317   1.742 -0.0356 -0.1430  0.2673
  338MOL0     C45518   5.313   4.335   1.675  0.5193  0.6148 -0.8635
  338MOL0     O45519   5.332   4.470   1.634 -0.2522  0.2941  0.1791
  338MOL0     C45520   5.432   4.497   1.545 -0.3189  0.5815  0.1297
  338MOL0     C45521   5.423   4.627   1.491 -0.4973  0.6751 -0.2330
  338MOL0     C45522   5.534   4.682   1.435  0.0600 -0.3857 -0.1687
  338MOL0     C45523   5.650   4.621   1.417 -0.5759 -0.8189  0.0727
  338MOL0     C45524   5.755   4.679   1.335  0.7199  0.9883  0.1548
  338MOL0     O45525   5.872   4.616   1.319  0.8139  0.7608 -0.3811
  338MOL0     C45526   5.969   4.697   1.251  1.3605  0.8160  0.1999
  338MOL0     C45527   6.058   4.779   1.316  0.4225 -0.8521  0.6436
  338MOL0     C45528   6.158   4.843   1.246 -0.1684 -0.2113 -0.1716
  338MOL0     C45529   6.171   4.837   1.112 -0.7381  1.4807  0.3628
  338MOL0     O45530   6.259   4.935   1.060  0.8356  0.1444 -0.4122
  338MOL0     C45531   6.242   4.975   0.920 -0.0768  0.9432  0.1728
  338MOL0     C45532   6.116   5.070   0.921  0.4061  0.3248  0.1632
  338MOL0     C45533   6.009   5.027   0.810  0.1287 -0.7961  0.3173
  338MOL0     C45534   5.889   5.114   0.836 -0.0623 -0.1656  0.4071
  338MOL0     C45535   5.772   5.100   0.732 -0.0848 -0.3921 -0.1075
  338MOL0     C45536   5.650   5.184   0.780  0.3588 -0.0270 -0.1836
  338MOL0     C45537   5.561   5.110   0.879 -0.0994 -0.3209 -0.1344
  338MOL0     C45538   5.438   5.185   0.924  0.0379  0.7656 -0.2418
  338MOL0    Cl45539   5.326   5.234   0.789 -0.0278 -0.1713 -0.0264
  338MOL0     C45540   6.083   4.759   1.042 -0.5876  0.0032  0.8500
  338MOL0     C45541   5.982   4.687   1.109 -0.9262 -0.4649 -0.1470
  338MOL0     O45542   5.717   4.771   1.268  0.0580 -0.6802 -0.0493
  338MOL0     C45543   5.674   4.496   1.471  0.2599  0.4417  0.0034
  338MOL0     C45544   5.558   4.433   1.529 -0.1786 -0.3396 -0.6836
  338MOL0     N45545   4.915   4.072   1.739  0.5226 -0.4625 -0.6381
  338MOL0     N45546   4.862   3.982   1.806  0.0404  0.5511  0.5826
  338MOL0     C45547   3.618   4.090   2.200  0.4054  0.1868 -0.2573
  338MOL0     C45548   3.479   4.131   2.207  0.1527 -0.2165 -0.0312
  338MOL0     C45549   3.041   4.065   2.261  0.2292  0.9109 -0.8362
  338MOL0     C45550   2.988   4.176   2.174 -0.4531  0.6939 -0.4338
  338MOL0     C45551   2.857   4.215   2.187  0.5441 -0.1780 -0.0762
  338MOL0     C45552   2.765   4.145   2.276  0.3706  0.7209 -0.0401
  338MOL0     O45553   2.626   4.165   2.278 -0.1039  0.3060  0.2152
  338MOL0     C45554   2.567   4.215   2.156  0.0967 -0.0867  0.0728
  338MOL0     C45555   2.447   4.135   2.128 -0.3389  0.3000  0.1894
  338MOL0     C45556   2.367   4.200   2.017 -0.1372  1.0174  0.2790
  338MOL0     C45557   2.243   4.121   1.998  0.1185 -0.1399  1.3028
  338MOL0     C45558   2.172   4.182   1.879 -0.0645 -0.0374  0.8654
  338MOL0     C45559   2.103   4.233   1.792  0.7049  0.4025  0.1641
  338MOL0     C45560   2.819   4.039   2.344 -0.0797  0.3834 -1.1160
  338MOL0     C45561   2.950   3.990   2.348 -0.2197  0.6326  0.1949
  338MOL0     C45562   2.984   3.877   2.433  0.4819  0.0432 -0.1853
  338MOL0     H45563   3.342   3.919   2.001  0.3419 -1.1983  1.5267
  338MOL0     H45564   3.597   3.839   1.990  4.4465  2.0546 -2.0628
  338MOL0     H45565   3.874   4.058   2.267  1.9683 -0.5177 -0.7623
  338MOL0     H45566   3.820   3.920   2.351  1.3945  0.3639  0.5248
  338MOL0     H45567   3.983   3.789   2.237  0.4900 -0.8614 -2.7852
  338MOL0     H45568   4.057   3.919   2.342 -3.0880 -1.0441  2.1983
  338MOL0     H45569   4.067   4.060   2.148 -1.5324  0.2062  0.0687
  338MOL0     H45570   4.019   3.936   2.024 -1.8205 -2.5646  1.4838
  338MOL0     H45571   4.254   3.907   2.222 -1.1136  0.5814  1.3379
  338MOL0     H45572   4.221   3.802   2.074  4.2943 -0.0606  0.8754
  338MOL0     H45573   4.276   3.991   1.929 -0.8271 -2.0894 -0.3408
  338MOL0     H45574   4.297   4.081   2.070 -0.5792  0.0215 -1.6014
  338MOL0     H45575   4.488   3.910   2.145  2.0250  1.8027 -0.7050
  338MOL0     H45576   4.454   3.824   1.993 -3.4555 -0.8717  1.5015
  338MOL0     H45577   4.529   4.108   2.007  0.2298 -0.4282  1.2096
  338MOL0     H45578   4.534   4.012   1.861 -0.9299  4.4086  0.1368
  338MOL0     H45579   4.710   3.986   2.099  1.0938  0.4292  0.3674
  338MOL0     H45580   4.697   3.847   1.979 -2.5141 -0.2298  0.3825
  338MOL0     H45581   4.765   4.247   1.967  1.0214 -1.3562  2.4569
  338MOL0     H45582   4.841   4.355   1.667 -0.5923  0.4491  0.7529
  338MOL0     H45583   4.933   4.404   1.814 -0.1669 -0.7046  0.9810
  338MOL0     H45584   5.043   4.264   1.563 -0.8944  0.6292  0.2781
  338MOL0     H45585   5.048   4.433   1.608 -1.9004 -0.0016  0.2957
  338MOL0     H45586   5.173   4.214   1.779 -2.3277 -0.7986 -1.5460
  338MOL0     H45587   5.153   4.379   1.829  2.3483  0.1910  0.7302
  338MOL0     H45588   5.334   4.272   1.588  1.7881  1.2307 -1.0375
  338MOL0     H45589   5.394   4.330   1.749  0.6450  1.8388 -0.8839
  338MOL0     H45590   5.338   4.692   1.506  0.6954  2.2466  0.0019
  338MOL0     H45591   5.518   4.775   1.382 -0.5603  0.8243  2.0494
  338MOL0     H45592   6.056   4.792   1.424  2.5037  1.2404  0.5033
  338MOL0     H45593   6.223   4.920   1.286  0.8148 -2.2568  2.4375
  338MOL0     H45594   6.331   5.031   0.891  3.5608 -2.8106  2.9806
  338MOL0     H45595   6.223   4.888   0.857  2.0536  1.3261 -1.0774
  338MOL0     H45596   6.065   5.067   1.018 -0.6082  3.5126 -0.1876
  338MOL0     H45597   6.146   5.174   0.912  1.5208  0.0371  0.3575
  338MOL0     H45598   6.044   5.040   0.707 -0.3584 -0.4623  0.1921
  338MOL0     H45599   5.977   4.923   0.819  2.0888 -1.7989 -2.6604
  338MOL0     H45600   5.914   5.220   0.847  1.1948 -0.4320  0.3187
  338MOL0     H45601   5.852   5.078   0.933 -1.9704 -2.3262 -1.0131
  338MOL0     H45602   5.742   4.996   0.720 -0.5223 -0.3232  0.3835
  338MOL0     H45603   5.804   5.135   0.633  0.8264  0.7584  0.5672
  338MOL0     H45604   5.687   5.276   0.826  1.4007 -0.3564 -0.3355
  338MOL0     H45605   5.591   5.210   0.691 -0.6307 -0.0216  0.4632
  338MOL0     H45606   5.620   5.087   0.969 -1.3852  0.1042  0.8561
  338MOL0     H45607   5.536   5.015   0.831  0.1487  1.0564 -3.1988
  338MOL0     H45608   5.393   5.109   0.989  1.6873  0.8078  1.0342
  338MOL0     H45609   5.464   5.275   0.981 -1.8893  1.6785 -0.7331
  338MOL0     H45610   6.079   4.749   0.934 -1.2439 -1.5533  0.9896
  338MOL0     H45611   5.907   4.629   1.056 -0.3751 -2.5757  1.2458
  338MOL0     H45612   5.756   4.425   1.467 -0.4423 -0.3699 -0.3035
  338MOL0     H45613   5.579   4.341   1.581  2.5990 -0.0363 -1.0802
  338MOL0     H45614   3.690   4.150   2.254 -2.0242  0.6082  2.8321
  338MOL0     H45615   3.453   4.211   2.276 -2.3741  0.8858 -2.1020
  338MOL0     H45616   3.049   4.230   2.102  1.5569  0.1304  0.7682
  338MOL0     H45617   2.816   4.286   2.116 -0.1726  0.9637  1.4088
  338MOL0     H45618   2.627   4.197   2.067 -1.4886 -1.5047 -0.7746
  338MOL0     H45619   2.547   4.323   2.163 -0.0244 -0.2066  2.8113
  338MOL0     H45620   2.389   4.121   2.220 -1.0595 -1.7448 -0.5056
  338MOL0     H45621   2.488   4.036   2.106  1.2987  0.4484  2.2185
  338MOL0     H45622   2.415   4.218   1.920  0.6074  2.5308  0.9052
  338MOL0     H45623   2.348   4.297   2.064 -1.4899 -0.0462  2.0733
  338MOL0     H45624   2.269   4.015   1.984 -3.4597 -0.8942 -0.9597
  338MOL0     H45625   2.174   4.148   2.078 -0.4970 -0.4955  0.9024
  338MOL0     H45626   2.041   4.283   1.719  2.1891  1.8130 -0.1816
  338MOL0     H45627   2.754   3.987   2.414  4.7815 -1.9049  2.2173
  338MOL0     H45628   3.072   3.902   2.492 -0.6966  0.5147  1.4211
  338MOL0     H45629   2.891   3.861   2.488 -1.4456  2.8621 -2.3378
  338MOL0     H45630   3.000   3.788   2.370  0.4457  0.1505 -0.3461
  339MOL0     O45631   9.250   4.825   3.072  0.6482  0.1028 -0.5375
  339MOL0     C45632   9.229   4.824   2.951 -0.7018 -0.2530  0.3395
  339MOL0     O45633   9.314   4.760   2.867 -0.3208  0.8537 -1.0702
  339MOL0     C45634   9.396   4.666   2.905  0.3014  0.4723 -0.1038
  339MOL0     C45635   9.372   4.532   2.868  0.4944  0.2486  0.7550
  339MOL0     C45636   9.466   4.433   2.891 -0.7697  0.3601  0.3590
  339MOL0     C45637   9.578   4.461   2.974 -0.3022  0.5680  0.1690
  339MOL0     O45638   9.651   4.349   3.015 -0.1484 -0.9333  0.2636
  339MOL0     C45639   9.795   4.371   2.985 -0.0934 -0.4524 -1.2689
  339MOL0     C45640   9.871   4.248   3.007  0.8694 -0.0582 -0.6586
  339MOL0     C45641  10.010   4.256   2.944 -0.6208 -0.1601  0.8153
  339MOL0     C45642  10.100   4.135   2.985 -0.3153 -0.2281  0.4295
  339MOL0     C45643  10.241   4.141   2.919 -0.1972 -0.2398 -0.4304
  339MOL0     C45644  10.337   4.027   2.967  0.0190  0.1285  1.3304
  339MOL0     C45645  10.490   4.048   2.962 -0.1038 -0.2386  0.3784
  339MOL0     C45646  10.530   4.121   3.086  0.1478 -0.3752 -0.9706
  339MOL0     N45647  10.675   4.140   3.106 -1.0609 -0.7089  0.4124
  339MOL0     C45648  10.734   4.261   3.080  0.0397 -0.5231  0.5821
  339MOL0     C45649  10.861   4.255   3.109 -0.0283  0.2614 -0.0466
  339MOL0     C45650  10.958   4.357   3.122  0.4010 -0.1504  0.4125
  339MOL0     C45651  11.060   4.343   3.013 -0.4239 -0.5703 -0.3024
  339MOL0     C45652  11.156   4.223   3.034  1.0263 -0.4533 -0.7022
  339MOL0     C45653  11.275   4.226   2.924  0.2080  0.3618  1.1170
  339MOL0     O45654  11.371   4.325   2.945  0.3247 -0.4355 -0.1884
  339MOL0     C45655  11.505   4.295   2.918  0.9126  0.1045 -0.3547
  339MOL0     C45656  11.594   4.387   2.980 -0.7596 -0.4648  0.3554
  339MOL0     C45657  11.733   4.385   2.958 -0.1678  0.0014 -0.1899
  339MOL0     C45658  11.781   4.291   2.867  0.6884 -0.5399 -0.2956
  339MOL0     C45659  11.922   4.291   2.839 -0.5060  0.3730  1.6738
  339MOL0     O45660  11.956   4.235   2.724  0.9064 -0.5596  0.0209
  339MOL0     C45661  12.085   4.237   2.673 -1.1267 -0.8851 -0.3847
  339MOL0     C45662  12.182   4.187   2.755  0.0798  0.2434  0.7724
  339MOL0     C45663  12.313   4.170   2.700 -0.5415  0.2086  0.4201
  339MOL0     C45664  12.347   4.210   2.572  0.3103 -0.8420 -0.0057
  339MOL0     O45665  12.473   4.194   2.527 -0.5804  0.1733  0.2931
  339MOL0     C45666  12.525   4.307   2.466  0.0865 -1.0114 -0.6358
  339MOL0     C45667  12.678   4.287   2.419  0.4769  0.2963  0.1819
  339MOL0     C45668  12.790   4.248   2.520  0.4231  0.1290  0.8926
  339MOL0     C45669  12.815   4.366   2.610  0.8661 -0.1846  0.5756
  339MOL0     C45670  12.949   4.350   2.676 -0.2817  0.6061  0.5553
  339MOL0     C45671  13.070   4.375   2.583  0.4028 -0.4346  0.1706
  339MOL0     C45672  13.201   4.331   2.661 -0.5543 -0.3218  0.0363
  339MOL0     C45673  13.332   4.342   2.580  0.6513 -0.0240 -0.1077
  339MOL0    Cl45674  13.371   4.511   2.529 -0.5728  0.1098  0.8865
  339MOL0     C45675  12.240   4.271   2.491 -1.3535 -0.2319 -0.6428
  339MOL0     C45676  12.114   4.267   2.535  0.3864  0.3770  0.1384
  339MOL0     O45677  12.005   4.341   2.918  0.5668 -0.0020 -0.6838
  339MOL0     C45678  11.691   4.200   2.803  0.3187  0.1612 -0.1198
  339MOL0     C45679  11.558   4.208   2.825  0.6060  0.2876  0.2668
  339MOL0     N45680  10.882   4.123   3.144 -0.9831  0.0210 -0.1522
  339MOL0     N45681  10.775   4.058   3.136 -0.9858  0.2004  0.2972
  339MOL0     C45682   9.598   4.592   3.020 -0.5214  0.6888 -0.2544
  339MOL0     C45683   9.507   4.694   2.988  1.1432 -0.8779  0.1668
  339MOL0     C45684   9.110   4.889   2.894 -0.2366  0.2750 -0.0396
  339MOL0     C45685   9.063   4.855   2.765 -0.0907  0.0304 -0.3792
  339MOL0     C45686   8.960   4.924   2.708  0.4529  0.0820  0.1520
  339MOL0     C45687   8.887   5.017   2.779  0.1760  0.0185 -0.6164
  339MOL0     O45688   8.780   5.072   2.716  0.3495  0.1442 -0.3387
  339MOL0     C45689   8.704   5.173   2.780 -0.5323  0.3555  0.5233
  339MOL0     C45690   8.612   5.255   2.694 -0.1580  0.2385 -0.3224
  339MOL0     C45691   8.489   5.181   2.661 -0.2102 -1.1779  0.2057
  339MOL0     C45692   8.394   5.279   2.591  0.2091 -0.1695  0.5049
  339MOL0     C45693   8.285   5.210   2.524 -0.1790 -0.0418 -0.0613
  339MOL0     C45694   8.191   5.144   2.480  0.9291 -0.5172 -0.5340
  339MOL0     C45695   8.920   5.045   2.908 -0.4512  0.2242  0.5253
  339MOL0     C45696   9.032   4.986   2.963  0.0004 -0.1725 -0.4857
  339MOL0     C45697   9.066   5.035   3.100  0.4178  0.6300  0.2757
  339MOL0     H45698   9.290   4.508   2.802  0.8429 -0.5796  0.6105
  339MOL0     H45699   9.466   4.329   2.858  0.7677 -0.4701  2.7088
  339MOL0     H45700   9.800   4.398   2.879  0.8957 -0.4230 -1.2235
  339MOL0     H45701   9.834   4.450   3.049  0.1522 -0.5440 -1.3029
  339MOL0     H45702   9.823   4.164   2.957 -1.6191  0.2583  1.0344
  339MOL0     H45703   9.868   4.222   3.113  1.9656  0.0997 -0.5721
  339MOL0     H45704  10.049   4.348   2.989  0.2336  0.4819 -1.1421
  339MOL0     H45705  10.002   4.264   2.835  1.2372 -1.4482  0.5339
  339MOL0     H45706  10.111   4.120   3.092  0.7522 -0.7224  0.2628
  339MOL0     H45707  10.046   4.045   2.954 -1.3165  1.0679 -1.8572
  339MOL0     H45708  10.232   4.141   2.810  3.5939  1.3030 -0.9347
  339MOL0     H45709  10.282   4.234   2.960 -0.3680 -0.5795  0.5426
  339MOL0     H45710  10.310   4.001   3.070 -0.5015  0.5421  1.3010
  339MOL0     H45711  10.312   3.940   2.906  0.9158  2.7975 -3.3698
  339MOL0     H45712  10.510   4.122   2.884 -0.7046  0.1224  0.5532
  339MOL0     H45713  10.563   3.969   2.948  0.5485  0.5447 -0.8329
  339MOL0     H45714  10.487   4.222   3.092  1.0719  0.0078 -0.6365
  339MOL0     H45715  10.487   4.068   3.172  0.2896 -1.3306 -1.4742
  339MOL0     H45716  10.676   4.350   3.061 -0.2866 -1.0408 -0.9538
  339MOL0     H45717  10.904   4.452   3.120 -0.7607 -0.7615 -1.7555
  339MOL0     H45718  11.014   4.350   3.215  2.7600 -1.8353 -1.0128
  339MOL0     H45719  11.016   4.351   2.913  1.1147 -1.8889 -1.1257
  339MOL0     H45720  11.129   4.428   3.009  0.7851 -1.5673 -2.0054
  339MOL0     H45721  11.108   4.128   3.012  1.6158 -0.7318 -0.8249
  339MOL0     H45722  11.200   4.221   3.135 -0.1253 -3.7635 -0.1513
  339MOL0     H45723  11.232   4.244   2.825  0.7869 -1.1929  0.5568
  339MOL0     H45724  11.315   4.124   2.918  1.1070  0.7636 -0.1826
  339MOL0     H45725  11.552   4.469   3.037 -2.7016  0.8087 -2.6215
  339MOL0     H45726  11.810   4.444   3.006 -0.9807  0.4862  0.5633
  339MOL0     H45727  12.163   4.163   2.859  0.8709 -3.1690  0.2696
  339MOL0     H45728  12.387   4.121   2.763 -1.9977  1.0852  2.9705
  339MOL0     H45729  12.468   4.340   2.380  0.7054  0.1557 -0.6163
  339MOL0     H45730  12.519   4.391   2.536  0.8389  0.8852 -2.7361
  339MOL0     H45731  12.673   4.201   2.351  0.0199  1.4750 -1.3480
  339MOL0     H45732  12.701   4.375   2.358  0.0540  0.8132  0.7546
  339MOL0     H45733  12.750   4.160   2.571  1.2072  0.5055  2.1999
  339MOL0     H45734  12.877   4.214   2.463  0.6947  3.2755 -0.7680
  339MOL0     H45735  12.732   4.369   2.681 -1.2770 -2.2649 -1.6340
  339MOL0     H45736  12.823   4.467   2.571  1.5120 -0.5358 -0.2205
  339MOL0     H45737  12.967   4.245   2.702  0.3513  0.5306 -0.1392
  339MOL0     H45738  12.954   4.408   2.768 -1.6143  2.6249 -0.5756
  339MOL0     H45739  13.056   4.329   2.485 -1.7730 -0.4825  0.4685
  339MOL0     H45740  13.069   4.484   2.567  1.0804 -0.5034 -0.3838
  339MOL0     H45741  13.182   4.224   2.678 -0.8607 -0.7562 -2.6073
  339MOL0     H45742  13.231   4.390   2.748  2.2501  1.6453 -2.0570
  339MOL0     H45743  13.419   4.295   2.627  2.3334  0.6419 -2.3929
  339MOL0     H45744  13.306   4.281   2.493  0.3867 -2.3567  1.5048
  339MOL0     H45745  12.257   4.302   2.389 -2.3868  0.8967 -0.4884
  339MOL0     H45746  12.030   4.297   2.474 -0.2959 -0.7543  0.4811
  339MOL0     H45747  11.737   4.128   2.736 -1.8815 -1.1273 -0.3087
  339MOL0     H45748  11.490   4.144   2.769 -1.2487  2.8861 -0.6724
  339MOL0     H45749   9.689   4.613   3.076 -1.3785 -1.0228  1.9777
  339MOL0     H45750   9.532   4.789   3.033 -1.2800  0.6315 -1.3714
  339MOL0     H45751   9.116   4.779   2.708 -0.9387 -0.9493  0.1103
  339MOL0     H45752   8.947   4.901   2.602  1.9011 -1.7612  0.3218
  339MOL0     H45753   8.784   5.242   2.810 -0.2526 -0.1504  0.9576
  339MOL0     H45754   8.652   5.127   2.864  1.7247 -1.3445  1.0718
  339MOL0     H45755   8.668   5.285   2.605 -2.9797  0.6535 -2.0572
  339MOL0     H45756   8.587   5.347   2.747  2.6194  1.0599 -0.2685
  339MOL0     H45757   8.444   5.143   2.754 -0.7215 -0.4485  0.2602
  339MOL0     H45758   8.524   5.097   2.600  2.8631 -0.4361  0.7916
  339MOL0     H45759   8.338   5.343   2.659 -1.3629 -2.2155  1.2290
  339MOL0     H45760   8.457   5.332   2.519  1.5438  0.3139  1.9915
  339MOL0     H45761   8.099   5.095   2.454 -0.1045  1.4692 -0.7726
  339MOL0     H45762   8.861   5.117   2.963  1.1707  1.0428  1.2671
  339MOL0     H45763   9.065   4.954   3.173 -1.2375 -0.3089 -0.7217
  339MOL0     H45764   9.168   5.074   3.101 -0.6382  3.7851 -1.0805
  339MOL0     H45765   8.998   5.108   3.143  0.1987 -0.4404  1.8270
  340MOL0     O45766   9.790   2.292   1.193  0.2733 -0.2090  0.3018
  340MOL0     C45767   9.783   2.192   1.266  0.6418  0.2841 -0.3536
  340MOL0     O45768   9.666   2.126   1.290  0.3682  0.3122 -0.1717
  340MOL0     C45769   9.544   2.178   1.264  0.2563 -0.5626 -1.2762
  340MOL0     C45770   9.505   2.309   1.293 -0.5580 -0.2811  0.0018
  340MOL0     C45771   9.382   2.352   1.245  0.7480  0.3731  0.2950
  340MOL0     C45772   9.279   2.258   1.218  0.4561  0.0833  0.3660
  340MOL0     O45773   9.151   2.313   1.201  0.5796 -0.4131 -0.1538
  340MOL0     C45774   9.042   2.221   1.228 -0.3663 -0.5315  0.0015
  340MOL0     C45775   8.909   2.293   1.219 -0.2369  0.3701 -1.2215
  340MOL0     C45776   8.851   2.310   1.078 -0.1047 -0.1271  0.3497
  340MOL0     C45777   8.939   2.383   0.966  0.2203 -0.0104 -0.6158
  340MOL0     C45778   8.860   2.395   0.838  0.4168  0.1637 -0.7841
  340MOL0     C45779   8.833   2.260   0.772 -0.1856  0.2275 -0.4799
  340MOL0     C45780   8.833   2.258   0.624 -0.0775 -1.1744  0.0713
  340MOL0     C45781   8.761   2.145   0.550 -0.7567 -0.0370  0.3042
  340MOL0     N45782   8.614   2.153   0.573  0.0865 -0.0394  0.7402
  340MOL0     C45783   8.512   2.213   0.499  0.0827 -0.1301 -1.0997
  340MOL0     C45784   8.398   2.186   0.570  0.4215  0.6645  0.4536
  340MOL0     C45785   8.264   2.255   0.554 -0.0649 -0.1410  0.3554
  340MOL0     C45786   8.154   2.157   0.522 -0.0273 -0.3224 -0.3252
  340MOL0     C45787   8.014   2.224   0.550 -0.1769  0.5056  0.3808
  340MOL0     C45788   7.907   2.142   0.479  0.3748 -0.2790  0.3857
  340MOL0     O45789   7.780   2.201   0.486 -0.1762 -0.9140  0.1912
  340MOL0     C45790   7.707   2.216   0.370  0.6058 -0.2156 -0.4573
  340MOL0     C45791   7.627   2.331   0.347 -0.4988 -0.2314 -0.1595
  340MOL0     C45792   7.537   2.330   0.239 -0.9938 -0.9614  0.3503
  340MOL0     C45793   7.522   2.224   0.154 -0.3589  0.6363  0.2712
  340MOL0     C45794   7.415   2.226   0.039 -1.1773 -0.1359  0.0285
  340MOL0     O45795   7.309   2.305   0.052  0.4845  0.0589  0.2029
  340MOL0     C45796   7.238   2.324  -0.066  0.4324  0.1701  0.7749
  340MOL0     C45797   7.146   2.227  -0.123 -0.4882 -1.1980 -0.2118
  340MOL0     C45798   7.069   2.267  -0.239 -0.4219 -0.5479  0.1011
  340MOL0     C45799   7.072   2.400  -0.298  0.3365 -0.4000 -0.3629
  340MOL0     O45800   6.982   2.425  -0.404  0.8770 -0.2240  0.0991
  340MOL0     C45801   7.030   2.530  -0.484  0.5278  0.2264  0.5476
  340MOL0     C45802   6.953   2.531  -0.618  0.4154  0.3378 -0.4103
  340MOL0     C45803   6.802   2.579  -0.589 -0.0610 -0.5921  1.1328
  340MOL0     C45804   6.735   2.625  -0.718  0.0002 -0.3782  0.1087
  340MOL0     C45805   6.715   2.518  -0.826 -0.1769  0.5396  1.0013
  340MOL0     C45806   6.662   2.378  -0.776 -0.2363 -0.0742  1.2375
  340MOL0     C45807   6.642   2.293  -0.900  0.3860  0.4408 -0.1841
  340MOL0     C45808   6.601   2.151  -0.861 -0.9080 -1.0073  0.0029
  340MOL0    Cl45809   6.430   2.160  -0.801 -0.3724 -0.2983 -0.2504
  340MOL0     C45810   7.159   2.483  -0.227  1.2719  0.5879  0.4560
  340MOL0     C45811   7.240   2.449  -0.120 -0.3004 -0.1808 -0.3074
  340MOL0     O45812   7.437   2.156  -0.063  0.2822  0.3003 -0.7969
  340MOL0     C45813   7.601   2.108   0.184  0.9579  0.9696 -1.0517
  340MOL0     C45814   7.687   2.109   0.293  0.3368  0.9481 -0.3927
  340MOL0     N45815   8.431   2.117   0.689 -0.0831 -0.5799  0.1422
  340MOL0     N45816   8.557   2.099   0.684 -0.1400  0.0196 -0.0052
  340MOL0     C45817   9.314   2.127   1.196 -0.2728  0.0937 -0.4207
  340MOL0     C45818   9.447   2.082   1.227 -0.6505 -0.2282 -0.0256
  340MOL0     C45819   9.899   2.134   1.338 -0.2217  0.1590  0.1097
  340MOL0     C45820   9.867   2.044   1.439  0.2845  0.9456 -0.7885
  340MOL0     C45821   9.969   1.967   1.491 -0.3129  0.4084 -0.5149
  340MOL0     C45822  10.101   1.970   1.448 -0.4072  0.5849 -0.2258
  340MOL0     O45823  10.191   1.875   1.495 -0.2658  0.4753 -0.0355
  340MOL0     C45824  10.319   1.920   1.525  0.0288 -0.4597 -0.7547
  340MOL0     C45825  10.390   1.807   1.594 -0.0697  0.5424  0.4060
  340MOL0     C45826  10.535   1.848   1.625 -1.0037 -0.0535  0.4968
  340MOL0     C45827  10.629   1.735   1.665 -0.1384  0.5298 -0.3679
  340MOL0     C45828  10.696   1.735   1.789  0.1064 -0.7737  0.0505
  340MOL0     C45829  10.745   1.739   1.899 -0.5232  0.2105 -0.3440
  340MOL0     C45830  10.131   2.059   1.343 -0.7391 -1.1071 -0.0178
  340MOL0     C45831  10.033   2.136   1.289  0.2475  0.2876  0.2077
  340MOL0     C45832  10.068   2.226   1.170 -0.1898  0.3905 -0.2849
  340MOL0     H45833   9.587   2.375   1.320 -1.0201  0.5859 -0.6587
  340MOL0     H45834   9.356   2.457   1.241 -0.5455  0.0500 -3.1676
  340MOL0     H45835   9.047   2.142   1.152  0.5339 -0.1743 -0.3234
  340MOL0     H45836   9.054   2.174   1.326 -0.0661  1.8240  1.1621
  340MOL0     H45837   8.906   2.391   1.268 -0.6366  0.2978 -1.0929
  340MOL0     H45838   8.832   2.236   1.272 -0.6234  0.4850 -1.6524
  340MOL0     H45839   8.756   2.364   1.077 -0.6718 -0.9663 -2.8389
  340MOL0     H45840   8.823   2.209   1.046 -2.8375  0.3160  1.0985
  340MOL0     H45841   8.950   2.486   1.001  3.0933  0.8565 -3.5073
  340MOL0     H45842   9.037   2.340   0.942  0.7072  1.4349 -1.3306
  340MOL0     H45843   8.770   2.450   0.868  1.2936  1.4345 -0.4203
  340MOL0     H45844   8.916   2.459   0.769  2.0193 -1.2910 -0.9040
  340MOL0     H45845   8.912   2.197   0.813  0.8836  1.2693 -0.8953
  340MOL0     H45846   8.740   2.215   0.809  0.7028 -2.4035 -1.2398
  340MOL0     H45847   8.938   2.267   0.597 -0.3119 -0.1107 -0.5456
  340MOL0     H45848   8.779   2.345   0.586 -1.6078 -2.0801  0.0761
  340MOL0     H45849   8.779   2.154   0.442 -0.5308  0.8685  0.4089
  340MOL0     H45850   8.791   2.045   0.581 -1.8208 -1.1076 -1.8928
  340MOL0     H45851   8.522   2.276   0.411  2.9249 -0.9807 -1.5176
  340MOL0     H45852   8.234   2.311   0.643  0.7632  0.3566  0.3314
  340MOL0     H45853   8.279   2.319   0.466 -0.2951 -0.7520 -0.1322
  340MOL0     H45854   8.163   2.125   0.418  1.5247 -1.0386  0.0060
  340MOL0     H45855   8.157   2.069   0.587  1.3108 -1.4002 -1.7782
  340MOL0     H45856   8.012   2.330   0.522  0.0426  0.9969  2.1230
  340MOL0     H45857   7.986   2.238   0.655 -2.0301  0.0132 -0.0064
  340MOL0     H45858   7.896   2.044   0.527 -1.8556 -2.1137 -3.3951
  340MOL0     H45859   7.934   2.129   0.374  0.9239 -2.0713  0.7091
  340MOL0     H45860   7.624   2.420   0.409 -3.5674 -0.6240  0.4079
  340MOL0     H45861   7.478   2.418   0.216  0.2536 -0.1217  0.2738
  340MOL0     H45862   7.140   2.127  -0.081 -1.7479  0.0719  2.8644
  340MOL0     H45863   6.997   2.204  -0.290  0.9201 -1.5698 -0.6160
  340MOL0     H45864   7.006   2.620  -0.428 -2.7813  0.6493 -1.2826
  340MOL0     H45865   7.138   2.518  -0.500  0.8301  1.0462  1.8381
  340MOL0     H45866   7.000   2.599  -0.690 -1.1742  1.0128 -0.8608
  340MOL0     H45867   6.960   2.426  -0.646 -0.6930  0.0239  0.3930
  340MOL0     H45868   6.750   2.499  -0.536  2.4131 -2.6143  0.6694
  340MOL0     H45869   6.796   2.665  -0.521  0.1362  0.9861 -0.7586
  340MOL0     H45870   6.787   2.705  -0.772 -3.8957  0.9596 -2.0917
  340MOL0     H45871   6.638   2.664  -0.685 -0.2129 -1.2829  0.5740
  340MOL0     H45872   6.813   2.508  -0.874 -0.2942  0.7708  0.7094
  340MOL0     H45873   6.641   2.562  -0.895  0.9568 -0.1003 -0.7018
  340MOL0     H45874   6.741   2.329  -0.718  0.4276 -1.7759 -0.9707
  340MOL0     H45875   6.565   2.371  -0.726 -1.8021 -4.5622 -1.8505
  340MOL0     H45876   6.736   2.295  -0.957 -0.9353 -0.0814 -2.5145
  340MOL0     H45877   6.567   2.346  -0.960  0.9366 -0.3547 -1.6406
  340MOL0     H45878   6.596   2.080  -0.944 -1.0281 -4.4008  2.6929
  340MOL0     H45879   6.665   2.117  -0.779 -0.4775  1.8220  0.9557
  340MOL0     H45880   7.167   2.586  -0.261 -2.5914  0.8890 -0.0236
  340MOL0     H45881   7.294   2.522  -0.060  1.4866 -1.7354  0.0396
  340MOL0     H45882   7.582   2.017   0.129  1.8092 -0.4249  0.8663
  340MOL0     H45883   7.733   2.013   0.316  0.3624  0.1854 -3.2454
  340MOL0     H45884   9.243   2.053   1.160  0.3184 -0.7879  0.1915
  340MOL0     H45885   9.474   1.977   1.221  0.4546  0.0989 -1.0414
  340MOL0     H45886   9.764   2.030   1.469  0.5543 -2.2462 -1.0309
  340MOL0     H45887   9.955   1.907   1.580 -1.1198  0.5295 -0.5553
  340MOL0     H45888  10.322   2.006   1.593  1.1759 -0.7751 -0.3639
  340MOL0     H45889  10.381   1.943   1.438  0.5882 -1.2097 -0.5709
  340MOL0     H45890  10.387   1.725   1.521  3.3355  0.4687  0.2002
  340MOL0     H45891  10.339   1.784   1.688  0.7858 -0.9724  0.5394
  340MOL0     H45892  10.529   1.918   1.709  1.9678  0.7418  0.1368
  340MOL0     H45893  10.585   1.910   1.550 -0.0497  1.8125  2.5844
  340MOL0     H45894  10.573   1.642   1.656  0.0672  0.2563  1.0061
  340MOL0     H45895  10.714   1.732   1.597  0.0643 -3.2947 -0.1295
  340MOL0     H45896  10.786   1.726   1.997 -1.0283 -1.2300 -0.2999
  340MOL0     H45897  10.225   2.064   1.290 -1.7416  0.2767 -1.7928
  340MOL0     H45898  10.047   2.332   1.189  2.9415  0.9826  0.3927
  340MOL0     H45899  10.173   2.216   1.142  0.0169 -0.2316  0.6595
  340MOL0     H45900  10.009   2.204   1.081 -0.8914  3.2120 -0.6210
  341MOL0     O45901   5.836   7.738   9.394  1.3337 -0.1521 -0.6763
  341MOL0     C45902   5.777   7.801   9.479  0.1246  0.4232 -0.1871
  341MOL0     O45903   5.839   7.890   9.567 -0.2994 -0.0763  0.1202
  341MOL0     C45904   5.973   7.913   9.542  0.4464  0.1238  0.5041
  341MOL0     C45905   6.038   7.915   9.414  0.2945 -0.2222 -0.0915
  341MOL0     C45906   6.167   7.980   9.409 -0.4411  0.3509  0.6051
  341MOL0     C45907   6.232   8.032   9.526 -0.7089  0.1145 -0.1854
  341MOL0     O45908   6.356   8.089   9.509  0.2704  0.5386  0.0804
  341MOL0     C45909   6.421   8.145   9.627 -0.0234 -0.5600 -0.1352
  341MOL0     C45910   6.572   8.195   9.605 -0.4511  0.6703 -0.5221
  341MOL0     C45911   6.676   8.095   9.633 -0.2661  0.0803  0.2452
  341MOL0     C45912   6.812   8.157   9.633 -0.2050  0.4153  0.2519
  341MOL0     C45913   6.866   8.205   9.501 -0.1170 -0.0653  0.2104
  341MOL0     C45914   6.865   8.087   9.397  0.2068 -0.2355 -0.2653
  341MOL0     C45915   6.952   8.108   9.272  0.7340  0.3027  0.2396
  341MOL0     C45916   6.921   8.243   9.195  0.8992 -0.1027 -0.3549
  341MOL0     N45917   7.010   8.257   9.091  0.9824  0.1145 -0.2652
  341MOL0     C45918   7.143   8.280   9.095 -0.8423 -0.5846 -0.2991
  341MOL0     C45919   7.185   8.287   8.966 -0.3921 -1.4355 -0.4877
  341MOL0     C45920   7.323   8.313   8.901 -0.4169 -0.2121 -0.4461
  341MOL0     C45921   7.341   8.462   8.871  0.4001 -0.3130 -0.4659
  341MOL0     C45922   7.487   8.491   8.867 -0.4318  0.1090  0.0821
  341MOL0     C45923   7.524   8.636   8.851  0.0721 -0.6831  0.2642
  341MOL0     O45924   7.640   8.672   8.777 -0.4189 -0.2964 -0.4987
  341MOL0     C45925   7.771   8.670   8.821  0.1799 -0.2256  0.6608
  341MOL0     C45926   7.804   8.626   8.941  0.1834  0.1313 -0.1854
  341MOL0     C45927   7.940   8.631   8.985  0.8722 -0.8596  0.3267
  341MOL0     C45928   8.037   8.691   8.896 -0.6837 -0.4130 -0.8483
  341MOL0     C45929   8.177   8.714   8.954 -0.1889 -0.8269  1.1425
  341MOL0     O45930   8.276   8.736   8.859 -0.4333  0.3474 -0.8043
  341MOL0     C45931   8.409   8.738   8.884  0.8724  0.8107  0.3916
  341MOL0     C45932   8.470   8.633   8.952 -0.6850 -0.6639 -0.7934
  341MOL0     C45933   8.615   8.625   8.947  0.1580  0.5420  0.0998
  341MOL0     C45934   8.682   8.727   8.880  0.7379  0.0602  0.3022
  341MOL0     O45935   8.816   8.730   8.848  0.2657 -0.5429  0.5853
  341MOL0     C45936   8.906   8.641   8.912 -0.1253  0.0409 -0.7100
  341MOL0     C45937   9.048   8.680   8.863  0.0900 -0.0124 -0.4878
  341MOL0     C45938   9.129   8.555   8.867  0.3719  0.2608 -0.0834
  341MOL0     C45939   9.274   8.595   8.904  0.9275 -0.8954  0.7383
  341MOL0     C45940   9.348   8.459   8.924  0.4568 -0.2751 -0.3906
  341MOL0     C45941   9.475   8.481   9.013 -0.4911 -0.6806 -0.4404
  341MOL0     C45942   9.449   8.489   9.164  0.4374  0.3639  0.6692
  341MOL0     C45943   9.567   8.507   9.256 -0.2855  0.5927  0.0617
  341MOL0    Cl45944   9.702   8.397   9.219 -0.5542 -0.5293  0.2374
  341MOL0     C45945   8.610   8.835   8.816 -0.3794  0.9755  0.0881
  341MOL0     C45946   8.476   8.839   8.823 -1.2550  0.2646 -0.4208
  341MOL0     O45947   8.191   8.693   9.071  0.1438  0.6965 -0.3942
  341MOL0     C45948   7.993   8.740   8.766  0.6454  0.5974 -0.3634
  341MOL0     C45949   7.857   8.728   8.728  0.2393  0.1367  0.8547
  341MOL0     N45950   7.071   8.285   8.884 -0.3043  0.3435 -0.2773
  341MOL0     N45951   6.966   8.255   8.960 -0.5682  0.4327  0.5999
  341MOL0     C45952   6.163   8.031   9.651 -0.0127  0.6759 -0.1851
  341MOL0     C45953   6.037   7.973   9.652 -0.5402 -0.7057  0.6306
  341MOL0     C45954   5.627   7.788   9.500  0.3716  0.5891  0.6984
  341MOL0     C45955   5.551   7.901   9.530  0.3898 -0.1706 -0.1349
  341MOL0     C45956   5.417   7.900   9.542  0.2927  0.7398  0.1827
  341MOL0     C45957   5.343   7.789   9.514  0.4012  0.2432 -0.1912
  341MOL0     O45958   5.209   7.798   9.514 -0.3536 -0.4879  0.8009
  341MOL0     C45959   5.125   7.685   9.496  0.3230  0.8098  0.1649
  341MOL0     C45960   4.981   7.719   9.504  0.3173 -0.9471 -0.3741
  341MOL0     C45961   4.950   7.782   9.641 -0.8413 -0.1030 -0.1839
  341MOL0     C45962   4.815   7.848   9.657 -0.3295  0.0058  1.1361
  341MOL0     C45963   4.832   7.967   9.732  0.4237  0.6661  0.0886
  341MOL0     C45964   4.856   8.065   9.794 -0.0653 -0.0172  0.4825
  341MOL0     C45965   5.411   7.673   9.475 -0.4579 -0.6611  0.4704
  341MOL0     C45966   5.554   7.667   9.469 -0.6563  0.0445  0.9581
  341MOL0     C45967   5.608   7.543   9.417 -0.2349 -0.2859 -0.4761
  341MOL0     H45968   5.983   7.895   9.323 -2.2299  1.8341  0.8455
  341MOL0     H45969   6.225   7.989   9.318  0.3293  0.7089  1.1233
  341MOL0     H45970   6.355   8.224   9.662 -0.8943 -1.3222 -0.0079
  341MOL0     H45971   6.425   8.071   9.708 -2.8764 -3.1694 -2.1334
  341MOL0     H45972   6.587   8.283   9.668 -2.3359 -1.4609  3.2860
  341MOL0     H45973   6.587   8.224   9.501  0.5556 -0.4732 -0.7170
  341MOL0     H45974   6.658   8.014   9.562 -0.7613 -0.9687  1.5122
  341MOL0     H45975   6.655   8.051   9.731 -1.6993  2.2121  0.9737
  341MOL0     H45976   6.817   8.242   9.701  0.3605  0.9418 -0.4333
  341MOL0     H45977   6.888   8.091   9.676 -0.7447  0.4270  1.2547
  341MOL0     H45978   6.816   8.292   9.457 -0.7235 -0.9336 -0.8661
  341MOL0     H45979   6.967   8.245   9.516  1.4268 -4.0501  1.9258
  341MOL0     H45980   6.890   7.993   9.447 -0.4955  0.0344  0.6361
  341MOL0     H45981   6.763   8.083   9.356  1.0427  1.4429 -2.7380
  341MOL0     H45982   6.935   8.024   9.205 -0.4916 -1.2150  2.3346
  341MOL0     H45983   7.048   8.119   9.323 -0.0180  1.0676  1.5546
  341MOL0     H45984   6.822   8.248   9.149  0.3384  0.5378  0.8744
  341MOL0     H45985   6.931   8.332   9.258 -1.0466  2.0771 -2.8569
  341MOL0     H45986   7.210   8.288   9.179  0.0590 -2.4765 -0.7857
  341MOL0     H45987   7.395   8.283   8.978 -1.9281  1.6148  1.8368
  341MOL0     H45988   7.336   8.248   8.814 -2.1610  1.6277 -2.1911
  341MOL0     H45989   7.289   8.496   8.781  1.2335  2.2723 -0.0718
  341MOL0     H45990   7.300   8.512   8.960  0.7164  0.9930 -1.0211
  341MOL0     H45991   7.540   8.432   8.792 -0.1285  2.1663 -1.4012
  341MOL0     H45992   7.528   8.458   8.963 -1.6027 -2.5733 -0.2624
  341MOL0     H45993   7.527   8.695   8.943 -2.0842 -0.6950  0.4074
  341MOL0     H45994   7.432   8.680   8.810 -2.4193 -4.7471  0.9717
  341MOL0     H45995   7.727   8.587   9.006  0.0857 -0.7933 -0.8356
  341MOL0     H45996   7.964   8.603   9.087  2.9528 -0.5159 -0.0277
  341MOL0     H45997   8.414   8.550   8.993  0.0955 -0.7966  0.0305
  341MOL0     H45998   8.671   8.540   8.986 -0.2126  0.4969  0.5439
  341MOL0     H45999   8.899   8.663   9.019  0.6274 -2.7592 -0.0046
  341MOL0     H46000   8.882   8.535   8.903  0.2519 -0.0978 -0.1480
  341MOL0     H46001   9.049   8.717   8.760  2.5434  1.6922  0.0274
  341MOL0     H46002   9.097   8.756   8.926  1.7405 -4.2596  3.9378
  341MOL0     H46003   9.092   8.497   8.951  0.8474  0.8074  0.5132
  341MOL0     H46004   9.125   8.494   8.776  1.9248 -2.5167  1.5887
  341MOL0     H46005   9.261   8.650   8.998  1.1422  0.0244  0.2419
  341MOL0     H46006   9.324   8.652   8.826 -1.2247 -0.9319 -0.7824
  341MOL0     H46007   9.375   8.412   8.829  1.7933  2.1857 -1.3178
  341MOL0     H46008   9.289   8.383   8.976  2.8240 -0.3474  2.4097
  341MOL0     H46009   9.540   8.396   8.993  0.3610 -1.0111  3.1158
  341MOL0     H46010   9.533   8.571   8.989  0.9722 -2.0662 -2.3781
  341MOL0     H46011   9.401   8.393   9.182  0.4534  0.4884  1.4328
  341MOL0     H46012   9.367   8.559   9.180 -2.0122 -2.3585  0.8011
  341MOL0     H46013   9.618   8.600   9.231 -0.0761  0.8603  1.3917
  341MOL0     H46014   9.539   8.485   9.360 -0.4190 -1.7929 -0.4180
  341MOL0     H46015   8.663   8.927   8.793 -1.3165  1.9065  1.5188
  341MOL0     H46016   8.422   8.926   8.787 -0.2420  0.5173 -1.3734
  341MOL0     H46017   8.072   8.783   8.705 -0.3595  1.6486 -0.9851
  341MOL0     H46018   7.815   8.751   8.631  2.7534 -0.0323 -0.3766
  341MOL0     H46019   6.208   8.076   9.739 -1.5853  1.3479  0.3007
  341MOL0     H46020   5.987   7.986   9.747  0.1000  0.6463  0.7998
  341MOL0     H46021   5.598   7.999   9.538  0.5234 -0.1974 -0.5778
  341MOL0     H46022   5.372   7.995   9.569  0.4205  0.7914  0.2147
  341MOL0     H46023   5.152   7.602   9.562  1.3786 -0.4640 -1.7668
  341MOL0     H46024   5.147   7.641   9.398  2.5217 -1.5306  1.5598
  341MOL0     H46025   4.913   7.640   9.471  0.6481 -1.4857  0.2259
  341MOL0     H46026   4.977   7.802   9.432  0.8188 -0.0573  0.5969
  341MOL0     H46027   5.029   7.854   9.664 -0.9535 -0.0053 -0.1091
  341MOL0     H46028   4.964   7.711   9.723  1.1607  0.1914 -0.2165
  341MOL0     H46029   4.768   7.870   9.562  1.4274 -0.1403  0.1854
  341MOL0     H46030   4.747   7.783   9.714 -0.1351  1.1213  2.7154
  341MOL0     H46031   4.888   8.160   9.833  0.0153 -0.3450  1.2271
  341MOL0     H46032   5.360   7.587   9.432  2.5255 -1.3404 -2.0162
  341MOL0     H46033   5.700   7.531   9.476 -0.1276  0.8946 -0.3691
  341MOL0     H46034   5.554   7.454   9.448 -2.7868  0.1497 -3.2396
  341MOL0     H46035   5.631   7.550   9.310 -0.3381  2.2139 -0.3956
  342MOL0     O46036   7.205   3.840   5.528  0.3023  0.2956 -0.5402
  342MOL0     C46037   7.244   3.881   5.636 -0.5081  0.1038 -0.1265
  342MOL0     O46038   7.164   3.906   5.741 -0.5366 -0.9165  0.4972
  342MOL0     C46039   7.026   3.913   5.729 -0.6859  0.2950  0.0421
  342MOL0     C46040   6.951   3.795   5.747 -0.0358  0.5927 -0.0707
  342MOL0     C46041   6.817   3.795   5.746 -0.9746 -0.3441  0.0238
  342MOL0     C46042   6.747   3.910   5.725 -0.5835  0.1629 -0.0403
  342MOL0     O46043   6.606   3.915   5.739 -0.2053  0.3018 -0.2289
  342MOL0     C46044   6.548   3.999   5.840  0.1186  0.2678  0.4278
  342MOL0     C46045   6.426   4.068   5.776 -0.1025 -0.1622  0.1914
  342MOL0     C46046   6.303   3.982   5.774  0.0297 -0.4541 -0.3048
  342MOL0     C46047   6.179   4.072   5.751  0.7810 -0.7275 -0.1545
  342MOL0     C46048   6.074   3.986   5.691  0.3365 -0.6537  0.7778
  342MOL0     C46049   5.936   4.067   5.680 -0.3713  0.1875  0.1564
  342MOL0     C46050   5.819   3.980   5.628  0.4048  0.1710 -0.9750
  342MOL0     C46051   5.687   4.061   5.652 -0.4643 -0.0969 -0.3543
  342MOL0     N46052   5.565   3.985   5.697 -0.0711  0.1370 -0.2835
  342MOL0     C46053   5.548   3.851   5.730  0.2547 -0.7286 -1.1450
  342MOL0     C46054   5.420   3.835   5.778  0.1552 -0.1245  0.1391
  342MOL0     C46055   5.368   3.704   5.821  0.1715  0.1518  0.0980
  342MOL0     C46056   5.446   3.638   5.938  0.2750  0.0129  0.2778
  342MOL0     C46057   5.387   3.703   6.065 -0.4701 -0.7261  0.6278
  342MOL0     C46058   5.254   3.633   6.110  0.0062  0.5213  0.8390
  342MOL0     O46059   5.225   3.705   6.231  0.0154 -0.1694  0.2192
  342MOL0     C46060   5.099   3.685   6.281  0.3327 -0.6306  0.4466
  342MOL0     C46061   5.014   3.567   6.275 -0.5713  0.4609 -0.0223
  342MOL0     C46062   4.888   3.559   6.345 -0.1768 -0.8402  0.6172
  342MOL0     C46063   4.841   3.682   6.407 -0.0423  0.1138 -0.2230
  342MOL0     C46064   4.701   3.676   6.458 -1.2774  0.5974  0.1634
  342MOL0     O46065   4.653   3.780   6.535 -0.1792 -0.0897 -0.1347
  342MOL0     C46066   4.530   3.772   6.594 -0.4567  0.4871  0.0990
  342MOL0     C46067   4.499   3.669   6.679 -0.9533  0.0838  0.4947
  342MOL0     C46068   4.370   3.660   6.741 -0.0498  0.2888 -0.1823
  342MOL0     C46069   4.275   3.757   6.722  1.1553  0.8299  0.3732
  342MOL0     O46070   4.150   3.725   6.777  0.4369  0.1851  0.1289
  342MOL0     C46071   4.032   3.789   6.735  0.8519  0.3842 -0.3705
  342MOL0     C46072   3.920   3.705   6.802 -0.2420 -0.9476  0.6201
  342MOL0     C46073   3.785   3.775   6.776 -0.4657 -1.0512 -0.5076
  342MOL0     C46074   3.690   3.660   6.750 -0.1814  0.2902  0.6533
  342MOL0     C46075   3.559   3.737   6.713 -0.1868 -0.2911 -0.1972
  342MOL0     C46076   3.448   3.652   6.663  0.6620  0.7843  0.0736
  342MOL0     C46077   3.348   3.727   6.576 -0.3581  0.2815  0.3187
  342MOL0     C46078   3.269   3.827   6.660 -0.3057  0.0552 -0.2909
  342MOL0    Cl46079   3.132   3.891   6.549 -0.2445 -0.3931 -0.1027
  342MOL0     C46080   4.309   3.871   6.641 -0.4080  0.4018 -0.5116
  342MOL0     C46081   4.437   3.874   6.583 -0.2185  0.0461 -0.2642
  342MOL0     O46082   4.635   3.574   6.434  0.5149  0.2593 -0.6175
  342MOL0     C46083   4.924   3.801   6.406  0.2044  0.3869  0.0818
  342MOL0     C46084   5.048   3.803   6.344 -0.3494 -0.3820 -0.0201
  342MOL0     N46085   5.355   3.955   5.769  0.6707 -1.0284 -0.5133
  342MOL0     N46086   5.441   4.045   5.722  0.2791 -0.3594 -0.1538
  342MOL0     C46087   6.815   4.028   5.710  0.6936 -1.0489 -0.4226
  342MOL0     C46088   6.957   4.032   5.707 -0.5952  0.4653  0.2927
  342MOL0     C46089   7.387   3.875   5.649  0.4217  0.2687 -0.6752
  342MOL0     C46090   7.469   3.766   5.612 -0.1459  0.0767  0.9825
  342MOL0     C46091   7.615   3.773   5.583  0.4733 -0.7599  0.0234
  342MOL0     C46092   7.675   3.896   5.614  0.2435 -0.7373  0.2572
  342MOL0     O46093   7.808   3.909   5.628  0.0692  1.1197  0.6479
  342MOL0     C46094   7.894   3.796   5.606 -0.1932  0.9817  0.2058
  342MOL0     C46095   8.045   3.834   5.622 -0.2870 -0.4697 -0.5036
  342MOL0     C46096   8.127   3.712   5.656 -0.9529 -1.8357 -0.1855
  342MOL0     C46097   8.273   3.748   5.689  0.3682 -0.1534  1.5183
  342MOL0     C46098   8.346   3.799   5.576 -0.2032  0.0072  1.6028
  342MOL0     C46099   8.396   3.835   5.470 -0.5667  0.3270 -0.1294
  342MOL0     C46100   7.596   3.991   5.670 -0.2211 -0.3018  0.3352
  342MOL0     C46101   7.454   3.990   5.674 -0.4957 -0.2804  1.1120
  342MOL0     C46102   7.391   4.122   5.722  1.0596 -0.1097  0.2226
  342MOL0     H46103   7.004   3.702   5.766 -2.5900 -0.3412  3.8405
  342MOL0     H46104   6.755   3.709   5.766 -0.1243 -0.7221  1.1467
  342MOL0     H46105   6.520   3.944   5.931 -1.5606  0.1496 -0.1267
  342MOL0     H46106   6.628   4.070   5.863  3.7424 -2.3089 -2.8449
  342MOL0     H46107   6.455   4.105   5.677 -0.6812  1.7013  0.6789
  342MOL0     H46108   6.410   4.159   5.834  0.1561 -0.3386  0.5447
  342MOL0     H46109   6.300   3.938   5.875 -2.9308  0.3280  0.0432
  342MOL0     H46110   6.321   3.895   5.710  1.3192 -0.2682 -0.2081
  342MOL0     H46111   6.144   4.104   5.849  1.5225  0.3614 -0.2264
  342MOL0     H46112   6.204   4.162   5.695 -2.5100  0.9180  0.8086
  342MOL0     H46113   6.100   3.950   5.591 -1.5056  0.1508 -0.0454
  342MOL0     H46114   6.043   3.898   5.748  0.3824 -0.2955  1.3523
  342MOL0     H46115   5.903   4.102   5.779 -1.9636 -1.7398  0.3773
  342MOL0     H46116   5.944   4.146   5.605  0.1909  0.0180  0.0344
  342MOL0     H46117   5.802   3.891   5.688 -2.4281  2.7077  2.4219
  342MOL0     H46118   5.828   3.968   5.519 -1.5451  0.1135 -1.1673
  342MOL0     H46119   5.710   4.132   5.732 -0.8541 -1.8388  1.3794
  342MOL0     H46120   5.663   4.111   5.559 -0.3824 -2.7165 -1.8849
  342MOL0     H46121   5.617   3.770   5.710 -0.4270 -1.9656  1.1749
  342MOL0     H46122   5.265   3.725   5.850  0.1319  1.2121 -0.7221
  342MOL0     H46123   5.366   3.634   5.737  0.6741 -0.0754  0.2706
  342MOL0     H46124   5.428   3.530   5.938  1.7287 -0.2672 -1.5159
  342MOL0     H46125   5.553   3.663   5.944 -0.2179  2.1072  1.8161
  342MOL0     H46126   5.351   3.804   6.044 -0.6634 -1.0054 -0.4823
  342MOL0     H46127   5.466   3.708   6.140 -0.9745  1.3242  1.0886
  342MOL0     H46128   5.265   3.526   6.129 -0.8342  0.3870  0.5988
  342MOL0     H46129   5.170   3.632   6.040 -0.0506 -1.2363  0.8798
  342MOL0     H46130   5.054   3.482   6.220  0.5547 -0.4715  2.1228
  342MOL0     H46131   4.836   3.465   6.332  3.1219 -2.5058 -2.0048
  342MOL0     H46132   4.567   3.587   6.698  0.0579  1.0599  1.2796
  342MOL0     H46133   4.346   3.577   6.807 -0.9096  0.3818 -0.3700
  342MOL0     H46134   4.024   3.886   6.785 -1.0728 -0.7137  1.6211
  342MOL0     H46135   4.032   3.787   6.626 -2.2504 -0.3647 -0.4622
  342MOL0     H46136   3.918   3.607   6.754 -3.9168 -0.7996  0.1660
  342MOL0     H46137   3.937   3.683   6.908  1.6995 -2.3985  0.0759
  342MOL0     H46138   3.761   3.831   6.867  0.7602  1.2178 -1.4872
  342MOL0     H46139   3.783   3.848   6.695  1.3931  0.4950  0.7433
  342MOL0     H46140   3.685   3.595   6.838  2.6634 -4.4443 -2.2832
  342MOL0     H46141   3.716   3.593   6.668 -1.4916 -0.4954  0.8605
  342MOL0     H46142   3.586   3.799   6.627 -2.4973  0.6063 -0.3344
  342MOL0     H46143   3.512   3.797   6.792  0.7597 -0.2581  0.3555
  342MOL0     H46144   3.491   3.576   6.597  4.7848  2.9675 -0.0433
  342MOL0     H46145   3.399   3.594   6.742 -1.7149 -0.3487 -2.0630
  342MOL0     H46146   3.267   3.663   6.542  0.8930  0.3287 -3.2218
  342MOL0     H46147   3.400   3.782   6.497  0.8722  0.5841  1.3069
  342MOL0     H46148   3.223   3.765   6.737  0.5974 -0.0095  0.2145
  342MOL0     H46149   3.332   3.906   6.702 -0.0664 -0.4603  0.3426
  342MOL0     H46150   4.244   3.957   6.631 -0.9059  0.0110 -0.6890
  342MOL0     H46151   4.472   3.971   6.548 -1.7346  0.8629  0.3740
  342MOL0     H46152   4.884   3.883   6.465 -5.4002 -0.6112 -1.6665
  342MOL0     H46153   5.113   3.889   6.334 -1.4171  0.5365  0.6892
  342MOL0     H46154   6.771   4.123   5.683  1.2326 -0.2434  1.4006
  342MOL0     H46155   7.012   4.121   5.678  1.6067 -0.5601  1.0873
  342MOL0     H46156   7.412   3.679   5.580  1.0149  0.1920 -1.6159
  342MOL0     H46157   7.664   3.681   5.551  0.2273 -0.5124 -1.1078
  342MOL0     H46158   7.878   3.749   5.509 -1.1303  0.7952  0.4436
  342MOL0     H46159   7.860   3.723   5.680  1.4291  0.9778  1.0053
  342MOL0     H46160   8.064   3.920   5.687 -0.0299 -1.8415  1.3571
  342MOL0     H46161   8.084   3.859   5.523  0.8410 -3.1066 -0.8275
  342MOL0     H46162   8.125   3.642   5.572 -1.1210 -2.4350  0.3129
  342MOL0     H46163   8.080   3.672   5.746 -0.8793  1.0580  1.2516
  342MOL0     H46164   8.274   3.824   5.767  2.9121  0.1199  1.3001
  342MOL0     H46165   8.327   3.661   5.728 -0.5384 -1.7621 -0.6017
  342MOL0     H46166   8.442   3.881   5.385 -1.7293 -0.9130 -1.4985
  342MOL0     H46167   7.647   4.077   5.711 -4.0220  0.6203  3.8210
  342MOL0     H46168   7.295   4.143   5.673  1.2627  0.4852  0.0702
  342MOL0     H46169   7.363   4.111   5.827 -1.6403 -2.3301 -0.5959
  342MOL0     H46170   7.454   4.210   5.707  2.1316 -1.0835 -1.2147
  343MOL0     O46171   5.230   2.301   1.081  0.4922 -0.6476  0.1879
  343MOL0     C46172   5.229   2.368   1.182  0.0794  0.0857 -0.4822
  343MOL0     O46173   5.329   2.374   1.272 -0.6096  0.5318  0.4933
  343MOL0     C46174   5.464   2.361   1.246 -0.2382  0.9911  0.0903
  343MOL0     C46175   5.516   2.358   1.114 -0.0545 -0.2593  0.5192
  343MOL0     C46176   5.651   2.353   1.093 -0.1978  0.2993 -0.2537
  343MOL0     C46177   5.740   2.344   1.199 -0.1342  0.6281  0.3619
  343MOL0     O46178   5.875   2.360   1.167  0.4719  0.7012 -0.1274
  343MOL0     C46179   5.951   2.240   1.206 -0.1889 -0.4464 -0.2722
  343MOL0     C46180   6.078   2.251   1.119 -0.2878 -0.2509  0.8537
  343MOL0     C46181   6.179   2.138   1.139 -0.4115 -0.0632  0.2793
  343MOL0     C46182   6.253   2.150   1.269  0.0464  0.2511  0.1983
  343MOL0     C46183   6.400   2.198   1.263  0.8718 -0.1494 -0.9731
  343MOL0     C46184   6.460   2.190   1.408  0.5870  0.1813  0.8020
  343MOL0     C46185   6.608   2.244   1.413  0.4900 -0.6033 -0.6045
  343MOL0     C46186   6.686   2.143   1.347 -0.4439  0.4199 -0.0441
  343MOL0     N46187   6.831   2.157   1.343  0.6843 -0.7113 -0.8866
  343MOL0     C46188   6.900   2.278   1.337  0.3256  0.6004  0.3134
  343MOL0     C46189   7.034   2.242   1.341 -0.8738  0.6263 -0.9392
  343MOL0     C46190   7.154   2.327   1.311 -0.6483 -0.1097  0.3541
  343MOL0     C46191   7.285   2.283   1.376  0.1288 -0.0184 -0.5576
  343MOL0     C46192   7.379   2.180   1.301  0.4998 -0.7362  0.1974
  343MOL0     C46193   7.521   2.197   1.336  0.0734  0.2219  0.4649
  343MOL0     O46194   7.533   2.196   1.478  0.9616 -0.7768  0.1598
  343MOL0     C46195   7.656   2.210   1.529 -0.4712  0.4117 -0.6261
  343MOL0     C46196   7.658   2.232   1.663 -0.3119  0.5007  1.0681
  343MOL0     C46197   7.779   2.269   1.727  0.6831 -0.4901  0.8386
  343MOL0     C46198   7.898   2.279   1.661  1.0639  0.6918 -0.2907
  343MOL0     C46199   8.023   2.311   1.735 -0.2219  0.1885 -0.0300
  343MOL0     O46200   8.014   2.330   1.865 -0.0455  0.0604  0.3430
  343MOL0     C46201   8.123   2.361   1.941 -0.0624 -0.0795 -0.1128
  343MOL0     C46202   8.119   2.449   2.054 -0.7186  0.0966  0.6580
  343MOL0     C46203   8.230   2.470   2.134  0.9992  0.4985 -0.0027
  343MOL0     C46204   8.346   2.391   2.123  0.2764  0.4623 -1.3309
  343MOL0     O46205   8.447   2.408   2.207  0.3859  0.2718 -0.0055
  343MOL0     C46206   8.528   2.518   2.167 -0.3112  0.5662 -0.2684
  343MOL0     C46207   8.636   2.559   2.268 -0.0297 -0.9938  0.1060
  343MOL0     C46208   8.723   2.444   2.328  0.2464 -0.5067  0.5899
  343MOL0     C46209   8.763   2.345   2.223 -0.2704 -0.5709  0.0275
  343MOL0     C46210   8.880   2.253   2.265  0.1269  0.6593 -0.3053
  343MOL0     C46211   9.014   2.325   2.289  0.2635  0.5615 -0.7474
  343MOL0     C46212   9.073   2.394   2.164  0.3846  0.2008  0.4456
  343MOL0     C46213   9.222   2.424   2.170  0.5767 -0.1441  0.1960
  343MOL0    Cl46214   9.281   2.534   2.039  0.2104 -0.1443  0.4658
  343MOL0     C46215   8.349   2.306   2.020  0.2435 -0.0316  0.6974
  343MOL0     C46216   8.246   2.299   1.929 -0.0456  0.1422 -0.7836
  343MOL0     O46217   8.132   2.312   1.676 -0.0619 -0.4416  0.0543
  343MOL0     C46218   7.891   2.254   1.524 -0.8512 -0.2085  0.0863
  343MOL0     C46219   7.776   2.220   1.453  0.0747 -0.0236  0.2928
  343MOL0     N46220   7.036   2.099   1.345  1.0186 -0.5481 -0.6896
  343MOL0     N46221   6.915   2.058   1.354 -0.0915 -0.0078 -0.3239
  343MOL0     C46222   5.694   2.349   1.326 -0.3606  0.3089 -0.1550
  343MOL0     C46223   5.562   2.348   1.348  0.1625  0.4617 -0.0789
  343MOL0     C46224   5.106   2.429   1.228  0.2027  0.0897 -0.3030
  343MOL0     C46225   5.108   2.483   1.363  0.2980  0.0828 -0.2354
  343MOL0     C46226   4.997   2.541   1.416  0.3640 -0.0488  0.5209
  343MOL0     C46227   4.870   2.552   1.346 -0.3604  0.6810 -0.4263
  343MOL0     O46228   4.758   2.605   1.414  0.2824 -0.1511  0.5092
  343MOL0     C46229   4.668   2.680   1.328  0.2639 -0.5614 -0.6177
  343MOL0     C46230   4.540   2.733   1.400 -0.1062  0.4973  0.4075
  343MOL0     C46231   4.457   2.622   1.460 -0.3544  0.1148 -0.0464
  343MOL0     C46232   4.343   2.684   1.531 -0.0567  0.2285  0.1123
  343MOL0     C46233   4.228   2.711   1.438  0.4647 -0.2071  0.7697
  343MOL0     C46234   4.127   2.739   1.373 -0.4682 -0.1203  0.3667
  343MOL0     C46235   4.875   2.496   1.213  0.0190 -0.2257 -0.0403
  343MOL0     C46236   4.987   2.433   1.159  0.6732  0.4033  0.1649
  343MOL0     C46237   4.974   2.384   1.015  0.5808  0.2665  0.2368
  343MOL0     H46238   5.459   2.359   1.021  1.7524 -2.6540 -0.6990
  343MOL0     H46239   5.697   2.338   0.995 -0.7386 -0.2051 -0.4338
  343MOL0     H46240   5.979   2.245   1.312 -1.6120  0.0835  0.1085
  343MOL0     H46241   5.892   2.150   1.185 -0.0974 -0.4537 -0.4977
  343MOL0     H46242   6.135   2.342   1.132 -0.3065 -0.3431  1.6263
  343MOL0     H46243   6.036   2.257   1.018  1.0601  0.0796  0.2919
  343MOL0     H46244   6.262   2.138   1.067  0.2603  0.7119  1.0163
  343MOL0     H46245   6.122   2.045   1.134  1.2984 -1.2285  1.3984
  343MOL0     H46246   6.204   2.219   1.338 -0.4444  0.0284  0.0750
  343MOL0     H46247   6.253   2.048   1.310  2.4635 -1.2339 -3.0439
  343MOL0     H46248   6.459   2.134   1.197  2.5809 -1.4849  1.6665
  343MOL0     H46249   6.405   2.300   1.225  2.0955  0.3745  0.5208
  343MOL0     H46250   6.397   2.253   1.471 -0.0105  0.8645 -0.4310
  343MOL0     H46251   6.454   2.088   1.446 -0.6292 -0.5232 -1.1019
  343MOL0     H46252   6.649   2.264   1.513  0.8200  0.3771 -0.9279
  343MOL0     H46253   6.604   2.340   1.361 -0.6461  1.9768  3.6530
  343MOL0     H46254   6.656   2.044   1.382 -0.1620 -0.0266 -1.0358
  343MOL0     H46255   6.660   2.144   1.241  2.5270  0.9026 -0.8638
  343MOL0     H46256   6.858   2.379   1.341  1.9050  1.2616  1.2024
  343MOL0     H46257   7.165   2.333   1.202 -0.3264 -2.3996  0.2061
  343MOL0     H46258   7.123   2.428   1.338  0.3389  0.2306  0.2866
  343MOL0     H46259   7.343   2.371   1.405 -3.0036  1.8826  0.5193
  343MOL0     H46260   7.255   2.245   1.474 -2.0648  1.8010 -0.4436
  343MOL0     H46261   7.379   2.190   1.192  0.8420 -0.8807  0.1854
  343MOL0     H46262   7.352   2.077   1.325 -0.2575 -0.0718  2.4459
  343MOL0     H46263   7.545   2.297   1.297 -1.4276  0.3503 -0.2025
  343MOL0     H46264   7.585   2.129   1.280 -2.0960 -1.7451  0.2292
  343MOL0     H46265   7.561   2.235   1.710 -0.9407  0.9009 -0.2245
  343MOL0     H46266   7.779   2.275   1.835  0.2515 -1.2779  0.8916
  343MOL0     H46267   8.029   2.510   2.061 -1.9976 -1.2642 -2.2061
  343MOL0     H46268   8.216   2.530   2.223  0.6301  0.2361  0.1226
  343MOL0     H46269   8.567   2.485   2.071 -1.4730 -1.3311 -0.1304
  343MOL0     H46270   8.460   2.599   2.140  0.7785  0.8263 -2.4701
  343MOL0     H46271   8.692   2.640   2.219 -1.0697 -1.1381 -1.3768
  343MOL0     H46272   8.587   2.605   2.354 -2.7876 -1.8456 -0.9135
  343MOL0     H46273   8.806   2.492   2.381 -0.6226  0.1413  1.3970
  343MOL0     H46274   8.671   2.396   2.411  0.0879  0.8354  1.2982
  343MOL0     H46275   8.789   2.391   2.127  0.3029 -1.0002 -0.0289
  343MOL0     H46276   8.669   2.291   2.209 -0.9258 -0.2814  2.8028
  343MOL0     H46277   8.887   2.162   2.204  0.6773 -0.6119  1.5653
  343MOL0     H46278   8.847   2.204   2.357 -1.2207 -0.9346 -1.5702
  343MOL0     H46279   9.002   2.405   2.363  0.2251  0.8797 -1.0945
  343MOL0     H46280   9.093   2.253   2.312 -1.1353 -0.7230  0.2438
  343MOL0     H46281   9.013   2.482   2.142  1.5682  0.6472 -1.2062
  343MOL0     H46282   9.053   2.328   2.079 -4.3086  3.6801 -1.5767
  343MOL0     H46283   9.238   2.470   2.268 -2.8233 -1.2015  1.3849
  343MOL0     H46284   9.270   2.326   2.174 -0.7437 -0.8283  0.0059
  343MOL0     H46285   8.433   2.240   2.003  1.6658  1.4939  1.4518
  343MOL0     H46286   8.258   2.226   1.850 -1.2734  0.1822 -1.0245
  343MOL0     H46287   7.986   2.251   1.472 -1.8013 -3.6665 -1.7949
  343MOL0     H46288   7.785   2.202   1.347 -1.3468  3.1652 -0.4606
  343MOL0     H46289   5.772   2.379   1.395  1.1161  0.3669 -1.7642
  343MOL0     H46290   5.522   2.365   1.448  0.8282  0.2515  0.2337
  343MOL0     H46291   5.192   2.461   1.427  0.2784 -3.4181 -1.1754
  343MOL0     H46292   4.992   2.580   1.517  0.7700 -1.0235  0.9322
  343MOL0     H46293   4.631   2.615   1.248 -1.0096  0.7183 -1.1102
  343MOL0     H46294   4.712   2.772   1.287 -1.0680  0.4215  0.1036
  343MOL0     H46295   4.472   2.782   1.330 -0.9198  0.5489  1.2074
  343MOL0     H46296   4.582   2.799   1.477 -0.8216  1.1370  0.2631
  343MOL0     H46297   4.512   2.551   1.522  0.1549 -1.1788 -1.8793
  343MOL0     H46298   4.419   2.546   1.390  1.1262 -1.0587  0.3843
  343MOL0     H46299   4.304   2.617   1.609 -0.5348  0.8207  0.3870
  343MOL0     H46300   4.375   2.781   1.570 -1.6267  0.6127  0.5381
  343MOL0     H46301   4.051   2.780   1.310  0.5845  5.2074  2.0393
  343MOL0     H46302   4.782   2.499   1.158 -0.3991  0.2710  0.6836
  343MOL0     H46303   5.067   2.425   0.975 -0.1676  2.9995  1.0952
  343MOL0     H46304   4.961   2.276   1.007 -1.0601  0.4622 -0.0050
  343MOL0     H46305   4.895   2.437   0.962  0.4009  1.6267  1.7554
  344MOL0     O46306   8.975   5.316   6.984 -0.4742 -0.8491  0.2143
  344MOL0     C46307   8.962   5.370   6.875 -0.1796  0.3928 -1.1636
  344MOL0     O46308   9.065   5.418   6.800 -0.3760 -0.7026 -0.2329
  344MOL0     C46309   9.197   5.372   6.831 -0.0989  0.0110 -0.7273
  344MOL0     C46310   9.249   5.386   6.960 -0.5109  0.1396  0.5003
  344MOL0     C46311   9.379   5.338   6.995 -0.1898  0.7298 -0.3998
  344MOL0     C46312   9.442   5.273   6.887 -0.4186 -0.7989  0.9548
  344MOL0     O46313   9.561   5.210   6.906  0.3205 -0.3910  0.6209
  344MOL0     C46314   9.563   5.104   6.995 -0.0107  0.4238 -0.3444
  344MOL0     C46315   9.694   5.024   6.984  0.1131 -0.5247  0.5151
  344MOL0     C46316   9.818   5.119   6.954  0.2901  0.3269  0.1195
  344MOL0     C46317   9.945   5.038   6.931 -0.2331 -0.4360 -0.5816
  344MOL0     C46318  10.076   5.091   6.992 -0.5304 -0.2648 -0.4761
  344MOL0     C46319  10.194   5.031   6.912  0.3807 -0.7540 -0.0503
  344MOL0     C46320  10.319   5.112   6.941 -0.3664 -0.1185  0.7134
  344MOL0     C46321  10.439   5.053   6.856 -0.0341 -0.4968  0.6763
  344MOL0     N46322  10.566   5.103   6.909 -0.3630 -0.7591 -0.4507
  344MOL0     C46323  10.690   5.039   6.922  0.3416  0.3246  0.5454
  344MOL0     C46324  10.761   5.111   7.009  0.0246 -0.1255  0.2041
  344MOL0     C46325  10.892   5.065   7.061  1.0306 -0.1589  0.3777
  344MOL0     C46326  11.013   5.161   7.022 -0.0870 -0.5259  0.7240
  344MOL0     C46327  11.038   5.147   6.869  0.4944 -0.5028 -0.0704
  344MOL0     C46328  11.132   5.246   6.817 -0.8735  0.1689 -0.5857
  344MOL0     O46329  11.254   5.236   6.892 -0.8176  0.0390  0.4772
  344MOL0     C46330  11.358   5.318   6.849 -0.2919 -0.4815 -0.4270
  344MOL0     C46331  11.476   5.306   6.937  0.2920  0.8712  0.9743
  344MOL0     C46332  11.585   5.384   6.914 -0.3932 -0.2777  0.1445
  344MOL0     C46333  11.587   5.478   6.812 -0.6928 -0.3040 -1.2516
  344MOL0     C46334  11.714   5.542   6.783  0.1632 -1.2558 -0.4449
  344MOL0     O46335  11.827   5.481   6.829 -0.5039 -0.5457  1.0294
  344MOL0     C46336  11.948   5.543   6.838 -0.0771 -0.2834  0.2232
  344MOL0     C46337  12.045   5.505   6.934  0.5873  0.4712 -0.2313
  344MOL0     C46338  12.177   5.547   6.936 -0.3058  0.0870  0.0377
  344MOL0     C46339  12.229   5.622   6.829 -0.8225  0.6166 -0.1960
  344MOL0     O46340  12.365   5.653   6.828 -0.2472 -0.0095 -0.1603
  344MOL0     C46341  12.446   5.673   6.707  0.4851  0.6536  0.6503
  344MOL0     C46342  12.592   5.698   6.745 -0.3328  0.7901  0.5607
  344MOL0     C46343  12.689   5.698   6.632 -0.4359 -0.0338  0.4424
  344MOL0     C46344  12.822   5.717   6.682 -0.1652 -0.2950 -1.2228
  344MOL0     C46345  12.935   5.697   6.579 -0.2293 -0.4987  1.1858
  344MOL0     C46346  13.069   5.682   6.647 -1.0223  0.4640  0.4616
  344MOL0     C46347  13.190   5.684   6.543  0.5443  0.2194 -0.4082
  344MOL0     C46348  13.199   5.569   6.454 -0.2629  0.3336 -0.2402
  344MOL0    Cl46349  13.231   5.430   6.574 -0.0205  0.0933  0.4269
  344MOL0     C46350  12.135   5.656   6.734  0.3478 -0.1707 -0.4895
  344MOL0     C46351  11.998   5.624   6.736  0.3877 -0.3274 -0.1267
  344MOL0     O46352  11.708   5.651   6.728 -0.3220  0.6248 -0.7429
  344MOL0     C46353  11.477   5.501   6.727 -0.0938  0.8269 -0.6109
  344MOL0     C46354  11.361   5.425   6.752 -0.1063 -0.1457  0.1187
  344MOL0     N46355  10.686   5.217   7.060 -0.0519  0.2424  0.5886
  344MOL0     N46356  10.579   5.216   6.988  0.1665  0.0199 -0.4720
  344MOL0     C46357   9.399   5.273   6.756  0.2858 -0.6079  0.1643
  344MOL0     C46358   9.277   5.330   6.731  0.3305  0.2235 -0.9173
  344MOL0     C46359   8.816   5.381   6.831 -0.6581 -0.5544  0.3393
  344MOL0     C46360   8.712   5.379   6.931 -0.2865  0.1570  0.4905
  344MOL0     C46361   8.585   5.389   6.880  0.7621  0.1039  0.5638
  344MOL0     C46362   8.538   5.408   6.744  0.0972  0.4904  0.8560
  344MOL0     O46363   8.407   5.441   6.731  0.8409  0.7766  0.0631
  344MOL0     C46364   8.356   5.493   6.602 -0.8411  0.6481 -0.0845
  344MOL0     C46365   8.203   5.520   6.633  0.2974  0.4616  0.3679
  344MOL0     C46366   8.116   5.538   6.508  0.1045  1.0618 -0.3521
  344MOL0     C46367   8.136   5.678   6.455 -0.5747  0.4579  0.3818
  344MOL0     C46368   8.021   5.722   6.374  0.7862 -0.3237 -0.7793
  344MOL0     C46369   7.935   5.769   6.295 -0.9663  0.0398  0.1621
  344MOL0     C46370   8.640   5.400   6.649 -0.4841  0.1541 -0.0620
  344MOL0     C46371   8.779   5.386   6.691 -0.0731 -0.1192 -0.0186
  344MOL0     C46372   8.882   5.380   6.579 -0.4342 -0.5518 -0.0574
  344MOL0     H46373   9.198   5.442   7.038 -1.1430  1.3571 -0.7562
  344MOL0     H46374   9.423   5.352   7.093 -1.4426  1.4990  0.0853
  344MOL0     H46375   9.553   5.142   7.097 -0.7535 -0.0424 -0.2407
  344MOL0     H46376   9.480   5.037   6.972 -0.4506  1.4351 -1.7886
  344MOL0     H46377   9.685   4.946   6.908 -0.2505  0.7288 -0.7712
  344MOL0     H46378   9.713   4.972   7.078  5.2682 -0.4992 -0.2210
  344MOL0     H46379   9.820   5.187   7.040 -0.0328 -0.7975  1.0355
  344MOL0     H46380   9.797   5.178   6.864 -4.2726 -0.8890  0.1259
  344MOL0     H46381   9.930   4.936   6.966 -3.6712 -0.4255 -1.6345
  344MOL0     H46382   9.966   5.026   6.825  0.5155  0.0829 -0.4985
  344MOL0     H46383  10.072   5.200   6.984 -0.2367  0.0171  2.2177
  344MOL0     H46384  10.082   5.069   7.099 -1.9412  1.0880 -0.0875
  344MOL0     H46385  10.205   4.925   6.936  0.5180 -0.3375  1.9152
  344MOL0     H46386  10.171   5.044   6.806  1.9374 -0.0860 -0.3286
  344MOL0     H46387  10.355   5.097   7.043  2.8039  2.9942  0.2334
  344MOL0     H46388  10.304   5.217   6.914  1.5011  0.1244  0.5250
  344MOL0     H46389  10.435   4.944   6.862  0.0691 -0.4341  2.7240
  344MOL0     H46390  10.443   5.086   6.752  4.7670 -1.5909  0.2445
  344MOL0     H46391  10.727   4.946   6.880  0.8962  0.6973  0.1892
  344MOL0     H46392  10.886   5.045   7.169 -0.8856  0.1392  0.3723
  344MOL0     H46393  10.914   4.966   7.020 -2.3524 -0.0037 -2.2580
  344MOL0     H46394  10.983   5.266   7.035 -1.7267 -0.7572 -0.8058
  344MOL0     H46395  11.096   5.130   7.085  0.2456 -1.4474 -0.1588
  344MOL0     H46396  10.948   5.154   6.808  2.0010 -1.2334 -2.5444
  344MOL0     H46397  11.074   5.044   6.860  2.2921  0.1068 -0.1979
  344MOL0     H46398  11.079   5.340   6.839 -2.4461 -0.5626 -1.0894
  344MOL0     H46399  11.151   5.238   6.710  3.0878 -3.9377  0.1252
  344MOL0     H46400  11.483   5.235   7.019  1.7336  1.1383  1.1075
  344MOL0     H46401  11.680   5.365   6.963  1.9294  1.2894 -3.3278
  344MOL0     H46402  12.018   5.434   7.011  1.1237 -1.5007 -1.7623
  344MOL0     H46403  12.243   5.516   7.016  1.1837  0.7209 -0.9101
  344MOL0     H46404  12.435   5.578   6.653  1.8442  0.2609  1.0308
  344MOL0     H46405  12.399   5.751   6.647  1.4881 -1.6995 -3.6189
  344MOL0     H46406  12.593   5.792   6.801 -1.4351 -0.9710  3.7397
  344MOL0     H46407  12.603   5.611   6.810 -2.9632 -2.6201 -3.1027
  344MOL0     H46408  12.681   5.601   6.582  0.8708  0.2388 -0.3337
  344MOL0     H46409  12.666   5.770   6.554 -0.2640  1.2225  1.5080
  344MOL0     H46410  12.839   5.654   6.770 -1.5523 -0.1547 -0.8354
  344MOL0     H46411  12.825   5.824   6.705 -0.8690 -0.3322 -0.9444
  344MOL0     H46412  12.936   5.778   6.505  3.2280 -0.6381  0.9302
  344MOL0     H46413  12.920   5.601   6.528 -1.5808  0.3036  0.0008
  344MOL0     H46414  13.075   5.754   6.730  0.8056 -0.1876  0.9325
  344MOL0     H46415  13.073   5.587   6.701 -2.2559  0.9148  1.3858
  344MOL0     H46416  13.285   5.689   6.596  0.2111 -0.8787  0.3189
  344MOL0     H46417  13.180   5.779   6.489 -0.9262  1.4476  1.8722
  344MOL0     H46418  13.099   5.558   6.411 -2.5590  0.1787  4.4947
  344MOL0     H46419  13.279   5.582   6.381 -0.5454 -1.7595 -0.9960
  344MOL0     H46420  12.175   5.700   6.643  2.6700  0.6505  0.8643
  344MOL0     H46421  11.940   5.643   6.647  0.6157 -2.5369 -0.8158
  344MOL0     H46422  11.482   5.570   6.644  3.1413 -0.2993 -1.4720
  344MOL0     H46423  11.271   5.449   6.695 -0.9927  0.6341  1.7828
  344MOL0     H46424   9.459   5.226   6.678 -2.0999  0.7902 -2.7442
  344MOL0     H46425   9.237   5.356   6.633 -2.7058  2.4024  0.7410
  344MOL0     H46426   8.727   5.353   7.035  1.2419  0.6668  0.4273
  344MOL0     H46427   8.501   5.372   6.946 -2.8557  2.3309 -3.0040
  344MOL0     H46428   8.360   5.422   6.520 -2.4316  1.8628 -1.2688
  344MOL0     H46429   8.416   5.575   6.561  0.0150 -1.1681 -2.7218
  344MOL0     H46430   8.203   5.619   6.679 -0.4875  2.1288 -2.9113
  344MOL0     H46431   8.166   5.453   6.711 -0.3839  2.4533  1.8363
  344MOL0     H46432   8.015   5.519   6.545  1.0210 -1.1218  1.3122
  344MOL0     H46433   8.156   5.464   6.438  0.5646  0.8137  0.1682
  344MOL0     H46434   8.129   5.741   6.544 -1.4859  1.4717 -0.3742
  344MOL0     H46435   8.236   5.687   6.409 -1.3494 -1.5449 -1.9273
  344MOL0     H46436   7.849   5.810   6.246 -0.0808  3.7780  1.4372
  344MOL0     H46437   8.612   5.417   6.546 -0.4591  0.1428 -0.0707
  344MOL0     H46438   8.832   5.343   6.489 -1.7802  0.7878  0.1015
  344MOL0     H46439   8.909   5.484   6.562 -2.2064 -0.0637 -0.0738
  344MOL0     H46440   8.966   5.313   6.599  0.8367  0.1533 -2.5952
  345MOL0     O46441   9.237   1.126   0.271 -0.7311  0.6249  0.1944
  345MOL0     C46442   9.193   1.235   0.298 -1.1045 -0.3489  0.2397
  345MOL0     O46443   9.261   1.353   0.294 -0.1281 -0.6052  0.4647
  345MOL0     C46444   9.355   1.368   0.189  0.1036  0.2041 -0.1128
  345MOL0     C46445   9.361   1.292   0.068 -0.0348  0.0525 -0.4281
  345MOL0     C46446   9.471   1.314  -0.014  0.4319 -0.0461  0.2797
  345MOL0     C46447   9.579   1.400   0.011  1.0001 -0.2040  0.4694
  345MOL0     O46448   9.695   1.406  -0.065 -0.1425  0.6178  0.2747
  345MOL0     C46449   9.793   1.504  -0.039  1.1208 -0.3902 -0.3829
  345MOL0     C46450   9.922   1.470  -0.111  0.3375 -0.2231  0.5642
  345MOL0     C46451  10.031   1.577  -0.086  0.3895  0.1712 -0.6969
  345MOL0     C46452  10.157   1.548  -0.166 -0.0417 -0.7827  0.7149
  345MOL0     C46453  10.251   1.663  -0.167 -0.1091  0.1126  0.2266
  345MOL0     C46454  10.387   1.629  -0.225 -0.7324 -0.3672 -0.0500
  345MOL0     C46455  10.362   1.602  -0.379 -0.5327 -0.9325 -0.0897
  345MOL0     C46456  10.481   1.641  -0.465 -1.1665  0.0841  0.5934
  345MOL0     N46457  10.509   1.784  -0.455 -1.0285 -0.4369 -0.3029
  345MOL0     C46458  10.616   1.843  -0.393  0.3912  0.4689  0.3427
  345MOL0     C46459  10.631   1.960  -0.442  0.3717 -0.2924  0.0283
  345MOL0     C46460  10.750   2.053  -0.423 -0.1999 -0.2384  0.6149
  345MOL0     C46461  10.739   2.138  -0.297  0.2128 -0.0871  0.0134
  345MOL0     C46462  10.850   2.237  -0.290  0.0106 -0.3789  0.1553
  345MOL0     C46463  10.873   2.296  -0.156  0.5121 -0.0706  0.1478
  345MOL0     O46464  10.951   2.207  -0.077  0.8490  0.1399 -0.5474
  345MOL0     C46465  11.091   2.233  -0.089  0.2351  0.0299  0.0141
  345MOL0     C46466  11.159   2.318  -0.179  0.8820 -0.0792  0.2382
  345MOL0     C46467  11.300   2.330  -0.175  0.8494 -0.5548 -0.7545
  345MOL0     C46468  11.383   2.248  -0.094 -0.6355  1.0855  0.4076
  345MOL0     C46469  11.529   2.259  -0.100 -0.4972 -0.0798  0.3031
  345MOL0     O46470  11.593   2.305  -0.210 -0.0747 -1.2125 -0.8931
  345MOL0     C46471  11.732   2.300  -0.195 -0.0481  0.1464 -0.1557
  345MOL0     C46472  11.793   2.406  -0.149  0.1709 -0.0852  0.0878
  345MOL0     C46473  11.933   2.399  -0.143  0.6390 -0.9535 -1.1456
  345MOL0     C46474  12.005   2.290  -0.184 -0.1310 -0.4635 -0.4031
  345MOL0     O46475  12.143   2.281  -0.178 -0.3886  0.6179 -0.4221
  345MOL0     C46476  12.216   2.347  -0.074  0.2337 -0.1834  0.2305
  345MOL0     C46477  12.364   2.323  -0.075 -0.3791 -0.3253  0.8062
  345MOL0     C46478  12.413   2.192  -0.126 -0.3398 -0.1759  0.4194
  345MOL0     C46479  12.560   2.157  -0.100  0.0488 -0.2453 -0.6251
  345MOL0     C46480  12.660   2.215  -0.211  0.0632 -0.0123  0.1283
  345MOL0     C46481  12.801   2.231  -0.157 -0.0790  0.9709 -0.5705
  345MOL0     C46482  12.832   2.356  -0.073  0.7678 -0.1084  0.6897
  345MOL0     C46483  12.830   2.490  -0.150  1.0012  0.2389  0.0231
  345MOL0    Cl46484  12.951   2.502  -0.279 -0.5375  0.1746  0.2407
  345MOL0     C46485  11.935   2.182  -0.227  0.4094  0.4750 -0.4145
  345MOL0     C46486  11.795   2.184  -0.228 -0.7918  0.0637  0.4259
  345MOL0     O46487  11.586   2.228   0.001  0.1394  0.3382 -0.3479
  345MOL0     C46488  11.312   2.168  -0.008  0.2259  0.1070  0.2222
  345MOL0     C46489  11.175   2.155  -0.010  0.2068 -1.4611 -0.4080
  345MOL0     N46490  10.514   1.984  -0.517  0.1113 -0.0340 -0.5291
  345MOL0     N46491  10.451   1.876  -0.528  0.7130  0.1930 -0.0689
  345MOL0     C46492   9.559   1.488   0.124 -0.1566  0.1512 -0.1793
  345MOL0     C46493   9.451   1.476   0.209  0.6953  0.4316  0.1336
  345MOL0     C46494   9.045   1.243   0.348  0.3502  0.1181 -0.2537
  345MOL0     C46495   8.971   1.364   0.323  0.1295  0.4849  0.7267
  345MOL0     C46496   8.837   1.372   0.363  0.4235  0.7161 -0.1522
  345MOL0     C46497   8.770   1.262   0.408  0.6149 -0.0548 -0.1719
  345MOL0     O46498   8.637   1.293   0.437 -0.1405  0.9104  0.5761
  345MOL0     C46499   8.544   1.188   0.468 -0.5185  0.2031 -0.2029
  345MOL0     C46500   8.443   1.170   0.352  0.0317  0.0256 -0.0611
  345MOL0     C46501   8.364   1.298   0.326  0.8856  0.8257 -0.6417
  345MOL0     C46502   8.283   1.287   0.190  0.0467 -0.9303 -0.2190
  345MOL0     C46503   8.175   1.187   0.194 -0.0473  0.6982 -0.2320
  345MOL0     C46504   8.072   1.111   0.195  0.3141 -0.2098  0.0544
  345MOL0     C46505   8.833   1.147   0.454 -0.4410  0.8417  1.0752
  345MOL0     C46506   8.971   1.138   0.417  0.2061  0.2491 -0.0055
  345MOL0     C46507   9.054   1.019   0.471 -0.3922  0.2127  0.4955
  345MOL0     H46508   9.283   1.219   0.049  0.8026 -1.0748  0.3455
  345MOL0     H46509   9.479   1.250  -0.102  0.6102  1.1555 -0.5995
  345MOL0     H46510   9.750   1.602  -0.062  0.7996 -1.1236 -3.3333
  345MOL0     H46511   9.816   1.499   0.068  2.3204  0.4545 -0.5829
  345MOL0     H46512   9.910   1.461  -0.219  1.8034 -0.3050  0.3921
  345MOL0     H46513   9.955   1.372  -0.075 -1.8626  0.0176  3.6522
  345MOL0     H46514  10.066   1.582   0.017  1.0468  1.0917 -0.9419
  345MOL0     H46515   9.994   1.674  -0.121  1.8013  0.5410 -1.2320
  345MOL0     H46516  10.203   1.454  -0.137 -0.1315 -0.8274  0.7151
  345MOL0     H46517  10.121   1.541  -0.269 -1.4910  2.6517  0.8490
  345MOL0     H46518  10.205   1.749  -0.217 -0.7151 -1.7738 -2.7880
  345MOL0     H46519  10.259   1.693  -0.063  1.8380  0.2536  0.0672
  345MOL0     H46520  10.460   1.706  -0.199 -2.6189  1.5715 -0.2522
  345MOL0     H46521  10.426   1.540  -0.174  3.3573  2.1049  1.6046
  345MOL0     H46522  10.281   1.665  -0.420 -0.6381 -1.4816 -0.7460
  345MOL0     H46523  10.334   1.498  -0.397  1.9500 -1.4779 -1.1755
  345MOL0     H46524  10.571   1.583  -0.441 -0.7275  0.5381  0.0731
  345MOL0     H46525  10.458   1.626  -0.571  3.2339 -1.8097 -0.3178
  345MOL0     H46526  10.696   1.806  -0.330  0.8332  1.2589  0.2620
  345MOL0     H46527  10.845   2.000  -0.431  1.2852  2.0685  1.9150
  345MOL0     H46528  10.745   2.127  -0.503  0.9750 -2.5821 -1.7644
  345MOL0     H46529  10.643   2.190  -0.298 -0.4178 -1.2185 -0.0775
  345MOL0     H46530  10.736   2.075  -0.208 -1.7502  1.1313  0.8645
  345MOL0     H46531  10.848   2.318  -0.363 -0.2028  0.5679  1.1811
  345MOL0     H46532  10.938   2.178  -0.318  0.4892 -0.6264  2.0327
  345MOL0     H46533  10.780   2.299  -0.100  2.3612  3.2303  3.4911
  345MOL0     H46534  10.913   2.398  -0.163  0.1035  0.1216  0.5983
  345MOL0     H46535  11.099   2.373  -0.250 -0.2180 -0.4038  0.8952
  345MOL0     H46536  11.349   2.399  -0.241 -1.0694  2.8402  1.1037
  345MOL0     H46537  11.742   2.500  -0.131 -0.6115 -0.3499 -0.6695
  345MOL0     H46538  11.992   2.478  -0.098  2.1297 -1.6706 -1.7487
  345MOL0     H46539  12.203   2.455  -0.085  2.2190  0.1998  1.2940
  345MOL0     H46540  12.185   2.304   0.022 -1.4013  2.1619  0.8461
  345MOL0     H46541  12.400   2.397  -0.146  0.8890 -3.1323 -1.6961
  345MOL0     H46542  12.400   2.338   0.028  1.7681 -0.7321  0.1671
  345MOL0     H46543  12.354   2.115  -0.075  0.0445  1.6018  3.8478
  345MOL0     H46544  12.399   2.189  -0.234  1.3136 -1.9868  0.2092
  345MOL0     H46545  12.570   2.049  -0.085 -1.5369 -0.4040 -0.4481
  345MOL0     H46546  12.583   2.206  -0.005  2.2142  0.4471 -1.4507
  345MOL0     H46547  12.612   2.309  -0.238 -2.2138 -1.0515  0.3607
  345MOL0     H46548  12.658   2.144  -0.294 -1.9034  2.1619 -1.7877
  345MOL0     H46549  12.821   2.139  -0.102 -0.5366 -0.0041 -1.9924
  345MOL0     H46550  12.873   2.223  -0.240 -1.7765 -2.3411 -1.8985
  345MOL0     H46551  12.936   2.344  -0.041  1.0482 -2.8258 -0.9277
  345MOL0     H46552  12.773   2.351   0.019  0.2093 -0.1293  0.3361
  345MOL0     H46553  12.738   2.504  -0.207  1.2923 -1.9771 -1.0871
  345MOL0     H46554  12.842   2.568  -0.073  0.6428 -1.4039  1.8285
  345MOL0     H46555  11.991   2.099  -0.268 -1.1791 -0.2397 -1.2377
  345MOL0     H46556  11.727   2.119  -0.282 -2.3226  3.7706 -2.5924
  345MOL0     H46557  11.359   2.115   0.075 -0.0028  1.1525  1.0413
  345MOL0     H46558  11.122   2.100   0.067 -2.0093  0.1484 -0.6895
  345MOL0     H46559   9.619   1.572   0.158 -1.8902  0.4644  2.4111
  345MOL0     H46560   9.438   1.546   0.291 -2.1507 -0.6041  0.7038
  345MOL0     H46561   9.027   1.437   0.265  1.4261  0.4698  1.8938
  345MOL0     H46562   8.786   1.466   0.339  2.9021  1.7685 -1.7086
  345MOL0     H46563   8.494   1.213   0.562  0.0817 -0.1627  0.2121
  345MOL0     H46564   8.595   1.095   0.492 -0.0329  0.3300 -0.7135
  345MOL0     H46565   8.373   1.089   0.374  0.8389 -0.6502  0.0920
  345MOL0     H46566   8.497   1.133   0.265  0.3462 -1.3725  0.7009
  345MOL0     H46567   8.436   1.380   0.318  2.7168 -0.6557 -0.0653
  345MOL0     H46568   8.297   1.316   0.411  0.0642  2.9903 -1.6673
  345MOL0     H46569   8.236   1.384   0.175 -0.7511 -1.2287  0.3123
  345MOL0     H46570   8.353   1.274   0.107  0.7639 -1.7097  0.4848
  345MOL0     H46571   7.990   1.043   0.181 -0.0283  0.0757  0.6431
  345MOL0     H46572   8.794   1.067   0.516  0.5392 -0.8203 -0.3593
  345MOL0     H46573   9.012   0.968   0.558 -0.7325  1.0796  0.8612
  345MOL0     H46574   9.069   0.943   0.395 -0.8312  0.0354  0.5851
  345MOL0     H46575   9.150   1.060   0.504  0.6304 -0.7833 -1.1399
  346MOL0     O46576   2.372  10.699   0.502 -0.0386 -0.2856  0.7722
  346MOL0     C46577   2.283  10.788   0.504  0.6110  0.3629 -0.0340
  346MOL0     O46578   2.300  10.918   0.474 -0.3062 -0.3690  0.0312
  346MOL0     C46579   2.417  10.960   0.415 -0.3704  0.5904 -0.3063
  346MOL0     C46580   2.537  10.958   0.487  0.7625  1.0579  0.9857
  346MOL0     C46581   2.648  11.028   0.435  0.4739 -0.7743 -0.0765
  346MOL0     C46582   2.645  11.094   0.309  0.1493  0.3101  0.0862
  346MOL0     O46583   2.753  11.179   0.276 -0.5023 -0.2939  0.5189
  346MOL0     C46584   2.753  11.232   0.145  0.2620  0.2526  0.2684
  346MOL0     C46585   2.900  11.264   0.104  1.2665  0.2327  0.4713
  346MOL0     C46586   3.000  11.152   0.080 -0.5250  0.2427  0.1137
  346MOL0     C46587   3.103  11.225  -0.006 -0.4961 -0.1395  0.1687
  346MOL0     C46588   3.242  11.165   0.005 -0.6410  0.2123  0.2063
  346MOL0     C46589   3.342  11.222  -0.094 -0.8380  0.0163 -0.9387
  346MOL0     C46590   3.364  11.371  -0.062  0.1410 -0.9992  0.2620
  346MOL0     C46591   3.324  11.471  -0.171 -0.0764  0.3567  0.5413
  346MOL0     N46592   3.426  11.475  -0.280 -0.1042 -0.6147 -0.1777
  346MOL0     C46593   3.559  11.497  -0.272  0.2339  0.2148 -0.8234
  346MOL0     C46594   3.606  11.492  -0.400  0.1106  0.4821 -0.1127
  346MOL0     C46595   3.751  11.543  -0.446 -0.0526  0.1542  0.2181
  346MOL0     C46596   3.739  11.695  -0.493 -0.3229  0.2029  0.7428
  346MOL0     C46597   3.857  11.744  -0.583 -0.1353 -0.4116  0.7121
  346MOL0     C46598   3.986  11.727  -0.510 -1.1613 -0.1847  0.0269
  346MOL0     O46599   4.048  11.602  -0.547 -0.2972  0.0865 -0.7435
  346MOL0     C46600   4.189  11.588  -0.516  0.5223 -0.0776 -0.2552
  346MOL0     C46601   4.293  11.666  -0.576 -0.3467  0.9110 -0.3110
  346MOL0     C46602   4.427  11.629  -0.538 -0.4994  0.4549  0.6700
  346MOL0     C46603   4.469  11.525  -0.452 -0.2094  0.6580  0.0001
  346MOL0     C46604   4.612  11.502  -0.430  0.5288  0.6531  0.3518
  346MOL0     O46605   4.697  11.580  -0.489 -0.7510 -0.1320  0.1466
  346MOL0     C46606   4.820  11.531  -0.518 -0.3296  0.6706  0.4569
  346MOL0     C46607   4.933  11.581  -0.452 -0.4217 -0.4697 -0.6902
  346MOL0     C46608   5.068  11.531  -0.480  0.8704 -0.5304  0.7454
  346MOL0     C46609   5.081  11.430  -0.578 -0.2066 -0.3135  0.0922
  346MOL0     O46610   5.208  11.376  -0.600  0.3447  0.7432  0.4532
  346MOL0     C46611   5.317  11.452  -0.538  0.8236 -0.4321 -0.1178
  346MOL0     C46612   5.447  11.388  -0.580 -0.5324  0.1694  0.1080
  346MOL0     C46613   5.559  11.467  -0.511 -0.0794  0.0499  0.7380
  346MOL0     C46614   5.691  11.386  -0.528 -0.5775  0.0954  0.2901
  346MOL0     C46615   5.822  11.478  -0.513  0.0610  0.3801 -0.5752
  346MOL0     C46616   5.820  11.607  -0.595  0.2179  0.4261  0.0731
  346MOL0     C46617   5.779  11.591  -0.743 -0.0707  0.2232  0.4469
  346MOL0     C46618   5.745  11.731  -0.790 -0.4530  0.9435 -0.7023
  346MOL0    Cl46619   5.885  11.847  -0.756  0.6156 -0.2533 -0.3442
  346MOL0     C46620   4.970  11.383  -0.647 -0.3469 -0.1687  0.4617
  346MOL0     C46621   4.842  11.437  -0.622 -0.1691 -0.4393  0.7471
  346MOL0     O46622   4.643  11.404  -0.364 -0.0581 -0.0282 -0.1912
  346MOL0     C46623   4.365  11.448  -0.401  0.4275  0.6409  0.1106
  346MOL0     C46624   4.231  11.480  -0.427  0.3592  0.5024  0.3237
  346MOL0     N46625   3.504  11.468  -0.486  0.1185 -0.5224 -0.9541
  346MOL0     N46626   3.397  11.463  -0.409 -0.1210  0.1981  0.7051
  346MOL0     C46627   2.520  11.084   0.236 -0.1349 -0.3765 -0.9186
  346MOL0     C46628   2.412  11.024   0.289  1.3806 -0.3936 -0.2468
  346MOL0     C46629   2.142  10.763   0.535  0.2059  0.0414 -1.1382
  346MOL0     C46630   2.047  10.865   0.535 -0.3554 -0.3295  0.4873
  346MOL0     C46631   1.906  10.838   0.558  0.0619 -0.5771 -0.2528
  346MOL0     C46632   1.864  10.706   0.588 -0.6183 -0.4053 -0.5653
  346MOL0     O46633   1.732  10.676   0.602  0.5865  0.5801 -0.6230
  346MOL0     C46634   1.627  10.771   0.606 -0.1337 -0.2501  0.7213
  346MOL0     C46635   1.564  10.806   0.459 -0.5442 -0.1422 -0.0945
  346MOL0     C46636   1.523  10.673   0.393  0.2233  0.8307 -0.4337
  346MOL0     C46637   1.518  10.698   0.238 -0.3330 -0.4402  0.4096
  346MOL0     C46638   1.409  10.795   0.215  0.6727 -0.1561 -0.4706
  346MOL0     C46639   1.313  10.871   0.214 -0.3519  0.2432  0.3719
  346MOL0     C46640   1.952  10.607   0.588 -0.4054  0.5037  0.4537
  346MOL0     C46641   2.089  10.627   0.555  0.0365 -0.5849 -0.9060
  346MOL0     C46642   2.177  10.503   0.541 -0.0860 -1.6131 -0.2986
  346MOL0     H46643   2.547  10.908   0.583 -0.6519 -2.6366 -0.6170
  346MOL0     H46644   2.734  11.023   0.502  0.0734  0.0395  0.5119
  346MOL0     H46645   2.715  11.153   0.081 -3.1137  2.2589 -0.4487
  346MOL0     H46646   2.692  11.323   0.141 -1.6915 -1.0652 -2.8392
  346MOL0     H46647   2.928  11.331   0.186  0.1704  1.5451 -0.1866
  346MOL0     H46648   2.888  11.330   0.018 -2.5564  0.4768  1.0071
  346MOL0     H46649   2.967  11.056   0.040  1.8669  0.1015 -1.7379
  346MOL0     H46650   3.045  11.128   0.176 -1.0243  0.7372  0.4752
  346MOL0     H46651   3.061  11.223  -0.107  1.1331  0.2876 -0.5431
  346MOL0     H46652   3.116  11.326   0.034  3.0363 -0.1627 -0.6280
  346MOL0     H46653   3.291  11.168   0.103 -0.2549 -1.2583  0.0885
  346MOL0     H46654   3.222  11.058  -0.008 -1.9118  0.3713  0.7315
  346MOL0     H46655   3.429  11.156  -0.084  0.0676  1.3425  0.3813
  346MOL0     H46656   3.306  11.215  -0.197  0.2544  0.7539 -1.3912
  346MOL0     H46657   3.468  11.398  -0.040 -0.6482  2.8346 -0.0461
  346MOL0     H46658   3.315  11.401   0.031  2.4220  1.8889  0.6966
  346MOL0     H46659   3.227  11.441  -0.209 -0.4712 -0.7021  2.2463
  346MOL0     H46660   3.323  11.560  -0.107  0.2627 -0.9722  2.5191
  346MOL0     H46661   3.605  11.516  -0.176 -1.6872 -1.3762  0.5092
  346MOL0     H46662   3.827  11.542  -0.367 -0.3410  0.0266  0.4966
  346MOL0     H46663   3.795  11.483  -0.527  3.6301  2.1643  0.5368
  346MOL0     H46664   3.646  11.699  -0.550 -0.0341  6.3675  0.0044
  346MOL0     H46665   3.730  11.756  -0.403 -0.6532 -0.6985  1.3320
  346MOL0     H46666   3.851  11.852  -0.604  1.0027 -0.1454  1.6749
  346MOL0     H46667   3.855  11.699  -0.682  0.8457  2.8217 -0.9195
  346MOL0     H46668   3.975  11.735  -0.402 -0.9252  1.9452 -0.0596
  346MOL0     H46669   4.058  11.804  -0.540 -0.3811 -1.2947 -1.0630
  346MOL0     H46670   4.289  11.745  -0.650  2.0903  3.0297  1.6259
  346MOL0     H46671   4.504  11.688  -0.586 -0.5343  2.4576  2.8694
  346MOL0     H46672   4.923  11.650  -0.369  0.4891 -2.6409  1.3763
  346MOL0     H46673   5.149  11.571  -0.420 -0.6433  2.4281  1.0170
  346MOL0     H46674   5.322  11.558  -0.567 -2.3948 -0.2336 -0.3444
  346MOL0     H46675   5.317  11.453  -0.429  1.2921  0.0761 -0.1208
  346MOL0     H46676   5.463  11.283  -0.556  3.6951  1.0189  1.8643
  346MOL0     H46677   5.462  11.401  -0.688  0.8957  1.3268  0.4172
  346MOL0     H46678   5.557  11.566  -0.558  1.3493  0.5571  1.6555
  346MOL0     H46679   5.544  11.478  -0.403  0.8964 -1.6943  1.0897
  346MOL0     H46680   5.687  11.337  -0.626 -0.1450  1.3786 -0.3909
  346MOL0     H46681   5.704  11.304  -0.456 -0.2941  1.3490  1.7185
  346MOL0     H46682   5.908  11.417  -0.541  1.1579  0.9079  1.4416
  346MOL0     H46683   5.833  11.503  -0.407  1.1416  1.7293 -0.9889
  346MOL0     H46684   5.760  11.689  -0.553 -2.1298 -1.2849  0.2768
  346MOL0     H46685   5.927  11.626  -0.607  0.8474 -1.6656  1.7951
  346MOL0     H46686   5.690  11.532  -0.763 -1.1181  2.1743 -0.9679
  346MOL0     H46687   5.860  11.559  -0.810  0.5107  0.7397  0.8928
  346MOL0     H46688   5.723  11.729  -0.897  1.5172 -2.5067 -1.1780
  346MOL0     H46689   5.657  11.770  -0.737 -1.3122  1.4496 -2.4495
  346MOL0     H46690   4.986  11.306  -0.722 -4.7066 -0.1455 -0.7378
  346MOL0     H46691   4.760  11.405  -0.686  0.9783  2.2018 -2.2848
  346MOL0     H46692   4.397  11.364  -0.340  0.2009  1.2455  1.0816
  346MOL0     H46693   4.144  11.428  -0.388 -1.5472  2.3413 -1.2653
  346MOL0     H46694   2.501  11.142   0.147 -0.1943 -3.1485 -2.8282
  346MOL0     H46695   2.317  11.038   0.238  0.7972  0.9134  1.1268
  346MOL0     H46696   2.075  10.961   0.493  1.8277 -0.4962  1.4521
  346MOL0     H46697   1.828  10.913   0.547  0.5498 -0.3727 -2.7704
  346MOL0     H46698   1.657  10.862   0.658  0.6101 -0.7395  1.1657
  346MOL0     H46699   1.547  10.715   0.657  0.8429 -2.0155  0.4040
  346MOL0     H46700   1.634  10.865   0.399  1.1827 -1.8854  0.1197
  346MOL0     H46701   1.471  10.864   0.459  1.3057  3.2239  3.1767
  346MOL0     H46702   1.426  10.635   0.429  0.6721 -0.7025 -0.7756
  346MOL0     H46703   1.603  10.601   0.413 -1.6664 -0.9328  1.3578
  346MOL0     H46704   1.615  10.734   0.202 -0.2668 -1.3877 -0.3855
  346MOL0     H46705   1.504  10.605   0.183  0.5028  0.4379 -1.3691
  346MOL0     H46706   1.236  10.944   0.222  2.0069  2.9605 -0.2583
  346MOL0     H46707   1.908  10.508   0.598  0.1048  0.4746  2.8264
  346MOL0     H46708   2.270  10.503   0.598  0.9144 -1.4909 -1.8700
  346MOL0     H46709   2.114  10.416   0.560 -0.8662 -1.1825 -0.8498
  346MOL0     H46710   2.206  10.492   0.436 -0.6473 -1.2802 -0.4952
  347MOL0     O46711   0.770   5.049   7.534  0.1618  0.8323  0.7680
  347MOL0     C46712   0.728   5.139   7.597 -0.4692 -0.2774  0.0428
  347MOL0     O46713   0.802   5.247   7.658 -0.3292  0.8903 -0.2649
  347MOL0     C46714   0.936   5.220   7.682 -1.0913  0.1218  0.2262
  347MOL0     C46715   1.031   5.209   7.578 -0.3144  0.3859  0.0241
  347MOL0     C46716   1.170   5.194   7.608  0.1507 -0.6954  0.2960
  347MOL0     C46717   1.214   5.193   7.736  1.7989 -0.4533 -0.0765
  347MOL0     O46718   1.344   5.195   7.779  0.0922 -0.2327  0.7638
  347MOL0     C46719   1.437   5.093   7.741  0.1680 -0.2299  0.5984
  347MOL0     C46720   1.532   5.067   7.860 -0.4242  0.5553  0.3393
  347MOL0     C46721   1.453   5.006   7.981 -0.1695  0.1892  0.2455
  347MOL0     C46722   1.552   5.005   8.095 -0.0048  0.0509  0.6039
  347MOL0     C46723   1.578   5.153   8.153  0.4989  0.0566 -0.2876
  347MOL0     C46724   1.731   5.177   8.178  0.7293  0.5141 -0.1116
  347MOL0     C46725   1.823   5.184   8.058  0.0927  0.6119  0.6847
  347MOL0     C46726   1.972   5.171   8.092 -0.1987  0.6380  0.1765
  347MOL0     N46727   2.036   5.276   8.172  0.0600 -0.4578 -0.4108
  347MOL0     C46728   2.102   5.378   8.098  0.4615 -0.1555 -0.6230
  347MOL0     C46729   2.165   5.452   8.191 -0.0226  0.4564  0.1958
  347MOL0     C46730   2.241   5.577   8.157  0.3815  0.8582 -0.3006
  347MOL0     C46731   2.392   5.538   8.145 -0.0318 -0.3655 -0.1348
  347MOL0     C46732   2.429   5.473   8.006  0.6147  0.7289 -0.3474
  347MOL0     C46733   2.434   5.570   7.885 -0.5295 -0.6995 -1.1818
  347MOL0     O46734   2.302   5.625   7.849 -0.2867  0.7535 -0.0357
  347MOL0     C46735   2.214   5.538   7.784  0.8295  0.1933 -0.1462
  347MOL0     C46736   2.082   5.562   7.797  0.5900  0.3981 -0.6408
  347MOL0     C46737   1.980   5.467   7.761  0.2981 -0.1093 -0.0230
  347MOL0     C46738   2.023   5.343   7.701 -0.2098 -0.2668 -0.3191
  347MOL0     C46739   1.923   5.237   7.654 -0.2998  0.1361 -0.0691
  347MOL0     O46740   1.986   5.115   7.617 -0.7239 -0.2663 -0.8806
  347MOL0     C46741   1.900   5.009   7.599 -0.8897  0.6479 -0.5480
  347MOL0     C46742   1.874   4.911   7.697  0.2654 -0.5046 -0.6118
  347MOL0     C46743   1.787   4.804   7.677 -0.6094  0.4287  0.2777
  347MOL0     C46744   1.741   4.788   7.539 -0.4561 -0.4628  1.0739
  347MOL0     O46745   1.671   4.678   7.490  0.7537  0.2148 -0.0844
  347MOL0     C46746   1.546   4.621   7.554  1.0065 -0.3653  0.1882
  347MOL0     C46747   1.437   4.734   7.564  0.1087  0.0371  0.0405
  347MOL0     C46748   1.309   4.679   7.617  1.1127  0.0404 -0.3077
  347MOL0     C46749   1.206   4.795   7.645 -0.2335 -0.6951  0.3525
  347MOL0     C46750   1.071   4.732   7.681 -0.1241 -0.5912 -0.2252
  347MOL0     C46751   0.970   4.835   7.713  0.3619 -0.1383 -0.8571
  347MOL0     C46752   0.830   4.776   7.741 -0.1775 -0.5988 -0.1895
  347MOL0     C46753   0.752   4.701   7.638 -0.3073  0.3197  0.2969
  347MOL0    Cl46754   0.576   4.684   7.679 -0.5084 -0.2488  0.0725
  347MOL0     C46755   1.778   4.876   7.438 -0.6113  0.6058 -0.4248
  347MOL0     C46756   1.853   4.989   7.469  0.1727  0.1779  0.0636
  347MOL0     O46757   1.799   5.254   7.656 -0.1413 -0.5710 -0.0187
  347MOL0     C46758   2.164   5.321   7.671 -0.2622  0.4653  0.0956
  347MOL0     C46759   2.259   5.414   7.718  0.3583 -0.7290  0.5532
  347MOL0     N46760   2.136   5.395   8.318 -0.1844 -0.5635 -0.1024
  347MOL0     N46761   2.069   5.282   8.302 -0.3335  0.1408 -0.1790
  347MOL0     C46762   1.118   5.192   7.834 -0.4508  0.7908  0.2895
  347MOL0     C46763   0.985   5.208   7.807  0.5098  0.1934  0.0505
  347MOL0     C46764   0.588   5.133   7.636 -0.0523 -0.2914  0.1193
  347MOL0     C46765   0.527   5.213   7.732  0.4170  0.6432  0.6156
  347MOL0     C46766   0.396   5.202   7.774 -0.5998  0.0928 -1.0653
  347MOL0     C46767   0.303   5.114   7.721  0.0038  0.0732 -0.0914
  347MOL0     O46768   0.177   5.128   7.770  0.6999  0.0602  0.0874
  347MOL0     C46769   0.082   5.031   7.721 -0.8386  0.8630  0.5745
  347MOL0     C46770  -0.032   5.046   7.821 -0.5049  0.0228  0.4620
  347MOL0     C46771  -0.116   5.168   7.799  0.3168 -0.0299  0.3230
  347MOL0     C46772  -0.215   5.211   7.904 -0.6530 -0.6388 -0.0641
  347MOL0     C46773  -0.305   5.106   7.950  0.8006  0.1091 -0.5514
  347MOL0     C46774  -0.374   5.025   8.006 -0.1661  0.6655  0.4158
  347MOL0     C46775   0.354   5.041   7.621 -0.0155  0.3178 -0.1008
  347MOL0     C46776   0.486   5.057   7.568 -0.5510  0.9015  0.4648
  347MOL0     C46777   0.512   4.978   7.437  0.3511 -0.1432 -0.0278
  347MOL0     H46778   0.991   5.225   7.478 -1.6442 -0.5407  0.3810
  347MOL0     H46779   1.243   5.201   7.528 -2.6311 -0.0599 -2.3954
  347MOL0     H46780   1.384   5.006   7.701  2.5401 -3.0047  2.9653
  347MOL0     H46781   1.488   5.130   7.652  0.7182  1.7783  1.6913
  347MOL0     H46782   1.580   5.159   7.894  1.2361 -0.9741  2.4670
  347MOL0     H46783   1.613   5.000   7.830 -0.1161 -0.2849  2.8126
  347MOL0     H46784   1.420   4.907   7.945  1.0958  0.2519 -1.2081
  347MOL0     H46785   1.357   5.054   8.002 -2.1434 -4.2075  2.8774
  347MOL0     H46786   1.511   4.951   8.180  0.3518  1.9177  2.0287
  347MOL0     H46787   1.641   4.943   8.077 -0.6612 -0.8492  0.4135
  347MOL0     H46788   1.538   5.231   8.087 -2.0900 -1.3210 -0.4695
  347MOL0     H46789   1.523   5.168   8.246  2.9302  1.3804  1.0367
  347MOL0     H46790   1.749   5.268   8.235  3.5452 -0.7488  1.2045
  347MOL0     H46791   1.760   5.093   8.243 -4.4316 -1.9033 -0.3816
  347MOL0     H46792   1.798   5.278   8.008 -4.4615 -1.9048 -2.4388
  347MOL0     H46793   1.794   5.101   7.994  0.7106 -0.5474  1.8527
  347MOL0     H46794   1.981   5.074   8.143 -0.6573  1.3715  1.7093
  347MOL0     H46795   2.020   5.162   7.995  0.0366 -1.9714  0.4587
  347MOL0     H46796   2.101   5.387   7.990  1.0294 -2.6823 -0.9019
  347MOL0     H46797   2.216   5.611   8.056 -1.0842 -0.1358 -0.3036
  347MOL0     H46798   2.234   5.653   8.235 -0.9417  0.2088  0.2504
  347MOL0     H46799   2.460   5.623   8.155  0.4653 -0.8997  1.3656
  347MOL0     H46800   2.427   5.473   8.226 -0.4189  1.4053  1.5433
  347MOL0     H46801   2.370   5.384   7.984  3.2390 -1.2771  0.1953
  347MOL0     H46802   2.531   5.434   8.010  0.7148  0.9143 -0.9522
  347MOL0     H46803   2.479   5.522   7.798 -3.1949 -2.0666 -1.9224
  347MOL0     H46804   2.483   5.664   7.910 -0.4935 -0.5018 -1.9594
  347MOL0     H46805   2.046   5.651   7.849  1.2539  0.8893 -1.0041
  347MOL0     H46806   1.873   5.480   7.765  0.2963 -0.1242 -0.0216
  347MOL0     H46807   1.906   4.936   7.797 -0.8313  1.1929 -0.6536
  347MOL0     H46808   1.746   4.745   7.759 -0.1547  0.4918  0.5510
  347MOL0     H46809   1.509   4.539   7.492 -0.9754  0.1495  0.6142
  347MOL0     H46810   1.569   4.589   7.656  0.0368  0.3475  0.6424
  347MOL0     H46811   1.477   4.810   7.633 -1.8319  1.6210 -0.4998
  347MOL0     H46812   1.425   4.778   7.465  1.8844  0.0407 -0.2060
  347MOL0     H46813   1.266   4.616   7.539  0.5485 -0.9537  0.7776
  347MOL0     H46814   1.319   4.615   7.705  1.7045 -0.4481 -0.7267
  347MOL0     H46815   1.195   4.862   7.559  1.7160  1.2607  1.5375
  347MOL0     H46816   1.239   4.852   7.732 -1.5820 -0.4677  0.7368
  347MOL0     H46817   1.093   4.669   7.767  0.9942  1.2403  0.9143
  347MOL0     H46818   1.042   4.661   7.603  2.2110 -0.9895 -0.8109
  347MOL0     H46819   1.001   4.902   7.794 -1.3452 -0.6848  0.3020
  347MOL0     H46820   0.972   4.906   7.630  1.1595 -0.2720 -0.9547
  347MOL0     H46821   0.769   4.863   7.767  1.3643  0.8662 -1.3056
  347MOL0     H46822   0.837   4.717   7.833 -2.2048 -2.5765 -1.1957
  347MOL0     H46823   0.763   4.747   7.540  0.9887 -1.9824 -0.7387
  347MOL0     H46824   0.806   4.606   7.626  1.0937  1.1958 -0.6008
  347MOL0     H46825   1.743   4.854   7.337  2.3259 -2.4968 -0.9543
  347MOL0     H46826   1.883   5.060   7.392  0.7304 -0.7241 -0.5609
  347MOL0     H46827   2.210   5.241   7.614  1.3063  1.9567 -0.8370
  347MOL0     H46828   2.362   5.379   7.708  0.8261  0.3819  1.2192
  347MOL0     H46829   1.144   5.202   7.938  2.1022  5.7193 -0.5120
  347MOL0     H46830   0.902   5.214   7.877  0.7974  3.4366  0.2649
  347MOL0     H46831   0.590   5.291   7.775  1.4292  0.8321 -1.1064
  347MOL0     H46832   0.351   5.269   7.845  2.9389  1.7916 -0.2114
  347MOL0     H46833   0.121   4.929   7.715 -1.6757  0.4380  1.9948
  347MOL0     H46834   0.049   5.068   7.624 -2.7970 -2.9647 -0.3742
  347MOL0     H46835   0.020   5.046   7.917  2.3512 -3.8206 -0.8325
  347MOL0     H46836  -0.082   4.949   7.817 -0.5784  0.0704  0.1955
  347MOL0     H46837  -0.171   5.170   7.705  1.1821 -0.7210 -0.2166
  347MOL0     H46838  -0.045   5.250   7.781  0.8842 -0.8509 -1.4932
  347MOL0     H46839  -0.158   5.227   7.996 -2.3307 -1.4587  1.1583
  347MOL0     H46840  -0.268   5.304   7.883 -0.4499 -0.6887 -0.8185
  347MOL0     H46841  -0.441   4.955   8.052 -2.0180  2.6805  0.9453
  347MOL0     H46842   0.292   4.965   7.574 -0.6851  1.0178 -0.3605
  347MOL0     H46843   0.566   5.040   7.364 -0.0600 -0.6988 -0.8197
  347MOL0     H46844   0.572   4.889   7.460 -0.0218 -0.3001  0.3348
  347MOL0     H46845   0.423   4.948   7.381  0.0080 -0.9305  0.9023
  348MOL0     O46846   6.326   2.971   5.181  0.0914 -0.2054  0.5103
  348MOL0     C46847   6.344   3.084   5.148 -0.5322 -0.4415 -0.2253
  348MOL0     O46848   6.467   3.151   5.146 -0.0464  0.2740  0.1872
  348MOL0     C46849   6.592   3.098   5.156 -0.5590 -0.3400 -0.8555
  348MOL0     C46850   6.699   3.190   5.138  0.1245 -0.0605  0.7238
  348MOL0     C46851   6.834   3.154   5.141  0.1865  1.1705  0.5391
  348MOL0     C46852   6.868   3.020   5.151 -0.2156 -1.2328 -0.0349
  348MOL0     O46853   7.012   2.994   5.155  0.6221 -0.0844  0.0733
  348MOL0     C46854   7.054   2.873   5.224  0.5810 -0.3144  0.2795
  348MOL0     C46855   7.203   2.879   5.238 -0.5048  0.4072 -0.1033
  348MOL0     C46856   7.242   2.972   5.359 -0.4165 -0.6183 -0.4745
  348MOL0     C46857   7.236   2.903   5.500  0.1429  0.9306  0.5217
  348MOL0     C46858   7.291   2.996   5.606 -0.4273  0.5996  0.5057
  348MOL0     C46859   7.260   2.942   5.746  0.1672 -1.0813  0.0434
  348MOL0     C46860   7.290   3.006   5.876  0.3023 -0.6840  0.4611
  348MOL0     C46861   7.429   3.069   5.875 -1.3587  0.1943 -0.0466
  348MOL0     N46862   7.543   2.964   5.866 -0.3208  0.1090  0.2689
  348MOL0     C46863   7.590   2.918   5.988 -0.8668 -0.3130  0.2861
  348MOL0     C46864   7.719   2.897   5.983 -0.4764  0.8797  0.7466
  348MOL0     C46865   7.821   2.838   6.070  0.4396 -0.0527 -0.1792
  348MOL0     C46866   7.952   2.912   6.082  0.4173 -0.7619 -0.2746
  348MOL0     C46867   8.042   2.852   6.187 -0.8514  0.3193  0.2958
  348MOL0     C46868   8.180   2.938   6.172  0.3944  0.5149 -0.0981
  348MOL0     O46869   8.276   2.902   6.276  0.0012  0.3811  0.5878
  348MOL0     C46870   8.404   2.959   6.281 -0.3085  0.2860 -0.2497
  348MOL0     C46871   8.501   2.905   6.359  0.2164  1.1336  0.0050
  348MOL0     C46872   8.628   2.959   6.352  0.3102 -0.0514  0.1737
  348MOL0     C46873   8.656   3.079   6.282  0.8451  0.4595 -0.6357
  348MOL0     C46874   8.796   3.135   6.286 -0.5177  0.2033 -0.2640
  348MOL0     O46875   8.821   3.253   6.222  0.7284 -0.0668  0.0698
  348MOL0     C46876   8.951   3.293   6.204  0.0767 -0.5881  0.0911
  348MOL0     C46877   8.993   3.414   6.258 -0.3097  0.1014 -0.5434
  348MOL0     C46878   9.130   3.453   6.266 -1.0959 -0.3929  0.7076
  348MOL0     C46879   9.226   3.372   6.203 -0.2181 -0.2870 -0.2843
  348MOL0     O46880   9.365   3.408   6.198  0.1333  0.2741  0.2129
  348MOL0     C46881   9.463   3.326   6.122  0.4710  0.2723 -1.5583
  348MOL0     C46882   9.595   3.395   6.146  0.6345 -0.2170 -0.1900
  348MOL0     C46883   9.705   3.329   6.068 -0.0748  0.0515 -0.0215
  348MOL0     C46884   9.835   3.409   6.075 -0.6494  0.0443 -0.7418
  348MOL0     C46885   9.952   3.340   5.994  0.0622 -0.4392  0.2478
  348MOL0     C46886  10.061   3.436   5.965 -0.6258  0.0328 -1.1388
  348MOL0     C46887  10.039   3.511   5.830  0.4006  0.8706 -1.2026
  348MOL0     C46888  10.153   3.604   5.804 -0.3256  0.2063  0.1189
  348MOL0    Cl46889  10.160   3.630   5.626  0.0867  0.1486  0.0544
  348MOL0     C46890   9.182   3.251   6.146  0.0927  0.2590 -0.3934
  348MOL0     C46891   9.045   3.209   6.149 -0.1823  0.4738 -0.5482
  348MOL0     O46892   8.884   3.053   6.322 -0.1279 -0.9198  0.1544
  348MOL0     C46893   8.552   3.141   6.219 -0.3719  0.0638 -0.4015
  348MOL0     C46894   8.430   3.078   6.213 -0.7662 -0.1382  0.3386
  348MOL0     N46895   7.757   2.936   5.856  0.5429  0.9843 -0.3661
  348MOL0     N46896   7.654   2.978   5.790 -0.5707 -0.2763  0.0339
  348MOL0     C46897   6.759   2.929   5.149 -0.2826  0.2953 -0.2347
  348MOL0     C46898   6.622   2.969   5.159  0.6363 -0.5977 -0.6540
  348MOL0     C46899   6.218   3.158   5.118  0.7034 -1.0246 -0.0178
  348MOL0     C46900   6.107   3.089   5.084  0.3033  1.3766  0.2316
  348MOL0     C46901   5.985   3.152   5.051  0.3454  0.2131 -0.5922
  348MOL0     C46902   5.975   3.290   5.061 -0.6268 -0.6277 -0.1789
  348MOL0     O46903   5.863   3.369   5.035  0.4660  0.2497 -0.2573
  348MOL0     C46904   5.734   3.299   5.007 -0.7851  0.2930 -0.4892
  348MOL0     C46905   5.603   3.380   5.028 -0.4499 -0.0664 -0.3770
  348MOL0     C46906   5.597   3.513   4.956 -0.0571 -0.5407 -0.7330
  348MOL0     C46907   5.509   3.513   4.836  0.3267  0.0810  0.4080
  348MOL0     C46908   5.555   3.428   4.726 -0.0135  0.4909 -0.8411
  348MOL0     C46909   5.609   3.384   4.630 -0.7510 -0.3460  0.2874
  348MOL0     C46910   6.092   3.364   5.092  0.3175 -0.0229 -0.0716
  348MOL0     C46911   6.211   3.299   5.108 -0.1360  0.1787  0.3649
  348MOL0     C46912   6.325   3.397   5.134 -0.0647 -0.0945 -0.5150
  348MOL0     H46913   6.673   3.295   5.130 -3.8348 -0.7243  2.3579
  348MOL0     H46914   6.919   3.221   5.135  1.2780 -0.2876 -2.1332
  348MOL0     H46915   7.019   2.862   5.327  2.3001 -0.5561  0.8654
  348MOL0     H46916   7.038   2.781   5.166 -0.2622  0.0589 -0.0987
  348MOL0     H46917   7.236   2.915   5.141 -2.0559  0.1222 -0.7601
  348MOL0     H46918   7.245   2.778   5.245  3.0923  1.5325 -2.6632
  348MOL0     H46919   7.169   3.053   5.358  0.5266  0.3009 -2.9772
  348MOL0     H46920   7.342   3.012   5.339  0.0408 -1.4795 -0.0199
  348MOL0     H46921   7.130   2.878   5.517  0.4200 -0.1621  0.7158
  348MOL0     H46922   7.306   2.819   5.503 -0.7404  0.1886  0.8219
  348MOL0     H46923   7.400   3.004   5.598 -0.5200  1.6998  0.2802
  348MOL0     H46924   7.249   3.096   5.598 -2.6345 -0.4075 -2.4595
  348MOL0     H46925   7.151   2.930   5.741  0.0435  0.1413 -0.8992
  348MOL0     H46926   7.292   2.838   5.749  0.4691 -0.9964 -0.1633
  348MOL0     H46927   7.283   2.939   5.962  1.5923  0.4998  1.5376
  348MOL0     H46928   7.211   3.080   5.894 -1.1993 -2.1373  0.0782
  348MOL0     H46929   7.435   3.143   5.795 -0.3279  1.5317  1.2006
  348MOL0     H46930   7.464   3.121   5.964  2.4177 -1.2419 -0.4927
  348MOL0     H46931   7.548   2.900   6.086 -0.9200  3.0549  1.0033
  348MOL0     H46932   7.769   2.832   6.167 -0.5096 -2.3666 -0.7637
  348MOL0     H46933   7.839   2.735   6.041 -0.2624 -1.2314  3.1558
  348MOL0     H46934   7.991   2.909   5.980 -0.4626 -0.8087 -0.6205
  348MOL0     H46935   7.926   3.017   6.102 -3.3600 -1.8322  1.3954
  348MOL0     H46936   8.064   2.748   6.164 -1.1331 -0.5555  3.5711
  348MOL0     H46937   8.005   2.853   6.290  1.3518 -2.2243  1.2376
  348MOL0     H46938   8.144   3.040   6.191 -0.4475  0.2326 -0.1431
  348MOL0     H46939   8.229   2.930   6.075  0.1471  0.7284 -0.2411
  348MOL0     H46940   8.483   2.811   6.410  2.6642  0.4711 -0.2713
  348MOL0     H46941   8.709   2.909   6.404 -0.3270 -1.0575  0.2286
  348MOL0     H46942   8.926   3.473   6.319  3.0054  1.6219  1.9169
  348MOL0     H46943   9.163   3.543   6.317 -1.1771  1.7445 -2.6495
  348MOL0     H46944   9.462   3.227   6.167 -0.2929  0.5514 -0.9167
  348MOL0     H46945   9.447   3.308   6.015 -1.1254 -1.5915 -1.0621
  348MOL0     H46946   9.589   3.500   6.117 -0.7490 -0.9464 -2.9255
  348MOL0     H46947   9.610   3.401   6.254 -0.0958  0.1579 -0.1078
  348MOL0     H46948   9.724   3.228   6.104  0.8100 -0.1922 -1.1368
  348MOL0     H46949   9.673   3.326   5.964 -0.1795 -0.6608  0.0244
  348MOL0     H46950   9.857   3.414   6.182 -0.3180  1.8330 -0.8780
  348MOL0     H46951   9.824   3.514   6.049 -0.1231 -0.4623 -3.3870
  348MOL0     H46952   9.926   3.308   5.893  0.1018  0.7344 -0.1529
  348MOL0     H46953   9.993   3.265   6.062 -0.0904  0.7940  1.7436
  348MOL0     H46954  10.071   3.507   6.048  1.2510 -0.2309 -1.1004
  348MOL0     H46955  10.149   3.372   5.964 -0.4863  0.1711  0.2069
  348MOL0     H46956   9.940   3.556   5.838 -0.9373 -1.9087 -1.1571
  348MOL0     H46957  10.029   3.441   5.747  2.3306  0.3152 -1.0180
  348MOL0     H46958  10.151   3.690   5.872 -1.5252  0.3392 -0.0532
  348MOL0     H46959  10.237   3.541   5.833  0.5275  1.9104  1.5302
  348MOL0     H46960   9.248   3.179   6.099 -1.1983 -0.0908 -1.7506
  348MOL0     H46961   9.023   3.106   6.122  0.8323  0.0668  0.1320
  348MOL0     H46962   8.563   3.235   6.166 -0.9970  0.8165  0.7805
  348MOL0     H46963   8.350   3.118   6.152 -0.5154 -1.3220 -0.8118
  348MOL0     H46964   6.775   2.822   5.148  2.0998  0.5585  1.5924
  348MOL0     H46965   6.554   2.888   5.178  0.2266  0.1293  1.1976
  348MOL0     H46966   6.099   2.981   5.084  0.3814  1.3413  1.6438
  348MOL0     H46967   5.898   3.089   5.032  0.4719  0.7087 -3.1347
  348MOL0     H46968   5.719   3.211   5.070 -2.4003 -0.4262 -1.7809
  348MOL0     H46969   5.721   3.259   4.906 -1.0838 -0.0609 -0.3144
  348MOL0     H46970   5.611   3.389   5.137  1.3446 -1.0176 -0.3891
  348MOL0     H46971   5.519   3.314   5.004 -0.3814 -1.4455  2.6857
  348MOL0     H46972   5.697   3.553   4.938  0.6798  0.2089  3.6657
  348MOL0     H46973   5.553   3.577   5.034  1.9876  0.7331 -0.5500
  348MOL0     H46974   5.402   3.499   4.856 -0.3287  0.7436 -2.2979
  348MOL0     H46975   5.518   3.613   4.792  0.6642 -0.0618  0.1450
  348MOL0     H46976   5.645   3.353   4.534 -1.5874  2.6956 -1.1278
  348MOL0     H46977   6.077   3.471   5.105 -3.3497 -0.5435  1.0536
  348MOL0     H46978   6.390   3.378   5.221  1.8953  2.7809 -1.2013
  348MOL0     H46979   6.387   3.416   5.046 -1.1788  1.6828 -0.9590
  348MOL0     H46980   6.282   3.496   5.149  0.2911 -0.1590  1.1441
  349MOL0     O46981   5.831   4.073   9.742 -0.2764  0.2201 -0.6503
  349MOL0     C46982   5.738   4.056   9.819 -0.6497 -0.2122  0.0754
  349MOL0     O46983   5.742   3.990   9.939  0.7604  0.1335 -0.4812
  349MOL0     C46984   5.844   3.907   9.968  0.5039 -0.6656  0.4339
  349MOL0     C46985   5.869   3.804   9.873 -0.4024 -0.5219 -0.7223
  349MOL0     C46986   5.976   3.715   9.884 -0.3924  1.2431 -0.1147
  349MOL0     C46987   6.066   3.741   9.989  0.2219 -0.3542  0.3613
  349MOL0     O46988   6.174   3.655  10.003 -0.0600 -0.7964  0.5354
  349MOL0     C46989   6.261   3.663  10.117  1.2689  0.6038  0.3800
  349MOL0     C46990   6.347   3.535  10.114  0.1700 -0.1750 -0.7304
  349MOL0     C46991   6.267   3.411  10.158 -0.2857 -0.6550 -0.0670
  349MOL0     C46992   6.355   3.289  10.136 -0.6012  0.8263 -0.7198
  349MOL0     C46993   6.281   3.159  10.148  0.2389  0.0115 -0.1150
  349MOL0     C46994   6.226   3.131  10.286  0.5039 -0.4002  0.8196
  349MOL0     C46995   6.329   3.065  10.373 -0.5510 -0.0623 -0.2122
  349MOL0     C46996   6.291   3.048  10.526  0.9201 -0.9039 -0.0777
  349MOL0     N46997   6.408   3.020  10.612 -0.2391 -0.0400  0.3357
  349MOL0     C46998   6.525   3.097  10.614 -0.7318  0.9761  0.1895
  349MOL0     C46999   6.609   3.029  10.694  0.6667 -0.0380  0.0786
  349MOL0     C47000   6.755   3.069  10.703  0.4898 -0.6927  0.6008
  349MOL0     C47001   6.796   3.208  10.646  0.1272 -0.3469 -0.6963
  349MOL0     C47002   6.953   3.220  10.669  0.1913 -0.4656  0.6830
  349MOL0     C47003   7.022   3.150  10.554  0.2481  0.0313  0.7008
  349MOL0     O47004   7.050   3.238  10.441 -0.0871  0.5008  0.1673
  349MOL0     C47005   7.164   3.313  10.428  0.6574  0.0295  0.0559
  349MOL0     C47006   7.207   3.346  10.299  1.0815 -0.3362  0.1698
  349MOL0     C47007   7.327   3.407  10.267 -0.0734  0.7759  0.3567
  349MOL0     C47008   7.413   3.437  10.370 -0.1359 -0.5809 -0.3349
  349MOL0     C47009   7.546   3.492  10.340 -0.4516 -0.4883 -0.2737
  349MOL0     O47010   7.562   3.595  10.248  0.5893  0.1066  1.1831
  349MOL0     C47011   7.687   3.642  10.208 -0.5769 -0.8117  0.5206
  349MOL0     C47012   7.811   3.573  10.219  0.3061 -0.2860 -0.3747
  349MOL0     C47013   7.931   3.633  10.184 -0.2545 -0.1602 -0.2229
  349MOL0     C47014   7.936   3.754  10.112 -0.1925  0.2110  0.0464
  349MOL0     O47015   8.061   3.800  10.084  0.0548  0.3632  1.1902
  349MOL0     C47016   8.069   3.946  10.051 -0.7337 -0.0189 -1.1023
  349MOL0     C47017   8.221   3.991  10.065  0.4441 -0.0065  0.8831
  349MOL0     C47018   8.286   3.950  10.195 -0.6567 -0.1529  0.2896
  349MOL0     C47019   8.432   3.975  10.196  0.5525  0.0523 -0.2440
  349MOL0     C47020   8.485   3.992  10.341 -0.5724  0.0882  0.7767
  349MOL0     C47021   8.461   3.870  10.438  0.1706 -0.3708  0.6566
  349MOL0     C47022   8.564   3.851  10.547  0.5502  0.3699 -0.3837
  349MOL0     C47023   8.513   3.736  10.644 -0.5110 -0.4592 -0.8171
  349MOL0    Cl47024   8.473   3.591  10.552  0.0965  0.0899  0.7766
  349MOL0     C47025   7.821   3.827  10.100 -0.6549  0.1711  0.0315
  349MOL0     C47026   7.704   3.773  10.143  0.5929 -0.0182  0.7780
  349MOL0     O47027   7.635   3.456  10.414  0.0321 -0.6139  0.5106
  349MOL0     C47028   7.368   3.415  10.503 -0.4181  0.3730  0.6035
  349MOL0     C47029   7.247   3.348  10.530  0.2643 -0.4950 -0.6456
  349MOL0     N47030   6.546   2.918  10.732  0.1848 -0.3503 -0.1837
  349MOL0     N47031   6.421   2.914  10.694  0.3229  0.3165 -0.3192
  349MOL0     C47032   6.038   3.841  10.083  0.4889  0.0658 -0.1136
  349MOL0     C47033   5.923   3.919  10.085  0.3713  0.4807  0.2399
  349MOL0     C47034   5.609   4.107   9.783  0.0725 -1.2468  0.2197
  349MOL0     C47035   5.601   4.240   9.730  0.5960  0.5681  0.0252
  349MOL0     C47036   5.478   4.297   9.713 -0.2942  0.4809  0.2427
  349MOL0     C47037   5.361   4.229   9.724 -0.1155 -0.8666 -0.3357
  349MOL0     O47038   5.235   4.284   9.696 -0.0481 -0.6074 -0.6976
  349MOL0     C47039   5.228   4.423   9.676  0.2471 -0.0015 -0.3298
  349MOL0     C47040   5.085   4.472   9.702 -0.7528 -0.1311  0.5823
  349MOL0     C47041   4.992   4.397   9.613  0.1974  0.0232 -0.3689
  349MOL0     C47042   4.842   4.422   9.651 -0.2964  0.2481  0.0790
  349MOL0     C47043   4.777   4.533   9.579 -0.0027 -0.2404  0.5835
  349MOL0     C47044   4.736   4.622   9.512  0.5405 -0.7789 -0.5865
  349MOL0     C47045   5.365   4.099   9.777  0.2755  0.7633  0.2784
  349MOL0     C47046   5.487   4.040   9.812  0.0732  0.5908  0.4397
  349MOL0     C47047   5.484   3.900   9.860 -0.2609  0.2736 -0.1358
  349MOL0     H47048   5.796   3.797   9.792 -2.6598  0.9204  1.0576
  349MOL0     H47049   5.999   3.630   9.821  1.2679 -1.7480  4.0523
  349MOL0     H47050   6.324   3.752  10.122  0.9772  0.8192  0.2150
  349MOL0     H47051   6.204   3.664  10.210  1.6039  2.2395  0.6014
  349MOL0     H47052   6.430   3.556  10.182  4.5515 -0.0499 -5.4590
  349MOL0     H47053   6.411   3.526  10.025  1.4962  0.0940  0.1711
  349MOL0     H47054   6.176   3.406  10.097 -1.1360  1.9988  0.8685
  349MOL0     H47055   6.248   3.401  10.265 -0.7002 -0.2672 -0.1009
  349MOL0     H47056   6.395   3.302  10.035  0.8443  2.0897 -0.0269
  349MOL0     H47057   6.439   3.280  10.206 -1.1151 -1.7595 -0.3420
  349MOL0     H47058   6.195   3.161  10.080 -1.5369  5.1475  1.8180
  349MOL0     H47059   6.347   3.077  10.118 -0.0425  1.3316 -5.1792
  349MOL0     H47060   6.177   3.218  10.331 -0.0007 -0.1350 -0.2048
  349MOL0     H47061   6.138   3.067  10.277 -1.8995  2.6858  0.7949
  349MOL0     H47062   6.423   3.120  10.376  1.0221 -2.5741  0.2466
  349MOL0     H47063   6.353   2.963  10.340 -0.6116 -0.3086  0.4842
  349MOL0     H47064   6.233   3.136  10.556  0.0369 -2.0332  1.7576
  349MOL0     H47065   6.219   2.967  10.541 -1.3898  1.4535  3.2853
  349MOL0     H47066   6.534   3.180  10.545  1.2695  2.0468  1.6266
  349MOL0     H47067   6.786   3.064  10.808  0.5427  4.0981  1.0401
  349MOL0     H47068   6.818   2.995  10.654 -0.8094 -0.8057 -0.9956
  349MOL0     H47069   6.772   3.233  10.542 -3.7807  1.4371  0.4428
  349MOL0     H47070   6.753   3.288  10.708  1.6985  0.5377 -0.6986
  349MOL0     H47071   6.978   3.168  10.762 -0.2868 -2.4722 -0.2337
  349MOL0     H47072   6.979   3.325  10.682 -2.1642  0.1876  0.6383
  349MOL0     H47073   6.962   3.065  10.521  0.0494 -0.2292  1.7013
  349MOL0     H47074   7.114   3.100  10.586  0.0895 -2.6029 -2.3562
  349MOL0     H47075   7.141   3.323  10.216  0.4416  2.3851 -0.1520
  349MOL0     H47076   7.351   3.431  10.164 -2.1870  0.1942 -0.3304
  349MOL0     H47077   7.831   3.480  10.272  1.0666 -0.6997 -1.3629
  349MOL0     H47078   8.021   3.575  10.201  1.1149  1.8509 -0.1447
  349MOL0     H47079   8.038   3.964   9.947  1.7044 -0.0482 -1.8950
  349MOL0     H47080   8.010   4.004  10.122 -3.2129 -1.4739 -1.8333
  349MOL0     H47081   8.281   3.955   9.981 -0.2235  3.1265 -1.1147
  349MOL0     H47082   8.231   4.099  10.051  0.2319 -0.0040  0.7438
  349MOL0     H47083   8.241   4.002  10.281  2.0309  1.3831  0.8647
  349MOL0     H47084   8.280   3.841  10.200  2.0250 -0.3557  0.5465
  349MOL0     H47085   8.455   4.068  10.144  0.6899 -0.4750 -1.1686
  349MOL0     H47086   8.479   3.892  10.141 -1.7757 -2.0975  0.7909
  349MOL0     H47087   8.454   4.081  10.397  0.6661  0.7268  0.4936
  349MOL0     H47088   8.593   4.008  10.328 -0.7794 -0.1399 -1.7437
  349MOL0     H47089   8.357   3.888  10.469 -0.7133  0.1807 -2.3746
  349MOL0     H47090   8.463   3.776  10.384 -0.9507  0.2924 -0.5952
  349MOL0     H47091   8.582   3.945  10.600 -3.1211  0.1673  1.5386
  349MOL0     H47092   8.659   3.820  10.502 -0.3527  0.4298 -2.4373
  349MOL0     H47093   8.594   3.716  10.714  0.5750  0.3637 -1.8088
  349MOL0     H47094   8.420   3.773  10.690 -0.6893 -2.5680  0.6656
  349MOL0     H47095   7.836   3.925  10.055  1.5002  0.0726  0.4372
  349MOL0     H47096   7.615   3.832  10.120 -1.4658 -2.7086  1.2979
  349MOL0     H47097   7.433   3.437  10.587 -0.4823  3.2998  0.0179
  349MOL0     H47098   7.215   3.320  10.630 -3.1914  2.7228 -0.6307
  349MOL0     H47099   6.107   3.866  10.163 -1.7018  2.2679  1.2251
  349MOL0     H47100   5.913   4.002  10.154 -2.0401  1.6516 -1.3860
  349MOL0     H47101   5.695   4.295   9.721  0.4897  0.7233 -0.1585
  349MOL0     H47102   5.485   4.399   9.675 -0.5982  0.2702 -0.3861
  349MOL0     H47103   5.265   4.445   9.575  1.3072  0.8442  0.2260
  349MOL0     H47104   5.290   4.472   9.751  0.2291  2.0675 -1.5909
  349MOL0     H47105   5.081   4.579   9.678 -2.1140 -0.1085  0.8433
  349MOL0     H47106   5.057   4.452   9.806 -2.6444 -3.3336 -0.3812
  349MOL0     H47107   5.015   4.290   9.619  1.4713  0.3127  0.3183
  349MOL0     H47108   5.014   4.429   9.511 -0.7844  1.7658 -0.0713
  349MOL0     H47109   4.794   4.326   9.628 -0.2362 -0.0021  0.9635
  349MOL0     H47110   4.841   4.427   9.760  1.4199  0.5063  0.1112
  349MOL0     H47111   4.701   4.697   9.443 -0.1971 -0.4413  0.1341
  349MOL0     H47112   5.273   4.047   9.802  0.0845 -0.2496 -2.2135
  349MOL0     H47113   5.386   3.852   9.851 -1.4004  1.8454  2.4855
  349MOL0     H47114   5.560   3.842   9.806  2.3995  2.0163  1.4996
  349MOL0     H47115   5.515   3.895   9.965 -1.0212 -0.7894  0.0495
  350MOL0     O47116   7.549   5.555  10.766 -0.1339 -0.0783  0.4209
  350MOL0     C47117   7.452   5.558  10.694 -0.7094  1.3970  0.3902
  350MOL0     O47118   7.447   5.599  10.567  0.4022  0.9113 -0.4689
  350MOL0     C47119   7.553   5.651  10.501 -0.4902  0.3515 -0.1175
  350MOL0     C47120   7.574   5.617  10.372  0.1330 -0.4738 -0.1252
  350MOL0     C47121   7.670   5.679  10.290  0.1074 -0.2518 -0.1267
  350MOL0     C47122   7.752   5.774  10.350  0.0739  0.2302 -0.3416
  350MOL0     O47123   7.851   5.842  10.293 -0.6983 -0.2308  0.1816
  350MOL0     C47124   7.923   5.770  10.179  0.0022 -0.8668 -0.2881
  350MOL0     C47125   8.046   5.854  10.139  0.4121  0.0450  0.3234
  350MOL0     C47126   8.160   5.863  10.234 -0.7778 -0.1361 -0.8496
  350MOL0     C47127   8.276   5.949  10.181  0.6548  0.6835  0.1425
  350MOL0     C47128   8.388   5.979  10.273  0.1979  0.8312  0.0646
  350MOL0     C47129   8.440   5.873  10.371 -1.1124 -0.0102 -0.5435
  350MOL0     C47130   8.545   5.934  10.470 -0.4944  0.2676 -0.4996
  350MOL0     C47131   8.666   5.993  10.386 -0.5190 -0.2116  0.6086
  350MOL0     N47132   8.785   6.011  10.475  0.0574 -0.6069 -0.2660
  350MOL0     C47133   8.897   5.936  10.468 -0.0450 -0.2023 -0.1627
  350MOL0     C47134   8.964   5.972  10.584  0.4525 -0.3171 -0.9423
  350MOL0     C47135   9.099   5.937  10.620 -0.3482 -0.1636 -1.1240
  350MOL0     C47136   9.198   5.966  10.500  0.6132  0.6734  0.2104
  350MOL0     C47137   9.341   5.909  10.511 -0.1693 -0.6796 -0.2070
  350MOL0     C47138   9.421   5.970  10.625 -0.1476 -0.4750 -0.1438
  350MOL0     O47139   9.561   5.929  10.612  0.0704 -0.4611 -0.0314
  350MOL0     C47140   9.648   5.947  10.713 -0.6484  0.0551 -0.5420
  350MOL0     C47141   9.621   5.982  10.850  0.1124 -0.1661  1.1878
  350MOL0     C47142   9.714   5.984  10.947  0.5622 -0.6048  0.1859
  350MOL0     C47143   9.849   5.969  10.913  0.5620 -0.8074 -0.4180
  350MOL0     C47144   9.951   5.975  11.015 -0.2465 -0.7080 -0.6067
  350MOL0     O47145  10.081   6.009  10.971  0.4070  0.0275  0.8221
  350MOL0     C47146  10.183   6.029  11.059  0.3591 -0.8963  0.3836
  350MOL0     C47147  10.270   5.923  11.073  0.2743 -0.4201 -1.6146
  350MOL0     C47148  10.387   5.948  11.144 -0.5295  0.2026  0.3624
  350MOL0     C47149  10.405   6.070  11.216  0.3930  0.2241 -0.1501
  350MOL0     O47150  10.522   6.087  11.278 -0.4252 -0.6224  0.5035
  350MOL0     C47151  10.628   6.004  11.245 -1.1422  0.4445 -0.6664
  350MOL0     C47152  10.748   6.071  11.306  0.5108  0.7121  0.5282
  350MOL0     C47153  10.855   5.971  11.335 -1.0438 -0.5344 -0.5063
  350MOL0     C47154  10.980   6.050  11.383 -0.7483  0.4745  0.9255
  350MOL0     C47155  11.077   5.968  11.473 -0.7061  0.2237 -0.1780
  350MOL0     C47156  11.163   6.072  11.545  0.3511  0.3742 -0.6694
  350MOL0     C47157  11.261   6.005  11.648 -0.8875  0.7464 -0.6280
  350MOL0     C47158  11.322   6.106  11.745 -0.3136  0.7054 -0.7390
  350MOL0    Cl47159  11.463   6.039  11.827  0.1851  0.2606  0.1830
  350MOL0     C47160  10.307   6.165  11.216 -0.2590 -0.8994 -0.2965
  350MOL0     C47161  10.199   6.155  11.129  0.4660  0.1886 -0.9594
  350MOL0     O47162   9.913   5.966  11.135 -0.3554  0.0405  0.2849
  350MOL0     C47163   9.886   5.950  10.782  0.1545  0.1472  0.0785
  350MOL0     C47164   9.788   5.927  10.685  0.0867  0.7615 -0.3996
  350MOL0     N47165   8.885   6.055  10.657  0.1754 -0.2739  1.0136
  350MOL0     N47166   8.779   6.084  10.596  0.5864 -0.2781  0.1788
  350MOL0     C47167   7.741   5.803  10.484  0.5716 -0.0948 -0.8844
  350MOL0     C47168   7.640   5.743  10.561  0.7576 -0.1473  0.1732
  350MOL0     C47169   7.320   5.491  10.749 -0.4780 -0.2995 -0.0583
  350MOL0     C47170   7.336   5.417  10.868  0.6537 -0.6223 -0.7471
  350MOL0     C47171   7.231   5.340  10.921  0.0751 -0.3629  0.4391
  350MOL0     C47172   7.105   5.341  10.855 -0.6291  0.4779 -0.0079
  350MOL0     O47173   6.991   5.267  10.892  0.6111 -0.6514  0.0660
  350MOL0     C47174   7.001   5.173  10.996 -0.2063  0.5428  0.5897
  350MOL0     C47175   6.889   5.069  10.979  0.1826  0.6576  0.9067
  350MOL0     C47176   6.879   4.983  11.098 -0.3264  0.2814  0.0221
  350MOL0     C47177   6.902   4.830  11.077 -0.2205  0.0134  0.3410
  350MOL0     C47178   7.046   4.808  11.057 -1.2797  0.3613  0.3114
  350MOL0     C47179   7.161   4.809  11.018  0.8554 -0.0245 -0.0132
  350MOL0     C47180   7.080   5.423  10.746 -0.2707  0.0748  0.4306
  350MOL0     C47181   7.187   5.498  10.697  0.0523  0.3405 -0.6301
  350MOL0     C47182   7.159   5.583  10.581 -0.2099 -0.7495 -0.3293
  350MOL0     H47183   7.502   5.547  10.331  0.6648 -0.7627 -0.5699
  350MOL0     H47184   7.680   5.664  10.183 -1.7403  4.4264 -1.2138
  350MOL0     H47185   7.940   5.662  10.190 -1.8732 -1.3853 -1.8999
  350MOL0     H47186   7.857   5.770  10.092  1.3579 -1.1464 -1.3560
  350MOL0     H47187   8.014   5.958  10.128 -1.2738 -0.5740 -1.0298
  350MOL0     H47188   8.085   5.820  10.043 -1.6774  2.3731 -1.5134
  350MOL0     H47189   8.189   5.758  10.241 -0.5435 -0.1276 -1.5856
  350MOL0     H47190   8.136   5.899  10.335 -3.0095 -2.3940 -0.4850
  350MOL0     H47191   8.318   5.891  10.098 -1.9796 -1.7882  0.3635
  350MOL0     H47192   8.237   6.046  10.149  0.8596  0.1904 -1.7171
  350MOL0     H47193   8.469   6.010  10.207 -0.0716  2.3529  0.3913
  350MOL0     H47194   8.353   6.068  10.328 -1.8098  0.4677 -0.5315
  350MOL0     H47195   8.352   5.838  10.426 -2.8252  1.1309 -2.4367
  350MOL0     H47196   8.487   5.790  10.317  1.9015  0.1116  1.6029
  350MOL0     H47197   8.578   5.854  10.536  2.0689  0.9106 -0.9119
  350MOL0     H47198   8.504   6.019  10.527 -2.5449 -0.3612 -0.9506
  350MOL0     H47199   8.694   5.908  10.322 -1.4509  0.1636 -0.3276
  350MOL0     H47200   8.638   6.077  10.323  1.5512  1.0363  1.2606
  350MOL0     H47201   8.925   5.852  10.406  0.5218  1.0018 -1.6213
  350MOL0     H47202   9.131   5.989  10.710  0.8777 -0.8841 -1.1160
  350MOL0     H47203   9.087   5.832  10.645 -0.9119 -0.2906 -1.8879
  350MOL0     H47204   9.167   5.927  10.403  2.1411  1.5578 -0.6842
  350MOL0     H47205   9.197   6.073  10.477 -1.1009  0.5681 -0.2801
  350MOL0     H47206   9.396   5.930  10.418  0.9612  1.0292  0.7992
  350MOL0     H47207   9.342   5.799  10.512  1.6850 -0.6991  0.2131
  350MOL0     H47208   9.379   5.936  10.720  1.3606 -0.6067  0.5016
  350MOL0     H47209   9.429   6.078  10.615  0.5301 -0.5872 -0.9637
  350MOL0     H47210   9.521   5.992  10.890 -0.3429 -3.1829  1.0260
  350MOL0     H47211   9.673   6.008  11.045  0.6642  0.2984  0.0154
  350MOL0     H47212  10.259   5.826  11.026  1.8766 -0.5778 -1.7226
  350MOL0     H47213  10.456   5.864  11.138 -0.0098  0.6789 -3.6909
  350MOL0     H47214  10.612   5.903  11.284 -4.1212  0.5432 -1.3660
  350MOL0     H47215  10.648   5.986  11.139 -0.2864  0.2256 -0.4763
  350MOL0     H47216  10.779   6.138  11.225  2.8284 -4.3306 -3.3036
  350MOL0     H47217  10.718   6.112  11.403  0.5548 -2.4885  2.0322
  350MOL0     H47218  10.822   5.902  11.413  1.1110 -1.6578 -0.5087
  350MOL0     H47219  10.877   5.911  11.247  0.7765 -1.1742  0.3233
  350MOL0     H47220  10.949   6.145  11.429 -1.0180  0.9610 -0.2218
  350MOL0     H47221  11.035   6.075  11.292 -2.7238 -3.9781 -1.8342
  350MOL0     H47222  11.137   5.896  11.417 -2.6196  0.3862 -2.6640
  350MOL0     H47223  11.025   5.900  11.541 -0.3929 -2.8514 -2.7901
  350MOL0     H47224  11.223   6.126  11.471  0.7161 -0.6929 -1.1829
  350MOL0     H47225  11.101   6.141  11.602  0.2616 -0.4133  0.2013
  350MOL0     H47226  11.337   5.960  11.584 -1.1077  1.0598 -1.1189
  350MOL0     H47227  11.205   5.927  11.701 -0.0021  0.8113  0.4297
  350MOL0     H47228  11.345   6.193  11.682 -1.7773  0.5607 -1.4958
  350MOL0     H47229  11.253   6.137  11.824  1.3005 -2.4536  2.1861
  350MOL0     H47230  10.323   6.253  11.277 -0.8525 -1.0078  0.0353
  350MOL0     H47231  10.129   6.235  11.107 -0.1545  0.2993  1.1882
  350MOL0     H47232   9.989   5.928  10.757  0.2733 -0.9110  1.4437
  350MOL0     H47233   9.814   5.888  10.587 -0.3682 -1.1753  0.2103
  350MOL0     H47234   7.805   5.880  10.526 -0.4149 -1.2122  3.1259
  350MOL0     H47235   7.606   5.780  10.658 -2.6275 -2.3753 -0.0319
  350MOL0     H47236   7.430   5.408  10.921  0.9291 -1.4741 -1.3504
  350MOL0     H47237   7.257   5.280  11.008 -0.7931  0.1113  1.0377
  350MOL0     H47238   6.986   5.226  11.091 -4.4179 -1.2132  1.1016
  350MOL0     H47239   7.102   5.133  11.012  1.0119  2.9299 -0.6512
  350MOL0     H47240   6.916   5.009  10.891 -1.0062  1.2863  0.0832
  350MOL0     H47241   6.795   5.121  10.961  0.5226  1.3098  0.9922
  350MOL0     H47242   6.771   4.985  11.119 -0.4001  0.9006 -0.4008
  350MOL0     H47243   6.923   5.025  11.189 -1.4750 -0.4152  0.9316
  350MOL0     H47244   6.858   4.781  11.164 -1.3711  1.2034  0.4507
  350MOL0     H47245   6.835   4.803  10.995  0.6628  2.5598 -1.3367
  350MOL0     H47246   7.262   4.819  10.983  0.7163  0.3174 -0.3321
  350MOL0     H47247   6.983   5.422  10.697  0.8732  1.3358 -2.0875
  350MOL0     H47248   7.195   5.686  10.596 -1.1705 -0.5646  0.8723
  350MOL0     H47249   7.216   5.540  10.498  2.9273  1.7757  0.3380
  350MOL0     H47250   7.051   5.596  10.564 -0.0454 -0.2098 -1.0340
  351MOL0     O47251   0.287  10.831   4.265 -0.2442  0.4939 -0.1387
  351MOL0     C47252   0.318  10.730   4.198  0.5602 -0.2282 -0.1030
  351MOL0     O47253   0.438  10.722   4.137  0.2292 -0.1606  0.3581
  351MOL0     C47254   0.519  10.831   4.149 -1.3660 -0.3126  0.1076
  351MOL0     C47255   0.618  10.847   4.245  0.4253 -0.6189 -0.5307
  351MOL0     C47256   0.709  10.957   4.252 -0.6348  0.0036  0.2512
  351MOL0     C47257   0.702  11.062   4.162 -0.1976  0.2255 -0.2076
  351MOL0     O47258   0.800  11.160   4.167  0.0315  0.3494 -0.8362
  351MOL0     C47259   0.871  11.187   4.048 -0.4501  0.2004 -0.5251
  351MOL0     C47260   1.016  11.205   4.078  0.4052 -0.1379  0.0860
  351MOL0     C47261   1.074  11.087   4.153  0.8065  0.8933  0.0417
  351MOL0     C47262   1.225  11.066   4.152  0.5411  0.7366  0.3643
  351MOL0     C47263   1.301  11.175   4.225  0.5935  0.2359  0.0028
  351MOL0     C47264   1.454  11.143   4.239 -0.0984  0.2950 -0.1254
  351MOL0     C47265   1.532  11.263   4.306 -0.0745  0.5882  0.4526
  351MOL0     C47266   1.681  11.243   4.326 -0.5887 -0.8484 -0.4431
  351MOL0     N47267   1.743  11.366   4.381  0.1917  0.1683  0.2234
  351MOL0     C47268   1.837  11.440   4.319 -0.6274 -0.4731 -0.3947
  351MOL0     C47269   1.888  11.526   4.418  0.4822  0.1883 -0.3049
  351MOL0     C47270   1.979  11.642   4.395  0.0418 -0.0633  0.4446
  351MOL0     C47271   1.901  11.774   4.381  0.2692 -0.2721  0.6115
  351MOL0     C47272   1.785  11.800   4.480 -0.0722  0.4170 -0.2847
  351MOL0     C47273   1.707  11.922   4.431  0.9803 -0.0110 -0.2451
  351MOL0     O47274   1.656  11.911   4.296 -0.2643 -1.1565  0.2760
  351MOL0     C47275   1.546  11.835   4.282 -0.9047 -0.0567  0.5602
  351MOL0     C47276   1.545  11.705   4.228  0.0259 -0.5013  1.1664
  351MOL0     C47277   1.427  11.631   4.210  0.6409  0.2153 -0.4245
  351MOL0     C47278   1.304  11.693   4.242  0.7326  0.7980  0.4429
  351MOL0     C47279   1.176  11.619   4.226 -0.4091 -0.6919 -0.7580
  351MOL0     O47280   1.059  11.689   4.249 -0.7163 -0.0749 -0.6694
  351MOL0     C47281   0.940  11.635   4.219  0.0791 -0.8516 -0.4359
  351MOL0     C47282   0.857  11.604   4.329  0.3575  0.2290 -0.4455
  351MOL0     C47283   0.733  11.533   4.311 -0.2023 -0.8076 -0.0138
  351MOL0     C47284   0.680  11.511   4.182  0.2422  0.5300 -0.2657
  351MOL0     O47285   0.547  11.464   4.176  1.1384  0.1682  0.2520
  351MOL0     C47286   0.474  11.493   4.055  0.1331  0.0266 -0.4189
  351MOL0     C47287   0.339  11.443   4.087 -0.1042  0.7731  0.4751
  351MOL0     C47288   0.317  11.289   4.113  1.2650 -0.1405  0.3299
  351MOL0     C47289   0.166  11.263   4.134 -0.6003  0.3538  0.1056
  351MOL0     C47290   0.115  11.130   4.074 -0.3878  0.1247 -0.1393
  351MOL0     C47291  -0.030  11.136   4.047 -0.9115  0.0266 -0.0254
  351MOL0     C47292  -0.122  11.088   4.159  0.6886 -0.3871 -0.0338
  351MOL0     C47293  -0.245  11.175   4.185 -0.2696 -0.3595 -0.7776
  351MOL0    Cl47294  -0.187  11.331   4.257 -0.2811 -0.0752  0.3401
  351MOL0     C47295   0.768  11.534   4.073 -0.5261  0.7967  0.0361
  351MOL0     C47296   0.893  11.602   4.089 -0.1339 -1.0034  0.6126
  351MOL0     O47297   1.185  11.503   4.189  0.0111 -0.3288  0.0860
  351MOL0     C47298   1.303  11.819   4.302 -0.0085  0.1865  0.8733
  351MOL0     C47299   1.423  11.888   4.325  0.8969 -0.0965 -1.2582
  351MOL0     N47300   1.832  11.494   4.539 -0.4872  0.0539  0.0583
  351MOL0     N47301   1.745  11.408   4.516  0.1973  0.3780  0.2157
  351MOL0     C47302   0.600  11.044   4.063 -0.4969 -0.2174 -0.4018
  351MOL0     C47303   0.513  10.935   4.062 -0.0383 -0.0797  0.7499
  351MOL0     C47304   0.223  10.618   4.189 -0.8853  0.0940 -0.3575
  351MOL0     C47305   0.276  10.485   4.187 -1.2140  0.7886 -0.5503
  351MOL0     C47306   0.181  10.383   4.209 -0.4678 -0.0726 -0.1781
  351MOL0     C47307   0.046  10.401   4.194 -0.4115 -0.0781 -0.7220
  351MOL0     O47308  -0.030  10.286   4.217 -0.5126  0.0855 -0.7625
  351MOL0     C47309  -0.140  10.267   4.128 -1.2286  0.1464 -0.3198
  351MOL0     C47310  -0.188  10.128   4.136 -0.3832 -0.6245  0.3181
  351MOL0     C47311  -0.217  10.078   4.275 -0.8278  0.7941 -0.2500
  351MOL0     C47312  -0.215   9.928   4.288  0.1967  0.1837  0.5325
  351MOL0     C47313  -0.312   9.853   4.217  0.0758  0.1683 -0.1229
  351MOL0     C47314  -0.370   9.773   4.147  0.0839  0.7534 -0.3914
  351MOL0     C47315  -0.004  10.529   4.195  0.2637 -0.6947  0.4860
  351MOL0     C47316   0.081  10.640   4.186 -0.4581  0.2178  0.7002
  351MOL0     C47317   0.023  10.776   4.172  0.2503 -0.5053 -0.1576
  351MOL0     H47318   0.625  10.775   4.327  0.4250 -0.0497 -0.0252
  351MOL0     H47319   0.776  10.974   4.335 -1.4646  3.5809  0.3630
  351MOL0     H47320   0.851  11.106   3.978  3.3375  0.7652 -2.5338
  351MOL0     H47321   0.831  11.276   3.996  0.3457  0.4236 -0.7659
  351MOL0     H47322   1.026  11.291   4.145 -2.2513  2.6289 -2.7576
  351MOL0     H47323   1.074  11.225   3.987  1.5873 -1.6756  0.4492
  351MOL0     H47324   1.038  10.992   4.110  0.0999  0.8517  0.7100
  351MOL0     H47325   1.038  11.098   4.256  4.2900  1.3004  1.3356
  351MOL0     H47326   1.254  10.980   4.212  2.2502  1.3724  0.5032
  351MOL0     H47327   1.262  11.048   4.051 -0.1380 -1.9680  0.5198
  351MOL0     H47328   1.301  11.269   4.170 -1.1988  0.2241 -0.0756
  351MOL0     H47329   1.253  11.179   4.323 -0.3954  1.0789 -0.4966
  351MOL0     H47330   1.462  11.056   4.305  1.4915  2.1939  2.3702
  351MOL0     H47331   1.504  11.101   4.151 -0.1883 -3.6470  1.4940
  351MOL0     H47332   1.490  11.297   4.402  0.5908 -0.1085  1.0091
  351MOL0     H47333   1.518  11.341   4.232 -0.5307 -0.6552 -0.8155
  351MOL0     H47334   1.702  11.173   4.407  1.0741  1.3899  1.2174
  351MOL0     H47335   1.738  11.190   4.249 -0.2238 -5.1104  2.4100
  351MOL0     H47336   1.861  11.433   4.213  0.4765  0.5671 -0.2302
  351MOL0     H47337   2.053  11.647   4.475 -1.1373  1.2518  1.4982
  351MOL0     H47338   2.026  11.621   4.298 -1.4887 -0.3966 -0.2681
  351MOL0     H47339   1.968  11.855   4.411 -1.0962  0.2108  2.5610
  351MOL0     H47340   1.866  11.787   4.278 -0.5038 -0.1384  0.8865
  351MOL0     H47341   1.827  11.808   4.580 -0.9004 -0.0686  0.1152
  351MOL0     H47342   1.712  11.719   4.485 -0.6404  0.6945 -2.6109
  351MOL0     H47343   1.763  12.014   4.453 -1.3420  0.7788  3.3697
  351MOL0     H47344   1.614  11.923   4.489  2.1774  1.0624  1.8028
  351MOL0     H47345   1.646  11.673   4.204  0.1757  0.9075 -0.2396
  351MOL0     H47346   1.449  11.530   4.179 -1.8104 -1.1434  1.7706
  351MOL0     H47347   0.902  11.625   4.425  2.1522 -2.1215 -0.6714
  351MOL0     H47348   0.670  11.515   4.398 -2.7309  5.2479 -0.0990
  351MOL0     H47349   0.471  11.602   4.059  1.3057  0.0649 -0.2361
  351MOL0     H47350   0.521  11.471   3.958  0.1230  1.4467 -0.7597
  351MOL0     H47351   0.298  11.499   4.171  1.4321 -0.6985  2.2911
  351MOL0     H47352   0.274  11.462   4.001 -0.4643  2.8315  1.1436
  351MOL0     H47353   0.350  11.238   4.023 -1.8715 -1.9884  0.0833
  351MOL0     H47354   0.373  11.247   4.197 -0.9526 -1.9242  1.0258
  351MOL0     H47355   0.120  11.349   4.084 -0.5657  0.9986  1.1758
  351MOL0     H47356   0.129  11.284   4.234  1.2610  1.8480  0.5188
  351MOL0     H47357   0.132  11.042   4.136 -1.3003  0.2398  0.2885
  351MOL0     H47358   0.167  11.109   3.981  2.5392  0.9974  1.1868
  351MOL0     H47359  -0.066  11.230   4.005 -1.6134 -0.4054 -0.4217
  351MOL0     H47360  -0.049  11.076   3.957 -1.1649  1.0115 -0.6388
  351MOL0     H47361  -0.076  11.078   4.258 -2.0544 -0.3474  1.3468
  351MOL0     H47362  -0.145  10.989   4.119  1.1994 -0.6927  0.4084
  351MOL0     H47363  -0.310  11.186   4.098 -1.0212 -2.2944 -0.5212
  351MOL0     H47364  -0.301  11.121   4.262 -0.9204  1.7572  0.3008
  351MOL0     H47365   0.732  11.514   3.972 -2.0334 -2.3965  1.1002
  351MOL0     H47366   0.951  11.632   4.002 -0.4097 -3.7807 -0.6139
  351MOL0     H47367   1.216  11.856   4.356 -1.6308 -0.8918 -0.8615
  351MOL0     H47368   1.428  11.979   4.384  0.3056 -1.5327  1.1908
  351MOL0     H47369   0.594  11.122   3.989  2.0909  3.0485  2.4974
  351MOL0     H47370   0.433  10.943   3.988  0.5527  0.6060  0.1659
  351MOL0     H47371   0.383  10.467   4.189 -0.7932  3.1070  0.0458
  351MOL0     H47372   0.221  10.282   4.217  2.4364  0.8648 -1.4422
  351MOL0     H47373  -0.110  10.275   4.024  1.2080 -2.6581  0.0399
  351MOL0     H47374  -0.221  10.336   4.155 -1.6382 -0.2529 -0.5137
  351MOL0     H47375  -0.108  10.066   4.095  0.5053  1.5610 -1.4868
  351MOL0     H47376  -0.272  10.117   4.067 -1.0626 -0.9004  1.1731
  351MOL0     H47377  -0.313  10.118   4.308 -1.2335 -1.5715  1.7270
  351MOL0     H47378  -0.141  10.108   4.347  1.4536 -1.3716 -1.5882
  351MOL0     H47379  -0.119   9.885   4.260  1.5830  2.5604  1.4128
  351MOL0     H47380  -0.222   9.902   4.394  0.3556 -3.7556 -0.2615
  351MOL0     H47381  -0.423   9.693   4.101 -0.2591 -0.0126  1.2591
  351MOL0     H47382  -0.110  10.554   4.202  0.2530  0.0020 -1.4208
  351MOL0     H47383   0.067  10.839   4.094 -2.6089  0.5638 -1.0521
  351MOL0     H47384  -0.082  10.757   4.146 -0.1474  0.1932  0.8376
  351MOL0     H47385   0.037  10.830   4.266 -1.0732 -1.9623  0.9306
  352MOL0     O47386   4.533   1.563   0.097  0.3190 -0.4343 -0.0542
  352MOL0     C47387   4.593   1.566   0.209 -0.9760 -0.3778 -0.5457
  352MOL0     O47388   4.694   1.654   0.236 -0.4026  0.0206  0.5815
  352MOL0     C47389   4.757   1.718   0.138  1.2328 -0.2566  1.3330
  352MOL0     C47390   4.894   1.742   0.149 -0.2795 -0.4095 -0.7862
  352MOL0     C47391   4.955   1.841   0.064  0.0664 -0.0689 -0.2562
  352MOL0     C47392   4.884   1.919  -0.027 -0.8770  0.3835  0.2095
  352MOL0     O47393   4.954   2.020  -0.090 -0.1169 -0.2496  0.0573
  352MOL0     C47394   4.878   2.102  -0.178 -0.7165 -0.1494  0.3820
  352MOL0     C47395   4.986   2.216  -0.215  0.8682  0.5899  0.2596
  352MOL0     C47396   5.117   2.156  -0.282 -0.4837 -0.4318 -0.5448
  352MOL0     C47397   5.147   2.248  -0.409  0.5055 -0.2100  0.9678
  352MOL0     C47398   5.273   2.206  -0.476 -0.2383  0.3481 -0.4311
  352MOL0     C47399   5.267   2.061  -0.532 -0.6035  0.2467  0.2821
  352MOL0     C47400   5.242   2.063  -0.686  0.6772  0.8890 -0.3835
  352MOL0     C47401   5.109   2.114  -0.739  0.1601 -0.3927  0.0127
  352MOL0     N47402   5.119   2.105  -0.881  0.8072  0.4580  0.3053
  352MOL0     C47403   5.049   2.011  -0.955 -0.1535 -0.6748  0.2323
  352MOL0     C47404   5.101   2.018  -1.080  0.7973 -0.0910 -0.4320
  352MOL0     C47405   5.059   1.924  -1.190 -0.4984 -0.2315 -0.1054
  352MOL0     C47406   5.087   1.781  -1.175 -0.3460 -0.7027  0.1786
  352MOL0     C47407   5.240   1.759  -1.177  0.1887  0.2053 -0.4032
  352MOL0     C47408   5.286   1.608  -1.182  0.1116  0.5947  0.4289
  352MOL0     O47409   5.227   1.527  -1.084  0.2124  0.2664 -0.1737
  352MOL0     C47410   5.285   1.534  -0.957  1.0956 -0.8879  0.8636
  352MOL0     C47411   5.228   1.615  -0.855  0.2434  0.2779  0.0826
  352MOL0     C47412   5.293   1.626  -0.725  0.0513  0.3285 -0.1769
  352MOL0     C47413   5.416   1.569  -0.703 -0.4599 -0.0154 -0.9967
  352MOL0     C47414   5.498   1.591  -0.583  0.5309  0.4441 -0.3690
  352MOL0     O47415   5.626   1.544  -0.577 -0.3119  0.5953 -0.3146
  352MOL0     C47416   5.695   1.574  -0.463  0.2857 -0.0992 -0.5661
  352MOL0     C47417   5.659   1.513  -0.342  0.5586 -0.5916  1.0442
  352MOL0     C47418   5.731   1.544  -0.226 -0.0008  0.0388 -0.7078
  352MOL0     C47419   5.838   1.632  -0.223 -0.6751 -0.5103 -0.3120
  352MOL0     O47420   5.920   1.647  -0.106  0.3455 -0.4242 -0.6422
  352MOL0     C47421   5.870   1.752  -0.012 -0.1868 -0.4571  0.8607
  352MOL0     C47422   5.931   1.728   0.121 -0.2237 -1.2921 -0.8721
  352MOL0     C47423   6.071   1.778   0.126 -0.4576 -0.4675  0.7067
  352MOL0     C47424   6.121   1.751   0.275  2.0036 -0.0272 -0.0628
  352MOL0     C47425   6.247   1.811   0.313  0.3295  0.4315 -0.2848
  352MOL0     C47426   6.362   1.763   0.216  0.4058 -1.1499  0.1794
  352MOL0     C47427   6.494   1.810   0.278 -0.2851 -0.3275  0.9129
  352MOL0     C47428   6.608   1.758   0.189  0.7282  0.1339  0.5183
  352MOL0    Cl47429   6.610   1.836   0.017 -0.2898  0.2620  0.0573
  352MOL0     C47430   5.862   1.703  -0.341 -0.5614  0.5871  0.9014
  352MOL0     C47431   5.800   1.668  -0.458  0.4270 -0.3769 -0.5543
  352MOL0     O47432   5.431   1.644  -0.493  0.1470  0.9473 -0.3789
  352MOL0     C47433   5.477   1.496  -0.804  0.2760  0.9055 -0.1776
  352MOL0     C47434   5.412   1.484  -0.929  1.0453 -0.2161 -0.6098
  352MOL0     N47435   5.206   2.115  -1.081  0.3002  0.3918  0.1054
  352MOL0     N47436   5.208   2.162  -0.960 -0.4988 -0.1599  0.1219
  352MOL0     C47437   4.746   1.893  -0.034 -1.0127  1.0001  0.2436
  352MOL0     C47438   4.688   1.794   0.042  1.0535  0.4362  0.2154
  352MOL0     C47439   4.566   1.456   0.304  0.1153 -0.2738  0.7796
  352MOL0     C47440   4.676   1.404   0.377 -0.4308 -0.8907  0.6998
  352MOL0     C47441   4.662   1.306   0.467 -0.2444 -0.1689  0.5759
  352MOL0     C47442   4.545   1.244   0.485  0.3260  0.4092 -0.1098
  352MOL0     O47443   4.534   1.141   0.567 -0.5762 -0.6613  0.1623
  352MOL0     C47444   4.472   1.163   0.698 -0.7137  0.4555 -0.4065
  352MOL0     C47445   4.319   1.121   0.696 -0.8198  0.1945 -0.8236
  352MOL0     C47446   4.290   0.984   0.636  0.1848 -1.1564 -0.2326
  352MOL0     C47447   4.139   0.952   0.645 -0.9072 -0.4988  0.5106
  352MOL0     C47448   4.062   1.045   0.567  1.0915 -0.4138  0.0153
  352MOL0     C47449   3.997   1.125   0.508 -0.0946 -0.5841  1.0642
  352MOL0     C47450   4.437   1.273   0.410 -0.0875  0.6363  0.0035
  352MOL0     C47451   4.449   1.380   0.322  0.1892 -0.7023  0.1703
  352MOL0     C47452   4.328   1.409   0.249 -0.1440  0.7784 -0.1470
  352MOL0     H47453   4.962   1.707   0.226  0.7490  0.5605 -1.2216
  352MOL0     H47454   5.061   1.859   0.076  0.4530 -0.9890 -1.9771
  352MOL0     H47455   4.853   2.048  -0.271  1.6924  0.9662 -1.0070
  352MOL0     H47456   4.787   2.147  -0.137 -2.6153 -3.0085 -0.3737
  352MOL0     H47457   5.024   2.256  -0.121  1.7110  0.3357  0.0418
  352MOL0     H47458   4.944   2.298  -0.273  0.2828 -0.5386 -0.9815
  352MOL0     H47459   5.108   2.048  -0.300 -3.3937 -0.5404  1.0290
  352MOL0     H47460   5.194   2.172  -0.206 -1.1713  1.8965 -0.2780
  352MOL0     H47461   5.064   2.229  -0.478 -0.0685  1.4944  1.1381
  352MOL0     H47462   5.152   2.355  -0.388 -0.5229  0.1919 -0.6766
  352MOL0     H47463   5.302   2.277  -0.554 -1.1748 -1.3979 -2.4608
  352MOL0     H47464   5.353   2.210  -0.401 -1.8168  0.2868  1.3223
  352MOL0     H47465   5.362   2.009  -0.514 -0.2583  1.7009  3.2230
  352MOL0     H47466   5.193   1.993  -0.490 -0.0874 -1.8633 -1.9515
  352MOL0     H47467   5.255   1.958  -0.716 -1.6543  0.7656 -1.1080
  352MOL0     H47468   5.320   2.122  -0.734 -0.1558  2.6709  0.3752
  352MOL0     H47469   5.016   2.079  -0.693 -0.4341  2.6303  1.3476
  352MOL0     H47470   5.098   2.221  -0.718 -2.7379 -1.0000  2.2648
  352MOL0     H47471   4.972   1.943  -0.921 -2.9761  0.1616 -3.7661
  352MOL0     H47472   4.951   1.939  -1.192 -0.7235 -1.8464 -1.4562
  352MOL0     H47473   5.107   1.955  -1.283  0.2707  3.7903  1.4207
  352MOL0     H47474   5.052   1.742  -1.079  1.0282 -2.2572  0.0998
  352MOL0     H47475   5.037   1.728  -1.257 -0.3976  0.4485 -0.5559
  352MOL0     H47476   5.285   1.799  -1.086  0.2132 -3.5503  1.4558
  352MOL0     H47477   5.292   1.813  -1.257  1.8610  0.6109  0.9142
  352MOL0     H47478   5.394   1.598  -1.173 -0.2139 -1.9668  2.4018
  352MOL0     H47479   5.256   1.578  -1.282  1.2780  0.8381 -0.0119
  352MOL0     H47480   5.138   1.675  -0.868  1.3418  2.7262  2.5761
  352MOL0     H47481   5.250   1.695  -0.652 -1.2027  1.3162 -1.7751
  352MOL0     H47482   5.590   1.430  -0.343 -2.2693  1.6225  0.9236
  352MOL0     H47483   5.706   1.500  -0.130 -2.2332 -0.2714 -1.3589
  352MOL0     H47484   5.906   1.849  -0.048 -2.3252  0.3052  0.6467
  352MOL0     H47485   5.761   1.749  -0.006 -0.2301 -0.9911  0.0194
  352MOL0     H47486   5.871   1.779   0.197  0.7857  0.1110 -0.9864
  352MOL0     H47487   5.929   1.622   0.148  1.4137 -0.7626  1.5350
  352MOL0     H47488   6.124   1.725   0.046 -0.4051 -1.1733  1.2010
  352MOL0     H47489   6.072   1.884   0.103 -1.3909 -0.6552 -0.3088
  352MOL0     H47490   6.113   1.643   0.291 -1.8135 -0.2282 -2.2652
  352MOL0     H47491   6.046   1.789   0.345  1.1619 -1.6314 -0.0507
  352MOL0     H47492   6.274   1.781   0.414  2.3062 -1.8793 -1.4126
  352MOL0     H47493   6.237   1.920   0.315 -5.2246  0.2084  0.4316
  352MOL0     H47494   6.366   1.653   0.208 -2.9803 -1.3764 -0.0162
  352MOL0     H47495   6.360   1.801   0.114  3.9822  0.6349  0.6346
  352MOL0     H47496   6.500   1.767   0.379  1.1096  0.3118  1.1203
  352MOL0     H47497   6.493   1.920   0.281 -0.0572 -0.3470  2.1947
  352MOL0     H47498   6.706   1.785   0.231  1.3460  2.8565 -2.3269
  352MOL0     H47499   6.609   1.649   0.188  0.4655  0.0859  2.4469
  352MOL0     H47500   5.952   1.764  -0.334  2.1435 -3.0777  1.7168
  352MOL0     H47501   5.827   1.709  -0.554  2.2746 -1.6274 -0.5998
  352MOL0     H47502   5.576   1.456  -0.786  0.2855  1.2197  0.5076
  352MOL0     H47503   5.466   1.432  -1.008  2.2301  0.8561 -0.5502
  352MOL0     H47504   4.682   1.940  -0.109 -2.6221  2.8169  2.6038
  352MOL0     H47505   4.581   1.784   0.035  1.1793  0.0594 -1.6006
  352MOL0     H47506   4.768   1.455   0.350 -0.4545 -0.6493  1.0691
  352MOL0     H47507   4.743   1.267   0.528 -1.0569 -0.9094  1.2187
  352MOL0     H47508   4.482   1.264   0.737  0.4546  0.5262 -0.8623
  352MOL0     H47509   4.543   1.116   0.767  1.4526  1.6863 -1.6828
  352MOL0     H47510   4.278   1.193   0.624  2.8409  0.7706 -2.5777
  352MOL0     H47511   4.281   1.146   0.796  1.9159 -0.3009  0.4155
  352MOL0     H47512   4.345   0.906   0.690  1.2784  0.4689  1.1088
  352MOL0     H47513   4.315   0.979   0.530  1.6963 -2.5520  0.1516
  352MOL0     H47514   4.121   0.850   0.611 -0.8494  0.0712 -1.3267
  352MOL0     H47515   4.102   0.960   0.748  1.0564 -0.4001  1.2666
  352MOL0     H47516   3.933   1.197   0.460 -1.4610 -1.0609  2.1081
  352MOL0     H47517   4.356   1.200   0.409 -1.2671  1.8905  0.4482
  352MOL0     H47518   4.261   1.342   0.303  1.7996 -3.3101 -2.4104
  352MOL0     H47519   4.299   1.515   0.255  0.0916  0.7889  1.0558
  352MOL0     H47520   4.335   1.382   0.144  0.8211  0.8424 -0.1036
  353MOL0     O47521   1.650   7.830   1.404 -0.2785  0.1728  0.5665
  353MOL0     C47522   1.611   7.926   1.471  0.1985  0.2985 -0.7207
  353MOL0     O47523   1.666   7.964   1.588 -0.1479  0.7374 -0.3826
  353MOL0     C47524   1.782   7.887   1.620 -0.4610  0.0398  0.3919
  353MOL0     C47525   1.909   7.909   1.561 -0.2802  0.3973 -0.1132
  353MOL0     C47526   2.026   7.830   1.592  0.6422 -0.1435 -0.3818
  353MOL0     C47527   2.016   7.733   1.690  0.2287  0.3336  0.0965
  353MOL0     O47528   2.114   7.651   1.736 -0.3925  0.7925  0.7035
  353MOL0     C47529   2.250   7.660   1.680  0.3600 -0.3318  0.3045
  353MOL0     C47530   2.339   7.554   1.750  0.3837 -0.2148 -0.2178
  353MOL0     C47531   2.478   7.556   1.690 -0.5850  0.9895  0.4304
  353MOL0     C47532   2.567   7.459   1.774 -0.0840  0.7525  0.2938
  353MOL0     C47533   2.711   7.506   1.768 -0.3369 -0.9495  0.1696
  353MOL0     C47534   2.757   7.621   1.867  0.5671 -0.5692  0.0954
  353MOL0     C47535   2.905   7.633   1.841  0.3476  0.5541 -0.2033
  353MOL0     C47536   2.962   7.741   1.926 -0.0066 -1.4859  0.0920
  353MOL0     N47537   3.109   7.724   1.939  0.4198 -0.4693  0.3275
  353MOL0     C47538   3.195   7.815   1.883 -0.1305  0.0832  0.1679
  353MOL0     C47539   3.316   7.782   1.932  0.1904 -0.5050  0.0310
  353MOL0     C47540   3.451   7.832   1.914 -0.2573  0.7222  0.6670
  353MOL0     C47541   3.526   7.768   1.798 -0.0270 -0.1645 -0.6651
  353MOL0     C47542   3.676   7.780   1.809 -0.2913 -0.2047 -0.4192
  353MOL0     C47543   3.739   7.726   1.684  0.6842  0.2339  0.0667
  353MOL0     O47544   3.884   7.751   1.688  0.2502 -0.8960 -0.4942
  353MOL0     C47545   3.973   7.662   1.743 -0.5460 -0.1217 -0.0937
  353MOL0     C47546   3.939   7.563   1.833 -0.7244  0.2912 -0.2974
  353MOL0     C47547   4.037   7.490   1.904 -0.3848  0.5517  0.8562
  353MOL0     C47548   4.173   7.528   1.888  0.5046  0.2039  0.4927
  353MOL0     C47549   4.282   7.466   1.956 -0.1938  0.0489  0.1459
  353MOL0     O47550   4.388   7.548   1.985  0.1483  0.5661  0.3986
  353MOL0     C47551   4.472   7.501   2.077 -0.6206  0.1349 -1.5295
  353MOL0     C47552   4.438   7.491   2.215  0.2869  0.4069  0.4327
  353MOL0     C47553   4.533   7.437   2.298 -0.0571  0.4705  0.2993
  353MOL0     C47554   4.663   7.398   2.251 -0.2131 -0.4658 -0.1131
  353MOL0     O47555   4.745   7.335   2.338  0.6309  0.2239 -0.6979
  353MOL0     C47556   4.877   7.300   2.299  0.4370 -0.0577  0.0839
  353MOL0     C47557   4.935   7.222   2.418 -0.0820  0.0218 -0.0127
  353MOL0     C47558   5.070   7.157   2.376 -0.3528 -0.6024 -0.4366
  353MOL0     C47559   5.177   7.259   2.346 -0.3962  0.0561  0.0628
  353MOL0     C47560   5.294   7.180   2.273 -0.3052  0.7171  0.0902
  353MOL0     C47561   5.407   7.279   2.231 -0.2782  0.3278 -0.1159
  353MOL0     C47562   5.386   7.329   2.094 -0.0640  0.0268  0.4001
  353MOL0     C47563   5.518   7.407   2.057  0.2562  0.0562 -0.3358
  353MOL0    Cl47564   5.503   7.494   1.902 -0.0818  0.3517 -0.1092
  353MOL0     C47565   4.698   7.424   2.118 -0.3095 -0.4502  0.3001
  353MOL0     C47566   4.593   7.464   2.033 -0.4077 -0.3789  0.0532
  353MOL0     O47567   4.262   7.348   1.984  0.2228  0.4201  1.0663
  353MOL0     C47568   4.202   7.619   1.785 -0.0444  0.8132  0.3822
  353MOL0     C47569   4.105   7.675   1.702 -0.5415 -0.7982 -0.0919
  353MOL0     N47570   3.300   7.668   2.008  1.0970  0.0984  0.4721
  353MOL0     N47571   3.173   7.637   2.022  0.3603  0.2964  0.3424
  353MOL0     C47572   1.892   7.728   1.759  0.1752  0.0643  0.7712
  353MOL0     C47573   1.780   7.796   1.723  0.2175 -0.9119  0.5780
  353MOL0     C47574   1.478   7.977   1.447 -0.1431 -0.5394 -0.0145
  353MOL0     C47575   1.400   8.023   1.557  0.1916  0.2625 -0.6586
  353MOL0     C47576   1.265   8.067   1.540 -0.1748 -1.0058  0.5746
  353MOL0     C47577   1.213   8.073   1.418  0.6777  0.0894  0.1543
  353MOL0     O47578   1.088   8.111   1.389  0.4781  0.0925 -0.5900
  353MOL0     C47579   1.002   8.166   1.491  0.7047  0.2507  0.1057
  353MOL0     C47580   0.859   8.202   1.425 -0.8063  0.7552 -1.0118
  353MOL0     C47581   0.758   8.077   1.414  0.2799  1.0803  0.4965
  353MOL0     C47582   0.623   8.130   1.368 -0.1584 -0.5345 -0.8191
  353MOL0     C47583   0.554   8.209   1.475 -0.8650 -0.4799 -1.0880
  353MOL0     C47584   0.506   8.285   1.559 -0.3250 -0.3644 -0.8684
  353MOL0     C47585   1.295   8.036   1.310  0.6481  0.7143 -0.7782
  353MOL0     C47586   1.425   7.993   1.316  0.1676 -0.5968  0.8283
  353MOL0     C47587   1.507   7.986   1.186  0.6407  0.1827  0.8869
  353MOL0     H47588   1.917   7.989   1.488  1.6594  1.2759  0.9685
  353MOL0     H47589   2.125   7.844   1.548  1.6386 -2.9803  0.7362
  353MOL0     H47590   2.242   7.635   1.574 -2.1271  0.1672  0.3036
  353MOL0     H47591   2.292   7.758   1.703 -0.0234  0.3130 -1.5869
  353MOL0     H47592   2.306   7.454   1.721  3.4071 -1.4651  0.2929
  353MOL0     H47593   2.328   7.562   1.859 -0.7645  2.4722 -0.4580
  353MOL0     H47594   2.522   7.656   1.690  0.7957  0.4057  0.4280
  353MOL0     H47595   2.476   7.522   1.586 -0.7313  3.0988 -0.3028
  353MOL0     H47596   2.536   7.444   1.878  2.1346 -2.5233  0.6214
  353MOL0     H47597   2.570   7.357   1.734 -2.8769  0.9514 -0.6401
  353MOL0     H47598   2.778   7.421   1.783  1.6147  0.3917 -0.4606
  353MOL0     H47599   2.729   7.538   1.665 -1.0138 -0.7843  0.0974
  353MOL0     H47600   2.696   7.711   1.855  0.5301 -0.0510  3.2389
  353MOL0     H47601   2.745   7.595   1.973  5.6472 -0.4745  0.9642
  353MOL0     H47602   2.928   7.652   1.736 -1.3346  0.1872 -0.6750
  353MOL0     H47603   2.950   7.536   1.863  1.6706  0.9971 -0.8847
  353MOL0     H47604   2.932   7.837   1.883  2.6680 -0.1924  0.9225
  353MOL0     H47605   2.917   7.739   2.026 -2.1362 -1.9572 -0.8276
  353MOL0     H47606   3.163   7.895   1.817 -1.2134  0.5489  1.2167
  353MOL0     H47607   3.444   7.938   1.888 -1.8079  1.1548  2.6009
  353MOL0     H47608   3.496   7.817   2.012 -1.0309  1.3518  1.1372
  353MOL0     H47609   3.494   7.664   1.783 -1.9298  0.4272 -0.9080
  353MOL0     H47610   3.495   7.818   1.706  0.3334  1.2750 -0.0305
  353MOL0     H47611   3.709   7.726   1.897 -1.8858 -0.1207  0.2678
  353MOL0     H47612   3.699   7.886   1.821 -3.3631  0.2862  2.2280
  353MOL0     H47613   3.703   7.783   1.597 -0.9513  1.5929  1.5562
  353MOL0     H47614   3.704   7.623   1.673 -1.9189  1.0980 -0.5521
  353MOL0     H47615   3.833   7.549   1.847 -0.6812  0.7198  0.5234
  353MOL0     H47616   4.010   7.416   1.978  0.1664  1.6100  2.1609
  353MOL0     H47617   4.342   7.514   2.258 -0.7720 -1.2752 -0.8966
  353MOL0     H47618   4.515   7.427   2.405  2.0533  4.2933  1.2060
  353MOL0     H47619   4.866   7.227   2.219 -0.8432  0.6945 -0.4677
  353MOL0     H47620   4.937   7.386   2.268  1.2412 -1.6926 -3.3629
  353MOL0     H47621   4.952   7.278   2.510  0.3819 -0.0287 -0.0685
  353MOL0     H47622   4.865   7.143   2.448  0.1574 -0.2524 -0.1742
  353MOL0     H47623   5.093   7.082   2.452  0.2658 -1.9666 -1.9079
  353MOL0     H47624   5.051   7.092   2.290 -1.9197  0.8064 -1.2103
  353MOL0     H47625   5.212   7.306   2.439 -5.1420  0.2447  2.0452
  353MOL0     H47626   5.150   7.337   2.275  2.0690  0.3169 -0.6873
  353MOL0     H47627   5.255   7.153   2.175  0.9854  1.7777 -0.7510
  353MOL0     H47628   5.330   7.096   2.333 -2.1903  0.2561  0.6571
  353MOL0     H47629   5.425   7.360   2.302  0.0458 -0.3953  0.6487
  353MOL0     H47630   5.488   7.206   2.226 -1.8799 -1.5084 -0.4753
  353MOL0     H47631   5.304   7.402   2.093  0.0084  0.1080  0.1628
  353MOL0     H47632   5.370   7.244   2.027 -0.0662 -2.9834  3.9447
  353MOL0     H47633   5.535   7.492   2.124  0.4535 -0.9613  0.9233
  353MOL0     H47634   5.599   7.334   2.056 -1.0521 -1.4597 -1.1987
  353MOL0     H47635   4.792   7.396   2.072 -0.1972 -0.7565  0.7009
  353MOL0     H47636   4.623   7.470   1.929  0.9987 -0.8079  0.4039
  353MOL0     H47637   4.307   7.642   1.765 -0.1494  1.1995  0.2525
  353MOL0     H47638   4.143   7.741   1.625  2.2750 -2.2086 -0.0245
  353MOL0     H47639   1.882   7.659   1.841  0.5767  2.1247  2.6499
  353MOL0     H47640   1.688   7.778   1.778 -0.5749  0.9423 -0.0628
  353MOL0     H47641   1.437   8.015   1.659  0.8848  3.5120 -0.5350
  353MOL0     H47642   1.211   8.097   1.629  1.7787 -1.6476  2.0441
  353MOL0     H47643   1.049   8.249   1.544  2.0079 -1.4777  1.7871
  353MOL0     H47644   0.981   8.088   1.564  0.0303  2.9973  3.0749
  353MOL0     H47645   0.876   8.232   1.321 -0.1412  0.2449 -1.0586
  353MOL0     H47646   0.831   8.296   1.474  1.0651 -0.9522  3.9415
  353MOL0     H47647   0.752   8.018   1.506 -0.9393 -0.6534 -0.6346
  353MOL0     H47648   0.802   8.013   1.337  1.0448  2.5276 -0.3235
  353MOL0     H47649   0.644   8.192   1.281 -0.1228  0.4134 -0.1560
  353MOL0     H47650   0.557   8.047   1.339  2.2956 -3.2235  0.8198
  353MOL0     H47651   0.459   8.350   1.631  2.2735  0.2429  0.3843
  353MOL0     H47652   1.253   8.061   1.212 -3.2796 -0.8441  0.3061
  353MOL0     H47653   1.466   8.053   1.110 -0.0842 -2.6798 -1.4180
  353MOL0     H47654   1.610   8.008   1.214  1.5142  0.7028 -2.3563
  353MOL0     H47655   1.512   7.883   1.150  0.4611  0.9928 -1.6360
  354MOL0     O47656   2.783   6.705   1.093  0.0079  0.0206 -0.0640
  354MOL0     C47657   2.741   6.819   1.085  0.3607  0.2223 -0.2564
  354MOL0     O47658   2.793   6.926   1.148 -0.1125  0.1602  0.1529
  354MOL0     C47659   2.911   6.896   1.213  1.2235 -0.3311 -0.1759
  354MOL0     C47660   3.025   6.901   1.146 -0.1221  0.1061 -0.7868
  354MOL0     C47661   3.153   6.874   1.208  0.8882  0.5958  0.6880
  354MOL0     C47662   3.150   6.843   1.347  0.0167  0.7035  0.6999
  354MOL0     O47663   3.264   6.814   1.418  0.3714  0.4929  0.0634
  354MOL0     C47664   3.387   6.794   1.345  0.2196  0.8152 -0.0365
  354MOL0     C47665   3.491   6.730   1.441 -0.0894 -0.0948 -0.1572
  354MOL0     C47666   3.629   6.724   1.372  0.4252  0.3079  0.4723
  354MOL0     C47667   3.732   6.654   1.460 -0.1790 -0.3927 -0.1195
  354MOL0     C47668   3.863   6.669   1.388  0.4840 -0.9418 -0.8831
  354MOL0     C47669   3.985   6.627   1.470  0.2188 -0.0476 -0.0759
  354MOL0     C47670   4.109   6.701   1.436  0.0674  0.1300 -0.0291
  354MOL0     C47671   4.120   6.837   1.496 -0.5768  0.2129  0.4702
  354MOL0     N47672   4.265   6.869   1.508 -0.5901  0.2621 -0.0819
  354MOL0     C47673   4.344   6.908   1.402 -0.7406  0.7252  0.0528
  354MOL0     C47674   4.466   6.907   1.458  0.0099  0.4001 -0.4669
  354MOL0     C47675   4.590   6.945   1.374 -0.4358 -0.0263 -0.8311
  354MOL0     C47676   4.727   6.970   1.447 -0.5446 -0.2685 -0.2573
  354MOL0     C47677   4.809   6.845   1.455 -0.0551  0.1544 -0.4460
  354MOL0     C47678   4.955   6.874   1.491  0.5783 -0.2233 -0.3138
  354MOL0     O47679   5.032   6.751   1.492 -0.3894  0.2017  0.0339
  354MOL0     C47680   5.166   6.769   1.474 -0.2857 -0.0373 -0.2469
  354MOL0     C47681   5.253   6.657   1.473 -0.4144  0.7293  0.5044
  354MOL0     C47682   5.392   6.668   1.474 -0.8207 -0.2230 -0.2549
  354MOL0     C47683   5.450   6.796   1.473 -0.3575  0.2184 -0.8445
  354MOL0     C47684   5.593   6.812   1.479  0.2864  0.0698 -1.0836
  354MOL0     O47685   5.668   6.695   1.501 -0.3891  0.3182 -0.7498
  354MOL0     C47686   5.803   6.699   1.473 -0.9117  0.0157 -0.4520
  354MOL0     C47687   5.902   6.702   1.565 -1.0051  0.3674 -0.4974
  354MOL0     C47688   6.047   6.691   1.524 -0.3855  0.8932  0.8027
  354MOL0     C47689   6.083   6.708   1.394  0.8248 -0.2279  0.3231
  354MOL0     O47690   6.212   6.707   1.360  0.0636  0.6168  0.0733
  354MOL0     C47691   6.262   6.814   1.274  0.2269  0.1648  0.3787
  354MOL0     C47692   6.369   6.752   1.183 -1.1656 -1.2548  0.6052
  354MOL0     C47693   6.455   6.873   1.120  0.5396  0.0274  0.4313
  354MOL0     C47694   6.379   6.968   1.022  0.3433 -0.1910  0.1326
  354MOL0     C47695   6.476   7.075   0.981 -0.1298 -0.2393 -0.1970
  354MOL0     C47696   6.573   7.024   0.870 -0.0039 -0.5092  0.3873
  354MOL0     C47697   6.668   7.138   0.826  0.3995 -0.1282 -0.3005
  354MOL0     C47698   6.803   7.083   0.779 -0.2709 -0.2939 -0.3677
  354MOL0    Cl47699   6.918   7.214   0.749 -0.8856  0.1279 -0.1078
  354MOL0     C47700   5.975   6.717   1.302  0.2751 -0.3027 -0.0280
  354MOL0     C47701   5.845   6.714   1.342  0.5507  0.3886 -0.4129
  354MOL0     O47702   5.639   6.915   1.434 -0.0923  0.8445 -1.0321
  354MOL0     C47703   5.363   6.910   1.478 -0.7645  0.7009 -0.1725
  354MOL0     C47704   5.226   6.892   1.478 -0.7032 -0.3528 -1.0985
  354MOL0     N47705   4.457   6.859   1.584  0.6680  0.3946 -0.5118
  354MOL0     N47706   4.339   6.849   1.619  0.0471 -0.1289  0.2884
  354MOL0     C47707   3.026   6.842   1.418 -0.9331 -0.2298 -0.5501
  354MOL0     C47708   2.914   6.877   1.352 -0.9694 -0.8461 -0.7378
  354MOL0     C47709   2.651   6.859   0.976  0.0875 -0.1758  0.1743
  354MOL0     C47710   2.689   6.814   0.849 -0.5113 -0.0647 -0.6577
  354MOL0     C47711   2.616   6.850   0.738  0.0140  0.3448  0.2493
  354MOL0     C47712   2.500   6.922   0.750  0.5039 -0.9097 -0.8064
  354MOL0     O47713   2.411   6.951   0.647 -0.0812 -0.2203  0.7173
  354MOL0     C47714   2.462   7.007   0.525  0.4675 -0.9276 -1.3390
  354MOL0     C47715   2.469   7.156   0.549  0.1370  0.7589 -0.0626
  354MOL0     C47716   2.477   7.224   0.407 -0.0137  0.2628  0.2144
  354MOL0     C47717   2.496   7.375   0.390 -0.7817  0.0184 -0.6934
  354MOL0     C47718   2.373   7.448   0.400  0.2874 -1.2282 -0.5039
  354MOL0     C47719   2.286   7.537   0.387 -0.0478  0.0221 -0.4886
  354MOL0     C47720   2.456   6.966   0.882 -0.1313  1.2296  0.2164
  354MOL0     C47721   2.533   6.945   0.994 -0.9698 -0.0550 -0.0196
  354MOL0     C47722   2.479   6.991   1.131 -0.0557  0.7030  0.9030
  354MOL0     H47723   3.017   6.939   1.045 -2.2667  3.2947  0.3951
  354MOL0     H47724   3.243   6.875   1.148 -0.6333 -1.0207 -1.8122
  354MOL0     H47725   3.375   6.723   1.263  1.2667 -1.4515  1.6879
  354MOL0     H47726   3.413   6.896   1.314 -1.7583  1.6304  0.8061
  354MOL0     H47727   3.458   6.635   1.484  0.5139  2.3168  6.9008
  354MOL0     H47728   3.487   6.801   1.525 -2.4673  0.0440 -0.3189
  354MOL0     H47729   3.672   6.818   1.335 -0.9769  0.5271 -0.7064
  354MOL0     H47730   3.614   6.659   1.285 -1.6234  2.0352 -0.5621
  354MOL0     H47731   3.732   6.700   1.559 -1.8769 -1.5792  0.4785
  354MOL0     H47732   3.700   6.549   1.463 -1.6713  0.0571  1.7637
  354MOL0     H47733   3.867   6.625   1.288 -0.6737 -1.6223 -0.6471
  354MOL0     H47734   3.869   6.776   1.369 -2.9818  0.1587  2.8648
  354MOL0     H47735   3.955   6.635   1.575  0.4613  0.9898 -0.0754
  354MOL0     H47736   4.012   6.522   1.462  1.3574 -0.0988  3.2220
  354MOL0     H47737   4.133   6.693   1.330 -1.4866 -2.2010 -0.3070
  354MOL0     H47738   4.186   6.649   1.494 -0.6819 -1.7304 -0.6203
  354MOL0     H47739   4.069   6.911   1.434 -0.2984  0.0699  0.0676
  354MOL0     H47740   4.079   6.839   1.597  1.3016  0.5870  1.2705
  354MOL0     H47741   4.316   6.933   1.300 -1.0612  0.7271  0.1395
  354MOL0     H47742   4.604   6.874   1.292  0.3849 -1.0867  0.1929
  354MOL0     H47743   4.554   7.034   1.321 -1.4342 -1.6505 -3.0524
  354MOL0     H47744   4.781   7.052   1.398 -0.8585 -0.6034 -1.2064
  354MOL0     H47745   4.701   7.000   1.549  1.5104 -0.2869  0.3108
  354MOL0     H47746   4.818   6.802   1.354  0.8172 -1.0230  0.1082
  354MOL0     H47747   4.765   6.773   1.525  1.4997 -1.0549 -0.6520
  354MOL0     H47748   4.963   6.936   1.581 -4.2198 -0.2654  0.3940
  354MOL0     H47749   4.988   6.944   1.414  0.2015  1.0708  0.6469
  354MOL0     H47750   5.209   6.558   1.470 -0.9296  0.7893 -5.3267
  354MOL0     H47751   5.448   6.578   1.455  0.3424  0.1432  1.2295
  354MOL0     H47752   5.883   6.691   1.672  0.0177  0.4999 -0.2924
  354MOL0     H47753   6.121   6.673   1.601 -0.3786 -1.1852  0.3662
  354MOL0     H47754   6.184   6.859   1.213 -0.4254 -0.7270  0.5395
  354MOL0     H47755   6.303   6.892   1.340 -1.7884 -1.0688  3.3274
  354MOL0     H47756   6.438   6.692   1.244 -0.8595 -1.4544  0.0675
  354MOL0     H47757   6.320   6.692   1.106  0.6052 -3.7708  1.3081
  354MOL0     H47758   6.500   6.917   1.209 -0.6438 -2.0833  2.1734
  354MOL0     H47759   6.526   6.818   1.058 -1.4223 -0.5115 -1.4658
  354MOL0     H47760   6.290   7.016   1.066  1.0360  1.8429 -0.5951
  354MOL0     H47761   6.336   6.921   0.933 -1.5466 -1.4128  1.6068
  354MOL0     H47762   6.541   7.108   1.062 -0.0303  0.6284 -0.6217
  354MOL0     H47763   6.415   7.159   0.945  0.5226  0.0156 -0.7323
  354MOL0     H47764   6.635   6.943   0.909 -1.7259 -1.7750  0.5899
  354MOL0     H47765   6.527   6.990   0.777  0.1746 -0.0709  0.1350
  354MOL0     H47766   6.671   7.206   0.912  0.5260 -1.2890  0.6409
  354MOL0     H47767   6.631   7.203   0.746  3.5329  0.7052 -1.2456
  354MOL0     H47768   6.848   7.016   0.853 -2.3222 -0.1427  1.1030
  354MOL0     H47769   6.787   7.029   0.685 -0.6837 -1.2462  0.2262
  354MOL0     H47770   5.988   6.713   1.194  0.9366  1.8936 -0.0756
  354MOL0     H47771   5.767   6.727   1.267 -1.1477 -3.2274  0.4962
  354MOL0     H47772   5.398   7.009   1.505 -0.7109 -0.1121  3.1207
  354MOL0     H47773   5.182   6.990   1.498  1.9882  1.1607 -1.9981
  354MOL0     H47774   3.021   6.805   1.520  1.6906  2.1129  0.5654
  354MOL0     H47775   2.819   6.876   1.405 -2.1478  0.5777 -2.6543
  354MOL0     H47776   2.776   6.749   0.837  0.8154  0.9742  2.4625
  354MOL0     H47777   2.643   6.809   0.641 -3.6743 -2.4895  0.1833
  354MOL0     H47778   2.387   6.977   0.451 -0.9245 -0.7041 -0.0753
  354MOL0     H47779   2.563   6.977   0.497  1.6985  1.1169  0.6096
  354MOL0     H47780   2.565   7.185   0.595  2.2398  1.4043 -4.3459
  354MOL0     H47781   2.382   7.193   0.603 -1.5707  0.5798 -2.5554
  354MOL0     H47782   2.388   7.197   0.350 -0.3926 -0.2314  1.0295
  354MOL0     H47783   2.555   7.164   0.358 -1.1663 -1.3885  0.3145
  354MOL0     H47784   2.576   7.418   0.450  0.9682 -0.3246 -2.6445
  354MOL0     H47785   2.528   7.383   0.285 -2.4847 -2.6878 -1.5261
  354MOL0     H47786   2.220   7.621   0.383  2.5357  2.2956  1.0736
  354MOL0     H47787   2.357   7.011   0.884 -1.7606 -2.0461  2.3093
  354MOL0     H47788   2.407   6.914   1.163 -0.4002  0.3513 -0.6502
  354MOL0     H47789   2.563   6.995   1.201 -0.2564 -0.3176  1.2230
  354MOL0     H47790   2.432   7.090   1.134 -1.1216  0.2836 -0.4836
  355MOL0     O47791   4.009   5.297   5.780 -0.0500 -0.2717  0.8139
  355MOL0     C47792   3.979   5.176   5.794  0.6954  0.2542 -0.6183
  355MOL0     O47793   4.069   5.075   5.807 -0.0172  0.0045  0.2160
  355MOL0     C47794   4.204   5.105   5.807 -0.0103 -1.0745 -0.0364
  355MOL0     C47795   4.288   5.128   5.696  0.0502  0.3035 -0.3478
  355MOL0     C47796   4.410   5.183   5.718  0.5922 -0.0532  0.2779
  355MOL0     C47797   4.460   5.210   5.847 -0.1651  0.5503 -0.7050
  355MOL0     O47798   4.592   5.250   5.865 -0.4876  0.1551 -0.1303
  355MOL0     C47799   4.677   5.248   5.750 -0.2536  0.0561  0.1676
  355MOL0     C47800   4.817   5.279   5.781 -0.3301 -1.3631  0.4169
  355MOL0     C47801   4.901   5.174   5.849 -0.3151  0.6204 -0.6466
  355MOL0     C47802   5.049   5.223   5.859  0.4849 -0.2111  0.3307
  355MOL0     C47803   5.142   5.107   5.886  0.1095  0.7668  0.1962
  355MOL0     C47804   5.282   5.155   5.883  0.7807 -0.7659 -0.3137
  355MOL0     C47805   5.383   5.041   5.860 -0.2215  0.4662  1.1415
  355MOL0     C47806   5.405   4.943   5.973  0.1217  0.1189  0.4552
  355MOL0     N47807   5.477   4.827   5.918  0.2435  0.2315 -0.4681
  355MOL0     C47808   5.495   4.715   5.993  0.4091  0.1580 -0.7674
  355MOL0     C47809   5.593   4.641   5.924 -0.1912  0.1756 -0.6571
  355MOL0     C47810   5.644   4.502   5.964 -0.1484 -0.2926 -0.1630
  355MOL0     C47811   5.793   4.529   6.020  0.1863  0.8358 -0.7243
  355MOL0     C47812   5.869   4.407   6.057 -0.1350 -0.3240 -0.1327
  355MOL0     C47813   6.013   4.437   6.060  0.4040 -0.3368 -0.4643
  355MOL0     O47814   6.082   4.322   6.096  0.1917  0.7250  0.3612
  355MOL0     C47815   6.218   4.326   6.124  0.5351  0.4846  0.5670
  355MOL0     C47816   6.297   4.442   6.149 -0.6449  0.2541 -0.3683
  355MOL0     C47817   6.436   4.436   6.154 -0.3357 -0.1801 -0.9647
  355MOL0     C47818   6.505   4.309   6.145  0.2212  0.3814  0.7409
  355MOL0     C47819   6.650   4.295   6.165  0.4343 -0.6507  1.2352
  355MOL0     O47820   6.710   4.180   6.147  0.1122  0.1342  0.3821
  355MOL0     C47821   6.841   4.167   6.191  0.0842 -0.4435  0.0367
  355MOL0     C47822   6.952   4.160   6.103  0.3792 -0.6642  0.8456
  355MOL0     C47823   7.075   4.139   6.156  0.1525 -0.7812  0.6224
  355MOL0     C47824   7.100   4.117   6.290  0.1593  0.1925 -0.4992
  355MOL0     O47825   7.225   4.080   6.320 -0.0412  0.1828 -0.4481
  355MOL0     C47826   7.260   4.029   6.446 -0.8614  0.5379  0.1251
  355MOL0     C47827   7.411   4.009   6.456 -0.8874  0.0340 -0.3472
  355MOL0     C47828   7.506   4.127   6.436  0.3186 -0.1598 -0.0774
  355MOL0     C47829   7.655   4.095   6.425 -0.4163  0.0432 -0.4311
  355MOL0     C47830   7.754   4.203   6.377  0.5649  0.1062 -0.4638
  355MOL0     C47831   7.742   4.331   6.453 -0.4371  0.3549  0.0850
  355MOL0     C47832   7.793   4.304   6.599  0.7415  0.4971  0.7904
  355MOL0     C47833   7.829   4.424   6.684  0.3894  0.4709  0.0816
  355MOL0    Cl47834   7.812   4.380   6.848  0.5662 -0.0687 -0.2220
  355MOL0     C47835   6.993   4.135   6.380  0.5474 -0.4443  0.3727
  355MOL0     C47836   6.865   4.159   6.332  0.4702  0.9153  0.1710
  355MOL0     O47837   6.703   4.401   6.189 -0.3931  0.7192 -0.1448
  355MOL0     C47838   6.432   4.189   6.132  0.0885 -0.6602 -0.0752
  355MOL0     C47839   6.294   4.202   6.118  1.0515  0.6193 -0.5921
  355MOL0     N47840   5.620   4.710   5.807 -0.5029  0.5916 -0.8806
  355MOL0     N47841   5.546   4.814   5.801 -0.1463  0.0408 -0.4340
  355MOL0     C47842   4.382   5.178   5.955  1.0105  0.1364 -0.4177
  355MOL0     C47843   4.255   5.129   5.939  0.7277 -0.7005 -0.2094
  355MOL0     C47844   3.838   5.139   5.791  0.3122 -0.2121 -0.8300
  355MOL0     C47845   3.743   5.240   5.823 -0.5175 -0.1199  0.3505
  355MOL0     C47846   3.607   5.217   5.829  0.0766  0.2984  0.1925
  355MOL0     C47847   3.553   5.092   5.800  0.0934 -0.0321 -0.2484
  355MOL0     O47848   3.415   5.070   5.808 -0.5913 -0.8077 -0.3137
  355MOL0     C47849   3.328   5.161   5.730  0.2455  0.0855  0.8228
  355MOL0     C47850   3.268   5.081   5.613 -0.8003 -0.2434 -0.2249
  355MOL0     C47851   3.196   4.956   5.651 -0.5116  0.6045 -1.0960
  355MOL0     C47852   3.049   4.984   5.685  0.1967 -0.2815 -0.1421
  355MOL0     C47853   3.021   4.950   5.829 -0.8457  0.3092 -0.8524
  355MOL0     C47854   2.993   4.944   5.950  0.1949 -0.8040  0.1163
  355MOL0     C47855   3.638   4.989   5.779  0.0604  0.2768  0.6457
  355MOL0     C47856   3.778   5.005   5.786 -0.1625  0.3631  0.7175
  355MOL0     C47857   3.856   4.874   5.768 -0.1770 -0.5683  1.0944
  355MOL0     H47858   4.239   5.118   5.599 -1.1127 -1.2673  0.3450
  355MOL0     H47859   4.464   5.207   5.626 -0.9834 -0.0269 -0.6712
  355MOL0     H47860   4.669   5.148   5.707  1.5967 -1.3405  2.7150
  355MOL0     H47861   4.637   5.324   5.683  3.9924  2.4195 -0.0772
  355MOL0     H47862   4.817   5.369   5.844 -0.8629  0.3670 -1.9451
  355MOL0     H47863   4.852   5.319   5.685 -1.0711  3.9897  2.0363
  355MOL0     H47864   4.898   5.092   5.777  0.2383  0.8273 -0.9106
  355MOL0     H47865   4.866   5.139   5.947 -1.7470  0.1239 -1.3111
  355MOL0     H47866   5.080   5.267   5.764  3.5042 -0.9747  0.8553
  355MOL0     H47867   5.057   5.305   5.931 -1.9050  2.2005 -1.8933
  355MOL0     H47868   5.126   5.057   5.983  2.8287  0.3969  0.5245
  355MOL0     H47869   5.122   5.034   5.808  2.0252  0.0831  0.2997
  355MOL0     H47870   5.292   5.225   5.800 -0.1387 -1.5000 -1.0742
  355MOL0     H47871   5.300   5.208   5.977 -1.4751 -0.4865  0.0060
  355MOL0     H47872   5.480   5.078   5.825 -0.9576  3.0460  1.6231
  355MOL0     H47873   5.356   4.980   5.773  1.4535 -0.4139  1.1853
  355MOL0     H47874   5.460   4.997   6.051  0.1702 -0.5964  0.9219
  355MOL0     H47875   5.313   4.912   6.023 -1.3783 -1.1412 -2.8339
  355MOL0     H47876   5.451   4.677   6.085 -0.4268 -1.6444 -1.8437
  355MOL0     H47877   5.580   4.455   6.039 -2.5673  0.7989 -1.4434
  355MOL0     H47878   5.662   4.444   5.873  2.6585  0.3220 -0.0950
  355MOL0     H47879   5.845   4.601   5.957 -2.4171  2.8844 -0.6726
  355MOL0     H47880   5.779   4.586   6.113 -0.0158 -0.2376 -0.0717
  355MOL0     H47881   5.860   4.328   5.982  0.4463 -2.0007  1.4949
  355MOL0     H47882   5.846   4.371   6.158  0.0403  0.7977  0.3161
  355MOL0     H47883   6.021   4.501   6.149  1.5905 -1.3481  0.1928
  355MOL0     H47884   6.053   4.483   5.969  2.4108  3.8489  2.1953
  355MOL0     H47885   6.254   4.542   6.157  0.7490  0.7483  3.9849
  355MOL0     H47886   6.482   4.532   6.176 -1.4188  0.3019 -0.7195
  355MOL0     H47887   6.934   4.173   5.997 -1.4806 -1.4030  1.0226
  355MOL0     H47888   7.159   4.133   6.088 -1.6034 -1.3498 -1.6212
  355MOL0     H47889   7.256   4.110   6.519  1.0061  1.0383 -0.2854
  355MOL0     H47890   7.206   3.937   6.470 -1.2599 -0.0825 -2.8077
  355MOL0     H47891   7.428   3.970   6.556 -0.1808 -3.7187 -1.7905
  355MOL0     H47892   7.441   3.917   6.405  1.0295 -0.0264  0.7958
  355MOL0     H47893   7.476   4.173   6.342  3.1817  0.5999 -0.7239
  355MOL0     H47894   7.496   4.202   6.514  1.1976  1.3080 -1.3332
  355MOL0     H47895   7.666   4.013   6.353  0.7019  0.1063 -0.3508
  355MOL0     H47896   7.676   4.063   6.527  0.2333  1.0998 -0.2209
  355MOL0     H47897   7.734   4.234   6.274  2.8621  1.5945 -0.5457
  355MOL0     H47898   7.856   4.163   6.368 -0.0381 -1.6150 -0.0866
  355MOL0     H47899   7.789   4.414   6.399  0.5975 -0.1627  0.1750
  355MOL0     H47900   7.636   4.356   6.461 -0.9706 -0.2274 -3.4845
  355MOL0     H47901   7.893   4.258   6.597  0.8000  0.6377  0.3131
  355MOL0     H47902   7.722   4.237   6.648  0.1117 -0.8135 -1.7467
  355MOL0     H47903   7.928   4.465   6.661 -0.6796  3.4345  0.2680
  355MOL0     H47904   7.758   4.506   6.671 -0.8785 -0.9170 -2.3859
  355MOL0     H47905   6.998   4.137   6.489 -0.8768 -2.5845  0.5364
  355MOL0     H47906   6.787   4.167   6.407 -0.2235 -0.6659 -0.3512
  355MOL0     H47907   6.481   4.093   6.139 -0.2714 -0.8769 -0.4637
  355MOL0     H47908   6.241   4.109   6.104 -1.1637  2.1690 -3.6678
  355MOL0     H47909   4.427   5.200   6.052  2.4988 -1.3505 -0.7208
  355MOL0     H47910   4.187   5.103   6.019  1.6924 -3.1820 -0.0951
  355MOL0     H47911   3.787   5.338   5.835  1.8597 -0.7938 -1.9383
  355MOL0     H47912   3.546   5.297   5.868 -1.8785 -1.2281  0.4167
  355MOL0     H47913   3.381   5.251   5.696  0.2398 -1.4548 -3.9967
  355MOL0     H47914   3.244   5.191   5.793 -0.9910  0.0193 -0.7441
  355MOL0     H47915   3.344   5.045   5.542  0.0553  2.4564 -0.8171
  355MOL0     H47916   3.194   5.142   5.559 -2.1134 -0.7532  0.9354
  355MOL0     H47917   3.242   4.917   5.742 -2.3940  1.9395  0.5230
  355MOL0     H47918   3.189   4.883   5.569  1.7413  0.5491 -1.2893
  355MOL0     H47919   3.020   5.086   5.660  1.3156  0.2794  0.7317
  355MOL0     H47920   2.986   4.914   5.630 -1.1433  0.7538  0.0269
  355MOL0     H47921   2.942   4.931   6.043 -1.4707  0.5195 -0.5726
  355MOL0     H47922   3.590   4.892   5.776  1.1406 -0.3057  1.4828
  355MOL0     H47923   3.791   4.790   5.742  0.7476 -0.4881 -1.8577
  355MOL0     H47924   3.917   4.885   5.678  0.3981  0.4665  1.5963
  355MOL0     H47925   3.920   4.867   5.857  1.0458 -3.6587  0.1078
  356MOL0     O47926   5.149   6.934   3.952 -0.1392 -0.0891 -0.4317
  356MOL0     C47927   5.143   6.854   4.044 -0.2580  0.6662 -0.3316
  356MOL0     O47928   5.250   6.779   4.091  0.1485 -0.2692  0.2460
  356MOL0     C47929   5.372   6.761   4.024 -0.4288 -0.1948 -0.8039
  356MOL0     C47930   5.435   6.840   3.931  0.4693 -0.6135  0.6443
  356MOL0     C47931   5.571   6.829   3.892 -0.4515 -0.2393  0.6418
  356MOL0     C47932   5.650   6.735   3.950 -0.0676  0.7263 -0.5076
  356MOL0     O47933   5.781   6.721   3.912  0.2294 -0.5203  0.4371
  356MOL0     C47934   5.887   6.706   4.004 -0.0139  0.2182  0.4562
  356MOL0     C47935   6.008   6.666   3.919  0.9908 -0.1228 -0.7187
  356MOL0     C47936   6.133   6.686   3.998 -0.5627  0.0871 -0.0318
  356MOL0     C47937   6.262   6.663   3.922  0.2579  0.1374 -0.5270
  356MOL0     C47938   6.380   6.644   4.008 -0.2167 -0.1032 -0.1186
  356MOL0     C47939   6.497   6.615   3.914  0.5677 -0.6516 -0.0244
  356MOL0     C47940   6.635   6.592   3.975  1.0560  0.3581  0.6168
  356MOL0     C47941   6.709   6.715   4.023  0.1052  0.3452  0.6995
  356MOL0     N47942   6.860   6.699   4.037 -0.6927 -0.2353 -0.1163
  356MOL0     C47943   6.942   6.697   3.923  0.1961 -0.5242  0.4892
  356MOL0     C47944   7.071   6.682   3.980  0.1966  0.3358  0.3472
  356MOL0     C47945   7.202   6.673   3.908 -0.2577 -0.2873  0.6381
  356MOL0     C47946   7.195   6.574   3.791  0.3319  1.6580  0.1106
  356MOL0     C47947   7.179   6.426   3.828  0.2556  0.2272  1.0869
  356MOL0     C47948   7.159   6.340   3.704  0.1452 -0.6433  0.5052
  356MOL0     O47949   7.038   6.385   3.636  0.1193 -0.2271  0.0440
  356MOL0     C47950   6.915   6.335   3.676 -0.2785  0.2453 -0.4605
  356MOL0     C47951   6.811   6.411   3.620  0.9069  0.1011  0.5270
  356MOL0     C47952   6.681   6.362   3.624 -0.2478  0.6147  0.2497
  356MOL0     C47953   6.646   6.248   3.695  0.2571 -0.5500 -0.3091
  356MOL0     C47954   6.501   6.207   3.721 -0.3959  0.2456 -0.4405
  356MOL0     O47955   6.490   6.076   3.728  0.6001 -0.0492 -0.1966
  356MOL0     C47956   6.376   6.008   3.747 -0.3380 -0.4983  0.2378
  356MOL0     C47957   6.376   5.870   3.713 -0.0455 -0.5298 -0.1274
  356MOL0     C47958   6.270   5.787   3.738  0.5567 -0.0116 -0.4716
  356MOL0     C47959   6.149   5.836   3.794  0.0237  0.2480 -0.2410
  356MOL0     O47960   6.026   5.765   3.815  0.4403 -0.1655 -0.3411
  356MOL0     C47961   6.029   5.625   3.773 -0.0648  0.0544  0.4616
  356MOL0     C47962   5.885   5.568   3.766  0.8383  0.0478 -0.3482
  356MOL0     C47963   5.807   5.587   3.906  0.4527 -0.1327 -0.5549
  356MOL0     C47964   5.675   5.515   3.922 -0.6059  0.1187 -0.1750
  356MOL0     C47965   5.568   5.599   3.993  0.9449 -0.4436 -1.1099
  356MOL0     C47966   5.449   5.517   4.039  0.1291  0.6502  0.2909
  356MOL0     C47967   5.360   5.593   4.139  0.0830 -0.0980  0.2092
  356MOL0     C47968   5.261   5.504   4.214 -0.0006  0.3708  0.9949
  356MOL0    Cl47969   5.145   5.432   4.093 -0.0144 -0.2638 -0.1051
  356MOL0     C47970   6.137   5.972   3.816  0.5198  0.8657  0.0465
  356MOL0     C47971   6.247   6.057   3.783  0.9147 -0.0355 -0.0220
  356MOL0     O47972   6.414   6.286   3.694  0.2940 -1.2350  0.1504
  356MOL0     C47973   6.752   6.170   3.751 -0.3403  0.1411 -0.1224
  356MOL0     C47974   6.883   6.223   3.754 -0.1062 -0.0572  0.7600
  356MOL0     N47975   7.061   6.665   4.117  0.7997 -0.4183 -0.8487
  356MOL0     N47976   6.936   6.671   4.145  0.0192  0.5724 -0.3084
  356MOL0     C47977   5.590   6.657   4.049 -1.0075  0.4960  0.2068
  356MOL0     C47978   5.455   6.666   4.080  0.7464 -0.1956  1.0444
  356MOL0     C47979   5.016   6.837   4.116  0.5665 -0.3050 -0.3655
  356MOL0     C47980   4.995   6.729   4.206  0.4956 -0.4195 -0.2311
  356MOL0     C47981   4.881   6.708   4.276 -0.0940 -1.0403  0.1511
  356MOL0     C47982   4.771   6.787   4.267 -0.3506 -0.1478  0.0812
  356MOL0     O47983   4.649   6.749   4.324 -0.2765 -0.4320 -0.8169
  356MOL0     C47984   4.528   6.793   4.265 -0.0127  0.3044 -0.4240
  356MOL0     C47985   4.405   6.753   4.359  0.0269 -0.6277 -0.4972
  356MOL0     C47986   4.410   6.611   4.417 -0.9612 -0.0054  0.1524
  356MOL0     C47987   4.396   6.500   4.311 -0.5934  0.4861  0.1114
  356MOL0     C47988   4.273   6.526   4.225  0.2087  0.0733  0.1707
  356MOL0     C47989   4.178   6.540   4.154  0.0381 -0.1575  1.1611
  356MOL0     C47990   4.778   6.891   4.172 -0.3869  0.2094 -0.1465
  356MOL0     C47991   4.899   6.918   4.107  0.1679  0.0203  0.4646
  356MOL0     C47992   4.911   7.055   4.040  0.1643  0.4077  1.4855
  356MOL0     H47993   5.376   6.922   3.893 -0.3727  0.4216  3.8553
  356MOL0     H47994   5.631   6.890   3.824 -0.4029  0.1542  1.0351
  356MOL0     H47995   5.910   6.803   4.050  1.3796  1.5833 -2.8384
  356MOL0     H47996   5.866   6.628   4.078 -1.1617  0.9686  0.9531
  356MOL0     H47997   6.009   6.729   3.830 -0.1826 -0.1807 -0.7841
  356MOL0     H47998   6.005   6.561   3.887  0.9177 -0.2365 -0.3458
  356MOL0     H47999   6.134   6.631   4.092 -1.9628  1.3395  0.7457
  356MOL0     H48000   6.135   6.790   4.032 -1.4494  0.2226 -0.3713
  356MOL0     H48001   6.249   6.576   3.858 -0.8872 -1.0860  1.2655
  356MOL0     H48002   6.281   6.752   3.861  2.4637 -1.7633 -2.8358
  356MOL0     H48003   6.395   6.738   4.062 -1.9078  0.1502 -0.0526
  356MOL0     H48004   6.357   6.566   4.082 -1.6097  2.7117  2.6726
  356MOL0     H48005   6.466   6.526   3.859  1.0035 -1.2937  0.7374
  356MOL0     H48006   6.489   6.696   3.841 -3.1200 -1.1358 -0.3291
  356MOL0     H48007   6.702   6.534   3.912  1.2277  0.2664  0.8811
  356MOL0     H48008   6.611   6.531   4.063 -2.3223  0.3119 -0.2081
  356MOL0     H48009   6.683   6.789   3.946 -0.9870  0.4697  1.1737
  356MOL0     H48010   6.662   6.748   4.116 -1.1687 -0.8907  0.5164
  356MOL0     H48011   6.912   6.719   3.821 -1.7061 -1.5744  0.7794
  356MOL0     H48012   7.222   6.774   3.872  1.5008 -1.7919 -3.2859
  356MOL0     H48013   7.282   6.649   3.979  0.9727  4.1304  1.0460
  356MOL0     H48014   7.109   6.602   3.728 -3.1049 -0.3210  3.4853
  356MOL0     H48015   7.287   6.597   3.737  0.3906  1.4891  0.1410
  356MOL0     H48016   7.090   6.425   3.892 -0.2363 -0.0122  0.4172
  356MOL0     H48017   7.266   6.395   3.885 -0.1462 -1.3927  0.8589
  356MOL0     H48018   7.162   6.234   3.730  0.3260  0.0371  3.5890
  356MOL0     H48019   7.243   6.345   3.634 -2.0127 -2.0131 -2.4339
  356MOL0     H48020   6.839   6.506   3.576  2.2690 -1.5939 -2.5745
  356MOL0     H48021   6.604   6.427   3.585 -0.0983  0.6393 -0.0092
  356MOL0     H48022   6.467   5.834   3.665 -0.8177 -0.9552 -1.3238
  356MOL0     H48023   6.280   5.683   3.708  0.0784 -0.0917 -0.3593
  356MOL0     H48024   6.075   5.617   3.674  4.2151  1.6917  2.0705
  356MOL0     H48025   6.087   5.565   3.844  0.4280 -0.3466 -0.2665
  356MOL0     H48026   5.830   5.624   3.690 -0.8524 -1.8937 -0.6400
  356MOL0     H48027   5.883   5.467   3.724 -0.9776  1.3826 -3.8656
  356MOL0     H48028   5.874   5.564   3.989 -1.2783 -1.0677  0.6229
  356MOL0     H48029   5.783   5.694   3.906 -1.7610 -0.3571  4.3570
  356MOL0     H48030   5.687   5.432   3.992 -1.4845  2.3781  2.8630
  356MOL0     H48031   5.642   5.473   3.826  0.5772 -0.8209 -0.2017
  356MOL0     H48032   5.532   5.682   3.932 -1.0604 -0.0315  0.5351
  356MOL0     H48033   5.615   5.641   4.083  0.0029 -1.6374 -0.0162
  356MOL0     H48034   5.395   5.479   3.953  1.5847 -2.4062  0.5610
  356MOL0     H48035   5.475   5.426   4.096 -0.3021 -0.8041 -1.7376
  356MOL0     H48036   5.311   5.663   4.071  3.0658 -0.0641 -2.0829
  356MOL0     H48037   5.412   5.652   4.215 -1.4446  1.9216 -0.2031
  356MOL0     H48038   5.302   5.416   4.265  1.8161 -0.9365 -2.4450
  356MOL0     H48039   5.201   5.557   4.289 -1.3470 -1.6021  1.3739
  356MOL0     H48040   6.044   6.015   3.850  1.2598  1.9610  0.7265
  356MOL0     H48041   6.239   6.165   3.786  1.2833  0.0752 -1.8883
  356MOL0     H48042   6.731   6.070   3.786 -1.1794  1.2475  2.8123
  356MOL0     H48043   6.956   6.163   3.806  0.3499  1.4230  1.9001
  356MOL0     H48044   5.656   6.578   4.084 -0.1465  0.5604 -1.1789
  356MOL0     H48045   5.414   6.608   4.162 -2.1244 -0.3937 -0.4059
  356MOL0     H48046   5.074   6.658   4.225  1.1577 -0.0810 -1.6114
  356MOL0     H48047   4.884   6.614   4.330  1.1603 -1.2973 -0.3290
  356MOL0     H48048   4.514   6.737   4.172 -4.5570 -0.7780  0.6378
  356MOL0     H48049   4.524   6.901   4.243 -1.5034  0.0900 -1.3607
  356MOL0     H48050   4.310   6.771   4.309 -0.6844 -0.2115  0.9605
  356MOL0     H48051   4.423   6.826   4.439  0.1644 -1.3393  0.1382
  356MOL0     H48052   4.331   6.592   4.490  1.0949 -0.9450  2.2341
  356MOL0     H48053   4.505   6.613   4.469 -0.5579 -0.8099 -0.5302
  356MOL0     H48054   4.483   6.512   4.246  0.2529 -1.6066  0.7849
  356MOL0     H48055   4.392   6.400   4.355 -3.6658  0.2872 -0.3916
  356MOL0     H48056   4.094   6.531   4.088  0.0470 -0.7415  1.2210
  356MOL0     H48057   4.688   6.950   4.158 -0.8224 -0.9726 -2.9843
  356MOL0     H48058   4.839   7.127   4.079  0.4477 -0.1763  3.1606
  356MOL0     H48059   5.007   7.101   4.066 -0.1332  1.6654  0.4173
  356MOL0     H48060   4.907   7.046   3.931 -2.7658  3.6216  1.1532
  357MOL0     O48061   5.589   9.510   9.900  0.1407 -0.6057 -0.2698
  357MOL0     C48062   5.514   9.610   9.927  0.6268  0.8496 -1.0243
  357MOL0     O48063   5.548   9.708  10.023  0.1970 -0.3488  0.3172
  357MOL0     C48064   5.645   9.683  10.106  0.1755 -0.0179 -0.4659
  357MOL0     C48065   5.623   9.605  10.216  0.8576 -1.0779  0.7874
  357MOL0     C48066   5.708   9.598  10.317 -0.0937 -0.0490 -0.0940
  357MOL0     C48067   5.831   9.678  10.318  1.2818 -0.1634  0.6595
  357MOL0     O48068   5.931   9.680  10.412  0.1483  0.8990  0.0338
  357MOL0     C48069   5.928   9.577  10.510  0.4387  0.1870 -1.1245
  357MOL0     C48070   5.848   9.621  10.637  0.2412 -0.2433 -0.1235
  357MOL0     C48071   5.956   9.677  10.738  0.6904  0.2727 -0.6570
  357MOL0     C48072   6.054   9.786  10.682  0.5560  0.3578  0.1243
  357MOL0     C48073   6.141   9.839  10.793 -0.0726  0.6474 -0.1627
  357MOL0     C48074   6.223   9.960  10.752 -0.1496  0.1214 -0.7142
  357MOL0     C48075   6.335   9.941  10.649  0.4494  0.0115  0.3344
  357MOL0     C48076   6.417  10.053  10.600 -0.3221 -0.0839  0.5414
  357MOL0     N48077   6.349  10.157  10.521 -0.9898  0.1271  0.2973
  357MOL0     C48078   6.309  10.148  10.389 -0.2027 -0.0548  0.4625
  357MOL0     C48079   6.257  10.270  10.357 -0.3553 -0.0558 -0.5670
  357MOL0     C48080   6.167  10.299  10.241 -0.0183  0.0287 -0.3015
  357MOL0     C48081   6.238  10.356  10.119  0.0457 -0.2868 -0.2434
  357MOL0     C48082   6.128  10.409  10.023 -0.9737  0.0579 -0.0028
  357MOL0     C48083   6.059  10.536  10.077 -0.5565 -0.2642 -0.0864
  357MOL0     O48084   5.933  10.517  10.144 -0.1406  0.3703 -0.6955
  357MOL0     C48085   5.818  10.562  10.083 -0.0206 -0.1104  0.5618
  357MOL0     C48086   5.732  10.646  10.158  0.3285 -0.1439 -1.1247
  357MOL0     C48087   5.619  10.700  10.098  0.2828  0.4023  0.8058
  357MOL0     C48088   5.587  10.668   9.966  0.0209  0.0714  0.3427
  357MOL0     C48089   5.463  10.698   9.902  0.8175 -0.5989  0.4218
  357MOL0     O48090   5.380  10.786   9.969 -0.4052  0.5125 -0.6511
  357MOL0     C48091   5.252  10.799   9.912 -0.9728 -0.1483 -0.3095
  357MOL0     C48092   5.143  10.771   9.994  0.5273  0.7094 -0.0416
  357MOL0     C48093   5.014  10.799   9.950  0.2227  0.3773 -0.3754
  357MOL0     C48094   4.989  10.855   9.825  0.0864  0.8402  0.2884
  357MOL0     O48095   4.864  10.897   9.791  0.2334  0.6174  0.1173
  357MOL0     C48096   4.776  10.943   9.897 -0.3704 -0.9428 -0.5281
  357MOL0     C48097   4.672  10.837   9.924 -0.3551  0.5864  0.2108
  357MOL0     C48098   4.552  10.869   9.834  0.3696  0.6827 -0.0213
  357MOL0     C48099   4.437  10.759   9.861  0.1005  0.5846  0.0670
  357MOL0     C48100   4.330  10.764   9.752 -0.3153  0.5799  0.4567
  357MOL0     C48101   4.239  10.639   9.760 -0.3432 -0.2983 -0.0779
  357MOL0     C48102   4.182  10.597   9.626 -0.8727  0.7375 -0.5009
  357MOL0     C48103   4.129  10.716   9.538 -0.2447  0.5338  0.5741
  357MOL0    Cl48104   4.024  10.809   9.636  0.3162 -0.0672 -0.3223
  357MOL0     C48105   5.094  10.858   9.734  0.4216  0.4592 -0.6044
  357MOL0     C48106   5.224  10.829   9.780 -0.7459  0.4315  0.2040
  357MOL0     O48107   5.423  10.630   9.805 -0.0316 -0.3687  0.0843
  357MOL0     C48108   5.656  10.555   9.905 -0.2135  0.0669 -0.8254
  357MOL0     C48109   5.775  10.515   9.965  0.4894  0.3745  0.3966
  357MOL0     N48110   6.285  10.349  10.463 -0.6273 -0.4065 -0.3156
  357MOL0     N48111   6.345  10.281  10.561 -0.7132 -0.4326 -0.0585
  357MOL0     C48112   5.854   9.750  10.202 -0.2350  0.1438  1.1693
  357MOL0     C48113   5.763   9.744  10.094  0.2714 -0.5152 -0.3294
  357MOL0     C48114   5.406   9.649   9.831 -0.0270 -0.4446  0.6257
  357MOL0     C48115   5.362   9.782   9.826  0.1609 -0.0675 -0.6330
  357MOL0     C48116   5.260   9.817   9.735  0.4945 -0.1154 -0.0837
  357MOL0     C48117   5.207   9.732   9.643  0.3223  1.0014 -0.5452
  357MOL0     O48118   5.112   9.757   9.545  0.1233 -0.1186 -0.8154
  357MOL0     C48119   5.053   9.890   9.536 -0.0068  0.7502  0.0080
  357MOL0     C48120   4.947   9.881   9.431  0.4942 -1.0775  0.8514
  357MOL0     C48121   4.833   9.784   9.463 -0.4315  0.4063 -0.8021
  357MOL0     C48122   4.728   9.775   9.355  0.4504 -0.0881  0.1664
  357MOL0     C48123   4.629   9.873   9.355 -0.2460  0.0720  0.0608
  357MOL0     C48124   4.543   9.958   9.346  0.3883  0.1749  0.3240
  357MOL0     C48125   5.251   9.597   9.649 -0.6446 -0.1527 -0.7229
  357MOL0     C48126   5.340   9.554   9.748 -0.2222 -0.2498  0.3347
  357MOL0     C48127   5.371   9.409   9.759  0.0904 -0.2694  0.3293
  357MOL0     H48128   5.536   9.541  10.220  1.8244 -2.5962 -0.9959
  357MOL0     H48129   5.693   9.536  10.405  1.5718 -0.7673 -0.2744
  357MOL0     H48130   5.876   9.488  10.473 -3.1482  1.7747 -0.3656
  357MOL0     H48131   6.029   9.543  10.536  0.0336  1.5295  2.9821
  357MOL0     H48132   5.796   9.535  10.679 -0.7962 -0.1996 -1.2887
  357MOL0     H48133   5.783   9.704  10.608  0.0716 -0.4231 -0.2522
  357MOL0     H48134   6.025   9.599  10.770  0.2399 -0.1080 -0.6090
  357MOL0     H48135   5.906   9.717  10.827  2.2979 -0.2019  0.4941
  357MOL0     H48136   6.114   9.754  10.596  1.1163  0.2839  0.5368
  357MOL0     H48137   6.000   9.871  10.638 -1.5511 -1.1658 -0.3910
  357MOL0     H48138   6.080   9.860  10.882 -0.3463  1.3353 -0.5101
  357MOL0     H48139   6.209   9.763  10.833  0.4404 -0.3582 -2.7893
  357MOL0     H48140   6.162  10.046  10.722 -2.0067 -0.2372  1.7050
  357MOL0     H48141   6.267   9.980  10.850  0.0945 -0.2990 -0.7369
  357MOL0     H48142   6.293   9.905  10.554 -0.3439  0.3169  0.5626
  357MOL0     H48143   6.398   9.867  10.699 -0.4794 -1.4316 -0.5388
  357MOL0     H48144   6.465  10.110  10.681 -2.3736  2.1423  0.3228
  357MOL0     H48145   6.492  10.000  10.540 -1.5255 -1.5180  0.2522
  357MOL0     H48146   6.298  10.058  10.329  3.0664  0.9107 -1.8430
  357MOL0     H48147   6.107  10.210  10.223  1.0321 -0.5747 -0.9810
  357MOL0     H48148   6.104  10.382  10.272 -0.1759  0.2277 -1.1415
  357MOL0     H48149   6.301  10.442  10.141 -0.9899 -0.0889  2.2859
  357MOL0     H48150   6.296  10.276  10.072 -0.9942 -0.5723 -1.0783
  357MOL0     H48151   6.049  10.333  10.017 -0.1031 -1.0126  1.4793
  357MOL0     H48152   6.182  10.435   9.931  2.0111 -1.6430  1.1323
  357MOL0     H48153   6.044  10.599   9.989  0.4995 -1.0729 -0.8727
  357MOL0     H48154   6.132  10.581  10.145 -1.3788 -1.0612  1.3710
  357MOL0     H48155   5.765  10.675  10.257  1.3828  0.7809 -1.7231
  357MOL0     H48156   5.555  10.758  10.163 -1.9139  0.2789 -1.1499
  357MOL0     H48157   5.148  10.741  10.098 -1.9450  1.9569  0.5162
  357MOL0     H48158   4.928  10.773  10.011 -1.4691 -0.8041 -3.0857
  357MOL0     H48159   4.835  10.965   9.986  0.3670  2.9775 -1.7658
  357MOL0     H48160   4.727  11.040   9.882 -0.7294 -1.0463 -0.0318
  357MOL0     H48161   4.717  10.739   9.903  0.8458  0.7118  1.9947
  357MOL0     H48162   4.651  10.830  10.031  0.6751  0.4182  0.4212
  357MOL0     H48163   4.515  10.972   9.840 -2.3677 -0.2988  3.2921
  357MOL0     H48164   4.583  10.855   9.730  0.5061  3.1787 -0.3725
  357MOL0     H48165   4.389  10.772   9.959  1.3409  0.7624  0.6784
  357MOL0     H48166   4.487  10.662   9.862 -0.0184  0.4880  2.0387
  357MOL0     H48167   4.382  10.761   9.657  0.3260  0.0961  0.8152
  357MOL0     H48168   4.266  10.852   9.763  0.1437  1.0088 -0.2288
  357MOL0     H48169   4.292  10.554   9.804 -2.3293 -1.7082 -0.2826
  357MOL0     H48170   4.151  10.668   9.817 -0.1187 -0.2101  0.2275
  357MOL0     H48171   4.108  10.522   9.653  0.6784  0.0871  2.4090
  357MOL0     H48172   4.256  10.546   9.564  0.8414  0.5349  1.5965
  357MOL0     H48173   4.219  10.770   9.507  0.9037 -1.5183  0.0890
  357MOL0     H48174   4.067  10.677   9.457 -1.7699  1.5134  1.2304
  357MOL0     H48175   5.067  10.894   9.635  0.7171  1.1727 -0.4318
  357MOL0     H48176   5.297  10.840   9.700 -1.6094 -0.2036 -0.6844
  357MOL0     H48177   5.622  10.506   9.814 -3.4937  0.1954  0.2042
  357MOL0     H48178   5.830  10.431   9.925  0.9466  0.5105  0.7287
  357MOL0     H48179   5.937   9.819  10.191  0.0914 -0.6344 -2.7411
  357MOL0     H48180   5.791   9.791  10.000 -1.6900 -1.4381 -1.4364
  357MOL0     H48181   5.407   9.851   9.897 -1.2207 -3.1243  3.6325
  357MOL0     H48182   5.209   9.910   9.757  1.8881  0.1728  2.1868
  357MOL0     H48183   5.130   9.959   9.502  1.6262 -0.5397  0.9362
  357MOL0     H48184   5.011   9.913   9.635  0.7952  1.0097  0.2982
  357MOL0     H48185   4.993   9.849   9.337 -1.0444 -0.9443  0.0181
  357MOL0     H48186   4.900   9.978   9.412 -1.0334 -1.3369  2.9149
  357MOL0     H48187   4.781   9.809   9.556 -0.2711 -0.8906 -0.3466
  357MOL0     H48188   4.876   9.685   9.485 -1.3877 -0.0479 -0.9188
  357MOL0     H48189   4.775   9.765   9.257 -0.8176 -2.3200 -0.2959
  357MOL0     H48190   4.679   9.677   9.349  1.1376 -0.4338  0.1211
  357MOL0     H48191   4.493  10.053   9.347 -0.3067 -0.1023 -1.7341
  357MOL0     H48192   5.214   9.521   9.582  0.5256  0.2559 -1.8780
  357MOL0     H48193   5.474   9.376   9.739  0.5094  1.6711 -0.9705
  357MOL0     H48194   5.337   9.376   9.858 -0.0306  1.2492  0.8249
  357MOL0     H48195   5.303   9.356   9.692 -1.5700  0.8336  1.0828
  358MOL0     O48196   8.920  10.426   2.356  0.8198  0.4290 -0.9493
  358MOL0     C48197   8.834  10.509   2.388  0.2144 -0.3207 -0.4389
  358MOL0     O48198   8.860  10.626   2.468  0.4934 -0.4831  0.3317
  358MOL0     C48199   8.979  10.633   2.530 -0.9331  0.0578  0.8227
  358MOL0     C48200   8.985  10.583   2.659 -0.2320 -0.0084 -0.8031
  358MOL0     C48201   9.100  10.593   2.731 -0.0537 -0.2465 -0.0594
  358MOL0     C48202   9.209  10.658   2.671  0.7892 -0.7526 -0.7389
  358MOL0     O48203   9.315  10.685   2.753  0.1041  0.5168 -0.0009
  358MOL0     C48204   9.448  10.721   2.701  0.8050 -0.2949 -0.0332
  358MOL0     C48205   9.557  10.679   2.797 -0.2863 -0.3546  0.3640
  358MOL0     C48206   9.692  10.681   2.720  0.6784 -0.5572  0.4278
  358MOL0     C48207   9.815  10.617   2.783  0.9052  1.3376 -0.2199
  358MOL0     C48208   9.804  10.618   2.937  0.4701 -0.6811  0.7739
  358MOL0     C48209   9.921  10.576   3.021 -0.1928 -0.3315 -0.4361
  358MOL0     C48210   9.979  10.711   3.095  0.4214  0.1237  0.2859
  358MOL0     C48211  10.122  10.692   3.153  0.5535 -0.0087  0.8047
  358MOL0     N48212  10.131  10.614   3.275 -0.0975 -0.7787 -0.3376
  358MOL0     C48213  10.144  10.651   3.407  0.4970  0.0473  0.3564
  358MOL0     C48214  10.145  10.537   3.470  1.3078  0.3061 -0.5911
  358MOL0     C48215  10.139  10.523   3.620  0.3252 -0.7285 -0.0285
  358MOL0     C48216  10.005  10.566   3.672  1.0160  0.2932 -0.1745
  358MOL0     C48217  10.011  10.720   3.707  0.1546  0.6798  0.5523
  358MOL0     C48218   9.879  10.784   3.754  0.6125  0.1166 -0.4922
  358MOL0     O48219   9.844  10.707   3.866 -0.3986  0.3645  0.6840
  358MOL0     C48220   9.714  10.685   3.899 -0.1270 -0.5118  0.1987
  358MOL0     C48221   9.689  10.593   4.000 -1.1892  0.9510  0.1373
  358MOL0     C48222   9.567  10.560   4.040  0.1398 -0.3676 -0.1540
  358MOL0     C48223   9.458  10.632   3.988  0.0471 -0.8649 -0.8535
  358MOL0     C48224   9.317  10.610   4.034 -0.2193 -0.0236  0.3254
  358MOL0     O48225   9.315  10.533   4.141  0.2259 -0.5175 -0.1082
  358MOL0     C48226   9.197  10.481   4.197 -0.0437 -0.0098 -0.5732
  358MOL0     C48227   9.074  10.448   4.125 -0.0582 -1.3900  0.1218
  358MOL0     C48228   8.958  10.387   4.194 -0.2930 -0.4823  0.1976
  358MOL0     C48229   8.964  10.398   4.335 -0.2080 -0.2008 -0.7355
  358MOL0     O48230   8.852  10.382   4.416 -0.0243  0.2156  0.2259
  358MOL0     C48231   8.727  10.427   4.375 -0.3906 -0.0923 -0.1154
  358MOL0     C48232   8.643  10.386   4.486  0.1310  0.8050 -0.3215
  358MOL0     C48233   8.685  10.439   4.627  0.3447 -0.2432  0.1771
  358MOL0     C48234   8.587  10.413   4.732  0.1839 -0.2579 -0.0292
  358MOL0     C48235   8.640  10.468   4.866  0.7442 -0.8673  1.0393
  358MOL0     C48236   8.526  10.507   4.970 -0.5656 -0.1609  0.2119
  358MOL0     C48237   8.430  10.397   5.016 -0.4156 -0.4281  0.5520
  358MOL0     C48238   8.335  10.439   5.128  0.3512 -0.0992  0.3586
  358MOL0    Cl48239   8.203  10.532   5.053  0.2300 -0.0127 -0.2682
  358MOL0     C48240   9.084  10.427   4.401  0.6110  0.1400  0.1236
  358MOL0     C48241   9.198  10.462   4.333  0.4445 -0.1986 -0.2122
  358MOL0     O48242   9.219  10.647   3.972  0.0372 -0.2580  0.1366
  358MOL0     C48243   9.470  10.737   3.895  0.0167  0.0790  0.2846
  358MOL0     C48244   9.601  10.763   3.848  0.1339 -0.2086 -0.0973
  358MOL0     N48245  10.132  10.427   3.385 -0.4297 -0.4601  0.1867
  358MOL0     N48246  10.120  10.480   3.268  0.0482  0.1850 -0.9072
  358MOL0     C48247   9.206  10.699   2.536 -0.0339  0.0406 -0.3752
  358MOL0     C48248   9.087  10.680   2.460 -0.2718  0.7417 -0.1563
  358MOL0     C48249   8.695  10.494   2.347 -0.1744  0.3963 -0.5269
  358MOL0     C48250   8.617  10.609   2.330 -0.8769 -0.6753 -0.5088
  358MOL0     C48251   8.483  10.612   2.299 -1.4942 -0.6588  0.0811
  358MOL0     C48252   8.419  10.498   2.275  1.1636 -0.0382 -0.6562
  358MOL0     O48253   8.279  10.504   2.254 -0.8004 -0.0550  0.3973
  358MOL0     C48254   8.214  10.390   2.200  0.0393 -0.0508  0.5989
  358MOL0     C48255   8.073  10.429   2.142 -0.2469  0.1364  0.4411
  358MOL0     C48256   7.983  10.460   2.263  0.0616  0.2485  0.4962
  358MOL0     C48257   7.836  10.459   2.232  0.2633 -0.1529 -0.4958
  358MOL0     C48258   7.784  10.328   2.209  0.6295  0.0238  0.9083
  358MOL0     C48259   7.736  10.215   2.192  0.0261 -0.2512 -0.1224
  358MOL0     C48260   8.485  10.378   2.302 -0.2763  0.1438 -0.2694
  358MOL0     C48261   8.625  10.370   2.332  0.9475 -0.1940 -0.4000
  358MOL0     C48262   8.665  10.229   2.345  0.1876 -0.4051 -0.1399
  358MOL0     H48263   8.898  10.537   2.704  0.9807  0.5722  2.3628
  358MOL0     H48264   9.099  10.555   2.833 -1.2849 -0.9581 -0.3170
  358MOL0     H48265   9.465  10.675   2.603 -0.8991 -2.0769  0.4293
  358MOL0     H48266   9.454  10.825   2.668 -2.0645  0.0726  0.2848
  358MOL0     H48267   9.535  10.579   2.837 -0.0001 -1.0532 -1.1586
  358MOL0     H48268   9.546  10.754   2.876  0.0564 -0.7762  0.8210
  358MOL0     H48269   9.713  10.786   2.698 -0.1559 -0.2304  1.1362
  358MOL0     H48270   9.673  10.630   2.625 -2.8450  0.3433  0.4988
  358MOL0     H48271   9.835  10.515   2.751 -2.6162 -0.0211  1.4560
  358MOL0     H48272   9.897  10.680   2.745  0.0565  2.7336  0.1709
  358MOL0     H48273   9.762  10.714   2.968 -1.4645 -0.6733 -1.5910
  358MOL0     H48274   9.733  10.546   2.979 -1.1985  0.6154  0.2817
  358MOL0     H48275   9.897  10.505   3.100  1.7479  1.4121  1.8551
  358MOL0     H48276   9.994  10.526   2.957  2.2797  2.9245 -0.4331
  358MOL0     H48277   9.915  10.741   3.178 -1.4592 -2.8830  0.1059
  358MOL0     H48278   9.977  10.789   3.018  0.2324  0.6140  0.7829
  358MOL0     H48279  10.176  10.641   3.072 -0.9556  1.5770 -1.3278
  358MOL0     H48280  10.171  10.789   3.165  1.0724  0.0433 -1.3227
  358MOL0     H48281  10.153  10.751   3.449  0.4966  0.7403 -1.2452
  358MOL0     H48282  10.149  10.416   3.638 -0.8005 -1.1393 -1.6528
  358MOL0     H48283  10.217  10.573   3.677 -0.2354 -1.4478  1.4409
  358MOL0     H48284   9.926  10.556   3.597 -0.1505 -2.1396  1.2536
  358MOL0     H48285   9.982  10.501   3.757 -1.9108 -1.9695 -2.4699
  358MOL0     H48286  10.036  10.777   3.617  0.8337 -3.9089 -2.5038
  358MOL0     H48287  10.085  10.734   3.786  0.7741  1.6113 -0.1730
  358MOL0     H48288   9.801  10.784   3.676 -0.6376  1.1873  0.6946
  358MOL0     H48289   9.899  10.887   3.785  0.3541  0.8345 -2.5588
  358MOL0     H48290   9.770  10.525   4.027 -0.4210  1.1175 -1.6077
  358MOL0     H48291   9.559  10.472   4.103  4.0909 -0.2455  0.8200
  358MOL0     H48292   9.068  10.458   4.017 -1.8744  0.4808  0.3465
  358MOL0     H48293   8.871  10.358   4.136 -0.1500  1.5854 -1.1373
  358MOL0     H48294   8.733  10.536   4.364 -0.3838  0.0658  1.2610
  358MOL0     H48295   8.694  10.380   4.282  0.1476 -1.6521  0.4586
  358MOL0     H48296   8.549  10.431   4.453  0.4737  0.3108 -2.0549
  358MOL0     H48297   8.632  10.277   4.492  0.0507  0.8756  1.7333
  358MOL0     H48298   8.784  10.396   4.648  0.2930 -0.6249 -0.3348
  358MOL0     H48299   8.711  10.545   4.628  1.0696 -0.4182  0.5582
  358MOL0     H48300   8.566  10.307   4.748  0.6273 -0.5249 -1.1286
  358MOL0     H48301   8.492  10.463   4.709  0.7607  1.3253  0.8479
  358MOL0     H48302   8.706  10.554   4.849 -0.4971  0.0604  0.7383
  358MOL0     H48303   8.702  10.394   4.918  2.2710 -0.1366  0.3297
  358MOL0     H48304   8.571  10.546   5.062 -0.5390  0.1317  0.0752
  358MOL0     H48305   8.467  10.585   4.921  1.3862 -0.0648 -2.1867
  358MOL0     H48306   8.489  10.317   5.063 -0.2198  0.0954  1.2086
  358MOL0     H48307   8.372  10.365   4.929  2.8043 -1.7972 -1.2575
  358MOL0     H48308   8.299  10.344   5.169 -1.6857  0.1925 -0.6345
  358MOL0     H48309   8.392  10.495   5.203  3.7137 -1.9985 -0.6010
  358MOL0     H48310   9.086  10.436   4.510 -1.4521 -1.8783  0.3920
  358MOL0     H48311   9.287  10.501   4.381  0.2008  2.2191 -1.5794
  358MOL0     H48312   9.379  10.787   3.863 -2.2068 -1.1641  4.0695
  358MOL0     H48313   9.615  10.857   3.795 -1.8583 -0.3349 -0.9171
  358MOL0     H48314   9.302  10.731   2.496  0.4319 -0.6110  0.1907
  358MOL0     H48315   9.074  10.702   2.354  0.0503 -0.0812 -0.3733
  358MOL0     H48316   8.661  10.707   2.345 -0.2012 -1.2535  1.8069
  358MOL0     H48317   8.419  10.700   2.298 -1.6217 -0.7483  0.5987
  358MOL0     H48318   8.200  10.318   2.282  2.4665  0.6810  1.7562
  358MOL0     H48319   8.274  10.335   2.127 -1.7390  1.7084 -2.3912
  358MOL0     H48320   8.031  10.343   2.088  1.0308  0.9554 -1.9908
  358MOL0     H48321   8.072  10.515   2.075 -2.5141 -1.3655 -1.6002
  358MOL0     H48322   8.013  10.559   2.299  0.1253  0.4059  0.0219
  358MOL0     H48323   8.001  10.389   2.345  3.5209  0.2466 -0.1297
  358MOL0     H48324   7.779  10.486   2.322 -2.6411  1.3495 -2.5966
  358MOL0     H48325   7.812  10.542   2.165  0.8529  1.1218  0.8242
  358MOL0     H48326   7.692  10.118   2.182  2.9623 -1.6640 -0.3246
  358MOL0     H48327   8.427  10.289   2.321 -1.3844  0.9658  0.3391
  358MOL0     H48328   8.720  10.209   2.437  3.7763  1.7115 -1.6327
  358MOL0     H48329   8.582  10.158   2.353  1.2301 -1.4117  3.0680
  358MOL0     H48330   8.733  10.211   2.262  1.5143  4.2531 -0.3551
  359MOL0     O48331  11.140  11.023   7.916 -0.0251 -0.1225  0.1466
  359MOL0     C48332  11.041  11.086   7.901  0.6730 -0.8225 -0.5068
  359MOL0     O48333  10.955  11.081   7.792 -1.1580  1.0794 -0.5721
  359MOL0     C48334  10.988  10.998   7.682  0.3014 -0.3762 -1.1929
  359MOL0     C48335  11.111  11.011   7.620 -0.4350 -0.4435 -0.1306
  359MOL0     C48336  11.139  10.949   7.500 -0.9998  0.2280  0.6552
  359MOL0     C48337  11.048  10.867   7.434 -0.6176  0.2689  0.2724
  359MOL0     O48338  11.073  10.804   7.310 -0.6361  0.0625  0.1893
  359MOL0     C48339  11.192  10.838   7.239 -0.2805  0.5487  0.4272
  359MOL0     C48340  11.309  10.744   7.266 -0.5143 -0.4192  0.0004
  359MOL0     C48341  11.430  10.766   7.171  0.2355  0.3596 -0.1972
  359MOL0     C48342  11.493  10.895   7.225 -0.6386  0.4151  0.3542
  359MOL0     C48343  11.607  10.934   7.130 -0.0896  0.3185  0.5293
  359MOL0     C48344  11.700  10.823   7.068 -0.5778 -0.4776 -0.7852
  359MOL0     C48345  11.792  10.749   7.172  0.5305  0.1103 -0.3764
  359MOL0     C48346  11.891  10.662   7.103 -0.0949  0.2446 -0.3702
  359MOL0     N48347  11.982  10.721   7.007 -0.9128 -0.0102  0.1860
  359MOL0     C48348  12.087  10.811   7.043 -0.0312 -0.0595 -0.2055
  359MOL0     C48349  12.124  10.862   6.930  0.5401 -0.0086 -0.4236
  359MOL0     C48350  12.246  10.960   6.929 -0.4096  0.2479  0.3861
  359MOL0     C48351  12.382  10.892   6.867 -0.5667  0.1460 -0.1893
  359MOL0     C48352  12.507  10.975   6.872 -0.2181  0.0923  0.4099
  359MOL0     C48353  12.623  10.883   6.825  0.3361 -0.4538 -0.2022
  359MOL0     O48354  12.744  10.943   6.875 -0.8097 -0.9828  0.5610
  359MOL0     C48355  12.869  10.888   6.844 -0.6001 -0.0531  0.0312
  359MOL0     C48356  12.886  10.767   6.775 -0.3418  1.1132 -0.3242
  359MOL0     C48357  13.019  10.732   6.749  0.1206  0.3831 -0.0867
  359MOL0     C48358  13.133  10.802   6.780  0.3612  0.6706  0.0095
  359MOL0     C48359  13.277  10.751   6.768  0.4343 -0.7386  0.7382
  359MOL0     O48360  13.380  10.814   6.842  0.5601 -0.3373  0.8821
  359MOL0     C48361  13.494  10.746   6.868 -0.2306  0.0163  0.5713
  359MOL0     C48362  13.610  10.829   6.901 -0.5392  0.5043  0.5341
  359MOL0     C48363  13.731  10.767   6.919 -0.2257 -0.3118 -0.2262
  359MOL0     C48364  13.744  10.627   6.897 -0.2053 -0.2953  0.2257
  359MOL0     O48365  13.875  10.582   6.915 -0.5537  0.8258 -0.4769
  359MOL0     C48366  13.889  10.445   6.908 -0.5153  0.6624 -0.5494
  359MOL0     C48367  14.025  10.405   6.964  0.0112  0.3476 -0.8203
  359MOL0     C48368  14.146  10.465   6.900  0.5382 -0.4370  0.1671
  359MOL0     C48369  14.276  10.461   6.985 -1.0607  0.3886  0.4062
  359MOL0     C48370  14.399  10.494   6.902  1.8569  1.2170 -0.6423
  359MOL0     C48371  14.530  10.490   6.985  0.0349  0.0740 -0.6802
  359MOL0     C48372  14.645  10.486   6.886  0.4310  0.7355  0.5871
  359MOL0     C48373  14.777  10.449   6.958  0.2368  0.5332 -0.5161
  359MOL0    Cl48374  14.915  10.460   6.849 -0.0541 -0.1466  0.4369
  359MOL0     C48375  13.634  10.551   6.874  0.0449  0.8556  0.8388
  359MOL0     C48376  13.507  10.610   6.865  0.2580 -0.0510  0.7847
  359MOL0     O48377  13.297  10.670   6.680 -1.3005 -0.0553 -0.0213
  359MOL0     C48378  13.112  10.925   6.837 -0.2935 -0.1893 -0.1677
  359MOL0     C48379  12.980  10.970   6.871  0.3457 -0.4016  0.2911
  359MOL0     N48380  12.048  10.806   6.825 -0.2763 -0.1227 -0.1823
  359MOL0     N48381  11.960  10.729   6.876  0.0782 -0.1588  0.9365
  359MOL0     C48382  10.924  10.854   7.501 -0.3450  0.1221  0.5186
  359MOL0     C48383  10.899  10.913   7.627 -0.2230 -0.5811  0.7040
  359MOL0     C48384  11.003  11.185   7.998  0.2828 -0.0823 -1.2736
  359MOL0     C48385  11.104  11.254   8.056 -0.5611 -0.0644  0.4598
  359MOL0     C48386  11.074  11.369   8.129  0.0406  0.7189  0.5301
  359MOL0     C48387  10.945  11.404   8.159 -0.0896  1.0239  0.7192
  359MOL0     O48388  10.941  11.506   8.253  0.1293 -0.3111 -0.3705
  359MOL0     C48389  10.808  11.555   8.269  0.1041 -0.4719 -0.0941
  359MOL0     C48390  10.845  11.683   8.344  1.0298  0.0701  0.3100
  359MOL0     C48391  10.723  11.733   8.413  1.0229  0.3631  0.9028
  359MOL0     C48392  10.774  11.853   8.492  0.1686 -1.0113  0.4894
  359MOL0     C48393  10.655  11.931   8.524 -0.6647  0.3380  0.1573
  359MOL0     C48394  10.559  11.992   8.554  0.2336 -0.5118  0.5422
  359MOL0     C48395  10.842  11.335   8.093  0.0610 -0.6747 -0.1205
  359MOL0     C48396  10.870  11.222   8.018 -0.1312  0.2210 -0.5264
  359MOL0     C48397  10.748  11.141   7.982 -0.1638 -0.1930 -0.0560
  359MOL0     H48398  11.182  11.072   7.675 -0.1621 -0.5943 -0.3077
  359MOL0     H48399  11.239  10.953   7.459  0.6537  0.0846  4.2685
  359MOL0     H48400  11.164  10.826   7.134  0.8831 -1.9039  0.3453
  359MOL0     H48401  11.226  10.939   7.263 -2.1341  1.0350  1.2388
  359MOL0     H48402  11.257  10.653   7.235  1.3625 -1.2126 -1.0289
  359MOL0     H48403  11.347  10.754   7.368  2.5908  3.6565 -1.2730
  359MOL0     H48404  11.397  10.772   7.067 -0.6531 -0.5421  0.0191
  359MOL0     H48405  11.492  10.676   7.178 -0.7550 -0.4189 -1.0170
  359MOL0     H48406  11.421  10.977   7.227 -0.7589  0.4102 -1.8050
  359MOL0     H48407  11.526  10.868   7.326  2.3063 -3.4954 -1.3780
  359MOL0     H48408  11.566  10.995   7.049  0.7695  3.3741  2.2477
  359MOL0     H48409  11.674  11.003   7.181 -0.4269 -0.0433  1.4843
  359MOL0     H48410  11.645  10.742   7.019 -3.5692 -0.3026  1.9798
  359MOL0     H48411  11.757  10.871   6.988  0.7786 -0.7258  0.0078
  359MOL0     H48412  11.721  10.704   7.242 -2.3293  0.2625 -2.9381
  359MOL0     H48413  11.856  10.820   7.225 -0.4539  1.6092 -1.0920
  359MOL0     H48414  11.945  10.605   7.179 -0.9365 -1.2696 -0.8524
  359MOL0     H48415  11.837  10.587   7.044 -1.4366  1.1966 -0.3872
  359MOL0     H48416  12.123  10.838   7.142  0.7009 -0.2851 -0.4094
  359MOL0     H48417  12.213  11.047   6.871  1.4552  1.5922  1.2173
  359MOL0     H48418  12.281  10.999   7.026  2.3046  1.9631 -1.1313
  359MOL0     H48419  12.396  10.795   6.918  1.0695 -1.2419 -3.0487
  359MOL0     H48420  12.356  10.859   6.766 -0.3410 -1.5596  0.2695
  359MOL0     H48421  12.525  11.005   6.976 -3.1841  1.7071  0.5635
  359MOL0     H48422  12.492  11.064   6.811 -1.0960 -1.1101 -1.2144
  359MOL0     H48423  12.611  10.878   6.717 -2.3940  2.1720 -0.1556
  359MOL0     H48424  12.615  10.787   6.877  0.5465 -1.5513 -2.1329
  359MOL0     H48425  12.809  10.698   6.742  4.3012 -4.3731 -1.3586
  359MOL0     H48426  13.035  10.631   6.712 -0.1965 -0.0588  0.9406
  359MOL0     H48427  13.592  10.935   6.914 -0.0001  0.6281  0.2836
  359MOL0     H48428  13.823  10.822   6.934 -0.5465  0.4383 -0.9656
  359MOL0     H48429  13.826  10.375   6.963  0.4425  0.2645  0.0773
  359MOL0     H48430  13.876  10.417   6.803 -2.5773 -0.0256 -0.1530
  359MOL0     H48431  14.022  10.437   7.069 -1.7530 -0.0850 -0.7046
  359MOL0     H48432  14.033  10.297   6.951  4.8624 -0.0189  2.7461
  359MOL0     H48433  14.147  10.406   6.808  0.3191 -0.4682  0.1842
  359MOL0     H48434  14.132  10.571   6.874 -0.6172 -0.4889  0.4992
  359MOL0     H48435  14.296  10.358   7.017 -0.6227 -1.3031 -4.4985
  359MOL0     H48436  14.264  10.530   7.069  0.4551  1.0463  0.1179
  359MOL0     H48437  14.373  10.587   6.851 -0.8971  0.2611 -1.1376
  359MOL0     H48438  14.397  10.418   6.823  2.3459 -1.8111  2.0301
  359MOL0     H48439  14.538  10.572   7.058 -1.5349 -1.0809  0.8679
  359MOL0     H48440  14.532  10.397   7.042  0.9874  0.1094 -0.6445
  359MOL0     H48441  14.650  10.582   6.835  0.3530  0.2031 -0.4540
  359MOL0     H48442  14.622  10.413   6.807 -2.3948  0.7837  1.2680
  359MOL0     H48443  14.804  10.509   7.046  0.3020 -1.3148  0.7884
  359MOL0     H48444  14.772  10.351   7.005  1.0743  0.2879 -0.9228
  359MOL0     H48445  13.645  10.443   6.878  1.6584  1.0058  3.7284
  359MOL0     H48446  13.420  10.551   6.840  0.5863  0.3261 -1.4160
  359MOL0     H48447  13.195  10.990   6.863  0.4984 -0.8327 -1.0489
  359MOL0     H48448  12.965  11.062   6.927  0.9255  0.3871 -0.8000
  359MOL0     H48449  10.848  10.806   7.440  1.5286  1.1724 -2.8596
  359MOL0     H48450  10.802  10.912   7.675  0.0253  1.4842  1.3416
  359MOL0     H48451  11.208  11.223   8.051 -0.8469 -0.8553 -0.9102
  359MOL0     H48452  11.158  11.419   8.176 -0.0125 -0.6630  2.2107
  359MOL0     H48453  10.752  11.482   8.328 -4.0978  1.6588 -1.0508
  359MOL0     H48454  10.751  11.562   8.175 -0.6858  0.1577  0.4169
  359MOL0     H48455  10.874  11.764   8.277 -0.6798  1.1712  0.8332
  359MOL0     H48456  10.928  11.665   8.414  1.5420 -1.8451 -0.7068
  359MOL0     H48457  10.695  11.649   8.476 -2.5696 -0.1750 -1.1384
  359MOL0     H48458  10.653  11.769   8.337  3.4954  1.1018 -1.1711
  359MOL0     H48459  10.815  11.826   8.590  1.1071 -0.9023  0.1377
  359MOL0     H48460  10.841  11.918   8.435 -2.7302  0.0334 -1.9971
  359MOL0     H48461  10.475  12.053   8.581  1.1534  1.1659 -0.2228
  359MOL0     H48462  10.739  11.360   8.118  0.8847  0.7921  2.1247
  359MOL0     H48463  10.707  11.195   7.896  0.1630  2.0837  1.1376
  359MOL0     H48464  10.775  11.042   7.944  3.3814 -0.4825  2.7294
  359MOL0     H48465  10.666  11.123   8.052  0.1663 -3.6494 -0.3918
  360MOL0     O48466   6.399   3.468   2.274 -0.0497  0.0118 -0.0100
  360MOL0     C48467   6.420   3.430   2.157  0.3401  0.7189 -1.0326
  360MOL0     O48468   6.530   3.452   2.091  0.7533 -0.6180 -0.3640
  360MOL0     C48469   6.632   3.521   2.132  0.1362  0.8525  0.0658
  360MOL0     C48470   6.664   3.556   2.266 -0.5782 -1.0126 -0.2972
  360MOL0     C48471   6.770   3.641   2.294 -0.6468 -0.0708 -0.1308
  360MOL0     C48472   6.851   3.689   2.184  0.1981  0.3852 -0.1323
  360MOL0     O48473   6.955   3.774   2.213  0.4159  0.2205 -1.1352
  360MOL0     C48474   7.067   3.789   2.131  0.3042 -0.5896  0.3781
  360MOL0     C48475   7.186   3.854   2.196 -0.5642 -0.0711 -0.0937
  360MOL0     C48476   7.310   3.876   2.111 -0.6971  0.4302 -0.1959
  360MOL0     C48477   7.394   3.992   2.164  0.5971  0.1951 -0.6340
  360MOL0     C48478   7.499   4.051   2.070 -0.1261  0.9160 -0.1090
  360MOL0     C48479   7.609   3.941   2.041 -0.3337 -0.3027 -0.1404
  360MOL0     C48480   7.719   4.003   1.957  1.3187  0.0976  0.4098
  360MOL0     C48481   7.818   3.907   1.904 -0.1827 -0.1510 -0.1365
  360MOL0     N48482   7.912   3.978   1.815 -0.9535  0.3773 -0.2873
  360MOL0     C48483   7.889   3.989   1.683  0.2005 -0.8431  0.1676
  360MOL0     C48484   7.987   4.070   1.639  0.2977  0.5767 -0.8381
  360MOL0     C48485   8.006   4.111   1.493 -0.2921  0.6929  1.1907
  360MOL0     C48486   8.031   3.979   1.418  0.2750 -0.3720  0.4957
  360MOL0     C48487   8.105   3.986   1.285  0.2021  0.1916 -0.1581
  360MOL0     C48488   8.113   3.848   1.223 -0.1556 -0.2670 -0.1660
  360MOL0     O48489   8.125   3.740   1.315 -0.1845  0.3287  0.3922
  360MOL0     C48490   8.240   3.669   1.285 -0.5420 -0.1689 -0.1332
  360MOL0     C48491   8.354   3.699   1.356 -0.0686 -0.1272 -1.0690
  360MOL0     C48492   8.475   3.640   1.334  0.5326 -0.0044 -0.7345
  360MOL0     C48493   8.490   3.543   1.235  0.6513  0.0038 -0.1220
  360MOL0     C48494   8.620   3.476   1.216 -0.1352 -0.7970  0.3352
  360MOL0     O48495   8.625   3.375   1.121 -0.1193 -0.5593 -0.4134
  360MOL0     C48496   8.730   3.299   1.091  0.0888  0.2024 -0.6327
  360MOL0     C48497   8.847   3.352   1.037 -0.5463 -0.0924  0.5263
  360MOL0     C48498   8.956   3.271   0.987 -0.3355  0.6516 -0.2358
  360MOL0     C48499   8.937   3.136   0.988 -0.4711  0.2680 -0.7431
  360MOL0     O48500   9.030   3.051   0.926  0.3536 -0.4396  0.2198
  360MOL0     C48501   9.083   3.098   0.797 -0.7758 -0.0645  0.1795
  360MOL0     C48502   9.152   2.984   0.715  0.2690 -0.2002  0.5090
  360MOL0     C48503   9.053   2.878   0.672  0.5654  0.0020  0.3436
  360MOL0     C48504   9.114   2.773   0.581 -0.4896 -0.7618 -0.3690
  360MOL0     C48505   9.015   2.721   0.481 -0.6955 -0.1436  0.0225
  360MOL0     C48506   9.045   2.580   0.422  1.4804  0.4435 -0.0208
  360MOL0     C48507   8.913   2.529   0.349 -0.9013 -0.0509  0.9474
  360MOL0     C48508   8.937   2.419   0.250  0.3856  0.6558 -0.7313
  360MOL0    Cl48509   8.959   2.490   0.090  0.1045  0.1245  0.3571
  360MOL0     C48510   8.819   3.079   1.048  0.0218 -0.3440  0.1079
  360MOL0     C48511   8.715   3.164   1.093  0.2115  0.9549  0.6883
  360MOL0     O48512   8.719   3.535   1.261 -0.4376 -1.2870 -0.2062
  360MOL0     C48513   8.375   3.502   1.168 -0.3204 -0.4222  0.1957
  360MOL0     C48514   8.254   3.568   1.186  0.5290 -0.0524  0.2467
  360MOL0     N48515   8.061   4.121   1.746  0.6714 -0.6622  0.4098
  360MOL0     N48516   8.015   4.059   1.851  0.8228  0.3989  0.4109
  360MOL0     C48517   6.830   3.632   2.052  0.2954 -0.2197 -0.4060
  360MOL0     C48518   6.722   3.543   2.031 -0.5830 -1.4023  0.2868
  360MOL0     C48519   6.317   3.342   2.099 -0.2846  0.1690 -0.6549
  360MOL0     C48520   6.356   3.267   1.988 -0.0191  0.6090  0.3126
  360MOL0     C48521   6.258   3.189   1.924 -0.0639 -0.3727  0.1000
  360MOL0     C48522   6.127   3.182   1.972  0.3281  0.7599  0.2469
  360MOL0     O48523   6.030   3.091   1.925 -0.5064 -0.1481 -0.3216
  360MOL0     C48524   6.063   2.987   1.838  1.6207 -0.2508 -0.4758
  360MOL0     C48525   5.951   2.883   1.812  0.1178  0.1817  0.6185
  360MOL0     C48526   5.801   2.936   1.804  0.0679  0.1322  0.8193
  360MOL0     C48527   5.744   2.972   1.664 -0.2527  0.0143  0.0780
  360MOL0     C48528   5.604   3.017   1.664  0.4533  0.3042  0.2624
  360MOL0     C48529   5.503   3.075   1.656  0.2790 -0.8098  1.1359
  360MOL0     C48530   6.102   3.253   2.087  0.1935  0.0227  0.2629
  360MOL0     C48531   6.184   3.339   2.150 -0.0506  0.4039 -0.9375
  360MOL0     C48532   6.118   3.415   2.257  0.2513 -0.0300 -0.1591
  360MOL0     H48533   6.610   3.520   2.353  2.2149 -0.2991  1.8553
  360MOL0     H48534   6.795   3.655   2.398  0.2303 -0.6314 -0.2533
  360MOL0     H48535   7.112   3.690   2.118 -0.9791 -1.3692  1.6320
  360MOL0     H48536   7.039   3.832   2.035 -1.5637 -0.9795  0.7040
  360MOL0     H48537   7.203   3.788   2.281 -2.7191 -2.1622 -1.1652
  360MOL0     H48538   7.155   3.952   2.235 -0.4709  0.0010 -0.1972
  360MOL0     H48539   7.278   3.893   2.008 -2.0276 -1.3548 -0.1218
  360MOL0     H48540   7.360   3.779   2.119  0.0277  0.8968  1.3777
  360MOL0     H48541   7.336   4.075   2.204  0.8148 -0.1047  0.3309
  360MOL0     H48542   7.437   3.951   2.256  0.5609  1.3098 -0.1118
  360MOL0     H48543   7.455   4.084   1.976  1.1977 -0.5126 -1.2899
  360MOL0     H48544   7.542   4.140   2.118  1.7738  1.8611 -3.2542
  360MOL0     H48545   7.647   3.901   2.136  0.0236 -0.0581 -0.1774
  360MOL0     H48546   7.570   3.857   1.983 -0.8089 -0.7649  0.8165
  360MOL0     H48547   7.764   4.093   2.000  1.1089  1.3290 -1.7494
  360MOL0     H48548   7.664   4.040   1.869 -2.6173 -2.5784  1.4743
  360MOL0     H48549   7.871   3.860   1.988 -2.5635 -0.9217  1.0141
  360MOL0     H48550   7.764   3.829   1.849  0.1376 -0.4796  0.0068
  360MOL0     H48551   7.813   3.939   1.624 -1.6449  0.2093  1.5437
  360MOL0     H48552   7.929   4.178   1.454 -0.1414  0.4118  0.3889
  360MOL0     H48553   8.105   4.157   1.499 -0.1967  0.3330  2.7064
  360MOL0     H48554   8.093   3.916   1.482  0.7447 -1.6460 -1.1350
  360MOL0     H48555   7.936   3.927   1.401 -1.6433  2.8887  0.3554
  360MOL0     H48556   8.208   4.018   1.304  0.9520 -1.8920 -0.5335
  360MOL0     H48557   8.053   4.055   1.217  0.0359  2.4175  2.0643
  360MOL0     H48558   8.185   3.853   1.141  2.5592  0.0164  2.0923
  360MOL0     H48559   8.016   3.830   1.175 -1.2598  2.0972  1.0249
  360MOL0     H48560   8.345   3.775   1.433  0.8026 -0.0325 -1.0545
  360MOL0     H48561   8.557   3.665   1.401  0.6591 -1.6907 -0.2113
  360MOL0     H48562   8.849   3.460   1.031 -1.7261 -0.1032 -0.4573
  360MOL0     H48563   9.040   3.325   0.943 -1.4786  1.8221 -1.0753
  360MOL0     H48564   9.007   3.151   0.739 -0.7842  1.3669  1.4508
  360MOL0     H48565   9.158   3.174   0.819 -1.0064  0.3633 -0.5022
  360MOL0     H48566   9.185   3.037   0.624  4.3807  0.8390  2.3569
  360MOL0     H48567   9.243   2.938   0.755  2.3742  2.1150 -1.2356
  360MOL0     H48568   9.013   2.830   0.762 -3.0674 -0.4887 -1.3584
  360MOL0     H48569   8.979   2.932   0.613 -2.8104 -2.5505  1.9246
  360MOL0     H48570   9.170   2.693   0.631  1.7657 -0.4434 -2.1905
  360MOL0     H48571   9.183   2.815   0.507  2.8393 -5.5698 -0.4349
  360MOL0     H48572   9.023   2.781   0.391  0.2703 -1.7405 -1.0002
  360MOL0     H48573   8.919   2.722   0.533  0.3078  0.8274  1.9844
  360MOL0     H48574   9.131   2.587   0.355  1.2450  4.0451 -0.1215
  360MOL0     H48575   9.075   2.500   0.491  1.1460 -1.7926 -2.3401
  360MOL0     H48576   8.869   2.612   0.293  2.6240  1.0642 -0.4047
  360MOL0     H48577   8.847   2.490   0.427 -0.7450  1.0887  1.6738
  360MOL0     H48578   9.015   2.346   0.274 -1.1058 -0.5318  0.8056
  360MOL0     H48579   8.844   2.362   0.244  0.7594  0.0498 -0.8459
  360MOL0     H48580   8.808   2.972   1.054 -0.7299 -0.3526 -1.1130
  360MOL0     H48581   8.628   3.123   1.144  1.6448 -0.7578  1.8392
  360MOL0     H48582   8.380   3.423   1.093 -1.8451 -1.5120  1.1949
  360MOL0     H48583   8.165   3.543   1.130  0.3416  2.7576 -0.8653
  360MOL0     H48584   6.899   3.653   1.972  0.1982  0.5816 -0.2939
  360MOL0     H48585   6.703   3.511   1.929  0.6913 -1.9709  0.2057
  360MOL0     H48586   6.455   3.274   1.945 -0.0908  1.1535  0.2321
  360MOL0     H48587   6.286   3.150   1.827 -0.4585  0.7854 -0.4880
  360MOL0     H48588   6.140   2.917   1.871 -2.0799 -5.9370 -2.3737
  360MOL0     H48589   6.111   3.033   1.751  3.7322 -1.2023  0.1318
  360MOL0     H48590   5.955   2.814   1.897 -2.8752  0.7416  1.3248
  360MOL0     H48591   5.971   2.820   1.724  1.0401 -1.8393  2.1877
  360MOL0     H48592   5.793   3.013   1.881 -0.8382 -3.2231  4.4141
  360MOL0     H48593   5.739   2.853   1.840  0.6490 -0.3664  0.6966
  360MOL0     H48594   5.808   3.049   1.618  2.3175 -0.8709  1.9542
  360MOL0     H48595   5.758   2.883   1.602 -0.7544 -0.3651  0.5131
  360MOL0     H48596   5.409   3.123   1.639  1.5759  1.3629 -0.3880
  360MOL0     H48597   6.009   3.233   2.138  0.7419 -0.0837  1.2431
  360MOL0     H48598   6.010   3.413   2.240  0.4270 -2.8063 -1.5405
  360MOL0     H48599   6.130   3.353   2.346 -1.1567  1.1780  0.9190
  360MOL0     H48600   6.150   3.519   2.272 -1.9890  0.6560  0.2596
  361MOL0     O48601   4.050   1.055   4.258  0.0673  0.0668 -0.5929
  361MOL0     C48602   4.131   0.962   4.250 -0.0512 -1.4212  0.5766
  361MOL0     O48603   4.262   0.975   4.272 -0.5935  0.4829  0.4341
  361MOL0     C48604   4.305   1.048   4.381  0.3859  0.2121  0.9430
  361MOL0     C48605   4.442   1.091   4.377 -0.1305 -0.3360  0.5244
  361MOL0     C48606   4.499   1.156   4.486 -0.1684  0.3050  0.1482
  361MOL0     C48607   4.427   1.170   4.607 -0.3488 -0.6938 -0.3163
  361MOL0     O48608   4.488   1.237   4.717  0.2330 -0.4400 -0.5603
  361MOL0     C48609   4.604   1.165   4.766 -0.0722 -0.0580  0.2760
  361MOL0     C48610   4.749   1.223   4.762 -0.3179  0.7029  0.0558
  361MOL0     C48611   4.746   1.369   4.815  0.8040 -0.1921 -0.0451
  361MOL0     C48612   4.877   1.430   4.827 -0.5266  0.5325  0.0001
  361MOL0     C48613   4.968   1.379   4.934 -0.2913 -0.3777 -0.2555
  361MOL0     C48614   5.072   1.486   4.953  0.4235  0.7654  0.1738
  361MOL0     C48615   5.187   1.425   5.039  0.2954  0.2074  0.0384
  361MOL0     C48616   5.291   1.541   5.071  0.4685  0.2125  0.2708
  361MOL0     N48617   5.425   1.492   5.113 -0.4132 -0.0224 -0.3887
  361MOL0     C48618   5.450   1.399   5.209  0.2933  0.5087 -0.6493
  361MOL0     C48619   5.579   1.410   5.235 -0.3049 -0.1529  0.7540
  361MOL0     C48620   5.665   1.328   5.326  0.2906 -0.0756  0.1639
  361MOL0     C48621   5.602   1.316   5.467 -0.5279  0.3761 -0.3555
  361MOL0     C48622   5.665   1.212   5.565 -0.4360  0.5748 -0.0315
  361MOL0     C48623   5.818   1.209   5.557  0.3726 -0.3763 -0.2149
  361MOL0     O48624   5.869   1.339   5.588 -0.0977  0.2730 -0.1445
  361MOL0     C48625   6.006   1.350   5.574  0.4395 -0.9937  0.2694
  361MOL0     C48626   6.047   1.473   5.618 -0.1245 -0.3233  0.6175
  361MOL0     C48627   6.182   1.510   5.605  0.4351 -0.7127  0.3181
  361MOL0     C48628   6.276   1.416   5.565 -0.8425  0.9008 -0.5725
  361MOL0     C48629   6.418   1.458   5.579 -0.5952  0.3880 -0.5857
  361MOL0     O48630   6.447   1.589   5.600  1.0518 -0.7514 -0.3462
  361MOL0     C48631   6.572   1.625   5.639  0.6143 -0.0039  0.4983
  361MOL0     C48632   6.597   1.597   5.774 -0.3348  0.7978 -0.0437
  361MOL0     C48633   6.715   1.649   5.835 -0.6573 -0.3243 -0.3768
  361MOL0     C48634   6.809   1.718   5.759 -0.3831  0.3589  0.5351
  361MOL0     O48635   6.921   1.784   5.811 -0.2499 -0.3350  0.5548
  361MOL0     C48636   6.931   1.786   5.956 -0.7359 -0.1190  0.4563
  361MOL0     C48637   7.053   1.859   6.002  0.0343  0.0535  0.1455
  361MOL0     C48638   7.114   1.794   6.126  0.0248  0.4698 -0.1177
  361MOL0     C48639   7.241   1.871   6.177  0.2686 -0.1572  0.4569
  361MOL0     C48640   7.265   1.841   6.324 -0.0373  1.2405 -0.2225
  361MOL0     C48641   7.332   1.707   6.344  0.7574 -0.4831  0.2355
  361MOL0     C48642   7.352   1.659   6.483 -0.1549  1.3516 -0.5813
  361MOL0     C48643   7.447   1.536   6.493  1.2665  0.3868 -0.5802
  361MOL0    Cl48644   7.601   1.564   6.413  0.1186 -0.0574 -0.0219
  361MOL0     C48645   6.787   1.733   5.625  0.4754  0.0985  0.3845
  361MOL0     C48646   6.667   1.699   5.563 -0.4810 -0.5803 -0.6181
  361MOL0     O48647   6.505   1.372   5.573 -0.2102  1.3183 -0.9194
  361MOL0     C48648   6.233   1.289   5.526 -0.3158  0.1210 -0.4626
  361MOL0     C48649   6.095   1.259   5.525 -0.0602  1.0095  0.1259
  361MOL0     N48650   5.632   1.501   5.146 -0.0818  0.1420 -0.8050
  361MOL0     N48651   5.543   1.547   5.070  0.4449 -0.3911 -0.0986
  361MOL0     C48652   4.296   1.135   4.614  0.9208 -0.1523  0.6931
  361MOL0     C48653   4.230   1.081   4.498  0.1887 -0.3753  0.6992
  361MOL0     C48654   4.071   0.830   4.208  0.5105  0.5701 -0.3178
  361MOL0     C48655   4.153   0.721   4.201 -1.2740  0.4301  1.0106
  361MOL0     C48656   4.103   0.595   4.164 -0.0533 -0.1372  0.3818
  361MOL0     C48657   3.970   0.580   4.132 -0.3212  0.8243  0.3608
  361MOL0     O48658   3.930   0.458   4.081  0.0539  0.1614  0.6990
  361MOL0     C48659   3.812   0.447   3.988 -0.3998 -0.6199 -0.4601
  361MOL0     C48660   3.805   0.301   3.930  0.3723  0.6725 -0.8778
  361MOL0     C48661   3.768   0.193   4.041 -0.7382 -0.1395  0.2514
  361MOL0     C48662   3.902   0.122   4.084 -0.6120 -0.8273 -0.3541
  361MOL0     C48663   3.950   0.037   3.977 -0.3827 -1.0647  0.2512
  361MOL0     C48664   3.996  -0.051   3.903  0.2213 -0.4336 -0.1672
  361MOL0     C48665   3.884   0.692   4.142 -0.6105 -0.2606 -0.1210
  361MOL0     C48666   3.932   0.819   4.177 -0.1213  0.1296 -0.4370
  361MOL0     C48667   3.822   0.924   4.185  0.6690  0.7263  0.3189
  361MOL0     H48668   4.500   1.063   4.289  1.7816  1.3532  1.1499
  361MOL0     H48669   4.603   1.186   4.491 -0.0269 -0.3337  3.4765
  361MOL0     H48670   4.569   1.148   4.868  1.1803 -1.8383  0.4463
  361MOL0     H48671   4.599   1.069   4.715 -2.7751 -0.8875  1.9028
  361MOL0     H48672   4.783   1.207   4.659 -3.2159 -1.3485 -0.7010
  361MOL0     H48673   4.813   1.160   4.824  0.9165  2.0119  0.1678
  361MOL0     H48674   4.704   1.369   4.916  1.1169 -1.9005  0.1177
  361MOL0     H48675   4.682   1.430   4.751  3.5549  2.2624 -0.6791
  361MOL0     H48676   4.914   1.422   4.725 -3.0071 -1.8652 -0.8099
  361MOL0     H48677   4.857   1.537   4.839 -2.1410  0.4037 -1.2642
  361MOL0     H48678   4.926   1.350   5.031  1.2894  0.4560  0.7143
  361MOL0     H48679   5.018   1.289   4.896 -2.0732 -0.7297 -1.8775
  361MOL0     H48680   5.113   1.511   4.855 -0.9417 -1.5259 -1.0689
  361MOL0     H48681   5.017   1.572   4.990 -2.3015 -0.3171 -1.1541
  361MOL0     H48682   5.239   1.350   4.977 -0.0980 -0.1183  0.1002
  361MOL0     H48683   5.155   1.368   5.126  2.8416 -0.4268  0.6631
  361MOL0     H48684   5.309   1.595   4.977  2.4966  0.0894  0.5558
  361MOL0     H48685   5.252   1.610   5.146 -1.0857  0.1170 -0.4025
  361MOL0     H48686   5.383   1.330   5.260 -1.8295  1.7462 -1.6347
  361MOL0     H48687   5.694   1.235   5.278  1.5045  0.3285  0.0826
  361MOL0     H48688   5.751   1.395   5.335 -1.7053  2.4142  2.6314
  361MOL0     H48689   5.618   1.413   5.516 -0.9696  0.0769  0.4104
  361MOL0     H48690   5.494   1.299   5.466 -0.3643 -0.8173 -2.1024
  361MOL0     H48691   5.622   1.112   5.555  0.4976  0.0600  0.8671
  361MOL0     H48692   5.629   1.236   5.665 -2.5470  3.1531 -1.3062
  361MOL0     H48693   5.843   1.184   5.454  3.5575  3.3649 -0.5954
  361MOL0     H48694   5.863   1.133   5.622 -0.9765 -3.1826 -2.3608
  361MOL0     H48695   5.977   1.543   5.663 -2.2722 -2.7261  1.2759
  361MOL0     H48696   6.224   1.603   5.641  0.4296 -0.6967  0.2836
  361MOL0     H48697   6.529   1.542   5.838 -0.6652  2.0940  0.7337
  361MOL0     H48698   6.729   1.642   5.943 -0.5222  0.2530 -0.3566
  361MOL0     H48699   6.843   1.836   5.997 -2.5082  0.4127 -3.5812
  361MOL0     H48700   6.947   1.687   6.000  1.8074 -0.3370 -0.7712
  361MOL0     H48701   7.134   1.868   5.930  0.0471  0.9663  0.2533
  361MOL0     H48702   7.023   1.961   6.031 -2.5425 -1.4828  3.7030
  361MOL0     H48703   7.037   1.800   6.203  1.2732  0.3881  1.1698
  361MOL0     H48704   7.145   1.689   6.123 -3.1745 -0.6510  1.7714
  361MOL0     H48705   7.216   1.976   6.155  0.2697 -0.5375 -1.5502
  361MOL0     H48706   7.333   1.848   6.123 -0.0189 -1.1661  0.3799
  361MOL0     H48707   7.176   1.843   6.389  0.6348 -1.7674  0.9693
  361MOL0     H48708   7.330   1.915   6.372 -3.0975  4.5309 -0.6913
  361MOL0     H48709   7.291   1.628   6.279  3.0858 -0.1473 -1.7932
  361MOL0     H48710   7.433   1.721   6.303  0.1593  0.2431 -1.0383
  361MOL0     H48711   7.253   1.632   6.519  0.6115 -1.4234 -0.2988
  361MOL0     H48712   7.395   1.737   6.547 -0.8185  0.5551  0.8849
  361MOL0     H48713   7.468   1.504   6.595  3.0788  2.5691 -0.1942
  361MOL0     H48714   7.388   1.452   6.453 -0.3604  0.7759  0.8847
  361MOL0     H48715   6.862   1.786   5.567  1.0040 -0.6110  0.4117
  361MOL0     H48716   6.639   1.718   5.460 -1.6522  0.7488 -0.0731
  361MOL0     H48717   6.306   1.211   5.509 -0.4378  0.0852 -0.8179
  361MOL0     H48718   6.060   1.162   5.491  0.1638  0.2060  2.0397
  361MOL0     H48719   4.234   1.173   4.695 -0.3723  1.5610 -0.9806
  361MOL0     H48720   4.126   1.052   4.509  0.1478  0.6344  4.5103
  361MOL0     H48721   4.260   0.739   4.202 -0.7183 -2.4072  0.7001
  361MOL0     H48722   4.177   0.516   4.164 -1.5895 -1.6830  1.8837
  361MOL0     H48723   3.825   0.523   3.910  3.1000 -0.9456 -0.3500
  361MOL0     H48724   3.726   0.465   4.053  1.4683 -2.0129  2.6134
  361MOL0     H48725   3.908   0.285   3.897 -0.0779  0.2291 -2.1344
  361MOL0     H48726   3.738   0.301   3.844  1.1767 -0.2671 -1.5236
  361MOL0     H48727   3.698   0.116   4.007 -1.3212  0.4838  0.0002
  361MOL0     H48728   3.718   0.249   4.120  1.4388  1.3732  0.6642
  361MOL0     H48729   3.977   0.200   4.103 -1.7360 -0.4124  3.0677
  361MOL0     H48730   3.901   0.057   4.172  1.0826 -1.5520 -0.8316
  361MOL0     H48731   4.016  -0.132   3.836 -0.7385 -0.0829 -0.9130
  361MOL0     H48732   3.780   0.671   4.120 -0.2041 -0.4904 -2.0468
  361MOL0     H48733   3.733   0.881   4.139 -0.3580  0.6906  2.2385
  361MOL0     H48734   3.801   0.948   4.289 -1.9141 -5.0697  1.5061
  361MOL0     H48735   3.854   1.005   4.118  0.1066 -0.1168 -1.0244
  362MOL0     O48736   7.426  10.624   8.662 -0.9637 -0.6889 -0.1766
  362MOL0     C48737   7.338  10.584   8.593 -0.0767  1.0879  0.9623
  362MOL0     O48738   7.330  10.598   8.457 -0.1957  0.0192 -0.3941
  362MOL0     C48739   7.410  10.696   8.395  0.3360  0.4401 -0.7061
  362MOL0     C48740   7.366  10.817   8.360  1.1330 -0.3266  0.2421
  362MOL0     C48741   7.458  10.914   8.309  0.6787  0.4952  0.4318
  362MOL0     C48742   7.594  10.890   8.299  0.2812  0.0865 -0.8125
  362MOL0     O48743   7.674  10.992   8.257 -0.0994 -0.4662  0.0035
  362MOL0     C48744   7.812  10.972   8.210  0.1550  0.0213 -0.5098
  362MOL0     C48745   7.866  11.102   8.150 -0.2490  0.1697 -0.0113
  362MOL0     C48746   7.769  11.167   8.045  1.5972  0.1279  0.4451
  362MOL0     C48747   7.761  11.082   7.918  1.0280  0.0453 -0.6808
  362MOL0     C48748   7.674  11.137   7.803 -0.2177  0.0386 -0.0898
  362MOL0     C48749   7.529  11.149   7.828  0.5245 -0.4322 -0.0989
  362MOL0     C48750   7.462  11.013   7.855  0.0149  0.3509 -0.4962
  362MOL0     C48751   7.338  11.056   7.928 -0.3169 -0.0312  0.1058
  362MOL0     N48752   7.243  10.950   7.926  0.5279 -0.0724 -0.5077
  362MOL0     C48753   7.200  10.882   8.038  0.1513 -0.2163  0.0996
  362MOL0     C48754   7.112  10.783   7.983  0.6926 -0.1257 -1.2583
  362MOL0     C48755   7.041  10.676   8.064 -0.1167 -0.4090  0.3043
  362MOL0     C48756   7.133  10.561   8.089 -0.0795 -0.5444  1.0932
  362MOL0     C48757   7.163  10.478   7.956  0.1354  0.0846  0.6277
  362MOL0     C48758   7.296  10.523   7.888  0.0362  0.8661  0.3032
  362MOL0     O48759   7.407  10.487   7.974  0.1259  0.0272  0.4858
  362MOL0     C48760   7.525  10.542   7.942 -0.1065  0.2667  0.1281
  362MOL0     C48761   7.628  10.548   8.043  0.1376  0.5403  0.0272
  362MOL0     C48762   7.758  10.606   8.022  0.1862 -0.6332  0.5999
  362MOL0     C48763   7.792  10.641   7.896  0.5098 -0.0609  0.1052
  362MOL0     C48764   7.932  10.687   7.871  0.0983  0.2830 -0.2083
  362MOL0     O48765   7.985  10.772   7.966  0.1573  0.2020  0.6609
  362MOL0     C48766   8.105  10.826   7.925 -0.4533 -0.3099 -0.5150
  362MOL0     C48767   8.221  10.783   7.993  0.5559  0.0372 -0.4072
  362MOL0     C48768   8.341  10.842   7.962  0.4754 -0.4909 -0.1542
  362MOL0     C48769   8.355  10.946   7.869 -0.4659 -0.3649 -0.3136
  362MOL0     O48770   8.477  11.000   7.845  0.9760  0.2404 -0.2158
  362MOL0     C48771   8.580  10.995   7.943 -0.8450  0.5823  0.7049
  362MOL0     C48772   8.707  11.072   7.905  0.2083  0.3133  0.2072
  362MOL0     C48773   8.682  11.218   7.852 -0.1510  0.8215  0.4086
  362MOL0     C48774   8.823  11.282   7.841  0.4392  0.0870 -0.0597
  362MOL0     C48775   8.902  11.293   7.979  1.1133 -0.2519 -0.0766
  362MOL0     C48776   9.022  11.388   7.974  0.5999 -0.3280  0.6470
  362MOL0     C48777   9.006  11.528   7.911 -0.1219  0.4584  0.0680
  362MOL0     C48778   8.942  11.629   8.004 -0.4026  1.3438 -0.2340
  362MOL0    Cl48779   9.045  11.661   8.148 -0.3103 -0.3265 -0.3498
  362MOL0     C48780   8.241  10.977   7.783  0.6280 -0.0167  0.0358
  362MOL0     C48781   8.118  10.910   7.814 -0.3640  0.1312 -0.4675
  362MOL0     O48782   7.984  10.654   7.768 -0.2883 -0.6170  0.4502
  362MOL0     C48783   7.693  10.631   7.794 -0.1252  0.2845  0.0022
  362MOL0     C48784   7.562  10.585   7.812 -0.4149  0.1644 -0.2311
  362MOL0     N48785   7.102  10.800   7.844 -0.3786 -0.7015  1.1892
  362MOL0     N48786   7.186  10.893   7.816 -0.4341 -0.2579  0.3870
  362MOL0     C48787   7.634  10.761   8.342  0.0743  0.0586 -0.8898
  362MOL0     C48788   7.542  10.670   8.383  0.5914 -0.5108 -0.3471
  362MOL0     C48789   7.228  10.506   8.659 -0.9186  0.2780  0.1210
  362MOL0     C48790   7.215  10.531   8.793  0.4382  0.7340 -0.0140
  362MOL0     C48791   7.112  10.475   8.873 -0.0862 -0.7550  0.3039
  362MOL0     C48792   7.023  10.385   8.803  0.4831 -0.3151 -0.5957
  362MOL0     O48793   6.915  10.345   8.874  0.5155 -0.1697 -0.9991
  362MOL0     C48794   6.915  10.201   8.889  0.2446  1.1349  0.0592
  362MOL0     C48795   6.915  10.164   9.037 -0.0902 -0.4967  0.1561
  362MOL0     C48796   6.941  10.019   9.046 -0.2998  1.0299 -1.2452
  362MOL0     C48797   6.831   9.919   8.991 -0.3679 -1.1983 -0.1509
  362MOL0     C48798   6.704   9.930   9.060  0.2939 -0.5132  0.0823
  362MOL0     C48799   6.599   9.942   9.113  0.1921  0.4184  0.4039
  362MOL0     C48800   7.046  10.357   8.669 -0.2587  0.6856  0.7020
  362MOL0     C48801   7.149  10.416   8.593  0.1379 -0.0029 -0.0836
  362MOL0     C48802   7.155  10.387   8.443 -0.2853  0.8448  0.0161
  362MOL0     H48803   7.261  10.829   8.381  0.7338 -1.1409 -1.1787
  362MOL0     H48804   7.422  11.009   8.272 -0.6502  0.5119  1.6926
  362MOL0     H48805   7.872  10.947   8.298 -1.3949 -3.1750 -0.2441
  362MOL0     H48806   7.804  10.892   8.136 -1.9945  1.0744 -1.5143
  362MOL0     H48807   7.966  11.096   8.105  0.1552 -1.0009  0.9841
  362MOL0     H48808   7.873  11.164   8.240  0.4274  1.0992 -0.6905
  362MOL0     H48809   7.800  11.272   8.036 -1.8754  1.2004 -0.5874
  362MOL0     H48810   7.671  11.175   8.093  1.2889  2.6980 -0.4702
  362MOL0     H48811   7.868  11.076   7.895  1.1307  1.6450 -0.6981
  362MOL0     H48812   7.724  10.982   7.944  0.1794  0.9356  1.8094
  362MOL0     H48813   7.721  11.230   7.771  0.3236 -0.6488 -1.3992
  362MOL0     H48814   7.695  11.078   7.714  1.0257 -1.6791  1.2501
  362MOL0     H48815   7.524  11.201   7.925 -0.9481 -0.4471 -0.1529
  362MOL0     H48816   7.476  11.203   7.750  0.5243  0.3181  0.4031
  362MOL0     H48817   7.518  10.947   7.922  1.4142 -2.2015 -3.9196
  362MOL0     H48818   7.443  10.953   7.766 -1.3449 -0.0665  0.0427
  362MOL0     H48819   7.357  11.089   8.030  0.3880 -1.7947  0.5840
  362MOL0     H48820   7.283  11.129   7.868 -0.9999 -0.6631 -0.0495
  362MOL0     H48821   7.245  10.898   8.136  1.8338  0.2938 -0.7167
  362MOL0     H48822   7.009  10.719   8.159  3.9813 -0.2426  1.8259
  362MOL0     H48823   6.959  10.641   8.001 -0.0218 -0.7908  0.3921
  362MOL0     H48824   7.228  10.590   8.135  0.8033 -1.2120 -0.2444
  362MOL0     H48825   7.083  10.486   8.151 -1.0831 -1.8048 -1.1430
  362MOL0     H48826   7.085  10.495   7.882  0.0087  3.2556  1.3663
  362MOL0     H48827   7.162  10.373   7.987 -0.5695  0.0011  0.3309
  362MOL0     H48828   7.301  10.629   7.861  0.1392  0.6099 -0.6959
  362MOL0     H48829   7.287  10.477   7.790  2.6787 -0.1259  0.4599
  362MOL0     H48830   7.608  10.525   8.147  2.6375  1.3251  0.7716
  362MOL0     H48831   7.826  10.626   8.104 -1.5260  2.9262  1.3295
  362MOL0     H48832   8.223  10.695   8.058 -1.9839 -0.0468 -0.3208
  362MOL0     H48833   8.422  10.796   8.018  1.3027 -0.9974 -1.7311
  362MOL0     H48834   8.541  11.055   8.025 -0.8303 -0.9137  1.8470
  362MOL0     H48835   8.616  10.898   7.977  3.5216  1.9216  0.4647
  362MOL0     H48836   8.756  11.066   8.002  0.2740 -1.2373  0.1012
  362MOL0     H48837   8.772  11.015   7.838 -0.2700 -1.6764  1.3795
  362MOL0     H48838   8.627  11.207   7.758  0.5012 -2.6246  0.2941
  362MOL0     H48839   8.620  11.269   7.927 -2.3203 -2.4001  0.9973
  362MOL0     H48840   8.803  11.383   7.802  1.5161 -0.5239 -2.3795
  362MOL0     H48841   8.891  11.226   7.776  0.1998 -2.2649  1.5919
  362MOL0     H48842   8.930  11.197   8.024 -0.7579 -0.6093  0.4200
  362MOL0     H48843   8.822  11.328   8.045  0.8761  1.5192 -1.2352
  362MOL0     H48844   9.065  11.399   8.075  0.1498 -0.3974  0.8486
  362MOL0     H48845   9.092  11.329   7.915 -0.6372 -0.4741 -0.7189
  362MOL0     H48846   8.954  11.516   7.815 -0.2632  1.8759 -0.0465
  362MOL0     H48847   9.107  11.563   7.885  0.5356 -0.9772  0.5844
  362MOL0     H48848   8.936  11.727   7.956  0.9722  1.7345  0.3211
  362MOL0     H48849   8.846  11.598   8.047 -0.0556  3.4391  2.3694
  362MOL0     H48850   8.263  11.041   7.698 -2.2754 -2.8485 -3.1456
  362MOL0     H48851   8.043  10.935   7.740 -0.2506 -0.1655 -0.6853
  362MOL0     H48852   7.728  10.660   7.695  2.1131  0.3336  0.7576
  362MOL0     H48853   7.495  10.568   7.728  0.6224 -1.3197 -0.8150
  362MOL0     H48854   7.732  10.715   8.342  0.0167 -0.0672 -0.3205
  362MOL0     H48855   7.567  10.570   8.418 -1.8858 -1.3265 -0.6788
  362MOL0     H48856   7.282  10.601   8.843  1.3158  0.4696 -0.7901
  362MOL0     H48857   7.087  10.518   8.970 -3.9463  1.6817 -1.5296
  362MOL0     H48858   6.993  10.149   8.833 -1.2293 -1.8011  0.5184
  362MOL0     H48859   6.824  10.170   8.837  2.2629  0.9327 -3.6768
  362MOL0     H48860   6.817  10.181   9.083 -0.8551 -2.3998 -0.6609
  362MOL0     H48861   6.992  10.230   9.078 -0.6720  0.9340 -0.9893
  362MOL0     H48862   6.945  10.001   9.154  0.0843  0.8823 -1.2833
  362MOL0     H48863   7.039   9.989   9.009  0.2544  2.5902 -1.1024
  362MOL0     H48864   6.821   9.933   8.883  2.8894  3.6221 -0.1301
  362MOL0     H48865   6.869   9.818   9.012  2.0968 -0.8609 -2.4961
  362MOL0     H48866   6.504   9.958   9.159  0.3080  0.2263  0.7145
  362MOL0     H48867   6.968  10.294   8.628 -0.0535 -0.6459  2.2314
  362MOL0     H48868   7.252  10.345   8.419  0.2836  0.7133  2.2961
  362MOL0     H48869   7.077  10.319   8.408  2.4199 -1.6833 -1.4917
  362MOL0     H48870   7.134  10.482   8.392  0.0863  0.6543 -0.4941
  363MOL0     O48871   9.586   4.648   2.241 -0.1094 -0.6621  0.2614
  363MOL0     C48872   9.604   4.644   2.116  0.2913  0.1355  0.1742
  363MOL0     O48873   9.722   4.645   2.047  0.2578 -0.3075  0.3762
  363MOL0     C48874   9.836   4.592   2.083 -0.3359  0.2141  0.2637
  363MOL0     C48875   9.859   4.529   2.205 -0.8929 -0.3267 -0.5124
  363MOL0     C48876   9.981   4.493   2.255  0.4886  0.5112  0.5052
  363MOL0     C48877  10.094   4.533   2.184  0.1541 -0.3904  0.6438
  363MOL0     O48878  10.213   4.489   2.233 -0.1243 -0.1386  0.4994
  363MOL0     C48879  10.330   4.521   2.161 -0.1397  0.5007  0.0994
  363MOL0     C48880  10.433   4.450   2.256  0.2360  0.6089  0.2319
  363MOL0     C48881  10.574   4.504   2.228  0.0694  0.4883  0.5543
  363MOL0     C48882  10.672   4.462   2.344 -0.2178 -0.1539  0.3895
  363MOL0     C48883  10.818   4.491   2.328 -1.2341 -0.2059  0.1043
  363MOL0     C48884  10.914   4.417   2.422  0.3315 -1.0492 -0.1492
  363MOL0     C48885  11.062   4.421   2.364  0.4328 -0.1759  0.6984
  363MOL0     C48886  11.152   4.316   2.427 -1.4018  0.4938  0.6877
  363MOL0     N48887  11.294   4.339   2.401 -0.3352 -1.1915  0.9737
  363MOL0     C48888  11.395   4.339   2.497  0.1990 -0.7254  0.6577
  363MOL0     C48889  11.506   4.365   2.421 -0.1020  0.6250  0.3825
  363MOL0     C48890  11.652   4.361   2.463 -0.2273  0.1844 -0.5036
  363MOL0     C48891  11.721   4.501   2.486  0.7563  0.2338 -0.0054
  363MOL0     C48892  11.695   4.606   2.371 -0.4061 -0.1909  0.8120
  363MOL0     C48893  11.785   4.736   2.368  0.2706  0.4065 -0.3021
  363MOL0     O48894  11.926   4.708   2.376 -0.3037  0.3888  1.1718
  363MOL0     C48895  12.014   4.810   2.361  0.0535  0.1846 -0.0050
  363MOL0     C48896  11.986   4.939   2.328 -0.2269 -0.9730  0.9445
  363MOL0     C48897  12.088   5.035   2.312  0.2332  0.6130  0.2527
  363MOL0     C48898  12.224   5.004   2.335  0.3802  0.0422  0.0873
  363MOL0     C48899  12.326   5.108   2.325 -0.1581  0.1426 -0.3365
  363MOL0     O48900  12.455   5.058   2.343 -0.0289  0.0575 -0.0057
  363MOL0     C48901  12.556   5.144   2.357 -0.5390 -0.0758 -0.4225
  363MOL0     C48902  12.574   5.270   2.306 -0.4891 -0.5170  0.2886
  363MOL0     C48903  12.690   5.342   2.330  0.6979  0.4088 -0.2106
  363MOL0     C48904  12.802   5.286   2.402  0.8458  0.6540  0.4033
  363MOL0     O48905  12.912   5.361   2.403  0.0796 -0.0819  0.0384
  363MOL0     C48906  13.040   5.293   2.403 -0.1226  0.4868 -0.2387
  363MOL0     C48907  13.143   5.374   2.344  0.0610  0.3757 -0.2437
  363MOL0     C48908  13.275   5.303   2.326 -0.1841 -0.4512  0.1337
  363MOL0     C48909  13.391   5.416   2.330  1.1279  0.8008  1.0997
  363MOL0     C48910  13.533   5.356   2.314  0.2443 -0.2595 -1.1878
  363MOL0     C48911  13.577   5.277   2.427  0.8413 -0.0601 -0.1865
  363MOL0     C48912  13.729   5.263   2.445 -0.0547 -0.2683 -0.2326
  363MOL0     C48913  13.769   5.217   2.584  0.1782 -0.7244 -0.3534
  363MOL0    Cl48914  13.778   5.339   2.710  0.1915  0.2316  0.0181
  363MOL0     C48915  12.775   5.157   2.460 -1.4706 -0.1830  1.1385
  363MOL0     C48916  12.660   5.088   2.432 -0.6779 -0.1722 -0.2046
  363MOL0     O48917  12.288   5.222   2.321 -0.6610  0.0023 -0.7190
  363MOL0     C48918  12.256   4.870   2.377  0.3551  0.0433 -0.0451
  363MOL0     C48919  12.147   4.781   2.387 -0.3636  0.7177 -0.3341
  363MOL0     N48920  11.468   4.383   2.287 -0.4237 -0.2044  0.4893
  363MOL0     N48921  11.344   4.364   2.273 -0.0984  0.5223 -0.1798
  363MOL0     C48922  10.077   4.603   2.060 -0.4599 -0.3765  0.1006
  363MOL0     C48923   9.950   4.639   2.017  0.5278 -0.3517 -0.4857
  363MOL0     C48924   9.478   4.650   2.028 -0.7095 -0.8185  0.2552
  363MOL0     C48925   9.363   4.710   2.079  0.0671  0.2117 -0.2151
  363MOL0     C48926   9.241   4.701   2.019 -0.6049  0.1394 -0.2794
  363MOL0     C48927   9.228   4.646   1.898  0.3684  0.1497  1.1646
  363MOL0     O48928   9.107   4.630   1.827  0.5765  0.3680 -0.6062
  363MOL0     C48929   9.000   4.716   1.875  0.5078 -0.1175  1.0503
  363MOL0     C48930   8.896   4.698   1.760 -0.5510 -0.2470 -0.6114
  363MOL0     C48931   8.937   4.792   1.654  0.1778  0.4144 -0.0907
  363MOL0     C48932   8.868   4.761   1.519  0.9066  0.4753  0.1849
  363MOL0     C48933   8.729   4.721   1.532  0.3544 -0.2316 -0.0698
  363MOL0     C48934   8.618   4.678   1.554 -0.3801  0.7578  0.2680
  363MOL0     C48935   9.342   4.597   1.834 -0.5979  0.7751 -0.4257
  363MOL0     C48936   9.469   4.597   1.900  0.8357  0.3913  0.1249
  363MOL0     C48937   9.585   4.518   1.843  0.3525 -0.7865  0.1305
  363MOL0     H48938   9.785   4.489   2.275  2.1321 -0.5734  2.8410
  363MOL0     H48939   9.996   4.427   2.340 -1.7741 -0.6825  0.0632
  363MOL0     H48940  10.340   4.475   2.063 -0.4926 -0.5779  0.5558
  363MOL0     H48941  10.335   4.628   2.142 -0.2220  0.2653 -1.3036
  363MOL0     H48942  10.436   4.341   2.243  4.1007  0.4728  0.8880
  363MOL0     H48943  10.409   4.475   2.359  0.6243 -0.2035  0.5333
  363MOL0     H48944  10.577   4.612   2.214  1.2881  0.6793  2.0017
  363MOL0     H48945  10.616   4.469   2.133  0.6079  3.0266 -0.2039
  363MOL0     H48946  10.635   4.507   2.437 -1.4536  1.4011 -0.7989
  363MOL0     H48947  10.667   4.353   2.351  2.7262 -0.4989 -1.1647
  363MOL0     H48948  10.826   4.452   2.226 -2.5869 -0.4679  0.0834
  363MOL0     H48949  10.836   4.599   2.331  1.5253 -0.5151 -1.4548
  363MOL0     H48950  10.902   4.461   2.522  1.6390  0.2631 -0.5250
  363MOL0     H48951  10.890   4.311   2.423 -0.3748 -1.2040 -5.5444
  363MOL0     H48952  11.109   4.514   2.397 -0.4671 -0.3476  2.6161
  363MOL0     H48953  11.072   4.416   2.255 -0.8096 -0.4633  0.5879
  363MOL0     H48954  11.147   4.306   2.536  2.8954 -4.2092  0.8299
  363MOL0     H48955  11.119   4.217   2.392  0.0220  0.9033 -2.1128
  363MOL0     H48956  11.385   4.326   2.604  2.7860 -0.4833  1.0089
  363MOL0     H48957  11.654   4.309   2.559  0.4178 -2.2533 -1.7291
  363MOL0     H48958  11.715   4.303   2.394 -1.8792 -0.4956 -1.5029
  363MOL0     H48959  11.681   4.539   2.580 -0.8110 -1.6817  0.1822
  363MOL0     H48960  11.829   4.483   2.489  0.5962 -1.3960 -1.6465
  363MOL0     H48961  11.591   4.636   2.387 -0.9902 -1.5984 -0.1530
  363MOL0     H48962  11.715   4.555   2.277 -5.5194 -1.5184  0.1659
  363MOL0     H48963  11.752   4.803   2.448 -3.5047 -1.2127 -0.3249
  363MOL0     H48964  11.754   4.788   2.276 -0.9953  2.0093  0.9806
  363MOL0     H48965  11.884   4.964   2.301  0.7189  1.4721 -0.6674
  363MOL0     H48966  12.067   5.133   2.270 -0.0409 -0.2117 -1.6069
  363MOL0     H48967  12.513   5.328   2.236  2.2731  0.1353 -1.7498
  363MOL0     H48968  12.699   5.445   2.297  2.5448  0.1278 -0.6623
  363MOL0     H48969  13.062   5.277   2.509 -0.4546 -0.2144 -0.2685
  363MOL0     H48970  13.033   5.194   2.358  0.9505  1.1633 -2.0029
  363MOL0     H48971  13.096   5.405   2.249  0.7638 -3.8086 -2.1620
  363MOL0     H48972  13.148   5.459   2.413  1.5850 -0.3344  0.5502
  363MOL0     H48973  13.283   5.226   2.404 -1.0318  0.1996  0.8983
  363MOL0     H48974  13.275   5.247   2.233  1.2689  0.3765 -0.3897
  363MOL0     H48975  13.372   5.469   2.424 -0.2375 -0.7444  1.7505
  363MOL0     H48976  13.378   5.482   2.244 -0.8925 -0.8133  0.0704
  363MOL0     H48977  13.602   5.439   2.295  0.1582  0.5240  1.5010
  363MOL0     H48978  13.534   5.280   2.235 -1.3914  0.7483 -2.2440
  363MOL0     H48979  13.542   5.330   2.516 -0.0053 -0.6598 -0.1506
  363MOL0     H48980  13.535   5.176   2.437  0.8968  0.0318  1.1922
  363MOL0     H48981  13.770   5.364   2.439 -0.9250  0.1214  0.1932
  363MOL0     H48982  13.789   5.198   2.380  0.9771 -1.8941  2.2000
  363MOL0     H48983  13.703   5.135   2.617 -0.3833  0.3023  1.1906
  363MOL0     H48984  13.866   5.167   2.586 -0.3008 -1.8831  3.4047
  363MOL0     H48985  12.847   5.110   2.525 -1.1249  0.7002  1.4103
  363MOL0     H48986  12.657   4.989   2.476  0.2202  0.1555  0.6231
  363MOL0     H48987  12.358   4.846   2.403  0.0365 -1.5216 -0.1113
  363MOL0     H48988  12.170   4.677   2.408 -2.3742 -0.0569 -1.6558
  363MOL0     H48989  10.160   4.645   2.005 -1.7651  2.2297  0.0018
  363MOL0     H48990   9.943   4.713   1.938  1.3685 -0.2702 -0.4944
  363MOL0     H48991   9.365   4.755   2.177  0.1933  0.4764 -0.3395
  363MOL0     H48992   9.156   4.738   2.076  0.3105 -0.1172  1.2845
  363MOL0     H48993   9.025   4.821   1.893 -2.0754  0.8229 -0.3109
  363MOL0     H48994   8.957   4.692   1.973 -2.8651  2.7629  0.4686
  363MOL0     H48995   8.797   4.738   1.784 -1.1522 -1.4701 -0.9515
  363MOL0     H48996   8.886   4.598   1.716 -2.2086  0.1151 -1.1054
  363MOL0     H48997   9.045   4.801   1.638 -0.0382  1.7623 -0.9747
  363MOL0     H48998   8.912   4.895   1.681  4.7460  1.6514  0.3289
  363MOL0     H48999   8.885   4.844   1.450 -0.6755  0.1276 -0.6784
  363MOL0     H49000   8.927   4.683   1.469  1.9467  1.0550  0.4815
  363MOL0     H49001   8.517   4.642   1.546  0.5110 -1.5073 -2.7132
  363MOL0     H49002   9.344   4.545   1.739  2.3360  2.7288 -1.6100
  363MOL0     H49003   9.636   4.599   1.790 -1.1081  0.3384  0.3857
  363MOL0     H49004   9.642   4.461   1.917 -1.8084 -2.3606  0.6742
  363MOL0     H49005   9.558   4.446   1.766 -1.1457 -1.4347  1.2186
  364MOL0     O49006   8.209   6.764  10.773 -0.4860 -0.3226  0.1032
  364MOL0     C49007   8.311   6.804  10.827  0.4365 -0.0849  0.7239
  364MOL0     O49008   8.431   6.829  10.760 -0.0032 -0.1797 -0.2430
  364MOL0     C49009   8.431   6.847  10.623 -0.2560 -0.4298  0.5891
  364MOL0     C49010   8.341   6.929  10.573 -0.2298 -0.4899  0.4701
  364MOL0     C49011   8.331   6.955  10.431 -0.5717 -0.0545 -0.7243
  364MOL0     C49012   8.421   6.888  10.346  0.9232  0.0325  0.3558
  364MOL0     O49013   8.416   6.882  10.210  0.3367 -0.0864  0.8090
  364MOL0     C49014   8.417   7.005  10.141  0.3470  0.1894  0.3456
  364MOL0     C49015   8.500   6.994  10.013  0.3759 -0.3787  0.2324
  364MOL0     C49016   8.648   6.965  10.055  0.4184 -0.1906 -0.1065
  364MOL0     C49017   8.757   7.012   9.948 -1.1262 -0.4394  0.0046
  364MOL0     C49018   8.898   7.023  10.007 -0.0146  0.0891  0.3714
  364MOL0     C49019   8.983   7.095   9.900 -0.4547  0.6321  0.7193
  364MOL0     C49020   9.116   7.155   9.954  0.8915 -0.2972  0.0533
  364MOL0     C49021   9.187   7.234   9.843 -0.3981  0.1835 -0.0323
  364MOL0     N49022   9.304   7.302   9.902  0.2204 -0.3129  0.4822
  364MOL0     C49023   9.427   7.245   9.924 -0.4787 -0.7598  0.3287
  364MOL0     C49024   9.503   7.340   9.982  0.0294 -0.2396 -0.0421
  364MOL0     C49025   9.650   7.334  10.009 -0.4169 -0.5506  0.2850
  364MOL0     C49026   9.702   7.435  10.108  0.0057 -0.4546 -0.3169
  364MOL0     C49027   9.857   7.423  10.124  0.0587  0.6769  0.1770
  364MOL0     C49028   9.911   7.543  10.199 -1.1129  0.0956  0.1442
  364MOL0     O49029  10.005   7.503  10.294 -0.3699  0.6718 -0.1244
  364MOL0     C49030  10.137   7.476  10.271  0.1328  0.1800  0.1090
  364MOL0     C49031  10.228   7.457  10.382  0.2665 -0.1204 -1.1988
  364MOL0     C49032  10.368   7.454  10.357 -0.0038  0.2561  1.0694
  364MOL0     C49033  10.413   7.431  10.227  0.5485 -0.0448  0.3625
  364MOL0     C49034  10.556   7.391  10.202  0.6387 -0.2876 -0.1549
  364MOL0     O49035  10.649   7.371  10.308  0.3064  0.3444  0.8030
  364MOL0     C49036  10.780   7.351  10.273  0.0976  0.4962 -0.0860
  364MOL0     C49037  10.838   7.458  10.218  0.4287 -0.5289 -1.2594
  364MOL0     C49038  10.980   7.457  10.194  0.4544  0.5851 -0.1983
  364MOL0     C49039  11.057   7.344  10.226  0.0648  0.3108 -0.2071
  364MOL0     O49040  11.196   7.338  10.217  0.3043  0.4616  0.6191
  364MOL0     C49041  11.267   7.439  10.147  0.5888 -0.4468 -0.3418
  364MOL0     C49042  11.412   7.399  10.123 -0.6101 -0.2153 -0.0153
  364MOL0     C49043  11.494   7.371  10.247 -0.2330 -0.3592  0.6386
  364MOL0     C49044  11.635   7.344  10.211  0.2175  1.4231  0.7384
  364MOL0     C49045  11.721   7.285  10.321  0.3694  0.4839  0.1925
  364MOL0     C49046  11.848   7.207  10.268 -0.4322  0.2688 -0.7049
  364MOL0     C49047  11.937   7.157  10.389 -0.0573  0.2902 -1.3508
  364MOL0     C49048  12.080   7.143  10.357  0.8574 -0.2862  0.4283
  364MOL0    Cl49049  12.169   7.092  10.498 -0.4144  0.0667 -0.1741
  364MOL0     C49050  10.991   7.230  10.281  0.3037  0.0409  0.0923
  364MOL0     C49051  10.847   7.238  10.307  0.1344  0.6648  0.1164
  364MOL0     O49052  10.582   7.357  10.086  0.6887  0.0491 -0.1759
  364MOL0     C49053  10.317   7.434  10.122  0.1600 -0.3988 -0.6668
  364MOL0     C49054  10.184   7.464  10.143 -0.2863 -0.1858 -0.7448
  364MOL0     N49055   9.416   7.449  10.007 -0.5205  0.6522 -0.7364
  364MOL0     N49056   9.306   7.427   9.945 -0.7037  0.3327  1.0078
  364MOL0     C49057   8.503   6.782  10.402 -0.3092  0.2500 -0.0026
  364MOL0     C49058   8.512   6.769  10.539  0.3578 -0.2087  0.6523
  364MOL0     C49059   8.305   6.819  10.971 -0.7463 -0.5497  0.5608
  364MOL0     C49060   8.240   6.709  11.037  0.5056 -0.6654 -0.0820
  364MOL0     C49061   8.235   6.702  11.179  0.7644  0.3163  0.6814
  364MOL0     C49062   8.295   6.798  11.261  0.6438  0.0076 -0.3477
  364MOL0     O49063   8.309   6.789  11.399 -0.0121 -0.5819  0.0812
  364MOL0     C49064   8.297   6.661  11.464 -1.0170  0.5125  0.6567
  364MOL0     C49065   8.402   6.561  11.402 -0.6397 -1.1109 -0.6231
  364MOL0     C49066   8.535   6.595  11.471 -0.2894  0.4192  0.2962
  364MOL0     C49067   8.631   6.474  11.455  0.4509  0.5105  0.0007
  364MOL0     C49068   8.595   6.367  11.548 -0.6837 -0.5682 -0.1253
  364MOL0     C49069   8.555   6.280  11.621 -1.3459 -0.2833 -0.0531
  364MOL0     C49070   8.365   6.902  11.195  0.3121 -0.5157 -0.4349
  364MOL0     C49071   8.363   6.921  11.052 -0.1983  0.4491 -0.5680
  364MOL0     C49072   8.433   7.040  10.990 -0.4917  0.0600 -0.6068
  364MOL0     H49073   8.264   6.982  10.628 -0.4313  1.9024 -1.8940
  364MOL0     H49074   8.252   7.025  10.408 -1.5531 -0.0422  2.2500
  364MOL0     H49075   8.316   7.031  10.107  0.8562 -0.6233 -1.9472
  364MOL0     H49076   8.452   7.088  10.205  0.0126  0.7527 -0.1918
  364MOL0     H49077   8.496   7.085   9.952 -1.0877 -1.0026 -0.6490
  364MOL0     H49078   8.454   6.915   9.954  2.5986 -2.2995  0.9305
  364MOL0     H49079   8.665   6.857  10.069  1.7629  0.0997  0.5985
  364MOL0     H49080   8.671   7.011  10.151  2.4394 -1.9313  0.3321
  364MOL0     H49081   8.757   6.945   9.861 -1.7713 -0.2163 -0.1694
  364MOL0     H49082   8.724   7.105   9.902 -0.6100 -1.0663 -1.7630
  364MOL0     H49083   8.898   7.070  10.106 -1.8376  1.3989 -0.1796
  364MOL0     H49084   8.938   6.922  10.017  1.3402  0.7369  1.8833
  364MOL0     H49085   9.017   7.014   9.835  2.9852  1.1879  1.6300
  364MOL0     H49086   8.924   7.171   9.849 -3.5399 -1.4679  0.8609
  364MOL0     H49087   9.176   7.073   9.994 -0.4602 -0.9038  0.8880
  364MOL0     H49088   9.080   7.224  10.031  1.9033  2.6662 -1.9108
  364MOL0     H49089   9.215   7.163   9.765 -2.1338  1.9724 -2.4344
  364MOL0     H49090   9.113   7.301   9.799 -1.3363 -0.7443  0.0870
  364MOL0     H49091   9.445   7.139   9.911  1.1455 -0.3257 -1.3508
  364MOL0     H49092   9.673   7.234  10.047 -2.9031  0.1646  4.3399
  364MOL0     H49093   9.694   7.357   9.912 -1.8517  0.1398 -0.2342
  364MOL0     H49094   9.664   7.533  10.078 -3.2435 -1.3643  0.4093
  364MOL0     H49095   9.663   7.407  10.206  1.2483 -0.5701  0.1608
  364MOL0     H49096   9.904   7.416  10.026  3.6574 -2.7906  1.8799
  364MOL0     H49097   9.880   7.326  10.169 -3.8583 -0.2829  0.4995
  364MOL0     H49098   9.835   7.582  10.268  1.0821  1.3788  1.9940
  364MOL0     H49099   9.946   7.622  10.132 -1.7113 -0.1924 -0.5234
  364MOL0     H49100  10.181   7.459  10.480  1.6640  0.5012 -0.5118
  364MOL0     H49101  10.440   7.451  10.438 -0.8223 -0.3164  1.7955
  364MOL0     H49102  10.782   7.549  10.199 -0.2345 -0.6232  0.1331
  364MOL0     H49103  11.026   7.551  10.164  0.6968  1.2422  1.9886
  364MOL0     H49104  11.229   7.477  10.051  0.9384  0.0163 -0.2967
  364MOL0     H49105  11.258   7.518  10.222 -3.8761 -0.8072 -0.1911
  364MOL0     H49106  11.412   7.318  10.050 -4.5504  0.9695 -1.5659
  364MOL0     H49107  11.465   7.477  10.067  2.4046 -2.4934 -0.6090
  364MOL0     H49108  11.501   7.457  10.314  1.4700 -0.7045  0.9617
  364MOL0     H49109  11.446   7.292  10.306 -0.7237 -0.8081 -0.3247
  364MOL0     H49110  11.688   7.434  10.178  1.1704 -0.0170 -1.9814
  364MOL0     H49111  11.642   7.272  10.129  1.6569 -0.9627  2.7878
  364MOL0     H49112  11.655   7.221  10.380 -2.7070  3.5892  0.4098
  364MOL0     H49113  11.751   7.367  10.386  1.7026  0.1136  0.0641
  364MOL0     H49114  11.817   7.114  10.219  0.1087 -0.7385  0.7826
  364MOL0     H49115  11.922   7.263  10.210  3.8142 -2.7540  1.2367
  364MOL0     H49116  11.902   7.055  10.408 -2.0354  0.8799 -1.5181
  364MOL0     H49117  11.912   7.212  10.480 -0.6471 -1.3398 -0.4874
  364MOL0     H49118  12.094   7.078  10.269 -0.3444 -1.6888  1.2205
  364MOL0     H49119  12.115   7.242  10.327  1.6533 -0.2690  1.3870
  364MOL0     H49120  11.043   7.139  10.310 -3.0528 -1.8012  0.8910
  364MOL0     H49121  10.784   7.158  10.345  2.2544 -1.2754 -0.2520
  364MOL0     H49122  10.361   7.418  10.024  0.1137  1.3478 -0.9938
  364MOL0     H49123  10.118   7.476  10.057 -0.9896  1.5701  0.0008
  364MOL0     H49124   8.570   6.720  10.343 -0.5528  1.0791 -1.1760
  364MOL0     H49125   8.587   6.701  10.579  0.1657 -0.2672  0.9109
  364MOL0     H49126   8.191   6.630  10.982 -0.5987  0.3502 -0.5977
  364MOL0     H49127   8.168   6.627  11.220 -1.9032  1.4562 -1.2964
  364MOL0     H49128   8.193   6.627  11.459 -0.9451  0.4399 -1.6725
  364MOL0     H49129   8.324   6.661  11.570  0.4148 -2.3897  0.4093
  364MOL0     H49130   8.412   6.567  11.293  1.4757 -1.2479 -0.4795
  364MOL0     H49131   8.378   6.456  11.423  0.9966 -1.2231  0.9096
  364MOL0     H49132   8.535   6.627  11.575 -1.0027  0.3086  0.3291
  364MOL0     H49133   8.572   6.687  11.424 -2.6444  1.4281  0.3003
  364MOL0     H49134   8.641   6.438  11.352  0.4328 -1.1855  0.5622
  364MOL0     H49135   8.732   6.510  11.482  1.8796 -3.3249  0.3552
  364MOL0     H49136   8.531   6.193  11.679  0.0830 -0.9889 -0.4877
  364MOL0     H49137   8.421   6.967  11.262 -2.3414  0.1819  1.2225
  364MOL0     H49138   8.528   7.066  11.038 -0.2498 -1.0388 -0.4708
  364MOL0     H49139   8.463   7.025  10.886 -1.9210 -1.2479 -0.8697
  364MOL0     H49140   8.367   7.127  11.002  0.0228  0.5383 -1.1515
  365MOL0     O49141   7.183   0.466   8.997 -0.8455 -0.3295 -0.1870
  365MOL0     C49142   7.129   0.389   8.920  0.7646  1.1317 -0.0701
  365MOL0     O49143   7.196   0.298   8.843  0.1521  0.0773 -0.7915
  365MOL0     C49144   7.328   0.267   8.882 -0.3897 -0.4387  0.8534
  365MOL0     C49145   7.442   0.329   8.830 -0.1289 -0.0350 -0.1602
  365MOL0     C49146   7.571   0.298   8.865 -0.2771  0.3201  1.0121
  365MOL0     C49147   7.601   0.191   8.946 -0.0218 -0.2664  0.1850
  365MOL0     O49148   7.728   0.132   8.974  0.3155  0.2299  0.5471
  365MOL0     C49149   7.852   0.165   8.899  0.8112  0.1163 -0.9484
  365MOL0     C49150   7.979   0.145   8.979  1.3169 -0.1394  1.1726
  365MOL0     C49151   8.106   0.104   8.892  0.2332 -0.0639  0.0371
  365MOL0     C49152   8.237   0.110   8.985 -0.2123 -0.5370  0.3432
  365MOL0     C49153   8.364   0.057   8.917  0.3634  0.0478  0.1987
  365MOL0     C49154   8.422   0.147   8.807 -0.9119 -0.1334  0.3376
  365MOL0     C49155   8.557   0.107   8.770 -0.0320  0.6283 -0.1389
  365MOL0     C49156   8.605   0.201   8.662  0.1609  1.2001  0.4888
  365MOL0     N49157   8.697   0.128   8.579  0.2218 -0.5125  0.7565
  365MOL0     C49158   8.816   0.190   8.552 -0.4423  0.9270  0.0699
  365MOL0     C49159   8.875   0.099   8.473  0.2229 -0.1607 -0.3955
  365MOL0     C49160   9.012   0.119   8.408  0.3248  0.0114 -0.1179
  365MOL0     C49161   9.108   0.024   8.463  0.1274 -0.4608 -0.0202
  365MOL0     C49162   9.232   0.035   8.375 -0.2106 -0.3047  0.0890
  365MOL0     C49163   9.350  -0.057   8.411  0.3970 -1.1481  0.8658
  365MOL0     O49164   9.380  -0.045   8.550  0.2985  0.1672  0.3969
  365MOL0     C49165   9.447  -0.158   8.592  0.5721 -0.2107 -1.3935
  365MOL0     C49166   9.382  -0.254   8.676 -0.9221 -0.5246 -0.3812
  365MOL0     C49167   9.459  -0.375   8.717  0.7281  0.1323  0.3538
  365MOL0     C49168   9.596  -0.387   8.684  0.0448 -0.5089  0.2042
  365MOL0     C49169   9.674  -0.513   8.732 -0.6024  0.9991 -0.5730
  365MOL0     O49170   9.805  -0.508   8.705 -0.1834 -0.5967 -0.5369
  365MOL0     C49171   9.885  -0.615   8.709 -0.4904 -0.4170  0.0740
  365MOL0     C49172  10.020  -0.579   8.732 -0.5393  0.3088  0.2515
  365MOL0     C49173  10.115  -0.676   8.767  0.0786 -0.0259  0.2084
  365MOL0     C49174  10.070  -0.807   8.778 -0.2310 -0.4841  0.8008
  365MOL0     O49175  10.163  -0.894   8.821  0.2104  0.1971 -0.4566
  365MOL0     C49176  10.204  -0.873   8.957  0.1468 -0.4746 -0.3419
  365MOL0     C49177  10.295  -0.991   9.003  0.2790  0.0211 -0.3122
  365MOL0     C49178  10.437  -0.981   8.936  0.2719 -0.4930  0.5975
  365MOL0     C49179  10.452  -1.024   8.785  0.0281  0.7097 -0.5251
  365MOL0     C49180  10.455  -1.171   8.763 -0.8950  0.2753 -0.5679
  365MOL0     C49181  10.577  -1.228   8.845  0.0145 -0.2501  1.0678
  365MOL0     C49182  10.648  -1.332   8.761  0.2171 -0.0123  0.4448
  365MOL0     C49183  10.726  -1.417   8.862 -0.3135  0.6735 -0.2124
  365MOL0    Cl49184  10.847  -1.340   8.959  0.2402  0.4295 -0.1545
  365MOL0     C49185   9.944  -0.855   8.745  1.1872 -0.4589  0.3267
  365MOL0     C49186   9.852  -0.757   8.715 -0.5414 -0.2595  0.2442
  365MOL0     O49187   9.609  -0.609   8.774  0.9544 -0.2679 -0.3738
  365MOL0     C49188   9.651  -0.292   8.595  0.3408  0.0332  1.2271
  365MOL0     C49189   9.577  -0.174   8.561 -0.5431 -0.6168 -0.2597
  365MOL0     N49190   8.806  -0.016   8.474 -0.0659  0.1775  0.1725
  365MOL0     N49191   8.694   0.007   8.523 -0.4409 -0.1225  0.4595
  365MOL0     C49192   7.490   0.126   9.002  0.1161 -0.2422 -0.0335
  365MOL0     C49193   7.354   0.170   8.978 -0.4032 -0.0614 -0.7220
  365MOL0     C49194   6.994   0.407   8.872  0.3431 -0.3800  0.1559
  365MOL0     C49195   6.914   0.503   8.937 -0.5534  0.1527 -0.2670
  365MOL0     C49196   6.776   0.506   8.938  0.4621  0.1644  0.6167
  365MOL0     C49197   6.707   0.429   8.840 -0.0407 -0.1796  0.0097
  365MOL0     O49198   6.568   0.448   8.816  0.0644 -0.3483  0.2516
  365MOL0     C49199   6.501   0.384   8.705  0.2474 -0.2552 -0.2744
  365MOL0     C49200   6.357   0.430   8.715 -0.3668 -0.1756  0.3926
  365MOL0     C49201   6.305   0.458   8.580 -0.0257 -0.7839 -0.1073
  365MOL0     C49202   6.156   0.503   8.583  0.0766  0.1639 -0.0924
  365MOL0     C49203   6.103   0.520   8.444 -0.7455  0.3576 -0.4159
  365MOL0     C49204   6.062   0.549   8.334  0.0619  0.3988  0.4848
  365MOL0     C49205   6.780   0.345   8.762  1.2040  0.0330  0.1628
  365MOL0     C49206   6.915   0.329   8.782  0.8190 -0.0395 -0.0096
  365MOL0     C49207   6.966   0.209   8.713 -0.1687  0.6889  0.4145
  365MOL0     H49208   7.427   0.408   8.757  0.9643  2.9358  2.6225
  365MOL0     H49209   7.653   0.348   8.814 -1.3429  0.7422 -0.3432
  365MOL0     H49210   7.857   0.096   8.815  1.7065 -2.2401  0.9031
  365MOL0     H49211   7.859   0.264   8.855  0.2286 -0.5783 -2.7086
  365MOL0     H49212   7.963   0.078   9.064  1.0647  1.1551  2.1833
  365MOL0     H49213   8.013   0.244   9.011  0.5810  0.8602 -0.9377
  365MOL0     H49214   8.122   0.164   8.803 -1.7795 -0.0459 -0.3575
  365MOL0     H49215   8.094   0.009   8.838 -0.1669  1.2992 -2.3811
  365MOL0     H49216   8.258   0.214   9.012 -0.8151 -0.1385 -0.6513
  365MOL0     H49217   8.216   0.056   9.077 -2.7874  2.6762  1.8416
  365MOL0     H49218   8.441   0.050   8.995  0.0070  0.1611  0.5584
  365MOL0     H49219   8.341  -0.041   8.872  0.3959 -0.4582  1.2518
  365MOL0     H49220   8.362   0.153   8.716  2.1954  4.4167 -1.7756
  365MOL0     H49221   8.420   0.252   8.838 -1.2012 -0.5860  1.9461
  365MOL0     H49222   8.539   0.010   8.722 -2.5546  1.3170 -0.6848
  365MOL0     H49223   8.630   0.087   8.850  4.6395  0.6781 -3.9679
  365MOL0     H49224   8.527   0.250   8.605 -0.3227  1.0599  1.0187
  365MOL0     H49225   8.660   0.281   8.715  1.9096 -0.6210  1.5964
  365MOL0     H49226   8.858   0.285   8.586 -0.5184  0.9721  0.0387
  365MOL0     H49227   9.001   0.097   8.302  4.1171  0.1031 -0.6675
  365MOL0     H49228   9.043   0.224   8.414 -0.7074  0.3722 -0.8617
  365MOL0     H49229   9.122   0.050   8.569 -1.4415 -1.3565  0.4350
  365MOL0     H49230   9.072  -0.079   8.460  1.2689 -0.9589  1.8231
  365MOL0     H49231   9.269   0.138   8.373 -1.7798  0.4441  3.6433
  365MOL0     H49232   9.201   0.018   8.271  0.2484  1.0027 -0.2805
  365MOL0     H49233   9.436  -0.032   8.348 -1.1597 -2.1829 -1.8712
  365MOL0     H49234   9.321  -0.159   8.383  0.9541 -0.9700 -0.4148
  365MOL0     H49235   9.278  -0.240   8.705 -1.0889  0.7815 -1.5028
  365MOL0     H49236   9.407  -0.455   8.769  2.8645 -4.0909 -3.3120
  365MOL0     H49237  10.052  -0.475   8.726  0.1711  0.0377 -0.7939
  365MOL0     H49238  10.217  -0.650   8.794  0.4690 -2.4522  1.4166
  365MOL0     H49239  10.257  -0.778   8.953 -0.1639 -0.0867  2.4042
  365MOL0     H49240  10.117  -0.875   9.024 -1.1453 -3.2440 -1.9282
  365MOL0     H49241  10.303  -0.971   9.110  0.1528 -1.8473  0.0954
  365MOL0     H49242  10.258  -1.093   8.987  0.1465 -0.0414  0.3401
  365MOL0     H49243  10.487  -0.884   8.947  0.5260 -0.4250 -0.9194
  365MOL0     H49244  10.489  -1.056   8.995 -1.0940 -1.8932  0.0864
  365MOL0     H49245  10.542  -0.980   8.741  0.1555 -1.3829 -2.5081
  365MOL0     H49246  10.372  -0.986   8.719 -1.3173  0.1969  0.7497
  365MOL0     H49247  10.465  -1.200   8.658 -1.6820 -0.1085 -0.5436
  365MOL0     H49248  10.358  -1.212   8.793 -0.8403  1.5508  1.5649
  365MOL0     H49249  10.645  -1.146   8.870 -1.2620  0.9546  0.7534
  365MOL0     H49250  10.539  -1.267   8.939 -2.0364 -1.4437 -0.1732
  365MOL0     H49251  10.711  -1.276   8.691  1.8303 -0.8919  1.1458
  365MOL0     H49252  10.572  -1.390   8.707 -1.9456  2.3410  0.7480
  365MOL0     H49253  10.653  -1.470   8.923  0.6400 -0.1179  0.2675
  365MOL0     H49254  10.780  -1.492   8.804  0.4084  1.9384 -1.2571
  365MOL0     H49255   9.916  -0.959   8.758 -0.9439  0.1311  0.7574
  365MOL0     H49256   9.751  -0.795   8.706 -0.2367 -1.2217  0.6649
  365MOL0     H49257   9.755  -0.301   8.565 -0.1441  1.4754 -1.0754
  365MOL0     H49258   9.627  -0.103   8.496  0.6733 -1.2574 -0.0563
  365MOL0     H49259   7.507   0.038   9.065 -4.7143 -1.2548  0.2919
  365MOL0     H49260   7.268   0.111   9.009 -0.1033 -1.9831 -3.2046
  365MOL0     H49261   6.953   0.562   9.019  1.0610  0.3120 -1.1079
  365MOL0     H49262   6.721   0.569   9.007 -1.6341 -0.0455 -0.7757
  365MOL0     H49263   6.513   0.275   8.709  2.7985 -0.0385 -0.3195
  365MOL0     H49264   6.539   0.404   8.604  0.4784 -2.2859 -0.6382
  365MOL0     H49265   6.346   0.523   8.771  2.1193  1.1449 -1.1954
  365MOL0     H49266   6.303   0.350   8.768 -0.4417  0.2021  0.8918
  365MOL0     H49267   6.302   0.356   8.543 -1.4122 -0.9151  0.3003
  365MOL0     H49268   6.363   0.527   8.518  2.1093 -0.3021  2.2562
  365MOL0     H49269   6.089   0.437   8.641  0.8716  1.5488  2.5542
  365MOL0     H49270   6.158   0.596   8.639 -0.0135 -0.3225  0.7438
  365MOL0     H49271   6.021   0.580   8.240 -1.2501 -1.0680  0.5112
  365MOL0     H49272   6.726   0.271   8.703  1.0884 -0.7993  1.2848
  365MOL0     H49273   6.904   0.183   8.626 -0.1158  0.7122  0.3697
  365MOL0     H49274   7.064   0.227   8.669  0.3074  1.5816  1.7623
  365MOL0     H49275   6.966   0.125   8.783 -0.7859  1.4812  1.3926
  366MOL0     O49276   9.666   0.688   7.130 -0.5010 -0.1988  0.5448
  366MOL0     C49277   9.612   0.702   7.016 -0.6974  0.3476  0.2519
  366MOL0     O49278   9.493   0.660   6.986  0.4550 -0.3008 -0.2500
  366MOL0     C49279   9.413   0.646   7.103 -0.0108  0.1217  0.3694
  366MOL0     C49280   9.359   0.755   7.176 -0.0658  0.3785 -0.3364
  366MOL0     C49281   9.296   0.734   7.303 -0.4375 -0.5826 -0.6954
  366MOL0     C49282   9.271   0.610   7.350  0.3827  0.3403  0.2476
  366MOL0     O49283   9.219   0.599   7.471  0.1984  0.1468 -0.1382
  366MOL0     C49284   9.280   0.507   7.564  0.1517  0.7265  0.0949
  366MOL0     C49285   9.219   0.538   7.694 -0.5860 -0.6960 -0.2589
  366MOL0     C49286   9.257   0.672   7.743 -0.1980  0.1058 -0.7165
  366MOL0     C49287   9.201   0.707   7.883  0.4102 -0.0879 -0.1581
  366MOL0     C49288   9.264   0.846   7.910 -0.3620 -0.6580 -0.0160
  366MOL0     C49289   9.252   0.888   8.067  0.0296  1.1426 -0.3646
  366MOL0     C49290   9.325   1.017   8.094 -0.7525  0.5377  0.0287
  366MOL0     C49291   9.335   1.049   8.241  0.1200 -0.2144 -0.2688
  366MOL0     N49292   9.375   0.939   8.332 -0.5685  0.5084 -1.0130
  366MOL0     C49293   9.298   0.892   8.439 -0.7612  0.3843 -0.0771
  366MOL0     C49294   9.365   0.787   8.490 -0.2598 -0.6446 -0.2127
  366MOL0     C49295   9.321   0.689   8.608 -0.0094 -0.5602 -0.4434
  366MOL0     C49296   9.276   0.748   8.740 -0.1742  0.1632 -0.5145
  366MOL0     C49297   9.395   0.792   8.820  0.2733 -0.0623  0.0183
  366MOL0     C49298   9.490   0.892   8.761  0.2571 -0.1823 -0.3012
  366MOL0     O49299   9.535   0.981   8.864  0.8160  0.1675  0.2397
  366MOL0     C49300   9.645   1.054   8.832  0.9661 -0.0637  0.0069
  366MOL0     C49301   9.710   1.052   8.708  0.2048  0.2585  1.0832
  366MOL0     C49302   9.837   1.100   8.689 -0.5991  0.1634  0.7069
  366MOL0     C49303   9.902   1.176   8.794  0.5432 -0.4299 -0.5557
  366MOL0     C49304  10.034   1.248   8.768 -1.0992  0.3679 -0.0034
  366MOL0     O49305  10.129   1.243   8.874  0.2953  0.3149 -0.5070
  366MOL0     C49306  10.247   1.317   8.868  0.1596 -0.9191  1.1031
  366MOL0     C49307  10.257   1.457   8.881  0.6766 -0.5984 -0.1099
  366MOL0     C49308  10.377   1.527   8.870  0.1762  0.2443 -0.3609
  366MOL0     C49309  10.498   1.454   8.854  0.2319  0.5718 -0.1703
  366MOL0     O49310  10.618   1.517   8.868 -0.6556 -0.6589 -0.3933
  366MOL0     C49311  10.701   1.461   8.972 -0.2600 -0.5309  0.1576
  366MOL0     C49312  10.825   1.380   8.917 -0.3951 -0.3845 -0.0865
  366MOL0     C49313  10.902   1.312   9.026  0.9699 -0.0464 -0.5236
  366MOL0     C49314  10.967   1.181   8.980  0.3176 -0.2266  0.5554
  366MOL0     C49315  11.017   1.089   9.099 -0.3146  0.4687  0.1833
  366MOL0     C49316  11.124   1.157   9.171 -0.6662  0.0618  0.3169
  366MOL0     C49317  11.212   1.053   9.262 -0.5229 -0.1554 -0.1451
  366MOL0     C49318  11.337   1.124   9.306 -0.9406  0.3929 -0.0623
  366MOL0    Cl49319  11.298   1.253   9.416 -0.5874 -0.2554 -0.4943
  366MOL0     C49320  10.493   1.315   8.829 -0.2365  0.3167 -0.4021
  366MOL0     C49321  10.369   1.252   8.846  0.4899 -0.9886  0.4495
  366MOL0     O49322  10.056   1.306   8.665  1.2065  0.1591  0.1597
  366MOL0     C49323   9.821   1.180   8.915 -0.2328  0.0952 -0.5474
  366MOL0     C49324   9.699   1.122   8.936 -0.3560  0.0052 -0.3795
  366MOL0     N49325   9.480   0.781   8.424  0.3883 -0.1006 -0.0906
  366MOL0     N49326   9.489   0.872   8.336 -0.6553  0.0568  0.4049
  366MOL0     C49327   9.306   0.504   7.264 -0.7010  0.1996 -0.2689
  366MOL0     C49328   9.370   0.521   7.146  0.3933 -0.7834 -0.0811
  366MOL0     C49329   9.696   0.761   6.906 -0.3831  0.6820  1.4159
  366MOL0     C49330   9.835   0.766   6.923  0.1720 -0.9786 -0.7524
  366MOL0     C49331   9.923   0.841   6.838 -0.4949  0.6124  0.1762
  366MOL0     C49332   9.871   0.903   6.726  0.5219  0.3026 -0.4480
  366MOL0     O49333   9.960   0.973   6.648  0.1751  0.0953  0.1089
  366MOL0     C49334   9.913   1.051   6.538 -0.1073  0.6932 -0.5894
  366MOL0     C49335  10.024   1.115   6.454 -0.3697 -0.5165 -0.0628
  366MOL0     C49336   9.978   1.209   6.334  0.3713  0.4413  0.6222
  366MOL0     C49337  10.090   1.291   6.259  0.1122  0.4182 -0.3075
  366MOL0     C49338  10.162   1.200   6.166  1.3048  0.6695  0.2448
  366MOL0     C49339  10.208   1.124   6.084  0.2211 -0.2263  0.4641
  366MOL0     C49340   9.731   0.902   6.709  0.0873  1.0784  0.2564
  366MOL0     C49341   9.648   0.831   6.793 -0.4956  0.5040  0.7656
  366MOL0     C49342   9.505   0.843   6.758  0.1951  0.2680  0.1362
  366MOL0     H49343   9.387   0.855   7.144  0.7368  0.8328  1.6388
  366MOL0     H49344   9.263   0.823   7.355 -0.6786  0.2161 -2.1570
  366MOL0     H49345   9.248   0.405   7.542 -0.2205  0.9620 -0.4540
  366MOL0     H49346   9.389   0.515   7.564  0.5559 -2.8292  1.6067
  366MOL0     H49347   9.230   0.462   7.771  3.6863 -1.4496 -1.3877
  366MOL0     H49348   9.110   0.541   7.681 -0.8771  1.5989  1.8660
  366MOL0     H49349   9.225   0.750   7.673  1.5193  0.6545 -0.9445
  366MOL0     H49350   9.366   0.682   7.752 -0.3329  1.0723  0.0306
  366MOL0     H49351   9.093   0.707   7.903  0.5664  2.0159  0.8545
  366MOL0     H49352   9.246   0.635   7.952 -2.6910  0.5518  2.7781
  366MOL0     H49353   9.369   0.844   7.880 -1.1471 -0.6982 -3.1177
  366MOL0     H49354   9.227   0.922   7.841  3.1875  1.3551  0.0478
  366MOL0     H49355   9.147   0.882   8.098 -0.0395 -0.9088 -0.8858
  366MOL0     H49356   9.293   0.802   8.121 -1.9613 -0.0088 -0.5952
  366MOL0     H49357   9.275   1.097   8.038 -1.7655 -1.8287 -2.6727
  366MOL0     H49358   9.422   1.003   8.046 -1.7016  0.4385 -1.9858
  366MOL0     H49359   9.414   1.122   8.257  0.2706 -0.5707  0.7613
  366MOL0     H49360   9.234   1.080   8.269  0.3357 -2.0988  3.2155
  366MOL0     H49361   9.207   0.938   8.478 -0.7679 -0.5497  1.0515
  366MOL0     H49362   9.223   0.650   8.577 -0.0377 -1.3531  0.5847
  366MOL0     H49363   9.391   0.604   8.611  0.4373 -0.2090 -0.7925
  366MOL0     H49364   9.216   0.836   8.715 -2.9598 -1.0877  1.2952
  366MOL0     H49365   9.202   0.686   8.791  0.0445 -2.2679 -2.9207
  366MOL0     H49366   9.450   0.699   8.839 -0.0633 -0.3389 -0.3451
  366MOL0     H49367   9.360   0.828   8.917 -1.2701  0.9248 -0.8648
  366MOL0     H49368   9.430   0.966   8.706  0.2880  2.8317  3.3319
  366MOL0     H49369   9.565   0.841   8.699 -0.2359 -1.7616  0.3594
  366MOL0     H49370   9.672   1.008   8.616  0.9371  2.3608 -0.3181
  366MOL0     H49371   9.878   1.101   8.589 -2.1630 -4.3846 -0.2024
  366MOL0     H49372  10.168   1.510   8.914  0.8391  0.4531 -1.3250
  366MOL0     H49373  10.386   1.634   8.884 -0.7773  0.6382 -2.4667
  366MOL0     H49374  10.742   1.545   9.029 -2.3303  0.2747  0.5315
  366MOL0     H49375  10.644   1.412   9.051  1.6869  0.9985  2.6859
  366MOL0     H49376  10.786   1.300   8.852 -0.5501 -0.6529  0.3323
  366MOL0     H49377  10.892   1.448   8.864 -2.2796  0.6071 -1.2916
  366MOL0     H49378  10.984   1.368   9.071 -0.7944 -0.6348  3.9092
  366MOL0     H49379  10.830   1.272   9.097  0.7045 -0.6477 -1.1240
  366MOL0     H49380  11.064   1.206   8.936  0.5485  1.3524  1.8711
  366MOL0     H49381  10.912   1.124   8.905  0.0462  0.8722 -0.1111
  366MOL0     H49382  11.058   0.996   9.058  0.6362  0.3764  1.3076
  366MOL0     H49383  10.939   1.059   9.169 -0.2272  0.9920  0.5078
  366MOL0     H49384  11.186   1.217   9.104 -1.3805  2.0026  1.3248
  366MOL0     H49385  11.087   1.234   9.239  0.8123  0.8667  0.2525
  366MOL0     H49386  11.249   0.985   9.185  1.8350 -0.8240  1.4530
  366MOL0     H49387  11.157   1.007   9.344 -4.0645 -1.8195 -3.2207
  366MOL0     H49388  11.403   1.052   9.356 -1.5578 -2.0440 -2.5385
  366MOL0     H49389  11.397   1.150   9.219  0.0587  0.1459  0.5267
  366MOL0     H49390  10.579   1.257   8.797 -0.3354  0.8384 -1.6805
  366MOL0     H49391  10.360   1.145   8.855 -2.3395 -0.8141  0.4373
  366MOL0     H49392   9.859   1.248   8.991  1.2585 -0.7093 -0.5399
  366MOL0     H49393   9.656   1.134   9.035 -1.4407  1.6869 -1.0036
  366MOL0     H49394   9.281   0.413   7.316  3.1255  0.6349  2.7921
  366MOL0     H49395   9.379   0.433   7.083  0.0073  0.1028 -1.4207
  366MOL0     H49396   9.876   0.715   7.010 -0.2719  0.2757  0.2237
  366MOL0     H49397  10.031   0.840   6.852 -0.3506  2.3918 -0.4505
  366MOL0     H49398   9.847   1.126   6.583  1.2626  1.4341  0.2393
  366MOL0     H49399   9.848   0.994   6.469  0.9684 -0.7032 -0.4928
  366MOL0     H49400  10.078   1.028   6.415  1.1876  0.9588 -1.3051
  366MOL0     H49401  10.092   1.186   6.502 -1.7450  2.7939 -2.6122
  366MOL0     H49402   9.895   1.273   6.368  0.8816  1.8004 -0.5710
  366MOL0     H49403   9.928   1.145   6.262  1.3698  0.1932  0.1408
  366MOL0     H49404  10.053   1.376   6.201 -1.8174 -1.1805 -1.5325
  366MOL0     H49405  10.171   1.317   6.328 -0.0967  1.1656 -0.3406
  366MOL0     H49406  10.247   1.051   6.017  0.0979  0.0922  0.0401
  366MOL0     H49407   9.681   0.944   6.622 -0.3121 -2.6264 -1.4963
  366MOL0     H49408   9.441   0.896   6.829 -0.1916 -0.4230  0.3144
  366MOL0     H49409   9.481   0.883   6.658  1.1017 -0.9825 -0.6081
  366MOL0     H49410   9.468   0.741   6.748  1.8346 -0.5805  2.1608
  367MOL0     O49411   1.551   6.174   5.541 -0.7925  0.4674  0.7238
  367MOL0     C49412   1.608   6.126   5.641 -0.3684 -0.1246 -0.2119
  367MOL0     O49413   1.684   6.202   5.728  0.5534  0.5164  0.1401
  367MOL0     C49414   1.711   6.335   5.704  0.3498 -0.2636 -0.3834
  367MOL0     C49415   1.819   6.376   5.623 -0.0161  0.5444 -0.3704
  367MOL0     C49416   1.852   6.510   5.606 -0.5255 -0.2375 -0.1675
  367MOL0     C49417   1.780   6.605   5.680 -0.1020  0.0883 -0.6926
  367MOL0     O49418   1.809   6.736   5.670  0.2695 -0.5702 -0.7407
  367MOL0     C49419   1.912   6.771   5.579  0.2572 -0.7006  0.1225
  367MOL0     C49420   1.937   6.929   5.587 -0.6686 -0.3705 -0.2519
  367MOL0     C49421   2.092   6.951   5.589  0.4246  0.4524 -0.2415
  367MOL0     C49422   2.124   7.101   5.627  0.8022  0.2151 -0.6592
  367MOL0     C49423   2.268   7.123   5.616 -0.6233  0.3284 -0.3660
  367MOL0     C49424   2.350   7.079   5.744 -0.1179  0.3194  0.2450
  367MOL0     C49425   2.498   7.073   5.718  0.0524  0.1723 -0.6579
  367MOL0     C49426   2.573   7.028   5.842 -0.1088 -0.6557 -0.5342
  367MOL0     N49427   2.568   6.887   5.863 -0.4777  0.5289 -0.2805
  367MOL0     C49428   2.572   6.790   5.767 -0.2183  0.7054 -0.4484
  367MOL0     C49429   2.553   6.672   5.839  0.9865 -0.2122  0.1253
  367MOL0     C49430   2.553   6.531   5.784  1.1580 -0.9462 -0.7302
  367MOL0     C49431   2.701   6.504   5.748  0.0509  0.0587 -0.0336
  367MOL0     C49432   2.713   6.386   5.648 -0.0765  1.1454 -0.4680
  367MOL0     C49433   2.830   6.401   5.550 -0.1210 -0.5229  0.7220
  367MOL0     O49434   2.948   6.411   5.627  0.3115  0.1140 -0.0936
  367MOL0     C49435   3.047   6.465   5.550  0.1404 -0.7423  0.0138
  367MOL0     C49436   3.103   6.392   5.446  0.4960 -0.2475  0.3634
  367MOL0     C49437   3.197   6.447   5.366 -0.6148 -0.7891 -0.2051
  367MOL0     C49438   3.239   6.580   5.385  1.4300  0.4199  0.4037
  367MOL0     C49439   3.325   6.647   5.278 -0.5157  0.4677  0.1196
  367MOL0     O49440   3.372   6.566   5.178 -0.0141  0.0105 -0.0954
  367MOL0     C49441   3.493   6.585   5.117 -0.0085 -0.5537  0.8721
  367MOL0     C49442   3.503   6.545   4.983  0.5269  1.4493  0.1322
  367MOL0     C49443   3.622   6.545   4.913 -0.4769  0.0661 -0.0815
  367MOL0     C49444   3.734   6.589   4.977 -0.2886 -0.1549  0.3474
  367MOL0     O49445   3.854   6.589   4.903 -0.5147  0.2474  0.4448
  367MOL0     C49446   3.968   6.565   4.990  0.1250  0.3379  0.8673
  367MOL0     C49447   4.095   6.533   4.916  0.5532  0.7890 -0.3505
  367MOL0     C49448   4.150   6.641   4.816 -0.2817 -0.5237 -0.2746
  367MOL0     C49449   4.079   6.650   4.678  0.8768  1.0895  0.4062
  367MOL0     C49450   4.119   6.776   4.590  1.1727  1.2913 -0.0954
  367MOL0     C49451   4.077   6.911   4.638  0.1039  0.4212 -1.0638
  367MOL0     C49452   3.923   6.939   4.642 -0.1504  0.7650  0.1748
  367MOL0     C49453   3.900   7.083   4.680  0.5282  0.2924 -0.0054
  367MOL0    Cl49454   3.977   7.218   4.585  0.0733  0.3981  0.9737
  367MOL0     C49455   3.724   6.634   5.114  0.1468 -0.7008 -0.3000
  367MOL0     C49456   3.600   6.640   5.181  0.2872 -0.0427 -0.1744
  367MOL0     O49457   3.344   6.773   5.295 -0.0634 -0.0321 -0.4271
  367MOL0     C49458   3.190   6.658   5.496  0.9830  0.2937  0.0720
  367MOL0     C49459   3.092   6.600   5.579  0.3106 -0.0909 -0.3447
  367MOL0     N49460   2.547   6.703   5.973 -0.3275  0.1457 -0.1933
  367MOL0     N49461   2.551   6.831   5.986  0.3153 -0.5238  0.1089
  367MOL0     C49462   1.668   6.565   5.754 -0.0888 -0.0362  0.1724
  367MOL0     C49463   1.633   6.433   5.770 -0.7033  0.1551  0.9366
  367MOL0     C49464   1.608   5.981   5.675  0.4414  0.3468 -0.1183
  367MOL0     C49465   1.731   5.920   5.690  0.8037  0.2261 -0.8506
  367MOL0     C49466   1.732   5.780   5.709 -0.0290 -0.1914 -1.2171
  367MOL0     C49467   1.621   5.697   5.720  0.5323  0.1673 -0.1817
  367MOL0     O49468   1.624   5.557   5.722 -0.2367 -0.0627  0.3676
  367MOL0     C49469   1.747   5.500   5.770  1.0014  0.3176 -0.1300
  367MOL0     C49470   1.742   5.345   5.750 -0.4462 -0.2332  0.0249
  367MOL0     C49471   1.837   5.276   5.840 -0.3840  0.6494  0.5364
  367MOL0     C49472   1.880   5.137   5.785 -0.6013  0.5622  0.2879
  367MOL0     C49473   2.009   5.088   5.839  0.1250 -0.7961  0.4583
  367MOL0     C49474   2.112   5.077   5.901 -0.2718  0.4007  0.4319
  367MOL0     C49475   1.495   5.763   5.710 -0.6603 -0.2570 -0.7383
  367MOL0     C49476   1.493   5.898   5.679  0.0684  0.1112  0.2900
  367MOL0     C49477   1.349   5.957   5.675  0.0068 -0.7471 -0.0513
  367MOL0     H49478   1.879   6.305   5.567  0.9749  1.7056 -0.8222
  367MOL0     H49479   1.940   6.543   5.550  2.0045 -1.5476  2.7402
  367MOL0     H49480   2.002   6.719   5.614 -0.5224 -0.1749  3.1607
  367MOL0     H49481   1.890   6.734   5.478  1.2143  0.4054 -0.5218
  367MOL0     H49482   1.897   6.966   5.682 -1.1409 -0.8145 -0.2721
  367MOL0     H49483   1.885   6.982   5.506 -0.3521 -0.4115 -0.4820
  367MOL0     H49484   2.129   6.935   5.487  0.9993  1.9598 -0.2850
  367MOL0     H49485   2.129   6.883   5.666  1.0490  1.2583  0.1775
  367MOL0     H49486   2.073   7.181   5.571 -0.1480 -0.2385 -0.4679
  367MOL0     H49487   2.089   7.117   5.729 -0.3689  0.1263 -1.0265
  367MOL0     H49488   2.304   7.069   5.527  2.5447  0.1971  0.8650
  367MOL0     H49489   2.294   7.225   5.587  1.6298  0.1554  0.8537
  367MOL0     H49490   2.335   7.152   5.823  0.8899 -1.2542  1.9836
  367MOL0     H49491   2.336   6.982   5.793  1.0494  0.6249  1.2390
  367MOL0     H49492   2.535   7.175   5.699  0.5183  0.4393  1.4209
  367MOL0     H49493   2.523   7.007   5.634  0.3259 -1.6035  0.7738
  367MOL0     H49494   2.679   7.054   5.833 -0.6202  1.3050 -1.4137
  367MOL0     H49495   2.541   7.081   5.932  0.0857 -1.7240  0.1870
  367MOL0     H49496   2.583   6.808   5.661  1.0601  3.4005  0.0514
  367MOL0     H49497   2.511   6.460   5.856 -1.0311  1.2415  0.2678
  367MOL0     H49498   2.487   6.529   5.697 -2.8847 -0.7642  2.1091
  367MOL0     H49499   2.737   6.595   5.700  2.4278 -0.8344 -0.0457
  367MOL0     H49500   2.771   6.470   5.824  0.2306 -0.2942 -0.3549
  367MOL0     H49501   2.631   6.378   5.576  1.5244 -2.0015 -2.1610
  367MOL0     H49502   2.730   6.293   5.704  2.3306  1.6698 -0.2380
  367MOL0     H49503   2.817   6.496   5.497  0.2365 -0.1235  1.3332
  367MOL0     H49504   2.833   6.319   5.478  2.8647  0.9194 -0.9847
  367MOL0     H49505   3.069   6.290   5.430 -1.4110  0.5227 -0.7715
  367MOL0     H49506   3.233   6.387   5.283 -0.8479  0.0685 -0.9453
  367MOL0     H49507   3.406   6.525   4.941 -0.0331 -1.1878  2.4151
  367MOL0     H49508   3.636   6.510   4.811  0.3373  0.9629 -0.2865
  367MOL0     H49509   3.989   6.658   5.044  0.1777  1.6453 -1.2869
  367MOL0     H49510   3.949   6.486   5.063  0.5755  0.4735  1.1417
  367MOL0     H49511   4.172   6.506   4.988  1.4149 -0.8971 -1.8194
  367MOL0     H49512   4.095   6.439   4.861  0.2587 -0.5025  1.7666
  367MOL0     H49513   4.137   6.734   4.871 -3.4186 -0.6212 -0.6540
  367MOL0     H49514   4.251   6.602   4.798 -0.1773  1.1145 -4.4431
  367MOL0     H49515   3.970   6.648   4.686  0.9998  0.6019  3.5184
  367MOL0     H49516   4.119   6.562   4.627 -0.1329  0.6248  0.4049
  367MOL0     H49517   4.076   6.764   4.490 -1.0973  1.6040  0.7822
  367MOL0     H49518   4.228   6.769   4.579  0.8455 -2.9305 -3.0570
  367MOL0     H49519   4.137   6.934   4.726 -1.0590  2.4831 -0.7373
  367MOL0     H49520   4.117   6.973   4.557  0.3768  1.2484 -0.3118
  367MOL0     H49521   3.879   6.891   4.731 -0.7675  2.7551  1.0172
  367MOL0     H49522   3.878   6.907   4.548  0.0630  1.1003 -0.0412
  367MOL0     H49523   3.792   7.102   4.673  0.4614  0.2281  0.8010
  367MOL0     H49524   3.931   7.094   4.784  2.7165 -0.4486 -0.5305
  367MOL0     H49525   3.816   6.656   5.166  0.7206 -1.5472 -0.9145
  367MOL0     H49526   3.602   6.656   5.288 -2.1881  1.6116 -0.2718
  367MOL0     H49527   3.237   6.755   5.513  1.6640 -0.3590  2.2121
  367MOL0     H49528   3.044   6.661   5.655 -0.5770  0.7734 -1.5737
  367MOL0     H49529   1.607   6.644   5.798 -0.3738 -0.8323  1.2589
  367MOL0     H49530   1.545   6.417   5.831 -1.3774  3.3908  0.9514
  367MOL0     H49531   1.818   5.980   5.666  1.8073 -1.3419 -1.2997
  367MOL0     H49532   1.833   5.741   5.714  0.4803  1.0508 -1.2492
  367MOL0     H49533   1.761   5.519   5.877  1.5954 -1.8601  0.2428
  367MOL0     H49534   1.832   5.529   5.709 -1.4923 -0.3499 -4.3707
  367MOL0     H49535   1.755   5.325   5.644 -1.2462  0.0803 -0.1407
  367MOL0     H49536   1.642   5.313   5.782 -0.9591 -0.4035 -1.6515
  367MOL0     H49537   1.801   5.264   5.942  0.9608 -3.5773  0.6994
  367MOL0     H49538   1.934   5.327   5.848 -0.1229  0.4185 -0.9060
  367MOL0     H49539   1.799   5.065   5.802 -1.0633  0.9889 -0.0701
  367MOL0     H49540   1.904   5.134   5.678 -0.5184 -0.2960  0.3195
  367MOL0     H49541   2.204   5.070   5.957  0.4272 -3.2885 -0.9207
  367MOL0     H49542   1.409   5.697   5.722 -1.5879  0.7013 -1.8892
  367MOL0     H49543   1.306   5.959   5.776  0.0734 -0.7720 -0.0226
  367MOL0     H49544   1.343   6.056   5.631 -1.1923 -0.7701  0.0253
  367MOL0     H49545   1.281   5.889   5.623 -1.3182  0.6985 -0.2770
  368MOL0     O49546   8.617   9.910   5.324  0.5234  0.6081 -0.4046
  368MOL0     C49547   8.733   9.929   5.358 -0.3925 -0.3706  0.4736
  368MOL0     O49548   8.821   9.993   5.282  0.4961  0.4052  0.3013
  368MOL0     C49549   8.800  10.014   5.154 -0.2499  0.3666 -0.0298
  368MOL0     C49550   8.849  10.137   5.099  0.2419 -0.3356 -0.4805
  368MOL0     C49551   8.832  10.158   4.962  1.1671 -0.0651 -0.5514
  368MOL0     C49552   8.794  10.048   4.882  0.5313  1.2515 -0.1357
  368MOL0     O49553   8.782  10.052   4.747 -0.1816  0.4950  0.7765
  368MOL0     C49554   8.887  10.110   4.668 -0.1690 -0.0343 -0.3893
  368MOL0     C49555   9.015  10.028   4.676  0.2498 -0.8268 -1.3391
  368MOL0     C49556   9.107  10.070   4.566  0.0554  0.4601  0.3585
  368MOL0     C49557   9.234   9.990   4.570  0.7916  0.4887 -0.4703
  368MOL0     C49558   9.329  10.053   4.467  0.5041  0.9148 -0.7162
  368MOL0     C49559   9.396   9.948   4.368  0.3103  0.0827  0.5876
  368MOL0     C49560   9.520   9.880   4.429 -0.2649  0.6583 -0.0827
  368MOL0     C49561   9.474   9.771   4.523  0.2068  0.6622 -0.2460
  368MOL0     N49562   9.581   9.668   4.545  0.0120 -0.4173  0.7029
  368MOL0     C49563   9.704   9.714   4.588 -0.4235 -0.3717 -0.1929
  368MOL0     C49564   9.769   9.605   4.628  0.1672 -0.1586  0.3547
  368MOL0     C49565   9.910   9.602   4.669 -0.1193 -0.2033 -0.4941
  368MOL0     C49566  10.013   9.614   4.553 -1.4239 -0.6950 -0.9506
  368MOL0     C49567  10.156   9.556   4.588 -0.2994 -0.2961  0.2239
  368MOL0     C49568  10.250   9.567   4.474 -0.4126  0.3261 -0.3891
  368MOL0     O49569  10.267   9.705   4.432  0.4030 -0.5174  0.3434
  368MOL0     C49570  10.356   9.727   4.327  0.5136  0.6682 -0.0016
  368MOL0     C49571  10.418   9.633   4.255 -0.3317 -0.1703 -0.1815
  368MOL0     C49572  10.507   9.665   4.157  0.7859  0.2508  1.1192
  368MOL0     C49573  10.535   9.796   4.121  0.1499 -0.3543  0.5195
  368MOL0     C49574  10.642   9.833   4.022 -0.1420 -0.4295 -0.1551
  368MOL0     O49575  10.659   9.962   4.011 -0.4512  0.3411 -0.2084
  368MOL0     C49576  10.754  10.018   3.938 -0.0619 -0.5528  0.3593
  368MOL0     C49577  10.812   9.971   3.822 -0.1684  1.1285 -0.7388
  368MOL0     C49578  10.899  10.055   3.751 -0.0967  0.4020 -0.1388
  368MOL0     C49579  10.942  10.184   3.801  1.9034  0.1534  0.0839
  368MOL0     O49580  11.037  10.243   3.726  0.7704  0.1068  0.6849
  368MOL0     C49581  11.019  10.252   3.583  0.3147 -0.1304 -0.4571
  368MOL0     C49582  11.084  10.362   3.521  0.0043  0.0676  0.2641
  368MOL0     C49583  11.231  10.371   3.573  0.0148 -0.2911 -0.6415
  368MOL0     C49584  11.306  10.484   3.491 -0.2065 -0.5121 -0.0741
  368MOL0     C49585  11.446  10.519   3.535 -0.2125 -0.3535  0.6956
  368MOL0     C49586  11.496  10.652   3.471 -0.0738 -0.0500  0.0045
  368MOL0     C49587  11.485  10.669   3.321  0.9940 -0.5236  0.1107
  368MOL0     C49588  11.586  10.773   3.264  0.7952  0.1929 -0.4093
  368MOL0    Cl49589  11.582  10.928   3.368 -0.4105  0.4109  0.0707
  368MOL0     C49590  10.888  10.228   3.924  0.9317 -0.8147 -0.0458
  368MOL0     C49591  10.790  10.146   3.992 -0.5793 -0.2489  0.3793
  368MOL0     O49592  10.708   9.750   3.958  0.0196  0.1316 -0.1493
  368MOL0     C49593  10.475   9.897   4.202 -0.8179 -0.0825 -0.4536
  368MOL0     C49594  10.388   9.862   4.306  0.5910  0.7511  0.0839
  368MOL0     N49595   9.688   9.492   4.588 -0.1776  0.4104 -0.7866
  368MOL0     N49596   9.580   9.531   4.541  0.4035 -0.2627 -0.4149
  368MOL0     C49597   8.742   9.928   4.933  0.4112  0.5041 -0.2041
  368MOL0     C49598   8.761   9.907   5.067 -0.7132  0.5176 -0.1200
  368MOL0     C49599   8.777   9.889   5.493 -0.2445  0.0952  0.0947
  368MOL0     C49600   8.910   9.926   5.535 -0.8118 -0.4429  0.5013
  368MOL0     C49601   8.960   9.875   5.658 -0.1579 -0.0645 -0.3238
  368MOL0     C49602   8.875   9.815   5.756  0.2543 -0.4615  0.2157
  368MOL0     O49603   8.923   9.809   5.882 -0.8269  0.1189 -0.1640
  368MOL0     C49604   8.848   9.766   5.993 -0.9253  0.5890  1.2434
  368MOL0     C49605   8.927   9.749   6.127 -0.7130 -0.3043  0.5137
  368MOL0     C49606   9.026   9.857   6.171 -0.1086 -1.1387  0.0797
  368MOL0     C49607   9.112   9.796   6.276 -0.4363  0.2700  0.0229
  368MOL0     C49608   9.222   9.882   6.310  0.2721 -0.7541 -0.2857
  368MOL0     C49609   9.320   9.950   6.326 -0.3603  0.2861  0.2368
  368MOL0     C49610   8.746   9.793   5.724 -0.7302 -0.4182  0.5545
  368MOL0     C49611   8.697   9.822   5.598  0.0314  0.8752  0.4873
  368MOL0     C49612   8.553   9.779   5.575  1.0917  0.1129 -0.0086
  368MOL0     H49613   8.888  10.215   5.163 -0.4673 -0.6670  0.3834
  368MOL0     H49614   8.875  10.249   4.920  5.5136 -1.1724  0.9497
  368MOL0     H49615   8.848  10.108   4.566  1.8304  0.1794 -1.1878
  368MOL0     H49616   8.904  10.216   4.691 -1.9178  0.4631 -1.1507
  368MOL0     H49617   8.982   9.924   4.685 -0.8474 -0.3166  1.4554
  368MOL0     H49618   9.082  10.048   4.760  1.4439 -0.9459 -2.2381
  368MOL0     H49619   9.139  10.172   4.585  1.1488  0.1011  0.4952
  368MOL0     H49620   9.051  10.049   4.474  2.3960 -3.2519 -0.4374
  368MOL0     H49621   9.276   9.992   4.671 -1.4632 -1.5657  0.6117
  368MOL0     H49622   9.216   9.884   4.550  2.5631  0.6755 -3.6173
  368MOL0     H49623   9.278  10.124   4.402  1.0198  0.2133 -1.9188
  368MOL0     H49624   9.407  10.097   4.529 -0.1989  1.4332 -0.1778
  368MOL0     H49625   9.313   9.884   4.336 -0.3215  1.4793 -0.7296
  368MOL0     H49626   9.424   9.986   4.269  1.0635 -3.6652 -0.8192
  368MOL0     H49627   9.594   9.944   4.478  0.1685 -0.4290  0.7226
  368MOL0     H49628   9.579   9.841   4.346  0.5463 -0.2073  0.8702
  368MOL0     H49629   9.470   9.818   4.622 -0.9538  2.0673 -0.9263
  368MOL0     H49630   9.381   9.720   4.500 -0.1664  2.1208 -2.2488
  368MOL0     H49631   9.749   9.812   4.581  1.3694 -1.0918  0.5554
  368MOL0     H49632   9.925   9.677   4.747 -1.9047 -2.0168  1.7176
  368MOL0     H49633   9.948   9.509   4.711  4.0962  1.3161 -0.3838
  368MOL0     H49634   9.983   9.561   4.462 -0.4697 -1.5080 -0.8208
  368MOL0     H49635  10.024   9.721   4.532 -2.0386 -0.6889 -1.2449
  368MOL0     H49636  10.139   9.451   4.615  0.0004 -0.6485 -0.9121
  368MOL0     H49637  10.201   9.608   4.673  0.5811 -0.9760  0.1785
  368MOL0     H49638  10.213   9.505   4.392 -2.2280  0.3076  0.3924
  368MOL0     H49639  10.343   9.522   4.510 -0.2745 -0.5648 -1.8099
  368MOL0     H49640  10.395   9.530   4.281 -3.7675  0.6232  0.4214
  368MOL0     H49641  10.560   9.587   4.103  0.1006 -0.1212  0.9688
  368MOL0     H49642  10.771   9.881   3.777  1.4381  0.6891 -1.4165
  368MOL0     H49643  10.943  10.020   3.658 -1.6915  1.3314 -1.2768
  368MOL0     H49644  11.058  10.158   3.543 -1.6804 -2.4067  2.5010
  368MOL0     H49645  10.912  10.255   3.560 -0.7653  1.1890  3.7586
  368MOL0     H49646  11.096  10.344   3.414  1.7335  0.0023  0.4397
  368MOL0     H49647  11.026  10.452   3.545 -1.0944 -0.7370  0.7269
  368MOL0     H49648  11.223  10.388   3.681 -0.0536 -2.0700 -0.3375
  368MOL0     H49649  11.291  10.280   3.565  0.2136 -0.3306  0.9671
  368MOL0     H49650  11.234  10.566   3.483 -0.3747 -0.7072 -0.6342
  368MOL0     H49651  11.316  10.447   3.389 -1.0767  0.0260 -0.3638
  368MOL0     H49652  11.506  10.435   3.500 -0.2259  0.6592 -1.9473
  368MOL0     H49653  11.449  10.528   3.644 -1.2155 -0.9202  0.7877
  368MOL0     H49654  11.436  10.729   3.522  1.9031  1.4766  0.1358
  368MOL0     H49655  11.587  10.685   3.521 -0.8846 -0.0260  1.5266
  368MOL0     H49656  11.386  10.703   3.287  2.3117  0.9235 -2.6700
  368MOL0     H49657  11.510  10.571   3.280 -0.5079 -0.5871 -0.7456
  368MOL0     H49658  11.684  10.725   3.269  0.1917 -1.3955 -2.4193
  368MOL0     H49659  11.555  10.801   3.163 -0.2109  1.6254  0.2520
  368MOL0     H49660  10.912  10.327   3.961  0.0998 -1.0628  1.2262
  368MOL0     H49661  10.733  10.184   4.076  1.0190  2.8583  0.1887
  368MOL0     H49662  10.504   9.998   4.175 -2.2979 -0.0182 -2.0346
  368MOL0     H49663  10.343   9.940   4.368  1.9491  1.0540  0.7259
  368MOL0     H49664   8.715   9.852   4.860 -1.1772 -1.1917  2.0042
  368MOL0     H49665   8.735   9.805   5.095  0.4960 -0.3396 -1.9102
  368MOL0     H49666   8.969   9.990   5.470 -3.2659 -0.5926 -2.0826
  368MOL0     H49667   9.064   9.897   5.677 -0.0888  0.5008 -1.3164
  368MOL0     H49668   8.801   9.669   5.973 -1.3436  0.5811  2.2034
  368MOL0     H49669   8.768   9.839   6.004 -1.5913  0.1576 -0.3856
  368MOL0     H49670   8.989   9.661   6.107  0.3072  0.8935 -2.1675
  368MOL0     H49671   8.862   9.722   6.211 -0.8547 -1.2605  0.1162
  368MOL0     H49672   8.973   9.945   6.209  1.9765  0.8684 -1.3636
  368MOL0     H49673   9.090   9.877   6.084  3.4067  0.5303  2.7689
  368MOL0     H49674   9.052   9.770   6.364 -1.2009  0.9192 -0.2852
  368MOL0     H49675   9.154   9.706   6.230  0.5937  0.3168  0.8500
  368MOL0     H49676   9.421   9.986   6.336 -0.4021  0.9409 -1.3230
  368MOL0     H49677   8.680   9.764   5.806  1.2113  0.0175  2.3661
  368MOL0     H49678   8.523   9.733   5.669  1.7140 -1.6960 -0.6432
  368MOL0     H49679   8.477   9.849   5.540  0.5311 -2.2828 -4.4113
  368MOL0     H49680   8.541   9.704   5.496 -0.8499  0.8628 -0.4851
  369MOL0     O49681   4.813   9.848  10.276  0.7721  0.3541 -0.4995
  369MOL0     C49682   4.835   9.875  10.158  0.2099 -0.4289  0.4702
  369MOL0     O49683   4.958   9.892  10.100 -0.1997  0.6295 -0.2118
  369MOL0     C49684   5.074   9.916  10.181  0.7167 -0.4289 -0.2823
  369MOL0     C49685   5.066  10.001  10.294 -0.3625  0.6272  0.4967
  369MOL0     C49686   5.190  10.023  10.360  0.3276  0.2476  0.0833
  369MOL0     C49687   5.312   9.964  10.320  0.3584  0.6703 -0.7651
  369MOL0     O49688   5.427   9.997  10.394  0.3775  0.2284  0.0820
  369MOL0     C49689   5.551   9.933  10.371 -0.5357 -0.0109  0.2468
  369MOL0     C49690   5.639   9.964  10.492  0.0768  0.4194 -0.1431
  369MOL0     C49691   5.575   9.923  10.628  0.1960 -0.2281  0.3030
  369MOL0     C49692   5.664   9.946  10.747 -0.3878  0.2571 -0.5826
  369MOL0     C49693   5.684  10.099  10.784  1.2818 -0.0429 -0.1597
  369MOL0     C49694   5.560  10.160  10.858  1.3181  0.5533 -0.3687
  369MOL0     C49695   5.600  10.299  10.903 -0.0817 -0.0818  1.1668
  369MOL0     C49696   5.695  10.315  11.026 -0.6721 -0.6500  0.3338
  369MOL0     N49697   5.670  10.227  11.137  0.1951 -0.2982  0.1473
  369MOL0     C49698   5.626  10.276  11.255  1.0044 -0.3100 -0.6375
  369MOL0     C49699   5.645  10.181  11.346  0.0559  0.0622 -0.9833
  369MOL0     C49700   5.591  10.197  11.489  0.5472 -0.8075 -0.2581
  369MOL0     C49701   5.534  10.071  11.550  0.0581  0.1988  0.4183
  369MOL0     C49702   5.399  10.023  11.484  0.0852 -0.6366 -0.4850
  369MOL0     C49703   5.374   9.882  11.529  0.2020 -0.6408  1.0356
  369MOL0     O49704   5.246   9.830  11.487 -0.1051  0.7115 -0.3258
  369MOL0     C49705   5.140   9.805  11.574  0.4019  0.0489 -0.2664
  369MOL0     C49706   5.022   9.751  11.520  0.5772 -0.1006  0.2119
  369MOL0     C49707   4.914   9.736  11.599 -0.3483 -0.0635 -0.4810
  369MOL0     C49708   4.901   9.781  11.733 -0.5900 -0.4773  0.3146
  369MOL0     C49709   4.778   9.774  11.810 -0.0197  1.2751  0.1456
  369MOL0     O49710   4.664   9.754  11.747  0.3406  0.5023  0.4933
  369MOL0     C49711   4.547   9.767  11.809  0.3444 -0.3489 -0.6784
  369MOL0     C49712   4.521   9.713  11.935 -0.0452  0.5408 -1.2051
  369MOL0     C49713   4.403   9.732  12.001  0.1005 -0.7403  0.3491
  369MOL0     C49714   4.295   9.806  11.935 -0.0077 -0.3197  0.2083
  369MOL0     O49715   4.177   9.809  11.997 -0.3579 -0.0810 -0.1875
  369MOL0     C49716   4.073   9.757  11.909  0.4009 -0.1859  1.2529
  369MOL0     C49717   3.949   9.726  11.986 -0.1783 -0.4848  0.2577
  369MOL0     C49718   3.861   9.631  11.904  0.5881  0.2130  0.2316
  369MOL0     C49719   3.728   9.606  11.977 -0.1317 -0.3892 -0.1397
  369MOL0     C49720   3.665   9.482  11.926 -0.0646  0.4441 -0.1127
  369MOL0     C49721   3.528   9.457  11.994 -0.2412 -0.0025 -0.1447
  369MOL0     C49722   3.494   9.307  11.962 -0.1760  0.0172  0.1993
  369MOL0     C49723   3.361   9.267  12.030  0.2378 -0.5153  0.0347
  369MOL0    Cl49724   3.396   9.241  12.205 -0.0912  0.0927  0.1162
  369MOL0     C49725   4.320   9.858  11.811 -0.2403  0.1995  0.8709
  369MOL0     C49726   4.442   9.837  11.744  0.0333  0.7491 -0.9027
  369MOL0     O49727   4.791   9.795  11.931 -0.1636 -0.6422  0.1084
  369MOL0     C49728   5.022   9.829  11.792 -0.0202 -0.1564 -0.2783
  369MOL0     C49729   5.133   9.852  11.714 -0.5816  1.1641 -0.0683
  369MOL0     N49730   5.727  10.087  11.293  0.2313 -0.3097 -0.7661
  369MOL0     N49731   5.744  10.113  11.171 -0.3241  0.4888  0.2282
  369MOL0     C49732   5.318   9.879  10.208  0.2911 -0.1129  1.1315
  369MOL0     C49733   5.198   9.864  10.135 -0.3860 -0.3140  0.3342
  369MOL0     C49734   4.717   9.869  10.055  0.3275  1.2400  0.6793
  369MOL0     C49735   4.600   9.807  10.095 -0.0926  0.3045 -0.4295
  369MOL0     C49736   4.482   9.796  10.019  0.1051  0.0282  0.1269
  369MOL0     C49737   4.483   9.839   9.885  0.4347  0.0164  0.3440
  369MOL0     O49738   4.370   9.821   9.817  0.6171  0.3266  0.2321
  369MOL0     C49739   4.364   9.829   9.676  0.4058 -0.0980  0.0233
  369MOL0     C49740   4.243   9.743   9.628  0.4338 -0.1726 -1.1038
  369MOL0     C49741   4.250   9.716   9.480  0.0047 -0.3070 -0.5582
  369MOL0     C49742   4.209   9.844   9.404  0.3396  0.2652  0.3506
  369MOL0     C49743   4.074   9.874   9.447 -0.8375  0.0369  0.5065
  369MOL0     C49744   3.961   9.911   9.476  0.5953  0.2329 -0.7641
  369MOL0     C49745   4.600   9.903   9.835 -0.5063  0.2469  0.5390
  369MOL0     C49746   4.715   9.922   9.922 -0.4035  0.3897  0.9501
  369MOL0     C49747   4.832  10.000   9.857 -0.6455  0.3235 -0.5697
  369MOL0     H49748   4.976  10.053  10.326 -1.2176  0.0037 -0.8358
  369MOL0     H49749   5.184  10.103  10.433  0.8620  0.8968 -0.5747
  369MOL0     H49750   5.539   9.826  10.351  0.9588 -0.2495  0.4787
  369MOL0     H49751   5.605   9.982  10.290 -4.2215  1.7009 -1.3901
  369MOL0     H49752   5.642  10.074  10.494 -0.8879  0.4478  1.1250
  369MOL0     H49753   5.742   9.930  10.475  0.8937  2.8700 -0.6523
  369MOL0     H49754   5.547   9.817  10.622 -0.1948 -0.1315  0.4045
  369MOL0     H49755   5.486   9.986  10.634 -1.8962 -2.6169 -2.5288
  369MOL0     H49756   5.613   9.898  10.831 -0.3134 -0.0006 -0.6860
  369MOL0     H49757   5.761   9.904  10.718 -0.9025  0.9892 -3.7264
  369MOL0     H49758   5.768  10.095  10.854 -0.5110  0.1904  2.1190
  369MOL0     H49759   5.718  10.156  10.697 -0.6403  1.8261  0.2127
  369MOL0     H49760   5.471  10.154  10.794 -0.0916  0.9999  1.4697
  369MOL0     H49761   5.540  10.098  10.946 -1.8757  2.3346  0.3213
  369MOL0     H49762   5.504  10.345  10.926  1.1600  1.7017  3.0306
  369MOL0     H49763   5.638  10.355  10.817 -1.2107  2.2914  2.1309
  369MOL0     H49764   5.797  10.313  10.986  0.3833  0.8861  2.7080
  369MOL0     H49765   5.698  10.419  11.058 -0.0032 -0.0839 -1.4253
  369MOL0     H49766   5.576  10.371  11.273 -2.3665 -1.8355 -1.1960
  369MOL0     H49767   5.669  10.232  11.557 -0.9959  3.2354 -0.3083
  369MOL0     H49768   5.527  10.286  11.491  0.4566 -0.8675 -0.4686
  369MOL0     H49769   5.609   9.991  11.547  0.6030  0.3113  4.6131
  369MOL0     H49770   5.512  10.100  11.653 -0.7396  0.5944  0.1407
  369MOL0     H49771   5.392  10.034  11.375  2.3909  1.0736 -0.5326
  369MOL0     H49772   5.318  10.082  11.529 -3.3149 -1.4499 -4.8833
  369MOL0     H49773   5.396   9.859  11.634  2.6505 -2.6211  0.1854
  369MOL0     H49774   5.443   9.822  11.468  1.0129  1.0977  0.1856
  369MOL0     H49775   5.014   9.705  11.422  1.3475 -0.5881  0.3631
  369MOL0     H49776   4.831   9.686  11.550 -0.4233  0.0655 -0.4844
  369MOL0     H49777   4.608   9.662  11.976  1.3164  3.8382  0.3260
  369MOL0     H49778   4.393   9.683  12.097  3.3296  1.3644  1.9254
  369MOL0     H49779   4.048   9.826  11.829 -1.3953 -2.1625  0.0326
  369MOL0     H49780   4.104   9.661  11.868  1.2684  0.5364  0.1490
  369MOL0     H49781   3.961   9.688  12.088  0.5187 -0.7096  0.0951
  369MOL0     H49782   3.903   9.825  11.995  2.2269  0.9351 -1.7679
  369MOL0     H49783   3.828   9.670  11.807 -2.8301 -0.4862  0.9875
  369MOL0     H49784   3.925   9.545  11.883  2.2212  1.8182 -1.8614
  369MOL0     H49785   3.655   9.687  11.973  0.7224  0.5430  1.9349
  369MOL0     H49786   3.753   9.582  12.081  0.1241 -1.7340 -0.4806
  369MOL0     H49787   3.734   9.398  11.935  2.4952  2.0949 -2.9343
  369MOL0     H49788   3.641   9.480  11.819  5.8281 -1.0955 -1.7444
  369MOL0     H49789   3.534   9.476  12.101 -1.2944  2.2439 -0.4296
  369MOL0     H49790   3.454   9.524  11.949 -0.1426 -0.3619 -0.8503
  369MOL0     H49791   3.579   9.244  11.988 -0.2683  0.2124  1.0010
  369MOL0     H49792   3.481   9.298  11.853  1.3000  1.6227 -0.1392
  369MOL0     H49793   3.290   9.349  12.018  2.7655  2.7852  4.6911
  369MOL0     H49794   3.340   9.168  11.988  1.6513 -0.5896 -0.5524
  369MOL0     H49795   4.240   9.918  11.767  0.5798  1.2424  0.7705
  369MOL0     H49796   4.455   9.890  11.650 -1.1231  0.4367 -1.2559
  369MOL0     H49797   5.032   9.856  11.896  1.6240 -2.3091  0.1841
  369MOL0     H49798   5.222   9.892  11.763  2.4769 -2.8032 -1.7790
  369MOL0     H49799   5.412   9.829  10.190 -0.5597 -0.8589 -1.7360
  369MOL0     H49800   5.191   9.810  10.042 -1.8588  1.7478 -0.8228
  369MOL0     H49801   4.598   9.778  10.200 -0.0275 -2.3470 -1.1110
  369MOL0     H49802   4.393   9.742  10.049 -0.4112  0.1447 -1.1143
  369MOL0     H49803   4.457   9.785   9.637 -0.6891 -1.2930 -1.3196
  369MOL0     H49804   4.349   9.933   9.647 -1.2731  0.3973  2.3460
  369MOL0     H49805   4.150   9.790   9.662  1.1208  0.8044 -0.5265
  369MOL0     H49806   4.250   9.638   9.658 -1.4577 -0.6207 -2.0615
  369MOL0     H49807   4.176   9.639   9.455 -1.2563  0.4724  0.6742
  369MOL0     H49808   4.352   9.680   9.469 -0.5925 -2.7932  1.0705
  369MOL0     H49809   4.263   9.936   9.426 -4.2904  3.1460  0.9286
  369MOL0     H49810   4.210   9.829   9.296 -0.3539  0.5032  0.3105
  369MOL0     H49811   3.858   9.925   9.502  0.8083 -1.1118  0.9755
  369MOL0     H49812   4.597   9.950   9.738 -0.0394  0.4639  0.6289
  369MOL0     H49813   4.881  10.060   9.934 -0.1026  1.0859 -1.4881
  369MOL0     H49814   4.907   9.932   9.817 -3.0048 -1.5079 -2.0973
  369MOL0     H49815   4.795  10.064   9.777  0.1950  1.1759 -0.2960
  370MOL0     O49816   4.970   7.178   5.461 -0.6394 -0.6504  0.0757
  370MOL0     C49817   4.883   7.169   5.373 -0.4737 -0.3773 -0.1697
  370MOL0     O49818   4.891   7.226   5.242  0.2247  0.1146  0.0002
  370MOL0     C49819   5.019   7.275   5.215 -0.2238 -0.0162  0.4379
  370MOL0     C49820   5.092   7.210   5.115 -0.1307 -1.3725 -0.0706
  370MOL0     C49821   5.219   7.254   5.077  0.1166 -0.1057 -0.2544
  370MOL0     C49822   5.267   7.366   5.144 -0.0379  0.2654  0.6983
  370MOL0     O49823   5.393   7.407   5.100 -0.4251 -0.7335  0.0123
  370MOL0     C49824   5.465   7.486   5.194 -0.8362 -0.5089  0.6480
  370MOL0     C49825   5.608   7.494   5.140  0.2088  0.4358  0.8105
  370MOL0     C49826   5.709   7.568   5.231  0.6922 -0.1546 -0.4949
  370MOL0     C49827   5.823   7.620   5.152  0.1620  0.1635 -0.7751
  370MOL0     C49828   5.926   7.681   5.252  0.1785 -0.0624 -1.0147
  370MOL0     C49829   6.065   7.695   5.183  0.3428 -0.4209  0.3985
  370MOL0     C49830   6.169   7.749   5.278  0.3452  0.0929 -0.5511
  370MOL0     C49831   6.293   7.811   5.210  0.3055 -0.6560 -0.0987
  370MOL0     N49832   6.397   7.709   5.187 -0.5599  0.4063 -1.4983
  370MOL0     C49833   6.450   7.630   5.299 -0.3765 -0.6540  0.8824
  370MOL0     C49834   6.530   7.537   5.240 -0.5626 -0.5359  0.0302
  370MOL0     C49835   6.600   7.420   5.304  0.1572  0.5317  0.1770
  370MOL0     C49836   6.686   7.447   5.424  0.4444  0.4657  0.7251
  370MOL0     C49837   6.754   7.315   5.475 -0.4297  0.5503  0.3819
  370MOL0     C49838   6.884   7.344   5.561  0.9523 -0.6907 -0.7131
  370MOL0     O49839   6.968   7.388   5.466 -0.4581  0.1502  0.3852
  370MOL0     C49840   7.105   7.382   5.478 -0.0114  0.8319  0.9348
  370MOL0     C49841   7.172   7.344   5.595 -0.6392 -0.4546 -0.1616
  370MOL0     C49842   7.307   7.332   5.593 -0.6346  0.4705  0.2086
  370MOL0     C49843   7.389   7.371   5.483 -0.1025  0.3671  0.0741
  370MOL0     C49844   7.536   7.380   5.497 -0.2606  0.1188  0.2233
  370MOL0     O49845   7.583   7.411   5.620  0.2027  0.1908 -0.2202
  370MOL0     C49846   7.717   7.438   5.643  0.0050  0.5034  0.5207
  370MOL0     C49847   7.740   7.540   5.736 -0.8448 -0.7521 -0.8111
  370MOL0     C49848   7.870   7.562   5.785  0.8845 -0.3671 -0.7097
  370MOL0     C49849   7.978   7.493   5.734 -0.5409  0.6960 -0.1013
  370MOL0     O49850   8.103   7.507   5.799 -0.3810  0.2273  0.1909
  370MOL0     C49851   8.215   7.416   5.775 -0.2057 -0.2242  1.4599
  370MOL0     C49852   8.353   7.475   5.826  0.0794  0.3994  0.3944
  370MOL0     C49853   8.489   7.411   5.788 -0.7254  0.1397  0.4204
  370MOL0     C49854   8.608   7.496   5.823 -0.5746 -0.6171  0.0796
  370MOL0     C49855   8.641   7.492   5.965 -0.2112  0.2655  0.1891
  370MOL0     C49856   8.762   7.581   5.983 -0.3308 -0.5121 -0.5172
  370MOL0     C49857   8.810   7.570   6.128  0.2947 -0.2043 -1.1746
  370MOL0     C49858   8.937   7.658   6.153  0.3725 -0.1516 -0.0745
  370MOL0    Cl49859   8.889   7.807   6.242  0.0849 -0.0020  0.1739
  370MOL0     C49860   7.953   7.401   5.625  0.6198  0.0864 -0.3624
  370MOL0     C49861   7.826   7.371   5.578  0.6812 -0.9587 -0.6994
  370MOL0     O49862   7.603   7.364   5.396  0.6475  0.5938 -0.1296
  370MOL0     C49863   7.328   7.398   5.360  0.0389  0.2363 -0.1938
  370MOL0     C49864   7.183   7.402   5.360 -0.3436 -0.5551 -0.5932
  370MOL0     N49865   6.514   7.552   5.102  0.0796 -0.7903  0.0292
  370MOL0     N49866   6.430   7.643   5.076 -0.0851 -0.3391  0.2321
  370MOL0     C49867   5.186   7.441   5.231 -0.2266  0.0839  0.1440
  370MOL0     C49868   5.065   7.392   5.273 -0.3754  0.4907 -0.3644
  370MOL0     C49869   4.761   7.095   5.403 -0.2593  0.4161  0.0859
  370MOL0     C49870   4.712   7.016   5.298 -0.0588  0.2975 -0.4191
  370MOL0     C49871   4.622   6.910   5.310  0.9948 -0.2079  0.3009
  370MOL0     C49872   4.559   6.893   5.434  0.5055 -0.2580  0.6606
  370MOL0     O49873   4.449   6.806   5.439 -0.4617 -0.5054 -0.5790
  370MOL0     C49874   4.367   6.788   5.556 -0.4776 -0.1322  0.2699
  370MOL0     C49875   4.285   6.908   5.597  0.0280 -0.1294  0.1734
  370MOL0     C49876   4.176   6.936   5.494 -0.2793  0.0498  0.7391
  370MOL0     C49877   4.046   6.854   5.520 -0.1063 -0.5108 -0.2048
  370MOL0     C49878   3.946   6.936   5.600  0.0120  1.4942 -1.0187
  370MOL0     C49879   3.873   7.006   5.671 -0.2705  0.2763 -0.3522
  370MOL0     C49880   4.588   6.975   5.540 -1.1636  0.2327  0.5996
  370MOL0     C49881   4.694   7.075   5.534 -0.5744 -0.4769 -0.2019
  370MOL0     C49882   4.725   7.165   5.655 -1.0574 -0.1745 -0.2886
  370MOL0     H49883   5.048   7.114   5.091 -0.9598 -1.5316  1.9099
  370MOL0     H49884   5.278   7.199   5.005 -2.4608  1.1149 -3.5174
  370MOL0     H49885   5.420   7.585   5.204 -1.5842 -0.7869  0.1190
  370MOL0     H49886   5.478   7.436   5.290  1.7303  0.2009  0.7686
  370MOL0     H49887   5.592   7.543   5.043  1.7536 -0.4281  0.0664
  370MOL0     H49888   5.651   7.394   5.125  0.2017  0.2732  1.8240
  370MOL0     H49889   5.755   7.498   5.302  2.3175 -0.3126 -1.6609
  370MOL0     H49890   5.650   7.647   5.279 -2.5572 -0.8233 -3.0259
  370MOL0     H49891   5.871   7.540   5.095 -1.0844 -0.8165 -0.4839
  370MOL0     H49892   5.785   7.695   5.083 -0.7031 -1.6006 -2.2957
  370MOL0     H49893   5.890   7.782   5.274  1.7114  1.0531 -3.2390
  370MOL0     H49894   5.929   7.621   5.343 -2.2496 -1.2841 -1.6412
  370MOL0     H49895   6.090   7.593   5.153  0.5888 -0.7939  1.7614
  370MOL0     H49896   6.065   7.768   5.102  1.4520 -0.3542  0.4445
  370MOL0     H49897   6.210   7.670   5.343 -2.8772  0.6733  2.4674
  370MOL0     H49898   6.126   7.825   5.343 -1.7035 -2.1545  0.8932
  370MOL0     H49899   6.272   7.877   5.125  0.0816  0.0373  0.4799
  370MOL0     H49900   6.341   7.877   5.283 -1.0916  1.2323 -0.7929
  370MOL0     H49901   6.434   7.639   5.406  0.6928  1.1237  0.9456
  370MOL0     H49902   6.531   7.343   5.337  0.3409  0.4407  0.3533
  370MOL0     H49903   6.666   7.378   5.228 -2.1764 -1.3865 -0.8813
  370MOL0     H49904   6.759   7.525   5.398 -2.2873  2.7362 -0.6739
  370MOL0     H49905   6.631   7.495   5.506  1.4671 -0.2045  1.8419
  370MOL0     H49906   6.781   7.248   5.392 -0.2559  1.5611 -0.4023
  370MOL0     H49907   6.684   7.264   5.540 -0.8526  0.2223 -0.3215
  370MOL0     H49908   6.919   7.254   5.613 -0.4641  0.4087  2.4189
  370MOL0     H49909   6.854   7.417   5.637  0.5489  1.7335 -3.0715
  370MOL0     H49910   7.114   7.345   5.687 -1.3044  1.0080 -0.5661
  370MOL0     H49911   7.357   7.302   5.684  2.9414 -1.6190 -2.1841
  370MOL0     H49912   7.663   7.595   5.789 -1.1103 -1.1083 -0.8203
  370MOL0     H49913   7.888   7.639   5.859 -1.0331 -0.8076  0.2768
  370MOL0     H49914   8.187   7.331   5.838  1.3550  0.4355  3.1088
  370MOL0     H49915   8.220   7.395   5.668 -2.0743 -0.0399  1.2929
  370MOL0     H49916   8.349   7.578   5.789 -3.0567  0.3867  0.4042
  370MOL0     H49917   8.359   7.472   5.935  3.4246  2.9588  0.4641
  370MOL0     H49918   8.492   7.313   5.836 -0.0861  0.1101  0.3236
  370MOL0     H49919   8.486   7.391   5.680  2.7166  0.8825  0.0707
  370MOL0     H49920   8.578   7.600   5.804  2.9095  0.9317  2.0563
  370MOL0     H49921   8.695   7.460   5.766 -0.6772 -2.6986  1.1667
  370MOL0     H49922   8.653   7.390   6.003  1.9388  1.2206  2.3963
  370MOL0     H49923   8.562   7.535   6.026 -2.4622 -1.4985 -1.3155
  370MOL0     H49924   8.835   7.552   5.908 -0.7121  1.7545 -1.8398
  370MOL0     H49925   8.740   7.685   5.959  1.6777  0.3962  1.2104
  370MOL0     H49926   8.836   7.465   6.147 -2.9022 -1.0379 -0.8853
  370MOL0     H49927   8.728   7.596   6.195  1.0069  1.4465 -0.8959
  370MOL0     H49928   8.999   7.598   6.220 -2.0722 -0.3089  2.2153
  370MOL0     H49929   8.985   7.680   6.058 -0.4639 -0.6649 -0.6290
  370MOL0     H49930   8.034   7.353   5.572  1.0229  0.5187 -0.1383
  370MOL0     H49931   7.807   7.290   5.508 -0.3791 -1.3446  0.0242
  370MOL0     H49932   7.381   7.412   5.267 -0.2815 -1.1653 -0.6082
  370MOL0     H49933   7.129   7.433   5.271 -2.0082  1.4423  1.0004
  370MOL0     H49934   5.229   7.524   5.287  2.6668 -0.4197 -1.1168
  370MOL0     H49935   5.002   7.446   5.343 -1.5011 -0.1569 -0.8451
  370MOL0     H49936   4.742   7.038   5.197 -3.7596 -1.4531 -2.1004
  370MOL0     H49937   4.590   6.846   5.228  0.7771 -1.4267  1.3015
  370MOL0     H49938   4.438   6.771   5.638  0.4811 -1.1629 -0.7538
  370MOL0     H49939   4.308   6.696   5.554  0.9299 -1.0465 -0.6992
  370MOL0     H49940   4.350   6.996   5.598  0.5267 -0.4859 -0.2086
  370MOL0     H49941   4.239   6.883   5.693  1.1194  0.1903  0.8008
  370MOL0     H49942   4.215   6.913   5.394  0.0948  0.9336  0.6753
  370MOL0     H49943   4.149   7.042   5.487  0.6146  0.2134 -0.9493
  370MOL0     H49944   4.010   6.807   5.428 -0.7406  0.1000 -0.2724
  370MOL0     H49945   4.075   6.761   5.572 -1.7055 -1.3840 -0.8067
  370MOL0     H49946   3.819   7.077   5.731  0.4625  0.6514 -0.1292
  370MOL0     H49947   4.553   6.949   5.640 -0.4385  3.8411  1.9421
  370MOL0     H49948   4.634   7.208   5.696 -0.8271  0.1187 -0.0797
  370MOL0     H49949   4.763   7.091   5.726 -4.8570 -1.1263  0.9794
  370MOL0     H49950   4.804   7.239   5.637 -0.4044  0.3238  3.7482
  371MOL0     O49951   3.953  10.444   7.276  0.2350 -0.1677  0.0802
  371MOL0     C49952   3.904  10.541   7.220  0.0904 -0.4915 -0.3819
  371MOL0     O49953   3.974  10.622   7.136 -0.0927 -0.0102 -0.2876
  371MOL0     C49954   4.103  10.586   7.113  0.3133  1.0088  0.9436
  371MOL0     C49955   4.204  10.675   7.152  0.2598  0.5147 -0.1817
  371MOL0     C49956   4.332  10.667   7.086 -0.0740 -0.4669 -0.1520
  371MOL0     C49957   4.361  10.563   6.999 -0.4024 -0.2720  0.2093
  371MOL0     O49958   4.488  10.562   6.947  0.2839  0.0916  0.2990
  371MOL0     C49959   4.538  10.441   6.891  0.3903  0.5302  0.5684
  371MOL0     C49960   4.678  10.458   6.839  0.7921  0.6011 -0.1706
  371MOL0     C49961   4.752  10.318   6.818  0.3235  0.1810 -0.5447
  371MOL0     C49962   4.868  10.288   6.912 -0.7914  0.1258 -0.4050
  371MOL0     C49963   4.982  10.399   6.902  0.0088  0.2812 -0.1211
  371MOL0     C49964   5.106  10.370   7.007 -0.1556  0.0788  0.7052
  371MOL0     C49965   5.217  10.484   6.988 -0.5896  0.1578  0.0570
  371MOL0     C49966   5.297  10.473   6.853 -0.4706  0.1858 -0.1346
  371MOL0     N49967   5.379  10.593   6.833 -0.4532  0.0579 -0.0753
  371MOL0     C49968   5.327  10.720   6.831 -0.6165  0.5936  0.0709
  371MOL0     C49969   5.444  10.799   6.853  0.2559  0.4420 -0.2795
  371MOL0     C49970   5.448  10.944   6.868 -0.3655  0.2563  0.0392
  371MOL0     C49971   5.496  11.022   6.738 -1.3671  0.0464 -0.4750
  371MOL0     C49972   5.449  11.156   6.708  0.1697 -0.6060 -0.0476
  371MOL0     C49973   5.482  11.261   6.814  0.1324  0.7421 -0.2012
  371MOL0     O49974   5.432  11.245   6.946 -0.1277  0.1721  0.9753
  371MOL0     C49975   5.300  11.261   6.980 -0.4002  0.5409  0.3546
  371MOL0     C49976   5.195  11.283   6.896 -0.1201  0.4278 -0.4043
  371MOL0     C49977   5.060  11.296   6.946  0.1885  0.5980 -0.5851
  371MOL0     C49978   5.024  11.290   7.078  0.3491 -0.5229 -0.0260
  371MOL0     C49979   4.873  11.291   7.117 -0.5736  0.6744 -0.2257
  371MOL0     O49980   4.780  11.267   7.012  0.2949 -0.2434 -0.3351
  371MOL0     C49981   4.644  11.261   7.038 -0.2107  0.0968 -0.1171
  371MOL0     C49982   4.586  11.370   7.084  0.2229  1.1974  0.2205
  371MOL0     C49983   4.446  11.369   7.102  0.3492  0.5719  0.0210
  371MOL0     C49984   4.364  11.269   7.049  0.0456  0.3958  0.1541
  371MOL0     O49985   4.226  11.272   7.056 -0.5342 -0.2042 -0.1038
  371MOL0     C49986   4.166  11.380   7.127  0.2237  0.0752 -0.3597
  371MOL0     C49987   4.018  11.345   7.158 -0.4510  0.8801  0.4158
  371MOL0     C49988   3.922  11.387   7.042  0.5008  0.7387  0.6035
  371MOL0     C49989   3.884  11.533   7.069 -0.0938 -0.9727 -0.6081
  371MOL0     C49990   3.740  11.555   7.034  0.2547  0.2261 -0.8134
  371MOL0     C49991   3.707  11.703   7.063  0.1530 -0.9826 -0.1518
  371MOL0     C49992   3.564  11.747   7.017 -0.9478 -0.5425 -0.0005
  371MOL0     C49993   3.514  11.884   7.058 -0.0241  0.7923 -0.0047
  371MOL0    Cl49994   3.625  12.014   7.003 -0.4717  0.0527 -0.4619
  371MOL0     C49995   4.424  11.153   7.001 -0.3986  0.5653  0.2089
  371MOL0     C49996   4.566  11.147   7.000  0.6880  0.5379  0.7208
  371MOL0     O49997   4.849  11.323   7.229 -0.2073  0.3188  0.1212
  371MOL0     C49998   5.131  11.288   7.165 -0.1106  0.1828 -1.1354
  371MOL0     C49999   5.265  11.264   7.117 -0.2378 -0.4739  0.4436
  371MOL0     N50000   5.557  10.718   6.846 -0.0296  0.1193  0.2656
  371MOL0     N50001   5.520  10.596   6.835  0.5759  0.5512  0.1363
  371MOL0     C50002   4.261  10.470   6.966  0.3056  0.6256 -0.1664
  371MOL0     C50003   4.134  10.481   7.021 -0.7482  0.7060  0.3297
  371MOL0     C50004   3.765  10.581   7.258  0.3044  1.0463  1.0825
  371MOL0     C50005   3.710  10.690   7.188 -0.2645  1.1573 -0.2719
  371MOL0     C50006   3.579  10.721   7.210 -0.7644 -1.0446  0.1486
  371MOL0     C50007   3.494  10.654   7.292  0.1087  0.9101 -0.0961
  371MOL0     O50008   3.363  10.686   7.326 -0.0181 -0.1825 -0.0032
  371MOL0     C50009   3.321  10.800   7.248 -0.7333  0.1452  0.5682
  371MOL0     C50010   3.176  10.822   7.300  0.3706  0.4510 -0.1515
  371MOL0     C50011   3.176  10.894   7.439  0.2515 -0.2023  0.1657
  371MOL0     C50012   3.187  11.049   7.429  0.5834  0.4731 -0.5921
  371MOL0     C50013   3.090  11.114   7.341  1.1700 -0.8201 -0.1201
  371MOL0     C50014   3.013  11.171   7.270  0.4100 -1.4516  0.3316
  371MOL0     C50015   3.554  10.551   7.371  0.6384 -1.3487 -0.3223
  371MOL0     C50016   3.678  10.507   7.349  0.0757 -0.4824 -0.4562
  371MOL0     C50017   3.730  10.397   7.441  0.6489 -0.1309 -0.2666
  371MOL0     H50018   4.176  10.761   7.212  2.7667  0.8441  0.6249
  371MOL0     H50019   4.399  10.750   7.105 -1.4313  0.4325  0.8583
  371MOL0     H50020   4.538  10.359   6.963  0.7698  0.4474  0.4756
  371MOL0     H50021   4.477  10.414   6.804 -0.2955 -0.2709  1.2810
  371MOL0     H50022   4.739  10.500   6.920  0.6419 -1.1767  0.9222
  371MOL0     H50023   4.680  10.528   6.755 -0.2121  1.4593  0.4956
  371MOL0     H50024   4.778  10.313   6.711  0.9384 -0.9071 -0.3604
  371MOL0     H50025   4.679  10.238   6.830  0.5271 -0.1518 -1.3862
  371MOL0     H50026   4.829  10.280   7.014 -4.1140 -0.4702 -1.6159
  371MOL0     H50027   4.914  10.190   6.894 -0.4175 -0.5997  3.5737
  371MOL0     H50028   5.027  10.407   6.802  2.5295  0.5537  0.9643
  371MOL0     H50029   4.939  10.499   6.916  3.1075  1.7691 -0.4266
  371MOL0     H50030   5.074  10.368   7.111  0.7584 -1.1074  0.9912
  371MOL0     H50031   5.171  10.282   6.995 -0.5358 -0.3357  1.6437
  371MOL0     H50032   5.290  10.482   7.070 -1.4428 -1.0284  0.8175
  371MOL0     H50033   5.166  10.581   6.988  1.7872  1.4750  0.4483
  371MOL0     H50034   5.364  10.387   6.862  0.2122  0.5222 -1.7005
  371MOL0     H50035   5.234  10.463   6.764 -2.0698  0.9282  0.8701
  371MOL0     H50036   5.228  10.760   6.848  0.3813  2.0704  3.4609
  371MOL0     H50037   5.348  10.983   6.891 -1.6962 -1.7240 -1.9922
  371MOL0     H50038   5.518  10.967   6.948  3.0841  0.4539 -2.8164
  371MOL0     H50039   5.603  11.033   6.758 -1.8609 -1.5017  4.0569
  371MOL0     H50040   5.479  10.964   6.647  1.5924  0.8685 -1.7056
  371MOL0     H50041   5.339  11.150   6.706  0.1961 -2.5786  1.0859
  371MOL0     H50042   5.481  11.181   6.607 -3.4504  3.8176 -0.4267
  371MOL0     H50043   5.451  11.361   6.783  0.7044  0.5737 -1.3562
  371MOL0     H50044   5.591  11.262   6.816  0.2043  3.0379 -1.7575
  371MOL0     H50045   5.211  11.297   6.790  0.9512  0.1023 -0.2964
  371MOL0     H50046   4.982  11.308   6.872  0.6009 -1.0829 -1.3373
  371MOL0     H50047   4.642  11.454   7.125 -0.1999  1.0385  1.1446
  371MOL0     H50048   4.405  11.459   7.147  1.3180  2.0144 -1.8272
  371MOL0     H50049   4.213  11.385   7.226 -0.6166  1.1997 -0.0031
  371MOL0     H50050   4.183  11.469   7.066  0.0088  0.9032  0.7499
  371MOL0     H50051   4.012  11.236   7.166 -2.4774  0.8208 -1.1216
  371MOL0     H50052   3.983  11.390   7.252  1.0723  0.5759  1.1705
  371MOL0     H50053   3.959  11.383   6.939 -2.0436  1.9478 -0.4285
  371MOL0     H50054   3.837  11.318   7.042  0.7769  0.3939  1.1122
  371MOL0     H50055   3.946  11.604   7.014  1.8460  1.8075  4.4856
  371MOL0     H50056   3.883  11.557   7.176  0.2994 -0.6498 -0.6753
  371MOL0     H50057   3.679  11.489   7.096  3.1751 -2.2454 -0.3640
  371MOL0     H50058   3.724  11.525   6.929 -2.2968 -1.8226  0.0375
  371MOL0     H50059   3.710  11.724   7.170  0.1081 -0.3730 -0.2682
  371MOL0     H50060   3.785  11.762   7.014 -1.5702  0.5088 -1.2287
  371MOL0     H50061   3.492  11.681   7.066  1.7614 -0.6324  4.4809
  371MOL0     H50062   3.563  11.735   6.908 -1.0237 -0.4961 -0.0052
  371MOL0     H50063   3.412  11.897   7.020 -0.5076 -0.1609  0.9060
  371MOL0     H50064   3.497  11.882   7.166 -1.7138 -0.4984 -0.2535
  371MOL0     H50065   4.372  11.065   6.965  2.3371 -0.3891 -1.6710
  371MOL0     H50066   4.608  11.062   6.946  1.8605  3.8180 -4.1658
  371MOL0     H50067   5.102  11.292   7.269  0.2776  0.5578 -1.0425
  371MOL0     H50068   5.333  11.234   7.196 -0.3263 -1.4163  0.1835
  371MOL0     H50069   4.282  10.394   6.892  1.6243  2.2918 -1.5919
  371MOL0     H50070   4.049  10.419   6.994 -1.7988  2.0536  0.4512
  371MOL0     H50071   3.772  10.751   7.123 -1.3840  1.9028 -0.6595
  371MOL0     H50072   3.543  10.806   7.153  0.9967 -0.4577 -0.1636
  371MOL0     H50073   3.312  10.786   7.140 -2.1324  3.8185  0.0636
  371MOL0     H50074   3.383  10.890   7.256 -1.1797  0.3452  2.0827
  371MOL0     H50075   3.120  10.729   7.309 -1.1384  1.3614  0.2344
  371MOL0     H50076   3.126  10.876   7.220 -0.3472  2.0416  1.3023
  371MOL0     H50077   3.260  10.861   7.499  0.6612  1.8560  0.8248
  371MOL0     H50078   3.089  10.852   7.490 -0.3459  0.3275 -0.3910
  371MOL0     H50079   3.171  11.084   7.531  1.3991 -2.5825  0.7143
  371MOL0     H50080   3.288  11.070   7.394 -0.3401  0.1911 -3.6703
  371MOL0     H50081   2.938  11.223   7.214 -0.5915 -1.7645  1.3283
  371MOL0     H50082   3.476  10.499   7.426 -0.4846 -1.1617 -1.6795
  371MOL0     H50083   3.652  10.388   7.517  0.0935 -2.0736 -1.0052
  371MOL0     H50084   3.727  10.303   7.385  1.7100 -0.9599  1.0041
  371MOL0     H50085   3.831  10.416   7.478  1.8126 -2.3144 -2.0422
  372MOL0     O50086   7.568   6.129   0.064  0.2700 -0.1249 -0.1521
  372MOL0     C50087   7.490   6.149   0.156 -0.4222 -0.5400 -0.5271
  372MOL0     O50088   7.542   6.197   0.276  0.4707 -0.4418  0.2119
  372MOL0     C50089   7.673   6.190   0.292 -0.2455 -0.4469  0.7705
  372MOL0     C50090   7.733   6.055   0.306  0.2586 -0.4300  0.2074
  372MOL0     C50091   7.869   6.048   0.321 -0.2588  0.9522 -0.6932
  372MOL0     C50092   7.950   6.163   0.307 -0.6856 -0.2100 -0.6958
  372MOL0     O50093   8.089   6.165   0.287  0.2037  0.3470  0.1175
  372MOL0     C50094   8.127   6.094   0.170  0.6514  0.9333  0.6593
  372MOL0     C50095   8.273   6.123   0.150 -0.2033 -0.1506 -0.0091
  372MOL0     C50096   8.320   6.103   0.009  0.6154  0.2374  0.2655
  372MOL0     C50097   8.455   6.167  -0.019  0.3482  0.5227  0.7383
  372MOL0     C50098   8.521   6.125  -0.150  0.4536 -1.1583  0.4195
  372MOL0     C50099   8.651   6.183  -0.186 -0.2884  0.6745  0.5396
  372MOL0     C50100   8.776   6.138  -0.102 -0.8453 -0.5052  0.3626
  372MOL0     C50101   8.787   5.989  -0.070 -0.0068 -0.9320  0.4999
  372MOL0     N50102   8.875   5.967   0.041 -0.5997  0.1563  0.2920
  372MOL0     C50103   8.855   6.018   0.172  0.1776 -0.7718 -0.4790
  372MOL0     C50104   8.976   5.999   0.230  0.5304 -0.0194 -0.0527
  372MOL0     C50105   9.011   6.060   0.363  0.3752 -0.0703  0.0870
  372MOL0     C50106   8.992   6.213   0.354 -1.0090 -0.3566  0.2786
  372MOL0     C50107   9.075   6.279   0.245 -0.0663  0.4131  0.6121
  372MOL0     C50108   9.142   6.401   0.291 -1.3560 -0.5279 -0.5899
  372MOL0     O50109   9.240   6.362   0.395  0.0811 -0.3868  0.2705
  372MOL0     C50110   9.306   6.466   0.458  0.4740  0.7361  0.1593
  372MOL0     C50111   9.404   6.427   0.549 -0.6178 -0.0831 -0.9367
  372MOL0     C50112   9.483   6.522   0.612 -0.0304 -0.1393  0.0353
  372MOL0     C50113   9.464   6.659   0.578 -0.0988  0.8744 -0.8614
  372MOL0     C50114   9.573   6.750   0.616 -0.2275  0.1771  0.9122
  372MOL0     O50115   9.704   6.698   0.625 -0.7152 -0.3285  0.1971
  372MOL0     C50116   9.808   6.788   0.648  0.4152  0.6049 -0.6084
  372MOL0     C50117   9.792   6.884   0.751  0.0172  0.5147  0.5140
  372MOL0     C50118   9.901   6.951   0.804  0.1314 -1.0933  0.3377
  372MOL0     C50119  10.035   6.930   0.746 -0.4599  1.0255 -0.0545
  372MOL0     O50120  10.142   7.000   0.792  0.9720  0.3630 -0.1932
  372MOL0     C50121  10.256   6.930   0.844 -0.1176 -0.6062 -0.4274
  372MOL0     C50122  10.352   7.037   0.906 -0.9320 -0.2940  0.4048
  372MOL0     C50123  10.489   6.978   0.958  0.5721 -0.9847  1.3091
  372MOL0     C50124  10.579   7.086   1.005  0.6995 -0.2848  0.4550
  372MOL0     C50125  10.715   7.035   1.039 -0.3323  0.5422 -0.4062
  372MOL0     C50126  10.792   7.138   1.130 -0.0096  0.1541  0.8997
  372MOL0     C50127  10.928   7.078   1.168  0.2151 -0.6407  0.3018
  372MOL0     C50128  11.019   7.188   1.217  1.1336  0.6457 -0.1640
  372MOL0    Cl50129  11.183   7.129   1.231 -0.1339  0.4233 -0.5718
  372MOL0     C50130  10.046   6.841   0.639 -0.0361  0.7736  0.1352
  372MOL0     C50131   9.938   6.769   0.590 -0.7809 -0.2316  0.0215
  372MOL0     O50132   9.544   6.868   0.598 -0.3853 -0.5271  0.2685
  372MOL0     C50133   9.353   6.704   0.510  1.2666  0.1831 -0.7889
  372MOL0     C50134   9.273   6.605   0.452 -0.4281  0.2548 -0.5488
  372MOL0     N50135   9.066   5.952   0.140 -0.1405  0.6782  0.0837
  372MOL0     N50136   9.011   5.924   0.028  0.5991 -0.5012 -0.0186
  372MOL0     C50137   7.896   6.290   0.303  0.0608  1.1197  0.4196
  372MOL0     C50138   7.759   6.303   0.294  0.3202  0.0038  0.1701
  372MOL0     C50139   7.343   6.118   0.141 -0.2620  0.1613  0.1819
  372MOL0     C50140   7.306   6.047   0.023  0.5324 -0.0820  0.3110
  372MOL0     C50141   7.173   6.018  -0.003  0.0493 -0.2157  0.4382
  372MOL0     C50142   7.073   6.055   0.085 -0.1599  0.5874  0.0456
  372MOL0     O50143   6.936   6.037   0.058 -0.1158  0.4397  0.3047
  372MOL0     C50144   6.881   5.976  -0.057 -0.6090  0.4739 -0.0243
  372MOL0     C50145   6.756   6.063  -0.087  0.0627 -0.3062 -0.8194
  372MOL0     C50146   6.692   6.024  -0.216 -0.1179  0.2638 -0.4019
  372MOL0     C50147   6.615   5.882  -0.214 -0.5939 -0.0191 -0.4646
  372MOL0     C50148   6.469   5.898  -0.215  0.2557 -0.7393 -0.1076
  372MOL0     C50149   6.347   5.899  -0.206  0.5205  0.1576 -0.1606
  372MOL0     C50150   7.113   6.123   0.199 -0.5427  0.2803 -0.1836
  372MOL0     C50151   7.241   6.157   0.231  0.1815 -0.0835  0.5550
  372MOL0     C50152   7.267   6.254   0.341 -0.5809  0.0327 -0.7888
  372MOL0     H50153   7.672   5.966   0.310  4.0861 -3.3441 -0.1348
  372MOL0     H50154   7.913   5.949   0.330 -0.8318  0.2729 -3.9294
  372MOL0     H50155   8.111   5.987   0.179 -1.7235  1.0536 -1.2485
  372MOL0     H50156   8.079   6.138   0.082  0.3220  0.8455  0.7943
  372MOL0     H50157   8.314   6.056   0.226 -1.4481  0.4942  1.2652
  372MOL0     H50158   8.292   6.227   0.178  1.0219 -0.4963  0.5005
  372MOL0     H50159   8.252   6.146  -0.065  0.3221 -0.6177  0.0239
  372MOL0     H50160   8.320   5.997  -0.018  1.3108  0.5839 -1.1989
  372MOL0     H50161   8.452   6.276  -0.019  2.5656  0.7819 -3.1672
  372MOL0     H50162   8.527   6.133   0.057  0.5238 -0.2117  0.2571
  372MOL0     H50163   8.527   6.016  -0.143 -0.6392 -1.2493  0.0860
  372MOL0     H50164   8.454   6.155  -0.230  1.8789 -0.0124 -0.3887
  372MOL0     H50165   8.664   6.156  -0.291 -3.4314  1.6976 -0.2262
  372MOL0     H50166   8.645   6.290  -0.161 -0.5281  0.6361  0.6538
  372MOL0     H50167   8.783   6.196  -0.009  3.1166  0.6106 -0.4440
  372MOL0     H50168   8.870   6.173  -0.146  1.4598 -3.4268  2.4725
  372MOL0     H50169   8.690   5.945  -0.044  0.8574 -2.2804  1.5482
  372MOL0     H50170   8.831   5.932  -0.152  1.3293 -2.4090  2.1726
  372MOL0     H50171   8.762   6.049   0.219  0.5210 -1.9222  1.0386
  372MOL0     H50172   8.954   6.017   0.445 -1.2648  2.0432  0.1471
  372MOL0     H50173   9.118   6.038   0.373  0.0042 -2.1402 -0.1401
  372MOL0     H50174   8.892   6.235   0.317 -0.6570 -0.4549 -0.7754
  372MOL0     H50175   9.013   6.260   0.451  0.4406 -1.3440  0.4800
  372MOL0     H50176   9.011   6.302   0.159 -0.6282  2.4907  1.5222
  372MOL0     H50177   9.156   6.212   0.215  0.5815  1.0765  0.8725
  372MOL0     H50178   9.060   6.464   0.328 -0.4456  0.8785 -0.8932
  372MOL0     H50179   9.193   6.454   0.210 -0.7425 -0.1904  0.0063
  372MOL0     H50180   9.409   6.320   0.565  1.2839  0.2891  1.8010
  372MOL0     H50181   9.566   6.486   0.672  1.2267 -0.0104 -1.5660
  372MOL0     H50182   9.694   6.908   0.790  0.7241  1.5451  1.7395
  372MOL0     H50183   9.892   7.025   0.883  2.4246 -1.0206  0.5869
  372MOL0     H50184  10.236   6.869   0.933 -0.7448  0.3199  0.0841
  372MOL0     H50185  10.322   6.877   0.774 -0.7556 -0.5782 -1.0558
  372MOL0     H50186  10.363   7.116   0.831 -3.6189  0.1765  0.4019
  372MOL0     H50187  10.296   7.084   0.987 -0.1553  1.6144 -0.1144
  372MOL0     H50188  10.470   6.911   1.042 -0.4539  0.4321  2.2736
  372MOL0     H50189  10.539   6.930   0.874 -0.4981  1.2620 -0.7501
  372MOL0     H50190  10.527   7.124   1.094 -1.9938  0.1881 -1.2109
  372MOL0     H50191  10.600   7.158   0.926 -0.4671  0.1530  0.5236
  372MOL0     H50192  10.776   7.018   0.950 -1.4708  2.2080 -1.5748
  372MOL0     H50193  10.720   6.941   1.095  1.3199  0.6153 -0.3603
  372MOL0     H50194  10.807   7.228   1.069 -0.2860 -0.9130 -0.8240
  372MOL0     H50195  10.717   7.165   1.206 -0.6656  1.2016 -0.0852
  372MOL0     H50196  10.975   7.041   1.077 -1.6871 -0.6099 -0.7398
  372MOL0     H50197  10.925   6.994   1.238 -1.5483  0.0702  1.1635
  372MOL0     H50198  11.010   7.278   1.156 -1.3761  0.4326 -0.2097
  372MOL0     H50199  10.995   7.200   1.323 -1.2018 -2.6171 -0.1410
  372MOL0     H50200  10.152   6.827   0.618  0.7960  4.0596  1.4167
  372MOL0     H50201   9.962   6.690   0.520  2.6625  1.1639 -0.5474
  372MOL0     H50202   9.327   6.809   0.505 -1.1336 -0.2218  1.2882
  372MOL0     H50203   9.188   6.647   0.398  0.6709  0.5335 -2.1522
  372MOL0     H50204   7.954   6.382   0.302 -0.6359  1.5678  0.7389
  372MOL0     H50205   7.714   6.402   0.284 -0.0894 -0.2176 -0.2127
  372MOL0     H50206   7.372   6.023  -0.059 -2.3397 -0.6172 -2.0001
  372MOL0     H50207   7.149   5.955  -0.088 -0.7906  1.2349 -0.4393
  372MOL0     H50208   6.857   5.873  -0.030 -0.0115 -0.1655 -1.8115
  372MOL0     H50209   6.937   5.966  -0.151 -0.2164  3.4154 -0.2022
  372MOL0     H50210   6.793   6.166  -0.092  1.3465 -0.6382  0.7765
  372MOL0     H50211   6.687   6.063  -0.002  1.5229 -0.1648  0.4242
  372MOL0     H50212   6.759   6.029  -0.302 -4.2067  1.0812 -3.8594
  372MOL0     H50213   6.617   6.103  -0.229  0.1958  0.8522  1.1794
  372MOL0     H50214   6.636   5.828  -0.307 -1.5822  1.4216 -1.5766
  372MOL0     H50215   6.630   5.820  -0.125 -3.2730 -2.3155 -1.4473
  372MOL0     H50216   6.240   5.891  -0.207  0.4866  0.5937 -0.3303
  372MOL0     H50217   7.039   6.170   0.264 -0.1158  2.3858 -1.1244
  372MOL0     H50218   7.177   6.276   0.399 -0.2812 -0.4262 -0.1385
  372MOL0     H50219   7.333   6.223   0.423 -0.7343  0.5715 -0.4527
  372MOL0     H50220   7.311   6.346   0.301  0.5104 -0.3214 -0.4517
  373MOL0     O50221   4.446   4.226   3.014  0.1775 -0.5256 -1.2007
  373MOL0     C50222   4.417   4.344   3.040 -0.0545 -0.3412  0.3017
  373MOL0     O50223   4.497   4.449   3.021  0.3886 -0.3581 -0.4342
  373MOL0     C50224   4.623   4.422   2.964  0.5764 -0.0722 -0.4537
  373MOL0     C50225   4.712   4.325   3.009 -0.1113  1.2269 -0.1456
  373MOL0     C50226   4.829   4.303   2.948 -0.5595 -0.3772  0.1683
  373MOL0     C50227   4.869   4.382   2.835 -0.2150  0.2184 -0.2062
  373MOL0     O50228   4.979   4.348   2.756 -0.0188  0.1989  1.0189
  373MOL0     C50229   5.055   4.451   2.686  0.3414 -1.0054 -0.5327
  373MOL0     C50230   5.170   4.397   2.596  0.3097  0.1776 -0.0949
  373MOL0     C50231   5.311   4.412   2.651 -0.2538  0.1162 -0.2067
  373MOL0     C50232   5.396   4.307   2.593 -0.2243  0.1176  0.2793
  373MOL0     C50233   5.540   4.347   2.610 -0.0695  0.7608  0.5651
  373MOL0     C50234   5.634   4.235   2.555  0.7385 -0.4948  0.1355
  373MOL0     C50235   5.781   4.280   2.570 -0.1633 -0.1810 -0.3083
  373MOL0     C50236   5.835   4.370   2.452 -0.1598  0.1363 -0.2675
  373MOL0     N50237   5.982   4.359   2.441  0.3635 -0.1282 -0.8989
  373MOL0     C50238   6.070   4.459   2.469  0.6256 -0.1142  0.1922
  373MOL0     C50239   6.188   4.404   2.417 -0.3903  0.6240 -0.3357
  373MOL0     C50240   6.314   4.481   2.432 -0.4830 -0.2925 -0.5010
  373MOL0     C50241   6.362   4.473   2.581  0.5104 -0.0443 -0.5797
  373MOL0     C50242   6.416   4.328   2.635 -0.2499 -0.1020 -0.1581
  373MOL0     C50243   6.495   4.240   2.533  0.5235  0.2127 -0.3245
  373MOL0     O50244   6.586   4.300   2.440 -0.2151  0.8470 -0.1301
  373MOL0     C50245   6.723   4.303   2.474 -0.4437 -0.2607 -0.5985
  373MOL0     C50246   6.810   4.322   2.364  0.1785 -0.1378  0.1894
  373MOL0     C50247   6.947   4.324   2.382  0.3569  0.7815 -0.1151
  373MOL0     C50248   7.002   4.292   2.507  0.7746  0.0077 -0.0302
  373MOL0     C50249   7.150   4.273   2.516  0.0302  0.8200 -0.3713
  373MOL0     O50250   7.231   4.313   2.411  0.6461 -0.4544 -0.3606
  373MOL0     C50251   7.366   4.295   2.426 -0.4169  0.2856  0.7668
  373MOL0     C50252   7.420   4.169   2.464  0.3788 -0.0459  0.6742
  373MOL0     C50253   7.555   4.135   2.459  0.5178  0.2498 -0.2936
  373MOL0     C50254   7.648   4.223   2.408  0.1578 -0.4229  0.4881
  373MOL0     O50255   7.780   4.176   2.387 -0.6657  0.3235 -0.5124
  373MOL0     C50256   7.859   4.226   2.271 -0.2571  0.1913 -0.7835
  373MOL0     C50257   8.000   4.167   2.275 -0.3343 -0.0012 -0.2676
  373MOL0     C50258   7.999   4.019   2.262  0.3321 -0.5005  1.3315
  373MOL0     C50259   8.139   3.965   2.261  0.0478  0.7810 -0.1458
  373MOL0     C50260   8.211   3.974   2.126 -0.6677 -0.0095  0.2576
  373MOL0     C50261   8.368   3.942   2.152  1.0820  0.4901  0.1134
  373MOL0     C50262   8.458   3.970   2.027  0.0948  0.7575  0.4717
  373MOL0     C50263   8.564   3.862   2.024 -0.9920  1.2864  0.1972
  373MOL0    Cl50264   8.474   3.711   1.994  0.5188  0.7270  0.1491
  373MOL0     C50265   7.599   4.352   2.368  0.4049  0.4041  0.7683
  373MOL0     C50266   7.464   4.391   2.383  0.1062 -0.0152  0.3662
  373MOL0     O50267   7.185   4.203   2.617  0.3093  0.2110  0.5805
  373MOL0     C50268   6.915   4.280   2.619 -0.3363  0.5037 -0.2925
  373MOL0     C50269   6.776   4.275   2.602 -0.2341 -0.0736  0.1011
  373MOL0     N50270   6.168   4.271   2.385 -0.1941  0.1122 -0.2798
  373MOL0     N50271   6.044   4.246   2.395 -0.2027 -0.2455 -0.3589
  373MOL0     C50272   4.782   4.480   2.791 -1.2755 -0.0170 -0.6956
  373MOL0     C50273   4.660   4.495   2.855 -0.4353  0.5951 -0.2874
  373MOL0     C50274   4.278   4.376   3.068 -0.2159  0.4725  1.1949
  373MOL0     C50275   4.176   4.278   3.064 -0.7267  0.1975 -0.0245
  373MOL0     C50276   4.046   4.298   3.096  0.1147 -0.0735 -0.3672
  373MOL0     C50277   4.004   4.424   3.134  1.2977  0.4094  0.5439
  373MOL0     O50278   3.878   4.455   3.176  0.0758 -1.0201  0.6648
  373MOL0     C50279   3.788   4.343   3.186 -0.6413  0.7959 -0.2132
  373MOL0     C50280   3.661   4.399   3.249 -0.6241 -0.4269  0.3510
  373MOL0     C50281   3.595   4.288   3.330  0.6046 -0.4493  0.0444
  373MOL0     C50282   3.560   4.173   3.244  0.3847  0.2890  0.7658
  373MOL0     C50283   3.463   4.091   3.309  0.0316  1.0094  0.1668
  373MOL0     C50284   3.364   4.027   3.354  0.3650  0.4717  0.3309
  373MOL0     C50285   4.098   4.525   3.130 -0.1042 -0.2234 -0.3027
  373MOL0     C50286   4.234   4.503   3.104  0.4793  0.0340 -0.1401
  373MOL0     C50287   4.330   4.616   3.146 -0.5756 -0.3641  0.0974
  373MOL0     H50288   4.687   4.258   3.091 -1.0431  2.3567  0.5359
  373MOL0     H50289   4.887   4.216   2.979 -0.8953  0.4420  3.3660
  373MOL0     H50290   4.986   4.488   2.610  0.4087 -3.0077 -1.6488
  373MOL0     H50291   5.084   4.530   2.755 -2.6502  0.5775 -0.9531
  373MOL0     H50292   5.159   4.447   2.500 -0.4595  3.0630  1.4006
  373MOL0     H50293   5.147   4.290   2.585 -2.9819  0.3298  3.1224
  373MOL0     H50294   5.316   4.410   2.760  3.8778 -1.7841 -0.2669
  373MOL0     H50295   5.338   4.515   2.625 -0.0520  0.7531  2.2383
  373MOL0     H50296   5.366   4.211   2.636 -1.0059  0.4132  0.4155
  373MOL0     H50297   5.369   4.299   2.488  0.9960  0.3124 -0.0728
  373MOL0     H50298   5.574   4.435   2.555  1.8057 -0.3825 -0.2218
  373MOL0     H50299   5.551   4.371   2.716  0.3949  1.1174  0.4425
  373MOL0     H50300   5.613   4.144   2.613  1.0962  0.0964  1.2263
  373MOL0     H50301   5.611   4.215   2.450 -2.6664  1.9976  0.2436
  373MOL0     H50302   5.829   4.181   2.565  0.0601 -0.0346 -1.2578
  373MOL0     H50303   5.795   4.319   2.672 -0.2046 -3.2516  0.9875
  373MOL0     H50304   5.786   4.341   2.358 -0.5195 -0.4127  0.0836
  373MOL0     H50305   5.804   4.473   2.472  0.5175  0.2022  0.4536
  373MOL0     H50306   6.072   4.561   2.505 -0.6438  0.5923 -1.6349
  373MOL0     H50307   6.390   4.447   2.362 -1.7782  0.5661 -2.4247
  373MOL0     H50308   6.295   4.584   2.399  3.6706  0.2171 -1.8595
  373MOL0     H50309   6.446   4.543   2.594  1.4376 -0.8842 -1.7854
  373MOL0     H50310   6.271   4.501   2.634 -0.2339 -2.1365 -0.6849
  373MOL0     H50311   6.326   4.271   2.662 -1.1814  2.1866  2.0636
  373MOL0     H50312   6.478   4.342   2.724  2.1197  0.5699 -1.8286
  373MOL0     H50313   6.418   4.183   2.480  0.7806 -0.7442  0.2929
  373MOL0     H50314   6.560   4.165   2.581  2.0916  0.5053 -1.8776
  373MOL0     H50315   6.771   4.341   2.264  0.0373 -2.5850 -0.2716
  373MOL0     H50316   7.013   4.320   2.296  1.8867 -3.9522  0.9265
  373MOL0     H50317   7.356   4.087   2.495 -1.4996  0.9471 -0.4472
  373MOL0     H50318   7.572   4.031   2.485 -3.3963  0.0665  2.3723
  373MOL0     H50319   7.815   4.203   2.174  0.0798  3.4632 -1.8182
  373MOL0     H50320   7.874   4.333   2.283  1.9744  0.5897 -5.1771
  373MOL0     H50321   8.053   4.220   2.195 -1.4726 -0.7097 -1.5370
  373MOL0     H50322   8.048   4.195   2.369 -1.2498  0.2032  0.1389
  373MOL0     H50323   7.954   3.974   2.351  1.3586  0.1519  2.2095
  373MOL0     H50324   7.951   3.990   2.169 -1.6671 -0.6894  2.3714
  373MOL0     H50325   8.134   3.859   2.288 -1.1292  0.3597 -1.8803
  373MOL0     H50326   8.192   4.020   2.339  0.4296 -3.2446  2.7287
  373MOL0     H50327   8.204   4.074   2.084  0.9665 -0.3782 -0.9897
  373MOL0     H50328   8.175   3.899   2.054 -1.0536 -0.8139  1.2594
  373MOL0     H50329   8.404   4.010   2.230  0.9533 -0.0517  0.6602
  373MOL0     H50330   8.378   3.842   2.196  0.0266  1.3440  2.4971
  373MOL0     H50331   8.496   4.072   2.035 -2.4803  1.9753 -1.3559
  373MOL0     H50332   8.398   3.967   1.935  0.7831  2.6558 -0.0846
  373MOL0     H50333   8.630   3.874   1.937 -0.8095 -4.1969 -0.7989
  373MOL0     H50334   8.615   3.839   2.118 -4.3763  0.3890  2.0109
  373MOL0     H50335   7.666   4.425   2.323  1.5119 -1.4631 -0.7604
  373MOL0     H50336   7.418   4.487   2.361  1.7924  1.0147  1.1660
  373MOL0     H50337   6.957   4.269   2.718  1.6133 -1.2035 -1.2479
  373MOL0     H50338   6.716   4.256   2.690 -0.6879  2.2771  0.3687
  373MOL0     H50339   4.794   4.539   2.700 -2.2164  3.3754  1.2114
  373MOL0     H50340   4.587   4.568   2.821  1.5214  2.2681 -1.1007
  373MOL0     H50341   4.203   4.184   3.017  0.4941  1.2629 -1.5852
  373MOL0     H50342   3.981   4.211   3.089 -2.8961  1.7669  2.0677
  373MOL0     H50343   3.841   4.271   3.249 -1.9992  0.7657  0.9378
  373MOL0     H50344   3.757   4.294   3.093  0.1650  0.3470 -0.2525
  373MOL0     H50345   3.597   4.438   3.169 -0.1762  0.9248  0.6298
  373MOL0     H50346   3.692   4.482   3.313 -0.2953 -0.2747 -0.0010
  373MOL0     H50347   3.500   4.327   3.368 -0.1683 -1.0782 -1.1470
  373MOL0     H50348   3.659   4.255   3.412 -2.1100 -2.6623  1.4587
  373MOL0     H50349   3.509   4.220   3.159  0.3096 -2.1526 -0.6236
  373MOL0     H50350   3.644   4.108   3.220 -0.3377 -1.5116  2.9032
  373MOL0     H50351   3.283   3.968   3.393  1.7608 -2.6153 -1.1054
  373MOL0     H50352   4.068   4.628   3.151 -0.4482 -0.3985  0.0821
  373MOL0     H50353   4.285   4.672   3.228  1.9832 -0.8765  1.9873
  373MOL0     H50354   4.417   4.578   3.200 -2.2986 -1.1683  2.4717
  373MOL0     H50355   4.359   4.676   3.059  3.7096 -1.3677  0.6181
  374MOL0     O50356   8.446   0.905   7.576  0.2530 -0.2997 -0.1434
  374MOL0     C50357   8.322   0.910   7.580  0.5930  0.8215  0.0177
  374MOL0     O50358   8.239   0.876   7.475 -0.3198  0.1560  0.1459
  374MOL0     C50359   8.300   0.826   7.368 -0.2685 -0.5472 -0.5372
  374MOL0     C50360   8.274   0.701   7.319  0.0682 -0.0866 -0.8018
  374MOL0     C50361   8.310   0.657   7.197 -0.2333 -0.1927  0.6226
  374MOL0     C50362   8.394   0.740   7.118  0.2526  0.5811  0.5525
  374MOL0     O50363   8.459   0.689   7.006  0.4308  0.2162 -0.1840
  374MOL0     C50364   8.424   0.555   6.959 -0.5406 -1.2562 -0.0843
  374MOL0     C50365   8.478   0.530   6.817 -0.0532  0.0483  0.3906
  374MOL0     C50366   8.427   0.634   6.710  0.5849 -0.2228 -0.6277
  374MOL0     C50367   8.520   0.633   6.589 -0.7196 -0.1087  0.5404
  374MOL0     C50368   8.479   0.737   6.487  0.1499 -0.6206 -0.4655
  374MOL0     C50369   8.550   0.731   6.357 -0.3595  0.6649 -1.0310
  374MOL0     C50370   8.509   0.844   6.265  0.0511  0.0239  0.4311
  374MOL0     C50371   8.581   0.818   6.130  0.5215 -0.4262 -0.9380
  374MOL0     N50372   8.726   0.819   6.138 -0.5881  0.0917  0.4629
  374MOL0     C50373   8.797   0.927   6.169 -0.1563 -0.9857 -0.3618
  374MOL0     C50374   8.928   0.896   6.180  0.5391  0.2950  0.5209
  374MOL0     C50375   9.041   0.989   6.208 -0.0423 -0.0045  0.5972
  374MOL0     C50376   9.076   1.087   6.088 -0.0732  0.7162 -0.5892
  374MOL0     C50377   9.116   1.012   5.963  0.2661 -0.6264 -0.7226
  374MOL0     C50378   9.226   0.906   5.973 -0.2059 -0.7879 -0.0702
  374MOL0     O50379   9.355   0.965   6.009 -0.1677 -0.2388 -0.5438
  374MOL0     C50380   9.458   0.873   6.033 -0.3488 -0.2228  0.3886
  374MOL0     C50381   9.457   0.736   5.996  0.0074  0.2429 -0.4095
  374MOL0     C50382   9.573   0.662   6.027  0.0823 -0.5634  0.4562
  374MOL0     C50383   9.692   0.714   6.074  0.9941  0.7858  1.1880
  374MOL0     C50384   9.817   0.640   6.068 -0.6230  0.4542 -0.7082
  374MOL0     O50385   9.934   0.698   6.106 -0.7400 -0.2516 -1.2613
  374MOL0     C50386  10.057   0.635   6.131 -0.3016 -0.5510  1.2354
  374MOL0     C50387  10.079   0.499   6.162  1.0200 -0.2975  0.1428
  374MOL0     C50388  10.203   0.448   6.194  0.1611  0.5714  0.1629
  374MOL0     C50389  10.314   0.526   6.195 -0.6440  1.0203 -0.2598
  374MOL0     O50390  10.430   0.462   6.227 -0.3891 -0.6774  0.0514
  374MOL0     C50391  10.555   0.518   6.194 -0.1611  0.1428 -0.4166
  374MOL0     C50392  10.637   0.388   6.188  0.0443  0.4960  0.0665
  374MOL0     C50393  10.787   0.415   6.153  0.1005  0.5992  0.8662
  374MOL0     C50394  10.890   0.321   6.211  0.0262  0.4078  0.0423
  374MOL0     C50395  11.026   0.305   6.131 -0.4530  0.8259 -0.1079
  374MOL0     C50396  11.104   0.432   6.113 -0.2697 -0.1211  1.0473
  374MOL0     C50397  11.212   0.439   5.995  0.5504  0.6302  0.7774
  374MOL0     C50398  11.344   0.365   6.015 -0.0865  0.4857 -0.4452
  374MOL0    Cl50399  11.483   0.427   5.931  0.1064 -0.1472  0.1515
  374MOL0     C50400  10.303   0.664   6.171  1.1427  0.0320  0.7026
  374MOL0     C50401  10.180   0.708   6.124 -0.3673 -1.2497 -0.6808
  374MOL0     O50402   9.806   0.518   6.035  0.1312 -0.1914 -0.9216
  374MOL0     C50403   9.682   0.845   6.127 -0.1215 -0.8970 -0.1317
  374MOL0     C50404   9.572   0.929   6.096  0.3162  0.4513 -0.0680
  374MOL0     N50405   8.931   0.755   6.147  0.1125 -0.2960 -0.2719
  374MOL0     N50406   8.814   0.714   6.127 -0.2540 -0.0568  0.5163
  374MOL0     C50407   8.438   0.861   7.171 -0.1252 -1.3747  0.2513
  374MOL0     C50408   8.391   0.904   7.295  0.0831 -0.1876 -0.6762
  374MOL0     C50409   8.255   0.925   7.713  0.1823 -0.1928  0.5234
  374MOL0     C50410   8.114   0.904   7.715 -0.0346 -0.2754 -0.7791
  374MOL0     C50411   8.050   0.932   7.840 -1.1449 -0.2206  0.4231
  374MOL0     C50412   8.113   0.989   7.953 -0.4920 -0.4142  0.5393
  374MOL0     O50413   8.036   1.017   8.064  0.1745 -0.1314 -1.2934
  374MOL0     C50414   8.072   1.113   8.160 -0.1217 -0.3877  0.1519
  374MOL0     C50415   7.948   1.184   8.235 -0.1368 -0.0279  0.4437
  374MOL0     C50416   7.879   1.276   8.128  0.1036  0.8471  0.7647
  374MOL0     C50417   7.752   1.352   8.187 -0.0499  0.5892  0.2245
  374MOL0     C50418   7.780   1.469   8.277 -0.2543 -0.0187  0.1007
  374MOL0     C50419   7.799   1.564   8.343  0.5698 -1.1974 -0.0583
  374MOL0     C50420   8.250   1.025   7.941  0.8774  0.3427 -0.8985
  374MOL0     C50421   8.318   0.988   7.823 -0.8324  0.1143 -0.1205
  374MOL0     C50422   8.470   1.016   7.837 -0.1267 -0.2391  0.5502
  374MOL0     H50423   8.201   0.648   7.380  1.7215  0.0488  1.4414
  374MOL0     H50424   8.278   0.561   7.159  1.7275 -0.8040  0.4250
  374MOL0     H50425   8.449   0.479   7.033 -1.4823 -2.9696 -1.4336
  374MOL0     H50426   8.315   0.565   6.951 -0.2488  3.2059 -1.8781
  374MOL0     H50427   8.449   0.429   6.785 -1.8216  0.8742 -0.7598
  374MOL0     H50428   8.587   0.529   6.816 -0.0552 -0.9052 -0.4820
  374MOL0     H50429   8.431   0.732   6.757 -0.8658 -0.6456  0.4541
  374MOL0     H50430   8.323   0.609   6.685  1.0433  0.1116 -3.1216
  374MOL0     H50431   8.626   0.648   6.613 -0.5839  1.6998 -1.0023
  374MOL0     H50432   8.514   0.533   6.545  3.2820 -1.2748  2.1195
  374MOL0     H50433   8.380   0.700   6.461  0.2467 -0.2742 -1.3415
  374MOL0     H50434   8.473   0.836   6.533  1.5683  0.0506 -1.6518
  374MOL0     H50435   8.658   0.733   6.376 -0.9570  2.2086  3.2860
  374MOL0     H50436   8.532   0.633   6.312  0.5924  0.0956 -0.2333
  374MOL0     H50437   8.537   0.940   6.310  1.8423  0.7148 -1.9577
  374MOL0     H50438   8.402   0.829   6.249 -0.3315 -1.1437  3.4208
  374MOL0     H50439   8.548   0.719   6.097 -3.2314  0.3988 -0.1250
  374MOL0     H50440   8.555   0.892   6.053 -0.7350  3.0069  2.4921
  374MOL0     H50441   8.746   1.023   6.174 -0.1177 -0.6396 -3.9070
  374MOL0     H50442   9.006   1.049   6.292  0.4067  3.8621 -1.7231
  374MOL0     H50443   9.124   0.922   6.229  0.8537  1.1711  0.9209
  374MOL0     H50444   9.004   1.162   6.055  1.2393  1.9983 -0.5998
  374MOL0     H50445   9.165   1.138   6.127  2.2145 -3.2308 -0.0698
  374MOL0     H50446   9.155   1.087   5.895 -2.4334  3.0836  1.4128
  374MOL0     H50447   9.041   0.967   5.898 -0.8899  1.5035 -0.9575
  374MOL0     H50448   9.223   0.858   5.875 -4.8972  1.4922 -1.2968
  374MOL0     H50449   9.202   0.822   6.040  3.1116 -3.4061 -1.7947
  374MOL0     H50450   9.370   0.695   5.946 -0.4446  0.2501  0.3588
  374MOL0     H50451   9.571   0.558   5.996 -0.3434 -1.0504  2.0440
  374MOL0     H50452   9.997   0.428   6.165 -1.2091  2.1316 -0.0563
  374MOL0     H50453  10.204   0.340   6.207  0.7926 -0.0950 -4.0786
  374MOL0     H50454  10.550   0.560   6.093 -1.5683 -1.2388 -0.9522
  374MOL0     H50455  10.593   0.597   6.261  0.3657  0.0690 -0.6277
  374MOL0     H50456  10.634   0.347   6.289 -1.6896  0.6151  0.0898
  374MOL0     H50457  10.600   0.319   6.112  1.4078 -1.1946  0.8757
  374MOL0     H50458  10.795   0.418   6.044  0.2730  1.5390  0.8994
  374MOL0     H50459  10.817   0.514   6.187  0.3593  0.7242  0.2860
  374MOL0     H50460  10.842   0.223   6.206 -0.4018  0.6770 -1.5589
  374MOL0     H50461  10.901   0.345   6.317 -2.5214 -2.8313  1.2388
  374MOL0     H50462  11.002   0.269   6.030  1.4532 -1.1897  0.0875
  374MOL0     H50463  11.084   0.225   6.178  0.2712  1.9551  0.9605
  374MOL0     H50464  11.036   0.515   6.092  2.6010  1.6283 -2.5825
  374MOL0     H50465  11.156   0.469   6.202  0.2103 -0.5407  0.9490
  374MOL0     H50466  11.228   0.545   5.977 -1.5946  0.8259 -0.3390
  374MOL0     H50467  11.170   0.393   5.905 -0.3765  0.2142  1.4045
  374MOL0     H50468  11.365   0.373   6.122 -1.1440 -0.7414 -0.1191
  374MOL0     H50469  11.323   0.258   6.002 -1.4804  0.7634 -0.6948
  374MOL0     H50470  10.383   0.737   6.180  1.1391 -0.2479  4.6960
  374MOL0     H50471  10.162   0.811   6.094  2.5749 -0.8023 -1.2396
  374MOL0     H50472   9.764   0.887   6.185 -1.3295  1.2005  0.1551
  374MOL0     H50473   9.547   1.028   6.132 -1.1213  0.7500 -1.7285
  374MOL0     H50474   8.505   0.920   7.108 -1.9608  2.0051  1.2330
  374MOL0     H50475   8.442   0.984   7.349 -3.5130  0.1835  2.6249
  374MOL0     H50476   8.061   0.880   7.624 -2.9426 -0.6402  0.8762
  374MOL0     H50477   7.946   0.906   7.853 -1.4695  1.0145  0.4850
  374MOL0     H50478   8.138   1.184   8.109  0.1462 -0.3019  0.6074
  374MOL0     H50479   8.133   1.063   8.237  1.8352  2.1575  0.4033
  374MOL0     H50480   7.993   1.246   8.314 -2.3058  3.1442 -0.5989
  374MOL0     H50481   7.882   1.111   8.283 -1.2414 -0.0716 -1.0714
  374MOL0     H50482   7.857   1.216   8.039  4.4173  0.0550  0.0531
  374MOL0     H50483   7.948   1.358   8.107 -2.3531  2.9235  0.2364
  374MOL0     H50484   7.688   1.382   8.103  0.9774  1.9870 -0.0900
  374MOL0     H50485   7.692   1.274   8.235 -2.0045 -0.3167 -3.3259
  374MOL0     H50486   7.819   1.649   8.406  0.7065  0.6369 -2.4466
  374MOL0     H50487   8.304   1.059   8.029 -0.2770  0.1624 -0.0921
  374MOL0     H50488   8.510   1.108   7.795  1.4755 -0.7561  0.8675
  374MOL0     H50489   8.499   1.023   7.942  2.8850 -1.7013 -0.0854
  374MOL0     H50490   8.534   0.939   7.793  1.0740  1.3572 -0.5928
  375MOL0     O50491   8.329   4.597  11.066  0.8632 -0.0391 -0.8053
  375MOL0     C50492   8.309   4.620  10.949  0.1085 -0.3253  0.8554
  375MOL0     O50493   8.415   4.655  10.863  0.0283  0.3114 -0.1044
  375MOL0     C50494   8.544   4.647  10.910  0.3151  0.0757 -0.0985
  375MOL0     C50495   8.580   4.736  11.005  0.6204  0.3820 -0.0621
  375MOL0     C50496   8.706   4.731  11.057 -0.4936  0.4417  0.1122
  375MOL0     C50497   8.794   4.636  11.007  0.0556  0.5554 -0.4725
  375MOL0     O50498   8.929   4.625  11.045  0.7262  1.2526  0.3524
  375MOL0     C50499   8.982   4.713  11.147 -0.4202  0.2054 -0.3617
  375MOL0     C50500   9.133   4.713  11.171 -0.4269 -0.0618  0.1520
  375MOL0     C50501   9.173   4.837  11.249 -0.6714  1.1916 -0.0036
  375MOL0     C50502   9.318   4.826  11.308 -0.7057 -0.5358 -0.0502
  375MOL0     C50503   9.354   4.959  11.368 -0.6986  0.0660 -0.2770
  375MOL0     C50504   9.480   4.961  11.463  0.0008 -0.1273  1.0538
  375MOL0     C50505   9.616   4.966  11.384  0.3923  0.3810 -0.8928
  375MOL0     C50506   9.619   5.085  11.287 -0.4631  0.6081 -0.1974
  375MOL0     N50507   9.755   5.102  11.237  0.4575  0.5258 -0.1073
  375MOL0     C50508   9.826   5.018  11.165  0.5450  0.2200  0.2540
  375MOL0     C50509   9.940   5.081  11.162 -0.5447  0.3037  0.4418
  375MOL0     C50510  10.044   5.031  11.060  0.2149  0.8963  0.1691
  375MOL0     C50511  10.125   4.921  11.131 -0.2538  0.4979 -0.2191
  375MOL0     C50512  10.236   4.979  11.203  0.3268 -0.1230 -0.2482
  375MOL0     C50513  10.358   5.019  11.118  0.0283 -0.1779  0.0999
  375MOL0     O50514  10.450   5.084  11.208 -0.4211  0.5780  0.0407
  375MOL0     C50515  10.567   5.135  11.149  0.0615 -0.2803 -0.3224
  375MOL0     C50516  10.650   5.200  11.239  0.2461 -0.2603  0.5883
  375MOL0     C50517  10.770   5.257  11.186  0.3679  0.4110 -0.1406
  375MOL0     C50518  10.809   5.236  11.051 -0.3166  0.0172 -0.0797
  375MOL0     C50519  10.948   5.299  10.997  0.7703  0.8080 -0.3817
  375MOL0     O50520  11.043   5.331  11.093 -0.3092  0.6958  0.4550
  375MOL0     C50521  11.169   5.362  11.066 -0.2179 -0.2173  0.4249
  375MOL0     C50522  11.239   5.364  11.185  0.4350  0.4257  0.0960
  375MOL0     C50523  11.378   5.364  11.183 -0.5003  0.2960  0.0563
  375MOL0     C50524  11.451   5.383  11.059 -0.2522 -0.1798 -0.5472
  375MOL0     O50525  11.585   5.364  11.046 -0.7470  0.1024 -0.2988
  375MOL0     C50526  11.667   5.462  11.099 -0.0316 -0.0588 -0.0008
  375MOL0     C50527  11.815   5.430  11.067 -0.0353 -0.3022  0.1495
  375MOL0     C50528  11.922   5.520  11.131  0.4971  0.7459  0.0241
  375MOL0     C50529  12.043   5.433  11.162 -0.1457 -0.1655  0.8519
  375MOL0     C50530  12.144   5.522  11.228 -0.3130 -0.0509 -0.4912
  375MOL0     C50531  12.285   5.488  11.191  0.3309  0.0700  0.2286
  375MOL0     C50532  12.398   5.540  11.286  0.5224 -0.0063 -0.6018
  375MOL0     C50533  12.547   5.550  11.239 -0.5632 -0.2991 -0.3025
  375MOL0    Cl50534  12.615   5.386  11.216  0.4710 -0.2794  0.5274
  375MOL0     C50535  11.371   5.396  10.941 -0.7128 -0.3010 -0.0284
  375MOL0     C50536  11.229   5.380  10.938 -0.1170 -0.4167  0.2511
  375MOL0     O50537  10.966   5.306  10.877  0.4113 -0.7263  0.0115
  375MOL0     C50538  10.725   5.147  10.970 -0.9860  0.2386  0.8804
  375MOL0     C50539  10.609   5.094  11.022 -0.6147  0.7460  0.4517
  375MOL0     N50540   9.948   5.196  11.234 -0.1822  0.3795 -0.1044
  375MOL0     N50541   9.834   5.203  11.284  0.5830  0.7487  0.2342
  375MOL0     C50542   8.767   4.555  10.901  0.7434  0.4783  0.0934
  375MOL0     C50543   8.632   4.565  10.848  0.6110  0.3195  0.0626
  375MOL0     C50544   8.166   4.613  10.900 -0.0659 -1.6757  0.0683
  375MOL0     C50545   8.126   4.680  10.781  0.1880 -0.3584 -1.3908
  375MOL0     C50546   8.006   4.667  10.725  1.0897  0.7256 -1.3562
  375MOL0     C50547   7.917   4.567  10.780 -0.3001 -0.0263 -0.1016
  375MOL0     O50548   7.802   4.566  10.705  0.2371  1.2505 -0.6110
  375MOL0     C50549   7.714   4.449  10.705  0.7643 -0.5613  0.4457
  375MOL0     C50550   7.781   4.331  10.642 -0.9036 -0.8966  0.3082
  375MOL0     C50551   7.820   4.346  10.490 -0.0523 -0.1059  0.1000
  375MOL0     C50552   7.879   4.210  10.433  0.0171  0.5318  0.2793
  375MOL0     C50553   7.776   4.106  10.413 -0.4167  0.0718  1.2433
  375MOL0     C50554   7.680   4.030  10.398  0.6670 -0.5612 -0.0456
  375MOL0     C50555   7.950   4.496  10.900  0.2896 -0.0729  0.6550
  375MOL0     C50556   8.076   4.524  10.960  0.1656 -0.4884  0.6526
  375MOL0     C50557   8.110   4.429  11.073  0.2480 -0.5198  0.8735
  375MOL0     H50558   8.508   4.800  11.056 -0.9331 -1.1297 -0.2454
  375MOL0     H50559   8.732   4.794  11.142 -0.4944 -1.1842  1.3616
  375MOL0     H50560   8.955   4.806  11.096 -2.6108  0.4335  1.0832
  375MOL0     H50561   8.931   4.694  11.242 -1.5794  1.4386 -0.7030
  375MOL0     H50562   9.184   4.718  11.074 -3.3815  1.3288 -1.4589
  375MOL0     H50563   9.161   4.617  11.216 -1.8621  0.1049  1.4553
  375MOL0     H50564   9.095   4.853  11.324 -2.2765  1.0625 -1.5758
  375MOL0     H50565   9.180   4.921  11.179  2.0484 -0.2748 -1.6684
  375MOL0     H50566   9.324   4.743  11.379 -1.8451 -2.5775 -2.2047
  375MOL0     H50567   9.387   4.815  11.224 -0.1224  0.3314  0.3022
  375MOL0     H50568   9.368   5.038  11.294 -2.2063  3.8228  3.0263
  375MOL0     H50569   9.269   4.993  11.428 -0.1461  1.0019 -0.0020
  375MOL0     H50570   9.482   5.049  11.528 -0.6491 -0.4120  1.4728
  375MOL0     H50571   9.478   4.872  11.526  3.1027 -0.7436  0.4502
  375MOL0     H50572   9.638   4.869  11.340 -1.3498  0.5912 -2.3342
  375MOL0     H50573   9.694   4.985  11.459 -0.8680 -2.1412  1.2293
  375MOL0     H50574   9.562   5.055  11.199  1.1093 -3.8057  0.0505
  375MOL0     H50575   9.596   5.180  11.336  0.4185 -0.5965  2.7495
  375MOL0     H50576   9.783   4.937  11.107  1.5134 -0.2108  0.1282
  375MOL0     H50577   9.999   4.987  10.971 -0.1296  0.9328  0.3218
  375MOL0     H50578  10.097   5.118  11.019  1.0021 -0.3710 -1.5942
  375MOL0     H50579  10.057   4.866  11.196  1.2293 -0.1934  0.7858
  375MOL0     H50580  10.156   4.847  11.056  3.1366 -0.8857  2.2833
  375MOL0     H50581  10.274   4.907  11.275 -2.2370  1.9415  3.5166
  375MOL0     H50582  10.186   5.050  11.270 -0.5736 -0.1341 -0.8796
  375MOL0     H50583  10.326   5.086  11.037 -0.7521  0.9531  1.3046
  375MOL0     H50584  10.399   4.931  11.068  2.7108  0.3312  1.2419
  375MOL0     H50585  10.631   5.216  11.344  2.6588 -0.6184  1.1484
  375MOL0     H50586  10.830   5.319  11.253 -0.6327  1.2714 -0.0094
  375MOL0     H50587  11.185   5.348  11.278  2.1626 -3.8048  0.6054
  375MOL0     H50588  11.437   5.350  11.273  3.3759 -2.4263 -2.5911
  375MOL0     H50589  11.640   5.563  11.066  2.1075  0.2924 -0.8555
  375MOL0     H50590  11.651   5.462  11.207  0.0861  0.0788  0.0172
  375MOL0     H50591  11.824   5.321  11.078 -0.5667 -0.3990 -0.2888
  375MOL0     H50592  11.836   5.438  10.960  0.2416  0.6432  0.2740
  375MOL0     H50593  11.953   5.609  11.077  2.3420  0.5926  0.7662
  375MOL0     H50594  11.891   5.556  11.230  0.4798 -2.5142  1.3564
  375MOL0     H50595  12.088   5.393  11.071 -2.2718 -2.2906  0.6611
  375MOL0     H50596  12.034   5.344  11.225  3.8556 -0.7955  0.7689
  375MOL0     H50597  12.135   5.510  11.336 -0.3447 -1.7051 -0.6490
  375MOL0     H50598  12.132   5.627  11.202  1.0956  0.5377  1.0453
  375MOL0     H50599  12.295   5.379  11.188  1.5702  0.1572  0.7936
  375MOL0     H50600  12.303   5.529  11.091  1.4145  1.4686  0.9635
  375MOL0     H50601  12.408   5.478  11.376 -2.7859  1.5339  0.9874
  375MOL0     H50602  12.369   5.635  11.331  0.1805  0.3926 -1.6266
  375MOL0     H50603  12.541   5.607  11.146 -2.7036 -0.8196 -0.5444
  375MOL0     H50604  12.610   5.604  11.310  1.5673 -0.2048 -2.1355
  375MOL0     H50605  11.419   5.421  10.847 -0.4406 -2.1782 -0.4338
  375MOL0     H50606  11.182   5.396  10.842 -0.7542 -0.9831  0.4599
  375MOL0     H50607  10.764   5.136  10.869 -2.1722  1.1165  0.3029
  375MOL0     H50608  10.553   5.035  10.950  2.1400 -0.8504 -0.5059
  375MOL0     H50609   8.835   4.479  10.864  0.8786  0.8811 -0.5146
  375MOL0     H50610   8.606   4.499  10.766  3.1604  0.8458 -1.2380
  375MOL0     H50611   8.195   4.748  10.732  3.8943 -1.1158  2.2050
  375MOL0     H50612   7.967   4.724  10.640 -0.0108  0.7084 -0.8801
  375MOL0     H50613   7.622   4.474  10.653  0.2849  0.0786  1.5528
  375MOL0     H50614   7.673   4.424  10.804 -0.5593 -0.4716 -0.0614
  375MOL0     H50615   7.708   4.250  10.634 -2.8271  0.7006  0.9173
  375MOL0     H50616   7.869   4.304  10.702  0.3506  3.0660  0.5488
  375MOL0     H50617   7.897   4.419  10.465  1.9686 -1.4943  1.9271
  375MOL0     H50618   7.724   4.358  10.438  0.3264 -2.5114 -1.2966
  375MOL0     H50619   7.916   4.229  10.332 -4.4157  2.7675 -1.2047
  375MOL0     H50620   7.957   4.179  10.503  1.4120  6.2818  1.8096
  375MOL0     H50621   7.594   3.966  10.397 -0.1669  0.4394  2.1323
  375MOL0     H50622   7.871   4.435  10.943 -0.5331  1.1636  0.9736
  375MOL0     H50623   8.110   4.471  11.174 -1.6505 -1.9544  1.5296
  375MOL0     H50624   8.036   4.350  11.083  1.8777 -2.2485 -0.0930
  375MOL0     H50625   8.196   4.368  11.045 -0.9707 -1.8995  0.0504
  376MOL0     O50626   8.181   1.175  10.301  0.6541  0.2562 -0.4355
  376MOL0     C50627   8.200   1.289  10.258 -0.1819 -0.4846  0.3325
  376MOL0     O50628   8.283   1.319  10.151 -0.1790  0.3065  0.2238
  376MOL0     C50629   8.336   1.215  10.082 -1.2407 -0.4395  0.1812
  376MOL0     C50630   8.443   1.145  10.140  0.2595  0.1661  0.4106
  376MOL0     C50631   8.501   1.042  10.075  0.0116 -0.1530 -0.1750
  376MOL0     C50632   8.460   1.001   9.951 -1.0696  0.6331  0.3121
  376MOL0     O50633   8.493   0.879   9.885  0.5896 -0.0363  0.2596
  376MOL0     C50634   8.605   0.808   9.945 -0.7961 -0.3319  0.6916
  376MOL0     C50635   8.565   0.709  10.043 -0.1474  0.7363  0.9527
  376MOL0     C50636   8.479   0.601   9.984 -0.7078  1.0175  0.1371
  376MOL0     C50637   8.419   0.515  10.084  1.0314  0.4005  0.1315
  376MOL0     C50638   8.476   0.369  10.114  0.2790 -0.2611 -0.7098
  376MOL0     C50639   8.628   0.380  10.131  0.2238 -0.8036 -0.0981
  376MOL0     C50640   8.686   0.246  10.193 -0.1329 -0.5839  0.9973
  376MOL0     C50641   8.818   0.284  10.269 -1.2253 -0.1469 -0.6474
  376MOL0     N50642   8.916   0.341  10.177  0.4879 -0.0321  0.8587
  376MOL0     C50643   8.987   0.278  10.073  1.0423  0.6286  0.9195
  376MOL0     C50644   9.076   0.365  10.037 -0.7426  0.1919  0.6008
  376MOL0     C50645   9.190   0.333   9.939  0.0347  1.1865 -0.9045
  376MOL0     C50646   9.209   0.449   9.836  0.0093  0.8440 -0.0608
  376MOL0     C50647   9.331   0.427   9.748  0.4183 -0.0324  0.3495
  376MOL0     C50648   9.368   0.546   9.660  0.4249 -0.1731  0.4810
  376MOL0     O50649   9.473   0.505   9.567  0.0436 -0.8413 -0.3718
  376MOL0     C50650   9.592   0.567   9.583 -0.7734  0.4772 -0.4951
  376MOL0     C50651   9.657   0.564   9.709 -0.3219  1.6334  0.0512
  376MOL0     C50652   9.777   0.633   9.736 -0.0425  0.2568  0.1485
  376MOL0     C50653   9.842   0.699   9.626  0.1624  0.5672  0.7280
  376MOL0     C50654   9.975   0.755   9.645  0.5985 -0.0819 -0.5601
  376MOL0     O50655  10.027   0.835   9.547 -0.0347 -0.3663  0.2183
  376MOL0     C50656  10.165   0.850   9.551  0.1936 -0.5429  0.0241
  376MOL0     C50657  10.225   0.941   9.640 -0.0972  0.1034 -0.3021
  376MOL0     C50658  10.358   0.976   9.631  0.2253  0.5132 -0.6006
  376MOL0     C50659  10.438   0.910   9.533  0.5188 -0.3852  0.1201
  376MOL0     O50660  10.572   0.915   9.524 -0.2014 -0.1514 -0.1691
  376MOL0     C50661  10.647   0.954   9.643 -0.5620 -0.0853 -0.3468
  376MOL0     C50662  10.793   0.930   9.620 -0.3251 -0.3449 -0.5566
  376MOL0     C50663  10.889   0.988   9.734 -0.2513  0.3422 -0.3818
  376MOL0     C50664  11.021   0.956   9.681 -0.7255  0.1942  0.1937
  376MOL0     C50665  11.136   0.994   9.780 -0.6610  0.6222 -0.0065
  376MOL0     C50666  11.151   1.142   9.785 -0.5279  0.1368 -0.1701
  376MOL0     C50667  11.289   1.181   9.827  0.0638 -0.3153 -0.5530
  376MOL0     C50668  11.350   1.093   9.938 -0.2005 -0.6042  1.0767
  376MOL0    Cl50669  11.434   0.950   9.872 -0.2123 -0.2216 -0.0230
  376MOL0     C50670  10.375   0.820   9.445 -0.3827 -0.0465 -0.1776
  376MOL0     C50671  10.244   0.789   9.450 -0.5656  0.2299  0.0635
  376MOL0     O50672  10.028   0.734   9.756 -0.2813 -0.5126  0.4638
  376MOL0     C50673   9.777   0.701   9.501  0.4432 -0.1017  0.1896
  376MOL0     C50674   9.649   0.639   9.479  0.2848 -0.8376 -0.4204
  376MOL0     N50675   9.074   0.468  10.126 -0.2519  0.6520  0.1891
  376MOL0     N50676   8.976   0.460  10.208 -0.5737  0.3524 -0.1577
  376MOL0     C50677   8.360   1.076   9.892  0.2961  0.1802 -0.3800
  376MOL0     C50678   8.295   1.186   9.950 -0.6120  0.4668 -0.0429
  376MOL0     C50679   8.126   1.406  10.309 -0.5295 -0.1271 -0.0928
  376MOL0     C50680   8.143   1.534  10.245  0.1693 -0.0569  0.0930
  376MOL0     C50681   8.060   1.647  10.270  0.3941 -0.2579  0.0293
  376MOL0     C50682   7.963   1.634  10.361 -0.1253 -1.4682 -0.1805
  376MOL0     O50683   7.885   1.743  10.399  0.5191  0.3138  0.0944
  376MOL0     C50684   7.841   1.836  10.298  0.4046 -0.0607  0.0199
  376MOL0     C50685   7.772   1.953  10.366  0.8081  0.0011  0.6399
  376MOL0     C50686   7.707   2.054  10.282  0.1745 -0.6440 -0.3697
  376MOL0     C50687   7.690   2.180  10.359 -0.0267 -0.2726  0.4398
  376MOL0     C50688   7.820   2.252  10.390  0.3348 -0.4127 -0.2903
  376MOL0     C50689   7.932   2.305  10.409  0.0530 -0.2570  0.3152
  376MOL0     C50690   7.941   1.520  10.426  0.0924  0.8957 -0.2274
  376MOL0     C50691   8.026   1.406  10.414  0.5318  0.4047 -0.5439
  376MOL0     C50692   7.985   1.276  10.487  0.4448  0.1675  0.2876
  376MOL0     H50693   8.465   1.160  10.245 -0.4508  0.1099  0.5727
  376MOL0     H50694   8.561   0.979  10.141 -1.5369 -6.0274 -3.6031
  376MOL0     H50695   8.645   0.750   9.862 -0.6019  0.9585 -0.1406
  376MOL0     H50696   8.684   0.877   9.977 -0.7091 -0.5388  0.9236
  376MOL0     H50697   8.517   0.758  10.128 -0.5101 -1.0294  1.8091
  376MOL0     H50698   8.654   0.652  10.072  0.2271  0.9304  0.2178
  376MOL0     H50699   8.540   0.541   9.915  0.1300  0.4726  1.3129
  376MOL0     H50700   8.397   0.645   9.927 -2.5146  0.8841  2.5014
  376MOL0     H50701   8.421   0.571  10.179  2.4198 -0.5841  0.7293
  376MOL0     H50702   8.313   0.506  10.061  0.6162  2.0473  1.1568
  376MOL0     H50703   8.425   0.334  10.204  1.6877 -1.8426 -0.4867
  376MOL0     H50704   8.471   0.295  10.034 -1.4675 -0.9817  0.0022
  376MOL0     H50705   8.665   0.399  10.030  0.9050  1.4641  0.5358
  376MOL0     H50706   8.657   0.464  10.194 -0.2911  0.0108 -0.9310
  376MOL0     H50707   8.708   0.176  10.112 -0.8749  0.1738  0.1166
  376MOL0     H50708   8.615   0.203  10.264 -0.7704  1.1545  1.4528
  376MOL0     H50709   8.805   0.357  10.350  0.6329 -1.7903  1.2646
  376MOL0     H50710   8.867   0.192  10.301  2.7961  1.7746 -0.6292
  376MOL0     H50711   8.966   0.182  10.026  0.0770  0.4123  1.7626
  376MOL0     H50712   9.282   0.320   9.996  0.1383  0.3775 -1.2364
  376MOL0     H50713   9.164   0.238   9.890  0.9500  2.4563 -4.0657
  376MOL0     H50714   9.120   0.449   9.773 -0.5157  0.7027  0.6612
  376MOL0     H50715   9.226   0.547   9.881  1.0991  0.5213  0.2615
  376MOL0     H50716   9.301   0.342   9.686 -1.4192  1.5886 -1.0845
  376MOL0     H50717   9.420   0.386   9.797  0.4323  0.5718  0.8423
  376MOL0     H50718   9.396   0.634   9.718 -0.5081 -0.8879  2.1116
  376MOL0     H50719   9.286   0.577   9.595  1.8562  2.4232 -0.2036
  376MOL0     H50720   9.616   0.491   9.777  0.7467  1.4906  0.5664
  376MOL0     H50721   9.828   0.618   9.831  0.7840  0.9745 -0.1683
  376MOL0     H50722  10.164   0.983   9.719  1.4700  0.5291  0.7081
  376MOL0     H50723  10.405   1.051   9.694 -1.3696 -0.5347  1.9779
  376MOL0     H50724  10.642   1.061   9.665  1.7259  0.4538 -2.1101
  376MOL0     H50725  10.617   0.893   9.729 -0.4056  0.3548  0.0204
  376MOL0     H50726  10.809   0.822   9.619 -0.7618 -0.5891  3.2730
  376MOL0     H50727  10.820   0.965   9.520 -1.1178 -1.9060 -1.3599
  376MOL0     H50728  10.865   1.094   9.750 -1.9679 -0.2132  1.0069
  376MOL0     H50729  10.870   0.937   9.829  2.3443  2.7663  1.6403
  376MOL0     H50730  11.032   1.004   9.583  0.8387 -0.1713  0.1672
  376MOL0     H50731  11.021   0.849   9.657 -0.3899 -0.0174  1.0986
  376MOL0     H50732  11.227   0.951   9.737 -1.5292 -1.2598 -0.0833
  376MOL0     H50733  11.122   0.942   9.876  2.1374 -2.9786 -1.3035
  376MOL0     H50734  11.118   1.188   9.691 -1.2663 -0.9924 -0.4927
  376MOL0     H50735  11.080   1.184   9.857 -0.6812 -1.5780  0.7345
  376MOL0     H50736  11.283   1.279   9.874 -4.7710  0.0080 -1.4199
  376MOL0     H50737  11.359   1.187   9.743  0.7397  0.9259  0.0686
  376MOL0     H50738  11.431   1.143   9.991 -0.8900  1.0879  0.5829
  376MOL0     H50739  11.269   1.061  10.004 -2.2248 -3.1640 -2.2676
  376MOL0     H50740  10.437   0.764   9.375 -0.0754  2.5380 -2.1581
  376MOL0     H50741  10.202   0.711   9.388  2.3937 -3.2176  2.0253
  376MOL0     H50742   9.826   0.750   9.417  2.0043 -1.9310 -0.0386
  376MOL0     H50743   9.591   0.658   9.389 -2.4168 -1.0672  1.1587
  376MOL0     H50744   8.319   1.047   9.795  0.4359 -1.4445  0.0245
  376MOL0     H50745   8.224   1.248   9.896  2.2391  3.9216 -0.2328
  376MOL0     H50746   8.224   1.551  10.174 -1.0749 -0.3438 -1.4505
  376MOL0     H50747   8.082   1.743  10.224  1.8639 -0.6103 -0.0667
  376MOL0     H50748   7.759   1.787  10.245 -0.1994  0.8685  0.0752
  376MOL0     H50749   7.927   1.864  10.237  1.2348 -1.5482  0.4690
  376MOL0     H50750   7.856   1.983  10.427 -1.0200  2.0551  2.2863
  376MOL0     H50751   7.692   1.923  10.435  0.0730 -1.4424 -0.7586
  376MOL0     H50752   7.608   2.015  10.257 -1.5639  4.0610 -2.1300
  376MOL0     H50753   7.762   2.076  10.190 -0.7780 -1.7429 -1.2330
  376MOL0     H50754   7.633   2.248  10.295  0.7562 -0.7934 -0.8284
  376MOL0     H50755   7.637   2.171  10.455 -3.8285  3.0274 -1.0380
  376MOL0     H50756   8.028   2.350  10.422 -1.1775  3.2673 -1.3570
  376MOL0     H50757   7.856   1.514  10.493 -0.6475 -0.6122 -1.2496
  376MOL0     H50758   7.930   1.204  10.425 -4.3169  3.6877 -0.1572
  376MOL0     H50759   8.064   1.220  10.537 -1.4853 -3.9666 -0.8207
  376MOL0     H50760   7.907   1.289  10.563 -0.5033 -0.2805 -0.5835
  377MOL0     O50761   8.132   4.797   6.085  0.1592 -0.3086  0.2639
  377MOL0     C50762   8.105   4.721   6.180 -0.2187  0.5469  0.3694
  377MOL0     O50763   8.193   4.635   6.232 -0.4123 -0.4415  0.3549
  377MOL0     C50764   8.317   4.621   6.173 -0.1478 -0.3336 -0.0446
  377MOL0     C50765   8.432   4.638   6.256 -0.6756 -1.0483  0.0798
  377MOL0     C50766   8.561   4.632   6.206 -0.2015  0.2585 -0.1841
  377MOL0     C50767   8.587   4.624   6.073  0.3986  0.1367  1.0949
  377MOL0     O50768   8.715   4.638   6.019  0.2855  0.4318 -0.3030
  377MOL0     C50769   8.815   4.711   6.092  0.9694 -0.7394 -0.1836
  377MOL0     C50770   8.924   4.766   5.995  0.2910  0.0976  0.2270
  377MOL0     C50771   9.022   4.836   6.078  0.0374 -0.8831  0.1655
  377MOL0     C50772   9.110   4.929   5.995  0.6058  0.0783  0.4443
  377MOL0     C50773   9.235   4.969   6.072  0.4926 -0.3858  0.1503
  377MOL0     C50774   9.322   5.060   5.978  0.3652  0.2058 -0.0064
  377MOL0     C50775   9.459   5.067   6.049 -0.1041  0.0992  0.2075
  377MOL0     C50776   9.468   5.167   6.163  0.1423 -0.0650 -0.0848
  377MOL0     N50777   9.593   5.145   6.226  0.6781  0.1630  0.5831
  377MOL0     C50778   9.620   5.172   6.355 -0.8004  0.5641 -0.1884
  377MOL0     C50779   9.752   5.140   6.380 -0.3685  0.0683 -1.0092
  377MOL0     C50780   9.824   5.152   6.508  0.9729 -0.0115  0.7392
  377MOL0     C50781   9.968   5.190   6.484 -0.3413  0.0995  0.3874
  377MOL0     C50782   9.993   5.302   6.571  0.0147  0.6566  0.4335
  377MOL0     C50783  10.140   5.295   6.616  0.1669 -0.3489  0.1763
  377MOL0     O50784  10.235   5.259   6.521  0.3499 -0.7666 -0.4992
  377MOL0     C50785  10.366   5.282   6.558  0.5674  0.4732 -0.1655
  377MOL0     C50786  10.406   5.344   6.684 -0.5234 -0.1657  0.5464
  377MOL0     C50787  10.537   5.389   6.699 -1.0165  0.8307  0.0581
  377MOL0     C50788  10.627   5.376   6.594  0.0645 -0.4022 -0.2516
  377MOL0     C50789  10.766   5.434   6.595  0.7864 -0.0936  0.4547
  377MOL0     O50790  10.803   5.518   6.497 -0.0920  0.2008  0.3374
  377MOL0     C50791  10.935   5.547   6.480 -0.4654 -0.2085 -0.5798
  377MOL0     C50792  10.996   5.497   6.364 -0.4809  0.7108  1.2335
  377MOL0     C50793  11.128   5.526   6.333 -0.4957 -0.1628 -0.4911
  377MOL0     C50794  11.207   5.601   6.424  0.8694 -0.9725 -0.8251
  377MOL0     O50795  11.339   5.636   6.415  1.0096 -0.2848  0.1839
  377MOL0     C50796  11.392   5.633   6.282 -0.1474 -0.0483  0.7689
  377MOL0     C50797  11.536   5.672   6.280  0.0400 -0.7316  0.5053
  377MOL0     C50798  11.628   5.578   6.367  0.4958 -0.2776 -0.3068
  377MOL0     C50799  11.768   5.582   6.317  0.6502  0.1938  0.1476
  377MOL0     C50800  11.841   5.468   6.385 -0.2890 -0.7365  0.0827
  377MOL0     C50801  11.984   5.463   6.333  0.1320 -0.3352  0.0374
  377MOL0     C50802  12.070   5.597   6.345 -0.0181  0.8762  0.4593
  377MOL0     C50803  12.206   5.570   6.401 -0.0080 -0.4314 -0.0240
  377MOL0    Cl50804  12.309   5.477   6.288 -0.2530 -0.0371  0.2770
  377MOL0     C50805  11.153   5.636   6.544  0.5489  0.1882 -0.2220
  377MOL0     C50806  11.019   5.611   6.574  0.0917  0.0113 -0.4439
  377MOL0     O50807  10.842   5.391   6.687  0.0560  0.6932 -0.2003
  377MOL0     C50808  10.587   5.325   6.469  0.0370  0.1733 -0.1468
  377MOL0     C50809  10.457   5.280   6.449 -0.3899  0.3561 -0.3057
  377MOL0     N50810   9.813   5.109   6.255 -0.1921 -0.4337 -1.5431
  377MOL0     N50811   9.710   5.104   6.170  0.6589  0.3758 -0.5490
  377MOL0     C50812   8.475   4.605   5.986 -0.4634 -0.2830  0.1358
  377MOL0     C50813   8.343   4.590   6.038  0.0774 -0.2413  0.3887
  377MOL0     C50814   7.972   4.727   6.247 -0.4200 -0.4483  0.2077
  377MOL0     C50815   7.852   4.745   6.175 -0.3841 -0.2562  0.3896
  377MOL0     C50816   7.723   4.757   6.223 -0.2486 -0.5280 -0.0167
  377MOL0     C50817   7.708   4.753   6.366  0.0048  0.7555  0.4452
  377MOL0     O50818   7.584   4.751   6.433  0.1307  0.5349 -0.2691
  377MOL0     C50819   7.458   4.738   6.369  0.2094  0.3508 -0.1076
  377MOL0     C50820   7.364   4.714   6.476 -0.1026 -0.5683 -0.0903
  377MOL0     C50821   7.213   4.711   6.430  0.1226 -0.7186  0.2452
  377MOL0     C50822   7.184   4.603   6.326  0.7496 -0.5788 -0.5233
  377MOL0     C50823   7.041   4.606   6.292  0.3745 -0.6721 -0.4515
  377MOL0     C50824   6.925   4.613   6.258  0.3530  0.2572 -0.5901
  377MOL0     C50825   7.823   4.746   6.446 -0.0862  0.6319 -0.6678
  377MOL0     C50826   7.953   4.741   6.389 -0.2617  1.1260 -0.5222
  377MOL0     C50827   8.078   4.746   6.473  0.3894 -0.1182 -0.1168
  377MOL0     H50828   8.427   4.680   6.356  1.0978  1.7202 -0.8775
  377MOL0     H50829   8.641   4.660   6.274  0.8304  1.4329 -1.8172
  377MOL0     H50830   8.765   4.797   6.139  0.9041 -2.0808  2.3425
  377MOL0     H50831   8.862   4.644   6.165 -1.4404  0.4317  2.6788
  377MOL0     H50832   8.876   4.831   5.921  1.1427  2.6654  1.8066
  377MOL0     H50833   8.974   4.685   5.942  1.3242  0.4213  0.6766
  377MOL0     H50834   9.085   4.757   6.119  0.9257 -0.7882 -0.9651
  377MOL0     H50835   8.981   4.901   6.156  0.1796  0.6247 -0.9656
  377MOL0     H50836   9.140   4.864   5.912  2.5141  0.2518  0.9591
  377MOL0     H50837   9.047   5.007   5.950 -2.0430 -1.4572  1.2870
  377MOL0     H50838   9.210   5.014   6.169 -0.1011 -0.5461  0.0758
  377MOL0     H50839   9.291   4.879   6.097 -2.2090 -2.5855 -1.1318
  377MOL0     H50840   9.329   5.024   5.875 -1.6728 -0.0697 -0.1020
  377MOL0     H50841   9.269   5.156   5.973 -2.4749 -1.3069 -1.8258
  377MOL0     H50842   9.533   5.087   5.970  0.1202 -1.2792  0.0402
  377MOL0     H50843   9.491   4.970   6.088 -0.0437  1.4344  3.8060
  377MOL0     H50844   9.451   5.272   6.137 -1.2459 -0.5460 -1.2587
  377MOL0     H50845   9.387   5.132   6.228 -0.2713 -0.7328 -0.9439
  377MOL0     H50846   9.548   5.212   6.426 -1.4239 -1.3865  0.3558
  377MOL0     H50847   9.763   5.214   6.574  0.5526 -0.2819  0.6115
  377MOL0     H50848   9.819   5.047   6.537 -2.8851 -0.2657 -0.2275
  377MOL0     H50849  10.026   5.105   6.519  0.3941  0.0289 -0.9549
  377MOL0     H50850   9.993   5.204   6.378  0.2950 -2.8314  0.0730
  377MOL0     H50851   9.927   5.304   6.658 -2.2476  2.9017 -1.1971
  377MOL0     H50852   9.974   5.395   6.516  2.0274  0.0395 -1.4657
  377MOL0     H50853  10.131   5.214   6.688  0.0380  0.2062  0.8023
  377MOL0     H50854  10.155   5.386   6.676 -1.6884 -0.8750  1.5381
  377MOL0     H50855  10.343   5.366   6.769  0.5888 -1.0688  1.6240
  377MOL0     H50856  10.579   5.438   6.787 -2.6287  2.9615 -0.2717
  377MOL0     H50857  10.937   5.433   6.299  0.2272  0.5759  0.7172
  377MOL0     H50858  11.171   5.483   6.243 -1.5374 -2.8601  0.2122
  377MOL0     H50859  11.379   5.535   6.234 -2.2650  1.7227 -2.7466
  377MOL0     H50860  11.339   5.705   6.219  1.1831  1.2364  1.0737
  377MOL0     H50861  11.558   5.661   6.173  1.2837  0.5271  0.6023
  377MOL0     H50862  11.548   5.771   6.324  2.3658  0.1134 -1.7799
  377MOL0     H50863  11.620   5.607   6.472  0.8676 -2.1549  0.2610
  377MOL0     H50864  11.587   5.477   6.375 -1.4505 -0.0821 -4.8308
  377MOL0     H50865  11.812   5.679   6.340  0.9319  0.5949 -1.8922
  377MOL0     H50866  11.780   5.569   6.209  1.1116 -1.0704  0.3313
  377MOL0     H50867  11.803   5.373   6.347 -3.9277  0.4269  0.3754
  377MOL0     H50868  11.849   5.476   6.494  0.3817  0.2873 -0.0267
  377MOL0     H50869  12.035   5.395   6.403  0.0805  0.8727  1.2931
  377MOL0     H50870  11.986   5.422   6.232  2.6106 -0.8880  0.2526
  377MOL0     H50871  12.031   5.674   6.412  2.4534  0.0672  3.0487
  377MOL0     H50872  12.078   5.645   6.247 -1.8417  3.1873  1.3363
  377MOL0     H50873  12.260   5.664   6.420  0.2946 -0.6311  0.1113
  377MOL0     H50874  12.212   5.516   6.496  0.1878 -0.9187 -0.3111
  377MOL0     H50875  11.210   5.693   6.617  0.4116 -0.2662  0.2501
  377MOL0     H50876  10.995   5.652   6.672 -0.6648  0.3647 -0.7704
  377MOL0     H50877  10.664   5.332   6.393  0.1030  2.6754  0.0732
  377MOL0     H50878  10.437   5.234   6.352  1.8320  1.4394 -1.3583
  377MOL0     H50879   8.497   4.601   5.880  0.4303 -1.2842  0.3412
  377MOL0     H50880   8.249   4.574   5.985  0.1743  1.8234 -0.5009
  377MOL0     H50881   7.861   4.740   6.067 -0.1916  0.1226  0.3859
  377MOL0     H50882   7.641   4.769   6.153  1.0292 -0.6496 -1.5897
  377MOL0     H50883   7.443   4.651   6.305 -3.0087  0.5046  0.3068
  377MOL0     H50884   7.432   4.830   6.316  0.5627  1.2165  1.1709
  377MOL0     H50885   7.382   4.800   6.542 -0.8383 -1.5578  1.4490
  377MOL0     H50886   7.393   4.627   6.535  2.3360  0.9043  1.0409
  377MOL0     H50887   7.186   4.812   6.398 -1.1755 -1.2100 -0.2517
  377MOL0     H50888   7.157   4.693   6.523  0.3408  2.3849  1.0893
  377MOL0     H50889   7.239   4.635   6.237  2.6066  0.4533  0.9316
  377MOL0     H50890   7.214   4.503   6.357  0.8740 -1.2973 -2.7720
  377MOL0     H50891   6.826   4.606   6.219  0.0894 -0.8474  0.2173
  377MOL0     H50892   7.802   4.755   6.552  1.4267  0.6112 -0.3335
  377MOL0     H50893   8.131   4.651   6.466 -0.3887 -0.4191 -3.4776
  377MOL0     H50894   8.143   4.832   6.453  0.2832  0.3302  1.3722
  377MOL0     H50895   8.033   4.748   6.573 -0.9579 -1.0495 -0.6801
  378MOL0     O50896   4.467   5.107   4.897  0.3194  0.0927 -0.1312
  378MOL0     C50897   4.401   5.003   4.881  0.5375  0.0343 -0.8640
  378MOL0     O50898   4.458   4.877   4.877  0.5275  0.6321  0.4627
  378MOL0     C50899   4.591   4.885   4.869  0.6190  0.2077  0.0299
  378MOL0     C50900   4.655   4.845   4.757  0.4864 -0.4118  0.3209
  378MOL0     C50901   4.791   4.823   4.754  0.9229 -1.1005 -0.2076
  378MOL0     C50902   4.871   4.842   4.869  0.6287  0.6121 -0.4343
  378MOL0     O50903   5.003   4.830   4.885  0.1270  0.2359 -0.3556
  378MOL0     C50904   5.058   4.707   4.839 -0.4893  0.0566 -0.4208
  378MOL0     C50905   5.208   4.718   4.805  0.2060 -0.3276 -0.0783
  378MOL0     C50906   5.290   4.766   4.927 -0.0597 -0.3686 -0.3522
  378MOL0     C50907   5.442   4.738   4.886 -0.6943 -0.2579 -0.0758
  378MOL0     C50908   5.529   4.776   5.006 -0.8281 -0.4401  0.8216
  378MOL0     C50909   5.504   4.700   5.129  0.5113  0.1109  0.4013
  378MOL0     C50910   5.621   4.711   5.224  0.1109 -0.6121  0.0401
  378MOL0     C50911   5.647   4.855   5.281  1.1344  0.0686  0.2637
  378MOL0     N50912   5.762   4.855   5.367  0.3264 -1.0336 -1.2434
  378MOL0     C50913   5.794   4.772   5.472 -0.8039 -0.4461  0.8862
  378MOL0     C50914   5.917   4.818   5.513  0.2428 -0.2225 -0.4361
  378MOL0     C50915   6.005   4.767   5.628 -0.7749 -0.2558  0.9046
  378MOL0     C50916   6.079   4.642   5.594  0.9379  0.3261 -0.0709
  378MOL0     C50917   6.147   4.584   5.721 -0.1514 -0.3610 -0.1383
  378MOL0     C50918   6.195   4.442   5.711  0.4842 -0.2883 -0.2644
  378MOL0     O50919   6.295   4.422   5.608 -0.3944  0.0993  0.2834
  378MOL0     C50920   6.434   4.411   5.632 -0.6349 -0.4571 -0.2823
  378MOL0     C50921   6.516   4.392   5.521  1.8151  0.1446  0.5241
  378MOL0     C50922   6.654   4.403   5.531  0.5508 -0.2604 -0.3401
  378MOL0     C50923   6.716   4.426   5.655 -0.0238  0.0829  0.1965
  378MOL0     C50924   6.866   4.426   5.667  1.1253  0.6090 -0.0103
  378MOL0     O50925   6.925   4.422   5.786  0.3016 -0.0129  0.0597
  378MOL0     C50926   7.058   4.424   5.802  0.8732 -0.5290  0.6814
  378MOL0     C50927   7.158   4.449   5.712 -0.0400 -0.6272  0.3016
  378MOL0     C50928   7.294   4.436   5.747 -0.2592 -0.5871 -0.7814
  378MOL0     C50929   7.333   4.423   5.880 -0.5177  0.9330  0.0986
  378MOL0     O50930   7.467   4.410   5.907  1.2531  0.1005  0.9893
  378MOL0     C50931   7.506   4.476   6.035 -0.5361  0.1705 -0.4834
  378MOL0     C50932   7.657   4.458   6.046  0.4055  0.1986  0.1060
  378MOL0     C50933   7.724   4.534   5.930 -1.0920  0.1427  0.1595
  378MOL0     C50934   7.871   4.486   5.935 -0.6339  0.0641  0.2202
  378MOL0     C50935   7.887   4.346   5.883  0.0424 -0.5949  0.6348
  378MOL0     C50936   8.032   4.323   5.835 -0.1192 -0.1983  0.0977
  378MOL0     C50937   8.050   4.183   5.770  0.6467  0.9172 -0.1910
  378MOL0     C50938   8.181   4.186   5.697 -0.5026 -0.1987 -0.9640
  378MOL0    Cl50939   8.334   4.162   5.797  0.1346 -0.0131 -0.1940
  378MOL0     C50940   7.233   4.401   5.973 -0.5956  0.5809  0.6711
  378MOL0     C50941   7.103   4.407   5.941  0.3293 -0.1629 -0.7953
  378MOL0     O50942   6.929   4.391   5.563 -0.7317 -0.2642 -0.1710
  378MOL0     C50943   6.630   4.441   5.764 -0.5237  0.7835 -0.2576
  378MOL0     C50944   6.489   4.438   5.751 -0.2078  0.4489 -0.4912
  378MOL0     N50945   5.947   4.937   5.448  0.6135 -0.1471 -0.2273
  378MOL0     N50946   5.857   4.951   5.359  0.2052  1.3013 -0.4030
  378MOL0     C50947   4.811   4.893   4.976  0.4375 -0.4853  0.0049
  378MOL0     C50948   4.672   4.909   4.975 -0.2135 -0.2801  0.5236
  378MOL0     C50949   4.251   5.013   4.901 -0.5456  0.8577 -0.7080
  378MOL0     C50950   4.188   4.892   4.934 -0.3219  0.1433  0.1817
  378MOL0     C50951   4.054   4.888   4.941  0.6443  0.3335 -0.5919
  378MOL0     C50952   3.965   4.998   4.912 -0.4700  0.1077 -0.2478
  378MOL0     O50953   3.832   4.973   4.931 -0.5442 -0.2809  0.3020
  378MOL0     C50954   3.727   5.037   4.850  0.3675  0.2965  0.2855
  378MOL0     C50955   3.684   5.170   4.911  0.3273 -0.1712  0.0170
  378MOL0     C50956   3.549   5.211   4.845 -0.8704  0.0080  0.2909
  378MOL0     C50957   3.564   5.214   4.698  0.9807  0.1234 -0.0810
  378MOL0     C50958   3.459   5.300   4.645  0.0333 -0.0905 -0.1615
  378MOL0     C50959   3.388   5.378   4.581  0.2588  1.2063  0.0703
  378MOL0     C50960   4.028   5.111   4.865 -0.0395 -0.3108 -0.1485
  378MOL0     C50961   4.165   5.126   4.872  0.3529  0.1797 -0.5087
  378MOL0     C50962   4.228   5.260   4.839  0.3084 -0.5368 -0.4039
  378MOL0     H50963   4.602   4.820   4.666  0.2086 -0.4108  0.4836
  378MOL0     H50964   4.850   4.803   4.665  1.6464  0.9047 -0.2302
  378MOL0     H50965   5.047   4.632   4.917 -0.9410 -1.7819 -2.1577
  378MOL0     H50966   5.001   4.667   4.755  0.9247 -3.2191  0.0377
  378MOL0     H50967   5.228   4.796   4.732  3.2353 -0.2240  0.7055
  378MOL0     H50968   5.244   4.620   4.773 -3.9250 -2.6534  1.5687
  378MOL0     H50969   5.265   4.702   5.012 -3.7747  2.7425  1.2029
  378MOL0     H50970   5.272   4.872   4.948  0.4076 -0.3566  0.0089
  378MOL0     H50971   5.462   4.634   4.859  1.8876  0.6795 -2.1663
  378MOL0     H50972   5.477   4.796   4.800  0.4506 -1.3285 -0.3623
  378MOL0     H50973   5.633   4.764   4.974 -1.9811 -3.0166 -2.6369
  378MOL0     H50974   5.505   4.880   5.030  1.5404  0.3075  0.2107
  378MOL0     H50975   5.419   4.750   5.177 -1.2118  0.2027 -2.5126
  378MOL0     H50976   5.478   4.597   5.105 -0.9377  0.0539  2.0721
  378MOL0     H50977   5.709   4.668   5.176 -0.9538 -0.4604 -2.1835
  378MOL0     H50978   5.588   4.644   5.304 -0.9437 -2.2818 -1.7335
  378MOL0     H50979   5.672   4.919   5.196 -2.3748  2.8359  1.0448
  378MOL0     H50980   5.562   4.903   5.331  0.3020 -0.1132 -0.9623
  378MOL0     H50981   5.743   4.684   5.508  0.4142 -0.8865  1.5758
  378MOL0     H50982   6.075   4.846   5.657  0.5966 -0.9418 -0.3902
  378MOL0     H50983   5.949   4.749   5.720  0.9852  2.3802  2.6702
  378MOL0     H50984   6.018   4.559   5.558  3.0214 -1.4813  0.3774
  378MOL0     H50985   6.150   4.671   5.516  1.6240 -1.5064 -0.1583
  378MOL0     H50986   6.076   4.588   5.804  0.3809 -0.0533  0.3021
  378MOL0     H50987   6.241   4.635   5.742  1.2372 -2.4384 -1.0502
  378MOL0     H50988   6.106   4.385   5.682 -0.4735  0.3238  1.3543
  378MOL0     H50989   6.234   4.409   5.808  3.5846  1.8292 -0.6698
  378MOL0     H50990   6.469   4.376   5.424  0.0025  0.2161  1.3357
  378MOL0     H50991   6.717   4.388   5.444  0.4769  2.6271 -1.0045
  378MOL0     H50992   7.155   4.483   5.609 -1.1741  0.5965  0.7184
  378MOL0     H50993   7.374   4.450   5.675 -0.5436 -0.5405 -1.0921
  378MOL0     H50994   7.494   4.585   6.033 -0.8756  0.1500  0.0811
  378MOL0     H50995   7.455   4.422   6.116  0.7171 -3.9444 -2.1806
  378MOL0     H50996   7.700   4.489   6.141  0.1490  3.6977 -0.7964
  378MOL0     H50997   7.677   4.351   6.033 -0.3786 -0.1235  1.3319
  378MOL0     H50998   7.692   4.504   5.830  1.9900 -0.5635 -0.7299
  378MOL0     H50999   7.707   4.642   5.930  0.6645  0.4502 -0.0119
  378MOL0     H51000   7.902   4.481   6.040  2.0077 -0.7132 -0.5314
  378MOL0     H51001   7.933   4.558   5.881 -1.4802  0.5784 -0.0823
  378MOL0     H51002   7.822   4.319   5.799 -1.2868  3.3236  0.1868
  378MOL0     H51003   7.859   4.276   5.962 -0.1418  0.0544  1.1514
  378MOL0     H51004   8.066   4.400   5.766  2.8066 -2.2224 -0.8991
  378MOL0     H51005   8.091   4.313   5.927  0.0296 -1.9193 -0.1392
  378MOL0     H51006   7.977   4.174   5.689  1.6524  1.0068 -1.1295
  378MOL0     H51007   8.046   4.104   5.846  0.6248  1.4918  0.4207
  378MOL0     H51008   8.189   4.107   5.621 -1.3641  0.1038 -1.3977
  378MOL0     H51009   8.188   4.281   5.643 -0.1126  0.7588  0.7122
  378MOL0     H51010   7.251   4.373   6.076  0.3215 -0.4617  0.2559
  378MOL0     H51011   7.033   4.376   6.017 -1.3280 -0.7979 -2.4864
  378MOL0     H51012   6.677   4.475   5.856 -1.6397 -0.4347  0.8095
  378MOL0     H51013   6.433   4.473   5.837  1.3253 -0.2935  0.8535
  378MOL0     H51014   4.857   4.928   5.068 -2.1434  2.2325  0.4087
  378MOL0     H51015   4.613   4.937   5.062  0.7766  3.8596  0.0583
  378MOL0     H51016   4.232   4.799   4.967  0.4471 -0.0124 -1.1728
  378MOL0     H51017   4.001   4.800   4.977 -0.7305  1.2807 -0.1879
  378MOL0     H51018   3.640   4.972   4.839 -0.8052  1.9396 -0.6109
  378MOL0     H51019   3.762   5.065   4.750 -1.1380 -1.4831 -0.8223
  378MOL0     H51020   3.753   5.254   4.911  0.5751 -0.3406  1.5939
  378MOL0     H51021   3.649   5.145   5.012  3.2987  0.7884  1.3855
  378MOL0     H51022   3.525   5.313   4.876 -0.2964 -0.1389  1.2852
  378MOL0     H51023   3.460   5.154   4.872 -1.0687 -0.6007 -1.5610
  378MOL0     H51024   3.659   5.256   4.664  0.6600  1.1652  0.2772
  378MOL0     H51025   3.543   5.113   4.660 -1.2541  1.0156 -1.3832
  378MOL0     H51026   3.338   5.448   4.517 -1.0262 -1.0272 -1.5142
  378MOL0     H51027   3.959   5.192   4.843  2.1521  2.5198  2.5003
  378MOL0     H51028   4.237   5.263   4.730 -0.5939  3.9660 -0.5739
  378MOL0     H51029   4.170   5.343   4.882  1.9719 -0.1532  1.2571
  378MOL0     H51030   4.324   5.275   4.889  0.2315 -3.9267  1.0446
  379MOL0     O51031   9.494   5.592   6.067 -0.7145 -0.0525 -0.0064
  379MOL0     C51032   9.569   5.515   6.011  0.4050 -0.0887  1.4180
  379MOL0     O51033   9.697   5.485   6.049  0.5339  0.0432  0.6825
  379MOL0     C51034   9.773   5.557   6.138 -0.0770 -0.1838  0.6297
  379MOL0     C51035   9.736   5.682   6.201 -0.2204 -0.6807  0.7584
  379MOL0     C51036   9.814   5.738   6.300  0.0760 -0.4871  0.0271
  379MOL0     C51037   9.940   5.669   6.339  0.4504 -0.3923  0.0107
  379MOL0     O51038  10.023   5.711   6.442 -0.2038 -0.6894  0.2252
  379MOL0     C51039   9.996   5.834   6.516  0.5570 -0.2462  0.0397
  379MOL0     C51040  10.091   5.843   6.648  0.4438 -0.2194  0.2689
  379MOL0     C51041  10.240   5.872   6.620  0.1359 -0.4089  0.6309
  379MOL0     C51042  10.332   5.756   6.582  0.4023 -0.1203  0.0404
  379MOL0     C51043  10.475   5.796   6.549  0.1871 -0.2157  0.2629
  379MOL0     C51044  10.552   5.825   6.676  0.0108  0.6187  0.6968
  379MOL0     C51045  10.704   5.829   6.670 -0.0195 -0.4671 -0.6830
  379MOL0     C51046  10.754   5.919   6.559  1.4034 -0.8885  0.2401
  379MOL0     N51047  10.900   5.941   6.571 -0.2447 -0.8514 -0.6107
  379MOL0     C51048  11.007   5.906   6.484 -0.0432  0.3493  0.1887
  379MOL0     C51049  11.098   6.001   6.513 -0.4652 -0.3725  0.3763
  379MOL0     C51050  11.226   6.023   6.434  0.1670 -0.2389 -0.1448
  379MOL0     C51051  11.348   6.048   6.523  0.0621  0.3885  0.3559
  379MOL0     C51052  11.409   5.928   6.595  0.1123 -0.3085 -0.3734
  379MOL0     C51053  11.556   5.950   6.620 -0.7947 -0.1089  0.3374
  379MOL0     O51054  11.615   5.978   6.496 -1.0318 -0.3215  0.3715
  379MOL0     C51055  11.755   5.975   6.485  0.7424 -0.2357 -0.2984
  379MOL0     C51056  11.819   5.955   6.363 -0.4727  1.0477 -0.2825
  379MOL0     C51057  11.958   5.930   6.363  0.7455 -0.8010 -1.1760
  379MOL0     C51058  12.038   5.953   6.477  0.7505 -0.2574  0.1561
  379MOL0     C51059  12.187   5.959   6.479  0.2406 -1.4506  0.6714
  379MOL0     O51060  12.253   6.016   6.589 -0.3116  0.7887  0.6001
  379MOL0     C51061  12.393   6.012   6.615  0.2709 -0.5271 -0.0764
  379MOL0     C51062  12.500   6.007   6.517 -0.1191 -0.5730 -0.3922
  379MOL0     C51063  12.634   6.025   6.556  0.7566 -0.5286  0.2166
  379MOL0     C51064  12.662   6.055   6.693 -0.3073  0.5786 -0.4963
  379MOL0     O51065  12.786   6.079   6.749  0.0922  0.6539  0.4061
  379MOL0     C51066  12.883   6.092   6.647  0.5624 -0.2432  0.2863
  379MOL0     C51067  13.017   6.120   6.715  0.4533 -0.3879  0.4706
  379MOL0     C51068  13.126   6.141   6.611 -0.1559 -0.0369  0.2464
  379MOL0     C51069  13.256   6.106   6.676 -0.2498 -0.2699 -0.1203
  379MOL0     C51070  13.370   6.154   6.584  0.2145 -0.3542 -0.5881
  379MOL0     C51071  13.409   6.051   6.479  0.1803  0.0486  0.5921
  379MOL0     C51072  13.524   6.103   6.385 -1.1402 -0.4646  0.2187
  379MOL0     C51073  13.578   6.008   6.277 -0.0266 -0.7810  0.9064
  379MOL0    Cl51074  13.649   5.860   6.342  0.2573  0.0152 -0.0075
  379MOL0     C51075  12.555   6.055   6.785  0.2575  0.0675 -0.3511
  379MOL0     C51076  12.420   6.036   6.748 -0.3491  0.7080  1.3638
  379MOL0     O51077  12.240   5.930   6.373  0.6362  1.0550 -0.4684
  379MOL0     C51078  11.974   5.979   6.598 -0.2797 -0.6173  0.1274
  379MOL0     C51079  11.836   5.983   6.606  0.7092  0.3337  0.0647
  379MOL0     N51080  11.058   6.076   6.611  0.4543 -0.1378  0.6820
  379MOL0     N51081  10.951   6.036   6.654  0.0410  0.2417 -0.3855
  379MOL0     C51082   9.975   5.548   6.267 -0.8271 -0.5760  0.3529
  379MOL0     C51083   9.891   5.491   6.173 -0.0738 -0.9399  0.0949
  379MOL0     C51084   9.508   5.440   5.892  0.0829  0.2610  0.3331
  379MOL0     C51085   9.600   5.359   5.821  1.1636  0.3509 -0.0199
  379MOL0     C51086   9.548   5.269   5.729 -0.5044 -0.9240  0.5034
  379MOL0     C51087   9.415   5.265   5.692 -0.0941  0.9418  0.6829
  379MOL0     O51088   9.382   5.168   5.598  0.1877  0.1922  0.6305
  379MOL0     C51089   9.359   5.222   5.466  0.1721  0.1190  0.9395
  379MOL0     C51090   9.474   5.206   5.368  0.1200  0.0230 -0.5470
  379MOL0     C51091   9.418   5.224   5.220 -0.8781 -0.5521  0.3465
  379MOL0     C51092   9.525   5.186   5.112 -0.6305  0.4897  0.0199
  379MOL0     C51093   9.645   5.266   5.131 -0.6762  0.1265 -1.3092
  379MOL0     C51094   9.750   5.319   5.166  0.1422  0.2570  1.0407
  379MOL0     C51095   9.329   5.350   5.749  0.6692 -0.7212 -0.3796
  379MOL0     C51096   9.368   5.443   5.851 -0.1675  0.2337  0.4448
  379MOL0     C51097   9.254   5.536   5.909 -0.9023  0.6688 -0.0506
  379MOL0     H51098   9.637   5.724   6.184  0.9129  0.9156 -3.2403
  379MOL0     H51099   9.772   5.822   6.355 -0.9086  0.0299 -1.4447
  379MOL0     H51100  10.003   5.928   6.460  1.7487  0.8796  1.9836
  379MOL0     H51101   9.895   5.838   6.557  1.1707  1.3678  1.5261
  379MOL0     H51102  10.082   5.758   6.716  2.2768  0.2902  1.2263
  379MOL0     H51103  10.042   5.926   6.700 -2.0042 -1.9500  0.9159
  379MOL0     H51104  10.277   5.935   6.701 -1.2905  0.6552  0.4883
  379MOL0     H51105  10.242   5.934   6.530  0.3577 -0.8187  0.3460
  379MOL0     H51106  10.336   5.683   6.663 -0.3167  3.5733  3.7569
  379MOL0     H51107  10.289   5.694   6.503 -2.1124 -1.3712  2.2161
  379MOL0     H51108  10.518   5.712   6.493 -1.2891 -0.3824 -0.6752
  379MOL0     H51109  10.483   5.881   6.481  0.3812 -1.0923 -0.8436
  379MOL0     H51110  10.517   5.917   6.723  2.5768  2.1434 -0.2208
  379MOL0     H51111  10.533   5.744   6.748  3.5623 -0.3090  0.8034
  379MOL0     H51112  10.751   5.732   6.652  1.2779  0.0753 -0.3127
  379MOL0     H51113  10.731   5.861   6.771  0.6830 -2.3776 -0.2252
  379MOL0     H51114  10.724   5.888   6.458  0.7659  2.9169 -0.9189
  379MOL0     H51115  10.699   6.013   6.567 -0.2959 -1.8383  0.1916
  379MOL0     H51116  11.015   5.830   6.406  2.8348  1.8122 -1.1045
  379MOL0     H51117  11.247   5.942   6.364 -2.1327 -1.5732  0.6039
  379MOL0     H51118  11.214   6.117   6.379  0.8357  0.7229  1.2889
  379MOL0     H51119  11.410   6.085   6.441 -0.0495  0.4060  0.2800
  379MOL0     H51120  11.335   6.129   6.596 -0.1955  0.2820  0.4277
  379MOL0     H51121  11.399   5.838   6.534  0.1603 -0.8836  0.4415
  379MOL0     H51122  11.353   5.910   6.687 -1.2616  0.7529 -0.9715
  379MOL0     H51123  11.595   5.858   6.664  0.9055 -0.2270 -1.2954
  379MOL0     H51124  11.565   6.040   6.680 -0.9578  0.5748 -0.6386
  379MOL0     H51125  11.763   5.946   6.270 -1.0077  0.0925  0.1204
  379MOL0     H51126  12.007   5.889   6.275  0.5139 -2.2871 -0.6326
  379MOL0     H51127  12.465   6.000   6.415 -0.0298  0.3790 -0.4985
  379MOL0     H51128  12.715   6.011   6.484  0.9579 -0.5621  0.4493
  379MOL0     H51129  12.896   6.006   6.579  1.1419  0.6555 -0.7714
  379MOL0     H51130  12.858   6.182   6.591  1.2937  0.8942  1.7435
  379MOL0     H51131  13.006   6.211   6.775 -0.0979 -1.0546  1.4173
  379MOL0     H51132  13.054   6.043   6.784  2.3506 -0.6543 -0.7677
  379MOL0     H51133  13.110   6.078   6.522 -2.8165 -0.0172  0.6038
  379MOL0     H51134  13.123   6.244   6.575  2.1095  0.0579  0.2054
  379MOL0     H51135  13.257   5.998   6.690 -0.0436 -0.4382 -1.3411
  379MOL0     H51136  13.258   6.159   6.772  0.7025 -0.3629 -0.0863
  379MOL0     H51137  13.452   6.170   6.654 -2.0430  0.6079  2.0118
  379MOL0     H51138  13.339   6.249   6.540  0.9407 -0.0143 -0.3863
  379MOL0     H51139  13.442   5.960   6.529  1.6296  1.0784  1.5739
  379MOL0     H51140  13.320   6.027   6.419  0.5506 -2.0430  0.7946
  379MOL0     H51141  13.613   6.134   6.441  0.2355 -3.4171 -0.1757
  379MOL0     H51142  13.489   6.193   6.333 -0.0827 -0.4065 -0.4199
  379MOL0     H51143  13.492   5.972   6.220  1.5415 -2.9199 -0.2344
  379MOL0     H51144  13.644   6.065   6.211 -0.6280 -0.8681  0.2140
  379MOL0     H51145  12.570   6.080   6.889 -3.3086  2.0467 -0.1414
  379MOL0     H51146  12.343   6.049   6.823 -0.9514  2.3132  0.5388
  379MOL0     H51147  12.031   5.986   6.690 -2.1119  1.4145  1.1953
  379MOL0     H51148  11.786   5.989   6.703 -1.3874 -1.8883 -0.7761
  379MOL0     H51149  10.059   5.489   6.301 -0.7936 -1.5380 -1.2665
  379MOL0     H51150   9.921   5.397   6.130  0.0581 -0.9546  0.2177
  379MOL0     H51151   9.705   5.363   5.850  1.1480  3.6936 -0.0588
  379MOL0     H51152   9.613   5.202   5.672 -0.1024 -1.6319  1.7514
  379MOL0     H51153   9.335   5.328   5.473  3.9977  1.4047 -1.9983
  379MOL0     H51154   9.277   5.161   5.426 -0.0360  0.3723  0.9753
  379MOL0     H51155   9.529   5.111   5.366  0.6021  0.2889 -2.5971
  379MOL0     H51156   9.543   5.286   5.395  0.8071 -0.5511 -0.5763
  379MOL0     H51157   9.380   5.325   5.201  0.3087  0.0301  0.9622
  379MOL0     H51158   9.333   5.161   5.193 -0.7033 -1.7137  2.3352
  379MOL0     H51159   9.554   5.081   5.119 -4.9242 -0.8310  0.9412
  379MOL0     H51160   9.497   5.196   5.007 -0.1773 -0.8837 -0.2432
  379MOL0     H51161   9.850   5.347   5.191  0.4284 -1.1814  1.6152
  379MOL0     H51162   9.226   5.355   5.717  0.8183  2.2004 -0.7188
  379MOL0     H51163   9.232   5.618   5.840 -3.2309 -1.6783 -2.3124
  379MOL0     H51164   9.166   5.472   5.917 -0.2219 -0.5296 -1.5106
  379MOL0     H51165   9.280   5.582   6.005  0.7127 -0.4966  0.1082
  380MOL0     O51166   5.174   2.943   8.244  0.1550 -0.8059 -0.0170
  380MOL0     C51167   5.158   3.000   8.351 -1.2284  1.0423 -0.0705
  380MOL0     O51168   5.259   3.000   8.452  0.4041 -0.7068  0.6264
  380MOL0     C51169   5.376   2.945   8.424 -0.2143 -0.8418  0.1986
  380MOL0     C51170   5.489   3.012   8.467 -0.4453  0.3027 -0.9178
  380MOL0     C51171   5.619   2.976   8.421  0.3050  0.2386 -0.0366
  380MOL0     C51172   5.639   2.854   8.353 -0.5116  0.1378  0.0292
  380MOL0     O51173   5.757   2.798   8.312 -0.4135 -0.1468  0.0500
  380MOL0     C51174   5.873   2.854   8.383 -0.4629  0.4634  0.3760
  380MOL0     C51175   5.997   2.756   8.384 -0.3902  0.3252 -0.7759
  380MOL0     C51176   6.074   2.739   8.248 -0.0172 -0.4659  0.4682
  380MOL0     C51177   6.123   2.879   8.208 -0.8942  0.2366 -0.2230
  380MOL0     C51178   6.253   2.876   8.123  0.1796 -0.4731  0.0641
  380MOL0     C51179   6.293   3.020   8.095 -0.1142 -0.3225 -0.2296
  380MOL0     C51180   6.398   3.004   7.987  0.4120  0.3689 -0.9397
  380MOL0     C51181   6.430   3.130   7.911  0.5435  0.4432 -0.5372
  380MOL0     N51182   6.523   3.102   7.803  0.2158 -0.2089 -0.0139
  380MOL0     C51183   6.633   3.178   7.788 -0.9452  0.9446 -0.2158
  380MOL0     C51184   6.655   3.193   7.652  0.5398  0.4142  0.6751
  380MOL0     C51185   6.747   3.298   7.591  0.1212 -0.3853 -0.3809
  380MOL0     C51186   6.879   3.318   7.677  0.6024  0.7329  0.7581
  380MOL0     C51187   6.956   3.428   7.611  0.2245 -0.1106  0.0068
  380MOL0     C51188   7.091   3.467   7.678 -0.0313  0.1951 -0.6503
  380MOL0     O51189   7.088   3.480   7.824  0.3194  0.3503 -0.3923
  380MOL0     C51190   7.188   3.516   7.901 -1.0653  0.1669 -0.1136
  380MOL0     C51191   7.215   3.451   8.017 -0.5294 -0.0535 -0.0710
  380MOL0     C51192   7.312   3.496   8.104  0.5203 -0.4438 -0.1964
  380MOL0     C51193   7.385   3.611   8.081 -0.4715 -0.0697 -0.2463
  380MOL0     C51194   7.496   3.659   8.167 -0.0092 -0.9857  0.7578
  380MOL0     O51195   7.582   3.569   8.213  0.2859 -0.2482  0.6634
  380MOL0     C51196   7.695   3.602   8.276 -0.0871  1.0236 -0.2295
  380MOL0     C51197   7.697   3.595   8.412 -0.1682  0.4882  0.1948
  380MOL0     C51198   7.807   3.637   8.484 -0.3326 -0.4043 -0.9266
  380MOL0     C51199   7.920   3.694   8.421 -0.1171  0.4788  0.4259
  380MOL0     O51200   8.028   3.718   8.506  0.2753 -0.5468  0.1729
  380MOL0     C51201   8.150   3.654   8.465  0.1310 -0.1202  0.1752
  380MOL0     C51202   8.251   3.685   8.575  0.4582 -0.2324 -0.3975
  380MOL0     C51203   8.391   3.647   8.531  0.0545  0.1198  0.1918
  380MOL0     C51204   8.493   3.683   8.635 -0.8305 -0.0989  0.0756
  380MOL0     C51205   8.629   3.661   8.570  0.2681  0.4719  0.0770
  380MOL0     C51206   8.749   3.706   8.648  0.4793  0.1904 -0.0196
  380MOL0     C51207   8.886   3.709   8.583 -0.2686 -0.3879 -0.2839
  380MOL0     C51208   8.939   3.855   8.555 -0.4340  0.5342 -0.8945
  380MOL0    Cl51209   8.819   3.952   8.463 -0.1883 -0.1153 -0.2312
  380MOL0     C51210   7.921   3.698   8.279  0.1126 -0.9961  0.1879
  380MOL0     C51211   7.802   3.656   8.209 -0.2826  0.9468  0.8392
  380MOL0     O51212   7.506   3.782   8.174  0.4797 -1.0431  0.1057
  380MOL0     C51213   7.350   3.681   7.965 -0.3035 -0.0689 -0.6578
  380MOL0     C51214   7.248   3.645   7.876  0.8980  0.3426 -0.3395
  380MOL0     N51215   6.558   3.124   7.587 -0.0972  0.3705  0.0450
  380MOL0     N51216   6.483   3.064   7.676  0.2849 -0.4895  0.5609
  380MOL0     C51217   5.528   2.775   8.331  1.2659 -0.6568  0.1884
  380MOL0     C51218   5.397   2.820   8.364  0.1348 -0.2983  0.3946
  380MOL0     C51219   5.042   3.090   8.375 -0.4631  0.9605  0.3306
  380MOL0     C51220   5.060   3.202   8.449 -1.1998 -1.1791  0.0387
  380MOL0     C51221   4.957   3.290   8.485  0.4316 -0.6845  0.0066
  380MOL0     C51222   4.829   3.271   8.436 -0.4940 -0.4894  0.7288
  380MOL0     O51223   4.739   3.364   8.480  0.0891 -0.7147  0.2318
  380MOL0     C51224   4.620   3.365   8.401  0.5685 -0.3451 -0.5296
  380MOL0     C51225   4.519   3.434   8.504  0.3425 -0.3204 -0.8240
  380MOL0     C51226   4.382   3.377   8.485  0.6140 -0.3547  1.2202
  380MOL0     C51227   4.273   3.408   8.592 -0.5974  0.3718  0.9992
  380MOL0     C51228   4.150   3.323   8.579  0.2966  0.3019 -0.7160
  380MOL0     C51229   4.051   3.256   8.563  0.1377  0.3975  0.7107
  380MOL0     C51230   4.814   3.159   8.351  0.3761 -0.1639 -0.5977
  380MOL0     C51231   4.910   3.067   8.328 -0.5085 -0.3491  0.7757
  380MOL0     C51232   4.882   2.952   8.237  0.5206  0.9703 -0.1089
  380MOL0     H51233   5.488   3.102   8.528 -1.1040 -0.2676 -0.0618
  380MOL0     H51234   5.694   3.035   8.472  1.9779 -1.3077 -0.5808
  380MOL0     H51235   5.890   2.949   8.332 -2.0091  0.0371 -1.0345
  380MOL0     H51236   5.848   2.875   8.487 -1.5065  1.6272 -0.0833
  380MOL0     H51237   5.958   2.658   8.411  1.4995 -0.8140 -2.0051
  380MOL0     H51238   6.075   2.782   8.456  0.4034 -1.8488 -0.7980
  380MOL0     H51239   6.010   2.704   8.167 -1.2265  1.7688  0.3781
  380MOL0     H51240   6.155   2.666   8.260 -2.0338 -2.8737  0.2091
  380MOL0     H51241   6.039   2.923   8.153 -0.0421  0.2997 -1.5139
  380MOL0     H51242   6.131   2.933   8.303  0.0821 -2.5591  1.4023
  380MOL0     H51243   6.326   2.817   8.179 -0.1994 -2.1222 -1.1198
  380MOL0     H51244   6.234   2.821   8.030 -0.7312 -1.8361  1.0189
  380MOL0     H51245   6.203   3.076   8.065 -0.2441  0.7265  1.9052
  380MOL0     H51246   6.321   3.047   8.197 -2.7268 -2.6790  1.2390
  380MOL0     H51247   6.349   2.944   7.910 -0.4240  1.3948 -1.2342
  380MOL0     H51248   6.480   2.943   8.025  1.6307  2.4960  0.0099
  380MOL0     H51249   6.333   3.161   7.871  0.4363 -1.6272 -2.0916
  380MOL0     H51250   6.480   3.200   7.978 -1.1086 -2.0296  3.7525
  380MOL0     H51251   6.693   3.228   7.864 -0.6893 -0.7956  0.7778
  380MOL0     H51252   6.769   3.285   7.485 -0.7931 -2.0244 -0.3948
  380MOL0     H51253   6.681   3.385   7.599 -0.0589 -0.6070  0.6993
  380MOL0     H51254   6.851   3.342   7.780 -0.6480 -0.1462  0.6588
  380MOL0     H51255   6.939   3.227   7.684  2.1126  1.6990  0.6720
  380MOL0     H51256   6.886   3.513   7.603 -0.1327 -0.5440 -1.7244
  380MOL0     H51257   6.978   3.404   7.507 -0.9628  2.9859 -1.0975
  380MOL0     H51258   7.136   3.559   7.640  1.3468 -0.3118 -0.2852
  380MOL0     H51259   7.165   3.389   7.659 -1.1826 -1.5347  1.4955
  380MOL0     H51260   7.163   3.365   8.059 -0.9663  0.7364  1.0777
  380MOL0     H51261   7.319   3.434   8.192 -2.8951 -0.2226  0.3843
  380MOL0     H51262   7.608   3.559   8.462 -0.3724  0.4093 -0.2159
  380MOL0     H51263   7.795   3.634   8.592  0.0315  0.8549 -0.8252
  380MOL0     H51264   8.137   3.546   8.453 -0.6094 -0.2784  2.1086
  380MOL0     H51265   8.187   3.698   8.372  1.6234 -0.7797  0.4322
  380MOL0     H51266   8.253   3.794   8.587 -1.0435 -0.0193 -1.7545
  380MOL0     H51267   8.230   3.624   8.663  0.6378  1.0164  0.5394
  380MOL0     H51268   8.396   3.539   8.514 -1.0140 -0.0569  0.9501
  380MOL0     H51269   8.411   3.697   8.436 -0.6899 -0.4125 -0.2496
  380MOL0     H51270   8.479   3.625   8.727  0.7230 -2.5070 -1.0837
  380MOL0     H51271   8.486   3.789   8.661  1.2091  0.4040 -1.2211
  380MOL0     H51272   8.623   3.718   8.477 -1.3946  0.2652  0.0308
  380MOL0     H51273   8.637   3.556   8.540 -0.3265  0.5832 -0.4804
  380MOL0     H51274   8.725   3.811   8.669  0.7661 -0.0993  2.0134
  380MOL0     H51275   8.771   3.648   8.738  1.3295 -2.4582 -1.8349
  380MOL0     H51276   8.863   3.661   8.488 -1.8665 -0.5067  0.1337
  380MOL0     H51277   8.958   3.657   8.647  0.4485  0.2480 -0.5602
  380MOL0     H51278   8.954   3.899   8.654  0.3094 -1.9711  0.1865
  380MOL0     H51279   9.040   3.866   8.514 -0.0000 -0.1369 -0.0346
  380MOL0     H51280   8.008   3.725   8.220 -0.3900 -2.2482 -1.1862
  380MOL0     H51281   7.794   3.663   8.101 -2.7639 -0.8211  0.8265
  380MOL0     H51282   7.417   3.759   7.930  0.9627 -0.2493  1.2342
  380MOL0     H51283   7.225   3.712   7.794  1.9638 -1.6645 -2.3927
  380MOL0     H51284   5.540   2.684   8.274  1.1622 -0.7042  0.2427
  380MOL0     H51285   5.312   2.753   8.355  0.6138 -0.9439  0.6032
  380MOL0     H51286   5.151   3.225   8.504 -0.7539  1.4426 -1.6071
  380MOL0     H51287   4.972   3.377   8.549  1.0602  1.5297 -2.9115
  380MOL0     H51288   4.576   3.273   8.361  0.5908  0.6430 -2.9904
  380MOL0     H51289   4.629   3.432   8.316 -2.2771  1.5522  0.5224
  380MOL0     H51290   4.528   3.543   8.501  1.6608 -0.2935  1.3484
  380MOL0     H51291   4.546   3.411   8.608  3.8523  0.0521 -1.5223
  380MOL0     H51292   4.379   3.271   8.460  3.1746  0.2571 -2.5392
  380MOL0     H51293   4.353   3.427   8.392 -1.5370 -2.5606  0.6134
  380MOL0     H51294   4.321   3.410   8.691  1.7930 -2.9531  0.0962
  380MOL0     H51295   4.230   3.507   8.579 -1.2022  0.0162  0.2425
  380MOL0     H51296   3.981   3.180   8.534  1.9210 -0.6691 -1.1383
  380MOL0     H51297   4.716   3.127   8.316 -0.2752  0.2930  0.7142
  380MOL0     H51298   4.908   2.864   8.296  0.9608  0.9066 -0.3956
  380MOL0     H51299   4.782   2.930   8.200  1.5448 -1.5374 -1.6328
  380MOL0     H51300   4.945   2.968   8.149  1.6706  0.4062  0.5904
  381MOL0     O51301   6.887   9.018   2.340 -0.5300 -0.3142  0.2812
  381MOL0     C51302   6.854   8.931   2.416 -0.1684  0.8822 -1.0777
  381MOL0     O51303   6.915   8.889   2.528 -0.2591 -0.1220 -0.2421
  381MOL0     C51304   7.041   8.933   2.562 -0.3610 -1.0066  0.7274
  381MOL0     C51305   7.169   8.879   2.530  0.4845  0.4890  0.7012
  381MOL0     C51306   7.285   8.927   2.581 -0.6843 -0.6463  0.1899
  381MOL0     C51307   7.285   9.048   2.651  0.4993  0.3577 -1.1635
  381MOL0     O51308   7.408   9.105   2.681  0.4175 -0.6043 -0.3272
  381MOL0     C51309   7.419   9.233   2.737  0.2650  0.3812 -0.6750
  381MOL0     C51310   7.557   9.262   2.770 -0.5025  0.1750 -0.1379
  381MOL0     C51311   7.648   9.276   2.650 -0.2833  0.2242 -0.5509
  381MOL0     C51312   7.780   9.342   2.702  0.1540  0.1266 -1.0976
  381MOL0     C51313   7.888   9.345   2.593 -0.3164  0.7852  0.3593
  381MOL0     C51314   8.011   9.419   2.636 -0.8825 -0.4569  0.1701
  381MOL0     C51315   8.094   9.465   2.518  0.0324  0.3151 -0.6624
  381MOL0     C51316   8.047   9.597   2.464 -0.2234 -0.7421  0.0155
  381MOL0     N51317   8.118   9.618   2.340  0.5153 -0.5117  0.4800
  381MOL0     C51318   8.063   9.615   2.211 -0.1150 -0.8600  0.1844
  381MOL0     C51319   8.171   9.616   2.120  0.8600 -0.1756 -0.4371
  381MOL0     C51320   8.172   9.641   1.972 -0.5390 -0.4985 -0.1369
  381MOL0     C51321   8.173   9.521   1.881  0.5274  0.1190  0.2275
  381MOL0     C51322   8.313   9.449   1.885 -0.2368 -0.0571  0.0797
  381MOL0     C51323   8.423   9.545   1.858 -0.9709 -0.4526 -0.0927
  381MOL0     O51324   8.544   9.473   1.820 -0.3997  0.6232  0.6849
  381MOL0     C51325   8.662   9.544   1.792 -0.5165 -0.9405 -0.5242
  381MOL0     C51326   8.680   9.688   1.777 -0.4939 -0.2775  0.5385
  381MOL0     C51327   8.811   9.739   1.777  0.3101  0.3043 -0.3969
  381MOL0     C51328   8.926   9.661   1.778 -0.4428 -1.2667 -0.1473
  381MOL0     C51329   9.058   9.730   1.777  0.4077  0.5143  0.6137
  381MOL0     O51330   9.164   9.638   1.804 -0.3231 -0.0924 -0.2159
  381MOL0     C51331   9.288   9.653   1.747  0.9417  0.2717  0.6188
  381MOL0     C51332   9.341   9.537   1.693  0.1177  0.3891  0.8619
  381MOL0     C51333   9.468   9.545   1.636  0.0798 -0.4815 -0.0027
  381MOL0     C51334   9.536   9.661   1.621  1.2783  0.0182  0.7601
  381MOL0     O51335   9.663   9.652   1.554  0.1524  0.0232 -0.4084
  381MOL0     C51336   9.752   9.761   1.568  0.4229  0.1877 -0.1492
  381MOL0     C51337   9.898   9.724   1.528 -0.9682 -0.2564 -1.4041
  381MOL0     C51338   9.998   9.819   1.591  0.1399  0.0223 -0.4965
  381MOL0     C51339  10.125   9.772   1.538  0.9035  0.4832 -0.7871
  381MOL0     C51340  10.242   9.818   1.632 -0.7276  0.0128 -0.1539
  381MOL0     C51341  10.381   9.807   1.570  0.2025 -0.4163  0.5019
  381MOL0     C51342  10.493   9.892   1.629 -0.6290 -0.8485  0.0430
  381MOL0     C51343  10.476  10.043   1.620  0.4313 -0.4300  1.0257
  381MOL0    Cl51344  10.619  10.122   1.698 -0.1968 -0.1348  0.0307
  381MOL0     C51345   9.474   9.780   1.666 -0.2062  0.0047 -0.2636
  381MOL0     C51346   9.353   9.769   1.733 -0.9104 -0.6605  0.3035
  381MOL0     O51347   9.066   9.850   1.747  0.5885 -0.5013  0.2271
  381MOL0     C51348   8.908   9.522   1.805 -0.5623 -0.1240 -0.6188
  381MOL0     C51349   8.781   9.462   1.802 -0.0134  0.2752 -1.1740
  381MOL0     N51350   8.284   9.624   2.201 -0.2449  0.4116  0.0691
  381MOL0     N51351   8.256   9.623   2.323  0.5637 -1.1888 -0.2954
  381MOL0     C51352   7.160   9.114   2.682  0.2539 -0.2212 -0.9308
  381MOL0     C51353   7.042   9.056   2.642  0.6607  0.4183 -0.1973
  381MOL0     C51354   6.718   8.878   2.393  0.6447  0.3873  0.1478
  381MOL0     C51355   6.606   8.971   2.394 -1.2612 -0.2111  0.0289
  381MOL0     C51356   6.476   8.929   2.406  0.0574 -0.0937 -0.1754
  381MOL0     C51357   6.453   8.789   2.415 -0.1520 -0.1820 -0.0624
  381MOL0     O51358   6.331   8.733   2.425 -0.7523  0.2230 -0.0625
  381MOL0     C51359   6.214   8.802   2.424  1.1063  0.2474 -1.2537
  381MOL0     C51360   6.187   8.867   2.564  0.0977 -0.2402  0.0149
  381MOL0     C51361   6.048   8.937   2.534 -0.0085 -0.2946 -0.0760
  381MOL0     C51362   5.999   9.043   2.639  0.4728 -0.8883  0.4522
  381MOL0     C51363   5.881   9.109   2.579  0.2556  0.2502  0.8801
  381MOL0     C51364   5.786   9.167   2.530  0.1934  0.9416 -0.2223
  381MOL0     C51365   6.563   8.700   2.409 -0.2933  0.1419  0.5878
  381MOL0     C51366   6.698   8.741   2.404  0.3710 -0.6317  0.0167
  381MOL0     C51367   6.814   8.641   2.388 -0.8364 -0.1028  0.4450
  381MOL0     H51368   7.172   8.794   2.463  0.3347  2.5171 -2.0136
  381MOL0     H51369   7.380   8.878   2.561 -0.7092  0.6056 -4.0289
  381MOL0     H51370   7.387   9.300   2.656  1.2602 -0.1333 -1.5278
  381MOL0     H51371   7.347   9.255   2.816  1.6334  2.3924  0.0866
  381MOL0     H51372   7.590   9.176   2.829 -2.2176  1.3295  2.7059
  381MOL0     H51373   7.565   9.342   2.845 -0.2341 -1.6699  1.9113
  381MOL0     H51374   7.593   9.342   2.582 -0.7826  1.2961  0.8466
  381MOL0     H51375   7.668   9.183   2.597  2.5528  0.4048  0.0381
  381MOL0     H51376   7.758   9.444   2.734 -0.1619  0.3272 -1.9387
  381MOL0     H51377   7.818   9.291   2.791 -0.7155 -0.6623 -1.1682
  381MOL0     H51378   7.915   9.242   2.569  0.3777  0.6721  1.5269
  381MOL0     H51379   7.850   9.396   2.504  1.4488  0.0015 -0.8958
  381MOL0     H51380   7.999   9.502   2.706  5.0761 -0.0042  1.1387
  381MOL0     H51381   8.080   9.348   2.683 -0.6946 -1.8901 -2.0858
  381MOL0     H51382   8.078   9.383   2.448 -1.7885  0.2013 -0.1896
  381MOL0     H51383   8.196   9.467   2.555 -0.2075 -2.7081  0.3734
  381MOL0     H51384   7.940   9.598   2.444  0.2272  0.4672 -2.8185
  381MOL0     H51385   8.052   9.676   2.540 -2.3156 -2.1675  1.7397
  381MOL0     H51386   7.958   9.614   2.184  0.1412 -1.4856 -0.8406
  381MOL0     H51387   8.077   9.688   1.946 -0.5606 -0.7054 -0.4455
  381MOL0     H51388   8.243   9.720   1.947 -1.0819  0.2612  0.6757
  381MOL0     H51389   8.100   9.449   1.918 -0.5908  0.2545 -1.5891
  381MOL0     H51390   8.149   9.539   1.776 -3.8543 -0.8246  0.8987
  381MOL0     H51391   8.315   9.364   1.815 -3.7322 -1.0755  0.9912
  381MOL0     H51392   8.335   9.405   1.983  2.8497  1.9875  0.4210
  381MOL0     H51393   8.453   9.597   1.950 -1.8867  2.0787 -1.1160
  381MOL0     H51394   8.396   9.622   1.785  2.3813  1.0597  0.0348
  381MOL0     H51395   8.603   9.763   1.768  2.1838  2.9221  2.1471
  381MOL0     H51396   8.801   9.844   1.752 -2.4622  0.2233  0.0767
  381MOL0     H51397   9.290   9.442   1.707  2.2978 -0.5375  3.4571
  381MOL0     H51398   9.506   9.453   1.592 -2.3002 -2.6474  2.0734
  381MOL0     H51399   9.722   9.851   1.515  1.8332  0.0572 -1.2110
  381MOL0     H51400   9.752   9.781   1.675  0.8549 -1.5941  0.2285
  381MOL0     H51401   9.920   9.620   1.554  1.2288  0.5032  0.0497
  381MOL0     H51402   9.913   9.728   1.420  0.9615  0.4458 -1.1486
  381MOL0     H51403   9.973   9.918   1.551 -0.9633 -0.2459 -0.4933
  381MOL0     H51404  10.004   9.835   1.699 -2.3078  1.4729 -0.4897
  381MOL0     H51405  10.141   9.789   1.431 -1.0237 -1.2773 -1.4239
  381MOL0     H51406  10.134   9.664   1.556  3.1375  0.8181  0.4935
  381MOL0     H51407  10.245   9.754   1.720  0.3086 -1.0683 -0.9527
  381MOL0     H51408  10.221   9.920   1.666  0.6025  0.0507  0.6153
  381MOL0     H51409  10.408   9.703   1.554  0.1968 -0.4488  0.7011
  381MOL0     H51410  10.360   9.844   1.469 -2.8297 -0.3750  1.0275
  381MOL0     H51411  10.589   9.885   1.576 -0.7843  1.8794 -0.7539
  381MOL0     H51412  10.514   9.863   1.733  0.1535  2.8537  1.0706
  381MOL0     H51413  10.471  10.078   1.517  2.1287  1.6580  1.5704
  381MOL0     H51414  10.390  10.079   1.676 -1.4830 -1.4012 -1.1514
  381MOL0     H51415   9.526   9.874   1.650  0.2765  0.0278  1.2956
  381MOL0     H51416   9.308   9.853   1.783  1.5500  1.1752 -0.3741
  381MOL0     H51417   8.992   9.452   1.810  1.0615  1.7170 -0.7896
  381MOL0     H51418   8.774   9.359   1.837 -2.6456  1.3463  1.9465
  381MOL0     H51419   7.143   9.213   2.724 -2.9885 -1.6157  1.4315
  381MOL0     H51420   6.948   9.103   2.667  1.1428  3.2827 -3.1160
  381MOL0     H51421   6.635   9.073   2.373  3.0985 -1.2984 -0.2361
  381MOL0     H51422   6.400   9.005   2.420  0.6967  0.7728 -1.2987
  381MOL0     H51423   6.128   8.737   2.402  1.9025 -2.1122  1.8744
  381MOL0     H51424   6.215   8.871   2.339  0.4264 -1.3584 -2.6310
  381MOL0     H51425   6.265   8.938   2.592  0.7702 -0.7276 -0.5936
  381MOL0     H51426   6.169   8.795   2.644 -0.4648  0.7051  0.7545
  381MOL0     H51427   5.969   8.862   2.522 -1.8911  1.8190 -1.6900
  381MOL0     H51428   6.052   8.984   2.435 -2.1504  1.0358  0.4019
  381MOL0     H51429   5.964   8.991   2.729 -0.5690 -2.9161 -1.0278
  381MOL0     H51430   6.084   9.106   2.663  0.6026 -1.7047  2.3109
  381MOL0     H51431   5.699   9.201   2.478  1.4289  1.1154 -2.2443
  381MOL0     H51432   6.544   8.593   2.416  0.2553  0.0648  0.9512
  381MOL0     H51433   6.851   8.624   2.286  1.1404  2.8299  0.5440
  381MOL0     H51434   6.898   8.653   2.458  0.4011 -1.8911 -0.6312
  381MOL0     H51435   6.785   8.538   2.413  1.6596 -0.5755  1.8298
  382MOL0     O51436   1.768   1.958   0.782 -0.3825  0.7675 -0.6705
  382MOL0     C51437   1.716   2.028   0.861  0.4430  0.1279  0.7563
  382MOL0     O51438   1.778   2.121   0.935 -0.4815 -0.0629 -0.4882
  382MOL0     C51439   1.899   2.166   0.893 -0.2043  0.1385 -0.4686
  382MOL0     C51440   1.910   2.290   0.831 -0.6740 -0.6178  0.2664
  382MOL0     C51441   2.033   2.343   0.797 -0.5791 -0.1477 -0.2989
  382MOL0     C51442   2.149   2.275   0.827  0.4757  0.6966 -0.7711
  382MOL0     O51443   2.263   2.348   0.816 -0.1390 -0.5424 -0.9965
  382MOL0     C51444   2.379   2.279   0.781 -0.8062  0.5070 -0.4579
  382MOL0     C51445   2.483   2.334   0.871  0.3350  0.2809  0.1707
  382MOL0     C51446   2.448   2.337   1.021 -0.1722  0.3176  0.0625
  382MOL0     C51447   2.573   2.394   1.095  0.0918  0.0290 -0.7501
  382MOL0     C51448   2.568   2.389   1.243  0.2295  0.1249 -1.1233
  382MOL0     C51449   2.707   2.420   1.301  0.1342  0.5557  0.2475
  382MOL0     C51450   2.711   2.396   1.453  1.0570  0.0524  0.1509
  382MOL0     C51451   2.858   2.400   1.490  0.4182  0.4853  0.2373
  382MOL0     N51452   2.867   2.368   1.635 -0.2619  0.2739  0.7100
  382MOL0     C51453   2.885   2.245   1.690  0.0178 -0.2323 -0.2046
  382MOL0     C51454   2.902   2.262   1.828  1.1432  0.3470  0.3093
  382MOL0     C51455   2.938   2.165   1.933 -0.4351  0.2872  0.3951
  382MOL0     C51456   3.036   2.243   2.035 -0.8455  0.5662 -0.7563
  382MOL0     C51457   3.091   2.151   2.151  0.8168 -0.2009  0.1539
  382MOL0     C51458   2.976   2.091   2.234 -0.2504 -0.1291  0.1262
  382MOL0     O51459   2.881   2.196   2.273  0.3706 -0.1937  0.2740
  382MOL0     C51460   2.765   2.154   2.337 -0.1054  0.4889 -0.8595
  382MOL0     C51461   2.654   2.236   2.328  0.3337 -0.1557 -0.3455
  382MOL0     C51462   2.537   2.207   2.398 -0.9868  0.8614 -0.4920
  382MOL0     C51463   2.531   2.088   2.483 -0.2486  0.2398 -0.0558
  382MOL0     C51464   2.408   2.054   2.556 -0.6187 -0.4318 -0.1806
  382MOL0     O51465   2.323   2.154   2.592  0.0415  0.0761 -0.2281
  382MOL0     C51466   2.186   2.134   2.595  0.4040 -0.3197 -0.7654
  382MOL0     C51467   2.120   2.012   2.580  0.2544 -0.4480  0.2473
  382MOL0     C51468   1.983   2.005   2.578 -0.3904  0.9148 -0.3420
  382MOL0     C51469   1.904   2.117   2.597  0.3858  0.8639 -0.6645
  382MOL0     O51470   1.769   2.106   2.603 -0.2068 -0.2321  0.3744
  382MOL0     C51471   1.688   2.220   2.560 -0.8008 -0.5956  0.1225
  382MOL0     C51472   1.547   2.176   2.519 -0.0896 -0.4253 -0.2410
  382MOL0     C51473   1.532   2.135   2.380 -0.0781 -0.6681  0.3264
  382MOL0     C51474   1.612   2.011   2.340  0.2877  0.3663  0.6469
  382MOL0     C51475   1.597   1.951   2.196 -0.5994  0.1378  0.3300
  382MOL0     C51476   1.652   2.045   2.075  0.7439 -0.5446 -0.0710
  382MOL0     C51477   1.619   2.020   1.930  0.3329  0.1407  0.1272
  382MOL0     C51478   1.679   1.889   1.879  0.3276 -0.8957  0.2666
  382MOL0    Cl51479   1.845   1.920   1.831 -0.3075 -0.0755  0.2916
  382MOL0     C51480   1.971   2.236   2.626  0.0505  0.6275 -0.6791
  382MOL0     C51481   2.106   2.247   2.625  0.2663 -0.0298  0.0612
  382MOL0     O51482   2.405   1.938   2.599 -0.5603 -0.6275  0.7389
  382MOL0     C51483   2.644   1.999   2.478  0.3914 -0.4663 -0.2493
  382MOL0     C51484   2.757   2.034   2.408  0.0535  0.1345 -0.5104
  382MOL0     N51485   2.876   2.402   1.846  0.0817 -0.0218  0.1350
  382MOL0     N51486   2.864   2.466   1.731  0.1447 -0.3668  0.7502
  382MOL0     C51487   2.136   2.148   0.884 -0.0535  0.1593  0.0091
  382MOL0     C51488   2.018   2.097   0.921  0.4282  0.1423  0.6341
  382MOL0     C51489   1.572   2.017   0.868 -0.7072 -0.2598 -0.5649
  382MOL0     C51490   1.501   1.914   0.802 -0.2959  0.1991  0.5732
  382MOL0     C51491   1.364   1.900   0.801 -0.1250 -0.8760  0.2845
  382MOL0     C51492   1.282   1.997   0.853 -0.6004 -0.6303 -0.3449
  382MOL0     O51493   1.142   2.006   0.851 -0.4986  0.4016  0.2575
  382MOL0     C51494   1.058   1.889   0.875 -0.8797  0.3655  0.3649
  382MOL0     C51495   0.905   1.922   0.855 -0.8029  0.0304  0.0657
  382MOL0     C51496   0.847   2.038   0.949 -0.4150 -0.1876 -0.5989
  382MOL0     C51497   0.694   2.024   0.976  0.5180 -0.2035  0.5821
  382MOL0     C51498   0.617   1.993   0.857 -0.7079 -0.0259 -0.2238
  382MOL0     C51499   0.567   1.965   0.751  0.3810  0.5140 -0.4283
  382MOL0     C51500   1.348   2.112   0.910  0.2038  0.4878  0.1851
  382MOL0     C51501   1.487   2.116   0.933  0.5482  0.2760 -0.8393
  382MOL0     C51502   1.522   2.229   1.024 -0.1070 -0.0655  0.3648
  382MOL0     H51503   1.827   2.358   0.817  2.5500  3.6247 -0.5390
  382MOL0     H51504   2.036   2.438   0.744  1.1712 -1.0905 -2.0139
  382MOL0     H51505   2.373   2.170   0.787  2.0994  0.2751 -0.3765
  382MOL0     H51506   2.417   2.301   0.680  0.1173 -1.2543 -0.5388
  382MOL0     H51507   2.507   2.435   0.836  3.0609 -0.7397 -1.1892
  382MOL0     H51508   2.584   2.294   0.856  1.8318  4.2417 -1.8943
  382MOL0     H51509   2.419   2.239   1.060  0.4945  0.8142  1.9364
  382MOL0     H51510   2.360   2.398   1.043 -0.6508 -0.4788  0.4116
  382MOL0     H51511   2.656   2.335   1.056 -0.1803  1.4715 -3.8473
  382MOL0     H51512   2.594   2.498   1.066  2.3256 -0.1339  0.0848
  382MOL0     H51513   2.497   2.459   1.288  0.5303 -0.5096  0.4177
  382MOL0     H51514   2.523   2.293   1.272 -1.1964  0.2283 -2.8374
  382MOL0     H51515   2.775   2.346   1.259  2.0272  2.6235 -0.5461
  382MOL0     H51516   2.745   2.518   1.270  1.7799 -1.3686 -4.6150
  382MOL0     H51517   2.672   2.295   1.470 -1.8446  1.4435  2.6151
  382MOL0     H51518   2.656   2.466   1.516 -1.3704 -0.2213 -1.5652
  382MOL0     H51519   2.912   2.320   1.438  2.8638  0.7499  2.1371
  382MOL0     H51520   2.900   2.498   1.466  0.6146  0.7528  1.5652
  382MOL0     H51521   2.894   2.152   1.635 -0.2727 -0.0646 -0.5448
  382MOL0     H51522   2.849   2.124   1.981 -0.6451  1.3710  0.9868
  382MOL0     H51523   2.996   2.084   1.888  0.0683 -0.3647  2.1461
  382MOL0     H51524   3.124   2.262   1.972 -0.2313 -0.8515 -0.3637
  382MOL0     H51525   2.982   2.333   2.066 -1.3350  0.0086  0.0405
  382MOL0     H51526   3.162   2.208   2.211 -1.3945  2.2498  0.6090
  382MOL0     H51527   3.138   2.061   2.110 -2.7878 -1.9924 -0.4991
  382MOL0     H51528   3.020   2.053   2.326 -1.3672 -0.2547  0.6257
  382MOL0     H51529   2.928   2.012   2.176  0.5714 -1.0603  0.6858
  382MOL0     H51530   2.659   2.323   2.262 -2.9948 -0.9689 -1.9193
  382MOL0     H51531   2.443   2.260   2.384 -0.9095  1.8208  1.9829
  382MOL0     H51532   2.172   1.920   2.554  0.1646 -0.0865 -1.3336
  382MOL0     H51533   1.927   1.914   2.557 -0.2523  1.3365 -2.7872
  382MOL0     H51534   1.681   2.282   2.650  3.0881  1.1182 -0.5512
  382MOL0     H51535   1.736   2.284   2.485  1.2271 -1.7126  0.3978
  382MOL0     H51536   1.532   2.090   2.586  0.9386 -1.2799 -1.0672
  382MOL0     H51537   1.474   2.255   2.536 -0.0118 -0.4215  0.0819
  382MOL0     H51538   1.426   2.129   2.356  0.3673 -2.0148 -1.5210
  382MOL0     H51539   1.571   2.211   2.312 -1.2024 -0.5322 -0.1795
  382MOL0     H51540   1.590   1.930   2.411 -1.0477  0.9981  0.9780
  382MOL0     H51541   1.719   2.032   2.348  0.5998  0.1945 -2.0368
  382MOL0     H51542   1.489   1.936   2.185 -0.6351  1.6522 -2.4634
  382MOL0     H51543   1.658   1.860   2.188  1.7960  1.7688 -1.3283
  382MOL0     H51544   1.617   2.148   2.091 -0.2540 -1.1700  2.2288
  382MOL0     H51545   1.760   2.055   2.086  0.7541 -1.9782  1.6589
  382MOL0     H51546   1.639   2.109   1.870  1.1280  2.3041  3.3414
  382MOL0     H51547   1.511   2.006   1.917  0.5630 -1.4704 -0.2726
  382MOL0     H51548   1.679   1.811   1.955 -0.8620  0.1910  1.4411
  382MOL0     H51549   1.628   1.856   1.788 -1.1810  1.8687 -0.0226
  382MOL0     H51550   1.911   2.319   2.664 -0.7603 -0.3478  0.2722
  382MOL0     H51551   2.151   2.343   2.647  2.1194 -0.4776 -1.5026
  382MOL0     H51552   2.639   1.908   2.535 -0.6848 -1.0284 -1.1942
  382MOL0     H51553   2.841   1.967   2.422  1.3846  1.8944  0.3593
  382MOL0     H51554   2.220   2.081   0.901 -1.5443 -1.4344  1.4633
  382MOL0     H51555   2.026   2.005   0.979  2.8605 -0.7514 -0.9583
  382MOL0     H51556   1.574   1.846   0.759  1.8715  2.6186  0.0912
  382MOL0     H51557   1.319   1.826   0.736 -3.6629  1.3417 -0.0950
  382MOL0     H51558   1.083   1.849   0.973  0.1854 -0.1970 -0.1238
  382MOL0     H51559   1.090   1.810   0.807 -0.7027 -0.1487  1.0364
  382MOL0     H51560   0.852   1.831   0.883  1.1369 -1.1079  0.1648
  382MOL0     H51561   0.880   1.943   0.751  2.0804 -0.7475 -0.8625
  382MOL0     H51562   0.860   2.139   0.908 -0.4708 -0.3800 -1.0998
  382MOL0     H51563   0.905   2.038   1.042 -1.9551  0.7508  0.4138
  382MOL0     H51564   0.677   1.941   1.045 -0.9531 -1.2365 -0.9664
  382MOL0     H51565   0.664   2.122   1.013  1.7729  0.2150  0.5447
  382MOL0     H51566   0.526   1.937   0.657  4.1883 -2.3247 -1.5347
  382MOL0     H51567   1.279   2.182   0.955  1.4076  0.2003  2.6590
  382MOL0     H51568   1.614   2.198   1.076  0.8910 -2.5932 -2.5568
  382MOL0     H51569   1.535   2.323   0.970  0.3229 -0.9225 -1.0797
  382MOL0     H51570   1.444   2.239   1.100 -1.5449  0.3257 -1.1145
  383MOL0     O51571   5.010   0.869   3.429  0.2252  0.0606  0.3960
  383MOL0     C51572   4.945   0.800   3.351  0.2411  0.9307 -0.3023
  383MOL0     O51573   4.989   0.738   3.238 -0.5859  0.1943 -0.0117
  383MOL0     C51574   5.124   0.728   3.209  0.3575  0.1749  0.2955
  383MOL0     C51575   5.169   0.770   3.080 -0.3223 -0.8793 -0.2500
  383MOL0     C51576   5.303   0.750   3.043  0.4304  0.2389  0.2086
  383MOL0     C51577   5.397   0.692   3.123  0.5942  0.9414 -0.5948
  383MOL0     O51578   5.526   0.665   3.068  0.1007  0.7043 -0.0212
  383MOL0     C51579   5.638   0.689   3.154  0.0027  0.2511 -0.0090
  383MOL0     C51580   5.762   0.724   3.077 -0.0772 -0.9584  0.1492
  383MOL0     C51581   5.784   0.871   3.038 -1.2100 -0.2367 -1.6098
  383MOL0     C51582   5.903   0.893   2.940 -0.5633 -0.1651 -0.3199
  383MOL0     C51583   5.894   1.018   2.853  0.0500 -0.5422 -0.2626
  383MOL0     C51584   5.982   1.017   2.733  0.5322 -0.2508 -0.1569
  383MOL0     C51585   5.957   1.126   2.628 -0.1097  0.2331 -0.2136
  383MOL0     C51586   6.016   1.254   2.664  0.2347  0.5466 -0.1856
  383MOL0     N51587   6.160   1.247   2.662 -0.9715 -0.1863  0.2687
  383MOL0     C51588   6.239   1.295   2.557  0.3348 -0.2476  0.6207
  383MOL0     C51589   6.361   1.325   2.619  0.8510  0.0750  0.0586
  383MOL0     C51590   6.493   1.379   2.569  0.2575 -0.3250 -0.2510
  383MOL0     C51591   6.575   1.251   2.550 -0.3387  0.1258  0.0774
  383MOL0     C51592   6.717   1.285   2.498 -0.6702 -0.6980 -0.1705
  383MOL0     C51593   6.790   1.387   2.589 -0.5245 -0.1831  0.2349
  383MOL0     O51594   6.934   1.382   2.586 -0.2138  0.3617  1.0375
  383MOL0     C51595   7.010   1.452   2.674  0.5825  0.2674  0.5992
  383MOL0     C51596   7.153   1.445   2.669  0.7987  0.7663  0.1296
  383MOL0     C51597   7.244   1.494   2.769 -0.7311 -0.6794  0.3627
  383MOL0     C51598   7.187   1.572   2.872  0.7506 -0.3208  0.8880
  383MOL0     C51599   7.279   1.641   2.965 -0.7477  0.5031  0.7495
  383MOL0     O51600   7.405   1.649   2.920 -0.6039 -0.0793 -0.3816
  383MOL0     C51601   7.502   1.733   2.972  0.3128 -0.5923 -0.2879
  383MOL0     C51602   7.482   1.876   2.997  0.4420  0.5223 -0.3260
  383MOL0     C51603   7.585   1.965   3.017 -0.5527  0.2743 -0.6444
  383MOL0     C51604   7.716   1.903   3.038  0.0261  0.1568 -1.0742
  383MOL0     O51605   7.829   1.974   3.070 -0.9634 -0.5835 -0.1601
  383MOL0     C51606   7.813   2.103   3.136 -0.6635 -0.8198  0.0563
  383MOL0     C51607   7.850   2.217   3.047  0.1015  0.1749  0.1246
  383MOL0     C51608   7.982   2.192   2.984  0.1508  0.0515  0.3860
  383MOL0     C51609   8.038   2.316   2.925 -0.4962  0.2866 -0.6698
  383MOL0     C51610   8.193   2.313   2.899 -0.1193 -0.1845  0.2664
  383MOL0     C51611   8.221   2.452   2.837 -1.0135 -0.2007  0.3604
  383MOL0     C51612   8.369   2.459   2.802 -0.4512 -0.1872 -0.1877
  383MOL0     C51613   8.395   2.587   2.722  0.1734 -0.1059  0.1843
  383MOL0    Cl51614   8.567   2.574   2.662  0.3067  0.2680  0.1393
  383MOL0     C51615   7.733   1.757   3.040 -0.0181 -0.3224 -0.5593
  383MOL0     C51616   7.629   1.671   3.006  0.0379 -1.1402  0.1438
  383MOL0     O51617   7.234   1.693   3.071  0.7757  0.4091  0.6803
  383MOL0     C51618   7.041   1.580   2.882 -0.1533 -1.1181  0.1153
  383MOL0     C51619   6.960   1.521   2.787 -0.1683  0.1642 -0.4550
  383MOL0     N51620   6.351   1.295   2.749  1.1018 -0.3707  0.4601
  383MOL0     N51621   6.238   1.238   2.776  1.3591 -0.0706 -0.3703
  383MOL0     C51622   5.354   0.654   3.255  0.4296  0.0920  0.5025
  383MOL0     C51623   5.218   0.666   3.290 -0.5619  0.4434 -0.6297
  383MOL0     C51624   4.806   0.782   3.383  0.2847 -0.3232 -1.0894
  383MOL0     C51625   4.725   0.797   3.269  0.0199 -0.0507  0.2914
  383MOL0     C51626   4.591   0.781   3.288  0.0931  0.3156  0.1668
  383MOL0     C51627   4.529   0.736   3.413  0.0212 -0.5062  0.2544
  383MOL0     O51628   4.391   0.722   3.430 -0.1895 -0.3182 -0.0254
  383MOL0     C51629   4.294   0.768   3.332  0.0123 -0.4728  0.4652
  383MOL0     C51630   4.149   0.708   3.357  0.0864  0.9092 -0.6784
  383MOL0     C51631   4.162   0.557   3.338  0.8744  0.5978 -0.0612
  383MOL0     C51632   4.037   0.479   3.385 -0.4729 -0.1715  0.7009
  383MOL0     C51633   3.925   0.493   3.294  0.3764  0.3371  0.4149
  383MOL0     C51634   3.830   0.494   3.215 -0.8768 -0.9664  0.4449
  383MOL0     C51635   4.617   0.721   3.518 -0.5231 -0.0546 -0.4364
  383MOL0     C51636   4.757   0.755   3.514  0.3588  0.2841  0.3467
  383MOL0     C51637   4.841   0.732   3.644  0.1195  1.2293 -0.7139
  383MOL0     H51638   5.096   0.823   3.019 -0.1224 -0.4307 -0.1047
  383MOL0     H51639   5.321   0.793   2.945 -2.7579 -0.2204 -0.6923
  383MOL0     H51640   5.619   0.763   3.231 -0.6254 -0.6776  0.7544
  383MOL0     H51641   5.670   0.599   3.208  1.0417  0.0211 -0.9646
  383MOL0     H51642   5.764   0.661   2.988 -0.4453 -0.0488 -0.5122
  383MOL0     H51643   5.847   0.687   3.135 -0.0624 -0.1596  0.6630
  383MOL0     H51644   5.804   0.930   3.128  2.0924 -1.1976 -1.5762
  383MOL0     H51645   5.687   0.893   2.991 -1.7034  0.4792 -0.2857
  383MOL0     H51646   5.998   0.889   2.994 -1.1798 -0.5502  0.7806
  383MOL0     H51647   5.906   0.807   2.874  1.3163 -0.6778  0.3828
  383MOL0     H51648   5.795   1.042   2.813  1.2208  3.9599 -1.0116
  383MOL0     H51649   5.927   1.096   2.922 -0.4393  0.0681 -0.7105
  383MOL0     H51650   6.088   1.004   2.757  0.7369 -0.8832 -1.3628
  383MOL0     H51651   5.943   0.923   2.692 -0.9980  1.1460 -2.0732
  383MOL0     H51652   5.849   1.135   2.612 -0.4125 -3.3999 -1.1037
  383MOL0     H51653   5.989   1.089   2.530 -0.6679 -1.0543  0.0641
  383MOL0     H51654   5.983   1.318   2.582  1.8103  0.8454 -0.6097
  383MOL0     H51655   5.973   1.278   2.761 -0.3260 -0.3633 -0.1939
  383MOL0     H51656   6.211   1.326   2.457  3.0560  3.0358  0.6993
  383MOL0     H51657   6.480   1.431   2.474  0.2188  0.1710  0.0207
  383MOL0     H51658   6.537   1.457   2.632  0.2344 -2.1167  2.1062
  383MOL0     H51659   6.577   1.196   2.645 -3.4586 -0.2851 -0.0012
  383MOL0     H51660   6.531   1.180   2.480 -0.1652 -2.7058  2.6205
  383MOL0     H51661   6.704   1.332   2.399 -0.9501 -1.3074 -0.4260
  383MOL0     H51662   6.775   1.193   2.492  2.1137  0.9279  0.2058
  383MOL0     H51663   6.762   1.356   2.690 -1.6229 -0.3001 -0.0938
  383MOL0     H51664   6.751   1.483   2.553  0.6150 -0.2920 -1.4125
  383MOL0     H51665   7.183   1.386   2.583 -0.6647  1.3724 -0.8237
  383MOL0     H51666   7.352   1.485   2.761 -0.7372  0.4549 -1.6483
  383MOL0     H51667   7.382   1.914   2.974  0.6539 -0.0510 -2.3980
  383MOL0     H51668   7.561   2.071   3.020 -0.6105  0.3043 -1.7952
  383MOL0     H51669   7.709   2.117   3.168 -0.6828 -0.2050 -0.2488
  383MOL0     H51670   7.885   2.113   3.217  0.0592  1.3806 -0.7640
  383MOL0     H51671   7.776   2.217   2.967  0.9589 -2.1505 -0.7740
  383MOL0     H51672   7.857   2.308   3.107  1.5307 -0.4040  0.9031
  383MOL0     H51673   8.046   2.154   3.064  2.2493  0.3364 -1.0805
  383MOL0     H51674   7.967   2.128   2.896 -1.1713  1.7632 -0.7182
  383MOL0     H51675   8.031   2.399   2.996  0.0406  0.1105 -0.4070
  383MOL0     H51676   7.982   2.347   2.836  0.8751  2.3112 -0.9196
  383MOL0     H51677   8.219   2.234   2.827  2.0345 -0.1469  0.9202
  383MOL0     H51678   8.248   2.305   2.993 -2.1500  0.2789  1.5305
  383MOL0     H51679   8.165   2.461   2.743 -0.9792 -4.3140 -0.2453
  383MOL0     H51680   8.191   2.535   2.902 -1.2657  1.5802 -1.9031
  383MOL0     H51681   8.390   2.367   2.746  0.8286 -0.0493  0.0224
  383MOL0     H51682   8.432   2.457   2.892 -3.5813 -3.5485  2.1820
  383MOL0     H51683   8.315   2.578   2.648 -1.7786 -1.0211  2.2512
  383MOL0     H51684   8.382   2.684   2.771  1.3057  0.9599 -1.5183
  383MOL0     H51685   7.829   1.716   3.072 -0.9851 -0.5768  2.3784
  383MOL0     H51686   7.644   1.564   2.993 -0.5718 -1.2201  0.0565
  383MOL0     H51687   7.000   1.634   2.966 -2.8594  0.5377 -2.0888
  383MOL0     H51688   6.853   1.531   2.803 -0.4582 -2.8307  0.2614
  383MOL0     H51689   5.429   0.608   3.318  1.9515 -0.5478 -1.6466
  383MOL0     H51690   5.187   0.628   3.387 -0.7421  4.4964  1.0871
  383MOL0     H51691   4.751   0.804   3.164 -2.0528 -2.4976 -0.5137
  383MOL0     H51692   4.533   0.806   3.200 -0.3839  1.6309  0.8303
  383MOL0     H51693   4.337   0.737   3.237  1.4110  1.4981  0.4137
  383MOL0     H51694   4.283   0.877   3.342  0.3982 -0.5602  2.3229
  383MOL0     H51695   4.064   0.749   3.302 -2.3219 -1.6919  0.8021
  383MOL0     H51696   4.111   0.744   3.454 -1.1289  0.5549 -1.0080
  383MOL0     H51697   4.246   0.525   3.400 -0.0883 -0.2098  0.8674
  383MOL0     H51698   4.185   0.535   3.234 -3.9528  0.4277 -1.3253
  383MOL0     H51699   4.059   0.374   3.404 -0.4734  0.3806  4.7168
  383MOL0     H51700   4.009   0.523   3.482 -0.9372  0.3677  0.3333
  383MOL0     H51701   3.751   0.492   3.143 -1.0270 -1.6504  0.6185
  383MOL0     H51702   4.575   0.693   3.615 -0.2612  2.7216  0.5772
  383MOL0     H51703   4.846   0.824   3.703  0.5705  2.2280 -2.2421
  383MOL0     H51704   4.798   0.660   3.715 -0.8214 -0.8661 -3.2181
  383MOL0     H51705   4.944   0.696   3.637 -0.4288 -0.6410  0.1634
  384MOL0     O51706   6.475   8.289   6.173  0.3780 -0.4830 -0.5398
  384MOL0     C51707   6.443   8.282   6.291  1.0208 -0.3603  0.0682
  384MOL0     O51708   6.507   8.210   6.388  0.0035  0.7716 -0.2224
  384MOL0     C51709   6.616   8.141   6.351 -0.3653 -0.2856 -0.1149
  384MOL0     C51710   6.740   8.189   6.381  0.2151 -0.7928  0.4042
  384MOL0     C51711   6.851   8.109   6.342  0.0193 -0.2890  0.7655
  384MOL0     C51712   6.832   7.973   6.305  0.5928  0.5673  0.1480
  384MOL0     O51713   6.940   7.887   6.295  0.4565 -0.1918  0.4800
  384MOL0     C51714   7.031   7.891   6.406 -0.6692  0.3242 -0.1390
  384MOL0     C51715   7.141   7.785   6.382  0.7523 -0.8247 -0.5889
  384MOL0     C51716   7.254   7.798   6.491  0.6726 -0.0051 -0.4264
  384MOL0     C51717   7.388   7.729   6.442 -0.1653 -0.7059  0.5829
  384MOL0     C51718   7.490   7.718   6.559 -0.8135 -0.2654  0.5250
  384MOL0     C51719   7.621   7.664   6.509 -0.4863  0.4343  0.3281
  384MOL0     C51720   7.704   7.761   6.438 -0.3291 -0.1326  0.3499
  384MOL0     C51721   7.825   7.701   6.365 -0.0103  0.0342 -0.2523
  384MOL0     N51722   7.929   7.654   6.461  0.1859 -0.5436 -0.0547
  384MOL0     C51723   8.010   7.726   6.538  0.3064 -0.1016 -0.8818
  384MOL0     C51724   8.076   7.635   6.609  0.3028  0.8682 -0.8358
  384MOL0     C51725   8.163   7.676   6.722  0.3304  0.4814 -0.1814
  384MOL0     C51726   8.286   7.756   6.670 -0.7744  0.6890  0.3990
  384MOL0     C51727   8.401   7.664   6.628 -0.2328  0.3402  0.2894
  384MOL0     C51728   8.460   7.591   6.747 -0.2952  1.1877 -0.3549
  384MOL0     O51729   8.575   7.512   6.712  1.1225  0.0139 -0.5963
  384MOL0     C51730   8.694   7.576   6.689 -0.0858  1.0320  0.0121
  384MOL0     C51731   8.735   7.702   6.724 -0.9477 -0.4299  0.5966
  384MOL0     C51732   8.841   7.768   6.666  0.3479 -0.3962 -0.0912
  384MOL0     C51733   8.923   7.699   6.578  0.2421  0.4780 -1.4109
  384MOL0     C51734   9.039   7.757   6.516  0.3483 -0.4073 -0.4094
  384MOL0     O51735   9.065   7.892   6.526  0.3184  0.2885 -0.3589
  384MOL0     C51736   9.182   7.944   6.471  0.0105  0.2111  0.3251
  384MOL0     C51737   9.207   7.959   6.332 -0.5474  0.1363 -0.4288
  384MOL0     C51738   9.322   8.020   6.284  0.2946  0.0363 -1.0916
  384MOL0     C51739   9.411   8.084   6.379 -0.5543 -0.5706 -0.1081
  384MOL0     O51740   9.533   8.151   6.348  0.6169 -0.9402  0.5619
  384MOL0     C51741   9.562   8.195   6.214 -0.5435  0.0455 -0.6886
  384MOL0     C51742   9.694   8.263   6.214  0.8811 -0.6122  0.5309
  384MOL0     C51743   9.814   8.188   6.167 -0.5212 -0.1359  0.5445
  384MOL0     C51744   9.928   8.288   6.163 -0.8726 -0.1397  0.5833
  384MOL0     C51745  10.056   8.243   6.092  0.2859  0.2959 -0.4709
  384MOL0     C51746  10.143   8.345   6.025  0.6626 -0.8119 -1.4111
  384MOL0     C51747  10.259   8.294   5.947  0.0416 -0.0302  0.0507
  384MOL0     C51748  10.343   8.400   5.881 -0.2791 -0.7298 -0.4423
  384MOL0    Cl51749  10.249   8.505   5.774  0.4250  0.0436 -0.4036
  384MOL0     C51750   9.380   8.076   6.514  0.0398 -1.1378 -0.1872
  384MOL0     C51751   9.266   8.006   6.550 -0.4595 -0.1511 -0.4290
  384MOL0     O51752   9.118   7.675   6.468 -0.5484 -0.9783  0.0821
  384MOL0     C51753   8.884   7.561   6.553 -0.6637  0.8270 -0.3663
  384MOL0     C51754   8.773   7.504   6.609  0.2006  0.2415  0.5485
  384MOL0     N51755   8.048   7.507   6.570  0.8612 -0.2580 -0.3713
  384MOL0     N51756   7.957   7.517   6.482  0.3815 -0.9558  0.2822
  384MOL0     C51757   6.700   7.927   6.285 -0.6516 -0.5223  0.3492
  384MOL0     C51758   6.599   8.011   6.302 -0.1946 -0.7225  0.1394
  384MOL0     C51759   6.302   8.339   6.325 -1.1495 -0.3896  0.5881
  384MOL0     C51760   6.253   8.304   6.449  0.3894  0.3462 -0.3209
  384MOL0     C51761   6.139   8.351   6.505 -0.3654  0.1652  0.1209
  384MOL0     C51762   6.055   8.439   6.437  0.0602  0.9490 -0.7758
  384MOL0     O51763   5.943   8.501   6.484 -0.7726 -0.3817  0.6115
  384MOL0     C51764   5.888   8.472   6.609  0.3033  0.4535 -0.3886
  384MOL0     C51765   5.751   8.537   6.627  0.9854 -0.5992  0.3692
  384MOL0     C51766   5.649   8.497   6.519 -1.0283  0.4564 -0.2948
  384MOL0     C51767   5.519   8.581   6.525 -0.6489 -0.5791 -0.9035
  384MOL0     C51768   5.415   8.526   6.435 -0.3401  1.0549  0.1925
  384MOL0     C51769   5.329   8.493   6.361  0.2017 -0.1819  0.3148
  384MOL0     C51770   6.105   8.485   6.309 -0.0705  0.2530  0.0838
  384MOL0     C51771   6.229   8.439   6.260 -0.0307  0.3959  0.1612
  384MOL0     C51772   6.275   8.495   6.129 -0.1802  0.6714  0.3258
  384MOL0     H51773   6.741   8.287   6.429  0.1139 -1.1343  1.1190
  384MOL0     H51774   6.948   8.158   6.344 -0.4551  0.9801 -1.8997
  384MOL0     H51775   7.085   7.986   6.398  0.5048 -0.4509 -1.9595
  384MOL0     H51776   6.982   7.888   6.504  2.3870  3.1507  1.6607
  384MOL0     H51777   7.189   7.794   6.284  0.2459  0.0283 -0.7650
  384MOL0     H51778   7.101   7.684   6.396  0.2104 -0.8603 -2.1387
  384MOL0     H51779   7.237   7.748   6.587  1.8796 -2.9359 -1.6089
  384MOL0     H51780   7.272   7.904   6.512 -0.9318  0.1157  0.5140
  384MOL0     H51781   7.356   7.627   6.419 -0.1887 -0.8726  1.3293
  384MOL0     H51782   7.437   7.784   6.361  0.9659 -0.8136  1.1723
  384MOL0     H51783   7.500   7.817   6.602 -0.3139  1.1766 -2.6051
  384MOL0     H51784   7.450   7.658   6.641 -2.4823  3.1631  2.3927
  384MOL0     H51785   7.687   7.639   6.593  0.1411  3.1870  0.7642
  384MOL0     H51786   7.610   7.577   6.444 -1.7834  0.1671  0.8630
  384MOL0     H51787   7.747   7.837   6.504 -3.4218  1.4956  0.7364
  384MOL0     H51788   7.651   7.809   6.355  2.7490  0.4155 -1.4212
  384MOL0     H51789   7.799   7.613   6.306  0.5656 -0.0592 -0.3696
  384MOL0     H51790   7.864   7.765   6.285  2.6661 -1.5730 -0.3435
  384MOL0     H51791   8.014   7.834   6.547 -3.0929  0.1076 -0.7246
  384MOL0     H51792   8.103   7.745   6.782 -1.4393  0.1265 -1.4439
  384MOL0     H51793   8.183   7.592   6.788 -0.4043  0.4524  0.0197
  384MOL0     H51794   8.256   7.807   6.578 -1.2267  1.9686  1.2279
  384MOL0     H51795   8.317   7.836   6.737  0.5933 -0.7584  1.5709
  384MOL0     H51796   8.467   7.730   6.571 -1.5231  2.0398  0.6956
  384MOL0     H51797   8.365   7.598   6.549  0.6064  1.5863 -1.1771
  384MOL0     H51798   8.376   7.534   6.789  0.1476  0.2072 -0.7768
  384MOL0     H51799   8.491   7.663   6.824  1.8675 -0.0265 -0.0251
  384MOL0     H51800   8.677   7.764   6.792  0.9910 -1.1467  3.0231
  384MOL0     H51801   8.852   7.872   6.693  0.3139  0.0978 -1.8696
  384MOL0     H51802   9.148   7.891   6.272 -1.4852 -1.7779  2.4122
  384MOL0     H51803   9.341   8.021   6.177  1.1576 -4.2807 -1.1399
  384MOL0     H51804   9.560   8.106   6.151  1.4178  0.2810 -1.1365
  384MOL0     H51805   9.487   8.265   6.174  1.5355  0.5901 -4.0364
  384MOL0     H51806   9.693   8.348   6.145  3.1167 -2.6185 -2.2277
  384MOL0     H51807   9.711   8.308   6.312  1.2550 -3.3404  1.7915
  384MOL0     H51808   9.828   8.102   6.233 -2.0677  0.0850  1.2159
  384MOL0     H51809   9.781   8.156   6.068  2.1204 -1.5590  0.0267
  384MOL0     H51810   9.961   8.329   6.259  1.7639  0.2774 -0.4100
  384MOL0     H51811   9.900   8.378   6.108  2.1024  0.0530 -0.8458
  384MOL0     H51812  10.016   8.188   6.007 -0.8511  1.3479 -0.6417
  384MOL0     H51813  10.128   8.187   6.153 -0.6226 -0.6054 -0.2183
  384MOL0     H51814  10.081   8.406   5.959 -2.4664 -0.2370  1.7549
  384MOL0     H51815  10.179   8.412   6.104 -0.7838 -1.4536 -0.1606
  384MOL0     H51816  10.218   8.223   5.874 -2.4837  0.7781  0.5953
  384MOL0     H51817  10.333   8.240   6.007  0.5515 -0.1122 -0.6411
  384MOL0     H51818  10.397   8.463   5.952 -0.5009  1.6945 -2.2662
  384MOL0     H51819  10.412   8.344   5.817  0.3099 -0.0194 -0.4437
  384MOL0     H51820   9.445   8.117   6.590 -0.6603 -0.9399  0.3194
  384MOL0     H51821   9.251   7.994   6.657  0.3999 -0.5929 -0.3485
  384MOL0     H51822   8.942   7.501   6.483 -1.2086 -0.3626  0.1587
  384MOL0     H51823   8.754   7.401   6.578  1.3202  0.1012  0.2554
  384MOL0     H51824   6.680   7.826   6.251 -3.3948 -0.3202  1.1069
  384MOL0     H51825   6.495   7.980   6.291 -0.0328 -0.6861 -1.9775
  384MOL0     H51826   6.289   8.232   6.521 -3.0029  1.2143  2.5684
  384MOL0     H51827   6.090   8.318   6.597 -1.6868  1.5238 -0.0597
  384MOL0     H51828   5.967   8.497   6.681  0.9393 -3.1734  0.3840
  384MOL0     H51829   5.868   8.364   6.615  1.1948  0.3459  1.2940
  384MOL0     H51830   5.761   8.646   6.622 -0.7045 -0.4536 -0.4495
  384MOL0     H51831   5.720   8.525   6.732  2.2809  2.6191  1.2634
  384MOL0     H51832   5.629   8.390   6.524 -1.1280  0.5140  0.7159
  384MOL0     H51833   5.691   8.515   6.420  0.8728 -2.6396 -0.1783
  384MOL0     H51834   5.474   8.593   6.624  1.1664  1.1206 -0.2175
  384MOL0     H51835   5.543   8.683   6.492 -0.5973  0.0106  0.8634
  384MOL0     H51836   5.254   8.468   6.288  0.3770  1.7447 -0.5648
  384MOL0     H51837   6.063   8.564   6.249  1.5542  0.1136 -1.3130
  384MOL0     H51838   6.205   8.564   6.081 -0.6627  1.4554  2.0823
  384MOL0     H51839   6.379   8.531   6.130  2.3491 -5.4423 -0.6408
  384MOL0     H51840   6.284   8.401   6.074 -0.5770 -0.4605  2.1219
  385MOL0     O51841   2.881   1.979   8.672  0.4592 -0.0499  0.0798
  385MOL0     C51842   2.816   2.023   8.570 -0.2800  1.3154  0.3765
  385MOL0     O51843   2.866   2.109   8.472 -0.5686  0.5303  0.3853
  385MOL0     C51844   2.979   2.184   8.501 -0.2257  0.1465  0.4911
  385MOL0     C51845   3.100   2.152   8.454  0.7633  0.1329  0.4772
  385MOL0     C51846   3.205   2.229   8.507  0.3244 -0.8927 -1.1886
  385MOL0     C51847   3.186   2.345   8.584  0.4948 -0.2514 -0.2528
  385MOL0     O51848   3.290   2.430   8.625  0.6766 -0.5159 -0.2252
  385MOL0     C51849   3.393   2.463   8.529  0.9599  0.7041 -0.1673
  385MOL0     C51850   3.344   2.532   8.401 -0.8252 -0.5113  0.1098
  385MOL0     C51851   3.443   2.596   8.297 -0.0875 -0.2970  0.6372
  385MOL0     C51852   3.542   2.494   8.238  0.1792  0.7359 -0.3285
  385MOL0     C51853   3.662   2.556   8.172 -0.5302 -0.8116 -0.3640
  385MOL0     C51854   3.638   2.648   8.051  0.9050  0.5853 -1.2927
  385MOL0     C51855   3.548   2.579   7.945  0.1037  1.3528 -0.1815
  385MOL0     C51856   3.499   2.675   7.837 -1.0068  0.3568 -0.5422
  385MOL0     N51857   3.607   2.711   7.744  0.6351  1.1310 -0.2914
  385MOL0     C51858   3.686   2.820   7.771 -0.3990 -0.2831 -0.4224
  385MOL0     C51859   3.777   2.808   7.675 -0.6183  0.8352 -0.7093
  385MOL0     C51860   3.886   2.909   7.654  0.8039  0.4190 -0.6260
  385MOL0     C51861   4.032   2.858   7.643  1.3933 -0.6049  0.3929
  385MOL0     C51862   4.127   2.962   7.586  0.9492 -0.5241 -0.3444
  385MOL0     C51863   4.272   2.915   7.613  0.3846 -0.1543 -0.2501
  385MOL0     O51864   4.360   3.011   7.561 -0.0355 -0.4617  0.6446
  385MOL0     C51865   4.496   3.005   7.594 -0.4863  0.5712 -0.9405
  385MOL0     C51866   4.544   2.914   7.692 -0.3927  0.6590 -0.4307
  385MOL0     C51867   4.683   2.912   7.718 -0.0435 -0.1135  0.4556
  385MOL0     C51868   4.776   2.988   7.642 -0.4438 -0.2671  0.6023
  385MOL0     C51869   4.924   2.980   7.657 -1.0711  0.9237 -0.4743
  385MOL0     O51870   4.984   2.889   7.749 -0.5388 -0.4545  0.0713
  385MOL0     C51871   5.122   2.872   7.757  1.0142  0.0212  1.1232
  385MOL0     C51872   5.176   2.858   7.880  0.3473  1.0776  0.0984
  385MOL0     C51873   5.312   2.850   7.898 -0.0793 -0.1116  0.1199
  385MOL0     C51874   5.401   2.843   7.784  0.3068 -0.2552  0.2512
  385MOL0     O51875   5.541   2.821   7.795  0.4001 -0.0573 -0.0098
  385MOL0     C51876   5.598   2.834   7.926 -0.0482 -0.5407 -0.3687
  385MOL0     C51877   5.752   2.816   7.933 -0.1653 -0.2410 -0.2919
  385MOL0     C51878   5.822   2.917   7.844  0.8821  0.0022  0.0248
  385MOL0     C51879   5.959   2.865   7.815  0.2722 -0.3868 -1.0169
  385MOL0     C51880   6.067   2.956   7.760 -0.1319 -0.0955 -0.1695
  385MOL0     C51881   6.023   3.043   7.637 -0.5919 -0.3076 -0.8157
  385MOL0     C51882   6.145   3.111   7.584  0.0536 -0.0397  0.3374
  385MOL0     C51883   6.114   3.199   7.462  0.3910  0.2386  0.1327
  385MOL0    Cl51884   6.032   3.112   7.322  0.2182  0.3339 -0.1423
  385MOL0     C51885   5.339   2.852   7.661  0.0275 -0.6497  1.2858
  385MOL0     C51886   5.199   2.864   7.642  0.1876  1.2399 -0.8438
  385MOL0     O51887   4.991   3.050   7.589  0.0009  0.4013  0.1682
  385MOL0     C51888   4.723   3.083   7.551  0.2032  0.4506  0.3034
  385MOL0     C51889   4.586   3.091   7.526 -0.1641 -0.1109 -1.4404
  385MOL0     N51890   3.745   2.707   7.584 -0.4412  0.8477  0.0065
  385MOL0     N51891   3.641   2.653   7.625 -0.2273  0.7996 -0.2645
  385MOL0     C51892   3.062   2.363   8.632  0.0630  0.3080 -0.5759
  385MOL0     C51893   2.955   2.279   8.594 -0.8792  0.6479 -0.3419
  385MOL0     C51894   2.681   1.965   8.539 -0.0422  0.2998 -0.1812
  385MOL0     C51895   2.620   2.005   8.413  0.3324 -0.2949 -0.4995
  385MOL0     C51896   2.491   1.973   8.382  0.0803  0.4043  0.1417
  385MOL0     C51897   2.420   1.886   8.473 -1.2974 -0.4669  0.7080
  385MOL0     O51898   2.294   1.847   8.439 -0.1943 -0.7914  0.1004
  385MOL0     C51899   2.290   1.749   8.339 -0.6428  0.4411 -0.2209
  385MOL0     C51900   2.184   1.771   8.228 -0.2704  0.1553  0.3588
  385MOL0     C51901   2.057   1.774   8.296 -0.3067  0.6550 -0.0026
  385MOL0     C51902   1.941   1.782   8.189  0.5064 -0.1533 -0.5003
  385MOL0     C51903   1.948   1.690   8.074 -0.2604 -0.0707 -0.6937
  385MOL0     C51904   1.949   1.631   7.972 -0.8911 -0.3310 -0.9085
  385MOL0     C51905   2.471   1.857   8.593  0.6122 -0.7464 -0.2993
  385MOL0     C51906   2.600   1.890   8.628 -0.9452 -0.2359  0.7067
  385MOL0     C51907   2.639   1.860   8.769  0.1453  0.1010  0.1585
  385MOL0     H51908   3.116   2.068   8.387  0.9619 -1.1298  2.0564
  385MOL0     H51909   3.303   2.197   8.472  1.2830 -1.3322  1.5783
  385MOL0     H51910   3.471   2.527   8.572  1.7432 -0.6702  0.5690
  385MOL0     H51911   3.446   2.371   8.499 -0.5213 -0.0563 -0.5317
  385MOL0     H51912   3.283   2.617   8.434  1.1916  1.1927 -0.3141
  385MOL0     H51913   3.288   2.458   8.343 -0.7938 -0.0170 -0.5567
  385MOL0     H51914   3.501   2.670   8.352 -1.9912  0.6835  1.4389
  385MOL0     H51915   3.381   2.655   8.229  0.8063  1.3056  1.1840
  385MOL0     H51916   3.570   2.430   8.323  1.5461  1.0545 -0.5114
  385MOL0     H51917   3.490   2.424   8.171  0.3006 -0.9307  1.2223
  385MOL0     H51918   3.713   2.617   8.247 -0.3910 -1.8638  0.4134
  385MOL0     H51919   3.719   2.474   8.127 -0.8846 -1.7245  0.8032
  385MOL0     H51920   3.577   2.736   8.076 -1.3781 -0.6018 -2.3982
  385MOL0     H51921   3.730   2.685   8.005  0.0650 -0.5482 -4.0436
  385MOL0     H51922   3.459   2.534   7.990 -0.1375  0.6225 -1.3403
  385MOL0     H51923   3.607   2.497   7.903 -0.1517 -0.4984  2.7325
  385MOL0     H51924   3.425   2.630   7.771  0.3898 -0.7017 -1.4536
  385MOL0     H51925   3.444   2.761   7.878 -0.0350  0.1568  1.2981
  385MOL0     H51926   3.672   2.894   7.849  1.3796  0.0845 -0.3977
  385MOL0     H51927   3.871   2.948   7.553  0.3614  0.3181 -0.6003
  385MOL0     H51928   3.878   2.997   7.719 -0.4264 -0.5911  0.6463
  385MOL0     H51929   4.072   2.820   7.738  2.0366  0.5855  0.6145
  385MOL0     H51930   4.031   2.778   7.569  0.0881 -1.0413  0.8532
  385MOL0     H51931   4.105   3.059   7.631  0.4230 -0.8556  0.1371
  385MOL0     H51932   4.110   2.974   7.479 -0.5346 -2.2565 -0.3570
  385MOL0     H51933   4.288   2.817   7.567  1.8865 -0.0588  0.0162
  385MOL0     H51934   4.283   2.904   7.721 -0.3839  1.8898  0.0675
  385MOL0     H51935   4.473   2.853   7.747  0.0483  1.0675  0.6248
  385MOL0     H51936   4.713   2.847   7.800  0.8610 -0.5138 -0.1782
  385MOL0     H51937   5.124   2.852   7.975 -1.5760  0.7481 -0.9255
  385MOL0     H51938   5.360   2.852   7.996  4.4823  1.1108 -1.9052
  385MOL0     H51939   5.575   2.933   7.965 -0.7717 -0.3195 -1.2969
  385MOL0     H51940   5.559   2.766   8.003  1.8133  0.6184  1.6840
  385MOL0     H51941   5.788   2.836   8.034  3.2089  1.6275 -1.6934
  385MOL0     H51942   5.786   2.715   7.911  1.2521  0.0295  0.5458
  385MOL0     H51943   5.766   2.941   7.753 -0.7590  0.2151  1.0409
  385MOL0     H51944   5.828   3.015   7.893 -0.4511 -0.6121  1.5464
  385MOL0     H51945   5.966   2.777   7.750 -0.1911 -1.5052  0.3727
  385MOL0     H51946   6.007   2.852   7.913 -1.3675 -2.8257 -0.4405
  385MOL0     H51947   6.153   2.895   7.734  0.4607  1.0672 -1.0208
  385MOL0     H51948   6.099   3.033   7.831 -0.7547  3.0588 -3.0818
  385MOL0     H51949   5.982   2.971   7.566 -1.4311 -2.2855  1.5245
  385MOL0     H51950   5.949   3.120   7.661  2.1928  2.6843 -1.1163
  385MOL0     H51951   6.226   3.040   7.561 -1.0435 -0.4464 -2.6614
  385MOL0     H51952   6.177   3.179   7.663 -1.0208  0.7165  0.1364
  385MOL0     H51953   6.047   3.277   7.500 -0.6242 -0.7144  0.3206
  385MOL0     H51954   6.203   3.252   7.426  0.2447  1.5329  1.5961
  385MOL0     H51955   5.399   2.845   7.571 -4.1106 -0.4442 -1.8009
  385MOL0     H51956   5.143   2.863   7.549 -0.7160  2.0005 -0.3255
  385MOL0     H51957   4.793   3.147   7.498  2.9130  0.9364  4.0824
  385MOL0     H51958   4.551   3.167   7.458 -3.5844  0.1841  0.4066
  385MOL0     H51959   3.046   2.445   8.701 -2.5154 -1.1407  0.7086
  385MOL0     H51960   2.857   2.304   8.634 -1.7623 -1.7591 -0.7974
  385MOL0     H51961   2.666   2.089   8.363  1.0939  0.0249  0.6841
  385MOL0     H51962   2.447   2.012   8.291 -0.7767  0.5502  0.6060
  385MOL0     H51963   2.261   1.654   8.385 -1.2731  0.7879  0.1157
  385MOL0     H51964   2.386   1.735   8.289 -1.1168 -0.4609 -0.9023
  385MOL0     H51965   2.193   1.686   8.160 -0.5473 -0.8395  1.5466
  385MOL0     H51966   2.198   1.865   8.173 -3.3079 -0.5335 -1.8237
  385MOL0     H51967   2.058   1.864   8.358 -5.2272  0.6717  0.4899
  385MOL0     H51968   2.052   1.690   8.365  2.7431  0.2573 -0.1515
  385MOL0     H51969   1.848   1.753   8.240  0.1182  1.1195 -0.4532
  385MOL0     H51970   1.934   1.883   8.149  1.1184 -0.1326 -0.5633
  385MOL0     H51971   1.964   1.564   7.889 -0.4759 -0.8810 -0.3984
  385MOL0     H51972   2.423   1.788   8.662  0.5291  0.2145  0.6187
  385MOL0     H51973   2.672   1.948   8.826 -0.7468  1.8226 -1.8497
  385MOL0     H51974   2.553   1.815   8.820  0.8514 -0.2786  1.0348
  385MOL0     H51975   2.718   1.784   8.770 -2.5936 -2.9857  0.1291
  386MOL0     O51976   6.048  11.247   8.649 -0.3038 -0.3990  0.4529
  386MOL0     C51977   5.969  11.210   8.568 -0.6735  0.7019  1.4071
  386MOL0     O51978   5.989  11.103   8.487  0.5034 -0.2011  0.3890
  386MOL0     C51979   6.102  11.029   8.519  0.4599  0.1073  0.2298
  386MOL0     C51980   6.111  10.943   8.626  0.0210 -0.1462 -0.4788
  386MOL0     C51981   6.239  10.880   8.659  1.0146 -0.0978 -0.2654
  386MOL0     C51982   6.358  10.908   8.586  0.9238 -0.0657  1.1225
  386MOL0     O51983   6.482  10.847   8.602 -0.5937 -0.2947  0.2494
  386MOL0     C51984   6.491  10.750   8.711 -0.1620 -0.2843  0.4401
  386MOL0     C51985   6.619  10.676   8.688 -0.1074 -0.5147 -0.8757
  386MOL0     C51986   6.615  10.597   8.559  0.1890  0.7033  0.0268
  386MOL0     C51987   6.741  10.520   8.540 -0.4383 -0.6590  0.3831
  386MOL0     C51988   6.746  10.438   8.412 -1.0437 -0.2157 -0.0456
  386MOL0     C51989   6.762  10.524   8.288 -0.1934  0.2035  0.2196
  386MOL0     C51990   6.788  10.425   8.169  0.2072  0.0823 -0.1288
  386MOL0     C51991   6.697  10.307   8.139  0.1445 -0.1485 -0.3320
  386MOL0     N51992   6.748  10.238   8.020 -0.4587  0.1277  0.0843
  386MOL0     C51993   6.679  10.217   7.907  0.0764  0.6495  0.4175
  386MOL0     C51994   6.768  10.148   7.828 -0.6696 -0.0504 -0.0305
  386MOL0     C51995   6.728  10.076   7.699  0.2779  0.2684  0.1532
  386MOL0     C51996   6.743  10.152   7.563  0.3901  0.4806  0.4035
  386MOL0     C51997   6.704  10.057   7.449 -0.2127  0.0396 -0.6389
  386MOL0     C51998   6.823   9.982   7.389  0.4514 -0.1943  0.0058
  386MOL0     O51999   6.784   9.931   7.267 -0.2782  0.7482 -0.3036
  386MOL0     C52000   6.885   9.863   7.196 -0.2460  0.0564  0.4023
  386MOL0     C52001   6.862   9.836   7.065  0.6304 -0.3421  0.2537
  386MOL0     C52002   6.951   9.776   6.974 -0.2451  0.2835 -0.4205
  386MOL0     C52003   7.075   9.731   7.024 -0.4791 -0.1885 -0.4217
  386MOL0     C52004   7.185   9.679   6.935 -1.0092  0.1151  0.1060
  386MOL0     O52005   7.164   9.665   6.798  0.0370 -0.1574 -0.0040
  386MOL0     C52006   7.276   9.654   6.724 -0.1087 -0.1618 -0.3025
  386MOL0     C52007   7.340   9.536   6.699  0.7545  0.0479  0.6168
  386MOL0     C52008   7.458   9.522   6.624  0.1664  0.0889  0.3653
  386MOL0     C52009   7.514   9.632   6.561 -0.1062 -0.1497 -1.2711
  386MOL0     O52010   7.631   9.634   6.487  0.1041  0.5153  0.0859
  386MOL0     C52011   7.711   9.523   6.481 -0.0397 -0.6435  0.0945
  386MOL0     C52012   7.851   9.556   6.427 -0.0205 -0.1208 -0.1794
  386MOL0     C52013   7.957   9.435   6.418  0.7668  1.1340 -0.5286
  386MOL0     C52014   8.096   9.495   6.384 -0.0157 -0.2513 -1.2091
  386MOL0     C52015   8.213   9.400   6.348  0.1769 -0.4334  0.0993
  386MOL0     C52016   8.280   9.346   6.473 -0.1511 -0.0563 -0.0485
  386MOL0     C52017   8.371   9.455   6.531  0.2675 -0.5691 -0.3048
  386MOL0     C52018   8.394   9.460   6.678  0.5639  0.7397 -0.4662
  386MOL0    Cl52019   8.470   9.312   6.740 -0.0003  0.0634 -0.7070
  386MOL0     C52020   7.449   9.752   6.593  0.4816 -0.5439  0.3555
  386MOL0     C52021   7.327   9.765   6.666 -0.6983  0.0037  0.0307
  386MOL0     O52022   7.298   9.660   6.986 -0.1252 -0.1296 -0.7470
  386MOL0     C52023   7.093   9.746   7.163  0.6427 -0.0045 -0.1678
  386MOL0     C52024   7.001   9.810   7.250 -0.3921 -0.2932 -0.4970
  386MOL0     N52025   6.878  10.125   7.903 -0.1738  0.0309  1.2575
  386MOL0     N52026   6.872  10.189   8.008  0.2738  0.1788 -0.3812
  386MOL0     C52027   6.343  10.993   8.475 -0.0793  0.3647 -0.2145
  386MOL0     C52028   6.220  11.051   8.448 -0.1771 -0.2302  0.3662
  386MOL0     C52029   5.849  11.285   8.539 -0.3769  0.1748  0.0815
  386MOL0     C52030   5.734  11.209   8.480 -0.4427  0.2763  0.0273
  386MOL0     C52031   5.618  11.274   8.438  0.0602 -0.0694  0.5284
  386MOL0     C52032   5.605  11.414   8.453 -0.0138 -0.1322 -0.5968
  386MOL0     O52033   5.486  11.487   8.434  0.1901  0.4232  0.3563
  386MOL0     C52034   5.408  11.453   8.313 -0.2323  0.3710  0.7393
  386MOL0     C52035   5.292  11.548   8.283 -0.3533  0.5035  0.0089
  386MOL0     C52036   5.178  11.531   8.382  0.7130 -0.5576 -0.0757
  386MOL0     C52037   5.100  11.665   8.397  1.2266  0.2273  0.3047
  386MOL0     C52038   4.985  11.662   8.489 -0.4316 -0.2592 -0.0968
  386MOL0     C52039   4.883  11.671   8.551 -0.9195  0.0563  0.0346
  386MOL0     C52040   5.710  11.478   8.526  0.5146  0.4600 -0.6908
  386MOL0     C52041   5.834  11.419   8.560  0.1555 -0.5239 -0.3381
  386MOL0     C52042   5.942  11.517   8.607 -0.2442  0.5577  0.2432
  386MOL0     H52043   6.030  10.926   8.697 -0.2348 -0.4621 -0.8401
  386MOL0     H52044   6.243  10.823   8.752  0.8789  0.4562  0.0833
  386MOL0     H52045   6.473  10.774   8.816  0.9706  2.7856  0.0306
  386MOL0     H52046   6.407  10.680   8.697 -0.3737  0.2093 -0.8587
  386MOL0     H52047   6.634  10.618   8.779 -1.4222  1.3879  0.6323
  386MOL0     H52048   6.697  10.753   8.683 -0.7516  0.1490 -0.7638
  386MOL0     H52049   6.601  10.664   8.473  2.9926  3.3496  1.4078
  386MOL0     H52050   6.525  10.537   8.549 -0.2302  0.5061  3.7721
  386MOL0     H52051   6.826  10.590   8.541 -1.1054  0.1637  0.3663
  386MOL0     H52052   6.753  10.459   8.630  0.2945 -0.1012  0.6730
  386MOL0     H52053   6.833  10.375   8.429 -0.8131  0.8807  3.7940
  386MOL0     H52054   6.656  10.376   8.408  1.5414 -4.5448  1.8048
  386MOL0     H52055   6.669  10.579   8.276 -0.3476  0.1418  1.0229
  386MOL0     H52056   6.845  10.592   8.309  0.5201 -1.1711  2.2774
  386MOL0     H52057   6.887  10.381   8.186 -1.6989 -3.8809  1.8484
  386MOL0     H52058   6.777  10.479   8.074 -3.1305 -0.4789 -0.1500
  386MOL0     H52059   6.699  10.237   8.224  1.3121 -1.3421 -1.3007
  386MOL0     H52060   6.594  10.340   8.126  0.4786  2.4029  2.3778
  386MOL0     H52061   6.580  10.249   7.877 -0.9149  1.1311  3.8004
  386MOL0     H52062   6.784   9.982   7.697  3.7368  2.1436 -2.1141
  386MOL0     H52063   6.625  10.043   7.712  0.8865 -1.6383  0.3627
  386MOL0     H52064   6.674  10.237   7.561  2.9207  2.6389 -0.9375
  386MOL0     H52065   6.843  10.193   7.547 -0.1001  1.1857 -1.0068
  386MOL0     H52066   6.661  10.110   7.363 -0.5879  0.0223 -0.4657
  386MOL0     H52067   6.626   9.989   7.483 -0.5807  0.3945 -0.7529
  386MOL0     H52068   6.843   9.899   7.457  2.2943 -0.2745 -0.5850
  386MOL0     H52069   6.913  10.042   7.373  1.4191 -2.0628 -2.0820
  386MOL0     H52070   6.766   9.862   7.021 -0.1289 -1.4491  1.2019
  386MOL0     H52071   6.919   9.774   6.871  0.7897 -0.9865 -0.7316
  386MOL0     H52072   7.287   9.451   6.739 -1.9531  1.9875  1.3977
  386MOL0     H52073   7.506   9.425   6.621  0.2838  0.0695  2.0713
  386MOL0     H52074   7.730   9.492   6.584  0.8872 -0.2545  0.0498
  386MOL0     H52075   7.651   9.457   6.417  0.8679 -1.1854 -0.2214
  386MOL0     H52076   7.838   9.605   6.330 -0.4024  2.4052  1.0410
  386MOL0     H52077   7.895   9.631   6.494  3.3081  0.4586 -2.7440
  386MOL0     H52078   7.943   9.369   6.504 -3.0518  0.2536 -1.6410
  386MOL0     H52079   7.919   9.369   6.339  0.7010 -1.0304  1.2049
  386MOL0     H52080   8.116   9.565   6.466  1.1439  3.5913 -4.4930
  386MOL0     H52081   8.081   9.562   6.299 -2.5670  1.1051  0.1694
  386MOL0     H52082   8.286   9.454   6.287  0.9848  0.7974  2.0613
  386MOL0     H52083   8.175   9.317   6.287 -0.9506  0.2308 -0.1335
  386MOL0     H52084   8.203   9.315   6.546 -0.9965 -1.6447 -1.5320
  386MOL0     H52085   8.338   9.260   6.440  2.8153  0.9990  2.0139
  386MOL0     H52086   8.330   9.552   6.500 -0.2346 -0.4373  0.7161
  386MOL0     H52087   8.469   9.455   6.481 -0.8417  2.4666 -2.8664
  386MOL0     H52088   8.464   9.542   6.696  1.1170 -0.0863  1.3495
  386MOL0     H52089   8.307   9.499   6.730  1.8059  4.7712 -1.0420
  386MOL0     H52090   7.489   9.843   6.548 -4.2425  0.4580 -2.4776
  386MOL0     H52091   7.283   9.863   6.677  0.2341  0.2151  2.8251
  386MOL0     H52092   7.183   9.698   7.202 -0.4978 -1.1514  1.1528
  386MOL0     H52093   7.041   9.820   7.350  3.6217 -0.4893 -1.8844
  386MOL0     H52094   6.427  11.016   8.411  1.0790 -0.4469  0.9738
  386MOL0     H52095   6.207  11.121   8.366 -0.2783 -0.0713  0.5167
  386MOL0     H52096   5.744  11.105   8.451  0.4898 -0.3499  2.4160
  386MOL0     H52097   5.534  11.224   8.390  2.0125 -0.9057 -2.2508
  386MOL0     H52098   5.371  11.352   8.331 -0.2403  0.7372  3.0419
  386MOL0     H52099   5.482  11.447   8.232  0.9594  1.5391  1.6917
  386MOL0     H52100   5.251  11.530   8.183 -1.6919 -0.2403  0.6692
  386MOL0     H52101   5.329  11.651   8.279 -1.9578  1.0922 -2.9755
  386MOL0     H52102   5.214  11.496   8.480 -1.8611 -0.0508  1.1279
  386MOL0     H52103   5.115  11.454   8.337  1.3814  0.0424 -2.1622
  386MOL0     H52104   5.177  11.740   8.416  3.0606 -1.1840 -1.1638
  386MOL0     H52105   5.059  11.691   8.299 -1.2873  2.2870  1.7772
  386MOL0     H52106   4.792  11.691   8.603 -1.4395 -1.2224 -0.3386
  386MOL0     H52107   5.687  11.581   8.552  0.2868  0.4414 -0.8073
  386MOL0     H52108   6.041  11.504   8.563 -1.3471 -4.8158 -1.3352
  386MOL0     H52109   5.918  11.624   8.614 -1.3466  0.3286  0.1490
  386MOL0     H52110   5.965  11.491   8.711  0.3118  1.1946  0.2825
  387MOL0     O52111  10.772   9.721  11.234 -0.1843  0.2004 -0.3121
  387MOL0     C52112  10.731   9.692  11.346  0.4307 -0.4634  0.4978
  387MOL0     O52113  10.809   9.680  11.454 -0.2234  0.1812 -0.1344
  387MOL0     C52114  10.941   9.664  11.429 -0.6499  0.0602 -0.9319
  387MOL0     C52115  11.033   9.751  11.488  0.6860  1.2807 -0.4256
  387MOL0     C52116  11.169   9.730  11.466  0.4643  0.8544  0.7892
  387MOL0     C52117  11.208   9.619  11.382 -0.0806  0.0854 -0.0274
  387MOL0     O52118  11.340   9.585  11.349  0.3505  0.0802 -0.0835
  387MOL0     C52119  11.450   9.664  11.408 -0.9839  0.0183  0.4358
  387MOL0     C52120  11.480   9.792  11.327 -0.4441  0.6770 -0.3533
  387MOL0     C52121  11.618   9.842  11.359  0.3979 -0.0169 -0.1410
  387MOL0     C52122  11.622   9.895  11.507  1.2036  0.3187 -0.1052
  387MOL0     C52123  11.735   9.987  11.531 -0.2124  0.7353  0.3606
  387MOL0     C52124  11.866   9.903  11.500  0.3821 -0.2585 -0.3584
  387MOL0     C52125  11.944   9.939  11.370  0.3441  0.6036  0.0499
  387MOL0     C52126  11.989  10.083  11.368  0.2661 -0.7478 -0.3403
  387MOL0     N52127  12.058  10.116  11.241  0.8370 -0.3979  0.8673
  387MOL0     C52128  12.189  10.138  11.220  0.0503 -0.4490 -0.8805
  387MOL0     C52129  12.216  10.150  11.087 -0.2486  0.1943  0.0848
  387MOL0     C52130  12.354  10.178  11.025  0.1634  0.1892 -0.8073
  387MOL0     C52131  12.399  10.327  11.044  0.0951  0.6591 -0.1387
  387MOL0     C52132  12.297  10.427  10.992 -0.0534  0.3996  0.0188
  387MOL0     C52133  12.279  10.413  10.838  0.1932  0.0520  0.8438
  387MOL0     O52134  12.395  10.387  10.772  0.0728  0.5490  0.0657
  387MOL0     C52135  12.486  10.489  10.743 -0.9910 -0.8596  0.9857
  387MOL0     C52136  12.477  10.620  10.785  0.2053 -0.8527 -0.2704
  387MOL0     C52137  12.578  10.716  10.757 -1.1720 -0.6438 -0.5103
  387MOL0     C52138  12.705  10.675  10.704  0.2346 -0.1615  0.4421
  387MOL0     C52139  12.834  10.757  10.696 -0.0553 -0.6368 -0.1296
  387MOL0     O52140  12.952  10.700  10.682 -1.4885  0.0680  0.0208
  387MOL0     C52141  13.067  10.777  10.723 -0.1597  0.1752  0.0776
  387MOL0     C52142  13.077  10.856  10.836  0.6303 -0.2693  0.6568
  387MOL0     C52143  13.188  10.941  10.854  0.8093  0.1878 -0.5017
  387MOL0     C52144  13.293  10.942  10.765 -0.1758 -0.7597 -0.5297
  387MOL0     O52145  13.412  11.002  10.795  0.2419 -0.2644 -0.1925
  387MOL0     C52146  13.417  11.099  10.904  0.3390  0.0139  0.4528
  387MOL0     C52147  13.557  11.156  10.904  0.2749  0.9366 -0.8589
  387MOL0     C52148  13.581  11.255  10.790  0.4577  0.7928  0.6494
  387MOL0     C52149  13.691  11.342  10.821  1.0957  0.0246 -0.1280
  387MOL0     C52150  13.718  11.446  10.711 -0.4768  0.1185 -0.3233
  387MOL0     C52151  13.840  11.532  10.752 -0.2409 -0.4841 -0.1197
  387MOL0     C52152  13.895  11.605  10.627  0.8216  0.4547 -0.4362
  387MOL0     C52153  14.013  11.696  10.648 -0.0819  0.0507 -0.3314
  387MOL0    Cl52154  14.160  11.613  10.700  0.5777 -0.4674 -0.6549
  387MOL0     C52155  13.292  10.862  10.656 -0.1059  0.2707  0.7820
  387MOL0     C52156  13.180  10.776  10.637  0.1263  0.1611 -0.0391
  387MOL0     O52157  12.816  10.875  10.716  0.0301 -0.0963  0.3627
  387MOL0     C52158  12.708  10.544  10.660 -0.9319  0.7890  0.5888
  387MOL0     C52159  12.601  10.451  10.669 -0.6561 -0.2558  0.2758
  387MOL0     N52160  12.089  10.143  11.023 -0.0293 -0.4050 -0.4096
  387MOL0     N52161  12.001  10.132  11.119  0.3578 -1.1117  0.6258
  387MOL0     C52162  11.118   9.530  11.328  0.4635  0.1907  0.8813
  387MOL0     C52163  10.978   9.549  11.354 -0.2433  0.2022  0.1865
  387MOL0     C52164  10.584   9.685  11.366 -0.1142  0.3985  0.2524
  387MOL0     C52165  10.506   9.647  11.256  0.3507 -0.7816 -0.2305
  387MOL0     C52166  10.373   9.623  11.277  0.4815  0.1739 -0.8525
  387MOL0     C52167  10.302   9.664  11.399 -0.6918 -0.3562  0.6296
  387MOL0     O52168  10.162   9.679  11.406 -0.2681  0.5612  0.4310
  387MOL0     C52169  10.085   9.602  11.308 -0.2046 -0.0740  0.1622
  387MOL0     C52170   9.931   9.629  11.319 -0.5255  1.0962  0.1810
  387MOL0     C52171   9.862   9.503  11.263  0.2577  0.0853  0.4769
  387MOL0     C52172   9.709   9.516  11.281 -0.7525  0.3777  0.3315
  387MOL0     C52173   9.663   9.521  11.425 -0.0133 -0.2777  1.1525
  387MOL0     C52174   9.642   9.517  11.544 -0.0583  0.7312 -0.0411
  387MOL0     C52175  10.379   9.706  11.503 -0.2219 -0.5938 -0.6215
  387MOL0     C52176  10.515   9.714  11.495  0.7840  0.0061  1.0588
  387MOL0     C52177  10.586   9.784  11.607 -0.4925 -0.4606 -0.3835
  387MOL0     H52178  10.996   9.816  11.566 -2.2474 -1.2359  0.4881
  387MOL0     H52179  11.227   9.806  11.518 -0.7986  2.6220 -0.2471
  387MOL0     H52180  11.418   9.708  11.503  0.3993  3.3039 -0.4902
  387MOL0     H52181  11.534   9.597  11.429 -2.1594 -1.4771  0.5371
  387MOL0     H52182  11.412   9.875  11.350 -0.4136  0.4715  0.5138
  387MOL0     H52183  11.467   9.765  11.222  0.4174  0.2103 -0.3478
  387MOL0     H52184  11.646   9.925  11.294  2.3016 -0.9595 -0.5876
  387MOL0     H52185  11.689   9.760  11.346  2.2667  1.5366 -0.1471
  387MOL0     H52186  11.526   9.944  11.523 -0.0574 -0.9110 -3.1085
  387MOL0     H52187  11.622   9.807  11.573  1.8574 -0.2017 -0.7754
  387MOL0     H52188  11.722  10.080  11.475 -1.6593  0.0306 -0.5369
  387MOL0     H52189  11.739  10.014  11.637 -3.9022 -1.1234  1.1506
  387MOL0     H52190  11.929   9.908  11.589  0.1673 -1.7185 -0.1054
  387MOL0     H52191  11.844   9.796  11.503 -0.8740 -0.0084 -0.1086
  387MOL0     H52192  11.881   9.905  11.287  2.2193 -1.5644 -0.5883
  387MOL0     H52193  12.027   9.868  11.368 -0.6125 -0.7243  2.8914
  387MOL0     H52194  11.897  10.141  11.380  0.1114 -1.1195  0.3195
  387MOL0     H52195  12.048  10.102  11.458 -0.9544 -0.3966  0.4032
  387MOL0     H52196  12.258  10.138  11.304  0.7281 -0.4732 -1.4271
  387MOL0     H52197  12.436  10.118  11.066  1.9856  3.0683  0.0452
  387MOL0     H52198  12.350  10.147  10.920  2.8182  1.9170 -1.5264
  387MOL0     H52199  12.404  10.343  11.152  1.2512 -1.0852  0.1058
  387MOL0     H52200  12.497  10.349  11.001  0.0554 -0.3740 -0.7907
  387MOL0     H52201  12.335  10.528  11.008  2.5549 -0.5224  0.0557
  387MOL0     H52202  12.209  10.411  11.055  0.6322 -4.6273  0.1053
  387MOL0     H52203  12.231  10.505  10.803 -0.3537  0.6772  3.0711
  387MOL0     H52204  12.215  10.329  10.811  3.1876 -1.9014 -0.7554
  387MOL0     H52205  12.388  10.656  10.836 -1.0880 -3.8095 -0.2207
  387MOL0     H52206  12.572  10.820  10.785  0.5305 -0.8467  0.7378
  387MOL0     H52207  12.998  10.860  10.910  0.6075  1.3016  0.5769
  387MOL0     H52208  13.185  10.996  10.948 -0.2828 -0.0427 -0.3967
  387MOL0     H52209  13.343  11.173  10.873  1.0404 -0.2550 -2.0478
  387MOL0     H52210  13.405  11.054  11.003 -1.7662  1.7197  1.0450
  387MOL0     H52211  13.561  11.220  10.993 -1.8131  0.4554 -0.3700
  387MOL0     H52212  13.639  11.083  10.908 -1.4620 -1.0914  2.5857
  387MOL0     H52213  13.614  11.212  10.695  2.7412  2.3738  0.6301
  387MOL0     H52214  13.488  11.310  10.771  0.1699 -0.6404 -2.9937
  387MOL0     H52215  13.785  11.287  10.821  0.8655 -0.3761 -0.2946
  387MOL0     H52216  13.679  11.399  10.914  3.0893  0.3250 -0.0192
  387MOL0     H52217  13.631  11.512  10.717  0.3864  1.2122  0.6696
  387MOL0     H52218  13.729  11.390  10.618 -5.2942  0.8339 -1.6085
  387MOL0     H52219  13.816  11.605  10.830 -2.7038 -0.6877 -0.5996
  387MOL0     H52220  13.917  11.476  10.805  2.1006  2.2394 -0.3975
  387MOL0     H52221  13.817  11.667  10.582 -0.0255  1.7506  2.5762
  387MOL0     H52222  13.935  11.526  10.563 -1.5983 -1.2551  0.0447
  387MOL0     H52223  14.047  11.752  10.560  1.4473 -0.7863 -0.2894
  387MOL0     H52224  14.000  11.765  10.732  2.6476 -0.8932  0.9566
  387MOL0     H52225  13.387  10.871  10.604  0.0874  0.1214  1.0992
  387MOL0     H52226  13.184  10.695  10.565 -0.1973 -1.1342  1.3457
  387MOL0     H52227  12.798  10.501  10.616 -0.9740 -0.0649  1.3057
  387MOL0     H52228  12.606  10.349  10.633 -0.0079 -1.3464  3.2461
  387MOL0     H52229  11.147   9.446  11.267 -1.7510 -1.1825  1.5872
  387MOL0     H52230  10.911   9.475  11.311  1.4368  1.1292 -4.6475
  387MOL0     H52231  10.545   9.635  11.155  1.5456 -0.8076  0.2273
  387MOL0     H52232  10.314   9.575  11.200 -0.9158 -1.1930  0.9648
  387MOL0     H52233  10.104   9.495  11.322 -1.8203 -0.0979  2.6978
  387MOL0     H52234  10.109   9.637  11.207  1.4921 -0.2899  0.4630
  387MOL0     H52235   9.905   9.720  11.265  0.6497  0.5894 -1.3106
  387MOL0     H52236   9.902   9.623  11.425  1.2142 -1.9435  0.6235
  387MOL0     H52237   9.892   9.409  11.311 -1.5503  0.8494  3.3681
  387MOL0     H52238   9.874   9.490  11.155 -1.0154 -2.8599  0.5710
  387MOL0     H52239   9.678   9.608  11.230  1.5880  1.1409  0.1371
  387MOL0     H52240   9.676   9.424  11.232  2.3138 -1.1927  0.9800
  387MOL0     H52241   9.627   9.503  11.649 -1.5215 -0.2095 -0.3541
  387MOL0     H52242  10.329   9.724  11.598  0.5523  0.2439 -0.3563
  387MOL0     H52243  10.530   9.839  11.683  2.3047  0.9110  0.8474
  387MOL0     H52244  10.632   9.698  11.657 -0.6092 -1.0283 -1.2254
  387MOL0     H52245  10.667   9.853  11.583 -1.0832 -0.0333 -1.2204
  388MOL0     O52246  10.487   0.447   0.218 -0.3220  0.5926 -0.4528
  388MOL0     C52247  10.551   0.368   0.283  0.0642  0.8929  0.6126
  388MOL0     O52248  10.682   0.338   0.271 -0.3041 -0.4449  0.1555
  388MOL0     C52249  10.764   0.409   0.187  0.5131 -0.6477 -0.5951
  388MOL0     C52250  10.772   0.548   0.180 -0.4522 -0.3208 -0.9164
  388MOL0     C52251  10.866   0.614   0.096 -0.4571  0.1884  0.1491
  388MOL0     C52252  10.972   0.538   0.035 -0.3229  0.5998  0.3113
  388MOL0     O52253  11.076   0.594  -0.042  0.1154  0.0837  0.0407
  388MOL0     C52254  11.054   0.728  -0.092 -0.7094 -0.6719  0.3098
  388MOL0     C52255  11.155   0.783  -0.199  0.4520 -0.1717 -0.3689
  388MOL0     C52256  11.294   0.783  -0.144 -0.1557  0.7216 -0.2015
  388MOL0     C52257  11.405   0.790  -0.245  0.7359  0.5546 -0.4930
  388MOL0     C52258  11.533   0.851  -0.184 -0.5214 -0.7640  0.1581
  388MOL0     C52259  11.644   0.857  -0.281  0.1838  0.4689  0.6853
  388MOL0     C52260  11.764   0.933  -0.223  0.2508  0.4876 -0.4089
  388MOL0     C52261  11.880   0.943  -0.332  0.6650  0.4763 -0.1368
  388MOL0     N52262  11.986   1.028  -0.274 -0.7104  0.7491  0.7293
  388MOL0     C52263  12.109   0.983  -0.235  0.2628  0.7418  0.9387
  388MOL0     C52264  12.164   1.088  -0.168  1.1354 -0.1647 -0.4435
  388MOL0     C52265  12.290   1.097  -0.105 -0.5661  0.4777 -0.2521
  388MOL0     C52266  12.287   1.166   0.031 -0.2225 -1.2616  1.2993
  388MOL0     C52267  12.318   1.320   0.026  1.3908  0.1999  0.6420
  388MOL0     C52268  12.461   1.355   0.022  0.4436  0.4879 -0.5838
  388MOL0     O52269  12.528   1.286   0.140 -0.5881 -0.1068  0.1641
  388MOL0     C52270  12.665   1.293   0.155  0.0587  0.5861 -0.3059
  388MOL0     C52271  12.753   1.319   0.049  0.3222 -0.1120 -0.1083
  388MOL0     C52272  12.890   1.318   0.069  0.3600 -0.3282  0.3739
  388MOL0     C52273  12.937   1.295   0.198 -0.3996  0.6020  0.1480
  388MOL0     C52274  13.087   1.290   0.227  0.7987  0.4775 -1.0120
  388MOL0     O52275  13.166   1.357   0.139  0.2973 -0.1974 -0.6843
  388MOL0     C52276  13.301   1.370   0.153  0.4044  0.0807 -0.0028
  388MOL0     C52277  13.381   1.358   0.041  0.3935 -0.4078 -0.7803
  388MOL0     C52278  13.518   1.373   0.056  0.2662  0.3286 -0.3460
  388MOL0     C52279  13.579   1.402   0.182  1.4599  0.0112 -0.5670
  388MOL0     O52280  13.708   1.414   0.198  0.3026  0.1315 -0.0923
  388MOL0     C52281  13.769   1.515   0.283 -0.0925  0.1336  0.4474
  388MOL0     C52282  13.907   1.535   0.228  0.1081  0.1991  0.3126
  388MOL0     C52283  13.994   1.618   0.314  0.0947  0.7818 -0.1257
  388MOL0     C52284  13.949   1.757   0.335  1.0469  0.1908  0.0614
  388MOL0     C52285  14.061   1.841   0.403  0.1982 -0.4098  0.4032
  388MOL0     C52286  14.044   1.998   0.413 -0.0376  0.8020 -0.1269
  388MOL0     C52287  14.156   2.053   0.497 -1.0160 -0.1506 -0.1218
  388MOL0     C52288  14.172   2.202   0.519  0.0194 -0.6489 -0.6583
  388MOL0    Cl52289  14.001   2.260   0.550  0.0898  0.2296 -0.1684
  388MOL0     C52290  13.492   1.415   0.292 -0.0507  1.6609  0.2010
  388MOL0     C52291  13.355   1.401   0.275 -0.0511  0.0872  0.2558
  388MOL0     O52292  13.129   1.228   0.323  0.1444  0.5272 -0.3705
  388MOL0     C52293  12.846   1.259   0.301  0.1136 -0.4218  0.8633
  388MOL0     C52294  12.713   1.261   0.284  0.1752 -0.4479  0.4390
  388MOL0     N52295  12.086   1.202  -0.184  0.5443  0.3114 -0.5749
  388MOL0     N52296  11.980   1.163  -0.247  0.0231 -0.1638  0.1316
  388MOL0     C52297  10.970   0.398   0.058  0.6701  0.5888 -0.1943
  388MOL0     C52298  10.869   0.334   0.133  0.5069 -0.2356  0.3001
  388MOL0     C52299  10.475   0.291   0.381  0.1647  0.0077  0.9112
  388MOL0     C52300  10.501   0.156   0.389  0.1923  0.2163  0.1343
  388MOL0     C52301  10.442   0.077   0.488  0.7657 -0.4785  0.6642
  388MOL0     C52302  10.343   0.127   0.573  0.0080  0.3303  1.3834
  388MOL0     O52303  10.272   0.051   0.667  0.4958  0.2164 -0.5370
  388MOL0     C52304  10.298  -0.088   0.669  0.3996 -0.9571  0.3492
  388MOL0     C52305  10.202  -0.148   0.762  0.8937  0.4455  0.2530
  388MOL0     C52306  10.239  -0.292   0.799 -0.2579 -0.8381 -0.5246
  388MOL0     C52307  10.113  -0.373   0.800  0.3093  0.0046 -1.0074
  388MOL0     C52308  10.015  -0.350   0.914 -0.3074 -0.8796  0.3716
  388MOL0     C52309   9.933  -0.322   1.001  0.2675 -0.0945 -0.1295
  388MOL0     C52310  10.312   0.261   0.561  0.3323 -0.3312  0.7608
  388MOL0     C52311  10.370   0.348   0.469  0.3667 -0.7330 -0.0220
  388MOL0     C52312  10.335   0.495   0.454 -0.4661 -0.1045  0.0950
  388MOL0     H52313  10.702   0.612   0.232 -0.1637 -0.5743 -0.1971
  388MOL0     H52314  10.877   0.720   0.081 -1.0788 -0.0215 -2.1468
  388MOL0     H52315  10.952   0.742  -0.129 -1.1252 -0.5762  1.4418
  388MOL0     H52316  11.067   0.786  -0.000  0.2508 -2.6325  1.4806
  388MOL0     H52317  11.127   0.885  -0.228 -0.1010  0.3509  1.7892
  388MOL0     H52318  11.134   0.721  -0.286  2.8750 -0.7865 -0.5825
  388MOL0     H52319  11.317   0.690  -0.092  0.8924  0.8472 -0.4200
  388MOL0     H52320  11.295   0.868  -0.076 -1.0161 -1.4746  2.7259
  388MOL0     H52321  11.409   0.690  -0.288 -0.2662  0.6797 -0.8890
  388MOL0     H52322  11.369   0.847  -0.331 -3.1894 -2.9788 -1.5193
  388MOL0     H52323  11.522   0.952  -0.142 -1.2835  0.1106 -2.0008
  388MOL0     H52324  11.559   0.785  -0.100  0.6152  2.1876  2.2996
  388MOL0     H52325  11.675   0.757  -0.313  0.5053  1.5681 -3.0194
  388MOL0     H52326  11.619   0.915  -0.371  0.1831  2.3008  1.7946
  388MOL0     H52327  11.799   0.879  -0.134 -2.7189 -1.6193 -0.3831
  388MOL0     H52328  11.733   1.036  -0.202  1.0003  0.8928 -1.2182
  388MOL0     H52329  11.922   0.843  -0.345  1.7853  0.2404  4.0422
  388MOL0     H52330  11.843   0.990  -0.424  0.2378 -2.5636 -1.6617
  388MOL0     H52331  12.148   0.882  -0.243  0.1502  0.6668  1.2883
  388MOL0     H52332  12.332   0.997  -0.093  1.8143  1.1823 -2.0250
  388MOL0     H52333  12.359   1.150  -0.170  2.6834 -2.8053  0.2041
  388MOL0     H52334  12.188   1.150   0.075 -1.6352  2.0129 -0.3156
  388MOL0     H52335  12.351   1.112   0.101  0.9134 -3.4364 -1.2153
  388MOL0     H52336  12.262   1.354   0.114 -0.4132 -0.2133 -0.3157
  388MOL0     H52337  12.283   1.366  -0.066  2.8149 -0.7705 -0.4362
  388MOL0     H52338  12.490   1.460   0.015  1.3290  0.1590 -2.5263
  388MOL0     H52339  12.496   1.311  -0.072 -0.7434 -5.0622  1.2286
  388MOL0     H52340  12.709   1.358  -0.042  0.2786 -1.1433 -0.5424
  388MOL0     H52341  12.958   1.345  -0.011 -2.2612  3.0270 -0.9772
  388MOL0     H52342  13.337   1.327  -0.053  3.6505 -2.4896 -1.8029
  388MOL0     H52343  13.590   1.373  -0.025 -1.1354  5.2500 -1.9835
  388MOL0     H52344  13.713   1.609   0.275 -1.0374 -0.2797  1.8458
  388MOL0     H52345  13.765   1.490   0.390  2.4256 -0.4561  0.4706
  388MOL0     H52346  13.958   1.441   0.207  0.1487  0.3960 -0.5333
  388MOL0     H52347  13.891   1.571   0.125 -0.5069 -1.3548 -0.1752
  388MOL0     H52348  14.019   1.569   0.408 -3.1379  3.0448  2.1343
  388MOL0     H52349  14.096   1.614   0.275  1.7445  2.2618  3.5820
  388MOL0     H52350  13.856   1.764   0.393  0.3786 -2.3252 -0.5723
  388MOL0     H52351  13.919   1.808   0.243 -1.4851  2.2089  1.8722
  388MOL0     H52352  14.152   1.817   0.346 -0.5861  1.3013 -1.6767
  388MOL0     H52353  14.078   1.808   0.506  1.3584 -0.0413  0.3413
  388MOL0     H52354  14.045   2.031   0.309  1.7936 -0.3450 -0.5263
  388MOL0     H52355  13.944   2.017   0.454 -1.1687 -2.6863 -0.8741
  388MOL0     H52356  14.249   2.016   0.452  0.2044  2.2152  0.3162
  388MOL0     H52357  14.145   2.010   0.597 -0.7967 -1.1338 -0.5077
  388MOL0     H52358  14.232   2.220   0.609 -1.2105 -0.0111  0.0623
  388MOL0     H52359  14.217   2.251   0.433 -0.7121  4.7225  1.6548
  388MOL0     H52360  13.540   1.433   0.387  1.8840 -0.3712 -0.3105
  388MOL0     H52361  13.291   1.397   0.363  1.0401  2.3994  1.2583
  388MOL0     H52362  12.896   1.234   0.394  1.1188 -0.3193  0.3696
  388MOL0     H52363  12.646   1.236   0.365  0.2539 -2.1396  0.0120
  388MOL0     H52364  11.050   0.330   0.031  0.0496  0.3524 -1.5140
  388MOL0     H52365  10.876   0.226   0.122  5.7038 -0.0200 -1.0481
  388MOL0     H52366  10.569   0.104   0.322 -1.8624 -2.8063  0.2398
  388MOL0     H52367  10.462  -0.030   0.482  0.5867 -0.4419 -1.1731
  388MOL0     H52368  10.400  -0.109   0.703  0.9123  0.1588 -0.4398
  388MOL0     H52369  10.293  -0.133   0.569 -2.7273 -1.7091  0.7477
  388MOL0     H52370  10.102  -0.137   0.720  0.6763  0.9508  0.8745
  388MOL0     H52371  10.220  -0.097   0.858  0.1954  0.0418  0.6103
  388MOL0     H52372  10.292  -0.290   0.895 -3.1988 -1.0216  1.2291
  388MOL0     H52373  10.309  -0.331   0.725  0.2272  1.7965 -1.5737
  388MOL0     H52374  10.060  -0.368   0.704 -0.2800 -2.6058 -0.9166
  388MOL0     H52375  10.147  -0.477   0.811  2.1808  0.6192 -0.7758
  388MOL0     H52376   9.858  -0.300   1.074  0.6155 -0.5619  0.3799
  388MOL0     H52377  10.239   0.307   0.626 -0.4756  0.9494 -0.9728
  388MOL0     H52378  10.280   0.501   0.360 -1.6298  0.5870  0.8000
  388MOL0     H52379  10.263   0.524   0.530 -2.8721 -0.0865 -2.0666
  388MOL0     H52380  10.417   0.567   0.461 -1.0269  0.4050  2.2570
  389MOL0     O52381   7.493   3.258   9.862  0.0614  0.4123 -0.2525
  389MOL0     C52382   7.496   3.166   9.783  0.3441  1.0026  0.1819
  389MOL0     O52383   7.379   3.105   9.735 -0.4498  0.6749  1.2029
  389MOL0     C52384   7.269   3.140   9.799 -0.3747  0.3750  0.1359
  389MOL0     C52385   7.194   3.250   9.770 -1.0244  0.2248  0.0098
  389MOL0     C52386   7.082   3.288   9.843  0.8168  0.2611  0.3483
  389MOL0     C52387   7.048   3.217   9.955 -0.7631  0.4874  0.0521
  389MOL0     O52388   6.942   3.248  10.038 -0.2823 -0.4133  0.6736
  389MOL0     C52389   6.826   3.278   9.972 -0.0283 -0.3244  0.0460
  389MOL0     C52390   6.700   3.252  10.061 -0.9120  0.1312  0.4700
  389MOL0     C52391   6.697   3.121  10.118  0.1350  0.7375 -0.1842
  389MOL0     C52392   6.771   3.116  10.251 -0.1240 -0.2362  0.3156
  389MOL0     C52393   6.777   2.969  10.303 -0.2559  0.6404  0.4455
  389MOL0     C52394   6.903   2.891  10.248  0.6843 -0.2081 -0.1347
  389MOL0     C52395   6.879   2.741  10.242 -0.0510  0.1729 -0.2193
  389MOL0     C52396   6.774   2.708  10.126  0.0137  0.5375 -0.1534
  389MOL0     N52397   6.848   2.724   9.993 -0.1179 -0.7803 -0.2713
  389MOL0     C52398   6.939   2.641   9.939 -0.0576 -0.2759 -0.1940
  389MOL0     C52399   7.001   2.713   9.839  0.5951  0.5765  0.1836
  389MOL0     C52400   7.119   2.655   9.770 -0.0339 -0.2674  0.0481
  389MOL0     C52401   7.121   2.663   9.616 -0.5038  0.7342 -0.1910
  389MOL0     C52402   7.267   2.622   9.564 -0.3270  0.2614 -0.1672
  389MOL0     C52403   7.359   2.741   9.595 -0.9224 -1.4665 -0.4131
  389MOL0     O52404   7.487   2.721   9.529 -0.4663  0.0825  0.0832
  389MOL0     C52405   7.570   2.617   9.570  0.7824 -0.9747 -0.8280
  389MOL0     C52406   7.680   2.606   9.497 -1.3054 -0.0164  0.3745
  389MOL0     C52407   7.786   2.517   9.544  1.2049  1.3703 -0.7686
  389MOL0     C52408   7.765   2.435   9.661  0.2978  0.6579 -0.1612
  389MOL0     C52409   7.857   2.337   9.703 -0.8715 -0.1363 -0.8621
  389MOL0     O52410   7.838   2.289   9.826 -0.6732  0.0669  0.0032
  389MOL0     C52411   7.920   2.199   9.893  0.0849  0.3535  0.1754
  389MOL0     C52412   7.978   2.233  10.018  0.2339 -0.0639 -0.2375
  389MOL0     C52413   8.081   2.147  10.065  0.2441 -0.8188  0.0927
  389MOL0     C52414   8.111   2.027  10.010 -0.3373  0.3206  0.3808
  389MOL0     O52415   8.208   1.953  10.075  0.2314  0.5430 -0.0757
  389MOL0     C52416   8.276   1.841  10.019 -0.4177 -0.5390  0.5603
  389MOL0     C52417   8.360   1.866   9.892 -0.9917 -0.6203  0.0238
  389MOL0     C52418   8.339   1.753   9.790 -0.2876  0.5965  0.5059
  389MOL0     C52419   8.439   1.638   9.794  0.2508  0.7918 -0.0468
  389MOL0     C52420   8.430   1.513   9.703  0.4829  0.1598  0.4021
  389MOL0     C52421   8.466   1.549   9.559  0.5410  0.8487  0.0460
  389MOL0     C52422   8.470   1.424   9.471  1.5390 -0.8659  0.1372
  389MOL0     C52423   8.342   1.342   9.446  0.3094 -0.2513  0.4173
  389MOL0    Cl52424   8.204   1.443   9.391 -0.4062 -0.0859 -0.4753
  389MOL0     C52425   8.040   1.986   9.892 -0.1176 -0.2770 -0.8597
  389MOL0     C52426   7.956   2.074   9.833 -0.0947 -0.4242  0.5365
  389MOL0     O52427   7.949   2.306   9.629 -0.2895  0.0606  0.2188
  389MOL0     C52428   7.641   2.441   9.728  1.1386 -0.4021  0.8743
  389MOL0     C52429   7.544   2.532   9.684  0.4728 -0.6435  0.5836
  389MOL0     N52430   6.927   2.831   9.823 -0.4272  0.2252  1.0731
  389MOL0     N52431   6.841   2.842   9.918 -0.2976 -0.1050  0.1768
  389MOL0     C52432   7.120   3.100   9.986 -0.5041  0.0645  0.4931
  389MOL0     C52433   7.232   3.058   9.907  0.8607 -0.4851  0.2786
  389MOL0     C52434   7.622   3.135   9.722 -0.6214  0.9148  0.0942
  389MOL0     C52435   7.619   3.094   9.586 -0.0017 -0.7005  0.2750
  389MOL0     C52436   7.740   3.093   9.508  0.0605 -0.0240  0.1251
  389MOL0     C52437   7.866   3.102   9.566  0.4985  0.1603 -0.8962
  389MOL0     O52438   7.986   3.080   9.498  0.0327  0.2526 -0.4319
  389MOL0     C52439   7.995   2.984   9.392  1.3151  0.3220 -0.1043
  389MOL0     C52440   8.132   2.940   9.379  0.4382  0.5305  0.3426
  389MOL0     C52441   8.146   2.815   9.281 -0.5135  0.2862  0.6375
  389MOL0     C52442   8.077   2.685   9.321  0.2070 -0.4176  1.1740
  389MOL0     C52443   8.135   2.640   9.443 -0.7419  0.2926  0.4608
  389MOL0     C52444   8.178   2.590   9.546  1.0084  0.6078 -0.0289
  389MOL0     C52445   7.876   3.134   9.700  0.6518  0.0889  0.4571
  389MOL0     C52446   7.753   3.141   9.780  0.2529 -0.7998 -0.5268
  389MOL0     C52447   7.778   3.151   9.928  0.1907  0.2064 -0.0696
  389MOL0     H52448   7.222   3.310   9.684  1.9268 -0.0288  0.6958
  389MOL0     H52449   7.021   3.373   9.814 -1.1958 -1.4355 -0.6844
  389MOL0     H52450   6.830   3.383   9.942 -0.1192 -0.0057  1.0895
  389MOL0     H52451   6.803   3.211   9.889  1.1655  0.0940 -0.6412
  389MOL0     H52452   6.617   3.269   9.993 -0.2859  1.3408 -0.0282
  389MOL0     H52453   6.692   3.325  10.141  0.3259 -0.2562  0.9789
  389MOL0     H52454   6.735   3.052  10.042 -1.1155 -0.3614  0.1512
  389MOL0     H52455   6.593   3.086  10.125  0.5480 -0.8400 -1.3052
  389MOL0     H52456   6.872   3.158  10.248 -1.1898  2.4474 -1.8011
  389MOL0     H52457   6.711   3.181  10.316  0.4408  2.5910 -1.8064
  389MOL0     H52458   6.769   2.961  10.412  1.0017  1.9465  0.6677
  389MOL0     H52459   6.684   2.921  10.274  0.2332  1.0889 -2.0570
  389MOL0     H52460   6.923   2.925  10.146  0.1871 -1.4368 -0.6641
  389MOL0     H52461   6.996   2.923  10.294  1.3351  0.2086 -1.6686
  389MOL0     H52462   6.852   2.716  10.345  0.3413  2.9685  0.6345
  389MOL0     H52463   6.976   2.698  10.216  0.2508  1.0701 -0.5940
  389MOL0     H52464   6.736   2.605  10.130  1.1037 -0.0136 -2.3531
  389MOL0     H52465   6.684   2.770  10.136 -1.3738 -1.7744  4.0866
  389MOL0     H52466   6.965   2.541   9.973 -1.8886 -0.9491 -0.6178
  389MOL0     H52467   7.194   2.728   9.803 -2.5320  1.7392  1.7146
  389MOL0     H52468   7.132   2.551   9.799 -1.0948  0.4450  3.6163
  389MOL0     H52469   7.051   2.588   9.578  0.8135 -0.6824  0.0192
  389MOL0     H52470   7.089   2.757   9.572 -0.6447  0.5489 -0.4874
  389MOL0     H52471   7.270   2.590   9.460 -2.2031 -1.1856  0.1671
  389MOL0     H52472   7.298   2.527   9.609  2.3939  1.4843  0.7588
  389MOL0     H52473   7.370   2.766   9.701 -2.0954 -1.6332 -0.2459
  389MOL0     H52474   7.317   2.829   9.545  0.2254 -2.0789 -2.6096
  389MOL0     H52475   7.703   2.670   9.413 -0.1926 -1.3891 -0.4002
  389MOL0     H52476   7.878   2.498   9.490  0.9548 -2.3395 -0.1657
  389MOL0     H52477   7.974   2.325  10.075 -1.9537 -0.5248  0.4675
  389MOL0     H52478   8.129   2.186  10.154 -0.4914 -1.6973  0.8969
  389MOL0     H52479   8.338   1.793  10.096  0.0944 -0.6969  0.0609
  389MOL0     H52480   8.206   1.761   9.996 -0.6003 -0.4912  0.9391
  389MOL0     H52481   8.337   1.964   9.849 -0.8123 -1.9072 -3.2521
  389MOL0     H52482   8.468   1.870   9.913 -1.2796 -2.4074  2.1462
  389MOL0     H52483   8.238   1.711   9.793 -0.6421  1.4906  1.6842
  389MOL0     H52484   8.346   1.798   9.691 -6.2315  2.0137  0.3919
  389MOL0     H52485   8.448   1.605   9.898  1.6697  0.9636 -0.0967
  389MOL0     H52486   8.536   1.678   9.765  1.6340 -3.4527 -2.1549
  389MOL0     H52487   8.326   1.479   9.700  0.5789 -0.0818 -0.4512
  389MOL0     H52488   8.495   1.434   9.741  0.0110 -0.1250  0.6195
  389MOL0     H52489   8.386   1.613   9.523 -4.0629 -1.9258  4.0916
  389MOL0     H52490   8.564   1.598   9.553  2.1197 -1.3792  3.8021
  389MOL0     H52491   8.545   1.351   9.504  1.3614 -3.7072 -4.7725
  389MOL0     H52492   8.502   1.460   9.374  1.7316 -0.2602  0.4235
  389MOL0     H52493   8.366   1.261   9.377  1.0970 -0.7554  1.2612
  389MOL0     H52494   8.307   1.290   9.536  0.2191 -3.0880 -1.1283
  389MOL0     H52495   8.055   1.889   9.846 -1.4623 -0.2998 -1.2861
  389MOL0     H52496   7.889   2.050   9.751 -3.2107  1.0131  2.5017
  389MOL0     H52497   7.634   2.384   9.820  4.8743 -2.5559  0.0356
  389MOL0     H52498   7.449   2.544   9.736 -0.0821 -0.2998 -0.4900
  389MOL0     H52499   7.101   3.052  10.081  3.5590 -2.7953  0.1009
  389MOL0     H52500   7.294   2.973   9.930  1.7167  0.2562  0.7585
  389MOL0     H52501   7.528   3.067   9.532  0.3145 -2.5849  0.6177
  389MOL0     H52502   7.720   3.057   9.407 -2.1391 -1.7144  1.0686
  389MOL0     H52503   7.967   3.035   9.299  3.5226 -0.4322 -1.2298
  389MOL0     H52504   7.932   2.895   9.409  4.2376 -1.9033 -0.1723
  389MOL0     H52505   8.175   2.910   9.474 -1.7289 -2.6121  0.5175
  389MOL0     H52506   8.186   3.021   9.329  0.2812  1.7603  2.1154
  389MOL0     H52507   8.248   2.783   9.261 -1.0721 -0.5250 -1.0848
  389MOL0     H52508   8.093   2.831   9.187  0.5900 -0.1618 -0.0742
  389MOL0     H52509   7.968   2.693   9.318  0.2108  0.4134 -2.5992
  389MOL0     H52510   8.096   2.623   9.233 -1.3580  0.4005  0.2081
  389MOL0     H52511   8.229   2.547   9.629  0.7765 -1.2980 -0.8101
  389MOL0     H52512   7.971   3.141   9.752  0.9017  1.9140 -0.1680
  389MOL0     H52513   7.826   3.245   9.953 -1.1124 -0.1422  4.7625
  389MOL0     H52514   7.692   3.135   9.993  3.4152 -0.3558  4.4710
  389MOL0     H52515   7.839   3.062   9.947 -0.1926  0.7139  4.4225
  390MOL0     O52516   5.710   2.928   4.461  0.1416 -0.5771 -0.2482
  390MOL0     C52517   5.710   3.049   4.449  0.2932 -0.7534  0.0467
  390MOL0     O52518   5.791   3.142   4.516  0.3462  0.7068 -0.1141
  390MOL0     C52519   5.908   3.088   4.559  0.2622 -0.0575  0.5608
  390MOL0     C52520   6.007   3.039   4.469 -0.2730  0.5699 -0.6685
  390MOL0     C52521   6.132   3.006   4.512  0.3300 -0.9599 -0.4421
  390MOL0     C52522   6.171   3.014   4.645  1.1747  1.1820  0.8715
  390MOL0     O52523   6.304   2.992   4.673  0.9144  0.8529 -0.3075
  390MOL0     C52524   6.343   2.957   4.804  0.1592  1.3499  0.7453
  390MOL0     C52525   6.467   2.868   4.819  0.2515  0.5228 -0.4386
  390MOL0     C52526   6.601   2.942   4.762 -0.8624 -0.1288 -0.2509
  390MOL0     C52527   6.728   2.855   4.782  0.5382  0.2298  0.1998
  390MOL0     C52528   6.850   2.935   4.749 -1.0913  1.2694 -0.3484
  390MOL0     C52529   6.975   2.857   4.798 -0.9300 -0.5341  0.1862
  390MOL0     C52530   7.098   2.937   4.777 -0.9149 -0.4403  1.1121
  390MOL0     C52531   7.107   3.006   4.639  0.0523  0.4410 -0.7583
  390MOL0     N52532   7.245   3.058   4.630 -0.2264 -0.5231 -1.1405
  390MOL0     C52533   7.300   3.168   4.700  0.1835  1.2892 -0.4072
  390MOL0     C52534   7.414   3.191   4.629  0.3112  0.1164  0.0766
  390MOL0     C52535   7.527   3.282   4.663 -0.2899 -0.4224 -0.0919
  390MOL0     C52536   7.522   3.350   4.798  0.9512 -0.2650  0.5301
  390MOL0     C52537   7.533   3.258   4.913 -0.1592 -0.2533  0.1973
  390MOL0     C52538   7.688   3.255   4.954  0.1267 -0.1571  0.2323
  390MOL0     O52539   7.785   3.199   4.852 -0.5320  0.3042 -0.5503
  390MOL0     C52540   7.919   3.236   4.851 -0.5525  0.2304  1.3314
  390MOL0     C52541   7.997   3.188   4.744  0.4421  0.2652  1.1021
  390MOL0     C52542   8.133   3.221   4.736  1.0080  0.1520 -0.7337
  390MOL0     C52543   8.192   3.288   4.840 -1.1425  0.2591  1.0066
  390MOL0     C52544   8.335   3.323   4.832  0.0926 -0.2078  0.3765
  390MOL0     O52545   8.411   3.280   4.728 -0.3126  0.0782  1.1338
  390MOL0     C52546   8.541   3.318   4.720 -0.3697  0.0928 -0.5872
  390MOL0     C52547   8.579   3.447   4.698  1.1451 -0.5530 -0.3017
  390MOL0     C52548   8.719   3.485   4.704 -1.1004  0.2948  0.4522
  390MOL0     C52549   8.815   3.381   4.725  1.7175 -0.9751 -0.1334
  390MOL0     O52550   8.950   3.415   4.732  0.0152 -0.1948  0.4004
  390MOL0     C52551   9.035   3.306   4.684  0.3540 -0.4816  0.2982
  390MOL0     C52552   9.169   3.368   4.660  0.3625 -0.0398 -0.1268
  390MOL0     C52553   9.250   3.285   4.562  0.7250 -0.4190  0.2842
  390MOL0     C52554   9.303   3.162   4.633 -0.1418 -0.2962 -0.0660
  390MOL0     C52555   9.436   3.186   4.707  0.4970 -0.2836 -0.1034
  390MOL0     C52556   9.547   3.192   4.608 -0.7146  0.9588  0.7505
  390MOL0     C52557   9.678   3.219   4.676 -0.8123  0.4837 -0.0491
  390MOL0     C52558   9.681   3.366   4.727  0.3126 -0.7210 -0.5586
  390MOL0    Cl52559   9.857   3.408   4.763 -0.0549  0.0668  0.2833
  390MOL0     C52560   8.768   3.253   4.749  0.4495  0.7995  0.7651
  390MOL0     C52561   8.633   3.215   4.743 -0.0214 -0.3790 -0.0412
  390MOL0     O52562   8.381   3.388   4.926 -0.5259  0.0435 -0.0875
  390MOL0     C52563   8.115   3.337   4.946  0.1948  0.0020 -0.1085
  390MOL0     C52564   7.977   3.316   4.940 -0.2661 -0.7616 -0.0198
  390MOL0     N52565   7.429   3.100   4.524 -0.5320  0.4291 -0.1061
  390MOL0     N52566   7.325   3.024   4.527 -0.1714 -0.1348 -0.2687
  390MOL0     C52567   6.074   3.058   4.733 -0.1731 -0.4192  0.1030
  390MOL0     C52568   5.939   3.098   4.694  0.9121 -1.6937 -0.3386
  390MOL0     C52569   5.608   3.124   4.377 -0.6203  0.3065 -0.1011
  390MOL0     C52570   5.643   3.235   4.310  0.1486  0.4221 -0.0278
  390MOL0     C52571   5.556   3.305   4.237  0.5070 -0.0476  0.7616
  390MOL0     C52572   5.426   3.269   4.216 -0.1480 -0.0081  0.5261
  390MOL0     O52573   5.349   3.348   4.133  0.2482 -0.0858 -0.5386
  390MOL0     C52574   5.205   3.329   4.139  0.3914 -0.5484  0.7236
  390MOL0     C52575   5.150   3.471   4.100  0.5072 -0.0533 -0.4188
  390MOL0     C52576   5.183   3.520   3.956  0.2886 -0.6133  0.7701
  390MOL0     C52577   5.115   3.653   3.903 -0.4639 -0.4408  0.0159
  390MOL0     C52578   4.973   3.645   3.876 -0.2210  0.3340 -0.5665
  390MOL0     C52579   4.859   3.638   3.850  0.2239 -0.1052 -0.2414
  390MOL0     C52580   5.379   3.146   4.275 -0.3393  0.2263 -0.0259
  390MOL0     C52581   5.476   3.076   4.351  0.8593  0.2440  0.0357
  390MOL0     C52582   5.422   2.934   4.387 -0.3478  0.2160  0.2837
  390MOL0     H52583   5.986   3.019   4.365  0.7858  1.7814 -1.1436
  390MOL0     H52584   6.209   2.970   4.443  1.2222  0.0073  0.0210
  390MOL0     H52585   6.367   3.039   4.874  3.0264 -0.1877  1.7345
  390MOL0     H52586   6.257   2.900   4.839 -0.2720  1.7290  0.3107
  390MOL0     H52587   6.464   2.767   4.778  0.8053  0.3999 -0.1830
  390MOL0     H52588   6.482   2.852   4.927  0.2425 -0.1616 -0.5345
  390MOL0     H52589   6.609   3.033   4.821 -6.2187  1.6564 -1.7043
  390MOL0     H52590   6.588   2.970   4.657 -0.7860  0.3929 -0.1212
  390MOL0     H52591   6.734   2.815   4.883 -0.0301 -1.3017 -0.3429
  390MOL0     H52592   6.721   2.763   4.724 -0.2955 -0.3049  1.1276
  390MOL0     H52593   6.850   2.939   4.640  1.7717 -1.4709 -0.6057
  390MOL0     H52594   6.838   3.037   4.787  1.4733  1.8706 -0.9687
  390MOL0     H52595   6.970   2.834   4.904  2.6664 -0.5346  0.4663
  390MOL0     H52596   6.978   2.763   4.742  0.9160  0.9846 -2.5172
  390MOL0     H52597   7.166   2.851   4.783 -1.3521 -0.6885  3.4599
  390MOL0     H52598   7.118   3.001   4.863  0.1922 -0.2001  0.6969
  390MOL0     H52599   7.076   2.946   4.553 -0.3605 -0.3868 -0.0499
  390MOL0     H52600   7.044   3.095   4.646 -1.4821 -0.6805  0.4780
  390MOL0     H52601   7.256   3.212   4.789 -0.3583 -0.5757  0.2968
  390MOL0     H52602   7.621   3.227   4.648 -0.1157 -0.3717  0.7675
  390MOL0     H52603   7.529   3.355   4.582 -0.0145 -0.6883 -0.3276
  390MOL0     H52604   7.587   3.436   4.818 -1.8681  1.3776  3.6582
  390MOL0     H52605   7.422   3.395   4.795  0.5673 -1.1423 -0.2496
  390MOL0     H52606   7.495   3.158   4.894 -2.2036  0.4587  0.2461
  390MOL0     H52607   7.474   3.297   4.997 -3.8919 -2.1390 -1.3424
  390MOL0     H52608   7.712   3.193   5.041  1.9089  1.3997  0.9181
  390MOL0     H52609   7.710   3.358   4.983 -1.2870 -0.1369  1.3306
  390MOL0     H52610   7.968   3.125   4.660  0.5398  0.3924  0.9712
  390MOL0     H52611   8.185   3.192   4.645  1.3203 -0.2642 -0.4259
  390MOL0     H52612   8.511   3.531   4.688  1.8983 -0.0555 -1.5931
  390MOL0     H52613   8.749   3.588   4.686 -0.7288  0.3248  1.2179
  390MOL0     H52614   9.032   3.235   4.767 -3.9582 -0.1359  0.6640
  390MOL0     H52615   9.001   3.277   4.584  0.2651  1.7038 -0.3706
  390MOL0     H52616   9.148   3.467   4.618  1.9558 -0.0186 -0.9272
  390MOL0     H52617   9.219   3.383   4.757 -0.2655 -1.9812  0.5419
  390MOL0     H52618   9.185   3.241   4.486  2.2535 -1.0845 -0.6968
  390MOL0     H52619   9.323   3.347   4.509  0.6208  0.6584  1.3559
  390MOL0     H52620   9.308   3.083   4.557  1.4983  1.1862 -1.5905
  390MOL0     H52621   9.224   3.125   4.699  2.3361 -0.7622  2.8410
  390MOL0     H52622   9.444   3.099   4.773 -0.8880  0.3783  1.0126
  390MOL0     H52623   9.428   3.282   4.760 -0.5777  0.4348 -1.4964
  390MOL0     H52624   9.566   3.097   4.557  1.6633  0.9647  1.4803
  390MOL0     H52625   9.524   3.269   4.535  1.0330 -0.5132 -1.4707
  390MOL0     H52626   9.759   3.210   4.602  2.4185  1.0826  3.1309
  390MOL0     H52627   9.703   3.144   4.752  1.9509  0.4218 -0.9192
  390MOL0     H52628   9.649   3.430   4.645  0.5184 -2.2919 -1.9050
  390MOL0     H52629   9.613   3.367   4.813 -1.3095 -0.3503 -1.8196
  390MOL0     H52630   8.839   3.175   4.774 -1.9821 -1.4914  1.0569
  390MOL0     H52631   8.589   3.116   4.753 -0.1229 -0.3613 -0.2931
  390MOL0     H52632   8.154   3.403   5.022 -1.3537  0.5141  0.2824
  390MOL0     H52633   7.921   3.369   5.016  0.7444 -0.3891  0.4897
  390MOL0     H52634   6.100   3.070   4.838 -1.4825 -1.7052  0.6031
  390MOL0     H52635   5.866   3.146   4.758  1.2641 -0.9131 -0.5184
  390MOL0     H52636   5.748   3.264   4.306  0.3897 -0.4134 -3.7612
  390MOL0     H52637   5.595   3.389   4.180 -1.1701 -1.5995 -3.0671
  390MOL0     H52638   5.156   3.315   4.236 -2.0106 -1.0450 -0.4798
  390MOL0     H52639   5.173   3.254   4.065  1.8466 -2.0467  1.5319
  390MOL0     H52640   5.183   3.541   4.176 -4.4866  0.7136  1.4626
  390MOL0     H52641   5.042   3.462   4.115  0.5921 -3.0908 -1.0096
  390MOL0     H52642   5.186   3.443   3.878 -3.0641  0.7824 -0.9517
  390MOL0     H52643   5.287   3.545   3.979  0.9743 -2.2802 -0.3228
  390MOL0     H52644   5.133   3.734   3.975 -0.8967  2.0884 -2.5254
  390MOL0     H52645   5.166   3.681   3.810 -0.3560 -0.3295  0.1090
  390MOL0     H52646   4.758   3.621   3.820  0.3626 -1.8958  0.1844
  390MOL0     H52647   5.284   3.104   4.245  1.9541 -4.8285 -1.4492
  390MOL0     H52648   5.317   2.922   4.361 -0.3839  2.4340 -0.9068
  390MOL0     H52649   5.461   2.860   4.316 -1.0005 -0.3893  0.5484
  390MOL0     H52650   5.429   2.901   4.491  0.8324  0.3602  0.2674
  391MOL0     O52651   8.556   5.987   3.901  0.4752 -0.9988 -0.4583
  391MOL0     C52652   8.526   6.031   3.792 -0.7636  0.3746  0.6375
  391MOL0     O52653   8.615   6.031   3.687 -0.1833  0.0900  0.1760
  391MOL0     C52654   8.738   6.036   3.728  0.1672 -0.7513 -0.0272
  391MOL0     C52655   8.791   6.134   3.809  0.4878 -0.2622  0.3518
  391MOL0     C52656   8.921   6.125   3.857  0.1596 -0.5103  0.1362
  391MOL0     C52657   9.012   6.020   3.820  0.6950  0.2989  0.3994
  391MOL0     O52658   9.142   6.023   3.872  0.1510 -0.3319  0.7382
  391MOL0     C52659   9.192   5.896   3.904 -0.0573  0.0492 -1.0799
  391MOL0     C52660   9.339   5.890   3.952  0.1658  0.5745 -0.3775
  391MOL0     C52661   9.419   5.752   3.966  1.5508 -0.1578  0.8676
  391MOL0     C52662   9.358   5.630   4.022  0.4895  0.4769  0.2675
  391MOL0     C52663   9.452   5.516   4.047  0.5164  0.6904  0.1307
  391MOL0     C52664   9.564   5.530   4.146  0.2598  0.2291 -0.4702
  391MOL0     C52665   9.646   5.397   4.146 -0.3235  0.3187  0.0526
  391MOL0     C52666   9.631   5.302   4.269 -0.0049  0.0571 -0.4148
  391MOL0     N52667   9.731   5.195   4.273  0.4090  0.2883  1.1596
  391MOL0     C52668   9.776   5.109   4.170  0.1396  0.8598  0.5002
  391MOL0     C52669   9.856   5.017   4.232  0.5520  0.5156  0.6816
  391MOL0     C52670   9.958   4.927   4.171  1.2328  0.6010  0.3852
  391MOL0     C52671  10.111   4.957   4.163 -0.0113 -0.9688 -0.6423
  391MOL0     C52672  10.176   4.839   4.089 -0.0588 -0.2317  0.6151
  391MOL0     C52673  10.332   4.835   4.081 -0.4506 -0.4530  0.8653
  391MOL0     O52674  10.385   4.901   3.968  0.3679 -0.6678  0.3385
  391MOL0     C52675  10.511   4.959   3.966  0.3833 -0.3950  0.2240
  391MOL0     C52676  10.524   5.075   3.890  0.4697  0.1045  0.1152
  391MOL0     C52677  10.645   5.137   3.899 -0.3093 -0.2501 -0.0661
  391MOL0     C52678  10.754   5.089   3.978  0.6952 -0.4101  0.3326
  391MOL0     C52679  10.890   5.152   3.979 -0.5113 -0.0222 -0.9366
  391MOL0     O52680  10.931   5.247   3.888 -0.4826 -0.6030  0.3204
  391MOL0     C52681  11.046   5.319   3.898  0.3222  0.2826  0.0683
  391MOL0     C52682  11.128   5.327   4.010  0.2377 -1.0534  0.3116
  391MOL0     C52683  11.259   5.373   3.990  0.4169 -0.5939  0.0032
  391MOL0     C52684  11.288   5.437   3.870 -0.1607 -0.3596 -0.6416
  391MOL0     O52685  11.406   5.500   3.851  0.2846  0.1944 -0.8509
  391MOL0     C52686  11.479   5.553   3.962  0.3854  0.8966 -0.0416
  391MOL0     C52687  11.604   5.633   3.924 -0.5088  0.3418  0.4258
  391MOL0     C52688  11.675   5.686   4.052  0.5170  0.5285  1.4466
  391MOL0     C52689  11.601   5.820   4.085  0.6070  0.7558  0.0922
  391MOL0     C52690  11.649   5.856   4.216 -0.0376  0.3166  0.4939
  391MOL0     C52691  11.565   5.784   4.337 -1.2366 -0.8499 -0.4206
  391MOL0     C52692  11.628   5.818   4.476  0.1674  0.8989 -0.0152
  391MOL0     C52693  11.572   5.953   4.531  0.5406 -0.0593  0.2217
  391MOL0    Cl52694  11.684   6.018   4.664 -0.0211 -0.0772  0.1275
  391MOL0     C52695  11.195   5.445   3.769 -1.3791 -0.3285  0.5992
  391MOL0     C52696  11.073   5.391   3.781  0.1182 -0.1787 -0.3887
  391MOL0     O52697  10.958   5.105   4.069  0.8426 -0.4467 -0.1969
  391MOL0     C52698  10.737   4.969   4.045  0.3599 -1.1883 -0.2203
  391MOL0     C52699  10.616   4.904   4.041 -0.2850 -0.3977  0.6523
  391MOL0     N52700   9.861   5.051   4.366  0.5596 -0.0962  0.2181
  391MOL0     N52701   9.788   5.147   4.387  0.7352 -0.0082 -0.3259
  391MOL0     C52702   8.951   5.920   3.742 -0.0127  0.2109  0.0701
  391MOL0     C52703   8.818   5.928   3.699 -0.1333 -0.5328 -1.3234
  391MOL0     C52704   8.389   6.037   3.758 -0.0313  0.2197  0.4026
  391MOL0     C52705   8.342   5.984   3.638  0.1615 -0.1312 -1.0972
  391MOL0     C52706   8.205   5.991   3.601  0.4455  0.5551  0.3763
  391MOL0     C52707   8.109   6.067   3.679  0.1323  0.6086 -0.1938
  391MOL0     O52708   7.975   6.097   3.664 -0.2112 -0.6154  0.0091
  391MOL0     C52709   7.899   5.995   3.604  1.0196  0.4457 -0.0668
  391MOL0     C52710   7.756   6.028   3.642 -0.8622  0.0107 -0.1048
  391MOL0     C52711   7.646   5.931   3.599 -0.2194 -0.4620  0.5021
  391MOL0     C52712   7.516   5.934   3.678  0.8196 -0.5071 -0.4245
  391MOL0     C52713   7.527   5.873   3.810 -0.7026  0.2275  0.1010
  391MOL0     C52714   7.557   5.813   3.911  0.5367 -0.9751  0.6301
  391MOL0     C52715   8.157   6.102   3.811 -0.0811 -1.1893 -0.3920
  391MOL0     C52716   8.295   6.095   3.850  0.2384 -0.6094  0.6270
  391MOL0     C52717   8.338   6.156   3.979 -0.3126 -1.2365  0.0799
  391MOL0     H52718   8.733   6.210   3.861 -0.3304  0.4242 -1.4890
  391MOL0     H52719   8.952   6.206   3.922  0.3764  0.4383 -1.1126
  391MOL0     H52720   9.128   5.845   3.976 -0.2249 -0.3735 -1.5200
  391MOL0     H52721   9.179   5.831   3.817 -3.2417 -0.2340 -0.5402
  391MOL0     H52722   9.342   5.946   4.046  1.3354 -0.4347  0.2220
  391MOL0     H52723   9.405   5.946   3.886 -0.0895 -0.1916 -1.3118
  391MOL0     H52724   9.500   5.781   4.033  1.5694 -0.7158  1.0876
  391MOL0     H52725   9.456   5.726   3.867 -0.5543 -1.6676  0.4078
  391MOL0     H52726   9.329   5.657   4.124  2.8287 -1.5339  1.5468
  391MOL0     H52727   9.272   5.593   3.965  1.5410 -4.1188  1.2153
  391MOL0     H52728   9.396   5.425   4.071 -2.0580  2.2337  0.2610
  391MOL0     H52729   9.499   5.492   3.950  1.1274  0.7779  0.3970
  391MOL0     H52730   9.633   5.608   4.113 -0.7212  1.6827  0.7657
  391MOL0     H52731   9.528   5.550   4.248  2.1841  0.0132  0.2918
  391MOL0     H52732   9.750   5.429   4.145 -0.2582  0.1068 -0.0436
  391MOL0     H52733   9.635   5.343   4.051 -0.8891  0.4283  0.0545
  391MOL0     H52734   9.626   5.359   4.362  0.4486  3.7076 -2.4441
  391MOL0     H52735   9.529   5.262   4.268  0.6822 -2.7170  5.2500
  391MOL0     H52736   9.770   5.111   4.062  1.1836 -1.3576  0.3665
  391MOL0     H52737   9.943   4.836   4.230 -1.7060 -0.0067 -1.0994
  391MOL0     H52738   9.939   4.901   4.066  3.0817 -0.8448  0.3631
  391MOL0     H52739  10.136   5.050   4.111  0.9033 -1.0745 -0.4058
  391MOL0     H52740  10.151   4.972   4.264 -1.3101 -1.9248  0.0545
  391MOL0     H52741  10.128   4.823   3.992 -2.5743 -0.4096  1.8287
  391MOL0     H52742  10.148   4.752   4.148 -0.6565  1.0014  2.2285
  391MOL0     H52743  10.367   4.732   4.086  1.4186 -0.0796 -2.2168
  391MOL0     H52744  10.344   4.893   4.173  0.5433  2.4239 -0.9316
  391MOL0     H52745  10.435   5.115   3.842  0.6614 -0.4771 -0.7567
  391MOL0     H52746  10.659   5.229   3.842  0.6603 -0.2697  0.1172
  391MOL0     H52747  11.092   5.282   4.102  2.0532 -4.9599 -0.6403
  391MOL0     H52748  11.322   5.379   4.078  0.8815  2.4037 -0.4329
  391MOL0     H52749  11.412   5.617   4.020 -1.1265  0.4234 -1.2214
  391MOL0     H52750  11.521   5.470   4.020  0.8484 -2.1394 -4.2722
  391MOL0     H52751  11.676   5.563   3.880 -0.8825  0.7864 -0.9519
  391MOL0     H52752  11.587   5.709   3.847 -0.7250 -0.4485 -0.3270
  391MOL0     H52753  11.662   5.609   4.128 -0.3482 -0.1571  0.6382
  391MOL0     H52754  11.779   5.704   4.023  0.1239 -1.8371 -2.1085
  391MOL0     H52755  11.494   5.798   4.083  1.0735 -1.8791 -0.2137
  391MOL0     H52756  11.625   5.897   4.011  2.5504  0.0830 -0.0362
  391MOL0     H52757  11.635   5.964   4.225 -1.9739 -0.0021  1.7959
  391MOL0     H52758  11.757   5.836   4.220 -0.1281 -0.9594 -2.0264
  391MOL0     H52759  11.461   5.818   4.345 -0.3155  1.9431  1.4346
  391MOL0     H52760  11.572   5.676   4.331  1.1149 -0.8474  0.9813
  391MOL0     H52761  11.737   5.820   4.481  0.1326  1.9714  0.9728
  391MOL0     H52762  11.605   5.735   4.543  1.2650 -1.1316 -2.0269
  391MOL0     H52763  11.578   6.017   4.443  0.8056 -1.4936 -0.8384
  391MOL0     H52764  11.468   5.940   4.562 -0.0117 -0.6571 -1.7211
  391MOL0     H52765  11.221   5.496   3.677  3.2954 -0.0608  1.7941
  391MOL0     H52766  11.005   5.405   3.698  0.6999  0.9439 -0.6951
  391MOL0     H52767  10.811   4.932   4.116 -0.2809  0.5149  1.4420
  391MOL0     H52768  10.607   4.811   4.095 -0.2565 -0.3666  0.7116
  391MOL0     H52769   9.013   5.833   3.723 -1.2393 -0.5575 -0.5225
  391MOL0     H52770   8.799   5.832   3.651  0.1307 -1.3908  0.2186
  391MOL0     H52771   8.417   5.940   3.573  0.1687  1.6386 -2.3446
  391MOL0     H52772   8.165   5.945   3.512 -1.1719  0.1192  1.2730
  391MOL0     H52773   7.929   5.901   3.651  3.4672  0.6521 -1.0530
  391MOL0     H52774   7.903   5.991   3.495 -1.1686  2.3748 -0.3002
  391MOL0     H52775   7.734   6.129   3.604 -0.7710  0.4937  1.0725
  391MOL0     H52776   7.754   6.036   3.751 -1.5948  0.7345 -0.1544
  391MOL0     H52777   7.683   5.828   3.597  1.7452  0.2072 -0.5617
  391MOL0     H52778   7.633   5.948   3.492  4.0409 -1.8581 -0.4639
  391MOL0     H52779   7.472   6.034   3.673 -1.7177 -1.5960 -2.6332
  391MOL0     H52780   7.441   5.879   3.620 -0.8042  1.1657 -0.0068
  391MOL0     H52781   7.583   5.754   3.996  2.6667 -2.4284 -0.9038
  391MOL0     H52782   8.107   6.166   3.883  1.0008 -1.4195  0.5929
  391MOL0     H52783   8.355   6.072   4.048  1.7984 -0.2748  0.7997
  391MOL0     H52784   8.436   6.204   3.976 -0.3413 -1.0952  0.9754
  391MOL0     H52785   8.263   6.220   4.025  0.9380 -1.8711  3.3205
  392MOL0     O52786   1.333   8.928  11.025  0.4428 -0.1474  0.0741
  392MOL0     C52787   1.393   8.827  11.052 -0.2899 -1.1173  0.1420
  392MOL0     O52788   1.527   8.810  11.035  0.7322 -0.7112  0.0980
  392MOL0     C52789   1.594   8.897  10.950  0.4368  0.5535 -0.1188
  392MOL0     C52790   1.725   8.922  10.985 -0.5938  0.5680  0.3078
  392MOL0     C52791   1.800   9.000  10.907 -0.8406  0.2579 -0.8173
  392MOL0     C52792   1.760   9.052  10.782 -0.0820  0.7042  0.0211
  392MOL0     O52793   1.831   9.143  10.709 -0.9110  0.2664 -0.4661
  392MOL0     C52794   1.768   9.275  10.711 -0.2183  0.0584 -0.2384
  392MOL0     C52795   1.871   9.371  10.767 -0.1374 -0.0413  0.5529
  392MOL0     C52796   1.987   9.397  10.671  0.8423  0.8058  0.1285
  392MOL0     C52797   1.955   9.490  10.553  0.2842 -0.1562  0.2780
  392MOL0     C52798   2.067   9.494  10.444 -1.1753  0.4380 -0.4887
  392MOL0     C52799   2.207   9.513  10.498  0.2417 -0.5577 -0.3087
  392MOL0     C52800   2.317   9.537  10.395 -0.3666  0.1599 -0.2679
  392MOL0     C52801   2.465   9.521  10.458  0.4634  0.1030 -0.0669
  392MOL0     N52802   2.571   9.487  10.355  0.2381 -0.6223 -0.5670
  392MOL0     C52803   2.639   9.577  10.273 -0.6725  0.3802 -0.1874
  392MOL0     C52804   2.715   9.495  10.193 -0.4798 -0.5986 -0.0327
  392MOL0     C52805   2.797   9.543  10.077 -0.2430 -0.1720 -1.6530
  392MOL0     C52806   2.936   9.576  10.143 -0.8964 -0.9096 -0.1604
  392MOL0     C52807   3.042   9.645  10.055 -0.5195  0.0174  0.1596
  392MOL0     C52808   3.175   9.640  10.112 -0.4930 -0.1928 -0.6352
  392MOL0     O52809   3.277   9.714  10.031 -0.2468  0.5409 -0.8238
  392MOL0     C52810   3.405   9.720  10.090  0.4630  0.2707 -0.0661
  392MOL0     C52811   3.503   9.783  10.014  0.3630  0.7884 -0.1161
  392MOL0     C52812   3.632   9.797  10.052 -0.5165  0.4044  0.0118
  392MOL0     C52813   3.674   9.759  10.178 -0.1313 -0.2353 -0.5512
  392MOL0     C52814   3.804   9.782  10.224 -0.7289  0.4046  0.4351
  392MOL0     O52815   3.882   9.852  10.133 -1.1916  0.5609 -0.4404
  392MOL0     C52816   4.014   9.884  10.173 -0.4547  0.0174  0.8204
  392MOL0     C52817   4.115   9.796  10.236 -0.7849 -0.1507  0.0001
  392MOL0     C52818   4.241   9.843  10.258  0.1341 -0.3938 -0.4748
  392MOL0     C52819   4.283   9.967  10.230 -0.7070  0.1725 -0.6388
  392MOL0     O52820   4.420   9.986  10.258  0.3232 -0.7283 -0.4396
  392MOL0     C52821   4.452  10.118  10.307 -0.2778 -0.3508 -0.0275
  392MOL0     C52822   4.586  10.114  10.372 -0.7118 -0.4150 -0.2314
  392MOL0     C52823   4.630  10.242  10.438 -0.6638 -0.3862 -0.0370
  392MOL0     C52824   4.761  10.217  10.510 -0.3685 -0.2607 -0.4783
  392MOL0     C52825   4.804  10.344  10.582  0.1404  0.3145  0.1116
  392MOL0     C52826   4.946  10.329  10.636  0.7472 -0.0325  0.1509
  392MOL0     C52827   4.977  10.437  10.740  1.0539  0.1805 -0.2489
  392MOL0     C52828   5.126  10.457  10.764  0.6527 -0.0848  0.8445
  392MOL0    Cl52829   5.209  10.307  10.807 -0.1499 -0.2383 -0.0395
  392MOL0     C52830   4.187  10.058  10.178  0.4808 -0.2315 -0.4300
  392MOL0     C52831   4.056  10.017  10.153  0.5451  0.0683 -0.6753
  392MOL0     O52832   3.841   9.754  10.337 -0.2245 -0.3362  0.0173
  392MOL0     C52833   3.580   9.693  10.259 -0.3965  0.6150  0.6952
  392MOL0     C52834   3.448   9.662  10.213 -0.0693 -0.9539  0.1108
  392MOL0     N52835   2.694   9.363  10.225  0.3359 -0.2650  0.2782
  392MOL0     N52836   2.606   9.360  10.328 -0.6218  0.4630 -0.6028
  392MOL0     C52837   1.635   9.012  10.738 -0.0146  0.5858 -0.1775
  392MOL0     C52838   1.546   8.938  10.820 -0.3625 -0.2957  0.2089
  392MOL0     C52839   1.317   8.717  11.125 -0.3238  0.0249  0.0160
  392MOL0     C52840   1.178   8.728  11.146  0.3108 -0.1624 -0.0587
  392MOL0     C52841   1.103   8.628  11.212  0.6758 -0.0650 -0.1063
  392MOL0     C52842   1.165   8.507  11.252  0.0421  0.6977 -0.5071
  392MOL0     O52843   1.100   8.406  11.324 -0.1655  0.3201  0.1705
  392MOL0     C52844   0.966   8.406  11.303  0.6959 -0.0074  0.3638
  392MOL0     C52845   0.900   8.286  11.374 -0.2149 -0.2023  0.0748
  392MOL0     C52846   0.944   8.142  11.336 -0.0882 -0.1280 -0.9388
  392MOL0     C52847   0.937   8.113  11.196 -0.1493  0.0665  0.9182
  392MOL0     C52848   0.986   7.972  11.178  1.1449 -0.1089  0.3221
  392MOL0     C52849   1.048   7.863  11.174  0.2602  0.5563 -0.0720
  392MOL0     C52850   1.304   8.502  11.237 -0.6939 -0.1808 -0.8443
  392MOL0     C52851   1.378   8.604  11.175 -0.5314  0.2059  0.5390
  392MOL0     C52852   1.532   8.573  11.168  0.7531  0.6977 -0.1104
  392MOL0     H52853   1.764   8.872  11.073 -1.0223  0.4379  0.4232
  392MOL0     H52854   1.898   9.012  10.953 -1.1639 -1.3296  0.3660
  392MOL0     H52855   1.737   9.313  10.613 -0.7631  1.1594  0.3422
  392MOL0     H52856   1.675   9.282  10.769  0.0973  1.7650  0.1067
  392MOL0     H52857   1.916   9.320  10.853 -1.2310 -2.9568 -0.4878
  392MOL0     H52858   1.828   9.464  10.804 -0.1838  0.6438 -1.1323
  392MOL0     H52859   2.025   9.303  10.630  1.0366  0.8487  0.2091
  392MOL0     H52860   2.074   9.438  10.724  0.7434  0.0170  0.9208
  392MOL0     H52861   1.871   9.450  10.495 -0.7157 -1.1944  2.3468
  392MOL0     H52862   1.928   9.588  10.593  0.9254  0.2723 -0.3080
  392MOL0     H52863   2.069   9.404  10.381  2.3786  0.2969 -0.3425
  392MOL0     H52864   2.063   9.581  10.378  0.6614  0.3694 -0.7436
  392MOL0     H52865   2.202   9.600  10.564 -0.8640 -0.0900 -0.9874
  392MOL0     H52866   2.231   9.419  10.548  0.8274  0.9042  2.3438
  392MOL0     H52867   2.311   9.637  10.351 -1.9237  0.8831  1.4501
  392MOL0     H52868   2.301   9.458  10.322  2.4228 -1.2030  0.4708
  392MOL0     H52869   2.488   9.611  10.514  2.1641  1.2898 -2.5126
  392MOL0     H52870   2.467   9.428  10.517 -2.7530 -1.5770 -2.2703
  392MOL0     H52871   2.637   9.685  10.262  1.3899  0.4727 -0.0990
  392MOL0     H52872   2.803   9.462  10.004  3.9009 -1.8616  0.2121
  392MOL0     H52873   2.743   9.631  10.040 -0.0376  1.0616  0.7623
  392MOL0     H52874   2.919   9.641  10.229  0.1264 -1.0360  0.1499
  392MOL0     H52875   2.982   9.484  10.181  0.4922 -0.0004  0.4445
  392MOL0     H52876   2.991   9.741  10.045  0.1916  0.2766 -1.2983
  392MOL0     H52877   3.049   9.605   9.954 -2.1275  1.6672 -0.6739
  392MOL0     H52878   3.211   9.537  10.123 -4.4554 -1.9800 -2.3750
  392MOL0     H52879   3.166   9.692  10.208 -0.7693  0.5604 -1.0606
  392MOL0     H52880   3.475   9.818   9.916  0.7577 -0.8508 -0.8505
  392MOL0     H52881   3.701   9.835   9.978 -0.9999  0.4690 -0.4108
  392MOL0     H52882   4.098   9.698  10.277 -1.3805  0.2984  0.8545
  392MOL0     H52883   4.309   9.774  10.306 -1.5667 -3.4995 -2.1700
  392MOL0     H52884   4.453  10.192  10.226  2.7638  2.9518  2.6607
  392MOL0     H52885   4.380  10.162  10.377 -0.3628  0.9462 -0.8908
  392MOL0     H52886   4.584  10.029  10.440 -0.3595  0.8586  1.4479
  392MOL0     H52887   4.660  10.105  10.291 -1.2350  1.0586 -0.9137
  392MOL0     H52888   4.646  10.319  10.362 -1.2391  2.2054  2.3259
  392MOL0     H52889   4.559  10.267  10.516  0.1230 -1.7475  1.1713
  392MOL0     H52890   4.845  10.185  10.447  0.9417 -0.8322  1.4850
  392MOL0     H52891   4.749  10.137  10.584 -0.5812 -0.8326 -1.1214
  392MOL0     H52892   4.717  10.365  10.645  1.3602  0.2589  1.8885
  392MOL0     H52893   4.817  10.420  10.504 -1.3827 -0.3655 -0.8548
  392MOL0     H52894   4.943  10.236  10.692 -0.9262 -0.9187 -1.3005
  392MOL0     H52895   5.012  10.324  10.549  0.1195  0.7736 -0.3949
  392MOL0     H52896   4.942  10.407  10.840  1.2748  0.8263  0.0284
  392MOL0     H52897   4.930  10.536  10.733 -2.7548 -1.3656  1.0023
  392MOL0     H52898   5.176  10.502  10.678  0.3060  0.7907  1.0889
  392MOL0     H52899   5.135  10.539  10.836  0.5083  1.1174 -0.4618
  392MOL0     H52900   4.219  10.160  10.160  1.3506  0.1265  2.4468
  392MOL0     H52901   3.990  10.099  10.127  0.8266  0.8056  0.8247
  392MOL0     H52902   3.612   9.661  10.357 -1.4228  0.1807  0.9094
  392MOL0     H52903   3.392   9.589  10.271 -1.3106  0.9830  1.4810
  392MOL0     H52904   1.594   9.048  10.644 -2.7988  1.3596  1.2054
  392MOL0     H52905   1.447   8.909  10.786 -0.7923 -0.8278  1.8347
  392MOL0     H52906   1.134   8.814  11.097  2.6242 -0.0111 -2.0639
  392MOL0     H52907   0.999   8.659  11.220  0.8332  1.8185 -3.5413
  392MOL0     H52908   0.951   8.400  11.195 -1.5194 -0.7367  0.6563
  392MOL0     H52909   0.917   8.497  11.338  3.0434  1.9838 -1.2325
  392MOL0     H52910   0.793   8.286  11.349 -0.1126  1.5074 -0.4624
  392MOL0     H52911   0.913   8.290  11.483  1.9735 -1.4028 -0.0857
  392MOL0     H52912   0.881   8.082  11.402 -1.1308  0.3882 -1.4353
  392MOL0     H52913   1.044   8.114  11.370 -0.9147 -0.9395  0.9624
  392MOL0     H52914   0.835   8.123  11.156  0.7636 -1.0410 -1.9698
  392MOL0     H52915   0.991   8.187  11.136 -0.3317 -0.0643  0.5858
  392MOL0     H52916   1.089   7.764  11.170 -3.3099 -1.3906  3.6018
  392MOL0     H52917   1.355   8.416  11.280  0.5771  0.4549 -1.0090
  392MOL0     H52918   1.549   8.473  11.210 -2.9624 -0.0723 -0.0710
  392MOL0     H52919   1.589   8.578  11.075  1.9205  0.5087  0.5697
  392MOL0     H52920   1.576   8.646  11.236  0.3372  1.2510 -0.4291
  393MOL0     O52921   1.017   9.061   3.815 -0.0353 -0.4557 -0.0155
  393MOL0     C52922   1.074   9.119   3.913 -0.8827  0.0114 -0.0436
  393MOL0     O52923   1.041   9.093   4.041 -0.0534  0.3566 -0.4155
  393MOL0     C52924   0.953   8.991   4.061  0.3963 -0.6167  0.1227
  393MOL0     C52925   0.819   9.005   4.034 -0.3792 -0.2211 -0.0909
  393MOL0     C52926   0.734   8.905   4.060  0.0651  0.4656 -0.0906
  393MOL0     C52927   0.772   8.788   4.117 -0.4050 -0.0104  0.8158
  393MOL0     O52928   0.673   8.690   4.137 -0.6599  0.1853  0.0372
  393MOL0     C52929   0.717   8.574   4.210  0.6552 -0.8530  0.4514
  393MOL0     C52930   0.595   8.485   4.228 -0.1263 -0.0644 -0.2323
  393MOL0     C52931   0.468   8.557   4.281 -0.3517  0.4039 -0.6241
  393MOL0     C52932   0.359   8.461   4.339 -0.2024 -0.8318  0.1025
  393MOL0     C52933   0.222   8.531   4.320 -0.8702  0.1010 -0.5526
  393MOL0     C52934   0.113   8.435   4.375  0.3553  0.5060  0.4086
  393MOL0     C52935  -0.028   8.489   4.331 -0.1560 -0.4192 -0.4008
  393MOL0     C52936  -0.145   8.399   4.364 -0.5908 -0.2126 -0.3974
  393MOL0     N52937  -0.169   8.382   4.506  0.1684 -0.0424 -0.0683
  393MOL0     C52938  -0.216   8.474   4.595 -0.1544 -0.1048 -0.6862
  393MOL0     C52939  -0.221   8.399   4.712 -0.2353 -0.1975  0.5502
  393MOL0     C52940  -0.243   8.436   4.863 -0.4376  0.2293  0.1270
  393MOL0     C52941  -0.113   8.416   4.941  0.2916 -0.4475  0.0311
  393MOL0     C52942  -0.128   8.518   5.063 -0.1296  0.9277 -1.0916
  393MOL0     C52943   0.011   8.528   5.141  0.6785 -0.0835  0.3782
  393MOL0     O52944   0.091   8.611   5.051  0.4859  1.2006 -0.1975
  393MOL0     C52945   0.217   8.631   5.096 -0.3028  0.5433 -0.5929
  393MOL0     C52946   0.295   8.532   5.154 -2.0384 -1.0922 -1.0055
  393MOL0     C52947   0.429   8.552   5.186  0.4185  0.1367 -0.1754
  393MOL0     C52948   0.485   8.684   5.170 -0.1764  0.6059  0.5524
  393MOL0     C52949   0.621   8.712   5.210  0.2620  0.7752 -0.0165
  393MOL0     O52950   0.662   8.842   5.220  0.4530  0.0310  0.5725
  393MOL0     C52951   0.796   8.874   5.223 -0.5601 -0.2091  0.4247
  393MOL0     C52952   0.878   8.847   5.335  0.3755  0.3389 -0.5320
  393MOL0     C52953   1.007   8.884   5.331  0.9970 -0.1752  0.2610
  393MOL0     C52954   1.056   8.953   5.225  0.3568  0.1733 -0.3899
  393MOL0     O52955   1.184   8.986   5.221 -0.5293 -0.1476 -0.1026
  393MOL0     C52956   1.218   9.104   5.158 -0.7491  0.0787  0.1021
  393MOL0     C52957   1.355   9.148   5.201 -0.1252 -0.2437 -0.4470
  393MOL0     C52958   1.359   9.193   5.346 -0.3354  0.4081 -0.1749
  393MOL0     C52959   1.486   9.255   5.399 -0.1462  0.2203  0.5219
  393MOL0     C52960   1.584   9.152   5.460 -0.3152  0.1131 -0.5178
  393MOL0     C52961   1.691   9.205   5.554 -0.2600  0.6719  0.5488
  393MOL0     C52962   1.777   9.097   5.622 -0.0622  0.0736  0.3518
  393MOL0     C52963   1.857   8.993   5.532 -0.4689  1.1185 -0.6731
  393MOL0    Cl52964   1.951   8.872   5.644  0.1487 -0.1094  0.3694
  393MOL0     C52965   0.977   8.977   5.107  0.5872 -0.1054 -0.5580
  393MOL0     C52966   0.848   8.924   5.108  0.0576  0.0900 -0.0622
  393MOL0     O52967   0.696   8.613   5.217  0.1563  0.4396 -0.2111
  393MOL0     C52968   0.412   8.788   5.122 -0.0568 -0.3007  0.0435
  393MOL0     C52969   0.280   8.762   5.096  0.7905 -0.4178  0.0373
  393MOL0     N52970  -0.183   8.267   4.689 -0.1047  0.4460 -0.0947
  393MOL0     N52971  -0.155   8.258   4.562  0.2511  0.2397  0.0552
  393MOL0     C52972   0.904   8.784   4.172  0.3406 -0.9269 -1.1716
  393MOL0     C52973   0.987   8.888   4.151 -0.7071 -0.3605  0.2231
  393MOL0     C52974   1.181   9.219   3.862  0.7637  1.1037 -0.2288
  393MOL0     C52975   1.176   9.255   3.734  0.5675 -0.1685  0.4000
  393MOL0     C52976   1.254   9.351   3.681 -0.5792  0.3812  0.3380
  393MOL0     C52977   1.347   9.414   3.761 -0.1153 -0.0306  0.5420
  393MOL0     O52978   1.432   9.507   3.707 -0.5390  0.1693 -0.2727
  393MOL0     C52979   1.385   9.588   3.597  0.5354 -0.4996 -0.5439
  393MOL0     C52980   1.452   9.555   3.469  0.6388 -0.6851  0.0735
  393MOL0     C52981   1.584   9.629   3.462  0.0161 -0.0188  0.5351
  393MOL0     C52982   1.670   9.594   3.347 -0.4664  0.2752  0.4479
  393MOL0     C52983   1.798   9.662   3.340  1.5227 -0.0066 -0.0790
  393MOL0     C52984   1.900   9.721   3.321 -0.6308 -0.6731  0.5948
  393MOL0     C52985   1.352   9.386   3.897 -0.3535  0.0799  0.1348
  393MOL0     C52986   1.266   9.293   3.946 -0.0158 -0.7202 -1.2612
  393MOL0     C52987   1.277   9.275   4.092  0.3663  0.5103 -0.1558
  393MOL0     H52988   0.791   9.103   3.998  4.3105  1.5787  0.4213
  393MOL0     H52989   0.629   8.915   4.033 -0.1338 -1.4422 -0.1606
  393MOL0     H52990   0.799   8.524   4.157 -0.0853 -1.7158  0.0997
  393MOL0     H52991   0.755   8.598   4.310  0.5848  3.1914 -0.3311
  393MOL0     H52992   0.620   8.405   4.298 -0.1320  0.1729  0.0449
  393MOL0     H52993   0.575   8.454   4.125 -1.7562 -0.8858  0.3070
  393MOL0     H52994   0.426   8.621   4.203  0.2891  0.7397 -0.7021
  393MOL0     H52995   0.496   8.627   4.361  2.5089 -2.3085  0.9623
  393MOL0     H52996   0.367   8.370   4.279  3.3256  0.2436 -1.3051
  393MOL0     H52997   0.389   8.433   4.440  2.5573  0.6613 -0.2157
  393MOL0     H52998   0.226   8.622   4.381  2.3011  1.2047 -2.1784
  393MOL0     H52999   0.213   8.560   4.214  0.5784  3.9758  0.2060
  393MOL0     H53000   0.117   8.334   4.333 -1.1275  0.7237 -0.3063
  393MOL0     H53001   0.121   8.433   4.484 -0.4767 -2.0408  0.4789
  393MOL0     H53002  -0.030   8.486   4.222  0.5402 -1.7023 -0.4022
  393MOL0     H53003  -0.045   8.586   4.378 -0.9995 -0.2256 -1.0977
  393MOL0     H53004  -0.227   8.464   4.332  0.7545  1.6805 -0.1643
  393MOL0     H53005  -0.137   8.308   4.302  2.6171  0.6682 -1.4833
  393MOL0     H53006  -0.238   8.579   4.581 -1.1905 -0.1495  0.4653
  393MOL0     H53007  -0.271   8.542   4.865  1.2562  0.7102  0.1098
  393MOL0     H53008  -0.322   8.382   4.916  0.4573 -0.9574  0.2839
  393MOL0     H53009  -0.103   8.310   4.965 -1.1979 -0.7614 -0.6190
  393MOL0     H53010  -0.027   8.443   4.879  1.6808 -2.7175  0.8393
  393MOL0     H53011  -0.199   8.473   5.133  2.8961 -0.9643  1.0021
  393MOL0     H53012  -0.165   8.619   5.043 -0.6380  0.4900 -2.4685
  393MOL0     H53013   0.045   8.428   5.172  0.4145  0.2938  1.9628
  393MOL0     H53014  -0.002   8.588   5.231 -2.6410 -0.5705  0.3396
  393MOL0     H53015   0.257   8.432   5.176 -2.9615 -0.5461  0.0160
  393MOL0     H53016   0.479   8.462   5.220  0.4546  0.5590  0.9520
  393MOL0     H53017   0.835   8.793   5.419  0.9095 -0.0874 -0.5283
  393MOL0     H53018   1.075   8.869   5.414 -0.3328 -1.6651  1.1237
  393MOL0     H53019   1.221   9.077   5.052 -1.7855 -0.8127  0.2764
  393MOL0     H53020   1.149   9.188   5.163  0.4855  1.1955 -0.9817
  393MOL0     H53021   1.426   9.068   5.179  2.2473  1.3673  0.8488
  393MOL0     H53022   1.375   9.238   5.143  0.1149  1.5412  2.2004
  393MOL0     H53023   1.291   9.278   5.359  3.3941  3.5458  1.1113
  393MOL0     H53024   1.327   9.108   5.407 -0.2358 -0.3133 -1.1008
  393MOL0     H53025   1.464   9.322   5.483  1.3748 -4.6345  5.3557
  393MOL0     H53026   1.537   9.298   5.312 -2.9849 -1.1343 -2.0305
  393MOL0     H53027   1.637   9.096   5.384  0.4969  0.0491  0.0813
  393MOL0     H53028   1.526   9.076   5.514  1.1143 -1.9189 -1.7181
  393MOL0     H53029   1.756   9.267   5.491 -0.3004  0.3993  0.2408
  393MOL0     H53030   1.654   9.268   5.635  0.3719  1.1810  0.4559
  393MOL0     H53031   1.703   9.050   5.688 -0.5750  1.6702  0.9818
  393MOL0     H53032   1.857   9.139   5.683  0.2315 -2.9642  2.2576
  393MOL0     H53033   1.798   8.930   5.464  2.8645 -2.4698 -0.6551
  393MOL0     H53034   1.928   9.039   5.462  0.6880  1.9537  1.0021
  393MOL0     H53035   1.011   9.029   5.017 -0.9474  2.1470  0.0606
  393MOL0     H53036   0.774   8.948   5.032 -1.1601  3.1587  1.8548
  393MOL0     H53037   0.444   8.892   5.117  1.9342 -0.9295 -0.8768
  393MOL0     H53038   0.217   8.845   5.065  1.1045  1.1182  3.1408
  393MOL0     H53039   0.941   8.696   4.224  0.6073  0.7902  1.7729
  393MOL0     H53040   1.092   8.894   4.180 -1.0388  0.1649  1.3327
  393MOL0     H53041   1.106   9.219   3.659  2.6201 -0.2598 -1.5996
  393MOL0     H53042   1.251   9.365   3.573  0.0519 -0.2065  0.2325
  393MOL0     H53043   1.412   9.692   3.620 -0.2123 -0.3338 -0.3852
  393MOL0     H53044   1.276   9.589   3.587  0.4632 -0.4687  0.1876
  393MOL0     H53045   1.385   9.582   3.387 -0.2035  1.9364  1.4737
  393MOL0     H53046   1.460   9.446   3.468  1.6604 -0.9665  5.4284
  393MOL0     H53047   1.637   9.628   3.558 -1.5278  0.9358  1.4362
  393MOL0     H53048   1.557   9.732   3.437  2.1698  0.7511  1.1876
  393MOL0     H53049   1.685   9.485   3.354 -0.7201  0.3114  1.7176
  393MOL0     H53050   1.619   9.616   3.253  0.6639 -0.8117 -0.4766
  393MOL0     H53051   1.992   9.762   3.285  0.1970 -1.4812  1.7219
  393MOL0     H53052   1.407   9.453   3.962 -3.4856  2.8200  0.2260
  393MOL0     H53053   1.181   9.269   4.144  0.8361  1.3279  0.8423
  393MOL0     H53054   1.332   9.182   4.111 -0.7428 -0.0434  0.4575
  393MOL0     H53055   1.342   9.347   4.143 -1.0076  1.6781 -0.0059
  394MOL0     O53056   4.800   1.845   5.610  1.0671 -0.3217  1.0385
  394MOL0     C53057   4.891   1.924   5.640 -0.0310 -0.0763  0.5729
  394MOL0     O53058   4.881   2.046   5.708 -0.2241 -0.3969 -0.0727
  394MOL0     C53059   4.762   2.107   5.729 -0.4206 -0.9421 -0.1091
  394MOL0     C53060   4.754   2.180   5.846  0.3143  0.5779 -0.0577
  394MOL0     C53061   4.630   2.239   5.885 -0.1606  0.3142  0.3595
  394MOL0     C53062   4.519   2.225   5.807  0.2520 -0.3126  0.3667
  394MOL0     O53063   4.400   2.294   5.836 -0.8214 -0.0986  0.2690
  394MOL0     C53064   4.357   2.289   5.976  0.2601 -0.5473  0.8512
  394MOL0     C53065   4.336   2.433   6.018  0.2577  0.0642 -0.2759
  394MOL0     C53066   4.445   2.537   6.019 -0.6035  0.3615 -0.1945
  394MOL0     C53067   4.383   2.679   6.033 -0.3538 -1.2199 -0.2711
  394MOL0     C53068   4.357   2.713   6.183  0.4391  0.3858  0.3176
  394MOL0     C53069   4.470   2.753   6.271 -0.5823  0.0661  1.0170
  394MOL0     C53070   4.435   2.756   6.415 -0.1108  0.0306 -0.1152
  394MOL0     C53071   4.559   2.778   6.502 -0.3483 -0.3476 -0.9428
  394MOL0     N53072   4.517   2.775   6.646  0.6725 -0.7886  1.3530
  394MOL0     C53073   4.445   2.871   6.705  0.0179 -0.0433  1.0325
  394MOL0     C53074   4.461   2.858   6.839  0.1158 -0.8708 -0.4457
  394MOL0     C53075   4.402   2.937   6.943  0.0810 -0.6229  0.3119
  394MOL0     C53076   4.268   2.882   6.980  0.0008 -0.1962 -0.5684
  394MOL0     C53077   4.272   2.747   7.040  0.3846 -0.2558 -0.0524
  394MOL0     C53078   4.338   2.745   7.187  0.0209  0.6152 -1.4739
  394MOL0     O53079   4.318   2.615   7.249  0.2977 -0.2807  0.1735
  394MOL0     C53080   4.420   2.579   7.326  0.5177 -0.1057 -0.6459
  394MOL0     C53081   4.494   2.664   7.408  0.1075  0.6263  0.0146
  394MOL0     C53082   4.609   2.614   7.471 -0.1366  0.0783  0.2608
  394MOL0     C53083   4.635   2.473   7.478  0.7592 -0.3461 -0.1763
  394MOL0     C53084   4.758   2.423   7.549  0.0425  1.1215 -0.4441
  394MOL0     O53085   4.821   2.519   7.622  0.1181  0.2613 -0.1986
  394MOL0     C53086   4.943   2.483   7.670  0.1914  0.0960 -0.0928
  394MOL0     C53087   5.057   2.519   7.597  0.4350 -0.1986  0.4271
  394MOL0     C53088   5.188   2.484   7.631 -0.1760 -0.3601  0.1583
  394MOL0     C53089   5.211   2.421   7.752  0.3313 -0.6598  0.1555
  394MOL0     O53090   5.337   2.385   7.792 -0.1058  0.0958  0.1496
  394MOL0     C53091   5.428   2.498   7.805 -1.0149 -0.0868 -0.1554
  394MOL0     C53092   5.565   2.464   7.869 -1.0275  0.4793 -0.1378
  394MOL0     C53093   5.554   2.437   8.023  0.1064  0.5091 -0.0454
  394MOL0     C53094   5.694   2.430   8.089 -0.7453 -0.3641  0.8139
  394MOL0     C53095   5.773   2.299   8.055 -0.2841  0.8389 -0.2826
  394MOL0     C53096   5.919   2.292   8.103 -0.2940  0.8401 -0.2396
  394MOL0     C53097   5.932   2.297   8.256  0.6125  0.4377 -0.1244
  394MOL0     C53098   6.073   2.296   8.311 -0.6624  0.1738 -0.3517
  394MOL0    Cl53099   6.169   2.146   8.291 -0.0722 -0.2059 -0.2646
  394MOL0     C53100   5.099   2.394   7.832 -0.0657  0.2505 -0.7195
  394MOL0     C53101   4.967   2.423   7.791  0.2759  0.1585  0.2116
  394MOL0     O53102   4.790   2.308   7.535 -0.4765  0.9246 -0.1806
  394MOL0     C53103   4.552   2.389   7.402  0.9921 -0.3609  0.3795
  394MOL0     C53104   4.444   2.447   7.332 -0.5251  0.0181  0.3238
  394MOL0     N53105   4.540   2.742   6.859 -0.1268 -0.7929 -0.1225
  394MOL0     N53106   4.572   2.701   6.740  0.4891 -0.7243  0.2924
  394MOL0     C53107   4.524   2.143   5.696 -0.1765 -0.4587 -0.5928
  394MOL0     C53108   4.643   2.082   5.654 -0.0846  0.8555  0.6155
  394MOL0     C53109   5.032   1.888   5.597  1.2668 -0.3199 -0.0604
  394MOL0     C53110   5.102   1.993   5.551  0.1861 -0.5560  0.1293
  394MOL0     C53111   5.234   1.971   5.508 -0.3943  0.2375  0.8887
  394MOL0     C53112   5.294   1.850   5.515  0.2168 -0.5475  0.3114
  394MOL0     O53113   5.427   1.838   5.478  0.2854 -0.2555 -0.0608
  394MOL0     C53114   5.502   1.712   5.465  1.1793 -0.3329  0.0965
  394MOL0     C53115   5.650   1.730   5.486  0.0653 -0.2006  0.0813
  394MOL0     C53116   5.681   1.755   5.633  0.0159  1.0544 -0.1556
  394MOL0     C53117   5.705   1.628   5.713 -0.2701  0.3116  0.3804
  394MOL0     C53118   5.789   1.666   5.824 -0.1625  0.4397 -0.3456
  394MOL0     C53119   5.862   1.719   5.908 -0.2971  0.4838  0.3799
  394MOL0     C53120   5.213   1.739   5.550 -0.3048 -0.6938 -0.6084
  394MOL0     C53121   5.082   1.759   5.594 -0.7760  1.1729  0.3208
  394MOL0     C53122   5.010   1.635   5.630  0.0061 -0.1448 -0.0638
  394MOL0     H53123   4.835   2.192   5.918 -1.6883 -4.1511  3.5734
  394MOL0     H53124   4.639   2.303   5.973  0.1593  0.9193 -0.1073
  394MOL0     H53125   4.262   2.238   5.993 -1.3685  1.6924 -0.9044
  394MOL0     H53126   4.437   2.252   6.041  0.2539  0.3969  1.4264
  394MOL0     H53127   4.317   2.423   6.125  0.5752 -2.9314 -0.3888
  394MOL0     H53128   4.259   2.480   5.957 -0.8334 -1.7828 -0.4213
  394MOL0     H53129   4.501   2.528   5.925 -1.7885  1.1661 -1.0116
  394MOL0     H53130   4.513   2.534   6.105  0.8414  1.0676 -1.2721
  394MOL0     H53131   4.454   2.758   6.006  3.0101 -3.7581  0.4290
  394MOL0     H53132   4.296   2.693   5.968 -0.1673  2.6856  0.0743
  394MOL0     H53133   4.282   2.792   6.184  0.5459  0.4865  0.7877
  394MOL0     H53134   4.295   2.633   6.224 -2.1636 -0.6789 -4.8186
  394MOL0     H53135   4.546   2.675   6.262 -3.5436 -2.8209 -1.0332
  394MOL0     H53136   4.503   2.850   6.233 -0.1086 -0.1027  0.9849
  394MOL0     H53137   4.395   2.657   6.440  2.2132 -1.5672 -2.2661
  394MOL0     H53138   4.361   2.834   6.435  0.1155  0.0074  0.8431
  394MOL0     H53139   4.634   2.700   6.487 -3.0962 -2.9136 -2.1824
  394MOL0     H53140   4.612   2.870   6.473  0.7665  0.0791  2.0996
  394MOL0     H53141   4.384   2.948   6.658 -0.8913  0.5575  3.0310
  394MOL0     H53142   4.468   2.944   7.031  1.9810 -0.5360 -1.0522
  394MOL0     H53143   4.386   3.039   6.909 -2.5763 -1.1891 -0.3474
  394MOL0     H53144   4.226   2.951   7.054 -0.5533  0.7476 -1.7290
  394MOL0     H53145   4.205   2.882   6.891  0.6460  1.2922 -1.0586
  394MOL0     H53146   4.323   2.682   6.968 -1.3275 -0.8792 -0.7612
  394MOL0     H53147   4.171   2.706   7.026  0.9732 -0.7052 -4.4119
  394MOL0     H53148   4.286   2.812   7.256 -1.6171 -2.0369  0.0259
  394MOL0     H53149   4.446   2.761   7.185  1.0512 -4.0296  1.8355
  394MOL0     H53150   4.461   2.766   7.427 -0.7270  0.2000  0.9030
  394MOL0     H53151   4.673   2.683   7.525  0.8409 -0.2948 -0.3986
  394MOL0     H53152   5.037   2.560   7.498  2.2095  0.5827  0.3451
  394MOL0     H53153   5.275   2.500   7.568 -1.5889 -0.5123 -1.9171
  394MOL0     H53154   5.461   2.533   7.707  0.9988  0.2183  0.5659
  394MOL0     H53155   5.382   2.583   7.856 -0.9259 -2.3902  4.2952
  394MOL0     H53156   5.605   2.374   7.820 -0.9612 -0.1341  1.0240
  394MOL0     H53157   5.638   2.544   7.850  1.4077 -0.6864  3.3573
  394MOL0     H53158   5.486   2.506   8.073 -1.0212 -0.1697 -0.5989
  394MOL0     H53159   5.515   2.336   8.039  3.2320 -1.5427 -3.6104
  394MOL0     H53160   5.683   2.433   8.198  2.8776  0.0983  1.2873
  394MOL0     H53161   5.751   2.521   8.066 -1.5888 -0.3555 -1.5639
  394MOL0     H53162   5.761   2.270   7.950  1.9366 -0.1342 -0.3152
  394MOL0     H53163   5.714   2.221   8.104  0.8488  0.6103  0.7533
  394MOL0     H53164   5.973   2.209   8.057 -1.0785  0.7650 -1.0580
  394MOL0     H53165   5.971   2.379   8.060 -2.3069  1.5324 -1.4176
  394MOL0     H53166   5.879   2.213   8.301 -1.2255  3.3783  3.7862
  394MOL0     H53167   5.878   2.385   8.293 -0.5404 -0.3431  0.1040
  394MOL0     H53168   6.129   2.358   8.240  0.6358  0.5270  0.9249
  394MOL0     H53169   6.077   2.345   8.409  0.7969 -1.2457  0.3500
  394MOL0     H53170   5.124   2.352   7.929  1.7101 -0.8914 -1.6246
  394MOL0     H53171   4.877   2.392   7.843  1.6599  1.0679  3.4257
  394MOL0     H53172   4.562   2.281   7.409  0.2890 -0.4020  0.8483
  394MOL0     H53173   4.385   2.384   7.266 -0.3407  0.0860  0.0921
  394MOL0     H53174   4.437   2.130   5.632 -0.7577  1.6901 -0.3338
  394MOL0     H53175   4.644   2.030   5.559  0.7667  3.4178 -0.8995
  394MOL0     H53176   5.058   2.092   5.539  0.9508 -0.2493 -0.1829
  394MOL0     H53177   5.291   2.057   5.476 -3.0353  1.3840 -1.1844
  394MOL0     H53178   5.478   1.672   5.366 -0.6508  1.0825 -0.0681
  394MOL0     H53179   5.457   1.639   5.533 -1.7044 -0.6437 -1.9714
  394MOL0     H53180   5.684   1.817   5.429 -1.1766  0.8740  0.9062
  394MOL0     H53181   5.697   1.640   5.447 -0.4731 -0.7596  0.7094
  394MOL0     H53182   5.599   1.802   5.687 -1.2551 -1.3427  0.1670
  394MOL0     H53183   5.766   1.824   5.632 -0.3133  1.4577 -1.2110
  394MOL0     H53184   5.613   1.586   5.753 -0.9692 -0.4710 -1.9009
  394MOL0     H53185   5.740   1.544   5.652 -0.5342  1.9158 -2.1165
  394MOL0     H53186   5.928   1.762   5.981  0.4243  0.0903 -0.0350
  394MOL0     H53187   5.255   1.640   5.564 -0.3520 -0.6696 -0.2858
  394MOL0     H53188   4.944   1.588   5.556  1.9132  0.8424 -2.5216
  394MOL0     H53189   5.074   1.557   5.674  2.0901  0.8833 -1.1145
  394MOL0     H53190   4.937   1.669   5.704 -3.2709  0.7736 -3.4416
  395MOL0     O53191  11.031   0.941   2.959  0.0416  0.5447  0.7546
  395MOL0     C53192  11.002   0.905   2.842  0.6026  0.0596 -0.6374
  395MOL0     O53193  11.087   0.904   2.738 -0.4332 -0.6406 -0.8347
  395MOL0     C53194  11.219   0.931   2.744  0.2189 -0.9042 -0.1460
  395MOL0     C53195  11.303   0.961   2.855  0.9449  0.6056  0.7716
  395MOL0     C53196  11.443   0.970   2.844  1.1332 -0.9910  0.8187
  395MOL0     C53197  11.499   0.957   2.715  0.7417 -0.2410 -0.3135
  395MOL0     O53198  11.631   0.964   2.694 -0.2816  0.7186  0.2075
  395MOL0     C53199  11.703   1.076   2.753 -0.6827 -0.5064 -0.1574
  395MOL0     C53200  11.808   1.135   2.660 -0.2047  0.6897 -0.8283
  395MOL0     C53201  11.886   1.254   2.729 -0.2953  0.0753  0.0862
  395MOL0     C53202  11.904   1.378   2.641  0.2453 -0.2791  1.0000
  395MOL0     C53203  11.782   1.470   2.641 -0.6330  0.3462 -0.1371
  395MOL0     C53204  11.820   1.611   2.602  0.1870 -0.0551  0.3048
  395MOL0     C53205  11.896   1.614   2.462 -1.0746  0.2330 -0.2986
  395MOL0     C53206  11.881   1.754   2.398  0.0023 -0.1114 -0.5259
  395MOL0     N53207  11.934   1.755   2.254 -0.1029  0.6036 -0.3865
  395MOL0     C53208  12.048   1.709   2.199 -0.1941 -0.5070  0.2161
  395MOL0     C53209  12.054   1.756   2.076 -0.1935  0.3767 -0.6556
  395MOL0     C53210  12.166   1.734   1.978 -0.9238  0.2579  0.0217
  395MOL0     C53211  12.127   1.645   1.865 -0.7596  0.8095 -0.3012
  395MOL0     C53212  12.256   1.601   1.798  0.7703  0.4086 -0.9332
  395MOL0     C53213  12.234   1.534   1.669  0.2885 -0.6297  0.6967
  395MOL0     O53214  12.351   1.460   1.633  0.5116 -0.1846  0.4626
  395MOL0     C53215  12.343   1.336   1.571  0.1739 -1.0085  0.4795
  395MOL0     C53216  12.466   1.287   1.534 -0.2995 -0.2169 -0.1640
  395MOL0     C53217  12.466   1.165   1.473  0.1900  0.9228 -0.1378
  395MOL0     C53218  12.351   1.093   1.429 -0.8088 -0.7738 -0.2752
  395MOL0     C53219  12.356   0.958   1.356  0.4174 -0.0277 -0.1215
  395MOL0     O53220  12.466   0.880   1.388 -0.1564  0.0456  0.0082
  395MOL0     C53221  12.517   0.792   1.297  0.4512  0.5400  0.0176
  395MOL0     C53222  12.623   0.834   1.220  0.2569  0.7223 -0.5054
  395MOL0     C53223  12.675   0.756   1.119 -0.3842  0.1759 -0.0344
  395MOL0     C53224  12.627   0.629   1.099 -0.2168  0.7043 -0.8989
  395MOL0     O53225  12.694   0.547   1.016  0.3109  0.2030 -0.6323
  395MOL0     C53226  12.627   0.434   0.947  0.8183  0.1196  0.9120
  395MOL0     C53227  12.703   0.311   0.960 -0.3437  0.9458  0.0358
  395MOL0     C53228  12.851   0.315   0.904 -0.6191 -1.1346 -0.7994
  395MOL0     C53229  12.886   0.307   0.761  0.4427 -0.1453 -0.9347
  395MOL0     C53230  13.036   0.298   0.748  0.3711  0.1166 -0.0151
  395MOL0     C53231  13.089   0.295   0.605 -0.2860 -0.2455  0.4979
  395MOL0     C53232  13.227   0.256   0.611  0.1629 -0.2096 -0.4635
  395MOL0     C53233  13.313   0.364   0.690 -0.1183  0.5112  0.2532
  395MOL0    Cl53234  13.485   0.327   0.669 -0.5154  0.3886  0.0934
  395MOL0     C53235  12.517   0.579   1.183 -0.6187  0.0416  1.0089
  395MOL0     C53236  12.457   0.669   1.281 -0.0326  0.1880  0.9621
  395MOL0     O53237  12.269   0.936   1.270  0.0923 -1.2714  0.4873
  395MOL0     C53238  12.229   1.145   1.460 -0.1013 -0.8937 -0.1266
  395MOL0     C53239  12.226   1.274   1.528  0.4953  0.7160 -0.1151
  395MOL0     N53240  11.934   1.822   2.047 -0.0837  0.4380 -0.2329
  395MOL0     N53241  11.868   1.824   2.157  0.2528 -0.4749 -1.0220
  395MOL0     C53242  11.418   0.905   2.603 -0.4887 -0.0168  0.1611
  395MOL0     C53243  11.279   0.899   2.617  0.4011 -0.0306 -0.7276
  395MOL0     C53244  10.866   0.861   2.830 -0.7246  0.2749  0.2705
  395MOL0     C53245  10.774   0.900   2.930  0.9876  0.8250  0.7546
  395MOL0     C53246  10.641   0.852   2.938  0.5800 -0.5040  0.4215
  395MOL0     C53247  10.593   0.767   2.838 -0.0254 -0.2973 -0.9272
  395MOL0     O53248  10.467   0.711   2.842  0.9572 -0.5107 -0.1906
  395MOL0     C53249  10.362   0.803   2.875 -0.2569  0.7235  0.1536
  395MOL0     C53250  10.226   0.725   2.887 -0.0504 -0.5510 -0.2759
  395MOL0     C53251  10.116   0.829   2.929  0.1355 -0.1342 -0.7938
  395MOL0     C53252   9.985   0.770   2.969  0.5465  0.3680 -0.3795
  395MOL0     C53253   9.989   0.666   3.070  0.4102  0.1124  0.0539
  395MOL0     C53254   9.988   0.568   3.140 -0.3486  0.2444 -0.7412
  395MOL0     C53255  10.684   0.727   2.744 -0.2686  0.1616 -0.1453
  395MOL0     C53256  10.812   0.776   2.728 -0.3242 -0.8914  0.8187
  395MOL0     C53257  10.894   0.725   2.609  0.7178 -0.5075 -0.2375
  395MOL0     H53258  11.259   0.971   2.954 -1.8852  1.1175 -0.4215
  395MOL0     H53259  11.516   0.980   2.923  1.4638 -1.8121  0.6249
  395MOL0     H53260  11.634   1.160   2.766 -1.3779 -1.1492  0.4012
  395MOL0     H53261  11.743   1.062   2.854  0.2484  1.6729 -0.1672
  395MOL0     H53262  11.753   1.179   2.577 -0.8914  1.1846 -0.1235
  395MOL0     H53263  11.867   1.048   2.631 -0.4897 -1.6913  4.5275
  395MOL0     H53264  11.984   1.220   2.764 -0.7953  1.6807  3.4683
  395MOL0     H53265  11.822   1.278   2.815 -1.7636 -2.2519 -0.2716
  395MOL0     H53266  11.997   1.428   2.670 -0.6779  2.3895 -0.3734
  395MOL0     H53267  11.928   1.342   2.540 -3.1435  1.2203 -0.4717
  395MOL0     H53268  11.713   1.430   2.566  0.5338  0.3627 -1.2603
  395MOL0     H53269  11.725   1.463   2.734  0.5383 -3.9163  0.4689
  395MOL0     H53270  11.730   1.671   2.587  0.6601  0.2428 -1.7057
  395MOL0     H53271  11.877   1.665   2.678 -1.3417 -0.5526  1.8725
  395MOL0     H53272  11.862   1.529   2.402  0.8455 -1.5650  0.9864
  395MOL0     H53273  12.004   1.600   2.472 -0.8333  0.5049 -2.1978
  395MOL0     H53274  11.774   1.772   2.386 -0.6880 -2.4770  1.3672
  395MOL0     H53275  11.923   1.836   2.456 -2.3821  0.2579  0.8161
  395MOL0     H53276  12.126   1.648   2.244 -1.2695 -2.8269 -0.9133
  395MOL0     H53277  12.229   1.816   1.944 -0.9331  0.9719  1.6263
  395MOL0     H53278  12.249   1.693   2.036  0.4152  1.8164 -0.7237
  395MOL0     H53279  12.075   1.557   1.904 -1.1992  1.0941 -0.2351
  395MOL0     H53280  12.066   1.712   1.803 -0.5881  4.0187  2.6912
  395MOL0     H53281  12.302   1.534   1.871  1.7853  2.4968  0.4198
  395MOL0     H53282  12.316   1.690   1.774  2.0809 -0.6006 -1.5285
  395MOL0     H53283  12.194   1.600   1.591  2.1830 -0.8724 -0.5335
  395MOL0     H53284  12.159   1.458   1.693  0.8854 -2.3965 -2.4183
  395MOL0     H53285  12.547   1.347   1.574 -1.2437  0.2772  1.0475
  395MOL0     H53286  12.551   1.101   1.454 -1.3276 -1.3406  0.2475
  395MOL0     H53287  12.660   0.934   1.202  0.8058  0.3774 -1.3525
  395MOL0     H53288  12.755   0.789   1.052 -1.2654  1.9890 -0.2506
  395MOL0     H53289  12.528   0.430   0.993 -0.2191  0.8705 -1.1263
  395MOL0     H53290  12.622   0.455   0.840 -0.4773 -2.3132  0.4160
  395MOL0     H53291  12.717   0.302   1.068 -0.1305 -1.5171 -0.1421
  395MOL0     H53292  12.645   0.227   0.921  1.6236 -1.6101  2.2870
  395MOL0     H53293  12.899   0.400   0.953 -0.7339 -1.8958  0.6685
  395MOL0     H53294  12.897   0.229   0.952 -2.0409 -0.3089  2.2380
  395MOL0     H53295  12.839   0.388   0.703 -1.7973  0.0186  0.9399
  395MOL0     H53296  12.851   0.208   0.729 -0.3232  0.4697 -2.0966
  395MOL0     H53297  13.086   0.219   0.805 -0.1941  0.0040  0.3335
  395MOL0     H53298  13.066   0.394   0.792 -0.7808  0.5710 -0.1848
  395MOL0     H53299  13.033   0.229   0.538  1.3013 -1.0953 -0.0350
  395MOL0     H53300  13.086   0.395   0.563 -1.6623 -0.7720 -0.7488
  395MOL0     H53301  13.267   0.242   0.510 -1.0589  0.4544 -1.0553
  395MOL0     H53302  13.239   0.157   0.656  1.7036  0.0247 -0.2821
  395MOL0     H53303  13.295   0.465   0.651 -3.4104  0.2272  0.7561
  395MOL0     H53304  13.280   0.365   0.795 -3.6299 -1.3048 -0.6940
  395MOL0     H53305  12.481   0.476   1.177  3.8015 -1.7238  1.3755
  395MOL0     H53306  12.373   0.639   1.342 -0.5538  1.2146  0.7705
  395MOL0     H53307  12.137   1.097   1.431 -0.4387 -1.0751  1.1536
  395MOL0     H53308  12.132   1.328   1.538  1.7725  2.8879  0.7620
  395MOL0     H53309  11.473   0.867   2.517 -1.0538  0.8439 -0.6009
  395MOL0     H53310  11.208   0.866   2.542 -3.6742  0.6447  2.4541
  395MOL0     H53311  10.812   0.953   3.017  0.8572 -2.2842  2.8691
  395MOL0     H53312  10.572   0.892   3.010  0.2132 -1.4613  0.6193
  395MOL0     H53313  10.364   0.873   2.791 -3.3391 -0.5408 -1.1272
  395MOL0     H53314  10.368   0.854   2.971 -1.9701 -2.0015  1.8346
  395MOL0     H53315  10.243   0.652   2.966 -0.2984 -0.0459  0.2500
  395MOL0     H53316  10.188   0.675   2.797 -2.9974  0.2388  0.4286
  395MOL0     H53317  10.092   0.903   2.853  2.1160  0.0460 -1.3092
  395MOL0     H53318  10.146   0.880   3.022  0.7385  0.7762 -1.4648
  395MOL0     H53319   9.926   0.848   3.017 -0.6491 -1.7355  1.8199
  395MOL0     H53320   9.941   0.725   2.880 -0.3370 -0.9160  0.6657
  395MOL0     H53321   9.987   0.474   3.193 -1.7870  0.1920 -0.8262
  395MOL0     H53322  10.650   0.661   2.664 -2.2747  0.3230  0.5215
  395MOL0     H53323  10.907   0.796   2.526 -1.7620  0.5403  0.1878
  395MOL0     H53324  10.990   0.688   2.648  0.3912  0.8808  2.0413
  395MOL0     H53325  10.839   0.647   2.555 -0.5266  1.4078 -1.8642
  396MOL0     O53326   4.683   6.774   5.770 -0.2139 -0.4738 -0.4285
  396MOL0     C53327   4.668   6.729   5.884 -0.6649  0.2756  0.7873
  396MOL0     O53328   4.757   6.675   5.962 -0.3953 -0.1563  0.6630
  396MOL0     C53329   4.896   6.687   5.963  0.6357 -0.1008  0.4352
  396MOL0     C53330   4.966   6.591   6.031 -0.6588  0.1007 -0.4213
  396MOL0     C53331   5.105   6.596   6.033  0.3583  0.4542 -0.7517
  396MOL0     C53332   5.177   6.684   5.966 -0.7243 -0.4102  0.4134
  396MOL0     O53333   5.306   6.675   5.995  0.1124  0.1702  0.2554
  396MOL0     C53334   5.401   6.703   5.888 -0.0227 -0.6305  0.0856
  396MOL0     C53335   5.536   6.627   5.938  0.0775 -0.1221 -0.2566
  396MOL0     C53336   5.661   6.639   5.855 -0.0253  0.9620  0.9880
  396MOL0     C53337   5.697   6.780   5.814  0.4399 -0.5110  0.3708
  396MOL0     C53338   5.703   6.878   5.924 -0.4201  0.2444 -0.3442
  396MOL0     C53339   5.774   7.010   5.875  0.3166 -0.3468  0.0097
  396MOL0     C53340   5.919   6.998   5.867  0.4471  0.3637  0.0676
  396MOL0     C53341   5.972   7.118   5.800  0.3905  0.1766 -0.2219
  396MOL0     N53342   6.117   7.127   5.804 -0.2908 -0.1055  0.2234
  396MOL0     C53343   6.198   7.069   5.714 -0.1549  0.6343 -0.1521
  396MOL0     C53344   6.323   7.084   5.762  0.6350  0.8853 -0.3508
  396MOL0     C53345   6.455   7.046   5.702 -0.5609  0.7041  0.0456
  396MOL0     C53346   6.578   7.039   5.803  0.4464  0.6981 -0.2026
  396MOL0     C53347   6.700   6.990   5.724 -0.0649  0.0393 -0.2520
  396MOL0     C53348   6.826   7.026   5.789  0.3864  0.2649 -1.3391
  396MOL0     O53349   6.933   7.024   5.689 -0.3375 -0.3769 -0.1497
  396MOL0     C53350   7.060   7.029   5.729 -0.8734  1.0510  0.1912
  396MOL0     C53351   7.100   7.007   5.865  0.6217 -0.0020 -0.3564
  396MOL0     C53352   7.230   6.988   5.897  0.0610  0.3980 -0.0902
  396MOL0     C53353   7.332   6.969   5.804  0.5949 -1.1582 -0.2612
  396MOL0     C53354   7.466   6.918   5.833 -0.6826 -0.1195 -0.1512
  396MOL0     O53355   7.539   6.876   5.730 -0.0844 -0.2152  0.1195
  396MOL0     C53356   7.669   6.855   5.767 -0.4427  0.3776  0.6110
  396MOL0     C53357   7.714   6.736   5.833 -0.6319  0.2611 -0.8495
  396MOL0     C53358   7.848   6.722   5.869  0.1720  0.2916  0.4198
  396MOL0     C53359   7.936   6.830   5.859  0.6740 -0.6814 -0.2976
  396MOL0     O53360   8.070   6.831   5.892  0.1575  0.4476 -0.0480
  396MOL0     C53361   8.125   6.728   5.983 -0.1819 -0.6663 -0.8389
  396MOL0     C53362   8.193   6.613   5.915  0.3598 -0.8340  0.9006
  396MOL0     C53363   8.235   6.505   6.014  0.7346 -0.2551  1.1348
  396MOL0     C53364   8.348   6.553   6.109  0.6184 -0.4122 -0.0164
  396MOL0     C53365   8.437   6.440   6.148  0.3115 -0.1027  0.1787
  396MOL0     C53366   8.505   6.459   6.282  0.3511  0.0663 -0.8215
  396MOL0     C53367   8.560   6.602   6.303 -0.1853  0.0588  0.7173
  396MOL0     C53368   8.680   6.649   6.216  0.0055 -0.3369  0.1790
  396MOL0    Cl53369   8.790   6.752   6.298  0.3174 -0.3839 -0.1067
  396MOL0     C53370   7.889   6.941   5.788 -0.1859  0.0294 -0.6788
  396MOL0     C53371   7.760   6.957   5.736  0.3170  0.6055  0.1704
  396MOL0     O53372   7.503   6.920   5.952 -0.6541  0.3907  0.0048
  396MOL0     C53373   7.302   6.998   5.665 -0.3631  0.1186 -1.1879
  396MOL0     C53374   7.167   7.016   5.626 -0.1627  0.4502 -0.3919
  396MOL0     N53375   6.314   7.148   5.881  0.4281  0.4077  0.3803
  396MOL0     N53376   6.196   7.181   5.908  0.2784 -0.1826  0.2502
  396MOL0     C53377   5.107   6.785   5.896  0.1438  0.5456 -0.6618
  396MOL0     C53378   4.965   6.781   5.890  0.2743 -0.2727  0.1079
  396MOL0     C53379   4.540   6.718   5.936 -0.5665 -0.6932  0.0576
  396MOL0     C53380   4.456   6.832   5.933  0.3592 -0.0231 -0.1256
  396MOL0     C53381   4.333   6.836   5.998  0.5133 -0.1269 -0.3577
  396MOL0     C53382   4.279   6.717   6.054  1.2480 -0.0651 -0.4527
  396MOL0     O53383   4.175   6.705   6.140 -0.4697 -0.0822  0.0327
  396MOL0     C53384   4.092   6.815   6.170  0.3556  0.2833  0.2328
  396MOL0     C53385   3.957   6.776   6.220  0.7802 -0.2446 -0.5672
  396MOL0     C53386   3.866   6.900   6.227  0.4476  0.7242  0.1583
  396MOL0     C53387   3.733   6.854   6.303 -0.2282 -1.8989 -0.4243
  396MOL0     C53388   3.642   6.792   6.196 -0.6293  0.9154  0.2279
  396MOL0     C53389   3.594   6.719   6.114  0.6713 -0.7879 -0.4907
  396MOL0     C53390   4.358   6.603   6.050 -0.2995  0.1843  0.3873
  396MOL0     C53391   4.485   6.599   5.987 -0.8332 -0.6999 -0.6305
  396MOL0     C53392   4.547   6.459   5.979 -0.3180  0.3385  0.5614
  396MOL0     H53393   4.919   6.514   6.091 -0.2016  0.1707  0.0301
  396MOL0     H53394   5.156   6.531   6.104 -2.0528  0.6436  1.3251
  396MOL0     H53395   5.359   6.655   5.799  1.3530 -0.6282 -0.6033
  396MOL0     H53396   5.413   6.811   5.878 -0.5371 -0.5793  0.0055
  396MOL0     H53397   5.507   6.522   5.954  0.1918 -0.2863 -1.0778
  396MOL0     H53398   5.555   6.669   6.036 -1.3841  1.0664 -0.4545
  396MOL0     H53399   5.639   6.571   5.772 -2.0022 -2.2912  3.8878
  396MOL0     H53400   5.742   6.591   5.912 -0.6072  0.1411  1.1435
  396MOL0     H53401   5.793   6.774   5.762 -0.4753 -0.0034 -1.4588
  396MOL0     H53402   5.622   6.814   5.742 -0.2830 -3.1258 -0.1974
  396MOL0     H53403   5.606   6.903   5.968  0.6028  0.1823  2.1480
  396MOL0     H53404   5.753   6.833   6.011 -1.8219 -0.6092  0.0397
  396MOL0     H53405   5.735   7.050   5.781  0.1935 -1.2432 -0.3343
  396MOL0     H53406   5.749   7.078   5.957 -0.5489  1.0866 -1.4041
  396MOL0     H53407   5.937   6.903   5.817  1.0755 -0.2781  1.4376
  396MOL0     H53408   5.967   6.992   5.966  4.4071  0.2330 -1.6636
  396MOL0     H53409   5.926   7.117   5.701 -4.3428  1.2709  1.6839
  396MOL0     H53410   5.928   7.213   5.834  0.6847  1.6610 -3.6107
  396MOL0     H53411   6.176   7.007   5.627  3.4464 -1.9911  0.5417
  396MOL0     H53412   6.453   6.952   5.646  5.1713 -0.5592  1.2395
  396MOL0     H53413   6.482   7.123   5.629  0.3831  0.2316 -0.1237
  396MOL0     H53414   6.607   7.139   5.835  0.2955  0.5255  0.4803
  396MOL0     H53415   6.550   6.984   5.893  0.3749 -0.4484 -0.8977
  396MOL0     H53416   6.704   7.029   5.622  0.1759  0.5943 -0.0314
  396MOL0     H53417   6.692   6.883   5.705 -2.1924  0.0159  0.4246
  396MOL0     H53418   6.844   6.949   5.865 -1.1734  0.3772 -0.8343
  396MOL0     H53419   6.819   7.120   5.846  2.6691 -0.0615 -0.4035
  396MOL0     H53420   7.036   6.984   5.949 -1.0359  0.6078 -1.4071
  396MOL0     H53421   7.244   6.964   6.002 -0.6166  1.7832  0.3524
  396MOL0     H53422   7.649   6.650   5.847  0.2026 -0.2059  0.3365
  396MOL0     H53423   7.882   6.628   5.911  1.3155 -0.0032 -1.0887
  396MOL0     H53424   8.200   6.788   6.035 -1.3578  1.0418 -1.0302
  396MOL0     H53425   8.051   6.693   6.055 -0.2024  1.5254  0.2942
  396MOL0     H53426   8.114   6.575   5.850  0.3463  2.1953 -1.0798
  396MOL0     H53427   8.276   6.627   5.845  0.8854 -2.5326  1.1501
  396MOL0     H53428   8.144   6.484   6.071  0.9843  1.7192  2.3353
  396MOL0     H53429   8.266   6.423   5.948 -0.7870  0.2276 -0.2408
  396MOL0     H53430   8.303   6.605   6.194  0.4742 -0.5884  0.0163
  396MOL0     H53431   8.413   6.623   6.056  0.1202  0.3285  0.3386
  396MOL0     H53432   8.519   6.431   6.076  1.3287 -1.0671  1.4049
  396MOL0     H53433   8.374   6.351   6.157 -3.4874  1.9000 -3.2858
  396MOL0     H53434   8.420   6.446   6.349  1.3668  0.0476  0.5158
  396MOL0     H53435   8.584   6.384   6.290  1.0766  0.8037 -0.9525
  396MOL0     H53436   8.601   6.601   6.405  0.5314  0.1414  0.4322
  396MOL0     H53437   8.476   6.671   6.291  0.6655  0.9345 -0.3837
  396MOL0     H53438   8.739   6.569   6.170 -0.4334  0.0807 -1.1389
  396MOL0     H53439   8.640   6.704   6.131 -0.6096  0.2304  0.8265
  396MOL0     H53440   7.958   7.022   5.767  0.7727 -0.8764 -1.0993
  396MOL0     H53441   7.724   7.045   5.684 -0.9077 -0.2207 -0.4363
  396MOL0     H53442   7.385   7.004   5.595  1.4796 -0.9683  0.7838
  396MOL0     H53443   7.147   7.044   5.523 -1.9179 -1.6271 -0.6768
  396MOL0     H53444   5.152   6.878   5.862 -3.0624  1.5343 -2.6865
  396MOL0     H53445   4.910   6.850   5.826 -2.5193 -2.6778 -0.2750
  396MOL0     H53446   4.491   6.920   5.879 -0.1155 -0.5399 -1.3121
  396MOL0     H53447   4.277   6.929   6.004  1.9985  0.6820  2.3086
  396MOL0     H53448   4.085   6.868   6.075 -1.2152  2.6627  1.5763
  396MOL0     H53449   4.144   6.880   6.240 -0.3146  0.7256  0.3307
  396MOL0     H53450   3.971   6.726   6.316  3.6440 -2.6395 -2.0770
  396MOL0     H53451   3.913   6.703   6.152 -0.8445  0.3729 -0.2396
  396MOL0     H53452   3.845   6.936   6.126  2.9317 -0.1818 -0.7377
  396MOL0     H53453   3.917   6.984   6.277 -0.6008  1.5901 -0.1845
  396MOL0     H53454   3.762   6.779   6.377 -0.5714 -0.6941  0.9753
  396MOL0     H53455   3.685   6.936   6.358 -1.3160 -1.7706 -1.5157
  396MOL0     H53456   3.543   6.658   6.042 -1.9835 -1.4687  1.7896
  396MOL0     H53457   4.325   6.510   6.095 -1.3467  1.4502  2.3651
  396MOL0     H53458   4.496   6.398   5.904  1.2211 -0.5612  0.2008
  396MOL0     H53459   4.651   6.470   5.948 -0.3291  0.9521  0.7303
  396MOL0     H53460   4.553   6.415   6.079 -0.3124  4.2856  2.5013
  397MOL0     O53461  10.575  10.403   3.932  0.2733  0.8691 -0.6227
  397MOL0     C53462  10.464  10.444   3.893  0.2635  0.5433  0.1696
  397MOL0     O53463  10.406  10.402   3.776 -0.3215 -1.3324  0.0888
  397MOL0     C53464  10.467  10.326   3.684 -0.1401 -1.2564  0.9026
  397MOL0     C53465  10.461  10.360   3.550  0.5038  0.2701 -0.1489
  397MOL0     C53466  10.501  10.280   3.442 -0.1401 -0.4110 -0.6677
  397MOL0     C53467  10.570  10.157   3.475 -0.5554 -0.6231 -1.0991
  397MOL0     O53468  10.642  10.085   3.382 -0.4820  0.0467  0.8352
  397MOL0     C53469  10.705  10.156   3.273 -0.5886 -0.4379 -0.0311
  397MOL0     C53470  10.809  10.073   3.200  0.3305  0.3590  0.0235
  397MOL0     C53471  10.846  10.153   3.077 -0.1008 -0.0966  0.4575
  397MOL0     C53472  10.986  10.098   3.028  1.1174 -0.5019 -0.3220
  397MOL0     C53473  11.106  10.137   3.115  0.3235 -0.4976  0.4853
  397MOL0     C53474  11.236  10.083   3.067  0.1862  0.5847 -0.3842
  397MOL0     C53475  11.340  10.088   3.175 -0.5071 -0.1294  0.3196
  397MOL0     C53476  11.391  10.227   3.219 -0.1158 -0.7074  0.0553
  397MOL0     N53477  11.464  10.303   3.117  0.6393  0.2396 -0.2909
  397MOL0     C53478  11.599  10.304   3.077  0.1071 -0.8524 -0.3987
  397MOL0     C53479  11.610  10.413   3.001 -0.0644  0.2962  0.2275
  397MOL0     C53480  11.736  10.475   2.940  0.0936  0.2751 -0.6946
  397MOL0     C53481  11.821  10.553   3.040  1.0385 -0.3299 -0.0827
  397MOL0     C53482  11.960  10.591   2.984  0.5524 -0.1245 -1.2488
  397MOL0     C53483  12.046  10.679   3.081  0.4001 -0.3562 -0.9213
  397MOL0     O53484  12.043  10.819   3.049  0.5731  0.3850  0.3497
  397MOL0     C53485  12.139  10.894   3.099  0.4533 -0.4529 -0.0356
  397MOL0     C53486  12.106  11.001   3.177  0.1714 -0.0877  0.2108
  397MOL0     C53487  12.193  11.089   3.234 -1.0896  0.3216  0.5404
  397MOL0     C53488  12.330  11.064   3.217 -0.2612  0.2404 -0.4378
  397MOL0     C53489  12.438  11.151   3.264  0.0545 -0.2835 -0.8315
  397MOL0     O53490  12.564  11.105   3.248 -0.0803 -0.4552 -1.0612
  397MOL0     C53491  12.670  11.159   3.321 -0.9690  0.9364  0.1426
  397MOL0     C53492  12.789  11.173   3.247 -0.6978 -0.1480  0.2107
  397MOL0     C53493  12.905  11.233   3.312  0.2677 -0.1659 -0.6237
  397MOL0     C53494  12.902  11.254   3.451  0.3210 -0.6921 -0.0435
  397MOL0     O53495  13.014  11.307   3.503 -0.1287  0.6187  0.6892
  397MOL0     C53496  13.039  11.454   3.481  0.3152  0.0545  0.4327
  397MOL0     C53497  13.130  11.491   3.601  0.6483 -0.0332  0.7707
  397MOL0     C53498  13.273  11.459   3.583  0.4028  0.6983  0.3657
  397MOL0     C53499  13.373  11.584   3.569  0.6570  0.8211  0.3028
  397MOL0     C53500  13.521  11.551   3.556  0.1597  0.1229 -0.1053
  397MOL0     C53501  13.611  11.675   3.546 -0.1682  0.3990  0.3706
  397MOL0     C53502  13.752  11.658   3.472  0.3430  0.6405 -0.1838
  397MOL0     C53503  13.730  11.677   3.315  0.2713  0.6433 -0.1774
  397MOL0    Cl53504  13.872  11.579   3.248  0.2760  0.0245  0.0736
  397MOL0     C53505  12.785  11.240   3.520 -0.0377 -0.4359  0.5460
  397MOL0     C53506  12.667  11.194   3.454 -0.2680 -0.3440 -0.8869
  397MOL0     O53507  12.410  11.257   3.314 -0.3110  0.0828 -0.0853
  397MOL0     C53508  12.374  10.958   3.133  0.3075  0.1019  0.1082
  397MOL0     C53509  12.272  10.876   3.079  0.1087 -0.1689  0.0215
  397MOL0     N53510  11.488  10.471   2.984  0.3770  0.2991 -0.4174
  397MOL0     N53511  11.406  10.413   3.062  0.2393  0.6211 -0.0325
  397MOL0     C53512  10.578  10.123   3.611  0.4718  0.4194  0.5703
  397MOL0     C53513  10.540  10.208   3.711 -0.2311  0.1424 -0.1849
  397MOL0     C53514  10.385  10.525   3.983  0.5361  1.0450  0.8552
  397MOL0     C53515  10.248  10.506   3.991  0.4286  0.1554  0.4745
  397MOL0     C53516  10.166  10.586   4.068 -0.5326 -0.7270  0.0608
  397MOL0     C53517  10.216  10.698   4.137  0.0742  1.3856  0.6174
  397MOL0     O53518  10.146  10.788   4.213  0.0233  0.6228 -0.4791
  397MOL0     C53519  10.017  10.834   4.162  0.1889  0.1849 -0.7004
  397MOL0     C53520   9.894  10.797   4.247 -0.1369  0.3142  0.9141
  397MOL0     C53521   9.868  10.903   4.351  0.0539 -0.4556 -0.8349
  397MOL0     C53522   9.999  10.935   4.449  0.8452 -0.0690  0.0570
  397MOL0     C53523   9.969  11.010   4.571 -0.1396 -0.2966  0.6849
  397MOL0     C53524   9.957  11.082   4.666 -0.3010  0.3576  0.1201
  397MOL0     C53525  10.357  10.713   4.141 -0.8138  0.3962  0.4251
  397MOL0     C53526  10.442  10.631   4.060 -0.1477  0.7826 -0.3625
  397MOL0     C53527  10.589  10.655   4.061 -0.6526 -0.3321  0.4313
  397MOL0     H53528  10.409  10.452   3.524  1.6691  1.1787  0.6076
  397MOL0     H53529  10.486  10.319   3.343 -0.1662  3.5421  0.7238
  397MOL0     H53530  10.630  10.187   3.200  0.7267 -1.4845 -1.9006
  397MOL0     H53531  10.756  10.244   3.314  2.7467 -1.5696 -1.4287
  397MOL0     H53532  10.761   9.979   3.169  0.3582  0.5358 -0.5642
  397MOL0     H53533  10.890  10.061   3.272  1.1493 -0.2668 -0.9545
  397MOL0     H53534  10.871  10.258   3.097 -1.7428  0.3623  0.2558
  397MOL0     H53535  10.767  10.143   3.001 -1.1833 -1.1947  1.6886
  397MOL0     H53536  10.971   9.990   3.027 -0.2741 -0.4409  2.4806
  397MOL0     H53537  11.003  10.130   2.925 -0.6086 -1.6440 -1.0018
  397MOL0     H53538  11.121  10.245   3.123  0.6279 -0.4767 -0.2215
  397MOL0     H53539  11.098  10.110   3.220  2.6484 -1.2621  0.5240
  397MOL0     H53540  11.220   9.979   3.035  0.9759  0.0677  0.8362
  397MOL0     H53541  11.277  10.144   2.986  1.4451 -2.1220 -1.9301
  397MOL0     H53542  11.427  10.048   3.122  0.5658  1.9209  0.4380
  397MOL0     H53543  11.326  10.031   3.267  3.0838 -1.2768  0.3225
  397MOL0     H53544  11.306  10.289   3.249 -1.0921  0.3706 -4.2615
  397MOL0     H53545  11.452  10.223   3.309  1.9065  0.3617 -1.1870
  397MOL0     H53546  11.668  10.228   3.111  0.3519  0.4264  2.2348
  397MOL0     H53547  11.802  10.404   2.890 -1.1821  0.2268 -2.4050
  397MOL0     H53548  11.704  10.545   2.861 -4.1903  0.9152  1.3261
  397MOL0     H53549  11.767  10.646   3.061  1.7092 -0.0329  0.3692
  397MOL0     H53550  11.831  10.489   3.128  0.2149 -1.6796 -0.9316
  397MOL0     H53551  11.945  10.659   2.900  0.8416  1.5952  0.0272
  397MOL0     H53552  12.029  10.509   2.963  1.5772  0.1922  0.6944
  397MOL0     H53553  12.144  10.635   3.098  1.1939  2.4320  3.5201
  397MOL0     H53554  11.994  10.659   3.176 -0.7966  0.1647 -1.4525
  397MOL0     H53555  11.999  11.019   3.188  0.0403 -1.6271  1.8741
  397MOL0     H53556  12.157  11.173   3.292 -0.5281  0.7554  0.2675
  397MOL0     H53557  12.786  11.142   3.143 -1.8401 -3.3211  1.0856
  397MOL0     H53558  12.996  11.256   3.258 -0.6827  2.5283 -1.1966
  397MOL0     H53559  13.095  11.474   3.389 -1.0768  0.4190 -0.3639
  397MOL0     H53560  12.946  11.509   3.492  0.5547  0.0145  3.5605
  397MOL0     H53561  13.120  11.597   3.627  0.2590 -0.1732  1.2039
  397MOL0     H53562  13.090  11.432   3.684  1.5316 -1.8491 -0.0296
  397MOL0     H53563  13.316  11.396   3.661 -0.6346  0.3663  0.6861
  397MOL0     H53564  13.273  11.396   3.493  0.4351 -0.7362  1.3511
  397MOL0     H53565  13.367  11.648   3.657  0.2984  1.0384  0.1260
  397MOL0     H53566  13.339  11.652   3.490  2.6335 -0.2616 -1.5708
  397MOL0     H53567  13.538  11.489   3.468  4.2758  1.1911 -0.2743
  397MOL0     H53568  13.556  11.496   3.644  0.8850  0.6960 -0.0237
  397MOL0     H53569  13.562  11.750   3.484  0.7579  0.3894 -0.3828
  397MOL0     H53570  13.625  11.727   3.642  0.9509  1.3297 -0.2683
  397MOL0     H53571  13.779  11.555   3.497 -3.3809  0.2797  3.3348
  397MOL0     H53572  13.821  11.735   3.505 -0.1165  1.4489 -1.0412
  397MOL0     H53573  13.629  11.645   3.289  0.8121 -1.6186  0.2582
  397MOL0     H53574  13.738  11.779   3.276 -1.8896  1.1904  0.6639
  397MOL0     H53575  12.792  11.247   3.628  0.2091  0.9976  0.4575
  397MOL0     H53576  12.576  11.172   3.508  0.9105 -2.4103  0.3890
  397MOL0     H53577  12.479  10.938   3.115  0.7670  3.2087 -1.4041
  397MOL0     H53578  12.309  10.789   3.026 -0.1371 -2.6117  3.4941
  397MOL0     H53579  10.626  10.027   3.631  0.5863  0.5419  0.8904
  397MOL0     H53580  10.556  10.178   3.814  0.6127  0.9112 -0.0754
  397MOL0     H53581  10.208  10.428   3.928 -3.0467  2.7019 -0.7998
  397MOL0     H53582  10.058  10.571   4.062 -0.8569  1.2214  0.3575
  397MOL0     H53583  10.010  10.787   4.063 -1.6157 -1.0530 -0.0389
  397MOL0     H53584  10.016  10.942   4.146 -2.3757  0.1282 -1.3047
  397MOL0     H53585   9.905  10.708   4.310  1.4224  0.6716  1.1935
  397MOL0     H53586   9.802  10.777   4.192  0.8307 -3.1525  0.3363
  397MOL0     H53587   9.790  10.862   4.416  1.8766 -3.4001 -0.2866
  397MOL0     H53588   9.837  10.992   4.296  1.6819  0.0521 -0.9886
  397MOL0     H53589  10.057  10.846   4.476  0.3167 -0.0886  1.1701
  397MOL0     H53590  10.063  11.002   4.389 -0.7232  0.6508 -0.8713
  397MOL0     H53591   9.963  11.136   4.758 -0.6240 -0.5102  0.6643
  397MOL0     H53592  10.380  10.789   4.215 -2.2837  0.4121  0.9072
  397MOL0     H53593  10.623  10.664   3.957  2.3893 -0.3270  1.3207
  397MOL0     H53594  10.612  10.749   4.111 -2.6009  0.4533 -0.0602
  397MOL0     H53595  10.642  10.565   4.093 -1.2016 -0.8633 -0.1182
  398MOL0     O53596   0.001   7.896   7.224 -0.2429  0.4822  0.4886
  398MOL0     C53597  -0.058   7.848   7.125 -0.1636  0.1926 -0.0132
  398MOL0     O53598   0.004   7.803   7.009  0.0347  0.4838 -0.3241
  398MOL0     C53599   0.143   7.803   7.000 -0.9467 -0.6646 -0.2462
  398MOL0     C53600   0.228   7.731   7.074  0.8634 -0.2950  0.3564
  398MOL0     C53601   0.359   7.727   7.041 -1.0280  0.2840 -0.3050
  398MOL0     C53602   0.418   7.796   6.932  0.2872  0.2599  0.6955
  398MOL0     O53603   0.546   7.774   6.914 -0.0428 -0.4918 -0.0326
  398MOL0     C53604   0.609   7.825   6.795  0.3208  0.4456  0.2111
  398MOL0     C53605   0.758   7.781   6.789 -0.3192  0.0229 -0.3092
  398MOL0     C53606   0.767   7.623   6.787 -0.3618  0.2667 -0.4466
  398MOL0     C53607   0.908   7.568   6.763  0.5805 -0.7636  0.6057
  398MOL0     C53608   1.005   7.579   6.880 -0.7851  0.1789  0.3440
  398MOL0     C53609   1.131   7.497   6.861 -0.6084  0.2052 -0.2713
  398MOL0     C53610   1.225   7.515   6.974 -0.3613 -0.2586  0.4562
  398MOL0     C53611   1.333   7.404   6.980  0.3528 -0.0447 -0.2422
  398MOL0     N53612   1.413   7.397   7.111  0.2433 -0.1543  0.7693
  398MOL0     C53613   1.376   7.342   7.231  0.0006  0.0183  0.1012
  398MOL0     C53614   1.476   7.373   7.320  0.0764 -0.8052  0.0769
  398MOL0     C53615   1.474   7.332   7.468 -0.1717  0.3861 -1.1509
  398MOL0     C53616   1.605   7.258   7.498 -0.8795 -0.1925 -0.9150
  398MOL0     C53617   1.597   7.215   7.646 -0.0983 -0.7547 -0.2149
  398MOL0     C53618   1.728   7.157   7.703  0.2113 -0.2912  0.5013
  398MOL0     O53619   1.845   7.248   7.676  0.7848  1.0069 -0.1409
  398MOL0     C53620   1.964   7.195   7.713  0.6472 -0.0945 -0.3949
  398MOL0     C53621   1.989   7.100   7.818  0.4907  0.3064  0.7918
  398MOL0     C53622   2.125   7.063   7.848  0.3784 -0.9361 -0.2453
  398MOL0     C53623   2.237   7.115   7.777  0.0743  0.6972  0.1939
  398MOL0     C53624   2.369   7.060   7.796  0.2643 -0.4234 -0.6516
  398MOL0     O53625   2.472   7.137   7.750  0.3162  0.6682  0.5767
  398MOL0     C53626   2.595   7.089   7.787  0.4406 -0.1615  1.1790
  398MOL0     C53627   2.653   6.983   7.708  0.5254 -0.3948  0.3010
  398MOL0     C53628   2.784   6.942   7.726  0.7052 -0.0120  0.1172
  398MOL0     C53629   2.855   6.978   7.839 -0.0782 -0.7931  0.4624
  398MOL0     O53630   2.988   6.944   7.878 -0.2176  0.2769  0.4744
  398MOL0     C53631   3.074   6.875   7.783 -0.5185  0.5092  0.3743
  398MOL0     C53632   3.214   6.844   7.842  0.3317 -0.4005 -0.2786
  398MOL0     C53633   3.276   6.986   7.865 -0.4674 -0.0411  0.7260
  398MOL0     C53634   3.392   6.973   7.964 -0.4225 -0.9425 -0.1654
  398MOL0     C53635   3.429   7.113   8.015 -0.3687 -0.3124 -0.0448
  398MOL0     C53636   3.474   7.208   7.894  0.8175  0.0185 -0.2253
  398MOL0     C53637   3.541   7.324   7.947 -0.2628 -0.2902 -0.7546
  398MOL0     C53638   3.612   7.399   7.837  0.5877 -0.5357 -0.1213
  398MOL0    Cl53639   3.771   7.314   7.806  0.0471  0.0036 -0.0243
  398MOL0     C53640   2.799   7.083   7.922 -0.6478  0.5221  1.6507
  398MOL0     C53641   2.662   7.131   7.898  0.2582  0.8955 -0.3049
  398MOL0     O53642   2.375   6.958   7.858  0.5023 -0.4455  0.6774
  398MOL0     C53643   2.211   7.206   7.666  0.2445  0.5374 -0.0416
  398MOL0     C53644   2.078   7.237   7.641 -0.6749  0.8165 -0.3567
  398MOL0     N53645   1.574   7.439   7.252 -0.2665  0.4690 -0.4094
  398MOL0     N53646   1.533   7.458   7.132  0.7988  0.0435 -0.5575
  398MOL0     C53647   0.337   7.875   6.853  0.2582 -0.8449  1.1034
  398MOL0     C53648   0.198   7.886   6.888  0.3027  0.5060 -0.1165
  398MOL0     C53649  -0.209   7.832   7.115 -0.3794  0.3296  0.4303
  398MOL0     C53650  -0.260   7.773   6.997 -0.0175 -0.5659 -0.1649
  398MOL0     C53651  -0.392   7.751   6.981  0.5194  0.7118  0.7795
  398MOL0     C53652  -0.482   7.786   7.078 -0.0158  0.1061 -0.0959
  398MOL0     O53653  -0.619   7.792   7.065 -0.3178 -0.0418 -0.5565
  398MOL0     C53654  -0.682   7.692   6.982  0.4222  0.3410 -0.0704
  398MOL0     C53655  -0.709   7.758   6.842  0.8946  0.1848  0.6048
  398MOL0     C53656  -0.699   7.646   6.741 -0.8759 -0.5610 -0.5203
  398MOL0     C53657  -0.751   7.713   6.610  0.2230  0.4403 -0.3907
  398MOL0     C53658  -0.897   7.717   6.608  0.5204 -0.8330  0.5505
  398MOL0     C53659  -1.020   7.723   6.586 -0.7341  0.6348 -0.1225
  398MOL0     C53660  -0.433   7.847   7.194  0.4689  0.2831 -0.6181
  398MOL0     C53661  -0.295   7.859   7.219  0.5630 -0.2064  0.4298
  398MOL0     C53662  -0.253   7.930   7.343  0.4169 -0.9384 -0.1494
  398MOL0     H53663   0.190   7.681   7.163  0.5194 -0.3331  0.1882
  398MOL0     H53664   0.429   7.669   7.101  0.6202  3.1507  0.7225
  398MOL0     H53665   0.563   7.786   6.704 -0.6643  0.9660  0.4670
  398MOL0     H53666   0.589   7.933   6.796 -0.3204  0.3344 -0.1158
  398MOL0     H53667   0.802   7.811   6.884  0.0595 -1.3079 -0.0416
  398MOL0     H53668   0.812   7.820   6.702  2.9661 -2.5324  0.3931
  398MOL0     H53669   0.695   7.584   6.714 -1.4822  0.0296  0.7456
  398MOL0     H53670   0.722   7.567   6.870 -3.5147  0.9163 -1.5483
  398MOL0     H53671   0.891   7.472   6.714 -3.7520  1.0961 -2.1558
  398MOL0     H53672   0.945   7.620   6.673 -1.7709  0.0352  0.0377
  398MOL0     H53673   1.039   7.682   6.891 -0.0757 -0.1735  1.6764
  398MOL0     H53674   0.943   7.555   6.967 -1.0060  2.7615  0.9787
  398MOL0     H53675   1.107   7.391   6.847  1.7735 -0.2538 -1.4132
  398MOL0     H53676   1.163   7.526   6.761 -1.6214  1.8348 -0.1731
  398MOL0     H53677   1.166   7.510   7.066  0.1925 -3.2326  0.7770
  398MOL0     H53678   1.268   7.615   6.963 -2.3708  0.5045 -1.1591
  398MOL0     H53679   1.287   7.307   6.959 -3.5131  2.3131 -4.2500
  398MOL0     H53680   1.402   7.428   6.899 -0.7863  0.0780 -1.1948
  398MOL0     H53681   1.284   7.296   7.265 -0.8385  0.9525 -0.8401
  398MOL0     H53682   1.451   7.425   7.522 -1.2700  0.7375 -2.1747
  398MOL0     H53683   1.397   7.256   7.482  1.4179 -1.2059 -0.6139
  398MOL0     H53684   1.619   7.171   7.434 -0.2610 -1.5519  0.9629
  398MOL0     H53685   1.690   7.325   7.481 -1.1762 -0.1878 -2.4801
  398MOL0     H53686   1.533   7.127   7.644 -0.1403 -0.7384  0.2812
  398MOL0     H53687   1.557   7.298   7.706 -0.8275  1.4855 -3.5020
  398MOL0     H53688   1.746   7.054   7.673 -0.6287 -0.5056  0.7114
  398MOL0     H53689   1.716   7.164   7.811 -2.5316 -1.5476  0.3665
  398MOL0     H53690   1.913   7.051   7.878 -0.0693 -0.6571 -0.6308
  398MOL0     H53691   2.135   6.997   7.933  3.0774  0.2836  0.4823
  398MOL0     H53692   2.601   6.943   7.622 -0.5781  0.4339  0.5471
  398MOL0     H53693   2.827   6.864   7.665 -0.5684  0.6158 -1.6622
  398MOL0     H53694   3.028   6.781   7.752  1.6745 -0.8238  0.9750
  398MOL0     H53695   3.077   6.944   7.698  1.2857  0.8098  0.6471
  398MOL0     H53696   3.201   6.781   7.931  0.8230 -1.5976 -1.0396
  398MOL0     H53697   3.269   6.771   7.782 -0.6961 -1.6888  0.2844
  398MOL0     H53698   3.314   7.023   7.770  1.4560  0.6394  1.6967
  398MOL0     H53699   3.206   7.065   7.893  1.1193  2.3765 -1.6566
  398MOL0     H53700   3.483   6.934   7.916 -0.0005  0.6040 -0.6853
  398MOL0     H53701   3.360   6.910   8.047 -1.8311  0.9171  0.7548
  398MOL0     H53702   3.506   7.110   8.092 -2.0408 -0.2238  1.7006
  398MOL0     H53703   3.344   7.162   8.063  0.2588  1.0542 -0.2611
  398MOL0     H53704   3.544   7.157   7.826 -2.4646 -0.9945 -3.1464
  398MOL0     H53705   3.389   7.242   7.834  0.1505  0.8789  1.1675
  398MOL0     H53706   3.616   7.299   8.022 -1.1392  1.3837  0.7680
  398MOL0     H53707   3.467   7.382   8.003  2.1227 -1.2704  3.9656
  398MOL0     H53708   3.547   7.414   7.750 -0.7729  0.6483  1.0312
  398MOL0     H53709   3.619   7.504   7.866 -0.1495 -0.5202  0.0163
  398MOL0     H53710   2.856   7.134   7.998 -0.7153 -0.7825  2.6137
  398MOL0     H53711   2.637   7.224   7.949  2.0881  0.8677  0.7300
  398MOL0     H53712   2.291   7.240   7.602  4.2002 -1.1351  3.4927
  398MOL0     H53713   2.058   7.293   7.551 -0.3791  2.0981  0.3491
  398MOL0     H53714   0.379   7.930   6.769 -2.2243 -0.4056  0.0617
  398MOL0     H53715   0.117   7.937   6.837  1.5587  1.7679 -0.9169
  398MOL0     H53716  -0.203   7.739   6.911 -2.5911 -0.7771 -1.8930
  398MOL0     H53717  -0.429   7.711   6.887  0.4169  0.2249  1.0231
  398MOL0     H53718  -0.776   7.662   7.030  1.0078  1.8574  2.1495
  398MOL0     H53719  -0.613   7.607   6.971  1.0642  0.9201 -0.5709
  398MOL0     H53720  -0.636   7.837   6.823 -0.7299  1.6953  0.3742
  398MOL0     H53721  -0.807   7.805   6.831  1.3500  0.9220 -0.6090
  398MOL0     H53722  -0.768   7.566   6.768 -2.5005  1.3190  1.3246
  398MOL0     H53723  -0.596   7.612   6.736  1.3450  4.5632  2.0761
  398MOL0     H53724  -0.705   7.812   6.604  1.8964 -0.2185  0.6223
  398MOL0     H53725  -0.712   7.648   6.530 -2.6251 -0.2162 -1.3494
  398MOL0     H53726  -1.123   7.733   6.557 -1.1232 -3.9099 -1.1167
  398MOL0     H53727  -0.503   7.882   7.268 -0.0790  0.6136 -1.2820
  398MOL0     H53728  -0.342   7.951   7.403  1.1088 -0.8931  0.8853
  398MOL0     H53729  -0.201   7.862   7.411 -2.2931 -1.5594  1.4236
  398MOL0     H53730  -0.196   8.021   7.321  0.4112 -1.5992 -3.4472
  399MOL0     O53731   1.459   8.024   4.808  0.1128 -0.0426  0.1967
  399MOL0     C53732   1.433   7.961   4.911  1.0100  0.0082 -0.0434
  399MOL0     O53733   1.521   7.916   5.003 -0.3799 -0.2130 -0.6641
  399MOL0     C53734   1.655   7.936   4.972 -0.0287 -0.5233 -0.2363
  399MOL0     C53735   1.735   7.996   5.072 -0.4731 -0.3883  0.0188
  399MOL0     C53736   1.869   8.018   5.065  0.3287 -0.7630  0.0123
  399MOL0     C53737   1.938   7.978   4.946  0.1934 -0.2293 -1.2841
  399MOL0     O53738   2.075   7.979   4.934  0.9145  0.0318  0.0975
  399MOL0     C53739   2.159   8.018   5.038 -0.3082  0.7335  0.8818
  399MOL0     C53740   2.158   8.177   5.037  0.5604 -0.0246 -0.3902
  399MOL0     C53741   2.264   8.223   5.127  0.1731 -0.3988 -0.2443
  399MOL0     C53742   2.408   8.176   5.093  0.0811  0.3551  0.2355
  399MOL0     C53743   2.531   8.251   5.157  0.4385 -0.1669  0.2882
  399MOL0     C53744   2.542   8.396   5.099  1.1882  0.5713 -0.6784
  399MOL0     C53745   2.622   8.480   5.204 -1.1150 -1.0083  0.6765
  399MOL0     C53746   2.646   8.623   5.151  0.3474  0.2082 -0.6890
  399MOL0     N53747   2.753   8.678   5.228  0.6015 -0.3290  0.3478
  399MOL0     C53748   2.732   8.731   5.352 -0.3601 -0.5009  0.3716
  399MOL0     C53749   2.855   8.739   5.405  0.2412 -0.0097  0.3690
  399MOL0     C53750   2.876   8.768   5.553 -0.6967  0.1335  0.8133
  399MOL0     C53751   2.831   8.658   5.653  1.1458 -0.6970  0.2505
  399MOL0     C53752   2.896   8.524   5.598 -0.1196 -0.2441 -0.3301
  399MOL0     C53753   3.049   8.530   5.597  0.9545 -0.1150  0.0022
  399MOL0     O53754   3.106   8.545   5.733 -0.3005  0.2536  0.5440
  399MOL0     C53755   3.241   8.514   5.749  0.8210 -0.0905  0.2775
  399MOL0     C53756   3.335   8.460   5.661  1.0577  0.3362 -0.4326
  399MOL0     C53757   3.462   8.425   5.688  0.1209 -0.0528  0.5025
  399MOL0     C53758   3.502   8.452   5.821 -0.7769 -0.5856  0.7843
  399MOL0     C53759   3.629   8.402   5.864  0.0265  0.0581 -1.2640
  399MOL0     O53760   3.733   8.373   5.774 -0.3373 -0.1437 -0.0906
  399MOL0     C53761   3.861   8.336   5.813 -1.0423 -0.8700  0.0003
  399MOL0     C53762   3.919   8.260   5.707  0.2583  0.5084 -0.0379
  399MOL0     C53763   4.055   8.241   5.704  0.4129  0.5996 -0.5825
  399MOL0     C53764   4.131   8.267   5.822  0.2824 -0.2554 -0.0142
  399MOL0     O53765   4.266   8.243   5.812 -0.5544 -0.6793 -0.4112
  399MOL0     C53766   4.362   8.252   5.929 -0.1783  1.2368  1.1875
  399MOL0     C53767   4.507   8.224   5.884  0.6414  0.2928 -0.1746
  399MOL0     C53768   4.605   8.267   5.996 -0.5038  0.6342  0.1714
  399MOL0     C53769   4.752   8.286   5.957  0.2162 -0.2991  0.5929
  399MOL0     C53770   4.783   8.431   5.906  0.5609  0.3810  0.0334
  399MOL0     C53771   4.921   8.434   5.842  0.1173 -0.5627  0.1491
  399MOL0     C53772   5.023   8.454   5.949 -1.1028 -0.1217  0.3509
  399MOL0     C53773   5.158   8.460   5.889 -0.4032  0.1181  0.1848
  399MOL0    Cl53774   5.280   8.565   5.993  0.7068 -0.4463 -0.2300
  399MOL0     C53775   4.060   8.314   5.936  0.6280  0.3383  0.2055
  399MOL0     C53776   3.925   8.352   5.935 -0.2262 -0.4032 -0.2000
  399MOL0     O53777   3.629   8.379   5.991  0.0900  0.3181  0.2374
  399MOL0     C53778   3.416   8.520   5.907 -0.4489 -0.1462  0.1193
  399MOL0     C53779   3.290   8.546   5.869  0.9959  0.4057  0.1309
  399MOL0     N53780   2.947   8.719   5.298 -0.4171  0.1458 -0.0349
  399MOL0     N53781   2.883   8.663   5.201  0.0643 -0.6444 -0.4045
  399MOL0     C53782   1.860   7.927   4.836  0.5752 -0.5847 -0.7546
  399MOL0     C53783   1.720   7.900   4.851  0.0693 -0.8354 -0.0533
  399MOL0     C53784   1.291   7.935   4.929 -0.0407 -0.1575  0.3172
  399MOL0     C53785   1.253   7.858   5.044 -0.0883  0.3913  0.6324
  399MOL0     C53786   1.119   7.816   5.067 -0.9749 -0.0235 -0.0762
  399MOL0     C53787   1.016   7.858   4.983 -0.8922  0.5359 -0.2968
  399MOL0     O53788   0.887   7.822   5.006  0.1306 -0.9756  0.1277
  399MOL0     C53789   0.855   7.695   5.057 -0.3885  0.0308  0.5040
  399MOL0     C53790   0.720   7.696   5.122  0.1691 -0.5885 -0.7066
  399MOL0     C53791   0.599   7.694   5.022  0.4267 -0.4888 -0.0930
  399MOL0     C53792   0.467   7.724   5.097  1.0906  1.1856 -0.8833
  399MOL0     C53793   0.355   7.732   5.008  1.0927  0.8322 -0.5342
  399MOL0     C53794   0.256   7.730   4.948 -0.0251  0.0818  0.2175
  399MOL0     C53795   1.051   7.942   4.873  0.2337 -0.5363  0.2939
  399MOL0     C53796   1.187   7.982   4.844 -0.3053 -0.0723  0.1257
  399MOL0     C53797   1.214   8.059   4.712  0.2328 -0.1753 -0.8348
  399MOL0     H53798   1.684   8.034   5.160 -2.7192 -1.3442 -0.8116
  399MOL0     H53799   1.919   8.060   5.151 -3.0159  3.9559  0.0261
  399MOL0     H53800   2.129   7.974   5.133  1.1629 -0.3942  0.8563
  399MOL0     H53801   2.259   7.980   5.014 -1.2655 -0.9730 -0.6338
  399MOL0     H53802   2.061   8.211   5.074  1.6634  2.1766  0.6684
  399MOL0     H53803   2.174   8.224   4.939  0.5350  1.0721  0.1108
  399MOL0     H53804   2.244   8.187   5.228 -3.9349 -1.3107 -1.2300
  399MOL0     H53805   2.265   8.333   5.132  0.0940 -0.3137 -1.5474
  399MOL0     H53806   2.419   8.071   5.123  2.8575  0.3657 -0.5095
  399MOL0     H53807   2.415   8.167   4.984 -0.7169 -1.9367  0.3166
  399MOL0     H53808   2.519   8.251   5.266 -0.3843 -1.2660  0.2125
  399MOL0     H53809   2.620   8.194   5.130  0.2558  1.1282 -3.6024
  399MOL0     H53810   2.583   8.392   4.998 -3.6943 -1.6455 -2.8870
  399MOL0     H53811   2.445   8.443   5.082  0.3076 -1.2591 -0.8781
  399MOL0     H53812   2.721   8.441   5.227  0.0357  1.2584 -0.1613
  399MOL0     H53813   2.560   8.491   5.294 -1.8837  3.5481 -0.1583
  399MOL0     H53814   2.674   8.617   5.045 -1.4449 -1.4923 -1.1363
  399MOL0     H53815   2.549   8.671   5.170 -1.2183 -3.4790  1.8758
  399MOL0     H53816   2.637   8.745   5.401 -0.7590  0.1748 -0.5623
  399MOL0     H53817   2.981   8.796   5.565 -1.1244  2.6660 -0.5528
  399MOL0     H53818   2.816   8.857   5.576 -2.8274 -0.0241 -3.2013
  399MOL0     H53819   2.850   8.686   5.757 -0.2304  1.2786  0.0128
  399MOL0     H53820   2.722   8.663   5.650  1.1436 -0.3725  0.7863
  399MOL0     H53821   2.864   8.496   5.497 -1.1251  0.6955 -0.2813
  399MOL0     H53822   2.865   8.436   5.655 -1.3390  1.2069  1.3141
  399MOL0     H53823   3.069   8.614   5.530 -0.7250  0.6248  0.3648
  399MOL0     H53824   3.086   8.439   5.549  1.3266 -0.5925  1.1461
  399MOL0     H53825   3.291   8.452   5.562 -3.0048  1.7826  1.0384
  399MOL0     H53826   3.531   8.385   5.614 -0.8886 -1.7179  0.4182
  399MOL0     H53827   3.874   8.242   5.610  1.4607  0.1350 -0.5552
  399MOL0     H53828   4.106   8.201   5.616  1.8947 -1.2875  1.0285
  399MOL0     H53829   4.355   8.354   5.969 -2.3947  0.5659  2.7014
  399MOL0     H53830   4.320   8.188   6.008 -3.0913 -0.8299 -1.7525
  399MOL0     H53831   4.523   8.119   5.859 -1.0623 -0.0499  0.0389
  399MOL0     H53832   4.527   8.278   5.791  2.3379 -3.2653 -2.0756
  399MOL0     H53833   4.568   8.360   6.042 -1.6814  1.4966 -2.3174
  399MOL0     H53834   4.594   8.186   6.069 -0.6454  2.8251  2.7577
  399MOL0     H53835   4.777   8.206   5.886 -0.1396 -1.9108  2.2182
  399MOL0     H53836   4.831   8.261   6.028  1.0358 -1.5429 -0.6844
  399MOL0     H53837   4.774   8.506   5.984  0.3738 -0.5501  0.9216
  399MOL0     H53838   4.705   8.445   5.830 -2.1130 -1.4798  2.2063
  399MOL0     H53839   4.933   8.345   5.780  3.5666 -0.5939  0.6854
  399MOL0     H53840   4.922   8.519   5.773  0.4809 -0.5703  0.1430
  399MOL0     H53841   5.033   8.367   6.015  2.3706 -0.4544 -0.4135
  399MOL0     H53842   5.005   8.540   6.014 -1.5562 -0.3957  0.5945
  399MOL0     H53843   5.202   8.361   5.871  1.7738  1.3693 -1.8715
  399MOL0     H53844   5.163   8.508   5.791  2.6975  1.7989  1.0265
  399MOL0     H53845   4.112   8.326   6.031  0.9333 -0.1731  0.1070
  399MOL0     H53846   3.885   8.400   6.024  1.5706 -0.2583  0.5740
  399MOL0     H53847   3.444   8.543   6.010 -1.7192 -4.1173  1.5612
  399MOL0     H53848   3.222   8.597   5.937  1.7369  0.9502  0.4769
  399MOL0     H53849   1.920   7.907   4.747 -0.1675  2.0926 -1.9622
  399MOL0     H53850   1.673   7.862   4.761  2.0086  1.5468 -2.2317
  399MOL0     H53851   1.333   7.831   5.113  0.0865  0.7940  0.5916
  399MOL0     H53852   1.098   7.763   5.160  0.2955  1.1376  0.9135
  399MOL0     H53853   0.928   7.665   5.132  0.2710 -0.6390 -0.3952
  399MOL0     H53854   0.867   7.620   4.979 -1.8339 -1.5969  1.7816
  399MOL0     H53855   0.719   7.782   5.190 -0.1735  0.8538 -2.4423
  399MOL0     H53856   0.718   7.599   5.172  1.3147 -0.6704 -0.7966
  399MOL0     H53857   0.596   7.598   4.969 -0.9491 -0.2194 -0.5498
  399MOL0     H53858   0.610   7.776   4.951 -0.9136 -0.6155 -0.4731
  399MOL0     H53859   0.448   7.642   5.167  0.4937  1.8171 -0.2948
  399MOL0     H53860   0.466   7.814   5.158  0.9784 -0.4124  1.6346
  399MOL0     H53861   0.165   7.742   4.895 -0.4032 -0.3090  0.7622
  399MOL0     H53862   0.974   7.984   4.809  0.5954 -0.4475 -0.0880
  399MOL0     H53863   1.268   8.150   4.741 -0.3257 -0.1909  0.3402
  399MOL0     H53864   1.267   7.993   4.643 -0.9831 -2.0732 -0.0481
  399MOL0     H53865   1.123   8.095   4.663  0.3097  0.0812 -0.7915
  400MOL0     O53866   8.238   5.039   7.928  0.0827  0.3503  0.0063
  400MOL0     C53867   8.186   4.934   7.969  0.1799  0.3905  0.4080
  400MOL0     O53868   8.255   4.819   7.997  0.4315 -0.3287 -0.3129
  400MOL0     C53869   8.392   4.825   7.998 -0.1219  0.6613 -0.0215
  400MOL0     C53870   8.473   4.911   8.071 -0.3012  0.7482  0.0851
  400MOL0     C53871   8.613   4.914   8.052 -0.2492  0.0733 -0.8771
  400MOL0     C53872   8.676   4.839   7.955  0.0098 -0.1103  0.3833
  400MOL0     O53873   8.816   4.833   7.948  0.1694  0.2411  0.4030
  400MOL0     C53874   8.879   4.791   7.826  1.0171 -0.3580  0.6095
  400MOL0     C53875   8.862   4.853   7.692  0.3598  0.3857  0.2850
  400MOL0     C53876   8.993   4.888   7.619 -0.7785 -0.0710 -0.1677
  400MOL0     C53877   8.964   4.966   7.485 -0.8787  0.7269 -0.2915
  400MOL0     C53878   9.091   4.993   7.403 -0.0219  0.0480  1.5728
  400MOL0     C53879   9.048   4.999   7.254  0.5100 -0.1182 -0.4731
  400MOL0     C53880   9.168   5.036   7.165  0.4556 -0.8805 -0.2264
  400MOL0     C53881   9.138   5.034   7.020  0.0152  0.1137  0.2279
  400MOL0     N53882   9.132   4.896   6.977  0.3362 -0.0395 -0.0515
  400MOL0     C53883   9.225   4.810   6.910  0.6593 -0.8058  0.8203
  400MOL0     C53884   9.152   4.719   6.836  0.5315  0.7307 -1.1335
  400MOL0     C53885   9.203   4.591   6.759 -0.6602  0.2116  0.1020
  400MOL0     C53886   9.343   4.547   6.813 -0.0695  0.8439  0.4884
  400MOL0     C53887   9.402   4.412   6.744  1.1218 -0.3488 -0.3075
  400MOL0     C53888   9.547   4.399   6.781  0.8047  0.0042 -0.0355
  400MOL0     O53889   9.601   4.275   6.731 -0.6701  0.7201  0.4699
  400MOL0     C53890   9.731   4.283   6.680 -0.5517  0.5964 -0.2846
  400MOL0     C53891   9.768   4.380   6.589 -0.0229 -0.5178  0.4831
  400MOL0     C53892   9.897   4.394   6.544  0.3083  0.4041 -0.4423
  400MOL0     C53893  10.001   4.316   6.600  0.3884 -0.3836 -0.2648
  400MOL0     C53894  10.147   4.318   6.556  0.2394  0.3804  0.0356
  400MOL0     O53895  10.171   4.422   6.475 -0.4669 -0.2952  1.2557
  400MOL0     C53896  10.291   4.426   6.400  1.7935 -1.2091 -0.5113
  400MOL0     C53897  10.403   4.460   6.469 -0.4799  0.1369  0.7278
  400MOL0     C53898  10.522   4.465   6.401  0.0017 -0.3713  0.6574
  400MOL0     C53899  10.531   4.446   6.270 -0.3191 -0.0366  1.0617
  400MOL0     O53900  10.657   4.446   6.223 -1.2623 -0.1268  0.3408
  400MOL0     C53901  10.698   4.381   6.103 -0.9812  0.4721  0.7285
  400MOL0     C53902  10.813   4.460   6.033  0.3014  0.2404 -0.0887
  400MOL0     C53903  10.945   4.476   6.120  0.5166 -0.1465  0.3687
  400MOL0     C53904  11.031   4.348   6.111  0.6664 -0.1406  0.7782
  400MOL0     C53905  11.155   4.368   6.197  0.8230 -0.5515 -0.6092
  400MOL0     C53906  11.241   4.237   6.188 -0.4253  0.4481 -0.6318
  400MOL0     C53907  11.372   4.263   6.262 -0.7712 -0.8262 -1.4167
  400MOL0     C53908  11.463   4.143   6.271 -1.0358 -0.9425  0.0901
  400MOL0    Cl53909  11.557   4.115   6.124  0.6269  0.2702  0.1573
  400MOL0     C53910  10.412   4.407   6.194  0.1971 -0.0478 -0.0825
  400MOL0     C53911  10.292   4.411   6.261 -0.1615  0.3280 -0.1741
  400MOL0     O53912  10.225   4.231   6.596 -0.7276 -0.4358  0.5259
  400MOL0     C53913   9.956   4.219   6.688  0.4717  0.2096  0.3318
  400MOL0     C53914   9.825   4.193   6.719  0.1156 -0.0798 -0.2738
  400MOL0     N53915   9.022   4.737   6.867 -0.6843 -0.1867  0.3363
  400MOL0     N53916   9.010   4.837   6.942 -0.0857  0.0331 -0.0913
  400MOL0     C53917   8.598   4.754   7.879  0.7504  0.1164 -0.0133
  400MOL0     C53918   8.466   4.743   7.902 -0.0713  0.9111  0.5572
  400MOL0     C53919   8.039   4.938   7.995 -0.9154 -0.5014  0.0446
  400MOL0     C53920   7.986   4.810   8.004  0.6552  0.1343  0.6598
  400MOL0     C53921   7.849   4.788   8.026 -0.5536  0.7320 -1.0170
  400MOL0     C53922   7.762   4.894   8.036 -0.2908 -0.2278  0.4865
  400MOL0     O53923   7.623   4.889   8.065  0.1635 -0.6767 -0.6108
  400MOL0     C53924   7.571   4.756   8.105 -0.3173 -1.4431 -0.4353
  400MOL0     C53925   7.428   4.767   8.133  0.1112 -0.4018 -0.4457
  400MOL0     C53926   7.391   4.878   8.238 -0.2082  0.1113 -0.7718
  400MOL0     C53927   7.478   4.878   8.369  0.7031 -0.7196 -0.3996
  400MOL0     C53928   7.510   4.751   8.429 -0.3749  0.1816  0.1372
  400MOL0     C53929   7.545   4.649   8.485  0.1644  0.5979  0.2705
  400MOL0     C53930   7.812   5.024   8.025 -0.1691  0.9353  0.3217
  400MOL0     C53931   7.951   5.055   8.003  0.0273 -0.1084  0.5383
  400MOL0     C53932   7.990   5.197   8.013  0.1834  0.4862  0.1408
  400MOL0     H53933   8.432   4.983   8.141 -0.2743  2.3430 -1.4403
  400MOL0     H53934   8.674   4.969   8.123 -0.5225 -1.7278  0.8383
  400MOL0     H53935   8.987   4.784   7.844  0.9476 -3.3482  0.3724
  400MOL0     H53936   8.858   4.684   7.813  0.5038 -0.2847  0.8273
  400MOL0     H53937   8.805   4.945   7.710 -0.4694  0.2107 -1.2848
  400MOL0     H53938   8.809   4.782   7.628  0.4530  1.3563 -0.9149
  400MOL0     H53939   9.050   4.794   7.611 -0.8322 -0.0339 -1.2008
  400MOL0     H53940   9.054   4.952   7.682 -0.9227  1.2405 -1.3059
  400MOL0     H53941   8.891   4.901   7.436  0.3945 -3.7150  2.9794
  400MOL0     H53942   8.903   5.055   7.500  0.0337  1.1681  0.9654
  400MOL0     H53943   9.130   5.090   7.435  1.1441 -0.4769  1.8182
  400MOL0     H53944   9.170   4.917   7.412 -0.4775 -0.8445 -1.0241
  400MOL0     H53945   9.009   4.901   7.226 -1.1637  0.7337 -1.2557
  400MOL0     H53946   8.974   5.078   7.240  1.5844  0.9858 -0.1253
  400MOL0     H53947   9.252   4.973   7.196  0.2866 -0.1042  1.9364
  400MOL0     H53948   9.206   5.136   7.189 -0.8704 -0.5522  0.5980
  400MOL0     H53949   9.038   5.070   6.992  0.1735 -1.9205 -3.6257
  400MOL0     H53950   9.210   5.085   6.955 -0.5099 -0.8295 -1.1195
  400MOL0     H53951   9.328   4.831   6.883  0.7502 -0.4392  1.4419
  400MOL0     H53952   9.134   4.506   6.763  0.9007 -1.0654  1.8903
  400MOL0     H53953   9.220   4.604   6.652  1.7282 -1.8279  0.1274
  400MOL0     H53954   9.409   4.631   6.790 -1.6933  2.1535  0.4241
  400MOL0     H53955   9.332   4.524   6.919 -0.1348  0.2635  0.3636
  400MOL0     H53956   9.405   4.431   6.636  2.5854  2.9794  0.1831
  400MOL0     H53957   9.344   4.324   6.771 -1.1340  1.7843  2.4617
  400MOL0     H53958   9.563   4.400   6.889  1.3989  2.0863 -0.1047
  400MOL0     H53959   9.601   4.480   6.733  1.8129 -2.0143 -2.5296
  400MOL0     H53960   9.686   4.438   6.548 -0.5067 -2.0340 -0.8348
  400MOL0     H53961   9.930   4.469   6.473 -0.7429  1.9957  0.6986
  400MOL0     H53962  10.404   4.469   6.577 -0.5546 -1.7387  0.9247
  400MOL0     H53963  10.619   4.477   6.449  1.4901 -0.4830 -2.1361
  400MOL0     H53964  10.741   4.282   6.120  2.3002  1.4994 -0.7692
  400MOL0     H53965  10.617   4.369   6.030  0.4403 -2.1404 -0.5757
  400MOL0     H53966  10.841   4.418   5.936 -2.2788  0.4673 -1.0214
  400MOL0     H53967  10.775   4.559   6.007  0.8861  0.1873 -1.1964
  400MOL0     H53968  11.017   4.555   6.097 -1.8645  2.5555  1.4761
  400MOL0     H53969  10.911   4.489   6.223 -1.2830 -1.8924  0.0518
  400MOL0     H53970  11.039   4.327   6.004  0.6596 -0.0718  0.7639
  400MOL0     H53971  10.977   4.264   6.156  1.6309 -1.6845 -0.7832
  400MOL0     H53972  11.137   4.403   6.299  2.4878  3.7743 -1.5451
  400MOL0     H53973  11.214   4.450   6.153  0.8472  1.2883  2.5837
  400MOL0     H53974  11.191   4.156   6.243  2.6781 -2.1801 -1.3415
  400MOL0     H53975  11.269   4.218   6.084 -1.8413 -0.3465 -0.9015
  400MOL0     H53976  11.350   4.292   6.365  1.1471 -1.0496 -0.9122
  400MOL0     H53977  11.424   4.354   6.230 -0.7054 -0.7150 -1.0061
  400MOL0     H53978  11.543   4.180   6.336 -1.1663  0.6203 -0.5873
  400MOL0     H53979  11.416   4.051   6.306 -2.4096 -0.4754 -0.4747
  400MOL0     H53980  10.408   4.384   6.088  2.8541  2.2830 -0.7909
  400MOL0     H53981  10.199   4.396   6.207  0.7303  0.1000 -1.7137
  400MOL0     H53982  10.030   4.151   6.729  1.6998 -0.2004 -2.3421
  400MOL0     H53983   9.795   4.119   6.792 -0.2188 -0.5146 -0.8429
  400MOL0     H53984   8.646   4.690   7.805  1.4906  2.4537 -1.6847
  400MOL0     H53985   8.407   4.693   7.826  1.8991 -0.6814  0.0014
  400MOL0     H53986   8.050   4.725   7.988  0.0658  0.2499 -3.4757
  400MOL0     H53987   7.816   4.686   8.039  3.3973 -0.3826  2.6819
  400MOL0     H53988   7.620   4.716   8.194 -0.2388  1.1199  0.7493
  400MOL0     H53989   7.592   4.697   8.015 -1.2503  0.1574 -1.7492
  400MOL0     H53990   7.392   4.672   8.174  0.4191 -0.1466  0.4488
  400MOL0     H53991   7.371   4.779   8.040  0.1088  2.0482 -0.2074
  400MOL0     H53992   7.287   4.864   8.269 -0.3588  0.0018 -1.3106
  400MOL0     H53993   7.397   4.974   8.187  1.1726 -0.0657 -0.9902
  400MOL0     H53994   7.574   4.927   8.352 -0.4982  2.5143  1.4080
  400MOL0     H53995   7.419   4.936   8.441 -0.5084 -2.4764  0.0987
  400MOL0     H53996   7.573   4.561   8.539  1.3748  0.9866  0.3204
  400MOL0     H53997   7.745   5.106   8.047 -1.3097  0.3493 -0.8283
  400MOL0     H53998   8.038   5.218   7.916 -0.2484 -3.7321 -1.1946
  400MOL0     H53999   7.897   5.253   8.027  1.0020  1.7236  0.7906
  400MOL0     H54000   8.056   5.217   8.098 -0.8715  3.6594  0.3649
  401MOL0     O54001   1.349  10.059   4.733  0.0786 -0.6575 -0.1056
  401MOL0     C54002   1.345  10.116   4.625 -0.7873 -0.3864  0.5669
  401MOL0     O54003   1.420  10.223   4.588  0.3193  0.1452 -0.1616
  401MOL0     C54004   1.511  10.278   4.678 -0.3527  0.0713  0.4886
  401MOL0     C54005   1.490  10.303   4.814  0.0290 -0.6325 -0.0257
  401MOL0     C54006   1.592  10.331   4.900 -0.0855  0.1030 -0.5401
  401MOL0     C54007   1.719  10.352   4.843 -0.4726 -0.2576 -0.1638
  401MOL0     O54008   1.834  10.392   4.915  0.4453  0.2077 -0.0588
  401MOL0     C54009   1.956  10.331   4.885  0.2818  0.0913 -0.4708
  401MOL0     C54010   2.054  10.347   5.000 -0.6701  1.1621  0.7354
  401MOL0     C54011   2.193  10.293   4.969  0.5199 -0.4342 -0.1170
  401MOL0     C54012   2.195  10.146   4.953  0.1823 -0.4776  0.5812
  401MOL0     C54013   2.333  10.087   4.940 -0.3066 -0.0124  0.2560
  401MOL0     C54014   2.406  10.076   5.070 -0.2647 -0.5027 -0.2407
  401MOL0     C54015   2.547  10.006   5.053 -0.0488  0.0645  0.2066
  401MOL0     C54016   2.612   9.973   5.186 -0.1930  0.9356 -0.0165
  401MOL0     N54017   2.740   9.897   5.165 -0.1853  0.3161 -0.0640
  401MOL0     C54018   2.764   9.764   5.141  0.5593 -0.6346 -0.8992
  401MOL0     C54019   2.892   9.760   5.107  1.2314  0.5388 -0.2901
  401MOL0     C54020   2.985   9.650   5.075  0.1340  0.9744  0.3569
  401MOL0     C54021   3.002   9.628   4.924 -0.5051  0.0225  0.9849
  401MOL0     C54022   3.118   9.537   4.881 -0.3267 -0.3108 -0.2718
  401MOL0     C54023   3.257   9.579   4.927 -0.5924 -0.6679  0.2474
  401MOL0     O54024   3.343   9.520   4.831 -0.6851 -0.3087 -0.4138
  401MOL0     C54025   3.478   9.546   4.839  0.4633 -0.0283  0.2955
  401MOL0     C54026   3.552   9.537   4.726  0.2177  0.8020  0.1806
  401MOL0     C54027   3.688   9.543   4.727  0.0007 -0.5417  0.7125
  401MOL0     C54028   3.752   9.587   4.844 -0.6602 -0.2417 -0.4283
  401MOL0     C54029   3.898   9.610   4.834  0.8864  0.0372  0.1892
  401MOL0     O54030   3.954   9.649   4.951  0.6028 -0.5433  0.1304
  401MOL0     C54031   4.085   9.696   4.957 -0.3617  0.5271  0.3498
  401MOL0     C54032   4.190   9.613   4.903  0.9528 -1.0926  0.2364
  401MOL0     C54033   4.328   9.648   4.932  0.0938 -0.5177  0.2426
  401MOL0     C54034   4.352   9.768   5.005 -0.4855 -0.3920 -0.2972
  401MOL0     O54035   4.475   9.791   5.064 -0.1828  0.4360  0.1745
  401MOL0     C54036   4.597   9.765   4.978  0.1799  0.1502  0.0887
  401MOL0     C54037   4.720   9.831   5.061  0.1638  0.5269  0.1674
  401MOL0     C54038   4.856   9.772   5.004  0.1570 -0.5837 -0.1499
  401MOL0     C54039   4.879   9.631   5.066 -1.1195  0.5163 -0.1312
  401MOL0     C54040   4.981   9.553   4.982  0.1140  0.8315 -0.6044
  401MOL0     C54041   5.014   9.416   5.056  0.1278 -0.5793  0.6403
  401MOL0     C54042   5.101   9.318   4.976 -0.1910  0.0834 -0.3703
  401MOL0     C54043   5.124   9.178   5.048  0.9214  0.0188 -0.4167
  401MOL0    Cl54044   5.222   9.206   5.197 -0.1534  0.3109 -0.0946
  401MOL0     C54045   4.238   9.841   5.058 -0.2110 -0.6367 -0.0283
  401MOL0     C54046   4.109   9.814   5.031  0.2512 -0.1774  0.6011
  401MOL0     O54047   3.951   9.607   4.727  0.0096  0.5366 -0.4559
  401MOL0     C54048   3.676   9.599   4.963 -1.0679  0.0722 -0.1840
  401MOL0     C54049   3.538   9.576   4.955  0.1962 -0.5229 -0.1008
  401MOL0     N54050   2.937   9.882   5.083  0.5431 -0.4069 -0.1077
  401MOL0     N54051   2.846   9.960   5.124  1.0413  0.0194 -0.0290
  401MOL0     C54052   1.740  10.320   4.709  0.2245  0.0645 -0.2669
  401MOL0     C54053   1.637  10.287   4.627  0.4917 -0.0863  0.2972
  401MOL0     C54054   1.243  10.059   4.527  0.5741 -0.5627  0.9891
  401MOL0     C54055   1.242  10.100   4.392  0.4143 -0.2111 -0.0466
  401MOL0     C54056   1.150  10.049   4.306  0.1783  0.1144 -0.3045
  401MOL0     C54057   1.057   9.957   4.343 -0.0182  0.0108  0.5361
  401MOL0     O54058   0.946   9.929   4.265  0.2969  0.0216 -0.1339
  401MOL0     C54059   0.953   9.936   4.121  0.2570  0.0797 -0.9364
  401MOL0     C54060   0.846   9.851   4.061 -0.2182  0.3103  0.0478
  401MOL0     C54061   0.797   9.910   3.933  0.0396 -0.3391  0.0060
  401MOL0     C54062   0.727   9.809   3.848 -0.3529 -0.4513 -0.1279
  401MOL0     C54063   0.593   9.764   3.902 -0.3324  0.0628 -0.7594
  401MOL0     C54064   0.475   9.760   3.942 -0.0553 -0.3331 -1.1861
  401MOL0     C54065   1.064   9.909   4.469 -0.4316 -0.1057  0.2637
  401MOL0     C54066   1.141   9.967   4.569  0.5855  0.9380  0.3446
  401MOL0     C54067   1.104   9.925   4.712 -0.3983  0.1052  0.4382
  401MOL0     H54068   1.388  10.296   4.851  1.0820 -1.5991  3.0215
  401MOL0     H54069   1.561  10.357   5.000  1.3792  1.3035 -0.3600
  401MOL0     H54070   1.952  10.223   4.873 -0.0444  0.2954 -2.5605
  401MOL0     H54071   2.000  10.372   4.794  0.5598 -0.1556 -0.4500
  401MOL0     H54072   2.016  10.289   5.084 -1.6622  0.3954 -0.2217
  401MOL0     H54073   2.054  10.454   5.026 -0.7975  1.2321  0.4535
  401MOL0     H54074   2.257  10.326   5.051 -0.9264 -0.9999  1.2885
  401MOL0     H54075   2.227  10.345   4.879 -2.4910  0.3019 -0.9510
  401MOL0     H54076   2.144  10.095   5.036  1.3860 -0.7251  1.1946
  401MOL0     H54077   2.155  10.103   4.861  1.4330 -1.3953  0.4359
  401MOL0     H54078   2.328   9.994   4.882  0.3194  1.1673 -1.7767
  401MOL0     H54079   2.388  10.149   4.869  1.7642 -2.4411 -0.4094
  401MOL0     H54080   2.429  10.173   5.115 -0.1749 -1.3447  1.6255
  401MOL0     H54081   2.337  10.030   5.142  1.4004 -1.7543  0.6056
  401MOL0     H54082   2.618  10.061   4.991 -0.5956  0.0204 -0.4860
  401MOL0     H54083   2.537   9.914   4.994 -1.5559  0.9324 -0.9911
  401MOL0     H54084   2.634  10.064   5.242  1.2344  1.8920 -2.0223
  401MOL0     H54085   2.542   9.905   5.237  2.1479 -1.7339 -0.1441
  401MOL0     H54086   2.695   9.680   5.142  0.1990 -0.3308  0.2932
  401MOL0     H54087   3.077   9.674   5.129 -0.5613  0.7624  1.6939
  401MOL0     H54088   2.941   9.559   5.117  0.3794 -0.6036 -2.5323
  401MOL0     H54089   2.916   9.578   4.880 -0.9443 -0.1964  2.0678
  401MOL0     H54090   3.012   9.730   4.884  0.4470 -0.4681 -0.0496
  401MOL0     H54091   3.124   9.538   4.772  1.0773 -3.2700 -0.3119
  401MOL0     H54092   3.114   9.433   4.914  3.8196  0.0432  1.9205
  401MOL0     H54093   3.268   9.544   5.030  2.1203 -1.8058 -0.3201
  401MOL0     H54094   3.261   9.689   4.932  0.9922 -0.7440  1.8507
  401MOL0     H54095   3.511   9.490   4.637  1.9203  1.0986 -0.7941
  401MOL0     H54096   3.735   9.539   4.630 -1.6487  3.4689 -0.5007
  401MOL0     H54097   4.167   9.532   4.835  0.6620 -1.4666  0.7694
  401MOL0     H54098   4.401   9.583   4.885 -0.7468 -1.0657 -0.3539
  401MOL0     H54099   4.607   9.660   4.951  0.0298  0.0291  0.4889
  401MOL0     H54100   4.588   9.816   4.882 -2.4632 -0.3144  0.0086
  401MOL0     H54101   4.700   9.936   5.037  0.2881  0.4647 -0.2037
  401MOL0     H54102   4.720   9.814   5.169 -2.5756 -1.4149 -0.0092
  401MOL0     H54103   4.850   9.766   4.895  0.2449 -2.5454 -0.0866
  401MOL0     H54104   4.942   9.834   5.028 -0.6145  0.7035 -0.6270
  401MOL0     H54105   4.783   9.579   5.074 -0.7325  0.0903  2.6238
  401MOL0     H54106   4.921   9.636   5.166  2.0096  0.7224 -1.3437
  401MOL0     H54107   5.072   9.613   4.968 -1.0025  3.0998  1.1848
  401MOL0     H54108   4.938   9.538   4.882 -2.4982  1.7113  0.3169
  401MOL0     H54109   5.045   9.433   5.160 -3.0941  0.3013  1.5576
  401MOL0     H54110   4.918   9.369   5.077 -0.6763  1.7491  2.7076
  401MOL0     H54111   5.198   9.369   4.977 -0.9337  1.5628  0.9120
  401MOL0     H54112   5.073   9.307   4.871 -0.3058  3.0268 -0.7306
  401MOL0     H54113   5.032   9.120   5.062  0.7635  0.2099 -0.6593
  401MOL0     H54114   5.186   9.115   4.983 -0.2994  1.1732 -2.8170
  401MOL0     H54115   4.262   9.927   5.120 -2.5881 -0.4916  0.7785
  401MOL0     H54116   4.021   9.867   5.066 -0.5647 -2.6971  2.6479
  401MOL0     H54117   3.718   9.615   5.061 -3.9078  2.0075  0.8566
  401MOL0     H54118   3.487   9.573   5.051 -0.5012 -0.6281 -0.4671
  401MOL0     H54119   1.830  10.321   4.650 -1.4177  0.3259 -2.9152
  401MOL0     H54120   1.647  10.252   4.525 -2.3134  0.9243 -0.4026
  401MOL0     H54121   1.318  10.167   4.353  1.2006 -0.7036  0.6036
  401MOL0     H54122   1.149  10.088   4.204 -0.6113 -1.0319 -0.7558
  401MOL0     H54123   1.054   9.903   4.094 -0.3241 -1.2863 -1.5250
  401MOL0     H54124   0.939  10.040   4.091 -2.7366  0.2293  0.5991
  401MOL0     H54125   0.757   9.833   4.122 -1.2056 -0.1175 -1.4551
  401MOL0     H54126   0.879   9.747   4.047 -1.9383  0.0508 -3.2688
  401MOL0     H54127   0.883   9.944   3.874 -0.3945  0.7936 -0.0058
  401MOL0     H54128   0.730   9.994   3.953  1.9275  1.2780 -0.1460
  401MOL0     H54129   0.720   9.850   3.747 -0.4864 -2.7891 -1.1414
  401MOL0     H54130   0.791   9.720   3.846  0.8631  0.3606  0.8494
  401MOL0     H54131   0.373   9.755   3.972 -0.4520  3.1203 -1.5924
  401MOL0     H54132   0.993   9.840   4.512 -1.2911  1.0734  0.7914
  401MOL0     H54133   1.171   9.843   4.740  0.7551 -0.1468 -2.6736
  401MOL0     H54134   1.121  10.004   4.785 -2.4859  1.7564 -0.7324
  401MOL0     H54135   1.001   9.888   4.720 -0.1091 -1.2325 -1.2761
  402MOL0     O54136   8.489  10.861  10.182 -0.1991 -0.9055  0.3841
  402MOL0     C54137   8.458  10.833  10.068  0.1258  0.3381 -0.2278
  402MOL0     O54138   8.528  10.758   9.985  0.5613  1.2185  0.1658
  402MOL0     C54139   8.655  10.717  10.010 -0.2347 -0.4623  0.0122
  402MOL0     C54140   8.748  10.769   9.921 -0.2918 -0.0754 -0.0956
  402MOL0     C54141   8.879  10.723   9.929 -0.0420  0.0817 -0.1143
  402MOL0     C54142   8.916  10.628  10.034 -0.4643  0.8779  0.4846
  402MOL0     O54143   9.038  10.562  10.041  0.0336  0.7179 -0.7562
  402MOL0     C54144   9.149  10.624   9.974  0.2376 -0.2106  0.3317
  402MOL0     C54145   9.224  10.734  10.040 -0.3411 -0.3574  0.8665
  402MOL0     C54146   9.283  10.821   9.930 -0.3476  0.0264 -0.9283
  402MOL0     C54147   9.372  10.738   9.833 -0.0578 -0.2603 -0.2176
  402MOL0     C54148   9.440  10.834   9.733  0.5969 -0.1269  0.5531
  402MOL0     C54149   9.509  10.760   9.619 -0.1833 -0.4689 -0.0613
  402MOL0     C54150   9.425  10.661   9.544 -1.3055  0.5036  0.8930
  402MOL0     C54151   9.482  10.622   9.408 -0.7121  0.2672 -0.5824
  402MOL0     N54152   9.451  10.725   9.311 -0.1545 -0.3367  0.4758
  402MOL0     C54153   9.548  10.790   9.235 -0.1756 -0.2805  0.2040
  402MOL0     C54154   9.479  10.871   9.154 -0.0141  0.0332  0.1532
  402MOL0     C54155   9.527  10.977   9.052  0.7769  0.0554  0.4673
  402MOL0     C54156   9.532  11.118   9.119 -0.4895  0.0980 -0.2405
  402MOL0     C54157   9.632  11.120   9.234  0.4400 -0.6650 -0.8587
  402MOL0     C54158   9.648  11.263   9.287 -0.2807  0.2465  0.1814
  402MOL0     O54159   9.711  11.350   9.191 -0.1026  0.1818 -0.5829
  402MOL0     C54160   9.851  11.350   9.193 -0.1326  0.2696  0.2511
  402MOL0     C54161   9.910  11.414   9.088 -0.3617 -0.1170  1.3451
  402MOL0     C54162  10.045  11.405   9.065  0.7511  0.5207  0.4226
  402MOL0     C54163  10.132  11.328   9.148  0.7009  0.1886  0.3445
  402MOL0     C54164  10.273  11.317   9.116 -0.0326 -0.2369  0.1483
  402MOL0     O54165  10.356  11.265   9.205  0.1576  0.1618 -0.5523
  402MOL0     C54166  10.487  11.304   9.214 -0.8275  0.4831  0.5668
  402MOL0     C54167  10.577  11.239   9.133 -0.7437  0.5532  0.0563
  402MOL0     C54168  10.710  11.268   9.136  0.9561 -0.1195 -0.1280
  402MOL0     C54169  10.755  11.361   9.230  0.4088 -0.7086 -0.8215
  402MOL0     O54170  10.888  11.371   9.248 -0.5086  0.3979  0.0001
  402MOL0     C54171  10.940  11.453   9.351 -0.0856  0.0144  0.4228
  402MOL0     C54172  11.095  11.429   9.338  0.5368 -0.2726 -0.8427
  402MOL0     C54173  11.175  11.519   9.434  0.6293  0.1090  0.0778
  402MOL0     C54174  11.308  11.547   9.364 -0.4440  0.0011  0.7979
  402MOL0     C54175  11.411  11.603   9.457 -0.0447 -0.4389 -0.2189
  402MOL0     C54176  11.545  11.629   9.375  0.4488 -0.1696 -0.7702
  402MOL0     C54177  11.608  11.519   9.286 -0.1128  0.2535  0.3989
  402MOL0     C54178  11.598  11.558   9.137  1.0067  0.5950  0.2500
  402MOL0    Cl54179  11.661  11.718   9.082  0.2959  0.1568  0.0037
  402MOL0     C54180  10.664  11.436   9.310  0.0705  0.5947 -0.4383
  402MOL0     C54181  10.530  11.410   9.294  0.1911 -0.6680 -0.4553
  402MOL0     O54182  10.318  11.380   9.019  0.3264  0.3949  0.4511
  402MOL0     C54183  10.075  11.267   9.257 -0.6226 -0.1922  0.4027
  402MOL0     C54184   9.933  11.277   9.284  0.2057 -0.6498  0.0444
  402MOL0     N54185   9.341  10.858   9.176 -0.1624  0.0828  0.0750
  402MOL0     N54186   9.326  10.763   9.267  0.2415  0.0604  0.0817
  402MOL0     C54187   8.825  10.586  10.132  0.8036 -0.2179 -0.4788
  402MOL0     C54188   8.691  10.632  10.113  0.1421  0.2704  0.3788
  402MOL0     C54189   8.320  10.869  10.028  0.4737 -0.7124  0.7422
  402MOL0     C54190   8.229  10.880  10.137  0.3241  0.8497 -0.0435
  402MOL0     C54191   8.096  10.918  10.118 -0.2349 -0.4466  0.2065
  402MOL0     C54192   8.052  10.949   9.987 -1.0347 -0.1033  0.4053
  402MOL0     O54193   7.926  10.980   9.949  0.5033 -0.8795 -0.5287
  402MOL0     C54194   7.851  11.056  10.043  0.1819 -0.1616  0.9715
  402MOL0     C54195   7.738  10.965  10.095  0.1207  0.8655 -1.0781
  402MOL0     C54196   7.609  11.029  10.152 -0.5435  0.3786  0.1862
  402MOL0     C54197   7.556  10.931  10.261 -0.7877 -0.5772  0.3208
  402MOL0     C54198   7.591  10.983  10.393 -0.9118  0.5507  0.8656
  402MOL0     C54199   7.629  11.037  10.497  0.0378  0.5669  0.7396
  402MOL0     C54200   8.138  10.930   9.881  0.4474 -0.2746  0.2476
  402MOL0     C54201   8.268  10.896   9.897 -0.6327  0.1091  0.6224
  402MOL0     C54202   8.368  10.910   9.778  0.1395 -0.5662 -0.1938
  402MOL0     H54203   8.725  10.842   9.844 -1.1388 -0.3757 -0.1372
  402MOL0     H54204   8.946  10.745   9.846  1.2203 -1.5604  0.4323
  402MOL0     H54205   9.222  10.548   9.946 -1.2543 -1.6523  0.1812
  402MOL0     H54206   9.112  10.646   9.873 -2.7510 -0.9076  1.1800
  402MOL0     H54207   9.309  10.703  10.102 -2.2598 -2.2361  2.7402
  402MOL0     H54208   9.150  10.796  10.091 -0.5124  1.0412 -0.9697
  402MOL0     H54209   9.346  10.902   9.969 -1.1833 -0.1757  0.9863
  402MOL0     H54210   9.193  10.858   9.880 -1.5625 -0.2698  0.9093
  402MOL0     H54211   9.456  10.696   9.889  2.0550  1.7294 -1.7072
  402MOL0     H54212   9.308  10.660   9.790  0.0833 -1.3109  1.3833
  402MOL0     H54213   9.364  10.901   9.693  0.5322 -0.3129  0.3580
  402MOL0     H54214   9.518  10.896   9.777 -0.4255  0.5458  1.4436
  402MOL0     H54215   9.541  10.840   9.551 -2.4507  1.1582  0.6487
  402MOL0     H54216   9.598  10.711   9.661 -0.1210 -1.1294 -0.9465
  402MOL0     H54217   9.328  10.709   9.529 -0.9657  0.6815 -0.9687
  402MOL0     H54218   9.416  10.573   9.608  0.0978  1.9645  3.2576
  402MOL0     H54219   9.589  10.600   9.413 -0.3633  1.8087 -0.9806
  402MOL0     H54220   9.438  10.524   9.387 -0.0872 -0.6353  1.9057
  402MOL0     H54221   9.655  10.774   9.238 -0.0900  0.0567 -0.7946
  402MOL0     H54222   9.619  10.964   8.993  1.2649  2.3103  0.6314
  402MOL0     H54223   9.448  10.991   8.977  0.1669 -1.8389  0.7005
  402MOL0     H54224   9.559  11.192   9.043  0.8092 -1.3344 -1.2177
  402MOL0     H54225   9.432  11.141   9.157 -0.2804 -0.0185  0.4015
  402MOL0     H54226   9.729  11.093   9.192  1.8860  1.3070  0.9495
  402MOL0     H54227   9.601  11.047   9.309 -0.9283  0.2358 -0.5075
  402MOL0     H54228   9.710  11.257   9.377  2.1000  1.0561 -1.3163
  402MOL0     H54229   9.557  11.319   9.310 -0.0743  1.8304 -2.3790
  402MOL0     H54230   9.858  11.471   9.013 -0.0286  0.5221  1.5903
  402MOL0     H54231  10.086  11.441   8.971 -1.3197 -0.3591 -0.8700
  402MOL0     H54232  10.543  11.152   9.079 -1.2807 -1.1662  2.9492
  402MOL0     H54233  10.790  11.228   9.075  1.3802  1.5602 -0.7153
  402MOL0     H54234  10.922  11.559   9.326 -0.6144 -0.7613 -2.9969
  402MOL0     H54235  10.916  11.424   9.453  0.1763  1.3538  0.8799
  402MOL0     H54236  11.122  11.324   9.358  1.3464  0.4098  2.1587
  402MOL0     H54237  11.121  11.443   9.233 -1.7215 -0.2280 -1.4429
  402MOL0     H54238  11.118  11.611   9.449 -1.3869 -1.0303 -0.2084
  402MOL0     H54239  11.193  11.470   9.530  2.2663  1.6314  0.5864
  402MOL0     H54240  11.281  11.630   9.297 -1.2121  0.5159  1.7278
  402MOL0     H54241  11.341  11.463   9.302 -2.8221 -0.7323  0.4368
  402MOL0     H54242  11.444  11.526   9.527 -0.3488  0.1924  0.6326
  402MOL0     H54243  11.372  11.690   9.510 -0.2125 -0.2416 -0.6528
  402MOL0     H54244  11.527  11.718   9.314  2.2354  2.1412  1.8081
  402MOL0     H54245  11.625  11.648   9.448 -1.8411  2.2532  1.3025
  402MOL0     H54246  11.551  11.425   9.291  0.4062 -0.0377  0.9623
  402MOL0     H54247  11.711  11.487   9.301  0.0013  1.4096  2.4835
  402MOL0     H54248  11.654  11.486   9.077  2.1800  3.0430 -1.7830
  402MOL0     H54249  11.492  11.559   9.108  1.2009  0.1859 -0.5035
  402MOL0     H54250  10.684  11.522   9.373  1.1801  0.1854 -0.2182
  402MOL0     H54251  10.457  11.474   9.344 -1.5208 -1.0473 -2.3360
  402MOL0     H54252  10.135  11.196   9.312  2.0893  1.9699  0.4639
  402MOL0     H54253   9.897  11.201   9.352  2.0155 -1.7114 -0.1186
  402MOL0     H54254   8.862  10.520  10.209  0.1739 -1.9638 -1.6213
  402MOL0     H54255   8.615  10.603  10.184 -2.5269 -1.0208 -2.7185
  402MOL0     H54256   8.255  10.845  10.237  3.5831 -0.6873 -1.2882
  402MOL0     H54257   8.023  10.934  10.197  1.1606  0.1079  1.4427
  402MOL0     H54258   7.798  11.132   9.986 -0.5533 -0.7657  0.8308
  402MOL0     H54259   7.912  11.101  10.122  2.0615  0.2231 -0.6252
  402MOL0     H54260   7.779  10.901  10.173 -0.4533  1.8522  0.0606
  402MOL0     H54261   7.708  10.891  10.020 -2.8153 -1.0673  1.7096
  402MOL0     H54262   7.537  11.045  10.070  1.4396  2.8285 -1.2293
  402MOL0     H54263   7.638  11.126  10.194 -0.1637  0.6027 -0.5629
  402MOL0     H54264   7.447  10.931  10.247 -0.7388  2.4587 -0.8297
  402MOL0     H54265   7.593  10.828  10.264  0.5522 -0.1525 -0.6935
  402MOL0     H54266   7.651  11.088  10.588 -2.3730  1.2015  1.0316
  402MOL0     H54267   8.104  10.973   9.787  1.9149 -0.9905 -0.6411
  402MOL0     H54268   8.341  11.003   9.725 -1.5066 -1.3688 -0.8454
  402MOL0     H54269   8.471  10.916   9.814 -1.2190  3.0011  3.9839
  402MOL0     H54270   8.353  10.839   9.696  0.2599 -0.5802 -0.2038
  403MOL0     O54271   0.998   1.290   7.702 -1.0243 -0.8047  0.1178
  403MOL0     C54272   0.983   1.304   7.580 -0.5304  0.1641 -0.1541
  403MOL0     O54273   1.066   1.251   7.485 -0.0832 -0.2698 -0.4584
  403MOL0     C54274   1.188   1.200   7.513  0.3013 -0.0826  0.3324
  403MOL0     C54275   1.183   1.060   7.515 -0.4592 -0.0560  0.8270
  403MOL0     C54276   1.302   0.989   7.535  0.1021  0.4024  0.3807
  403MOL0     C54277   1.424   1.051   7.557  0.3096  0.4687 -0.0321
  403MOL0     O54278   1.538   0.978   7.584  0.0986  0.1610 -0.7429
  403MOL0     C54279   1.667   1.026   7.546  0.8539 -0.4949  1.0608
  403MOL0     C54280   1.775   0.937   7.612  0.1168  0.1543 -0.7565
  403MOL0     C54281   1.919   0.985   7.584  0.7422 -0.2964 -0.2916
  403MOL0     C54282   1.991   1.039   7.719  0.5250  0.5473 -0.0127
  403MOL0     C54283   2.143   1.059   7.681 -0.7307 -0.1730 -0.7314
  403MOL0     C54284   2.220   1.084   7.812  0.5592 -0.2219 -0.3234
  403MOL0     C54285   2.372   1.075   7.802  0.3703  0.5471 -0.8931
  403MOL0     C54286   2.429   0.935   7.759 -0.7850  0.3994 -0.4380
  403MOL0     N54287   2.576   0.945   7.730  0.3853 -0.1369  0.0769
  403MOL0     C54288   2.643   0.863   7.654 -0.2780  0.0304  0.4540
  403MOL0     C54289   2.769   0.893   7.664 -0.5718  0.4703  0.6168
  403MOL0     C54290   2.885   0.848   7.583 -0.2192 -0.1883  0.1349
  403MOL0     C54291   2.889   0.914   7.444  0.1046  0.6785 -0.0647
  403MOL0     C54292   2.986   1.030   7.437 -0.2953 -0.3845  0.6551
  403MOL0     C54293   2.951   1.149   7.522 -0.4416 -0.4831  0.1767
  403MOL0     O54294   3.039   1.259   7.488  0.1680 -1.2535  0.0730
  403MOL0     C54295   3.076   1.346   7.590  0.1404 -0.0101  0.7569
  403MOL0     C54296   2.998   1.370   7.706  0.5622 -0.2433  0.0219
  403MOL0     C54297   3.038   1.456   7.805  0.8394 -0.1432 -0.2108
  403MOL0     C54298   3.155   1.532   7.786 -1.2677 -0.3559 -0.1378
  403MOL0     C54299   3.195   1.624   7.897 -0.0900 -0.4979 -0.0123
  403MOL0     O54300   3.121   1.623   8.016  0.6377 -0.1488  1.1014
  403MOL0     C54301   3.165   1.680   8.127  0.2595  0.6597 -0.4657
  403MOL0     C54302   3.244   1.802   8.146 -0.2941  0.3892  0.1898
  403MOL0     C54303   3.266   1.858   8.271 -0.3900  0.1628  0.4290
  403MOL0     C54304   3.238   1.787   8.383 -0.4211  0.4749 -1.1459
  403MOL0     O54305   3.284   1.842   8.499  0.4001  0.5162 -0.0857
  403MOL0     C54306   3.215   1.816   8.624  0.3213 -0.2113  0.1540
  403MOL0     C54307   3.310   1.859   8.734  0.3982  0.1197  0.1243
  403MOL0     C54308   3.455   1.804   8.719 -0.7001 -0.1522 -0.4636
  403MOL0     C54309   3.446   1.653   8.742 -0.1435  0.3606  0.4062
  403MOL0     C54310   3.571   1.583   8.684  0.0615  0.3375 -0.1611
  403MOL0     C54311   3.704   1.604   8.753  0.1777  0.4669  0.0348
  403MOL0     C54312   3.828   1.525   8.695 -0.1899  0.4123  0.0387
  403MOL0     C54313   3.957   1.539   8.775  1.3622 -0.6424 -0.0353
  403MOL0    Cl54314   4.093   1.446   8.704  0.0367 -0.3548  0.3271
  403MOL0     C54315   3.169   1.667   8.369 -0.8659 -0.0110  0.1415
  403MOL0     C54316   3.134   1.618   8.248 -0.1962  0.2585  0.7022
  403MOL0     O54317   3.310   1.678   7.886 -0.7229 -0.2189  0.6694
  403MOL0     C54318   3.238   1.519   7.670  0.5940 -0.4303 -0.3794
  403MOL0     C54319   3.197   1.423   7.579 -0.3890 -0.1612  0.7032
  403MOL0     N54320   2.779   0.984   7.760  0.2360  0.0031  0.1141
  403MOL0     N54321   2.660   1.024   7.797 -0.9975 -0.1285  0.2760
  403MOL0     C54322   1.424   1.191   7.551 -0.3605 -0.4116 -0.4779
  403MOL0     C54323   1.303   1.265   7.538 -0.6768  0.1514  0.5611
  403MOL0     C54324   0.858   1.369   7.520  0.0499  1.0940 -0.8950
  403MOL0     C54325   0.790   1.312   7.406  1.1016 -0.1481 -0.0369
  403MOL0     C54326   0.678   1.364   7.352  0.2394  0.0000  0.1534
  403MOL0     C54327   0.615   1.471   7.418  0.0936  0.5441 -0.2766
  403MOL0     O54328   0.496   1.527   7.372 -0.6827 -0.6988  0.2717
  403MOL0     C54329   0.388   1.516   7.460  0.4506 -0.3238 -0.7998
  403MOL0     C54330   0.269   1.565   7.376 -0.2878 -0.2463  0.1199
  403MOL0     C54331   0.143   1.602   7.457  0.3869 -0.2820  0.4856
  403MOL0     C54332   0.024   1.626   7.348 -0.2145  1.3159 -0.6811
  403MOL0     C54333   0.053   1.706   7.227 -0.4047  0.7646 -0.7373
  403MOL0     C54334   0.074   1.754   7.115  0.1148 -0.3129 -0.1638
  403MOL0     C54335   0.683   1.527   7.532 -1.2812  0.0619  0.4411
  403MOL0     C54336   0.807   1.483   7.584  0.2021 -0.7709  0.8758
  403MOL0     C54337   0.854   1.552   7.709  0.4354  0.0725 -0.6265
  403MOL0     H54338   1.084   1.018   7.501  0.3657 -1.3075 -2.0842
  403MOL0     H54339   1.307   0.881   7.536 -0.5783  0.3540 -0.2933
  403MOL0     H54340   1.682   1.019   7.438 -1.0132  0.3323  0.7246
  403MOL0     H54341   1.676   1.132   7.570 -0.9929 -0.5401  2.1327
  403MOL0     H54342   1.764   0.834   7.578 -0.2205  0.0445 -0.3246
  403MOL0     H54343   1.747   0.949   7.717 -2.9776  0.9059 -1.5698
  403MOL0     H54344   1.914   1.065   7.509  0.8961  0.1909  0.2175
  403MOL0     H54345   1.964   0.898   7.535  0.7458 -0.0042 -0.8169
  403MOL0     H54346   1.944   1.135   7.743 -3.4581 -0.7637 -1.7852
  403MOL0     H54347   1.977   0.960   7.792  2.7198 -4.5860 -4.4332
  403MOL0     H54348   2.183   0.967   7.637  4.4071  0.4280  1.9582
  403MOL0     H54349   2.156   1.132   7.602 -0.5476 -1.5076 -1.9820
  403MOL0     H54350   2.190   1.176   7.863  0.0495  0.0672 -1.1266
  403MOL0     H54351   2.193   1.003   7.881  0.6036 -1.0365 -1.2375
  403MOL0     H54352   2.411   1.100   7.902 -2.2238 -0.5158  0.4847
  403MOL0     H54353   2.395   1.153   7.730  1.0170  0.3766 -0.8836
  403MOL0     H54354   2.398   0.854   7.826 -0.3390  1.5729  1.2473
  403MOL0     H54355   2.382   0.900   7.666 -0.9887 -1.1297  0.2091
  403MOL0     H54356   2.594   0.798   7.582 -1.5035  1.5695 -0.1312
  403MOL0     H54357   2.980   0.868   7.635  1.1344 -1.4060 -1.7237
  403MOL0     H54358   2.870   0.740   7.575  1.9129 -0.6170  1.1488
  403MOL0     H54359   2.934   0.839   7.378 -0.1480  1.5631 -1.2705
  403MOL0     H54360   2.789   0.924   7.402  0.6845 -0.8861 -2.0232
  403MOL0     H54361   2.991   1.061   7.332 -2.2761 -0.1621  0.5980
  403MOL0     H54362   3.078   0.987   7.477  0.0121  1.9420  2.6887
  403MOL0     H54363   2.975   1.127   7.626 -1.0218  2.4081  1.0015
  403MOL0     H54364   2.847   1.173   7.502  0.0747  1.6193 -0.2570
  403MOL0     H54365   2.907   1.313   7.717 -0.5914  1.5429  0.0345
  403MOL0     H54366   2.973   1.474   7.889  0.5906  1.5132 -0.7155
  403MOL0     H54367   3.284   1.858   8.062  2.3336 -0.5987  0.6934
  403MOL0     H54368   3.318   1.953   8.275  3.0190 -1.5985  0.9144
  403MOL0     H54369   3.120   1.869   8.615  0.4929 -0.1240 -1.3911
  403MOL0     H54370   3.191   1.710   8.636  2.7089 -0.9638 -1.0437
  403MOL0     H54371   3.309   1.966   8.712 -0.0476 -0.2232 -1.7021
  403MOL0     H54372   3.260   1.838   8.830  0.6333 -1.6461 -0.1047
  403MOL0     H54373   3.496   1.838   8.624 -0.7799  1.0232 -0.0965
  403MOL0     H54374   3.524   1.847   8.793  0.8438 -1.3720 -1.1452
  403MOL0     H54375   3.351   1.613   8.707  0.4158 -1.3674  0.7953
  403MOL0     H54376   3.455   1.638   8.850  1.5494 -1.8176  0.0317
  403MOL0     H54377   3.578   1.624   8.583  1.0516 -1.9068 -1.0824
  403MOL0     H54378   3.565   1.474   8.674  1.7269  0.1193  0.7547
  403MOL0     H54379   3.724   1.712   8.748 -1.0378  0.6946 -0.3247
  403MOL0     H54380   3.684   1.581   8.858 -2.2887  0.8072 -0.2981
  403MOL0     H54381   3.843   1.563   8.594 -3.8280  4.5095  0.7042
  403MOL0     H54382   3.806   1.418   8.702  0.1422  0.4231  1.8685
  403MOL0     H54383   3.984   1.645   8.782 -1.3016  0.0483  0.9904
  403MOL0     H54384   3.938   1.520   8.881 -1.0039  2.0895  0.1366
  403MOL0     H54385   3.136   1.617   8.459 -3.1342  1.1795  0.0407
  403MOL0     H54386   3.071   1.531   8.229  0.0488  0.3022 -0.4210
  403MOL0     H54387   3.327   1.579   7.659  1.1208 -0.5860  2.2942
  403MOL0     H54388   3.266   1.398   7.499  0.1177  0.0276  1.0744
  403MOL0     H54389   1.511   1.254   7.566  1.3540 -1.9301 -3.2639
  403MOL0     H54390   1.307   1.373   7.532  0.9187  0.0566 -1.4287
  403MOL0     H54391   0.827   1.215   7.373 -0.3889 -1.5438  2.0981
  403MOL0     H54392   0.624   1.296   7.287 -0.4695 -1.0930  1.7923
  403MOL0     H54393   0.393   1.586   7.543 -0.2811 -0.5806 -0.5337
  403MOL0     H54394   0.375   1.410   7.488  0.7214 -0.7626 -2.2649
  403MOL0     H54395   0.243   1.486   7.305  3.4268 -0.5481 -1.0876
  403MOL0     H54396   0.292   1.650   7.313 -3.5411 -0.9647 -2.2872
  403MOL0     H54397   0.162   1.698   7.506 -0.1769  0.2492 -0.3052
  403MOL0     H54398   0.107   1.525   7.526 -1.4656 -0.6022 -0.7551
  403MOL0     H54399  -0.005   1.527   7.312  0.2029  1.1881 -0.6759
  403MOL0     H54400  -0.061   1.668   7.401 -0.4434 -0.2264  0.2178
  403MOL0     H54401   0.085   1.812   7.026 -0.9661  0.7224  0.3518
  403MOL0     H54402   0.628   1.613   7.569 -0.5929  1.4456 -1.5725
  403MOL0     H54403   0.847   1.474   7.786  0.8606  0.0017 -0.6550
  403MOL0     H54404   0.958   1.585   7.696  0.4629  2.5382  3.8032
  403MOL0     H54405   0.806   1.646   7.738  1.6969  0.0644  1.8005
  404MOL0     O54406   3.720   8.357   9.163 -0.1029  0.3289 -0.2774
  404MOL0     C54407   3.732   8.404   9.273 -0.3344  0.4224 -0.0059
  404MOL0     O54408   3.847   8.435   9.340  0.5355  0.3535 -0.0546
  404MOL0     C54409   3.972   8.417   9.293 -0.3639  0.2907  0.3722
  404MOL0     C54410   4.067   8.513   9.310  0.2871 -0.1728  0.1053
  404MOL0     C54411   4.193   8.499   9.245 -0.8491  0.0391  0.4183
  404MOL0     C54412   4.243   8.390   9.174  0.0845  0.3979 -0.3800
  404MOL0     O54413   4.369   8.372   9.124 -0.4485  0.7546 -0.0168
  404MOL0     C54414   4.467   8.472   9.135  0.3646 -0.5550 -0.4344
  404MOL0     C54415   4.586   8.403   9.071  0.6792 -0.4656 -0.2374
  404MOL0     C54416   4.700   8.496   9.047 -0.7468  0.1385  1.0769
  404MOL0     C54417   4.817   8.413   8.977 -0.0983 -0.0609  0.0881
  404MOL0     C54418   4.949   8.486   8.972  0.1954 -0.3494  0.1944
  404MOL0     C54419   5.023   8.483   9.117 -0.0606  0.6099  0.1889
  404MOL0     C54420   5.176   8.501   9.116 -0.5757 -0.6030 -0.0647
  404MOL0     C54421   5.260   8.383   9.042 -0.0361 -0.1561 -0.9014
  404MOL0     N54422   5.398   8.414   9.018 -0.2202 -0.6919 -0.5973
  404MOL0     C54423   5.492   8.452   9.122  0.3409  0.7272 -0.3631
  404MOL0     C54424   5.610   8.484   9.062  0.0001 -0.8410  0.5740
  404MOL0     C54425   5.744   8.509   9.129  0.5599  0.2395  0.1074
  404MOL0     C54426   5.735   8.570   9.262  0.3360 -0.5618 -0.4415
  404MOL0     C54427   5.704   8.724   9.265  1.1479  0.3109  0.6195
  404MOL0     C54428   5.553   8.747   9.256 -0.5192 -0.0997  0.5865
  404MOL0     O54429   5.495   8.690   9.376  0.3805  0.4236  0.0694
  404MOL0     C54430   5.361   8.713   9.406 -0.0246  0.6028  0.3027
  404MOL0     C54431   5.268   8.788   9.345  0.8154  0.0817  0.2751
  404MOL0     C54432   5.134   8.796   9.386  1.0959 -0.8455 -0.3722
  404MOL0     C54433   5.091   8.723   9.490  0.2924  0.7546 -0.3551
  404MOL0     C54434   4.945   8.713   9.534 -1.1526 -1.3658 -0.4008
  404MOL0     O54435   4.853   8.744   9.444 -0.2631 -0.2919  0.3513
  404MOL0     C54436   4.718   8.729   9.479  0.2737 -0.0905 -0.4475
  404MOL0     C54437   4.643   8.626   9.435 -0.0689 -0.2490  0.1688
  404MOL0     C54438   4.507   8.613   9.483  0.3237  0.2882  0.2831
  404MOL0     C54439   4.443   8.709   9.562  0.7411 -0.0679  0.2542
  404MOL0     O54440   4.315   8.680   9.602  0.1174 -0.1165  0.1825
  404MOL0     C54441   4.240   8.767   9.681  0.3444 -0.1518 -1.3120
  404MOL0     C54442   4.100   8.713   9.715 -0.1443  0.1463 -0.8537
  404MOL0     C54443   4.028   8.800   9.815  0.1646  0.1445  0.1778
  404MOL0     C54444   3.886   8.751   9.841 -0.7132  0.1283 -0.4369
  404MOL0     C54445   3.777   8.818   9.754 -0.1528 -0.2968 -0.3956
  404MOL0     C54446   3.636   8.797   9.813  0.3213 -1.2711  0.6544
  404MOL0     C54447   3.538   8.841   9.711 -0.1240 -1.4787 -0.0540
  404MOL0     C54448   3.392   8.806   9.762  0.0232  0.3131  0.7838
  404MOL0    Cl54449   3.351   8.862   9.917 -0.5304  0.2415 -0.6625
  404MOL0     C54450   4.524   8.824   9.603  0.2398 -0.8521  0.4857
  404MOL0     C54451   4.655   8.829   9.550 -0.0384  0.4269 -0.8925
  404MOL0     O54452   4.919   8.653   9.636  0.2303 -0.5907  0.0470
  404MOL0     C54453   5.186   8.651   9.563 -0.8404  0.0143  0.2850
  404MOL0     C54454   5.323   8.641   9.517  0.4928  1.7463  0.5645
  404MOL0     N54455   5.591   8.468   8.921  0.0925  0.5215 -0.2440
  404MOL0     N54456   5.465   8.431   8.898 -0.3817  0.1099 -0.4294
  404MOL0     C54457   4.143   8.291   9.162 -0.8713  0.6050 -0.5188
  404MOL0     C54458   4.004   8.300   9.215  0.5442 -0.2584  0.4581
  404MOL0     C54459   3.601   8.428   9.346 -0.5371 -0.0388 -0.7614
  404MOL0     C54460   3.480   8.440   9.275 -0.4073  0.4358 -0.1757
  404MOL0     C54461   3.358   8.470   9.336  0.2142 -0.0373  0.3053
  404MOL0     C54462   3.357   8.507   9.471  0.4969 -0.0051  0.1042
  404MOL0     O54463   3.253   8.572   9.535  0.6162  0.6243 -0.2180
  404MOL0     C54464   3.132   8.590   9.462 -0.4289 -0.3128  0.0428
  404MOL0     C54465   3.018   8.644   9.545  0.3067 -0.9153  0.2078
  404MOL0     C54466   2.964   8.528   9.644 -0.1129 -0.1000 -0.0793
  404MOL0     C54467   2.838   8.580   9.711  0.6090 -0.1380 -0.5013
  404MOL0     C54468   2.870   8.667   9.822 -0.1505  0.5973 -0.1668
  404MOL0     C54469   2.890   8.739   9.920  0.2295  0.2271  0.0736
  404MOL0     C54470   3.468   8.485   9.544 -0.2598 -0.4681  0.0962
  404MOL0     C54471   3.590   8.444   9.483 -0.3624 -0.0584 -0.1497
  404MOL0     C54472   3.704   8.432   9.590 -0.2282  0.3523  0.3018
  404MOL0     H54473   4.051   8.608   9.360  0.6336  0.0872 -0.2576
  404MOL0     H54474   4.262   8.583   9.249  1.5188 -1.4771 -3.2607
  404MOL0     H54475   4.444   8.566   9.084 -1.3614  0.2609  1.6922
  404MOL0     H54476   4.490   8.487   9.241  0.1973  1.4731 -0.6528
  404MOL0     H54477   4.557   8.348   8.981 -1.6069  1.9101 -1.0994
  404MOL0     H54478   4.604   8.319   9.139  0.6371 -0.3127 -0.0389
  404MOL0     H54479   4.744   8.526   9.142  2.2838 -1.7749  0.4223
  404MOL0     H54480   4.671   8.586   8.991 -2.1674 -0.8968  0.0639
  404MOL0     H54481   4.829   8.323   9.038 -2.7060 -0.7495 -0.2629
  404MOL0     H54482   4.788   8.388   8.874  0.7546  1.1551 -0.4640
  404MOL0     H54483   5.015   8.432   8.904 -1.3873 -0.7842 -1.0580
  404MOL0     H54484   4.939   8.586   8.929 -0.7780 -0.2568  0.6272
  404MOL0     H54485   4.979   8.566   9.174  0.3756  1.5958 -0.8712
  404MOL0     H54486   4.992   8.391   9.167 -2.7967  1.9597  1.1808
  404MOL0     H54487   5.211   8.511   9.219 -1.6038 -0.0904  0.2460
  404MOL0     H54488   5.216   8.596   9.077  0.0465 -1.0364 -0.5082
  404MOL0     H54489   5.247   8.289   9.097  2.6563 -0.9947 -1.5636
  404MOL0     H54490   5.223   8.360   8.942 -0.8146 -0.4960 -0.5439
  404MOL0     H54491   5.466   8.448   9.227 -2.2057 -0.4766 -0.9545
  404MOL0     H54492   5.794   8.412   9.133 -0.0902 -0.5304 -4.5507
  404MOL0     H54493   5.806   8.568   9.062  0.2632  1.4944  0.9078
  404MOL0     H54494   5.667   8.507   9.319  2.4616  0.5027  3.6977
  404MOL0     H54495   5.828   8.561   9.320  0.1306  2.0564  0.4563
  404MOL0     H54496   5.759   8.768   9.181  1.7263 -3.2874 -1.0480
  404MOL0     H54497   5.747   8.766   9.357 -0.1168 -0.6558  1.6863
  404MOL0     H54498   5.505   8.706   9.166 -0.2807  0.1214  0.3593
  404MOL0     H54499   5.543   8.854   9.241  0.8285 -0.0324  0.0259
  404MOL0     H54500   5.299   8.846   9.259  2.5561  0.7701  1.3164
  404MOL0     H54501   5.052   8.849   9.337  1.7368  0.5895  0.0451
  404MOL0     H54502   4.694   8.545   9.384  1.7226 -1.0388  2.9712
  404MOL0     H54503   4.453   8.520   9.473 -0.8227  0.1468  5.3508
  404MOL0     H54504   4.291   8.768   9.778 -2.2801  0.5186  0.1529
  404MOL0     H54505   4.240   8.866   9.636 -1.0716 -0.6947 -2.5617
  404MOL0     H54506   4.042   8.688   9.626 -0.2408  1.2369 -1.1199
  404MOL0     H54507   4.110   8.619   9.770 -2.0033  0.4965  0.1558
  404MOL0     H54508   4.088   8.799   9.906 -0.3456  0.2010  0.5204
  404MOL0     H54509   4.009   8.902   9.782 -2.6137  0.4683  2.3723
  404MOL0     H54510   3.872   8.766   9.949 -0.7735  2.4862 -0.7213
  404MOL0     H54511   3.875   8.645   9.816  0.4656 -0.0335 -0.3309
  404MOL0     H54512   3.801   8.783   9.653  2.6203  0.4230 -0.0491
  404MOL0     H54513   3.787   8.926   9.737 -0.8493 -0.4766 -2.1533
  404MOL0     H54514   3.623   8.691   9.839 -0.6310 -1.0910  0.9528
  404MOL0     H54515   3.624   8.854   9.905 -0.6619  1.3963 -0.9951
  404MOL0     H54516   3.557   8.783   9.619  1.3197 -1.7017  0.3503
  404MOL0     H54517   3.543   8.948   9.690 -1.7377 -0.6010  3.3907
  404MOL0     H54518   3.318   8.853   9.697 -1.2848  2.0360  3.3772
  404MOL0     H54519   3.369   8.699   9.751 -1.4020  0.2008  3.8048
  404MOL0     H54520   4.489   8.908   9.660 -2.8532 -0.1966 -2.0968
  404MOL0     H54521   4.704   8.921   9.580 -1.1274  0.7460 -0.0015
  404MOL0     H54522   5.157   8.573   9.633  0.0379  0.5715  1.3169
  404MOL0     H54523   5.384   8.570   9.572  0.9959  1.8973  0.2061
  404MOL0     H54524   4.171   8.199   9.111  2.5199  0.3302  1.5343
  404MOL0     H54525   3.930   8.221   9.205 -0.5334  0.7477  0.2021
  404MOL0     H54526   3.477   8.431   9.167  1.6057 -0.0175 -0.2336
  404MOL0     H54527   3.270   8.469   9.273 -1.1031  1.4950  2.0118
  404MOL0     H54528   3.098   8.499   9.411 -2.4370  0.7368 -0.5851
  404MOL0     H54529   3.149   8.657   9.377 -3.8760  0.8868  0.1729
  404MOL0     H54530   2.949   8.676   9.466  1.0609 -1.3370 -0.6482
  404MOL0     H54531   3.050   8.735   9.596  2.7350 -0.2793 -2.2036
  404MOL0     H54532   3.040   8.500   9.718  2.0896  1.0634 -1.7892
  404MOL0     H54533   2.939   8.442   9.581 -0.2218 -0.5743  0.5843
  404MOL0     H54534   2.779   8.627   9.632  0.0547  1.2793  0.7063
  404MOL0     H54535   2.781   8.499   9.758 -0.0525  1.7698  2.2658
  404MOL0     H54536   2.915   8.802  10.003  0.9377 -0.7623  0.6334
  404MOL0     H54537   3.469   8.512   9.649  0.6001  0.7717 -0.2132
  404MOL0     H54538   3.745   8.331   9.588 -0.0389  0.4260  0.4163
  404MOL0     H54539   3.778   8.510   9.569 -0.6216  0.5352 -0.4362
  404MOL0     H54540   3.667   8.448   9.691 -1.2337 -2.2420  0.4217
  405MOL0     O54541   7.123   3.889   3.805  0.4181  0.2891  0.4139
  405MOL0     C54542   7.128   3.891   3.683 -0.1172 -0.2652  0.1446
  405MOL0     O54543   7.240   3.873   3.607  0.5389  0.8648 -0.0740
  405MOL0     C54544   7.359   3.853   3.674  0.2569  0.6278  0.7719
  405MOL0     C54545   7.415   3.961   3.737 -0.0872  0.2203  1.1177
  405MOL0     C54546   7.535   3.956   3.802  0.1142  0.6628  0.0729
  405MOL0     C54547   7.615   3.834   3.800  0.1663 -0.5267 -0.0213
  405MOL0     O54548   7.737   3.830   3.863  0.7662 -0.1870 -0.2762
  405MOL0     C54549   7.823   3.932   3.821 -0.3724 -0.5527  0.3028
  405MOL0     C54550   7.965   3.904   3.874 -0.8508  0.1038  0.1468
  405MOL0     C54551   8.035   3.795   3.791  0.5462 -0.4436  0.5741
  405MOL0     C54552   8.087   3.836   3.651 -0.7613  0.1977  0.9201
  405MOL0     C54553   8.175   3.733   3.578 -0.7136  0.6006 -0.4617
  405MOL0     C54554   8.305   3.728   3.651 -0.6249  0.1125  0.7593
  405MOL0     C54555   8.396   3.629   3.588  0.4776 -0.3324 -0.4481
  405MOL0     C54556   8.460   3.662   3.459  0.7668 -0.9727 -0.4748
  405MOL0     N54557   8.524   3.795   3.454 -0.0500 -0.1353 -0.2914
  405MOL0     C54558   8.642   3.832   3.511  0.4769  0.2446  0.3659
  405MOL0     C54559   8.655   3.963   3.467  0.2872  0.8927  0.1593
  405MOL0     C54560   8.774   4.045   3.484 -0.0735 -0.0522 -0.9097
  405MOL0     C54561   8.910   4.002   3.443 -1.1757  0.1925  0.3905
  405MOL0     C54562   9.013   4.096   3.507 -0.5851  0.3189  0.3794
  405MOL0     C54563   9.160   4.052   3.487  0.2685  0.8796 -0.3861
  405MOL0     O54564   9.165   3.914   3.546  0.2912 -0.4085  0.1695
  405MOL0     C54565   9.292   3.851   3.546  0.0612  0.3495 -0.2269
  405MOL0     C54566   9.411   3.903   3.496 -0.8469  1.0012 -0.8145
  405MOL0     C54567   9.529   3.821   3.498  0.8001 -0.3283  0.3230
  405MOL0     C54568   9.519   3.686   3.540 -0.2475 -0.0897  0.0774
  405MOL0     C54569   9.641   3.597   3.539  0.2733  0.0591 -0.0193
  405MOL0     O54570   9.755   3.640   3.484  0.3407  0.1648  0.9605
  405MOL0     C54571   9.835   3.549   3.428 -1.1542 -0.0076 -0.4503
  405MOL0     C54572   9.806   3.463   3.321 -0.2937 -0.1888 -0.7427
  405MOL0     C54573   9.908   3.378   3.274  0.2267  0.0399  0.3484
  405MOL0     C54574  10.037   3.370   3.337 -0.3993 -0.1157  0.3322
  405MOL0     O54575  10.141   3.289   3.298 -0.2965 -0.0481 -0.0228
  405MOL0     C54576  10.142   3.204   3.179  0.4185 -0.2844  0.0380
  405MOL0     C54577  10.301   3.165   3.158  0.3782  0.4158  0.1983
  405MOL0     C54578  10.387   3.289   3.158  0.0290 -0.3692 -0.4471
  405MOL0     C54579  10.526   3.271   3.083  0.0051  0.4271 -0.1458
  405MOL0     C54580  10.616   3.196   3.172  0.8599 -0.2428 -0.0881
  405MOL0     C54581  10.751   3.189   3.107 -0.6201 -0.3313 -0.0024
  405MOL0     C54582  10.848   3.130   3.209  0.8542  0.7101  0.0365
  405MOL0     C54583  10.995   3.121   3.163  0.5207 -0.1263  0.2614
  405MOL0    Cl54584  11.005   3.003   3.033  0.0656  0.3630 -0.0963
  405MOL0     C54585  10.058   3.450   3.448  0.9099  0.5253  0.1197
  405MOL0     C54586   9.963   3.545   3.487  0.0518  0.4284 -0.6218
  405MOL0     O54587   9.626   3.482   3.579  0.4564 -0.1849 -0.2450
  405MOL0     C54588   9.394   3.637   3.586  0.2812  0.4967 -0.3568
  405MOL0     C54589   9.284   3.716   3.584 -0.6693 -0.0131  0.3634
  405MOL0     N54590   8.540   4.000   3.404  0.4322  0.3482 -0.4945
  405MOL0     N54591   8.464   3.900   3.401  0.2244  0.6161 -0.6252
  405MOL0     C54592   7.558   3.725   3.734 -0.1833  0.5063  0.3720
  405MOL0     C54593   7.433   3.735   3.669 -0.6161 -0.6478 -0.8315
  405MOL0     C54594   6.996   3.925   3.610  0.7876  0.5679 -0.9578
  405MOL0     C54595   6.998   3.925   3.469 -0.0927  0.1179 -0.6402
  405MOL0     C54596   6.886   3.957   3.394  0.3052 -0.5790 -0.5712
  405MOL0     C54597   6.757   3.979   3.452 -0.8343  0.1541 -0.5321
  405MOL0     O54598   6.639   4.004   3.383  0.4694 -0.6824  0.5990
  405MOL0     C54599   6.641   3.993   3.234 -1.0763  0.3494 -0.8249
  405MOL0     C54600   6.513   4.048   3.166 -0.9239  0.9218 -0.0924
  405MOL0     C54601   6.543   4.063   3.015  0.0379 -0.0715 -0.2593
  405MOL0     C54602   6.442   4.129   2.931 -0.5456  0.4827  0.3397
  405MOL0     C54603   6.311   4.089   2.964  0.2297  0.0331 -0.3103
  405MOL0     C54604   6.201   4.047   2.988 -0.2527 -0.1707  0.4745
  405MOL0     C54605   6.753   3.967   3.596 -0.4885 -0.3139 -0.5352
  405MOL0     C54606   6.867   3.949   3.675 -0.1493  0.2698  0.1749
  405MOL0     C54607   6.844   3.961   3.826 -0.2450  0.7733 -0.2898
  405MOL0     H54608   7.349   4.047   3.740 -0.0640  0.3903 -1.2164
  405MOL0     H54609   7.562   4.049   3.851 -1.7000  1.4938 -0.3956
  405MOL0     H54610   7.819   3.939   3.712 -1.0798  0.8404  0.3916
  405MOL0     H54611   7.792   4.028   3.863 -2.7133 -1.8702  1.8288
  405MOL0     H54612   7.938   3.871   3.975 -2.6005 -0.5991 -0.5099
  405MOL0     H54613   8.043   3.981   3.873  0.1544 -0.7647 -3.1548
  405MOL0     H54614   7.957   3.720   3.774  0.9493 -0.8272  0.4134
  405MOL0     H54615   8.119   3.758   3.850  1.1017  0.8335  0.6152
  405MOL0     H54616   8.005   3.853   3.580 -0.4007 -2.1598 -0.1707
  405MOL0     H54617   8.139   3.932   3.652 -0.6418  0.2018 -1.1449
  405MOL0     H54618   8.132   3.632   3.584  0.5311  0.0879  0.1877
  405MOL0     H54619   8.180   3.751   3.471 -1.1663  1.7217 -0.3096
  405MOL0     H54620   8.353   3.826   3.644  0.4923 -0.4896 -0.3855
  405MOL0     H54621   8.282   3.704   3.755 -1.4143  0.2887  0.6300
  405MOL0     H54622   8.353   3.529   3.576  1.7676 -0.6824 -2.8271
  405MOL0     H54623   8.475   3.610   3.662 -2.2961 -1.0019  2.5624
  405MOL0     H54624   8.536   3.588   3.430 -1.1793 -1.6174 -4.6316
  405MOL0     H54625   8.387   3.649   3.379  0.5815  0.3370 -0.5319
  405MOL0     H54626   8.715   3.774   3.566  0.0486  0.8292  1.5896
  405MOL0     H54627   8.757   4.135   3.425  0.2789 -0.5589 -1.8129
  405MOL0     H54628   8.779   4.075   3.589  1.4594  1.5191 -1.3777
  405MOL0     H54629   8.926   3.898   3.474 -1.2992  0.6031  1.9331
  405MOL0     H54630   8.924   4.003   3.335  3.0712 -0.7309  0.7489
  405MOL0     H54631   8.997   4.094   3.615  1.2393 -0.8886  0.6636
  405MOL0     H54632   9.002   4.202   3.481 -1.9922  1.1919  3.9760
  405MOL0     H54633   9.230   4.123   3.532 -0.5136  0.5458  1.4348
  405MOL0     H54634   9.181   4.042   3.380 -0.7622 -1.3448 -0.4356
  405MOL0     H54635   9.417   4.009   3.471  1.3744  0.6306 -2.1675
  405MOL0     H54636   9.616   3.874   3.458 -1.2440  1.2068 -2.4415
  405MOL0     H54637   9.711   3.484   3.274 -0.5971  2.0157  0.6974
  405MOL0     H54638   9.895   3.311   3.189 -0.8175  0.3606  0.2488
  405MOL0     H54639  10.073   3.121   3.196 -1.3790  1.3256  0.9831
  405MOL0     H54640  10.118   3.255   3.086  3.6761  3.0612  0.8018
  405MOL0     H54641  10.334   3.091   3.232  3.3500 -0.0074 -1.3666
  405MOL0     H54642  10.313   3.111   3.064  1.5739 -0.3151  0.7383
  405MOL0     H54643  10.338   3.379   3.121 -1.1862 -0.7008  0.3035
  405MOL0     H54644  10.414   3.318   3.260  0.2119 -0.1527 -0.5562
  405MOL0     H54645  10.564   3.374   3.077 -0.5858  0.6575  0.0367
  405MOL0     H54646  10.512   3.225   2.985 -2.5786 -0.6232  0.6517
  405MOL0     H54647  10.581   3.094   3.191 -1.5879  0.9560  2.5551
  405MOL0     H54648  10.625   3.238   3.273  2.8291  0.3681 -0.4757
  405MOL0     H54649  10.750   3.122   3.020 -1.9583  0.2150 -0.4308
  405MOL0     H54650  10.787   3.290   3.089 -1.8076 -0.2642 -2.4418
  405MOL0     H54651  10.813   3.033   3.245  0.3362  1.2966  1.1674
  405MOL0     H54652  10.847   3.192   3.299  1.0352  1.4290 -0.4419
  405MOL0     H54653  11.023   3.220   3.126 -1.2271  0.8026  1.2770
  405MOL0     H54654  11.070   3.114   3.242  2.1761  2.0156 -1.0141
  405MOL0     H54655  10.150   3.436   3.503 -0.0394  0.4353  1.7505
  405MOL0     H54656   9.977   3.614   3.569 -0.8877 -0.3820  0.2496
  405MOL0     H54657   9.378   3.531   3.602  1.8346  0.5020  1.7400
  405MOL0     H54658   9.185   3.687   3.616 -0.4529  0.1470  1.2038
  405MOL0     H54659   7.604   3.626   3.730 -2.4258 -0.6055  0.3717
  405MOL0     H54660   7.395   3.651   3.611  1.6441 -1.8223 -0.7259
  405MOL0     H54661   7.086   3.905   3.408 -0.7512 -2.6644 -0.7679
  405MOL0     H54662   6.903   3.956   3.287 -2.5201  1.4107 -1.1631
  405MOL0     H54663   6.639   3.888   3.203 -3.4307  0.1625 -0.2230
  405MOL0     H54664   6.726   4.055   3.204  0.4735 -1.3349 -0.0947
  405MOL0     H54665   6.474   4.141   3.209 -0.2118  1.5117 -0.6926
  405MOL0     H54666   6.443   3.965   3.182  1.4728 -1.2349 -0.2954
  405MOL0     H54667   6.549   3.961   2.977  3.4193  0.6033 -1.8799
  405MOL0     H54668   6.643   4.102   2.995  0.4591 -1.8974 -2.0195
  405MOL0     H54669   6.467   4.236   2.933 -2.8143  1.0606  1.0577
  405MOL0     H54670   6.447   4.090   2.829  0.4311  2.9235 -0.6326
  405MOL0     H54671   6.108   4.012   3.026  0.4165 -1.5473  0.9201
  405MOL0     H54672   6.661   3.987   3.649  0.8702 -1.0256  2.3177
  405MOL0     H54673   6.891   4.052   3.864 -4.0930  2.4185  0.9848
  405MOL0     H54674   6.738   3.959   3.855 -0.3565 -1.2251 -0.6740
  405MOL0     H54675   6.901   3.880   3.871  0.8134  0.8574 -1.4209
  406MOL0     O54676   6.828   5.984   8.583 -0.7860  0.8035 -1.0193
  406MOL0     C54677   6.747   5.888   8.583 -0.3709  0.0534  0.4106
  406MOL0     O54678   6.766   5.763   8.521  0.1588 -0.3803 -0.3061
  406MOL0     C54679   6.870   5.741   8.436 -0.9217 -0.0419  1.2300
  406MOL0     C54680   6.915   5.831   8.336  0.2783 -0.7700  0.1073
  406MOL0     C54681   7.015   5.796   8.249  0.5168 -0.3008  0.3986
  406MOL0     C54682   7.064   5.663   8.254 -0.4419  0.1428 -0.0466
  406MOL0     O54683   7.166   5.617   8.182 -0.5244 -0.3245  0.4166
  406MOL0     C54684   7.229   5.697   8.080  0.1428  0.1350 -0.8679
  406MOL0     C54685   7.359   5.636   8.035  0.3673 -0.2582 -0.0115
  406MOL0     C54686   7.476   5.678   8.131  0.7805  0.2202  0.3057
  406MOL0     C54687   7.603   5.633   8.071  0.1553  0.0089 -0.8126
  406MOL0     C54688   7.723   5.675   8.165 -0.0038  0.6855  0.6321
  406MOL0     C54689   7.851   5.632   8.107 -0.5750  0.9219 -0.0317
  406MOL0     C54690   7.973   5.641   8.189  0.3642 -0.7689  0.3060
  406MOL0     C54691   8.090   5.580   8.112 -0.0973  0.6444 -0.4360
  406MOL0     N54692   8.197   5.588   8.208 -0.2158 -0.5382 -0.5143
  406MOL0     C54693   8.281   5.699   8.227  0.2787  0.1477  0.3965
  406MOL0     C54694   8.371   5.652   8.316 -0.2022  0.3754 -0.8040
  406MOL0     C54695   8.497   5.731   8.363 -0.4446  0.2685 -0.1585
  406MOL0     C54696   8.623   5.676   8.302  0.3003  0.7340 -0.3458
  406MOL0     C54697   8.678   5.550   8.364  0.5006 -0.5682 -1.0864
  406MOL0     C54698   8.823   5.513   8.337  0.4915 -0.9017  0.6902
  406MOL0     O54699   8.923   5.590   8.412 -0.6494 -0.3030  0.3390
  406MOL0     C54700   9.040   5.638   8.343 -0.3186 -0.2035 -0.3927
  406MOL0     C54701   9.046   5.683   8.216  0.8626 -0.3395  0.3931
  406MOL0     C54702   9.155   5.736   8.152 -0.0890 -0.7902  0.2023
  406MOL0     C54703   9.273   5.733   8.220 -0.3024 -0.3888  0.1753
  406MOL0     C54704   9.398   5.784   8.157 -0.6055  0.1903  0.4614
  406MOL0     O54705   9.517   5.773   8.237  0.7557 -0.2787 -0.1084
  406MOL0     C54706   9.640   5.800   8.189 -0.1132  0.8587 -0.9000
  406MOL0     C54707   9.753   5.722   8.239  0.2354 -0.3492 -0.3725
  406MOL0     C54708   9.884   5.777   8.227  0.5873 -0.0489 -0.7308
  406MOL0     C54709   9.910   5.894   8.156  0.0471  0.1660  0.2709
  406MOL0     O54710  10.041   5.937   8.157 -0.2625  0.1416  0.3067
  406MOL0     C54711  10.077   6.019   8.048 -0.4685 -0.1090 -0.1038
  406MOL0     C54712  10.217   6.068   8.077  0.1094  0.3663  0.7694
  406MOL0     C54713  10.288   6.144   7.963 -0.4862 -0.6611 -0.1700
  406MOL0     C54714  10.427   6.203   7.996  0.6534  0.0919 -0.3098
  406MOL0     C54715  10.502   6.267   7.875  0.0322 -0.5769 -0.0870
  406MOL0     C54716  10.622   6.360   7.910 -0.4830  0.4395 -0.2641
  406MOL0     C54717  10.733   6.287   7.985 -0.6070  0.5153  0.1197
  406MOL0     C54718  10.847   6.387   8.021 -0.8123 -0.1306 -0.0622
  406MOL0    Cl54719  10.773   6.510   8.128  0.1309 -0.1119 -0.0771
  406MOL0     C54720   9.805   5.954   8.086  0.6128 -0.0650 -0.6350
  406MOL0     C54721   9.667   5.915   8.114  0.4201 -0.0910 -0.4751
  406MOL0     O54722   9.397   5.823   8.038  0.2344  0.9541 -0.3141
  406MOL0     C54723   9.272   5.689   8.357  0.4183 -0.3660 -0.0922
  406MOL0     C54724   9.156   5.637   8.411 -0.6801  0.8537  0.2181
  406MOL0     N54725   8.340   5.522   8.346  0.1958 -0.0156  0.0230
  406MOL0     N54726   8.234   5.476   8.281 -0.1882 -0.5107  0.4444
  406MOL0     C54727   7.016   5.568   8.345 -0.0936  0.2242 -0.7723
  406MOL0     C54728   6.924   5.604   8.442  0.0512 -0.4298 -0.2013
  406MOL0     C54729   6.610   5.914   8.653 -0.1859  0.2380  0.0249
  406MOL0     C54730   6.609   6.020   8.745  0.3574 -0.3243 -0.4147
  406MOL0     C54731   6.491   6.061   8.803  0.0420 -0.4166  0.2595
  406MOL0     C54732   6.369   5.990   8.776  0.0406  0.3560  0.0188
  406MOL0     O54733   6.241   6.036   8.819 -1.3506  0.0847  0.1846
  406MOL0     C54734   6.234   6.098   8.946 -0.2844 -0.2930  1.0147
  406MOL0     C54735   6.125   6.051   9.035 -0.0906  0.7360  0.3050
  406MOL0     C54736   5.986   6.086   8.974  0.0048  0.5397 -1.0074
  406MOL0     C54737   5.879   6.090   9.082 -0.3056  0.1036  0.2101
  406MOL0     C54738   5.744   6.067   9.032 -0.1015  0.4110 -0.3367
  406MOL0     C54739   5.633   6.042   8.984 -0.2058  0.2770  0.4884
  406MOL0     C54740   6.368   5.878   8.694 -0.2573 -0.1992  0.6997
  406MOL0     C54741   6.493   5.834   8.639 -0.3979 -0.7707  0.3861
  406MOL0     C54742   6.490   5.707   8.564  0.0973  0.1444  0.9543
  406MOL0     H54743   6.863   5.926   8.329  1.4099 -0.1089  0.4193
  406MOL0     H54744   7.057   5.870   8.182 -3.3190  1.2661 -0.5578
  406MOL0     H54745   7.166   5.709   7.991 -1.8405  2.0754  0.6943
  406MOL0     H54746   7.243   5.799   8.116 -0.5112  1.6919 -4.5663
  406MOL0     H54747   7.383   5.674   7.936  1.8266  0.6197  0.6365
  406MOL0     H54748   7.358   5.527   8.033  1.8279 -0.2838 -0.2458
  406MOL0     H54749   7.464   5.627   8.227  0.3475 -0.2395  0.0107
  406MOL0     H54750   7.468   5.783   8.160 -0.7859 -0.7966  4.1621
  406MOL0     H54751   7.599   5.524   8.076 -1.8398  0.1135  1.8374
  406MOL0     H54752   7.616   5.662   7.966  1.5566 -0.3790 -0.7740
  406MOL0     H54753   7.714   5.781   8.187  0.2001  0.8107  0.1187
  406MOL0     H54754   7.712   5.618   8.258 -0.4220 -3.1948 -1.5717
  406MOL0     H54755   7.841   5.528   8.074 -2.2110  0.8309  0.6688
  406MOL0     H54756   7.880   5.679   8.012  1.9895 -1.8173 -0.7427
  406MOL0     H54757   7.954   5.591   8.284 -0.8379 -0.7479  0.0975
  406MOL0     H54758   7.993   5.748   8.203 -0.5533 -0.6468  0.7923
  406MOL0     H54759   8.058   5.480   8.083 -1.9108  0.7908  0.8373
  406MOL0     H54760   8.124   5.637   8.025 -1.7990  2.8805  0.2628
  406MOL0     H54761   8.273   5.796   8.179  0.3062 -0.1532 -0.2258
  406MOL0     H54762   8.500   5.835   8.329  1.2231  0.2328 -0.1742
  406MOL0     H54763   8.491   5.732   8.473  0.6112 -0.0159 -0.0933
  406MOL0     H54764   8.613   5.660   8.194  2.2387 -0.3944 -0.4039
  406MOL0     H54765   8.704   5.745   8.328  1.8944 -1.3848  0.6621
  406MOL0     H54766   8.612   5.469   8.330 -1.7332  0.6029  0.2260
  406MOL0     H54767   8.663   5.570   8.471 -0.5756 -1.5616 -1.0192
  406MOL0     H54768   8.835   5.512   8.228  0.6487  1.3561  0.6337
  406MOL0     H54769   8.835   5.409   8.368  0.2979 -1.6346 -1.5327
  406MOL0     H54770   8.955   5.697   8.158  2.8769  0.9170 -2.7409
  406MOL0     H54771   9.139   5.773   8.051 -2.6933 -1.0044  0.4695
  406MOL0     H54772   9.743   5.638   8.307 -2.9648  2.4809  3.1350
  406MOL0     H54773   9.968   5.727   8.275 -0.6888  0.1557  1.8615
  406MOL0     H54774  10.089   5.957   7.958  1.2474  0.2936 -0.1904
  406MOL0     H54775  10.011   6.101   8.020 -0.5580 -0.7207 -1.8311
  406MOL0     H54776  10.203   6.129   8.167  0.2616 -3.8155  3.9511
  406MOL0     H54777  10.278   5.983   8.109 -1.4227 -1.4847 -1.0178
  406MOL0     H54778  10.300   6.070   7.883  0.1810 -0.5652 -0.1693
  406MOL0     H54779  10.226   6.223   7.921 -1.9645 -2.3916 -1.3977
  406MOL0     H54780  10.489   6.122   8.035 -1.5128 -0.8885  1.3057
  406MOL0     H54781  10.404   6.283   8.067 -0.1529 -0.1736 -0.2633
  406MOL0     H54782  10.429   6.323   7.815  0.0924  0.9190  1.1702
  406MOL0     H54783  10.521   6.182   7.809 -1.1014 -0.8658 -0.0716
  406MOL0     H54784  10.672   6.391   7.818  2.8117 -0.3765  1.1193
  406MOL0     H54785  10.590   6.449   7.966  1.7187  1.5436 -0.6436
  406MOL0     H54786  10.777   6.216   7.914 -2.0754  0.2605 -0.5765
  406MOL0     H54787  10.707   6.231   8.076 -0.5815  2.1764  1.1859
  406MOL0     H54788  10.925   6.325   8.067 -1.2157 -2.2866 -2.0795
  406MOL0     H54789  10.893   6.438   7.935 -0.1247 -0.8947 -0.1665
  406MOL0     H54790   9.818   6.047   8.032 -0.8477  2.4704  2.9898
  406MOL0     H54791   9.583   5.968   8.069 -0.2578 -1.0150 -0.3277
  406MOL0     H54792   9.367   5.691   8.409  1.5912  1.2878 -2.1707
  406MOL0     H54793   9.154   5.589   8.508 -0.6204 -0.7648 -0.5548
  406MOL0     H54794   7.058   5.468   8.347  2.7435  1.3323 -0.9991
  406MOL0     H54795   6.894   5.529   8.514  0.7180  1.1261  1.7994
  406MOL0     H54796   6.704   6.069   8.763 -0.2729  0.7088  0.2021
  406MOL0     H54797   6.498   6.147   8.868 -0.4453  0.5388 -0.9213
  406MOL0     H54798   6.227   6.203   8.916 -0.1816 -0.6121 -0.1960
  406MOL0     H54799   6.328   6.084   9.001 -0.9513  0.0450  2.2937
  406MOL0     H54800   6.135   6.104   9.130 -2.9567 -0.6364  1.4734
  406MOL0     H54801   6.130   5.943   9.056 -1.3460  0.6766  0.3408
  406MOL0     H54802   5.956   6.008   8.903  2.7720 -0.7924 -0.8567
  406MOL0     H54803   5.998   6.185   8.929 -1.1472  1.4019  0.5146
  406MOL0     H54804   5.915   6.027   9.164 -0.1172 -0.8074 -0.5472
  406MOL0     H54805   5.877   6.190   9.125 -1.6674  0.6320 -1.0026
  406MOL0     H54806   5.547   6.036   8.920 -1.0549  3.4337  1.1736
  406MOL0     H54807   6.274   5.825   8.682  0.1838 -1.2217  1.5428
  406MOL0     H54808   6.398   5.650   8.586  0.0390  0.3965  1.3649
  406MOL0     H54809   6.506   5.713   8.456 -2.4158 -1.8666  0.3462
  406MOL0     H54810   6.563   5.634   8.601 -1.0519  0.1544  3.4788
  407MOL0     O54811   1.857   3.684   7.160  0.6221  0.5494  1.0065
  407MOL0     C54812   1.815   3.720   7.270 -0.9712 -0.0331  0.8598
  407MOL0     O54813   1.881   3.800   7.362  0.3410 -0.3602  0.6016
  407MOL0     C54814   1.999   3.853   7.316  0.0353 -0.2010 -0.1851
  407MOL0     C54815   2.121   3.776   7.320 -0.2566 -0.3358  0.1955
  407MOL0     C54816   2.239   3.843   7.275  0.4738 -0.6080  0.4034
  407MOL0     C54817   2.230   3.968   7.228  0.0710 -0.2313 -0.5856
  407MOL0     O54818   2.354   4.007   7.190 -0.1558 -0.0249  0.3388
  407MOL0     C54819   2.389   4.133   7.137  0.1167  0.9555  0.6017
  407MOL0     C54820   2.541   4.151   7.124 -0.3527 -0.2200  0.6744
  407MOL0     C54821   2.622   4.061   7.028  0.0927  0.1710  0.4989
  407MOL0     C54822   2.623   4.103   6.880 -0.1155  0.4053 -0.0222
  407MOL0     C54823   2.687   4.001   6.792  0.1065  0.1340  0.5967
  407MOL0     C54824   2.836   3.976   6.814 -0.6960 -0.3430 -0.6017
  407MOL0     C54825   2.912   4.113   6.830  0.0135  0.1032 -0.4972
  407MOL0     C54826   2.909   4.210   6.709 -0.2717  0.7126 -0.7091
  407MOL0     N54827   3.000   4.330   6.713  0.8932 -0.8147 -0.6060
  407MOL0     C54828   3.079   4.372   6.819 -0.7845  1.0439  0.9989
  407MOL0     C54829   3.155   4.472   6.765 -0.5595 -0.7998 -0.5266
  407MOL0     C54830   3.257   4.549   6.848  0.5449  1.1755  0.5237
  407MOL0     C54831   3.355   4.632   6.770 -0.1888  0.2328  1.1359
  407MOL0     C54832   3.448   4.542   6.684 -0.7658  0.0501  0.3517
  407MOL0     C54833   3.498   4.418   6.757 -0.1504 -0.5518 -0.5460
  407MOL0     O54834   3.560   4.454   6.885 -0.0615 -0.3104  0.2113
  407MOL0     C54835   3.684   4.513   6.897 -0.6810 -0.6250 -1.0497
  407MOL0     C54836   3.702   4.587   7.013 -0.1574  0.1876  0.6113
  407MOL0     C54837   3.819   4.664   7.027  0.9111  0.4603  0.0629
  407MOL0     C54838   3.912   4.671   6.918  0.6642 -0.1107  0.8354
  407MOL0     C54839   4.036   4.751   6.929 -0.2521 -0.3165 -0.0864
  407MOL0     O54840   4.116   4.743   6.819 -0.2330 -0.2494 -0.1568
  407MOL0     C54841   4.239   4.804   6.825  0.4852 -0.8017 -0.9890
  407MOL0     C54842   4.330   4.769   6.927  0.4821 -0.7493 -0.4641
  407MOL0     C54843   4.463   4.819   6.924  1.0827  0.6592 -0.0775
  407MOL0     C54844   4.498   4.911   6.824  0.4158 -0.1738  0.4651
  407MOL0     O54845   4.625   4.961   6.833 -0.3416  0.1093 -0.0948
  407MOL0     C54846   4.672   5.066   6.747 -0.2818 -0.4221 -0.8096
  407MOL0     C54847   4.799   5.127   6.797 -0.6376  0.0775  0.2313
  407MOL0     C54848   4.915   5.039   6.814 -0.4803  0.6180  0.8719
  407MOL0     C54849   4.981   5.009   6.680 -0.0395 -0.3110 -0.1835
  407MOL0     C54850   5.073   4.889   6.685 -0.1037  0.0844 -0.2450
  407MOL0     C54851   5.209   4.926   6.738 -0.4270  0.4235  0.1828
  407MOL0     C54852   5.282   4.800   6.787  0.1130 -1.0257 -0.3424
  407MOL0     C54853   5.434   4.811   6.808  0.2070 -0.4952 -0.5311
  407MOL0    Cl54854   5.481   4.963   6.891  0.3926 -0.1060 -0.0634
  407MOL0     C54855   4.404   4.947   6.730 -1.1911  0.4060 -0.2855
  407MOL0     C54856   4.280   4.890   6.725  0.1408  0.0031  0.6670
  407MOL0     O54857   4.049   4.828   7.023  0.2692 -0.5072 -0.7729
  407MOL0     C54858   3.888   4.598   6.807 -0.9441 -0.3646  0.2322
  407MOL0     C54859   3.781   4.505   6.799 -0.9708 -0.1965 -0.0700
  407MOL0     N54860   3.111   4.499   6.641 -1.2072 -0.0554  0.4398
  407MOL0     N54861   3.020   4.417   6.610 -0.4173  0.5008  0.3344
  407MOL0     C54862   2.120   4.049   7.223 -0.0262  0.0859  0.4146
  407MOL0     C54863   2.002   3.982   7.271 -0.2235  0.1500 -0.0694
  407MOL0     C54864   1.683   3.675   7.305 -0.4938 -0.5067  0.1708
  407MOL0     C54865   1.597   3.773   7.349  0.4669 -0.1120  0.3556
  407MOL0     C54866   1.470   3.737   7.386  0.4878  0.5297 -0.2333
  407MOL0     C54867   1.432   3.604   7.387  0.2727 -0.3643 -0.2077
  407MOL0     O54868   1.312   3.582   7.451 -0.0857  0.7451  0.0537
  407MOL0     C54869   1.230   3.484   7.385 -0.8657  0.3016 -0.0873
  407MOL0     C54870   1.093   3.496   7.432  0.0094  0.0539 -0.6814
  407MOL0     C54871   1.078   3.494   7.586 -0.0815  0.8753 -0.5109
  407MOL0     C54872   1.089   3.351   7.645  0.0478  0.1096  0.2195
  407MOL0     C54873   1.100   3.351   7.791 -0.6993 -0.0105 -0.2106
  407MOL0     C54874   1.101   3.372   7.913 -0.3847  0.3109  0.0397
  407MOL0     C54875   1.515   3.500   7.341 -0.3884  0.0133 -0.5244
  407MOL0     C54876   1.641   3.539   7.291  0.6874 -0.6299  0.1485
  407MOL0     C54877   1.726   3.439   7.222  0.2934  0.7075 -0.5262
  407MOL0     H54878   2.133   3.677   7.362  0.8804  0.7010  2.5759
  407MOL0     H54879   2.336   3.796   7.287 -0.4357 -2.3354  1.3457
  407MOL0     H54880   2.350   4.143   7.035 -0.5373 -1.7969  0.5053
  407MOL0     H54881   2.338   4.210   7.196 -0.0257  2.5047 -1.4500
  407MOL0     H54882   2.578   4.136   7.225  2.3362 -1.5394 -0.4099
  407MOL0     H54883   2.557   4.253   7.086 -3.7709 -0.2731 -1.4023
  407MOL0     H54884   2.587   3.957   7.038  1.9572 -0.8462 -2.3491
  407MOL0     H54885   2.728   4.075   7.053  0.4000  0.2764 -0.8018
  407MOL0     H54886   2.516   4.114   6.856 -0.4688 -1.0652  0.7712
  407MOL0     H54887   2.666   4.203   6.869 -0.2358  0.5018  0.3406
  407MOL0     H54888   2.626   3.909   6.794 -0.1241  0.2766  0.2157
  407MOL0     H54889   2.668   4.041   6.692  0.7144  1.2782  0.9293
  407MOL0     H54890   2.844   3.921   6.909  1.5578  2.5618  1.0677
  407MOL0     H54891   2.889   3.911   6.743  0.1454 -0.5030  0.1494
  407MOL0     H54892   3.014   4.081   6.855 -0.2948  0.2774  1.0543
  407MOL0     H54893   2.878   4.175   6.913 -0.5353 -0.7339 -0.0874
  407MOL0     H54894   2.928   4.149   6.620 -1.2975 -0.8378  0.0695
  407MOL0     H54895   2.802   4.234   6.706 -0.0239  1.7470 -1.4714
  407MOL0     H54896   3.081   4.339   6.922  0.1074 -0.7645  0.4361
  407MOL0     H54897   3.200   4.608   6.920  1.1883 -0.3307  2.3581
  407MOL0     H54898   3.307   4.475   6.912 -2.3881 -0.3229  1.2573
  407MOL0     H54899   3.303   4.693   6.695 -1.6171 -3.2528 -0.9785
  407MOL0     H54900   3.400   4.700   6.842 -0.3176 -0.4762  1.8959
  407MOL0     H54901   3.532   4.606   6.655 -1.0483 -0.5564 -2.0021
  407MOL0     H54902   3.409   4.503   6.590  0.9860 -3.0919  0.8105
  407MOL0     H54903   3.563   4.352   6.699  1.1560  0.5047 -0.3173
  407MOL0     H54904   3.415   4.350   6.777 -0.1371 -0.4262 -0.0465
  407MOL0     H54905   3.621   4.588   7.086 -2.8139  1.4695 -2.1358
  407MOL0     H54906   3.835   4.719   7.119  0.1452  1.9321 -0.6575
  407MOL0     H54907   4.288   4.705   7.004 -1.4330 -1.8163 -2.2636
  407MOL0     H54908   4.524   4.797   7.010 -1.3411 -0.8247  1.3892
  407MOL0     H54909   4.702   5.019   6.652  2.4602  2.2934 -1.4140
  407MOL0     H54910   4.599   5.146   6.727  0.1493 -0.2852 -1.9165
  407MOL0     H54911   4.834   5.211   6.736  3.1888 -0.0448  1.9288
  407MOL0     H54912   4.772   5.169   6.895 -0.5959  0.0293  0.2636
  407MOL0     H54913   4.994   5.078   6.880 -1.8463  2.8775  1.2923
  407MOL0     H54914   4.883   4.944   6.859  1.1391 -0.1159  0.5502
  407MOL0     H54915   5.028   5.102   6.648 -0.0276 -0.3894 -0.3979
  407MOL0     H54916   4.903   4.981   6.608 -1.8206 -0.9517  1.8761
  407MOL0     H54917   5.071   4.849   6.583 -2.1931  0.9103 -0.5626
  407MOL0     H54918   5.022   4.813   6.745 -2.6450  2.7141  1.1675
  407MOL0     H54919   5.258   4.984   6.659 -2.7824  1.9942 -0.2001
  407MOL0     H54920   5.191   4.991   6.824 -0.9304  0.6621 -0.0997
  407MOL0     H54921   5.262   4.725   6.711  2.1449  0.3276 -2.3327
  407MOL0     H54922   5.238   4.770   6.883  0.0354  1.4397  0.4793
  407MOL0     H54923   5.469   4.733   6.877 -0.3395 -2.1494 -2.0191
  407MOL0     H54924   5.482   4.796   6.710 -1.3174 -0.9502 -1.2440
  407MOL0     H54925   4.435   5.003   6.643 -0.3726 -0.6243 -0.6793
  407MOL0     H54926   4.213   4.913   6.643  0.6686 -3.1731 -0.7958
  407MOL0     H54927   3.940   4.607   6.712  1.9540 -2.5981  1.4491
  407MOL0     H54928   3.739   4.466   6.707 -0.3026  0.1481 -0.5261
  407MOL0     H54929   2.124   4.150   7.184 -3.0331  0.9824  2.0488
  407MOL0     H54930   1.902   4.021   7.255 -0.6478 -0.5185  0.8085
  407MOL0     H54931   1.624   3.878   7.351 -0.2304  0.2475 -3.2201
  407MOL0     H54932   1.397   3.813   7.409 -0.3550  0.0078 -1.1039
  407MOL0     H54933   1.268   3.387   7.417  0.4317  0.9089  0.2965
  407MOL0     H54934   1.228   3.495   7.276 -1.2838 -2.2860 -0.3987
  407MOL0     H54935   1.034   3.418   7.384  0.8990 -0.9242 -0.2269
  407MOL0     H54936   1.061   3.589   7.384  2.8053  1.9351  0.7737
  407MOL0     H54937   0.980   3.529   7.622 -0.6544  0.1506 -1.3158
  407MOL0     H54938   1.157   3.557   7.628 -0.6823  1.3449 -0.0679
  407MOL0     H54939   1.014   3.283   7.602  0.6365 -0.2760 -0.2184
  407MOL0     H54940   1.178   3.306   7.599 -1.1827  0.4227 -2.7226
  407MOL0     H54941   1.093   3.387   8.019  0.4916 -1.4488  0.3884
  407MOL0     H54942   1.503   3.393   7.357  3.0746 -0.6235 -1.3921
  407MOL0     H54943   1.829   3.433   7.260  0.4089 -0.0945 -0.9547
  407MOL0     H54944   1.684   3.339   7.224 -3.9571  2.3163  0.5992
  407MOL0     H54945   1.743   3.467   7.117 -3.3556 -0.2199 -1.5138
  408MOL0     O54946   3.030   2.362  10.580  0.8687  0.0691 -0.4484
  408MOL0     C54947   2.968   2.367  10.686 -0.1867 -0.4075  0.0223
  408MOL0     O54948   3.024   2.374  10.804 -0.2115  0.0217  0.3958
  408MOL0     C54949   3.160   2.361  10.809  0.5487 -0.0832 -0.9437
  408MOL0     C54950   3.258   2.460  10.760  1.0417 -1.0558  0.5633
  408MOL0     C54951   3.396   2.440  10.781 -0.3409  0.6143 -0.4199
  408MOL0     C54952   3.443   2.335  10.857  0.4609 -0.4228 -0.0835
  408MOL0     O54953   3.575   2.329  10.891 -1.0013 -0.2000 -0.2813
  408MOL0     C54954   3.668   2.345  10.785 -0.4127  0.1389  0.5032
  408MOL0     C54955   3.808   2.313  10.833  0.5956  0.1844  0.0098
  408MOL0     C54956   3.877   2.391  10.942 -0.3823 -1.0745 -0.5137
  408MOL0     C54957   4.029   2.369  10.920  0.0897 -0.1423 -0.3799
  408MOL0     C54958   4.126   2.415  11.031  0.7282  1.1516  0.2849
  408MOL0     C54959   4.122   2.559  11.052 -0.4231 -0.2972  0.4895
  408MOL0     C54960   4.172   2.604  11.191 -0.5444  0.6065  0.2435
  408MOL0     C54961   4.314   2.564  11.234 -0.1508 -0.1225 -0.6104
  408MOL0     N54962   4.404   2.588  11.128  0.2502  0.1508  0.5844
  408MOL0     C54963   4.521   2.518  11.117 -0.2926  0.0554 -1.0599
  408MOL0     C54964   4.586   2.578  11.019 -0.2536  0.0313  0.6934
  408MOL0     C54965   4.722   2.546  10.957 -0.7015 -0.1469 -0.2399
  408MOL0     C54966   4.842   2.615  11.027  0.0235  0.5379 -0.3354
  408MOL0     C54967   4.834   2.762  11.012  0.2441 -0.8825  0.2164
  408MOL0     C54968   4.968   2.828  11.038  0.9502 -0.5231  0.0653
  408MOL0     O54969   5.062   2.782  10.950  0.3769 -0.2143  0.2729
  408MOL0     C54970   5.195   2.801  10.982 -0.2346 -0.4610 -1.0549
  408MOL0     C54971   5.240   2.920  11.030 -0.7343 -0.0802  0.9717
  408MOL0     C54972   5.381   2.933  11.064  0.2987 -0.3437  0.2398
  408MOL0     C54973   5.466   2.820  11.051  0.0799 -0.2038 -1.1458
  408MOL0     C54974   5.614   2.834  11.093  0.3014 -0.2166  0.6191
  408MOL0     O54975   5.690   2.730  11.056  0.5696  0.0205 -0.1165
  408MOL0     C54976   5.827   2.716  11.044 -0.2988 -0.3564 -0.7934
  408MOL0     C54977   5.914   2.816  11.008  0.0578 -0.5080 -0.4135
  408MOL0     C54978   6.054   2.794  10.999 -0.1306 -0.6369  0.0446
  408MOL0     C54979   6.115   2.672  11.043  0.6254  0.0320  0.4417
  408MOL0     O54980   6.242   2.640  11.045 -0.0400 -0.5661 -0.1431
  408MOL0     C54981   6.332   2.705  10.951  0.0480 -0.5082  0.2124
  408MOL0     C54982   6.471   2.634  10.964  0.2713 -0.1194 -0.2324
  408MOL0     C54983   6.517   2.643  11.112 -0.5644 -0.4595  0.0538
  408MOL0     C54984   6.658   2.590  11.128 -0.1547  0.6004  0.2231
  408MOL0     C54985   6.704   2.575  11.275  0.1638 -0.7263  0.3763
  408MOL0     C54986   6.853   2.599  11.292 -0.1465 -0.0656  0.2041
  408MOL0     C54987   6.878   2.567  11.444 -0.1013  0.9430  0.6576
  408MOL0     C54988   6.977   2.670  11.522  0.7871 -0.1289  0.2066
  408MOL0    Cl54989   7.137   2.651  11.438 -0.4586 -0.4532 -0.1445
  408MOL0     C54990   6.016   2.570  11.075 -0.1652  0.2730  0.2333
  408MOL0     C54991   5.876   2.590  11.067 -0.2094 -0.6320 -1.1603
  408MOL0     O54992   5.663   2.932  11.152  0.4141 -0.2651 -0.2144
  408MOL0     C54993   5.407   2.698  11.008  0.7210 -0.0179  0.4418
  408MOL0     C54994   5.274   2.690  10.960  0.1995  0.0735 -0.1112
  408MOL0     N54995   4.512   2.688  10.974  0.3859  0.9464  0.2867
  408MOL0     N54996   4.405   2.695  11.042  0.0621  0.1329  0.0283
  408MOL0     C54997   3.343   2.249  10.919 -0.3518  1.2947 -0.3032
  408MOL0     C54998   3.207   2.260  10.891 -0.0820  0.1800 -0.5296
  408MOL0     C54999   2.823   2.387  10.673  0.3710 -0.4781 -0.4195
  408MOL0     C55000   2.768   2.508  10.631  0.5135  0.0397  0.5707
  408MOL0     C55001   2.632   2.519  10.621  0.5706 -0.4598 -0.6543
  408MOL0     C55002   2.540   2.409  10.642 -0.5810 -0.9005 -0.0916
  408MOL0     O55003   2.416   2.427  10.610  0.0794 -0.5452  0.6456
  408MOL0     C55004   2.321   2.335  10.649  0.3550  0.1822  0.7838
  408MOL0     C55005   2.182   2.402  10.628  0.5803 -0.4560 -0.1136
  408MOL0     C55006   2.129   2.480  10.762  0.3605  0.2386  0.7106
  408MOL0     C55007   1.989   2.531  10.759  0.0913 -0.2700 -0.0483
  408MOL0     C55008   1.965   2.606  10.877 -0.0301  0.3619 -0.5097
  408MOL0     C55009   1.934   2.658  10.978 -0.3007 -0.0850 -0.1592
  408MOL0     C55010   2.605   2.288  10.682  0.1483 -0.8002  0.3401
  408MOL0     C55011   2.740   2.275  10.681  0.5376  0.6288  0.1545
  408MOL0     C55012   2.789   2.143  10.725  0.1866  0.9269 -0.5457
  408MOL0     H55013   3.213   2.550  10.720  0.3322 -1.3925  0.5914
  408MOL0     H55014   3.458   2.525  10.755 -1.8980  2.4824  1.5306
  408MOL0     H55015   3.651   2.275  10.703  1.5046 -0.6065  0.6878
  408MOL0     H55016   3.665   2.444  10.739  2.5082  0.1669  0.1594
  408MOL0     H55017   3.871   2.318  10.743  1.3010  0.1186  0.4920
  408MOL0     H55018   3.812   2.208  10.864  2.0709  0.4567  0.8394
  408MOL0     H55019   3.841   2.372  11.043 -1.2668  1.7324 -0.2152
  408MOL0     H55020   3.852   2.497  10.929  1.9289 -0.5076 -0.8163
  408MOL0     H55021   4.049   2.262  10.903  1.1386 -0.4008  2.1198
  408MOL0     H55022   4.055   2.416  10.825 -0.3689 -0.4257 -0.6506
  408MOL0     H55023   4.103   2.348  11.115  2.1486 -0.7322 -0.7372
  408MOL0     H55024   4.226   2.385  10.999  1.9055  2.2825  2.6281
  408MOL0     H55025   4.173   2.613  10.972 -2.0116  0.5973  0.0358
  408MOL0     H55026   4.018   2.593  11.054  0.0551  1.2103  0.6465
  408MOL0     H55027   4.108   2.573  11.275 -0.6071  0.2329  0.0596
  408MOL0     H55028   4.171   2.713  11.193  0.4960  0.6288  0.0339
  408MOL0     H55029   4.346   2.626  11.318  1.9485 -0.9010 -0.7700
  408MOL0     H55030   4.312   2.461  11.273  3.8841 -1.2296 -2.7764
  408MOL0     H55031   4.538   2.429  11.178  0.8113  1.9355  1.5838
  408MOL0     H55032   4.740   2.439  10.968  1.6338 -0.0795 -2.4794
  408MOL0     H55033   4.719   2.566  10.849 -0.5095 -2.5795 -0.7641
  408MOL0     H55034   4.849   2.587  11.132 -1.0252  0.1426 -0.3546
  408MOL0     H55035   4.932   2.581  10.975  0.9426  1.6607  0.4665
  408MOL0     H55036   4.764   2.793  11.090 -0.5087 -2.5541  0.2525
  408MOL0     H55037   4.790   2.781  10.914 -2.7075 -0.9122  1.4065
  408MOL0     H55038   4.998   2.796  11.138 -1.9150  1.5933  1.7592
  408MOL0     H55039   4.956   2.937  11.037 -0.4115 -0.6152 -2.8331
  408MOL0     H55040   5.168   3.001  11.039  1.3717  2.0538 -0.1050
  408MOL0     H55041   5.425   3.028  11.093  2.3197 -0.5114 -1.9412
  408MOL0     H55042   5.882   2.918  10.988 -1.5237 -0.9534 -0.3114
  408MOL0     H55043   6.107   2.887  10.984  0.9715 -0.9030  1.8616
  408MOL0     H55044   6.289   2.698  10.851  0.7690 -0.8494 -0.0846
  408MOL0     H55045   6.343   2.811  10.977  0.4968 -0.0271 -1.7670
  408MOL0     H55046   6.470   2.534  10.920 -2.1522 -0.6366  0.8147
  408MOL0     H55047   6.537   2.691  10.898 -2.0277  2.4947 -0.4566
  408MOL0     H55048   6.518   2.749  11.136  1.4526  0.5481 -3.7718
  408MOL0     H55049   6.449   2.589  11.179 -2.3788  0.3665 -1.0392
  408MOL0     H55050   6.728   2.658  11.079 -0.5029  0.0143 -1.1204
  408MOL0     H55051   6.656   2.493  11.077  1.4694 -0.7185  2.4310
  408MOL0     H55052   6.683   2.477  11.318  3.4839 -0.0789  4.1406
  408MOL0     H55053   6.641   2.645  11.331 -1.1912 -1.5566 -0.0678
  408MOL0     H55054   6.916   2.521  11.248 -2.2896 -1.9023  0.1767
  408MOL0     H55055   6.883   2.701  11.269 -0.4459  0.3224  1.4725
  408MOL0     H55056   6.922   2.468  11.456 -0.1606  0.9178  0.6697
  408MOL0     H55057   6.779   2.557  11.490 -0.2180 -0.2456  0.1779
  408MOL0     H55058   6.941   2.771  11.500 -1.0494 -0.7350  0.2725
  408MOL0     H55059   6.979   2.649  11.630 -0.8640 -3.7924 -0.3145
  408MOL0     H55060   6.055   2.470  11.091 -1.0761 -0.4659 -1.7532
  408MOL0     H55061   5.815   2.501  11.078 -0.5993 -0.6023 -2.8058
  408MOL0     H55062   5.470   2.609  11.010 -0.4558 -0.9664 -1.5314
  408MOL0     H55063   5.230   2.599  10.921  0.2919 -0.3622  0.7644
  408MOL0     H55064   3.378   2.170  10.983 -2.1175  0.0789 -0.7633
  408MOL0     H55065   3.139   2.184  10.929  0.9245 -0.8327 -0.7030
  408MOL0     H55066   2.835   2.589  10.607 -1.2900  0.9234 -1.9218
  408MOL0     H55067   2.583   2.611  10.591  2.0357  1.1899  1.6952
  408MOL0     H55068   2.326   2.304  10.754  0.7451 -0.8717  0.4729
  408MOL0     H55069   2.333   2.240  10.594 -0.7415 -0.2793  1.3021
  408MOL0     H55070   2.110   2.328  10.592 -0.3564  0.0130  0.7743
  408MOL0     H55071   2.194   2.484  10.557 -1.3412  2.0992  2.3137
  408MOL0     H55072   2.186   2.573  10.773  2.2032 -0.9739  2.0685
  408MOL0     H55073   2.150   2.418  10.849 -1.4888 -0.4882  0.6857
  408MOL0     H55074   1.972   2.599  10.675 -1.6580 -1.1362 -0.4448
  408MOL0     H55075   1.917   2.449  10.755  0.8488 -0.9500  0.2335
  408MOL0     H55076   1.896   2.691  11.072  0.6730 -1.6979  0.8539
  408MOL0     H55077   2.542   2.203  10.706 -1.2565 -0.1450 -0.8887
  408MOL0     H55078   2.708   2.070  10.722  0.3237  0.6805  0.9545
  408MOL0     H55079   2.859   2.103  10.651 -2.7535  0.3992 -3.2481
  408MOL0     H55080   2.829   2.147  10.827 -1.4480  2.0760  0.0917
  409MOL0     O55081   2.715   4.475   1.970  0.6726 -0.0780 -0.4476
  409MOL0     C55082   2.645   4.432   1.880  1.0199 -0.3791  0.1042
  409MOL0     O55083   2.674   4.320   1.802  0.6357 -0.3826 -0.1771
  409MOL0     C55084   2.804   4.272   1.787  0.0708 -0.7131 -0.4819
  409MOL0     C55085   2.837   4.147   1.848 -0.0102 -0.0598 -0.1195
  409MOL0     C55086   2.970   4.111   1.863 -0.3896 -0.3122  0.0465
  409MOL0     C55087   3.072   4.180   1.795  0.1237  0.2923 -1.1656
  409MOL0     O55088   3.194   4.135   1.826 -0.0059  0.2007 -0.0210
  409MOL0     C55089   3.309   4.181   1.757 -0.2209  0.1936  0.1421
  409MOL0     C55090   3.370   4.284   1.846 -0.8903  0.7017 -0.6169
  409MOL0     C55091   3.513   4.313   1.814 -0.6388 -0.6391  0.8701
  409MOL0     C55092   3.631   4.214   1.844  0.5570  0.0449 -0.1823
  409MOL0     C55093   3.771   4.274   1.875 -0.2044  0.2549 -0.4651
  409MOL0     C55094   3.856   4.304   1.746  0.5351  0.7803  0.1634
  409MOL0     C55095   3.998   4.356   1.776  0.3726  0.1158  0.4046
  409MOL0     C55096   4.093   4.245   1.807 -1.0198  0.1278 -0.3440
  409MOL0     N55097   4.239   4.284   1.789 -0.3252 -0.2459 -0.1119
  409MOL0     C55098   4.301   4.274   1.666  0.1561 -0.7164 -0.6889
  409MOL0     C55099   4.432   4.307   1.703 -0.1366 -0.0490 -0.2415
  409MOL0     C55100   4.549   4.294   1.619 -0.1131 -0.2709 -0.1844
  409MOL0     C55101   4.586   4.153   1.570  0.4626  0.8961  0.4219
  409MOL0     C55102   4.700   4.157   1.468 -0.1045 -0.0362  0.2865
  409MOL0     C55103   4.715   4.011   1.413 -0.5051  0.5093 -0.0824
  409MOL0     O55104   4.785   3.997   1.287  0.3828 -1.1031 -0.5712
  409MOL0     C55105   4.922   4.031   1.280 -0.3526  0.2486 -0.8568
  409MOL0     C55106   5.026   4.019   1.377  0.3849 -1.0497 -0.1428
  409MOL0     C55107   5.155   4.064   1.349  0.3277  0.3675  1.0363
  409MOL0     C55108   5.182   4.102   1.219  0.5282  0.5492  0.7283
  409MOL0     C55109   5.331   4.129   1.180 -0.1350 -0.1416  0.2020
  409MOL0     O55110   5.418   4.121   1.278  0.4003  0.1814  0.1026
  409MOL0     C55111   5.548   4.154   1.245 -0.3020  0.2791  0.0171
  409MOL0     C55112   5.586   4.286   1.220 -0.2584  1.1122  0.4142
  409MOL0     C55113   5.719   4.325   1.191 -0.2215 -0.2520  0.2306
  409MOL0     C55114   5.819   4.224   1.171 -0.0890 -1.1138 -0.5768
  409MOL0     O55115   5.946   4.256   1.133  0.0652 -0.9470 -0.1469
  409MOL0     C55116   5.957   4.338   1.009 -0.7271  0.2241 -0.0536
  409MOL0     C55117   6.106   4.380   0.983 -0.4240  0.8194  0.1573
  409MOL0     C55118   6.134   4.450   0.848  0.1937 -0.7440  0.1004
  409MOL0     C55119   6.260   4.529   0.845 -0.3000  0.2635 -0.5217
  409MOL0     C55120   6.284   4.581   0.708  0.5675 -0.3904  0.0317
  409MOL0     C55121   6.412   4.681   0.693 -0.0683 -0.1758  0.8696
  409MOL0     C55122   6.433   4.717   0.546  0.3688 -0.6075  0.7022
  409MOL0     C55123   6.304   4.769   0.478 -0.1393 -0.0391  0.4341
  409MOL0    Cl55124   6.271   4.937   0.526 -0.2879  0.3764  0.3173
  409MOL0     C55125   5.785   4.097   1.216 -0.3966 -0.7606  0.1531
  409MOL0     C55126   5.654   4.062   1.262 -0.4153  0.2283 -0.8274
  409MOL0     O55127   5.360   4.166   1.068  0.7786 -0.1656  0.4397
  409MOL0     C55128   5.087   4.106   1.117  1.0535 -0.3339 -0.3429
  409MOL0     C55129   4.951   4.072   1.146 -0.5900  0.4804  0.3381
  409MOL0     N55130   4.434   4.320   1.837 -0.3551  0.2159  0.5392
  409MOL0     N55131   4.320   4.302   1.895  0.3042 -0.3258 -0.5074
  409MOL0     C55132   3.035   4.300   1.731 -0.8751 -0.6492 -0.0907
  409MOL0     C55133   2.904   4.353   1.721  0.0827  0.4111 -0.1588
  409MOL0     C55134   2.504   4.499   1.859  0.4544 -0.3781  0.0056
  409MOL0     C55135   2.435   4.474   1.733  0.1852  0.3182 -0.0022
  409MOL0     C55136   2.319   4.544   1.695 -0.2625  0.1057 -0.9960
  409MOL0     C55137   2.278   4.654   1.774  1.4356  1.0176  0.5255
  409MOL0     O55138   2.169   4.710   1.735 -0.3528  0.2354 -0.0531
  409MOL0     C55139   2.053   4.658   1.793  1.2206 -0.4595  0.2333
  409MOL0     C55140   1.930   4.718   1.718  0.6762  0.2146  0.8391
  409MOL0     C55141   1.796   4.683   1.785  0.3222  0.2936 -0.5214
  409MOL0     C55142   1.660   4.746   1.735  0.3768 -0.3920 -0.2999
  409MOL0     C55143   1.626   4.887   1.772 -0.6078  0.0903  0.3584
  409MOL0     C55144   1.598   4.999   1.808  1.0072 -0.5638 -0.3692
  409MOL0     C55145   2.342   4.684   1.893 -0.7499 -0.1086 -0.5258
  409MOL0     C55146   2.463   4.615   1.933  0.8181  0.2586 -0.2508
  409MOL0     C55147   2.518   4.663   2.064 -0.4499 -0.2146  0.6444
  409MOL0     H55148   2.755   4.090   1.893 -2.9009  1.1138 -3.4583
  409MOL0     H55149   2.990   4.029   1.932 -0.1462 -1.3098 -1.1607
  409MOL0     H55150   3.376   4.095   1.751 -0.3269  0.2075 -2.1477
  409MOL0     H55151   3.297   4.217   1.654  1.1930 -0.0791 -0.1347
  409MOL0     H55152   3.376   4.233   1.943  0.5653 -1.0985 -1.5779
  409MOL0     H55153   3.312   4.376   1.853 -0.8094  1.0220 -3.0697
  409MOL0     H55154   3.527   4.404   1.873 -1.2758 -0.8731  1.3856
  409MOL0     H55155   3.509   4.338   1.708  1.6272  1.3748  1.1804
  409MOL0     H55156   3.610   4.158   1.936  2.9893 -2.3492 -0.9753
  409MOL0     H55157   3.649   4.142   1.764  2.5893 -1.7633  1.7545
  409MOL0     H55158   3.762   4.356   1.947 -1.4371 -0.1537 -0.1207
  409MOL0     H55159   3.832   4.200   1.926  0.3175  0.7660 -0.3433
  409MOL0     H55160   3.857   4.216   1.682  0.2405  2.0163 -1.6331
  409MOL0     H55161   3.809   4.382   1.685 -2.3470  1.0687  2.5031
  409MOL0     H55162   3.989   4.427   1.859 -0.4986 -0.0589  0.4669
  409MOL0     H55163   4.038   4.418   1.695  2.2696  1.8860  2.5194
  409MOL0     H55164   4.082   4.204   1.907  1.4775 -0.4672 -0.2476
  409MOL0     H55165   4.080   4.169   1.730 -0.0732  1.1246 -1.5431
  409MOL0     H55166   4.258   4.267   1.567  0.4576 -0.1638 -0.8627
  409MOL0     H55167   4.527   4.361   1.535 -3.6784  1.0398  1.6152
  409MOL0     H55168   4.633   4.350   1.660 -1.1015  3.3235 -2.5175
  409MOL0     H55169   4.630   4.086   1.644  0.5177  0.3329 -0.1145
  409MOL0     H55170   4.495   4.109   1.526 -0.3204  1.8006  1.1090
  409MOL0     H55171   4.788   4.196   1.520  0.0976 -1.1754  0.8288
  409MOL0     H55172   4.671   4.212   1.378 -0.8460 -0.1773  0.4351
  409MOL0     H55173   4.612   3.976   1.414 -0.6794  0.9112  2.5769
  409MOL0     H55174   4.770   3.948   1.483 -1.7997  0.4482  0.8940
  409MOL0     H55175   5.002   3.992   1.479 -1.9666  3.3936  0.7439
  409MOL0     H55176   5.241   4.061   1.415  1.5389  0.3160 -0.4716
  409MOL0     H55177   5.496   4.346   1.229 -1.3343 -0.2132 -0.9647
  409MOL0     H55178   5.741   4.431   1.187  0.8328 -0.3366  2.3473
  409MOL0     H55179   5.933   4.279   0.920  0.6932 -2.7166  1.3819
  409MOL0     H55180   5.890   4.425   1.006 -1.0768 -0.0754 -2.1871
  409MOL0     H55181   6.132   4.450   1.062  0.9747 -2.3558  2.7339
  409MOL0     H55182   6.174   4.294   0.988 -0.4980  0.8071  4.2943
  409MOL0     H55183   6.139   4.372   0.772 -2.5157 -1.0859  0.1857
  409MOL0     H55184   6.054   4.516   0.814  1.2734 -0.1196 -1.3212
  409MOL0     H55185   6.346   4.470   0.877  0.5616  1.1766 -1.0785
  409MOL0     H55186   6.232   4.614   0.909 -1.7823 -0.7095  0.1755
  409MOL0     H55187   6.193   4.640   0.696  0.0759 -1.0960  0.2536
  409MOL0     H55188   6.294   4.502   0.634  1.4924 -1.2758  1.0580
  409MOL0     H55189   6.399   4.770   0.755 -0.1183 -0.0689  0.7041
  409MOL0     H55190   6.502   4.627   0.723 -1.4118 -1.8724  2.0614
  409MOL0     H55191   6.452   4.621   0.496 -2.1015 -1.6998  1.6711
  409MOL0     H55192   6.517   4.785   0.535 -0.5670  0.4346 -0.2555
  409MOL0     H55193   6.316   4.771   0.370  3.8182 -2.4079  0.6169
  409MOL0     H55194   6.222   4.700   0.502 -1.9809  0.9695 -2.4620
  409MOL0     H55195   5.865   4.024   1.223 -0.7615 -1.1366  0.5436
  409MOL0     H55196   5.634   3.957   1.281 -0.2322  0.3950  0.3179
  409MOL0     H55197   5.120   4.141   1.019  1.3353 -1.1779 -0.5601
  409MOL0     H55198   4.871   4.078   1.073 -1.1335 -2.5531  0.5537
  409MOL0     H55199   3.121   4.357   1.698 -2.8804  1.8525 -1.3050
  409MOL0     H55200   2.879   4.443   1.667  1.1166  1.2334  0.6826
  409MOL0     H55201   2.471   4.390   1.673  0.8973 -0.7699  1.8611
  409MOL0     H55202   2.262   4.512   1.609 -1.2460  0.8080 -0.6235
  409MOL0     H55203   2.058   4.666   1.902 -0.4168  2.4992  0.1856
  409MOL0     H55204   2.047   4.550   1.777  0.9004 -0.7467  2.0730
  409MOL0     H55205   1.930   4.674   1.618 -0.7311 -0.1007  0.9706
  409MOL0     H55206   1.936   4.827   1.707 -0.6514  0.2160 -0.0637
  409MOL0     H55207   1.799   4.702   1.893  0.7505  0.4712 -0.5661
  409MOL0     H55208   1.792   4.575   1.772  1.8953  0.2278 -0.5632
  409MOL0     H55209   1.649   4.726   1.628 -2.4461  3.4438 -0.9459
  409MOL0     H55210   1.579   4.686   1.778 -2.3167  2.3171 -1.2498
  409MOL0     H55211   1.589   5.093   1.859  1.4236 -1.4555  1.4612
  409MOL0     H55212   2.291   4.761   1.950 -1.6317 -0.6143 -0.6207
  409MOL0     H55213   2.589   4.745   2.053 -3.1657  2.7199  3.2866
  409MOL0     H55214   2.438   4.704   2.126 -0.0989  2.5014 -0.5728
  409MOL0     H55215   2.566   4.588   2.128  1.9805  1.1266  0.5141
  410MOL0     O55216   8.447   6.675   3.277 -0.6660 -0.2608 -0.1389
  410MOL0     C55217   8.426   6.721   3.385  1.0285 -0.6012 -0.1597
  410MOL0     O55218   8.515   6.774   3.470 -0.7753 -0.0082  0.2809
  410MOL0     C55219   8.645   6.776   3.434 -0.3902 -0.0625 -0.4911
  410MOL0     C55220   8.720   6.652   3.468  0.2473  0.6262 -0.3555
  410MOL0     C55221   8.856   6.651   3.433  0.9130  0.0439 -0.0930
  410MOL0     C55222   8.912   6.760   3.370  0.1342  0.0138 -0.2553
  410MOL0     O55223   9.048   6.770   3.335 -0.2227  0.4538  0.2313
  410MOL0     C55224   9.126   6.645   3.325  0.4897 -0.3407  0.1227
  410MOL0     C55225   9.270   6.669   3.281 -0.1084 -0.8552  0.1699
  410MOL0     C55226   9.346   6.758   3.374  0.8889 -0.4327  0.6345
  410MOL0     C55227   9.401   6.680   3.492  0.6999 -0.2030 -0.8109
  410MOL0     C55228   9.469   6.769   3.595 -1.0060  0.8698  0.1968
  410MOL0     C55229   9.577   6.860   3.535 -0.1984 -0.3195 -0.2066
  410MOL0     C55230   9.700   6.783   3.474  0.8787  0.2665 -0.5571
  410MOL0     C55231   9.827   6.862   3.462  0.5314  0.9330 -0.2473
  410MOL0     N55232   9.949   6.781   3.468 -0.9111  0.4758 -0.3663
  410MOL0     C55233  10.014   6.732   3.354 -0.2348  0.7317  0.1755
  410MOL0     C55234  10.108   6.652   3.398  0.3790 -0.0616  0.4414
  410MOL0     C55235  10.202   6.571   3.318  0.3734  1.0554 -0.5999
  410MOL0     C55236  10.317   6.509   3.395 -0.1616 -0.0031 -0.2561
  410MOL0     C55237  10.265   6.390   3.481  0.4258 -0.0150 -0.0099
  410MOL0     C55238  10.371   6.340   3.581 -0.1115 -0.8077  0.3352
  410MOL0     O55239  10.299   6.239   3.658  0.1715  0.0680 -0.2776
  410MOL0     C55240  10.362   6.188   3.769 -0.6425 -0.5450  0.0933
  410MOL0     C55241  10.316   6.069   3.813 -0.1236 -0.2472 -0.1259
  410MOL0     C55242  10.380   6.006   3.925 -0.3645 -0.5690 -0.9136
  410MOL0     C55243  10.485   6.067   4.003 -0.1566  0.0850  0.0313
  410MOL0     C55244  10.530   6.009   4.128  0.0748  0.5248  0.1401
  410MOL0     O55245  10.444   5.937   4.203  0.1825  0.5498 -0.2688
  410MOL0     C55246  10.510   5.881   4.316  0.1298 -0.2520  0.4457
  410MOL0     C55247  10.466   5.923   4.446  0.4655  0.8306  0.4144
  410MOL0     C55248  10.521   5.864   4.557  0.8152 -0.3834  0.6644
  410MOL0     C55249  10.625   5.767   4.547  0.1269  0.3247 -0.0960
  410MOL0     O55250  10.676   5.707   4.654 -0.7046  0.2294  0.4151
  410MOL0     C55251  10.779   5.794   4.705 -0.8404 -0.0743 -0.7364
  410MOL0     C55252  10.769   5.800   4.858 -0.5749  1.5604  0.4263
  410MOL0     C55253  10.867   5.888   4.934 -0.0192  0.5391  1.1169
  410MOL0     C55254  11.006   5.835   4.943 -0.8907 -0.4768  0.3856
  410MOL0     C55255  11.024   5.712   5.038 -0.4534 -0.5616 -0.4040
  410MOL0     C55256  10.972   5.723   5.181  0.0042 -0.9769  0.1128
  410MOL0     C55257  11.029   5.834   5.253 -0.2551  0.3590 -0.4031
  410MOL0     C55258  11.176   5.833   5.261  0.5899 -0.7608 -0.4937
  410MOL0    Cl55259  11.235   5.928   5.403  0.0485  0.3247 -0.2796
  410MOL0     C55260  10.661   5.728   4.417 -0.0736 -0.1055  0.2462
  410MOL0     C55261  10.604   5.783   4.307  0.3497  0.4964  0.2585
  410MOL0     O55262  10.637   6.051   4.162 -0.6367 -0.0201  0.2437
  410MOL0     C55263  10.546   6.173   3.939  0.2582 -0.7754 -0.2149
  410MOL0     C55264  10.482   6.232   3.823  1.3279  0.0421 -0.4943
  410MOL0     N55265  10.098   6.653   3.541  0.5481  0.2400  1.0190
  410MOL0     N55266  10.009   6.739   3.581  0.1297 -0.1613 -0.2237
  410MOL0     C55267   8.832   6.867   3.335  0.0504 -0.3322 -0.7283
  410MOL0     C55268   8.701   6.882   3.365  0.5892 -0.4585  1.4157
  410MOL0     C55269   8.285   6.725   3.443 -0.2442 -0.3501  0.5586
  410MOL0     C55270   8.271   6.783   3.573 -0.5204 -0.4641 -0.6280
  410MOL0     C55271   8.150   6.791   3.640  0.3786  0.9956 -0.4200
  410MOL0     C55272   8.033   6.737   3.578 -0.0413 -0.2513 -0.2053
  410MOL0     O55273   7.902   6.749   3.620  0.1455 -0.2024 -0.7729
  410MOL0     C55274   7.877   6.830   3.741  0.9858  0.1426 -0.6796
  410MOL0     C55275   7.861   6.984   3.713 -0.0888  0.7014  0.0017
  410MOL0     C55276   7.739   7.001   3.632  0.2641 -0.0671  0.8592
  410MOL0     C55277   7.707   7.152   3.624  0.2832  0.2322 -0.1673
  410MOL0     C55278   7.585   7.173   3.549 -0.1818  0.3529  0.0958
  410MOL0     C55279   7.481   7.188   3.482 -0.2808  0.4238  0.6539
  410MOL0     C55280   8.053   6.668   3.455  0.1971 -0.7838 -0.2283
  410MOL0     C55281   8.169   6.663   3.379 -0.6905  0.7481 -0.0097
  410MOL0     C55282   8.168   6.597   3.240 -0.9698 -0.3856 -0.5493
  410MOL0     H55283   8.681   6.577   3.536 -3.0248  0.4711 -2.2168
  410MOL0     H55284   8.901   6.557   3.463 -2.2841 -0.7406  2.9215
  410MOL0     H55285   9.142   6.589   3.418  3.3687  0.3299  0.1274
  410MOL0     H55286   9.061   6.583   3.262 -0.6812  0.9529  0.0188
  410MOL0     H55287   9.275   6.697   3.175 -2.0987 -1.8913 -0.2410
  410MOL0     H55288   9.328   6.576   3.285 -0.0524 -0.7863  1.2536
  410MOL0     H55289   9.276   6.830   3.416 -0.4860 -1.7035  0.5718
  410MOL0     H55290   9.432   6.801   3.320 -0.7828  2.7834  0.3161
  410MOL0     H55291   9.319   6.638   3.550  1.2162  0.2976  0.3046
  410MOL0     H55292   9.475   6.606   3.459  1.9927 -0.7665  2.9332
  410MOL0     H55293   9.398   6.832   3.650  0.4489  0.5400  2.6283
  410MOL0     H55294   9.515   6.707   3.672 -3.4009  1.4481  2.2291
  410MOL0     H55295   9.535   6.920   3.454 -1.0009 -2.1582 -1.2160
  410MOL0     H55296   9.610   6.934   3.608 -2.2746  2.0368 -1.5258
  410MOL0     H55297   9.678   6.735   3.378  3.7073  1.1903 -1.7545
  410MOL0     H55298   9.706   6.704   3.550 -2.0177 -1.8629 -2.3363
  410MOL0     H55299   9.833   6.917   3.368 -0.1013 -1.0402 -1.5100
  410MOL0     H55300   9.827   6.928   3.549  0.6325 -0.6620  1.0195
  410MOL0     H55301   9.990   6.755   3.251 -1.6447  0.5959  0.4567
  410MOL0     H55302  10.152   6.480   3.282 -0.2628  1.2833 -0.3131
  410MOL0     H55303  10.252   6.626   3.238  4.1113 -0.4968  0.4691
  410MOL0     H55304  10.393   6.464   3.330  0.6339 -0.4447  0.9547
  410MOL0     H55305  10.365   6.581   3.462  1.5886 -0.2526 -1.1905
  410MOL0     H55306  10.242   6.302   3.419  0.7722 -0.4159  0.4159
  410MOL0     H55307  10.168   6.418   3.522 -1.2600 -2.9253 -1.6295
  410MOL0     H55308  10.393   6.427   3.642 -2.1711 -0.3224  0.4666
  410MOL0     H55309  10.463   6.298   3.538 -0.4862  0.5810 -1.9729
  410MOL0     H55310  10.229   6.026   3.766 -0.4981  1.7786 -1.4185
  410MOL0     H55311  10.342   5.913   3.966  0.0480 -0.0147  0.8331
  410MOL0     H55312  10.379   5.988   4.444  1.3580  2.0748  1.1759
  410MOL0     H55313  10.468   5.881   4.650 -4.0339 -2.9867 -1.2536
  410MOL0     H55314  10.877   5.751   4.681 -0.3844  1.1585 -1.1705
  410MOL0     H55315  10.788   5.900   4.678  1.2794  0.5755  2.0405
  410MOL0     H55316  10.664   5.826   4.874 -1.6974 -1.5499 -1.2651
  410MOL0     H55317  10.779   5.699   4.899 -0.3426  1.8455  1.0929
  410MOL0     H55318  10.865   5.986   4.885 -0.3386 -0.2003 -0.3975
  410MOL0     H55319  10.821   5.913   5.030 -1.1615  3.6453 -0.1126
  410MOL0     H55320  11.073   5.914   4.979 -1.4420 -0.2081  0.8192
  410MOL0     H55321  11.031   5.800   4.842 -2.1251 -0.7513  0.1682
  410MOL0     H55322  11.129   5.683   5.029  0.4983  2.3638  0.0509
  410MOL0     H55323  10.964   5.632   4.993 -1.2754  0.0278 -0.3811
  410MOL0     H55324  10.863   5.735   5.171  0.0424  0.8810  1.5909
  410MOL0     H55325  10.990   5.631   5.238 -2.3166 -2.6024 -1.5767
  410MOL0     H55326  10.990   5.831   5.355  0.4539 -0.7986 -0.1383
  410MOL0     H55327  11.002   5.934   5.221 -3.7553 -0.2020  0.4545
  410MOL0     H55328  11.213   5.732   5.280 -0.0183 -0.8981 -0.0255
  410MOL0     H55329  11.213   5.873   5.166 -1.1017 -0.4838 -1.0731
  410MOL0     H55330  10.734   5.649   4.405  1.6735  1.6139 -0.9686
  410MOL0     H55331  10.633   5.738   4.212 -0.1685  0.4741  0.1040
  410MOL0     H55332  10.638   6.212   3.981 -1.6064  2.1198  1.5861
  410MOL0     H55333  10.537   6.315   3.780  4.6164 -1.0480  1.2281
  410MOL0     H55334   8.874   6.955   3.286 -2.1188  0.7725 -0.7459
  410MOL0     H55335   8.646   6.968   3.330  1.6531  0.6433  2.3842
  410MOL0     H55336   8.349   6.835   3.627 -1.1252 -0.0238 -0.1627
  410MOL0     H55337   8.146   6.849   3.732 -0.3352  0.5961 -0.1910
  410MOL0     H55338   7.946   6.812   3.825 -1.1661 -1.2352  0.9081
  410MOL0     H55339   7.779   6.800   3.779 -0.9758  3.7768 -2.4097
  410MOL0     H55340   7.955   7.025   3.676 -1.0106  0.0996 -3.3378
  410MOL0     H55341   7.856   7.026   3.814  1.8580 -1.3308  1.0334
  410MOL0     H55342   7.661   6.947   3.687  1.1104  0.8656  3.0784
  410MOL0     H55343   7.762   6.983   3.526 -0.7169  2.1563  0.2191
  410MOL0     H55344   7.673   7.189   3.721 -0.6984  2.3132 -1.2444
  410MOL0     H55345   7.788   7.215   3.587 -1.1763  1.7187 -0.9459
  410MOL0     H55346   7.394   7.187   3.420 -1.2557 -1.1471  1.9779
  410MOL0     H55347   7.961   6.621   3.424  0.0311 -0.9419  0.4813
  410MOL0     H55348   8.241   6.517   3.227 -0.1827  0.0248  1.1011
  410MOL0     H55349   8.072   6.547   3.224 -1.0176 -0.2269 -0.7493
  410MOL0     H55350   8.186   6.674   3.165 -3.0629  0.1943 -0.5227
  411MOL0     O55351   7.048   2.800   4.089 -0.1431 -0.1276 -0.0819
  411MOL0     C55352   7.017   2.826   3.971  0.3325  0.0607  0.2967
  411MOL0     O55353   7.079   2.774   3.861 -0.5353  0.8610 -0.3595
  411MOL0     C55354   7.212   2.738   3.875 -0.0862  0.4383  0.7990
  411MOL0     C55355   7.310   2.832   3.892 -0.8017  0.3977 -0.0086
  411MOL0     C55356   7.443   2.799   3.919  0.4122 -0.4019 -0.0895
  411MOL0     C55357   7.476   2.662   3.911 -0.3548  0.1068  0.5700
  411MOL0     O55358   7.615   2.624   3.928  0.1966  0.2232 -0.1587
  411MOL0     C55359   7.644   2.509   4.018  0.3780 -0.0389 -0.2132
  411MOL0     C55360   7.705   2.401   3.934  0.1420  0.3046 -0.3784
  411MOL0     C55361   7.739   2.268   3.997 -0.0574 -0.3756 -0.5752
  411MOL0     C55362   7.759   2.290   4.143 -0.4381  0.2966  0.0133
  411MOL0     C55363   7.762   2.151   4.208  0.3889 -0.1575  0.5554
  411MOL0     C55364   7.773   2.158   4.361  0.1584 -0.3493  0.1024
  411MOL0     C55365   7.640   2.198   4.438 -0.2391 -0.7092  0.1425
  411MOL0     C55366   7.643   2.187   4.589  0.2767 -0.0675  0.0809
  411MOL0     N55367   7.534   2.255   4.652 -0.3013 -0.6136 -0.2848
  411MOL0     C55368   7.496   2.391   4.643  0.0190  0.8244  0.1833
  411MOL0     C55369   7.395   2.413   4.721  0.1704 -0.3502 -0.7730
  411MOL0     C55370   7.333   2.547   4.755  0.5780 -0.3818 -0.1824
  411MOL0     C55371   7.436   2.647   4.813  0.3087  0.3712 -0.4033
  411MOL0     C55372   7.508   2.744   4.718 -0.7988 -0.4226 -0.4993
  411MOL0     C55373   7.571   2.862   4.789  0.0147  0.1657 -0.0480
  411MOL0     O55374   7.657   2.813   4.891 -0.7552 -0.7290 -0.1687
  411MOL0     C55375   7.793   2.843   4.865 -1.0037 -0.4807 -0.3567
  411MOL0     C55376   7.881   2.870   4.972 -0.0910  0.1632 -0.5394
  411MOL0     C55377   8.017   2.887   4.952  0.3084 -0.3328  0.1787
  411MOL0     C55378   8.077   2.882   4.831 -0.4566  1.1474  0.7363
  411MOL0     C55379   8.230   2.901   4.811 -0.3313  1.1026 -0.4928
  411MOL0     O55380   8.295   2.889   4.934  0.0640  0.2967 -0.8542
  411MOL0     C55381   8.436   2.895   4.933 -0.0936  0.4715 -0.6341
  411MOL0     C55382   8.514   2.822   4.840 -0.1202  0.2365 -1.2281
  411MOL0     C55383   8.650   2.835   4.830 -0.4598  0.5400  0.5413
  411MOL0     C55384   8.716   2.920   4.930  1.3119  0.5682 -0.5283
  411MOL0     O55385   8.847   2.936   4.916 -0.3776  0.2853 -0.0116
  411MOL0     C55386   8.899   3.049   4.979 -0.1133  0.1540  0.8947
  411MOL0     C55387   8.963   3.016   5.121 -0.0819 -0.4616 -0.1118
  411MOL0     C55388   9.056   3.129   5.164 -0.6006  0.0875 -0.7041
  411MOL0     C55389   9.197   3.104   5.133 -0.4704 -0.3123  0.0414
  411MOL0     C55390   9.285   3.227   5.158  0.7820 -0.1082 -0.3794
  411MOL0     C55391   9.427   3.198   5.117 -0.8614 -0.2974 -0.7459
  411MOL0     C55392   9.513   3.329   5.116 -0.2148  0.4376 -0.1527
  411MOL0     C55393   9.662   3.311   5.111  0.2207 -0.1471  0.1462
  411MOL0    Cl55394   9.734   3.200   5.231 -0.2494 -0.0388  0.3271
  411MOL0     C55395   8.636   2.976   5.039 -0.0997 -0.6621 -0.0441
  411MOL0     C55396   8.500   2.971   5.033 -0.7963  0.3690  0.3210
  411MOL0     O55397   8.281   2.942   4.705 -0.0100  0.2438  0.7651
  411MOL0     C55398   7.999   2.835   4.724 -0.5823 -0.9782 -0.8185
  411MOL0     C55399   7.855   2.812   4.748 -0.6861 -0.1370  0.2610
  411MOL0     N55400   7.366   2.289   4.778  0.0066 -0.9656 -0.2853
  411MOL0     N55401   7.446   2.204   4.737 -0.2530  0.6055 -0.3296
  411MOL0     C55402   7.383   2.565   3.874 -0.5768 -0.1458  0.1951
  411MOL0     C55403   7.251   2.609   3.857 -1.0666 -0.3179  0.1783
  411MOL0     C55404   6.886   2.900   3.934 -0.2135  0.7533  0.3901
  411MOL0     C55405   6.826   2.854   3.817  0.2100  1.4704  0.0995
  411MOL0     C55406   6.698   2.903   3.785 -0.2825 -0.3692  0.6140
  411MOL0     C55407   6.639   3.005   3.857  0.4464 -1.0907 -0.4887
  411MOL0     O55408   6.523   3.062   3.807  0.2813 -0.8849  0.1417
  411MOL0     C55409   6.495   3.200   3.851  0.2204  0.3433 -0.3730
  411MOL0     C55410   6.383   3.254   3.761 -0.0795 -0.6026 -0.7242
  411MOL0     C55411   6.287   3.346   3.855 -0.1078  1.0997  0.8865
  411MOL0     C55412   6.154   3.387   3.783  0.1854  0.6431  0.0789
  411MOL0     C55413   6.072   3.274   3.746 -0.6088 -0.6697  1.2768
  411MOL0     C55414   6.015   3.176   3.699 -0.6428 -0.2459 -0.3967
  411MOL0     C55415   6.697   3.057   3.978  0.4921 -0.4961  0.4379
  411MOL0     C55416   6.818   2.994   4.016  0.4217 -0.7172  0.1542
  411MOL0     C55417   6.879   3.026   4.152 -1.1938  0.0520  0.4311
  411MOL0     H55418   7.284   2.938   3.891 -0.5336  0.4984  1.4429
  411MOL0     H55419   7.519   2.868   3.956  0.5013  0.0115 -1.0203
  411MOL0     H55420   7.711   2.534   4.101 -1.0347  1.1924  0.6025
  411MOL0     H55421   7.546   2.476   4.053 -0.2914 -2.5312 -3.8913
  411MOL0     H55422   7.797   2.448   3.897 -0.3204  0.3197 -1.5498
  411MOL0     H55423   7.643   2.381   3.846 -0.7354  4.5191 -0.9359
  411MOL0     H55424   7.831   2.225   3.954  1.9148  1.2378  1.7541
  411MOL0     H55425   7.653   2.202   3.986 -2.3007  2.1758  0.6245
  411MOL0     H55426   7.856   2.339   4.155  1.6809 -3.2646 -0.9905
  411MOL0     H55427   7.681   2.346   4.196 -0.3158  0.8418 -0.3772
  411MOL0     H55428   7.671   2.092   4.188  0.6780 -0.4861  0.1995
  411MOL0     H55429   7.849   2.100   4.166  1.5630  4.1665 -2.9141
  411MOL0     H55430   7.800   2.055   4.387 -1.0857 -0.6398  0.3199
  411MOL0     H55431   7.845   2.238   4.379  1.8677 -0.6542 -4.1634
  411MOL0     H55432   7.549   2.153   4.396  0.2859  0.0500 -1.9369
  411MOL0     H55433   7.633   2.306   4.424  0.4840 -0.3599  2.1330
  411MOL0     H55434   7.636   2.082   4.618 -0.0985 -0.4827 -1.4197
  411MOL0     H55435   7.742   2.220   4.623  0.5815 -0.1598 -0.6870
  411MOL0     H55436   7.554   2.462   4.585  0.9300 -0.4625 -0.5349
  411MOL0     H55437   7.293   2.593   4.664  2.7652 -2.5779 -2.3784
  411MOL0     H55438   7.259   2.529   4.833 -0.0841  1.2639 -0.3847
  411MOL0     H55439   7.379   2.716   4.876 -0.0928  0.2803 -0.6681
  411MOL0     H55440   7.505   2.581   4.866 -3.1243 -2.1651  1.2185
  411MOL0     H55441   7.432   2.783   4.650 -1.9162 -2.0896 -0.2757
  411MOL0     H55442   7.586   2.683   4.670  0.3069  0.1747  0.4946
  411MOL0     H55443   7.500   2.931   4.836 -1.4224 -0.5924 -1.0366
  411MOL0     H55444   7.625   2.913   4.709  2.7200  0.6113  1.9133
  411MOL0     H55445   7.840   2.891   5.071 -0.8694 -0.4437 -0.7264
  411MOL0     H55446   8.078   2.913   5.038 -0.0043 -0.2866  0.3854
  411MOL0     H55447   8.462   2.756   4.772  1.6713  1.4736 -3.9657
  411MOL0     H55448   8.706   2.804   4.742 -0.5137 -1.8823  1.3074
  411MOL0     H55449   8.981   3.067   4.909 -1.5031 -0.3189 -0.9353
  411MOL0     H55450   8.826   3.130   4.991 -0.1474  0.2481  0.1041
  411MOL0     H55451   8.880   2.993   5.188  0.9005 -0.3617  1.1860
  411MOL0     H55452   9.023   2.925   5.111  0.9179  0.0859  0.7031
  411MOL0     H55453   9.033   3.226   5.119  0.7094  1.3280  1.1410
  411MOL0     H55454   9.026   3.140   5.269 -2.5252 -2.1707 -0.9525
  411MOL0     H55455   9.209   3.066   5.031 -1.9039 -0.1241 -0.2203
  411MOL0     H55456   9.232   3.027   5.202  0.0708  0.9770  1.2591
  411MOL0     H55457   9.280   3.257   5.263  2.8602 -1.0628  0.0559
  411MOL0     H55458   9.257   3.314   5.097 -1.6306 -1.2485 -0.9930
  411MOL0     H55459   9.470   3.122   5.183 -0.0452  0.3655 -0.5008
  411MOL0     H55460   9.429   3.157   5.015  4.7349 -0.4753 -0.8567
  411MOL0     H55461   9.482   3.369   5.213 -1.4615  0.8619 -0.7034
  411MOL0     H55462   9.483   3.400   5.039  2.3563  2.6993  0.7654
  411MOL0     H55463   9.685   3.275   5.010 -1.4089  0.6653 -0.5378
  411MOL0     H55464   9.703   3.412   5.122 -0.0051 -0.0418  0.0075
  411MOL0     H55465   8.684   3.020   5.126  3.0428 -1.4929 -1.2231
  411MOL0     H55466   8.445   3.014   5.116  0.1479  0.2940  0.9980
  411MOL0     H55467   8.040   2.824   4.625 -3.6351 -1.0874 -2.2050
  411MOL0     H55468   7.804   2.755   4.671 -1.7451  1.1917 -0.0518
  411MOL0     H55469   7.408   2.462   3.851  2.0054  0.6864 -1.1892
  411MOL0     H55470   7.171   2.540   3.834 -0.9449 -0.9587  1.5497
  411MOL0     H55471   6.871   2.780   3.752  0.8406  2.2062 -0.3147
  411MOL0     H55472   6.640   2.869   3.700 -2.3065 -0.1558  1.8338
  411MOL0     H55473   6.584   3.260   3.832  0.0722  0.3068 -1.2440
  411MOL0     H55474   6.468   3.210   3.956  2.0759  0.2899  0.1530
  411MOL0     H55475   6.332   3.169   3.715  3.1515 -2.4767 -1.1102
  411MOL0     H55476   6.442   3.312   3.689  0.8610  1.2845  1.4463
  411MOL0     H55477   6.343   3.437   3.880  0.5711  0.0692  3.3582
  411MOL0     H55478   6.272   3.299   3.952  0.6731  0.1740  0.5741
  411MOL0     H55479   6.093   3.446   3.852  0.4736  0.4891  0.4769
  411MOL0     H55480   6.166   3.455   3.698 -3.8221  1.7334  0.1960
  411MOL0     H55481   5.965   3.085   3.673 -1.2384 -0.6137  1.7657
  411MOL0     H55482   6.649   3.135   4.036  0.0515  0.0198 -0.5921
  411MOL0     H55483   6.985   3.046   4.133 -1.0657 -1.9372 -1.4736
  411MOL0     H55484   6.836   3.117   4.194  2.1378  1.4965  1.0213
  411MOL0     H55485   6.874   2.952   4.233  2.2886 -2.6139 -1.4843
  412MOL0     O55486  11.177   5.249   4.630  0.4822  0.9205 -0.0394
  412MOL0     C55487  11.118   5.202   4.535  0.3618  0.2051  0.6935
  412MOL0     O55488  11.180   5.121   4.445 -0.4130  0.0452 -0.4891
  412MOL0     C55489  11.302   5.061   4.460 -0.5599 -0.3206  0.4165
  412MOL0     C55490  11.389   5.042   4.573  0.1764 -0.4052 -0.2518
  412MOL0     C55491  11.506   4.960   4.557 -0.2817 -0.7285  0.0718
  412MOL0     C55492  11.542   4.907   4.433 -0.7695 -0.2918 -0.1895
  412MOL0     O55493  11.655   4.824   4.426 -0.6161  0.6658 -0.6879
  412MOL0     C55494  11.757   4.865   4.328  0.0138  0.3195 -0.2305
  412MOL0     C55495  11.866   4.770   4.344  0.6630 -0.5699 -0.4074
  412MOL0     C55496  11.988   4.797   4.253  0.4815  0.5881  0.3340
  412MOL0     C55497  12.041   4.946   4.248  0.6057  0.4515 -0.6682
  412MOL0     C55498  12.162   4.952   4.156 -0.1704 -0.3827  0.6333
  412MOL0     C55499  12.261   5.071   4.171  0.0444 -0.1930  0.0837
  412MOL0     C55500  12.192   5.204   4.138  0.2897  0.5955  0.2819
  412MOL0     C55501  12.296   5.308   4.144  0.1937 -0.3580 -0.5313
  412MOL0     N55502  12.226   5.435   4.159  0.2103 -0.3616 -0.1028
  412MOL0     C55503  12.206   5.526   4.063 -0.4180  0.0881 -0.0533
  412MOL0     C55504  12.124   5.623   4.113  0.2037 -0.0674  0.2652
  412MOL0     C55505  12.099   5.747   4.045 -0.6633 -1.3936 -0.5210
  412MOL0     C55506  12.216   5.846   4.067  0.3134  0.2173 -0.1588
  412MOL0     C55507  12.256   5.872   4.218 -0.2600 -0.3322 -0.7418
  412MOL0     C55508  12.372   5.780   4.273  0.8005 -1.0790  0.2710
  412MOL0     O55509  12.474   5.773   4.175  0.7469  0.1144 -0.0121
  412MOL0     C55510  12.553   5.885   4.157 -0.8279 -0.1552 -0.0246
  412MOL0     C55511  12.553   5.999   4.234 -0.1135  0.1498 -0.0186
  412MOL0     C55512  12.642   6.101   4.194 -0.1635 -0.1055 -0.3367
  412MOL0     C55513  12.738   6.086   4.094  0.3016  0.1502  0.8139
  412MOL0     C55514  12.818   6.203   4.055 -0.1512 -0.7733 -0.2586
  412MOL0     O55515  12.876   6.204   3.937 -0.4498  0.3522 -0.1814
  412MOL0     C55516  12.939   6.315   3.905 -0.6615 -0.3188  0.5488
  412MOL0     C55517  12.890   6.448   3.902 -0.4394  0.0977  0.2370
  412MOL0     C55518  12.975   6.551   3.852  0.2621 -0.2528 -0.6685
  412MOL0     C55519  13.102   6.521   3.806  1.2022 -0.2913 -0.5227
  412MOL0     O55520  13.179   6.628   3.759  0.2783  0.1373  0.2294
  412MOL0     C55521  13.320   6.609   3.746  0.5541  0.3146  0.7997
  412MOL0     C55522  13.402   6.734   3.740 -0.1126 -0.3972  0.8816
  412MOL0     C55523  13.546   6.699   3.731 -0.0216  0.8373 -0.2546
  412MOL0     C55524  13.638   6.817   3.756  0.0509  0.1306 -0.0113
  412MOL0     C55525  13.786   6.779   3.753 -0.1905  0.0073  0.3503
  412MOL0     C55526  13.879   6.903   3.750 -0.8741  0.6759 -0.7291
  412MOL0     C55527  14.023   6.858   3.725  0.2028 -0.2110 -0.0830
  412MOL0     C55528  14.116   6.954   3.801 -0.9252 -0.0363 -0.4478
  412MOL0    Cl55529  14.291   6.881   3.815 -0.0484 -0.2397  0.2898
  412MOL0     C55530  13.147   6.381   3.806  0.6491 -0.5635  0.0723
  412MOL0     C55531  13.065   6.283   3.856 -1.2722 -0.6761  0.4120
  412MOL0     O55532  12.835   6.294   4.135  0.0213 -0.1861 -0.5533
  412MOL0     C55533  12.736   5.965   4.019 -0.6812 -0.3490 -0.2843
  412MOL0     C55534  12.642   5.871   4.053 -0.3343  0.5230  0.6576
  412MOL0     N55535  12.084   5.580   4.239 -0.7964 -0.0604  0.3828
  412MOL0     N55536  12.151   5.472   4.270 -0.3296 -0.1920 -0.1479
  412MOL0     C55537  11.455   4.925   4.324 -0.6363 -0.2336  0.2609
  412MOL0     C55538  11.334   4.993   4.335 -1.5574 -0.4869 -0.1738
  412MOL0     C55539  10.975   5.235   4.505 -0.6613 -0.1167  0.2748
  412MOL0     C55540  10.913   5.175   4.394 -1.2859 -0.0324 -0.6365
  412MOL0     C55541  10.789   5.218   4.350  0.3994  0.3198 -0.0696
  412MOL0     C55542  10.715   5.327   4.412 -0.3804 -0.0105  0.6913
  412MOL0     O55543  10.602   5.382   4.361 -0.2041 -0.2916 -0.0876
  412MOL0     C55544  10.527   5.311   4.265  0.7635 -0.2498  0.4838
  412MOL0     C55545  10.385   5.366   4.254  0.2609  0.2787 -0.5725
  412MOL0     C55546  10.322   5.296   4.128  0.1064 -0.0560  0.3442
  412MOL0     C55547  10.178   5.339   4.109  0.4824 -0.0221  0.1126
  412MOL0     C55548  10.146   5.309   3.971 -0.0255 -0.4686  0.7323
  412MOL0     C55549  10.124   5.305   3.852  0.0133  0.2680 -0.1810
  412MOL0     C55550  10.768   5.375   4.532  0.1450 -0.5912  0.8058
  412MOL0     C55551  10.895   5.332   4.583  0.6338  0.9635  0.4008
  412MOL0     C55552  10.945   5.391   4.711 -0.6766  0.6326 -0.1244
  412MOL0     H55553  11.364   5.074   4.673  1.5490 -2.0061  0.6682
  412MOL0     H55554  11.577   4.948   4.638  1.9040  1.4676 -1.3558
  412MOL0     H55555  11.718   4.857   4.226  0.8699 -0.7142 -0.5022
  412MOL0     H55556  11.801   4.961   4.357  2.4249 -1.1890  1.5220
  412MOL0     H55557  11.837   4.666   4.323  0.8169 -0.8814  0.8621
  412MOL0     H55558  11.898   4.768   4.448  0.1355  1.0301 -0.1874
  412MOL0     H55559  11.954   4.765   4.154 -2.9221  1.4012  1.1146
  412MOL0     H55560  12.068   4.729   4.284  1.1728  0.4326 -1.6125
  412MOL0     H55561  11.958   5.011   4.219  0.5719 -0.8696 -3.9146
  412MOL0     H55562  12.059   4.971   4.353  0.1321 -0.9605 -0.2255
  412MOL0     H55563  12.219   4.859   4.166  0.0987 -0.5383 -1.6462
  412MOL0     H55564  12.131   4.950   4.051  1.5245 -0.1184  0.0944
  412MOL0     H55565  12.300   5.062   4.273 -1.3317  0.7240  0.7160
  412MOL0     H55566  12.343   5.056   4.100 -0.3953 -0.4388 -0.3850
  412MOL0     H55567  12.105   5.222   4.202  0.9702  0.9515  1.1096
  412MOL0     H55568  12.168   5.193   4.031  1.7672  0.0162 -0.0078
  412MOL0     H55569  12.352   5.293   4.237  0.4511 -1.3367 -0.8327
  412MOL0     H55570  12.353   5.304   4.051  1.1740 -1.0056  0.0809
  412MOL0     H55571  12.257   5.533   3.967 -2.0944  0.6342 -0.9475
  412MOL0     H55572  12.093   5.737   3.936  3.3469 -0.1906 -1.0305
  412MOL0     H55573  12.012   5.793   4.092  0.4467  0.6939 -0.3606
  412MOL0     H55574  12.297   5.820   3.998  1.3231  3.5473 -0.4159
  412MOL0     H55575  12.172   5.939   4.027 -1.9047 -0.6099  0.1888
  412MOL0     H55576  12.167   5.846   4.277  1.7537 -0.8850  2.2480
  412MOL0     H55577  12.287   5.973   4.248  2.4477 -1.8252  2.1456
  412MOL0     H55578  12.334   5.678   4.281  1.7411 -1.3354  1.8594
  412MOL0     H55579  12.398   5.824   4.370  0.9156  2.0412 -1.0556
  412MOL0     H55580  12.489   6.007   4.322  1.5787 -2.4499  1.5732
  412MOL0     H55581  12.627   6.202   4.232 -2.5159 -0.5414  0.0542
  412MOL0     H55582  12.789   6.479   3.925 -0.4038  0.2988  0.1327
  412MOL0     H55583  12.936   6.652   3.844  2.5815  0.6143 -2.0261
  412MOL0     H55584  13.350   6.549   3.833 -0.4985 -0.3353  0.7318
  412MOL0     H55585  13.349   6.551   3.657 -2.3027  1.0237 -0.7034
  412MOL0     H55586  13.367   6.780   3.647  2.5497 -1.1268 -0.5931
  412MOL0     H55587  13.381   6.799   3.826 -3.0031 -1.6585  1.2333
  412MOL0     H55588  13.560   6.615   3.799 -1.5846  0.5469 -0.2543
  412MOL0     H55589  13.578   6.664   3.632  0.9830  1.3489 -0.1264
  412MOL0     H55590  13.609   6.859   3.853  1.8722  1.9407 -0.1824
  412MOL0     H55591  13.613   6.889   3.678 -0.1015  0.8337  0.6708
  412MOL0     H55592  13.814   6.711   3.673 -4.0711 -2.0745  0.5349
  412MOL0     H55593  13.813   6.727   3.845  0.4134 -0.4413 -0.0732
  412MOL0     H55594  13.854   6.968   3.666 -0.2144  3.8462  1.3522
  412MOL0     H55595  13.870   6.962   3.842  1.3247 -1.0922  0.7377
  412MOL0     H55596  14.029   6.858   3.615  0.1030 -2.4930 -0.1466
  412MOL0     H55597  14.034   6.753   3.752  0.0779 -0.1909  0.0490
  412MOL0     H55598  14.124   7.055   3.759  2.2644 -0.7867 -1.9522
  412MOL0     H55599  14.086   6.952   3.906  2.2659 -2.4448  0.5846
  412MOL0     H55600  13.241   6.353   3.759  1.4822 -0.7615  1.7976
  412MOL0     H55601  13.111   6.186   3.869  1.3337  0.5492  0.9649
  412MOL0     H55602  12.794   5.954   3.928 -3.6276 -2.0694 -2.1026
  412MOL0     H55603  12.633   5.784   3.989 -1.0265  2.0973 -1.4937
  412MOL0     H55604  11.484   4.874   4.232  2.8598  0.8851  0.6174
  412MOL0     H55605  11.262   4.993   4.254  0.1047  0.5964 -1.7364
  412MOL0     H55606  10.956   5.106   4.321  0.4582  1.8575 -1.4835
  412MOL0     H55607  10.755   5.171   4.259 -2.7618 -1.7112  1.9747
  412MOL0     H55608  10.512   5.204   4.283 -0.9070  0.1383  1.5354
  412MOL0     H55609  10.584   5.321   4.171  1.1067 -0.4141  0.6737
  412MOL0     H55610  10.385   5.473   4.232 -4.8864  0.0267 -3.4167
  412MOL0     H55611  10.331   5.350   4.348  2.3465  1.3171  0.8699
  412MOL0     H55612  10.312   5.187   4.122 -0.9627  0.1194 -3.1125
  412MOL0     H55613  10.384   5.332   4.046 -2.3990  2.2308 -0.6813
  412MOL0     H55614  10.115   5.288   4.182 -1.0260  1.6074  0.0156
  412MOL0     H55615  10.159   5.442   4.140 -0.6693 -0.3589  0.5705
  412MOL0     H55616  10.101   5.296   3.748 -2.9225 -2.3299  0.5598
  412MOL0     H55617  10.704   5.451   4.576 -1.6216 -2.4048  1.4883
  412MOL0     H55618  11.023   5.465   4.693  2.3167 -2.1184  0.5154
  412MOL0     H55619  10.858   5.429   4.765  1.3745  0.5254  3.5533
  412MOL0     H55620  10.969   5.301   4.769 -0.8199  0.4234 -0.3842
  413MOL0     O55621  10.732  11.083  10.233  0.7276  0.0059 -0.1521
  413MOL0     C55622  10.751  11.082  10.351 -0.0669 -0.6261 -0.5619
  413MOL0     O55623  10.868  11.122  10.414 -0.2813 -0.8296  0.3710
  413MOL0     C55624  10.988  11.116  10.346 -0.6435  1.1414  0.0256
  413MOL0     C55625  11.024  11.009  10.262  0.2876 -0.2253  0.5003
  413MOL0     C55626  11.138  11.006  10.186  0.5349  1.3843  0.4006
  413MOL0     C55627  11.228  11.106  10.197 -0.9124  0.2626 -0.6401
  413MOL0     O55628  11.340  11.091  10.135  0.2769 -0.4937  0.6399
  413MOL0     C55629  11.457  11.157  10.186 -0.2806 -0.3296  0.1744
  413MOL0     C55630  11.584  11.092  10.127  0.6061  0.0950 -0.4402
  413MOL0     C55631  11.708  11.157  10.183 -0.6299  0.2669  0.6619
  413MOL0     C55632  11.747  11.094  10.316 -0.1346  0.0454  0.1136
  413MOL0     C55633  11.893  11.109  10.359  0.7071  0.0011  0.3870
  413MOL0     C55634  11.942  11.010  10.473  0.0341  0.6609 -0.2635
  413MOL0     C55635  11.933  11.079  10.613  1.0003 -0.4644  0.7776
  413MOL0     C55636  11.990  10.995  10.730  0.5945  0.4293 -0.1568
  413MOL0     N55637  12.130  10.983  10.712 -0.2332 -0.1374  0.3055
  413MOL0     C55638  12.208  11.099  10.699  0.6076  0.7768 -0.3264
  413MOL0     C55639  12.335  11.056  10.682 -0.0472 -1.0792 -0.8316
  413MOL0     C55640  12.447  11.158  10.695 -0.9573 -0.0175  0.8244
  413MOL0     C55641  12.519  11.137  10.828 -0.5264 -0.8352  0.5510
  413MOL0     C55642  12.622  11.245  10.856 -0.6711 -0.5902 -0.2804
  413MOL0     C55643  12.747  11.228  10.768 -0.9340  0.6605  1.0667
  413MOL0     O55644  12.826  11.343  10.785  0.0956 -0.7527 -0.0239
  413MOL0     C55645  12.948  11.355  10.724 -0.0038 -1.5108  0.0555
  413MOL0     C55646  13.000  11.267  10.632 -0.0395 -0.5841  0.3981
  413MOL0     C55647  13.129  11.286  10.581 -0.3265  0.3845 -0.6098
  413MOL0     C55648  13.207  11.389  10.630 -0.9400  0.4459  0.0525
  413MOL0     C55649  13.344  11.422  10.594 -0.2471  1.1118  0.6531
  413MOL0     O55650  13.395  11.336  10.499  0.3317  0.0481  0.2910
  413MOL0     C55651  13.511  11.358  10.427 -0.2926 -0.6223 -0.2674
  413MOL0     C55652  13.572  11.487  10.410  1.0410 -0.1188 -0.0367
  413MOL0     C55653  13.700  11.492  10.353 -1.2358  0.1303 -0.3782
  413MOL0     C55654  13.762  11.374  10.300  0.0928  0.5628  0.1568
  413MOL0     O55655  13.881  11.386  10.243 -0.2206  0.0129 -0.4517
  413MOL0     C55656  13.978  11.279  10.283  0.1349  0.1780 -0.1196
  413MOL0     C55657  14.119  11.336  10.262 -0.2706 -0.7049 -0.0965
  413MOL0     C55658  14.213  11.218  10.212 -0.8412 -0.2428 -0.7719
  413MOL0     C55659  14.356  11.257  10.212 -0.3095  0.1980 -0.3675
  413MOL0     C55660  14.410  11.346  10.103  0.9352 -0.2547 -0.7248
  413MOL0     C55661  14.558  11.359  10.101 -0.1839  0.1901  0.2130
  413MOL0     C55662  14.634  11.260  10.008 -0.1915 -0.9804 -0.2782
  413MOL0     C55663  14.786  11.292   9.981 -0.0317 -0.7755  0.3328
  413MOL0    Cl55664  14.882  11.250  10.132 -0.4001 -0.0086 -0.7658
  413MOL0     C55665  13.697  11.254  10.300  0.9273 -0.1382  0.5541
  413MOL0     C55666  13.570  11.249  10.360  0.1090 -0.2126 -0.2791
  413MOL0     O55667  13.407  11.516  10.642  0.3231  0.1389  0.3168
  413MOL0     C55668  13.150  11.475  10.722 -1.0705  0.0995 -0.2234
  413MOL0     C55669  13.027  11.459  10.774 -0.4819  0.6235 -0.4474
  413MOL0     N55670  12.339  10.925  10.694  0.2506 -0.3449 -0.5514
  413MOL0     N55671  12.216  10.880  10.708 -0.5549  0.6739 -0.4333
  413MOL0     C55672  11.194  11.218  10.276 -0.1671 -0.0030  0.4908
  413MOL0     C55673  11.073  11.223  10.358 -0.6973  0.3684 -0.0359
  413MOL0     C55674  10.640  11.074  10.448  0.2450 -0.2536  0.7448
  413MOL0     C55675  10.642  10.971  10.540 -0.2113 -0.3928 -1.0781
  413MOL0     C55676  10.533  10.951  10.633  0.1658 -0.2864 -0.5553
  413MOL0     C55677  10.426  11.049  10.633 -0.0500  0.4172 -0.1586
  413MOL0     O55678  10.319  11.028  10.716 -0.5553  0.1516 -0.5846
  413MOL0     C55679  10.224  11.132  10.733  0.2303  0.4990  0.3942
  413MOL0     C55680  10.103  11.088  10.651 -0.5838 -0.2120 -0.1955
  413MOL0     C55681   9.994  11.201  10.670 -0.2596 -0.9884  0.1566
  413MOL0     C55682   9.859  11.178  10.602  0.1224  0.0154  0.4091
  413MOL0     C55683   9.873  11.182  10.456 -0.1044  1.2178  0.2808
  413MOL0     C55684   9.879  11.179  10.335 -0.3047 -0.1718 -0.6537
  413MOL0     C55685  10.436  11.154  10.539  0.3477  0.7600 -0.1993
  413MOL0     C55686  10.538  11.164  10.442  0.1003  0.6364 -0.3855
  413MOL0     C55687  10.532  11.276  10.351  0.1654 -0.3462  1.0430
  413MOL0     H55688  10.960  10.922  10.253 -2.7090  1.9645 -0.9862
  413MOL0     H55689  11.146  10.916  10.126 -2.3648  2.0636 -1.2136
  413MOL0     H55690  11.465  11.264  10.165 -0.1117 -0.4861 -0.5923
  413MOL0     H55691  11.463  11.147  10.295  1.1734  1.4190  0.2920
  413MOL0     H55692  11.582  11.111  10.019 -3.3475  0.3719 -0.4567
  413MOL0     H55693  11.586  10.983  10.142 -0.3978  0.2761  1.2149
  413MOL0     H55694  11.691  11.265  10.192 -0.2218  0.5030 -0.9493
  413MOL0     H55695  11.783  11.138  10.105 -2.3872  1.5542 -1.4862
  413MOL0     H55696  11.687  11.148  10.390  0.1666  1.9147 -0.9365
  413MOL0     H55697  11.717  10.989  10.311  1.9478 -0.6610  1.2269
  413MOL0     H55698  11.962  11.092  10.276  0.0068  2.1040 -0.6921
  413MOL0     H55699  11.907  11.207  10.405 -0.4655 -0.3436  1.5340
  413MOL0     H55700  11.893  10.913  10.468 -0.6098  1.0340 -2.6887
  413MOL0     H55701  12.047  10.988  10.448 -0.3018  1.0007 -2.1728
  413MOL0     H55702  11.827  11.095  10.633  0.5436 -1.5319 -0.6656
  413MOL0     H55703  11.971  11.181  10.602 -1.8736  0.5368 -1.1017
  413MOL0     H55704  11.971  11.046  10.825 -1.6532  0.1486 -0.3916
  413MOL0     H55705  11.943  10.897  10.743 -0.2431  0.8691  0.2187
  413MOL0     H55706  12.171  11.201  10.703 -0.6161  0.4354 -1.9100
  413MOL0     H55707  12.513  11.143  10.608 -3.2490  0.1170 -1.0251
  413MOL0     H55708  12.416  11.262  10.680  0.9415  0.3379 -1.2786
  413MOL0     H55709  12.446  11.110  10.905 -2.6978 -1.3506 -1.5837
  413MOL0     H55710  12.581  11.048  10.813  1.8505  0.5124  1.7756
  413MOL0     H55711  12.658  11.258  10.958  2.7606 -0.2418 -1.4272
  413MOL0     H55712  12.569  11.338  10.829  1.2288  0.5512 -0.2451
  413MOL0     H55713  12.715  11.216  10.664 -0.2696  2.7277  0.5797
  413MOL0     H55714  12.797  11.136  10.801 -0.0162  1.2494  1.3574
  413MOL0     H55715  12.939  11.184  10.596  1.4921 -2.9626  2.8940
  413MOL0     H55716  13.168  11.218  10.506  1.9703 -1.0097  1.6888
  413MOL0     H55717  13.540  11.578  10.460  2.4159  0.8597 -0.8743
  413MOL0     H55718  13.760  11.582  10.342  0.2196 -0.9935 -2.5508
  413MOL0     H55719  13.970  11.256  10.389 -2.4945  1.9361  0.1433
  413MOL0     H55720  13.968  11.191  10.218 -0.5746 -1.1870  1.7657
  413MOL0     H55721  14.099  11.401  10.176 -1.2998  1.9790  2.0306
  413MOL0     H55722  14.141  11.393  10.353 -1.4320 -1.8506  0.9518
  413MOL0     H55723  14.198  11.134  10.281 -1.7942  1.0856  0.6954
  413MOL0     H55724  14.172  11.178  10.119 -1.5113  1.5175 -1.2604
  413MOL0     H55725  14.410  11.162  10.199 -0.5211  0.1658 -1.0137
  413MOL0     H55726  14.389  11.294  10.310 -1.2915 -0.5432  0.2680
  413MOL0     H55727  14.356  11.441  10.098 -0.5866 -0.8596  2.1378
  413MOL0     H55728  14.366  11.291  10.019 -2.2617  1.5259 -0.3822
  413MOL0     H55729  14.581  11.458  10.061 -2.1513  0.1425 -1.1588
  413MOL0     H55730  14.595  11.362  10.204 -1.9179 -3.1688  1.0665
  413MOL0     H55731  14.584  11.239   9.913 -0.3433 -0.7510 -0.2531
  413MOL0     H55732  14.637  11.163  10.058  2.0290  0.5033  2.8022
  413MOL0     H55733  14.820  11.230   9.898  1.8126  0.3816  0.1702
  413MOL0     H55734  14.802  11.397   9.955 -0.1192 -1.2842 -2.0674
  413MOL0     H55735  13.738  11.164  10.255  1.3101 -0.6713  1.9300
  413MOL0     H55736  13.520  11.153  10.363  1.0219 -0.6709  1.5481
  413MOL0     H55737  13.196  11.568  10.752  0.4714 -0.4243 -0.8739
  413MOL0     H55738  13.002  11.525  10.856 -1.7190 -0.1479 -0.1893
  413MOL0     H55739  11.264  11.300  10.268  0.2910 -0.1755  2.2653
  413MOL0     H55740  11.047  11.298  10.432 -0.5401 -0.4124  0.8372
  413MOL0     H55741  10.728  10.906  10.552 -0.7319 -0.6635  1.6497
  413MOL0     H55742  10.536  10.874  10.709 -0.3224  0.1262 -0.1138
  413MOL0     H55743  10.255  11.232  10.704  0.7747  0.2739  0.1922
  413MOL0     H55744  10.195  11.132  10.838 -0.0062  3.6534  0.4212
  413MOL0     H55745  10.056  10.996  10.687  1.0878 -1.2664 -0.5793
  413MOL0     H55746  10.141  11.068  10.550 -0.7568 -1.8663  0.0399
  413MOL0     H55747  10.036  11.297  10.638  1.8760 -2.1180 -0.6176
  413MOL0     H55748   9.975  11.208  10.777 -2.4308  0.0939 -0.2305
  413MOL0     H55749   9.829  11.081  10.642  0.0253 -1.2590 -2.5402
  413MOL0     H55750   9.781  11.248  10.632 -0.0066  0.0794 -0.0648
  413MOL0     H55751   9.874  11.178  10.228  3.4214 -0.3235 -0.9401
  413MOL0     H55752  10.367  11.236  10.525 -0.3361 -0.1081 -2.2375
  413MOL0     H55753  10.450  11.261  10.280  1.3627 -1.8400 -0.0822
  413MOL0     H55754  10.506  11.374  10.392 -3.1922 -1.0466  0.8326
  413MOL0     H55755  10.619  11.285  10.285 -0.3646 -0.9171  0.2610
  414MOL0     O55756   1.759  10.388   4.265 -0.5621 -0.2839 -0.3432
  414MOL0     C55757   1.837  10.294   4.265 -0.5679  1.2399  0.0773
  414MOL0     O55758   1.965  10.301   4.300 -0.2430  0.3212 -0.5414
  414MOL0     C55759   2.018  10.419   4.338 -0.8370  0.4088  0.5188
  414MOL0     C55760   1.962  10.499   4.443  0.6369 -0.0111 -0.3202
  414MOL0     C55761   2.026  10.620   4.488  0.7143  0.4064 -0.4872
  414MOL0     C55762   2.155  10.646   4.451 -0.5744  0.3588  0.1239
  414MOL0     O55763   2.212  10.776   4.465 -0.4571  0.8134  0.0819
  414MOL0     C55764   2.340  10.776   4.527 -0.5191  0.7379  0.4420
  414MOL0     C55765   2.393  10.914   4.547  0.1072  0.8180  0.4910
  414MOL0     C55766   2.540  10.903   4.580  0.4117 -0.2780  0.3318
  414MOL0     C55767   2.583  11.056   4.597 -0.0485  1.1249  0.4247
  414MOL0     C55768   2.731  11.051   4.649 -0.7753 -0.6995  0.1745
  414MOL0     C55769   2.799  11.173   4.584  0.2579 -0.3079 -0.1319
  414MOL0     C55770   2.943  11.196   4.633 -0.8199 -0.0296 -0.1913
  414MOL0     C55771   3.028  11.082   4.570  0.2720 -0.1334  0.0945
  414MOL0     N55772   3.172  11.114   4.576 -0.4639 -0.9702  0.5269
  414MOL0     C55773   3.255  11.086   4.681  0.1262  0.3288  1.1089
  414MOL0     C55774   3.388  11.100   4.631  0.1957 -0.5628 -1.0560
  414MOL0     C55775   3.495  11.041   4.723  0.6907 -0.2489  0.4395
  414MOL0     C55776   3.630  11.111   4.741  0.6375  0.4610  0.0891
  414MOL0     C55777   3.715  11.114   4.617 -0.7467  0.7486  0.2144
  414MOL0     C55778   3.868  11.113   4.638  0.5316  0.8133  0.0785
  414MOL0     O55779   3.895  11.204   4.746  0.1486  0.1115 -0.7431
  414MOL0     C55780   4.026  11.205   4.802 -0.1634 -0.6874  0.6278
  414MOL0     C55781   4.046  11.280   4.918  0.6958  0.3825 -0.1536
  414MOL0     C55782   4.166  11.286   4.981  0.3403 -0.2048 -0.4921
  414MOL0     C55783   4.273  11.218   4.935 -0.2059  0.5241  0.7272
  414MOL0     C55784   4.393  11.235   5.005 -0.3274 -0.4761 -1.0234
  414MOL0     O55785   4.501  11.188   4.958  0.0029  0.1860  0.2716
  414MOL0     C55786   4.612  11.229   5.027  0.1413 -0.9223 -0.7541
  414MOL0     C55787   4.662  11.154   5.132 -0.1823  0.5266  0.9993
  414MOL0     C55788   4.784  11.187   5.188  0.1258  0.2012 -0.7735
  414MOL0     C55789   4.855  11.299   5.141  0.1038  0.3766  1.3878
  414MOL0     O55790   4.977  11.330   5.188  0.6000 -0.8743 -0.2459
  414MOL0     C55791   4.982  11.401   5.315 -0.2032  0.2441 -0.5185
  414MOL0     C55792   5.124  11.407   5.374 -0.4970  0.0656  0.6139
  414MOL0     C55793   5.220  11.515   5.311  0.5522 -0.5580  0.0558
  414MOL0     C55794   5.359  11.527   5.367 -0.3023 -0.0728 -0.1146
  414MOL0     C55795   5.439  11.389   5.356 -0.3340  0.2450 -0.1873
  414MOL0     C55796   5.574  11.398   5.412  0.5556  0.4648  0.2645
  414MOL0     C55797   5.643  11.267   5.382 -0.2406 -0.0344 -0.8232
  414MOL0     C55798   5.777  11.243   5.463 -0.2554 -0.0960 -0.0144
  414MOL0    Cl55799   5.893  11.374   5.429 -0.4967 -0.0297 -0.0026
  414MOL0     C55800   4.810  11.365   5.026  1.2051 -0.4050 -0.0721
  414MOL0     C55801   4.686  11.336   4.969 -0.2595  0.6675 -0.4132
  414MOL0     O55802   4.390  11.313   5.103 -0.3679 -0.0787 -0.0800
  414MOL0     C55803   4.257  11.149   4.816  0.0203 -0.2607  0.4084
  414MOL0     C55804   4.137  11.145   4.743 -0.8667  0.6164  0.3236
  414MOL0     N55805   3.383  11.165   4.513  0.0827  0.1220 -0.2921
  414MOL0     N55806   3.255  11.164   4.481  0.4241 -0.4773  0.0988
  414MOL0     C55807   2.210  10.570   4.348  0.3080  0.3459  0.4158
  414MOL0     C55808   2.147  10.454   4.299 -0.1326  0.4256  0.0971
  414MOL0     C55809   1.788  10.167   4.200  0.2767 -0.5058  0.2851
  414MOL0     C55810   1.882  10.059   4.198 -0.1904 -0.5650 -0.6842
  414MOL0     C55811   1.852   9.937   4.149 -0.7866  0.4381  0.2190
  414MOL0     C55812   1.726   9.915   4.091  0.8605 -0.7403 -0.0868
  414MOL0     O55813   1.695   9.792   4.035  0.0595 -0.2297 -0.5844
  414MOL0     C55814   1.629   9.785   3.901  0.4014 -0.1992 -0.5780
  414MOL0     C55815   1.711   9.858   3.800 -0.1427  0.0491 -0.0301
  414MOL0     C55816   1.838   9.773   3.769  0.2997 -0.5391  0.1102
  414MOL0     C55817   1.911   9.852   3.657 -0.9745  1.1635  0.2847
  414MOL0     C55818   2.030   9.775   3.617  0.0304 -0.5823  0.1969
  414MOL0     C55819   2.136   9.728   3.583  0.0259 -0.7138 -0.3146
  414MOL0     C55820   1.632  10.019   4.088  0.1267  0.5264 -0.0336
  414MOL0     C55821   1.659  10.149   4.136 -0.1312 -0.1032 -0.6653
  414MOL0     C55822   1.557  10.248   4.127  0.2115 -0.0841 -0.6913
  414MOL0     H55823   1.869  10.475   4.494  0.7943 -0.6675 -0.3375
  414MOL0     H55824   1.984  10.682   4.567 -0.6311 -2.3025  1.0373
  414MOL0     H55825   2.338  10.724   4.623  1.1954 -0.7974 -0.2937
  414MOL0     H55826   2.417  10.725   4.468  0.0383 -1.1418  2.6474
  414MOL0     H55827   2.343  10.956   4.634  0.2195 -0.5663  1.2419
  414MOL0     H55828   2.382  10.977   4.458 -0.5326  1.0681  0.7449
  414MOL0     H55829   2.583  10.857   4.490  0.3097 -0.2797  0.2832
  414MOL0     H55830   2.566  10.840   4.665 -0.8926 -1.0147  0.2044
  414MOL0     H55831   2.589  11.089   4.493  0.5026 -0.9498 -0.2602
  414MOL0     H55832   2.522  11.119   4.663  0.0871  2.6251 -0.8237
  414MOL0     H55833   2.737  11.070   4.756  0.9498  0.4285 -0.0823
  414MOL0     H55834   2.779  10.958   4.618 -0.6443  0.4063 -3.4468
  414MOL0     H55835   2.794  11.162   4.475  0.7347  0.5660 -0.2485
  414MOL0     H55836   2.737  11.260   4.610  1.3941  0.2446  0.7801
  414MOL0     H55837   2.952  11.208   4.741 -2.4349  0.7356 -0.1126
  414MOL0     H55838   2.982  11.288   4.588  0.0582 -1.5954 -2.9071
  414MOL0     H55839   3.010  10.991   4.629  2.0315 -1.0935 -0.7908
  414MOL0     H55840   3.008  11.067   4.464 -0.0650  0.1057  0.1201
  414MOL0     H55841   3.228  11.039   4.775  1.4634  0.9891  1.8551
  414MOL0     H55842   3.444  11.009   4.814  0.9553 -2.6988 -0.1888
  414MOL0     H55843   3.519  10.942   4.683 -0.2194 -0.9996  1.6874
  414MOL0     H55844   3.619  11.213   4.779 -1.5122 -0.2946  1.6407
  414MOL0     H55845   3.674  11.050   4.820 -2.1225 -1.7481  0.0470
  414MOL0     H55846   3.693  11.206   4.563  2.3665  0.8620 -1.0734
  414MOL0     H55847   3.688  11.024   4.561 -0.5943  1.3508 -0.8547
  414MOL0     H55848   3.923  11.130   4.544  2.2237  0.1124  0.8935
  414MOL0     H55849   3.899  11.010   4.662 -2.2687 -0.3141 -0.6915
  414MOL0     H55850   3.955  11.324   4.956 -0.5266 -2.4128  0.4622
  414MOL0     H55851   4.169  11.331   5.079  2.9735 -2.5203  0.6195
  414MOL0     H55852   4.594  11.076   5.163  1.8070 -1.3014  1.0123
  414MOL0     H55853   4.834  11.134   5.268 -2.4514 -0.1084  0.7596
  414MOL0     H55854   4.937  11.499   5.295 -0.5901  0.0408 -0.6452
  414MOL0     H55855   4.917  11.344   5.382 -1.3719 -0.1487 -1.9461
  414MOL0     H55856   5.108  11.418   5.482 -2.3513 -1.7601  0.5752
  414MOL0     H55857   5.177  11.312   5.369 -1.2502 -0.4260  1.5682
  414MOL0     H55858   5.227  11.476   5.209 -1.6886 -0.5924 -0.1478
  414MOL0     H55859   5.180  11.617   5.319 -2.8973 -1.9283  3.6442
  414MOL0     H55860   5.341  11.547   5.473  1.2347  1.5298 -0.1058
  414MOL0     H55861   5.407  11.614   5.321 -0.9937 -0.0940 -0.8959
  414MOL0     H55862   5.442  11.344   5.256 -0.1878 -0.8055  0.2801
  414MOL0     H55863   5.395  11.321   5.429  1.3504 -0.6577  0.0428
  414MOL0     H55864   5.626  11.488   5.378 -3.1856  2.7063 -0.0028
  414MOL0     H55865   5.565  11.407   5.521  3.6659  2.3365  0.4843
  414MOL0     H55866   5.657  11.258   5.274  0.3260 -0.6017 -0.7054
  414MOL0     H55867   5.588  11.179   5.419  3.0568 -2.8077 -1.9747
  414MOL0     H55868   5.756  11.239   5.570 -1.4725 -0.5798 -0.2541
  414MOL0     H55869   5.823  11.150   5.429 -1.7448  0.5152 -4.3843
  414MOL0     H55870   4.867  11.445   4.981 -1.5408  0.5881 -2.0742
  414MOL0     H55871   4.647  11.392   4.884 -0.3560  1.7936  0.3585
  414MOL0     H55872   4.348  11.095   4.793  0.2980 -0.9224  2.7607
  414MOL0     H55873   4.136  11.082   4.655  2.2937  0.2215  0.4573
  414MOL0     H55874   2.297  10.606   4.294 -1.0941  0.6518 -1.7616
  414MOL0     H55875   2.199  10.399   4.222 -1.8603  0.7088 -1.3374
  414MOL0     H55876   1.987  10.053   4.224 -0.0140 -0.1406 -1.2702
  414MOL0     H55877   1.919   9.852   4.151  1.9932  2.5040  1.3152
  414MOL0     H55878   1.522   9.806   3.906  0.4756 -0.1448  1.6127
  414MOL0     H55879   1.625   9.682   3.863 -0.7603 -0.5697  0.4738
  414MOL0     H55880   1.741   9.961   3.822  0.8389  0.0312 -1.1887
  414MOL0     H55881   1.650   9.865   3.710  1.5100 -0.3768 -1.2256
  414MOL0     H55882   1.816   9.678   3.719  2.9649 -2.0669  1.5872
  414MOL0     H55883   1.897   9.747   3.857 -1.4177 -2.6819  0.7418
  414MOL0     H55884   1.851   9.867   3.567  1.2716 -1.4566 -1.8342
  414MOL0     H55885   1.948   9.948   3.694  0.1955 -0.2106  2.9817
  414MOL0     H55886   2.221   9.672   3.550 -0.7183 -1.3676 -1.1485
  414MOL0     H55887   1.532   9.993   4.055  0.4029 -0.4078 -0.1594
  414MOL0     H55888   1.473  10.204   4.073 -0.4990 -0.5125  0.7261
  414MOL0     H55889   1.507  10.277   4.220 -3.2706 -1.3609 -2.0337
  414MOL0     H55890   1.596  10.343   4.090 -0.5806  0.6142  0.2216
  415MOL0     O55891   3.954   5.494   0.938  0.3823 -0.1300  0.3763
  415MOL0     C55892   4.031   5.594   0.968  0.4705  0.6993 -0.6549
  415MOL0     O55893   3.991   5.722   0.968 -0.8561  0.0138  0.6510
  415MOL0     C55894   3.859   5.755   0.939  0.3333 -0.6816  0.6115
  415MOL0     C55895   3.764   5.740   1.041 -0.1610 -0.2420 -0.0833
  415MOL0     C55896   3.626   5.781   1.023 -0.1454  0.3405 -0.6981
  415MOL0     C55897   3.575   5.825   0.898 -0.4188  0.2891 -0.4739
  415MOL0     O55898   3.437   5.853   0.888  0.2886  0.3991  0.2494
  415MOL0     C55899   3.383   5.882   0.766 -0.3219  0.1581  0.4554
  415MOL0     C55900   3.236   5.924   0.776 -0.5231  0.8792  0.2143
  415MOL0     C55901   3.182   5.923   0.633 -0.1491  0.1539  0.9655
  415MOL0     C55902   3.041   5.990   0.606 -0.9466 -0.2114  0.8906
  415MOL0     C55903   3.000   5.976   0.454 -0.5311  0.0667 -0.9448
  415MOL0     C55904   2.848   5.975   0.431 -0.4680  0.2682 -0.1076
  415MOL0     C55905   2.782   6.112   0.431 -0.5079 -0.0238 -0.2456
  415MOL0     C55906   2.635   6.092   0.405 -0.3148  0.3464 -0.6225
  415MOL0     N55907   2.598   6.048   0.272 -0.5107  0.5572  0.6293
  415MOL0     C55908   2.496   5.966   0.246  0.2163  0.0861 -0.2574
  415MOL0     C55909   2.484   5.966   0.107 -0.1249 -0.2540 -0.0530
  415MOL0     C55910   2.398   5.888   0.020  0.2865 -0.5620  0.0325
  415MOL0     C55911   2.274   5.970  -0.024 -1.2678 -0.3580 -0.2400
  415MOL0     C55912   2.301   6.059  -0.143 -0.7860  0.5425  1.6248
  415MOL0     C55913   2.173   6.143  -0.168 -0.3348  0.4020 -0.0443
  415MOL0     O55914   2.076   6.059  -0.212  0.0064 -0.0708  0.0275
  415MOL0     C55915   1.943   6.094  -0.220 -0.2922 -0.1745  0.4510
  415MOL0     C55916   1.851   5.987  -0.217 -0.3941  0.8118  0.4943
  415MOL0     C55917   1.715   6.015  -0.249  0.5271  0.1432  0.3120
  415MOL0     C55918   1.674   6.152  -0.260  0.6973 -0.3199 -0.0781
  415MOL0     C55919   1.531   6.183  -0.299  0.2605  0.7278 -0.5072
  415MOL0     O55920   1.440   6.083  -0.313 -0.9993 -0.1939 -0.1468
  415MOL0     C55921   1.323   6.110  -0.369 -0.1483 -0.3288  0.0427
  415MOL0     C55922   1.210   6.120  -0.282 -0.7257  0.0094 -0.0409
  415MOL0     C55923   1.085   6.146  -0.339 -0.0017  0.3910  0.1722
  415MOL0     C55924   1.061   6.140  -0.476  0.2382 -0.1964  1.1466
  415MOL0     O55925   0.934   6.152  -0.532  0.4306  0.1995 -0.2883
  415MOL0     C55926   0.889   6.288  -0.563 -0.0166  0.9368 -0.0921
  415MOL0     C55927   0.757   6.276  -0.644 -0.4802 -0.5947  0.0206
  415MOL0     C55928   0.692   6.404  -0.687  0.1193  0.3317 -0.0233
  415MOL0     C55929   0.645   6.477  -0.559  0.5004 -0.1075  0.4203
  415MOL0     C55930   0.569   6.600  -0.603  0.1039  0.1057  0.2220
  415MOL0     C55931   0.503   6.664  -0.477 -1.1322 -0.0127  0.5470
  415MOL0     C55932   0.423   6.796  -0.506  0.1356 -0.5660 -0.0710
  415MOL0     C55933   0.517   6.918  -0.553 -0.2531  1.0237 -0.0215
  415MOL0    Cl55934   0.417   7.068  -0.583  0.4603  0.3043 -0.0262
  415MOL0     C55935   1.173   6.116  -0.561 -0.2747  0.4857  0.5557
  415MOL0     C55936   1.309   6.112  -0.513  0.8279  0.5030 -0.4162
  415MOL0     O55937   1.506   6.305  -0.317 -0.2366 -0.2669 -0.7465
  415MOL0     C55938   1.766   6.255  -0.249 -0.4634 -0.4041 -0.1292
  415MOL0     C55939   1.899   6.221  -0.227 -0.6907 -0.4415  0.4034
  415MOL0     N55940   2.579   6.046   0.058  0.2310  0.1315  0.1969
  415MOL0     N55941   2.650   6.091   0.157  0.3886 -0.0756  0.3833
  415MOL0     C55942   3.673   5.831   0.793  0.5682  0.4179 -0.0905
  415MOL0     C55943   3.813   5.807   0.816  0.2311 -0.2390  0.1650
  415MOL0     C55944   4.170   5.568   1.011 -1.0350 -0.2673 -0.8874
  415MOL0     C55945   4.263   5.674   1.037  0.1686  0.3597 -0.4168
  415MOL0     C55946   4.401   5.651   1.074  0.3439 -0.2149  0.4593
  415MOL0     C55947   4.448   5.519   1.082  0.6808  0.3127 -0.3559
  415MOL0     O55948   4.577   5.476   1.097  0.6262  0.3666 -0.2198
  415MOL0     C55949   4.677   5.522   1.000 -0.9981  0.4323  0.6202
  415MOL0     C55950   4.791   5.431   0.953 -0.7766 -0.1381  0.3843
  415MOL0     C55951   4.855   5.360   1.071 -0.1921 -0.4790  0.1092
  415MOL0     C55952   4.983   5.278   1.027 -0.0131 -0.1073  0.2227
  415MOL0     C55953   5.112   5.320   1.077  0.0296  0.0417 -0.2046
  415MOL0     C55954   5.211   5.372   1.126  0.1859 -0.8544  0.0210
  415MOL0     C55955   4.358   5.420   1.067  0.4854  0.6183  0.4501
  415MOL0     C55956   4.223   5.436   1.037  0.7877  0.2817 -0.2155
  415MOL0     C55957   4.127   5.312   1.033 -1.4905 -0.4845 -0.0347
  415MOL0     H55958   3.795   5.701   1.138 -1.7918  0.8913  0.9327
  415MOL0     H55959   3.552   5.777   1.102  0.4061  1.9264 -0.0630
  415MOL0     H55960   3.437   5.967   0.723  0.2238  1.0466  2.7632
  415MOL0     H55961   3.386   5.792   0.704  1.2044 -1.1676  2.3412
  415MOL0     H55962   3.240   6.027   0.814 -1.1932  0.1513  2.4064
  415MOL0     H55963   3.184   5.868   0.854 -2.2070  1.2966 -0.5834
  415MOL0     H55964   3.172   5.819   0.600  1.4980 -0.3968  2.0711
  415MOL0     H55965   3.248   5.970   0.560 -1.4292 -0.1806 -0.4672
  415MOL0     H55966   2.957   5.948   0.661 -3.0545  1.6205 -0.7805
  415MOL0     H55967   3.051   6.099   0.606  3.5350 -0.2742 -2.9957
  415MOL0     H55968   3.055   6.059   0.407  1.3716 -0.7100 -0.1749
  415MOL0     H55969   3.043   5.885   0.412  2.5629  1.0413 -0.1621
  415MOL0     H55970   2.831   5.929   0.333 -2.0950  0.2330  0.1769
  415MOL0     H55971   2.797   5.919   0.509 -0.8165 -0.0991 -0.5947
  415MOL0     H55972   2.832   6.183   0.365  1.4701  0.8772  2.1042
  415MOL0     H55973   2.785   6.147   0.535  0.5787  0.6396 -0.4906
  415MOL0     H55974   2.591   6.018   0.472  0.6250 -0.9318 -1.3942
  415MOL0     H55975   2.585   6.189   0.410 -0.8504  0.0311  0.5077
  415MOL0     H55976   2.439   5.904   0.315 -0.8594 -0.0175 -1.2114
  415MOL0     H55977   2.460   5.854  -0.063  2.2425 -0.6962  1.4832
  415MOL0     H55978   2.383   5.793   0.074  2.4013  0.6016  2.9029
  415MOL0     H55979   2.187   5.911  -0.052 -1.5365 -0.5797  1.0089
  415MOL0     H55980   2.248   6.029   0.065  2.8138 -0.5759  1.3235
  415MOL0     H55981   2.330   5.989  -0.221 -0.1147  0.9146  1.5216
  415MOL0     H55982   2.388   6.123  -0.124 -2.0372  2.3358  1.5753
  415MOL0     H55983   2.175   6.220  -0.247 -1.8767 -1.2283 -1.7853
  415MOL0     H55984   2.152   6.198  -0.076  0.5132  0.3898  0.1610
  415MOL0     H55985   1.893   5.887  -0.211 -1.2401  0.2833 -1.4975
  415MOL0     H55986   1.646   5.936  -0.275  0.6686  0.4919 -1.2744
  415MOL0     H55987   1.224   6.100  -0.176 -0.5712  1.7056  0.2781
  415MOL0     H55988   0.998   6.168  -0.278  1.1076  4.5176  0.5313
  415MOL0     H55989   0.891   6.355  -0.477  0.7774  0.3845  0.3315
  415MOL0     H55990   0.960   6.340  -0.629 -0.8532  1.7982 -0.3321
  415MOL0     H55991   0.778   6.219  -0.735  0.4572 -2.4182  1.3087
  415MOL0     H55992   0.688   6.220  -0.582 -0.6731  0.3214  0.6583
  415MOL0     H55993   0.762   6.470  -0.739  0.7570 -0.9041 -0.7757
  415MOL0     H55994   0.617   6.377  -0.762  2.5529 -2.7530 -1.5584
  415MOL0     H55995   0.728   6.525  -0.508  0.7851  2.5870 -2.2898
  415MOL0     H55996   0.578   6.416  -0.498 -0.1492 -1.7035 -1.7456
  415MOL0     H55997   0.487   6.571  -0.669 -0.9422 -1.0158  1.9560
  415MOL0     H55998   0.640   6.673  -0.645  3.2055 -0.6153  3.7112
  415MOL0     H55999   0.437   6.588  -0.431  0.5122 -0.0548  3.0414
  415MOL0     H56000   0.579   6.688  -0.402 -1.5639 -1.5461  1.5394
  415MOL0     H56001   0.370   6.826  -0.416  1.6648  2.3939 -0.0164
  415MOL0     H56002   0.346   6.781  -0.582 -0.0760 -0.0766  0.0405
  415MOL0     H56003   0.597   6.929  -0.480 -0.6715  1.3919  0.3855
  415MOL0     H56004   0.567   6.895  -0.648  1.4724  2.0677  0.5799
  415MOL0     H56005   1.159   6.129  -0.668  0.8394  1.5189  0.5119
  415MOL0     H56006   1.396   6.109  -0.578 -0.0802  2.9071 -1.8811
  415MOL0     H56007   1.736   6.359  -0.248 -0.2207 -0.3231  2.0644
  415MOL0     H56008   1.972   6.301  -0.232 -0.9782 -0.1971 -0.0135
  415MOL0     H56009   3.643   5.863   0.694 -0.6299 -0.6300 -0.0966
  415MOL0     H56010   3.885   5.823   0.737 -1.1679 -0.4703 -1.1926
  415MOL0     H56011   4.229   5.776   1.024 -0.3634 -0.0404 -2.5192
  415MOL0     H56012   4.468   5.736   1.089 -1.4080  1.2137  0.6111
  415MOL0     H56013   4.721   5.617   1.032 -0.1926 -0.1274  1.2166
  415MOL0     H56014   4.625   5.547   0.907 -1.1349  1.1389  0.8790
  415MOL0     H56015   4.875   5.489   0.914 -0.0676 -0.7524  0.9621
  415MOL0     H56016   4.755   5.361   0.878 -1.5069  0.3829  0.2439
  415MOL0     H56017   4.780   5.286   1.102 -0.8875 -0.0307 -0.4717
  415MOL0     H56018   4.886   5.436   1.143 -2.1420  0.2636  0.2200
  415MOL0     H56019   4.983   5.173   1.059 -1.3808  0.0213  0.6700
  415MOL0     H56020   5.000   5.276   0.919  1.9674 -0.2084  0.4917
  415MOL0     H56021   5.296   5.403   1.182 -1.8563  3.6397  1.0622
  415MOL0     H56022   4.409   5.327   1.044  2.0633  1.4229  0.4919
  415MOL0     H56023   4.091   5.286   0.933  0.8018  2.4473 -1.8041
  415MOL0     H56024   4.174   5.219   1.067 -3.5856 -1.9096 -0.8227
  415MOL0     H56025   4.038   5.318   1.095 -2.4633  2.2386 -1.5367
  416MOL0     O56026   2.480  10.590  10.842  0.7319 -0.3612 -0.0191
  416MOL0     C56027   2.360  10.629  10.817 -1.7980  0.0301 -0.6137
  416MOL0     O56028   2.334  10.756  10.764  0.3958  0.3310  0.4691
  416MOL0     C56029   2.425  10.854  10.741  1.0660  0.0642  2.7056
  416MOL0     C56030   2.516  10.902  10.832 -0.9246 -0.0096 -0.5345
  416MOL0     C56031   2.605  11.009  10.800  0.3712 -0.0214  0.0512
  416MOL0     C56032   2.594  11.070  10.668 -0.9250 -0.5069  0.2093
  416MOL0     O56033   2.681  11.169  10.621  0.2434  0.0752 -0.0072
  416MOL0     C56034   2.746  11.256  10.711 -0.6666  1.0065 -0.8090
  416MOL0     C56035   2.892  11.219  10.746  0.2750  0.1683 -0.4769
  416MOL0     C56036   2.983  11.200  10.621 -1.1295 -0.3881 -0.2830
  416MOL0     C56037   3.126  11.141  10.639  0.4963 -0.5556  0.3072
  416MOL0     C56038   3.223  11.139  10.521  0.4327 -0.1163 -0.0067
  416MOL0     C56039   3.361  11.095  10.569  0.0630 -0.1506  0.6912
  416MOL0     C56040   3.467  11.122  10.451 -0.3980 -0.2910 -0.2506
  416MOL0     C56041   3.477  11.006  10.353 -0.6154 -0.8654 -0.4479
  416MOL0     N56042   3.564  10.903  10.405  0.2649 -0.0649  0.4078
  416MOL0     C56043   3.691  10.876  10.363 -0.1356  0.4962  0.2297
  416MOL0     C56044   3.721  10.758  10.405 -0.1900  0.5223  0.7808
  416MOL0     C56045   3.852  10.686  10.385 -1.0487  0.3636 -0.3837
  416MOL0     C56046   3.942  10.706  10.508  0.0566  0.5421  0.4192
  416MOL0     C56047   4.074  10.649  10.487  0.4017 -0.4407 -0.1055
  416MOL0     C56048   4.169  10.649  10.611  0.3889  0.0536  0.3635
  416MOL0     O56049   4.284  10.562  10.585 -0.7162 -0.3198  0.6891
  416MOL0     C56050   4.384  10.566  10.674 -0.1496 -0.3732 -0.3795
  416MOL0     C56051   4.404  10.464  10.762 -0.5149  0.6463  0.6590
  416MOL0     C56052   4.516  10.467  10.848  0.1923 -0.2032 -0.6428
  416MOL0     C56053   4.600  10.580  10.855  0.2056  0.3483 -0.1273
  416MOL0     C56054   4.713  10.576  10.956  0.4604 -0.1740  0.4219
  416MOL0     O56055   4.778  10.695  10.976 -0.8337  0.1834 -0.0878
  416MOL0     C56056   4.865  10.705  11.083 -0.5029 -0.9858  0.6924
  416MOL0     C56057   4.824  10.673  11.213 -0.1456 -0.2540 -0.2009
  416MOL0     C56058   4.911  10.706  11.325  0.3532  0.6617  0.7525
  416MOL0     C56059   5.033  10.771  11.303 -0.1885  0.2559  0.4397
  416MOL0     O56060   5.118  10.787  11.408  0.3333 -0.4192  0.3824
  416MOL0     C56061   5.143  10.929  11.441  0.2041 -0.1422  0.3260
  416MOL0     C56062   5.292  10.936  11.482  0.8740 -0.0656  0.3574
  416MOL0     C56063   5.339  11.084  11.484  0.6324 -0.1866  0.5427
  416MOL0     C56064   5.488  11.094  11.521  0.0512  0.4130  0.4635
  416MOL0     C56065   5.537  11.242  11.520  0.2763 -0.5223 -0.0096
  416MOL0     C56066   5.674  11.265  11.585  0.4203  0.0981  0.2463
  416MOL0     C56067   5.722  11.405  11.547  0.5995 -0.2406 -1.0060
  416MOL0     C56068   5.819  11.457  11.666  0.9608 -0.7017 -0.6558
  416MOL0    Cl56069   5.962  11.365  11.694  0.1114 -0.2416  0.1584
  416MOL0     C56070   5.070  10.805  11.171 -0.0145  0.8420 -0.2420
  416MOL0     C56071   4.987  10.768  11.063  0.2679  0.4917  0.2529
  416MOL0     O56072   4.738  10.471  11.012 -0.7417  0.0413  0.2844
  416MOL0     C56073   4.576  10.688  10.769 -0.1532 -0.0540  0.7513
  416MOL0     C56074   4.470  10.678  10.678 -0.2880 -0.0640  0.3265
  416MOL0     N56075   3.615  10.702  10.474 -0.3143 -0.0229 -1.2633
  416MOL0     N56076   3.517  10.796  10.476 -0.4902 -0.3720  0.2870
  416MOL0     C56077   2.491  11.031  10.582 -0.6344 -0.0403 -0.9263
  416MOL0     C56078   2.405  10.926  10.619  0.5379  1.0054  0.2889
  416MOL0     C56079   2.242  10.543  10.851 -0.5333 -0.0856  0.6226
  416MOL0     C56080   2.120  10.613  10.828 -0.2654  0.6146  0.1828
  416MOL0     C56081   2.000  10.545  10.858 -0.0526  0.7298 -0.2249
  416MOL0     C56082   1.998  10.406  10.892  0.6793 -0.2583  0.6904
  416MOL0     O56083   1.883  10.333  10.925  0.1945  1.1063 -0.4964
  416MOL0     C56084   1.751  10.389  10.915 -1.5324  0.5812 -0.4083
  416MOL0     C56085   1.642  10.290  10.970  0.4263 -0.8807 -0.3817
  416MOL0     C56086   1.495  10.329  10.937  0.2653 -1.1251  0.8374
  416MOL0     C56087   1.457  10.457  11.009 -0.0685 -0.4166 -0.3263
  416MOL0     C56088   1.441  10.441  11.153 -0.7310 -0.3380 -0.9991
  416MOL0     C56089   1.423  10.429  11.274 -0.3268  0.1521  0.3416
  416MOL0     C56090   2.120  10.337  10.916 -0.3325  0.3208 -0.1764
  416MOL0     C56091   2.243  10.407  10.899  0.6901 -0.5726 -0.2245
  416MOL0     C56092   2.373  10.332  10.925  0.4221  0.6277 -0.3225
  416MOL0     H56093   2.516  10.857  10.931 -1.2401  1.0441 -0.0482
  416MOL0     H56094   2.681  11.028  10.875  0.2994 -1.3299  0.4811
  416MOL0     H56095   2.757  11.351  10.658  2.7514  1.3699  0.2925
  416MOL0     H56096   2.689  11.275  10.803  2.4304 -0.0894  1.5261
  416MOL0     H56097   2.875  11.137  10.817 -0.6996 -0.6438 -1.5960
  416MOL0     H56098   2.944  11.289  10.811  0.9350 -0.3712 -0.4115
  416MOL0     H56099   3.001  11.301  10.582  1.8980 -0.4541  0.7467
  416MOL0     H56100   2.934  11.128  10.554 -0.9173 -2.1330  1.3452
  416MOL0     H56101   3.164  11.192  10.728 -2.7600  0.3772  1.2859
  416MOL0     H56102   3.107  11.040  10.676  1.8760 -0.7085  0.6736
  416MOL0     H56103   3.184  11.081  10.437 -2.7318 -1.4212  2.1357
  416MOL0     H56104   3.227  11.245  10.494  1.7453 -0.4638 -1.2515
  416MOL0     H56105   3.386  11.152  10.659 -1.5306  1.1238  0.3677
  416MOL0     H56106   3.360  10.987  10.585  0.6333 -0.7900 -2.6877
  416MOL0     H56107   3.561  11.143  10.503 -0.2520  3.6051 -1.7232
  416MOL0     H56108   3.452  11.217  10.398 -1.0578 -1.5663 -2.4774
  416MOL0     H56109   3.373  10.986  10.325  0.3530 -1.6086 -3.9964
  416MOL0     H56110   3.532  11.038  10.264 -2.0610  3.0201 -0.1460
  416MOL0     H56111   3.757  10.942  10.309  1.1116 -1.0511 -0.2270
  416MOL0     H56112   3.847  10.577  10.372  0.6531  0.2802 -0.4892
  416MOL0     H56113   3.899  10.728  10.295 -0.1450  1.2511  0.4860
  416MOL0     H56114   3.953  10.814  10.520 -0.7893  0.4804  2.1370
  416MOL0     H56115   3.896  10.670  10.600 -1.4131  0.1580 -0.4325
  416MOL0     H56116   4.129  10.701  10.408  1.9218 -0.9238  0.5986
  416MOL0     H56117   4.058  10.546  10.454 -1.3898 -0.5705  1.0115
  416MOL0     H56118   4.119  10.618  10.703  0.3777  1.5223  0.8857
  416MOL0     H56119   4.199  10.753  10.628  3.5591 -0.5049 -1.1483
  416MOL0     H56120   4.345  10.373  10.771  0.4246  0.0192  0.5206
  416MOL0     H56121   4.517  10.382  10.916 -3.2584  0.4416  0.4208
  416MOL0     H56122   4.726  10.630  11.231 -0.4418  0.2443 -0.6087
  416MOL0     H56123   4.895  10.666  11.425  0.2040  0.9601  0.8476
  416MOL0     H56124   5.109  10.993  11.359 -1.9873  0.1538  1.4097
  416MOL0     H56125   5.073  10.963  11.517 -1.9243 -1.8454 -0.7702
  416MOL0     H56126   5.312  10.884  11.576  1.6917 -2.3610 -1.0051
  416MOL0     H56127   5.357  10.881  11.413 -0.5136 -1.2093 -0.0796
  416MOL0     H56128   5.323  11.129  11.385 -0.8717  0.3083  0.9828
  416MOL0     H56129   5.286  11.142  11.560  1.8789  2.1951 -0.3058
  416MOL0     H56130   5.543  11.035  11.447  2.2379 -0.6086  2.7514
  416MOL0     H56131   5.500  11.036  11.613 -0.5593 -0.1374  0.2108
  416MOL0     H56132   5.468  11.294  11.587  0.5597 -0.4884  0.2564
  416MOL0     H56133   5.527  11.295  11.425 -1.3585  0.2226  0.5371
  416MOL0     H56134   5.665  11.262  11.694  4.0096  1.1725  0.6715
  416MOL0     H56135   5.738  11.183  11.552  0.4146 -0.0296  0.5487
  416MOL0     H56136   5.641  11.479  11.541  1.4094  0.7183 -0.4813
  416MOL0     H56137   5.773  11.399  11.450  0.2918 -1.9445 -1.0768
  416MOL0     H56138   5.844  11.561  11.644 -2.3684 -0.1986 -2.8017
  416MOL0     H56139   5.758  11.462  11.756  0.9232  0.4477 -0.7287
  416MOL0     H56140   5.167  10.852  11.155  0.7648 -0.1126  1.4298
  416MOL0     H56141   5.020  10.807  10.967  0.4883  0.0344  0.1437
  416MOL0     H56142   4.639  10.775  10.772  0.0803 -0.1983  0.0655
  416MOL0     H56143   4.465  10.757  10.604  1.7380  0.9578  1.1847
  416MOL0     H56144   2.501  11.091  10.492  0.8751  0.8206 -0.2168
  416MOL0     H56145   2.325  10.899  10.551 -0.5642  0.1036  1.8575
  416MOL0     H56146   2.125  10.720  10.809  2.7308  1.1270  2.9390
  416MOL0     H56147   1.900  10.588  10.855 -0.6676 -0.6627 -0.4074
  416MOL0     H56148   1.737  10.418  10.811 -1.2684 -1.6035 -1.1184
  416MOL0     H56149   1.751  10.477  10.980  0.8120  0.9401 -0.8054
  416MOL0     H56150   1.661  10.271  11.076  2.2543  2.4518  0.0527
  416MOL0     H56151   1.653  10.190  10.928 -0.7305 -2.0087  1.8371
  416MOL0     H56152   1.432  10.248  10.976  1.3644 -0.8889  3.2533
  416MOL0     H56153   1.481  10.347  10.830 -0.9307 -0.1043  1.1491
  416MOL0     H56154   1.531  10.538  11.003 -2.2723  1.7124 -0.1264
  416MOL0     H56155   1.370  10.491  10.953 -0.4694 -2.0558 -0.7493
  416MOL0     H56156   1.406  10.427  11.379 -0.4693 -0.3961  0.3102
  416MOL0     H56157   2.103  10.242  10.965 -0.6573  0.0667 -0.7729
  416MOL0     H56158   2.419  10.304  10.830 -0.4175  1.7651 -1.0878
  416MOL0     H56159   2.448  10.386  10.985  0.1167  1.8400 -0.9896
  416MOL0     H56160   2.353  10.236  10.974  0.9821  0.4479 -0.4368
  417MOL0     O56161   8.547  10.868   4.547  0.5041  0.2246  0.5543
  417MOL0     C56162   8.489  10.823   4.648 -0.4728  0.7656  0.3478
  417MOL0     O56163   8.521  10.866   4.777 -0.0273  0.3729 -0.1060
  417MOL0     C56164   8.647  10.911   4.802  0.4886  0.6452 -0.1446
  417MOL0     C56165   8.766  10.840   4.774  0.0337  0.6134  0.3580
  417MOL0     C56166   8.892  10.897   4.810  0.2449 -0.1509  0.1137
  417MOL0     C56167   8.898  11.024   4.866  0.4304  0.0901 -0.5186
  417MOL0     O56168   9.009  11.102   4.884 -0.8351 -0.1535 -0.1693
  417MOL0     C56169   9.138  11.049   4.899  0.7814 -0.0716 -0.3281
  417MOL0     C56170   9.234  11.166   4.885  0.0522 -0.4796  0.2464
  417MOL0     C56171   9.377  11.114   4.861  0.3781  0.0035 -0.7608
  417MOL0     C56172   9.475  11.234   4.845 -0.8747  1.0526  0.0181
  417MOL0     C56173   9.620  11.170   4.832  0.2545 -0.2279  0.0780
  417MOL0     C56174   9.717  11.213   4.935 -0.3412 -0.5119  0.2872
  417MOL0     C56175   9.777  11.349   4.896  0.1130  0.3771 -0.3937
  417MOL0     C56176   9.888  11.395   4.989 -0.5176  0.4005 -0.1838
  417MOL0     N56177  10.018  11.336   4.946 -0.1070  0.1811 -1.1247
  417MOL0     C56178  10.111  11.389   4.856  0.6416 -0.1714 -0.4676
  417MOL0     C56179  10.206  11.298   4.858 -0.4365 -0.0870 -0.3335
  417MOL0     C56180  10.329  11.299   4.772  0.2417  0.4578  0.0239
  417MOL0     C56181  10.462  11.331   4.848 -1.0945 -0.0065 -0.1950
  417MOL0     C56182  10.447  11.427   4.963 -0.3088  0.8562  0.2637
  417MOL0     C56183  10.584  11.474   5.025  1.2223  0.1798  0.1920
  417MOL0     O56184  10.652  11.565   4.935  0.3594  0.1947  0.0481
  417MOL0     C56185  10.760  11.635   4.976  0.0498  0.5707 -1.1871
  417MOL0     C56186  10.837  11.603   5.094  0.1339  0.8229  0.7027
  417MOL0     C56187  10.942  11.677   5.136  0.0730 -0.5295 -0.2160
  417MOL0     C56188  10.984  11.797   5.067  0.3040 -0.4145 -0.7689
  417MOL0     C56189  11.102  11.873   5.108  0.3673 -0.0386 -0.1182
  417MOL0     O56190  11.169  11.820   5.217  0.7898 -0.6995 -0.9649
  417MOL0     C56191  11.288  11.885   5.263  0.1088  1.1219  0.6376
  417MOL0     C56192  11.377  11.812   5.338 -0.0490  0.8650 -0.2763
  417MOL0     C56193  11.503  11.860   5.393  0.0202  0.7175 -0.0233
  417MOL0     C56194  11.530  11.995   5.376  0.0847 -0.7498 -0.0729
  417MOL0     O56195  11.638  12.054   5.441 -0.0721  0.4212  0.7278
  417MOL0     C56196  11.641  12.190   5.455  0.4446  0.2301  0.2288
  417MOL0     C56197  11.738  12.222   5.572 -0.5121  0.0524  0.9465
  417MOL0     C56198  11.685  12.168   5.703  0.2486 -0.0250 -0.8723
  417MOL0     C56199  11.676  12.279   5.813 -0.1066  0.3180  1.1498
  417MOL0     C56200  11.825  12.302   5.851  0.4203 -0.4914 -0.4947
  417MOL0     C56201  11.858  12.455   5.855 -0.6249  0.0633  0.8021
  417MOL0     C56202  12.001  12.478   5.909  0.4123 -0.0907 -0.5931
  417MOL0     C56203  12.023  12.627   5.923 -0.7345  0.0774 -0.5686
  417MOL0    Cl56204  11.985  12.705   5.770  0.1426 -0.0162  0.3345
  417MOL0     C56205  11.436  12.071   5.307 -0.0277 -0.2837  0.1542
  417MOL0     C56206  11.319  12.023   5.257  1.5162  0.3708  0.6947
  417MOL0     O56207  11.153  11.960   5.033 -0.8655  0.2297  0.4329
  417MOL0     C56208  10.915  11.823   4.949 -0.2365 -0.0229  0.1900
  417MOL0     C56209  10.811  11.736   4.898 -0.7205  0.4721 -0.2847
  417MOL0     N56210  10.178  11.203   4.946 -0.4361  0.4466 -0.4174
  417MOL0     N56211  10.070  11.224   5.000 -0.2497 -0.4382  0.6079
  417MOL0     C56212   8.785  11.103   4.891  0.4605  0.9674  0.5396
  417MOL0     C56213   8.661  11.037   4.862  0.3143  0.1430  0.8046
  417MOL0     C56214   8.375  10.730   4.629  0.0632 -0.1286  0.6056
  417MOL0     C56215   8.301  10.704   4.745 -0.1542  0.9294  0.3866
  417MOL0     C56216   8.179  10.633   4.730 -0.6967 -0.4371 -1.2024
  417MOL0     C56217   8.132  10.591   4.603  0.4074  0.5599  0.2516
  417MOL0     O56218   8.010  10.533   4.576 -0.0438  0.0828  0.0274
  417MOL0     C56219   7.952  10.461   4.681  0.1046 -0.0198  0.1764
  417MOL0     C56220   7.846  10.365   4.635  0.6622 -0.5821 -0.0366
  417MOL0     C56221   7.897  10.272   4.518 -0.0183 -0.3081 -0.0601
  417MOL0     C56222   7.806  10.155   4.477 -0.3472  0.2966  0.0113
  417MOL0     C56223   7.694  10.211   4.395 -0.5184  0.4963 -0.3672
  417MOL0     C56224   7.600  10.247   4.325  0.9282 -0.3077 -0.2327
  417MOL0     C56225   8.210  10.618   4.497  0.7487 -0.4325 -0.1981
  417MOL0     C56226   8.334  10.673   4.505 -0.3508  1.0333 -0.7825
  417MOL0     C56227   8.409  10.676   4.380 -0.3358 -0.4026  0.5849
  417MOL0     H56228   8.757  10.745   4.723 -0.1926 -1.1129  3.4129
  417MOL0     H56229   8.981  10.841   4.785  0.9755  1.3985 -0.8937
  417MOL0     H56230   9.156  11.009   4.999  0.2248  1.4372  0.4090
  417MOL0     H56231   9.150  10.969   4.825 -1.5932  1.5422 -2.6245
  417MOL0     H56232   9.241  11.228   4.974  1.4159  2.5869 -1.8253
  417MOL0     H56233   9.209  11.227   4.797  4.2123 -0.4797 -1.1386
  417MOL0     H56234   9.390  11.027   4.796  1.7573 -3.6633  3.8877
  417MOL0     H56235   9.403  11.060   4.952 -1.2868  1.8324  0.8933
  417MOL0     H56236   9.453  11.291   4.754 -0.3565  0.9077 -0.2013
  417MOL0     H56237   9.471  11.297   4.934  4.1268  0.6223  0.8194
  417MOL0     H56238   9.621  11.061   4.843  2.2237 -0.1528  1.0321
  417MOL0     H56239   9.657  11.197   4.732  0.2240 -1.2742 -0.2230
  417MOL0     H56240   9.660  11.218   5.028 -1.5087 -0.4572 -0.4084
  417MOL0     H56241   9.790  11.132   4.943 -0.3408 -0.5839 -0.3901
  417MOL0     H56242   9.690  11.416   4.901  0.2865  0.5313  1.5376
  417MOL0     H56243   9.807  11.338   4.792  2.6802 -1.0587  0.4190
  417MOL0     H56244   9.893  11.504   4.993 -4.4975  0.7215 -0.7115
  417MOL0     H56245   9.866  11.369   5.093  0.3152 -1.5828 -0.4601
  417MOL0     H56246  10.114  11.480   4.797 -0.2900 -1.3472 -2.4612
  417MOL0     H56247  10.341  11.201   4.724  1.8796  0.9959 -0.7456
  417MOL0     H56248  10.308  11.362   4.685 -0.0679 -1.7700 -1.6201
  417MOL0     H56249  10.508  11.238   4.882 -0.8198 -0.3002 -1.3177
  417MOL0     H56250  10.533  11.376   4.778 -0.1044  0.4114  1.0362
  417MOL0     H56251  10.400  11.377   5.049 -1.0298 -0.6610 -0.9595
  417MOL0     H56252  10.394  11.520   4.941  2.3693  1.8941 -2.3304
  417MOL0     H56253  10.646  11.386   5.044  1.3317 -0.5267 -2.9528
  417MOL0     H56254  10.570  11.518   5.124  0.9484  0.2457  0.1250
  417MOL0     H56255  10.805  11.533   5.170 -0.8684 -0.6364 -0.9847
  417MOL0     H56256  10.987  11.648   5.231  1.5020  0.7351 -0.4547
  417MOL0     H56257  11.352  11.707   5.350 -4.2092  1.6950 -0.4197
  417MOL0     H56258  11.582  11.805   5.443 -0.3162 -1.0390 -1.3207
  417MOL0     H56259  11.675  12.228   5.358  2.4939 -2.7571 -0.3587
  417MOL0     H56260  11.542  12.227   5.483 -0.1509 -1.7628  0.8621
  417MOL0     H56261  11.835  12.173   5.560  0.1625  1.6015 -0.2156
  417MOL0     H56262  11.750  12.331   5.568 -0.4347  0.0523 -2.6399
  417MOL0     H56263  11.580  12.145   5.685  0.8872 -1.2709 -3.6018
  417MOL0     H56264  11.741  12.079   5.736  2.7175  0.9039 -2.2562
  417MOL0     H56265  11.614  12.256   5.900 -1.4186  1.5335  0.5838
  417MOL0     H56266  11.629  12.368   5.770 -0.1147 -1.1831 -2.2307
  417MOL0     H56267  11.885  12.253   5.773 -0.2107  0.1170 -1.3825
  417MOL0     H56268  11.841  12.257   5.950  0.2961 -1.3207 -0.8413
  417MOL0     H56269  11.861  12.486   5.751  2.0212 -3.9598 -0.5553
  417MOL0     H56270  11.781  12.509   5.911  1.0629  1.3021  2.0737
  417MOL0     H56271  12.063  12.423   5.839 -0.7800 -0.1575 -1.6379
  417MOL0     H56272  12.013  12.428   6.006  0.6188 -1.0547 -1.1025
  417MOL0     H56273  11.971  12.663   6.012 -0.1724  0.3908 -0.3589
  417MOL0     H56274  12.129  12.639   5.948 -1.1757  0.7995  1.0575
  417MOL0     H56275  11.462  12.176   5.302 -1.8169  0.1476 -0.5449
  417MOL0     H56276  11.258  12.092   5.199  1.5109  0.7918  1.1990
  417MOL0     H56277  10.950  11.909   4.892 -1.7364  1.6454  1.6738
  417MOL0     H56278  10.756  11.762   4.809  0.5764  1.7384 -0.7641
  417MOL0     H56279   8.802  11.200   4.936  0.5831  0.6289  1.2388
  417MOL0     H56280   8.572  11.098   4.872  0.7420  0.5362  2.5774
  417MOL0     H56281   8.324  10.745   4.842  1.3714  0.5201  0.2361
  417MOL0     H56282   8.124  10.608   4.821  2.2264 -1.2638  0.4781
  417MOL0     H56283   7.900  10.522   4.756  1.2164  0.2231  0.7645
  417MOL0     H56284   8.026  10.394   4.725  0.2519 -0.0870 -0.1637
  417MOL0     H56285   7.762  10.430   4.610 -1.7940 -3.8272 -0.9049
  417MOL0     H56286   7.819  10.298   4.717  0.6425  0.2953  0.6795
  417MOL0     H56287   7.989  10.222   4.549 -0.1948  0.6373  2.2024
  417MOL0     H56288   7.938  10.318   4.428 -0.3710  0.3517  0.1034
  417MOL0     H56289   7.861  10.080   4.419 -2.5595 -0.3951 -1.3367
  417MOL0     H56290   7.769  10.108   4.569 -2.4421 -0.9664 -1.3790
  417MOL0     H56291   7.511  10.265   4.269  0.8023 -0.0022  0.0623
  417MOL0     H56292   8.162  10.597   4.403  1.0405  1.3725 -0.8026
  417MOL0     H56293   8.360  10.609   4.309  0.0261  0.3168 -0.3683
  417MOL0     H56294   8.414  10.778   4.342  1.4415 -0.2375  1.1802
  417MOL0     H56295   8.512  10.641   4.390 -0.8667 -1.2572  5.1936
  418MOL0     O56296   2.460   6.718  10.125 -0.0863  0.0932 -0.9292
  418MOL0     C56297   2.499   6.632  10.197 -0.8157 -0.4878 -0.2324
  418MOL0     O56298   2.636   6.598  10.217 -0.0946 -0.3603  0.0163
  418MOL0     C56299   2.735   6.656  10.141  0.2070 -0.3558  0.8875
  418MOL0     C56300   2.748   6.791  10.147  0.0135 -0.5779 -0.0789
  418MOL0     C56301   2.840   6.866  10.062  0.0295 -0.3236  0.9731
  418MOL0     C56302   2.922   6.797   9.973  0.2046  0.5570  0.1379
  418MOL0     O56303   3.002   6.871   9.891  0.2318  0.3975  0.4273
  418MOL0     C56304   3.125   6.817   9.846 -0.6680 -1.1000  0.5832
  418MOL0     C56305   3.208   6.930   9.777  0.0334  0.1724  0.4616
  418MOL0     C56306   3.355   6.907   9.760 -1.0090  0.1558 -0.0142
  418MOL0     C56307   3.381   6.826   9.634 -0.3870  0.1766  0.4375
  418MOL0     C56308   3.519   6.866   9.563 -0.5503 -0.2959 -0.2261
  418MOL0     C56309   3.633   6.860   9.667  0.7025 -0.1119 -0.3668
  418MOL0     C56310   3.770   6.831   9.607 -0.6572 -0.1977 -0.4958
  418MOL0     C56311   3.793   6.932   9.503 -0.7534 -0.7740  0.1688
  418MOL0     N56312   3.922   6.928   9.433 -0.3880 -0.0645 -0.0936
  418MOL0     C56313   3.964   6.827   9.348 -0.7984  0.4100 -0.0461
  418MOL0     C56314   4.094   6.859   9.315 -0.1094  0.0649 -0.7188
  418MOL0     C56315   4.186   6.775   9.229  0.3810  0.1855  0.3175
  418MOL0     C56316   4.223   6.644   9.287 -0.4080 -0.1238 -0.1994
  418MOL0     C56317   4.311   6.560   9.192  0.5143 -0.3073  0.2433
  418MOL0     C56318   4.373   6.464   9.273 -0.4351  0.3182  0.5049
  418MOL0     O56319   4.441   6.374   9.177 -0.6480 -0.7171  0.1254
  418MOL0     C56320   4.567   6.406   9.122  0.3027  0.6458 -0.1612
  418MOL0     C56321   4.616   6.342   9.009  0.1121 -0.2834  0.7536
  418MOL0     C56322   4.735   6.392   8.939  0.2856  0.0033 -0.6859
  418MOL0     C56323   4.818   6.488   8.997  0.3090  0.6946  0.2823
  418MOL0     C56324   4.947   6.537   8.935  0.2767  0.0719 -0.1403
  418MOL0     O56325   5.027   6.630   9.000  0.1207 -0.3750 -0.6567
  418MOL0     C56326   5.128   6.676   8.921  0.0561  0.3680  0.9139
  418MOL0     C56327   5.130   6.800   8.853 -0.0188  0.7672 -0.0596
  418MOL0     C56328   5.228   6.851   8.777 -0.6288 -0.3549 -0.2798
  418MOL0     C56329   5.338   6.776   8.758  0.9523  0.2345  0.4866
  418MOL0     O56330   5.431   6.829   8.675  0.2306 -0.5460  0.0413
  418MOL0     C56331   5.554   6.756   8.660 -0.0637  0.2363  0.1583
  418MOL0     C56332   5.650   6.839   8.562 -0.0878  0.6701 -0.4527
  418MOL0     C56333   5.767   6.741   8.534 -0.1804 -0.1515  0.4210
  418MOL0     C56334   5.879   6.799   8.436 -0.2626  0.0525 -0.2466
  418MOL0     C56335   5.830   6.803   8.289  0.3995  0.4527  0.7247
  418MOL0     C56336   5.912   6.913   8.216  0.0439  0.6364 -0.1337
  418MOL0     C56337   6.065   6.895   8.228 -0.0813  0.1465  0.3392
  418MOL0     C56338   6.141   6.986   8.129 -0.4381  0.0839  0.4964
  418MOL0    Cl56339   6.107   6.936   7.963  0.1837  0.3264 -0.1828
  418MOL0     C56340   5.349   6.651   8.828 -0.4450 -0.2620 -0.0786
  418MOL0     C56341   5.245   6.599   8.911 -0.5018  0.2245  0.9174
  418MOL0     O56342   4.969   6.485   8.824 -0.3097  0.2969 -0.6437
  418MOL0     C56343   4.768   6.554   9.116 -0.1206  0.4047 -0.0026
  418MOL0     C56344   4.643   6.513   9.176  0.2202  0.6369  0.9686
  418MOL0     N56345   4.119   6.983   9.372 -0.8566 -0.2869  0.5816
  418MOL0     N56346   4.016   7.025   9.444 -1.0063 -0.4961  0.2388
  418MOL0     C56347   2.911   6.654   9.973 -0.1037 -0.4389  0.4486
  418MOL0     C56348   2.822   6.584  10.055  0.0435 -0.4481  0.9966
  418MOL0     C56349   2.399   6.555  10.289 -1.2116  0.2058  0.1479
  418MOL0     C56350   2.445   6.434  10.336 -0.5504  0.5054  0.5997
  418MOL0     C56351   2.364   6.358  10.416  0.1424  0.2665  0.4922
  418MOL0     C56352   2.244   6.396  10.461  0.1421 -0.4202 -0.0270
  418MOL0     O56353   2.164   6.329  10.554  0.0943  0.0494  0.1223
  418MOL0     C56354   2.192   6.195  10.581  0.4203 -1.1010  0.0544
  418MOL0     C56355   2.095   6.129  10.676 -0.0601  0.3729 -0.8386
  418MOL0     C56356   1.945   6.142  10.645  0.0778 -0.2696  0.0815
  418MOL0     C56357   1.881   6.006  10.660  1.0582  0.6707 -0.0177
  418MOL0     C56358   1.731   6.009  10.632  0.7550  0.0446 -0.4162
  418MOL0     C56359   1.605   6.001  10.611  0.8942  0.3053  0.4418
  418MOL0     C56360   2.196   6.522  10.416 -0.0740  0.2116  0.9529
  418MOL0     C56361   2.272   6.601  10.322  0.3377  0.3977 -0.1850
  418MOL0     C56362   2.219   6.731  10.270 -0.1645 -0.2387 -0.4594
  418MOL0     H56363   2.691   6.855  10.213  2.5218  3.1385 -1.1768
  418MOL0     H56364   2.847   6.974  10.062  0.4993 -0.0133 -4.6757
  418MOL0     H56365   3.194   6.770   9.915 -0.2963 -1.6533 -0.1518
  418MOL0     H56366   3.097   6.743   9.770 -0.2724 -0.7277  0.0662
  418MOL0     H56367   3.197   7.020   9.838 -2.7989  1.1446 -1.2613
  418MOL0     H56368   3.158   6.961   9.685  1.2125 -1.4738 -0.7784
  418MOL0     H56369   3.393   6.858   9.850  1.6793 -0.6588 -1.4955
  418MOL0     H56370   3.407   7.002   9.746  0.7660 -0.9070 -1.0147
  418MOL0     H56371   3.366   6.719   9.650 -0.2332  0.2943  1.4075
  418MOL0     H56372   3.299   6.844   9.565 -1.8973 -0.3910  2.0231
  418MOL0     H56373   3.534   6.789   9.487 -1.4088 -1.1762  0.4597
  418MOL0     H56374   3.514   6.963   9.514 -4.4186 -1.0941 -1.8243
  418MOL0     H56375   3.618   6.952   9.723 -0.6498  1.0856 -2.5475
  418MOL0     H56376   3.616   6.780   9.740 -2.1675  2.8351  2.4997
  418MOL0     H56377   3.779   6.731   9.564  0.9613 -0.3114  0.0403
  418MOL0     H56378   3.850   6.824   9.681  0.5518 -3.0636 -1.9115
  418MOL0     H56379   3.726   6.931   9.416  2.1701 -1.2825 -2.2344
  418MOL0     H56380   3.790   7.028   9.557  0.2253 -1.6349  1.8344
  418MOL0     H56381   3.910   6.739   9.314 -0.9972  1.0886 -1.5803
  418MOL0     H56382   4.140   6.760   9.131 -1.4024  1.0142  0.9740
  418MOL0     H56383   4.281   6.827   9.221  2.3751 -2.6567  3.0125
  418MOL0     H56384   4.275   6.668   9.380 -1.5192  0.2727  0.3437
  418MOL0     H56385   4.146   6.571   9.312  0.0573  0.0338  1.9256
  418MOL0     H56386   4.386   6.628   9.150 -0.7703  0.0171 -1.6991
  418MOL0     H56387   4.259   6.513   9.107 -1.1743 -0.2677  1.1957
  418MOL0     H56388   4.308   6.407   9.340  0.9687  0.6671  2.2486
  418MOL0     H56389   4.436   6.511   9.350 -3.8861  0.8835  3.2241
  418MOL0     H56390   4.546   6.266   8.976 -1.5411  1.2454  0.6145
  418MOL0     H56391   4.773   6.355   8.845  1.2077  1.5287 -0.9367
  418MOL0     H56392   5.037   6.856   8.860  0.1804  1.1159 -0.2340
  418MOL0     H56393   5.230   6.945   8.723 -1.7990 -0.0066  0.2627
  418MOL0     H56394   5.604   6.722   8.751  2.6714 -1.0025 -1.6862
  418MOL0     H56395   5.533   6.667   8.601  0.5014  1.9896 -2.9018
  418MOL0     H56396   5.595   6.871   8.473  1.0349  2.2642 -0.6200
  418MOL0     H56397   5.689   6.933   8.603 -0.2952  0.9781 -0.9571
  418MOL0     H56398   5.814   6.708   8.626 -2.6822 -1.0096  1.4843
  418MOL0     H56399   5.728   6.658   8.475 -0.2246 -0.1733  0.4826
  418MOL0     H56400   5.968   6.736   8.426 -0.4032 -0.0914 -0.6295
  418MOL0     H56401   5.900   6.904   8.455  0.6183  0.4784 -3.0480
  418MOL0     H56402   5.728   6.842   8.283  0.1692  0.1696  2.3081
  418MOL0     H56403   5.841   6.706   8.240 -2.8625 -1.1720  2.8239
  418MOL0     H56404   5.870   6.908   8.116 -1.0625 -1.4605  0.3847
  418MOL0     H56405   5.881   7.015   8.244 -0.0310  0.7691 -0.6841
  418MOL0     H56406   6.087   6.791   8.204  3.2415  0.2759  2.1845
  418MOL0     H56407   6.089   6.909   8.333 -2.5631 -0.6605  1.0897
  418MOL0     H56408   6.112   7.090   8.142  0.6871  0.8322 -2.2918
  418MOL0     H56409   6.249   6.980   8.142 -0.0396  0.3100 -2.1337
  418MOL0     H56410   5.437   6.591   8.807 -1.1418 -0.8607 -1.3796
  418MOL0     H56411   5.256   6.507   8.968 -0.2780 -1.3793 -1.5705
  418MOL0     H56412   4.822   6.639   9.157 -0.2279  0.0126  0.9795
  418MOL0     H56413   4.618   6.577   9.259  2.9254 -1.1953  3.3776
  418MOL0     H56414   2.978   6.607   9.901 -3.8194 -2.5255 -1.9578
  418MOL0     H56415   2.825   6.476  10.043  1.5842 -0.6577  2.7797
  418MOL0     H56416   2.540   6.385  10.316 -2.5401 -2.8847 -1.3428
  418MOL0     H56417   2.406   6.263  10.448  0.1062  0.4389  1.0599
  418MOL0     H56418   2.293   6.193  10.623 -0.3743  0.5248  2.2480
  418MOL0     H56419   2.185   6.137  10.489 -1.0451 -2.6046  1.0518
  418MOL0     H56420   2.108   6.162  10.779  1.5056 -2.8058  0.1183
  418MOL0     H56421   2.123   6.024  10.666 -0.5130 -0.1567  2.5318
  418MOL0     H56422   1.926   6.166  10.540  1.2420  2.5573  0.4306
  418MOL0     H56423   1.898   6.212  10.714 -1.6862 -2.7892  1.6114
  418MOL0     H56424   1.918   5.936  10.584  0.8676 -1.4845  1.7611
  418MOL0     H56425   1.894   5.963  10.760  1.4109 -0.5362 -0.5607
  418MOL0     H56426   1.501   5.988  10.588  1.2811 -1.9985 -0.3283
  418MOL0     H56427   2.101   6.566  10.444 -0.2991 -0.3431  1.0844
  418MOL0     H56428   2.297   6.806  10.287  2.1216 -2.5990  0.1069
  418MOL0     H56429   2.209   6.739  10.161 -1.7984  0.6523 -0.2636
  418MOL0     H56430   2.120   6.756  10.309 -0.7790 -2.0256 -0.7867
  419MOL0     O56431   6.642   4.528   8.687 -0.1596  0.2431  0.0742
  419MOL0     C56432   6.621   4.422   8.625  0.4956 -1.2205 -0.2665
  419MOL0     O56433   6.617   4.304   8.685 -0.7225  0.0562 -0.6080
  419MOL0     C56434   6.631   4.288   8.817 -0.1129 -0.5780 -0.1714
  419MOL0     C56435   6.736   4.201   8.860  0.0428 -0.2020  0.1386
  419MOL0     C56436   6.736   4.156   8.995  0.2441 -0.2419  0.1714
  419MOL0     C56437   6.638   4.213   9.089 -1.4333 -0.5513  0.4887
  419MOL0     O56438   6.640   4.194   9.223 -0.0630  0.5392 -0.0834
  419MOL0     C56439   6.754   4.135   9.282  0.7066 -0.0104 -0.6905
  419MOL0     C56440   6.855   4.252   9.294 -0.3924  0.1278  0.0952
  419MOL0     C56441   6.798   4.366   9.382 -0.2088  0.2936 -0.6299
  419MOL0     C56442   6.918   4.461   9.421 -0.2590 -0.9344  0.2873
  419MOL0     C56443   6.847   4.579   9.487  0.3257  0.3130  1.3011
  419MOL0     C56444   6.953   4.691   9.502 -0.3815 -0.4541 -0.7248
  419MOL0     C56445   6.903   4.786   9.610 -0.1494  0.4945 -0.4004
  419MOL0     C56446   7.013   4.883   9.655  0.7407  0.0040 -0.7260
  419MOL0     N56447   7.062   4.814   9.784  0.4481 -0.6999 -0.6823
  419MOL0     C56448   7.012   4.817   9.912 -0.4760  0.0020 -0.1523
  419MOL0     C56449   7.103   4.746   9.987 -0.8022  0.5383 -0.8022
  419MOL0     C56450   7.096   4.720  10.135 -0.7427 -0.0682  0.1818
  419MOL0     C56451   7.131   4.845  10.219 -0.3870  0.5794  0.0603
  419MOL0     C56452   7.266   4.900  10.183 -0.2855  0.1507  0.2381
  419MOL0     C56453   7.389   4.828  10.228 -1.3907 -1.1376  0.0902
  419MOL0     O56454   7.502   4.910  10.190 -0.8241  0.0457  0.3527
  419MOL0     C56455   7.620   4.863  10.234 -0.5517 -0.2121  0.4457
  419MOL0     C56456   7.644   4.746  10.321 -0.0788  0.6282 -0.0497
  419MOL0     C56457   7.774   4.714  10.349 -0.0364 -0.0361 -0.3847
  419MOL0     C56458   7.885   4.781  10.303 -0.2836  0.0800 -0.1994
  419MOL0     C56459   8.020   4.751  10.353  0.1924 -0.6781  0.4978
  419MOL0     O56460   8.114   4.852  10.347 -0.0033 -0.5792 -0.7840
  419MOL0     C56461   8.244   4.847  10.386 -0.8260 -0.1078  0.5125
  419MOL0     C56462   8.300   4.748  10.461 -0.5089  0.3093  0.0238
  419MOL0     C56463   8.437   4.744  10.506  0.3811 -0.1971  0.2411
  419MOL0     C56464   8.514   4.854  10.481 -0.0223  1.7771 -0.1538
  419MOL0     O56465   8.642   4.864  10.527 -0.2172 -0.4256  0.6609
  419MOL0     C56466   8.679   4.819  10.654 -0.5483 -0.5922 -0.4730
  419MOL0     C56467   8.803   4.898  10.689 -0.1392  0.3156  0.2516
  419MOL0     C56468   8.778   5.042  10.729 -0.1839 -0.0795  0.1196
  419MOL0     C56469   8.907   5.121  10.764  0.1757 -0.0411  0.0044
  419MOL0     C56470   8.979   5.072  10.895  0.6837  0.5266  0.8662
  419MOL0     C56471   9.071   5.178  10.958  0.2683  0.0869 -0.4825
  419MOL0     C56472   9.182   5.222  10.861 -0.4434 -0.7708 -0.5073
  419MOL0     C56473   9.225   5.368  10.873 -0.9571 -0.2885  0.1614
  419MOL0    Cl56474   9.404   5.358  10.885 -0.6372  0.4957  0.3181
  419MOL0     C56475   8.459   4.952  10.395 -0.5806 -0.2961 -0.6578
  419MOL0     C56476   8.330   4.946  10.340  0.6866 -0.0078 -0.7335
  419MOL0     O56477   8.042   4.633  10.374 -0.6979  0.3460 -0.0285
  419MOL0     C56478   7.861   4.894  10.223  0.2973 -1.0838  0.9902
  419MOL0     C56479   7.732   4.945  10.196 -0.5131 -0.9148  0.0224
  419MOL0     N56480   7.207   4.702   9.910  0.2659 -0.3067  0.0822
  419MOL0     N56481   7.182   4.736   9.789 -0.5792 -0.2384  0.3389
  419MOL0     C56482   6.545   4.315   9.043 -0.7691 -0.7993 -0.2940
  419MOL0     C56483   6.547   4.355   8.913  0.5543  0.3375  0.5090
  419MOL0     C56484   6.604   4.436   8.479 -0.0726  0.4389  0.5897
  419MOL0     C56485   6.537   4.549   8.421  0.3601 -0.6260 -0.5143
  419MOL0     C56486   6.522   4.571   8.288 -0.8195 -0.1201 -0.7058
  419MOL0     C56487   6.578   4.478   8.198  0.4810  0.3535 -0.2232
  419MOL0     O56488   6.562   4.477   8.061  1.2557 -0.3440 -0.5483
  419MOL0     C56489   6.444   4.556   8.006 -0.1634 -0.2788 -0.1674
  419MOL0     C56490   6.438   4.535   7.851  0.0908 -0.1438 -0.4105
  419MOL0     C56491   6.344   4.420   7.820  0.1007 -0.2198  0.0342
  419MOL0     C56492   6.293   4.413   7.672 -1.1165 -0.8785 -0.1979
  419MOL0     C56493   6.395   4.459   7.577  0.2280 -0.7378 -0.9439
  419MOL0     C56494   6.474   4.496   7.503 -0.1398  0.2408  0.7031
  419MOL0     C56495   6.651   4.362   8.249  0.1365 -0.7588  0.0597
  419MOL0     C56496   6.672   4.348   8.389 -0.1889  0.5278 -0.7737
  419MOL0     C56497   6.739   4.224   8.433 -0.0859  0.8833  0.4133
  419MOL0     H56498   6.813   4.165   8.792  1.8746 -0.2782  2.1221
  419MOL0     H56499   6.807   4.082   9.030  0.8798  1.1581  2.0133
  419MOL0     H56500   6.727   4.091   9.378 -1.9213  0.2251 -1.2645
  419MOL0     H56501   6.801   4.050   9.230  0.9114 -0.1744 -0.2479
  419MOL0     H56502   6.900   4.297   9.205  0.3438 -1.3455 -0.3109
  419MOL0     H56503   6.934   4.205   9.354  2.0397  2.2343 -1.2165
  419MOL0     H56504   6.759   4.329   9.477  2.4800 -3.0121 -0.6071
  419MOL0     H56505   6.724   4.418   9.320 -1.5956 -0.8427  0.0111
  419MOL0     H56506   6.995   4.423   9.489  1.5148  2.0260  0.1065
  419MOL0     H56507   6.969   4.493   9.330  1.9842 -0.2856  1.6743
  419MOL0     H56508   6.763   4.607   9.423  0.5214 -2.9838 -0.5657
  419MOL0     H56509   6.804   4.548   9.583  0.9992 -0.4771  1.3585
  419MOL0     H56510   7.053   4.651   9.524 -1.0312 -0.3695  3.0615
  419MOL0     H56511   6.965   4.728   9.400 -1.3419  1.2912 -0.2485
  419MOL0     H56512   6.890   4.716   9.693 -0.4355 -1.0287 -1.6937
  419MOL0     H56513   6.814   4.841   9.578 -0.3051 -0.1126 -1.0311
  419MOL0     H56514   7.100   4.874   9.589  2.7636 -1.5092  1.9476
  419MOL0     H56515   6.961   4.979   9.663 -0.1837 -0.6192  1.5465
  419MOL0     H56516   6.917   4.867   9.926  0.5347  3.3836 -3.6962
  419MOL0     H56517   6.998   4.683  10.164 -0.3878 -3.2344 -2.1361
  419MOL0     H56518   7.169   4.638  10.140 -0.3501  0.3520  1.8189
  419MOL0     H56519   7.049   4.912  10.194 -0.7447 -0.2201 -0.9903
  419MOL0     H56520   7.127   4.825  10.326  2.3632  3.1351  0.7778
  419MOL0     H56521   7.273   5.001  10.224  1.4675  0.1910 -0.0854
  419MOL0     H56522   7.270   4.899  10.073 -3.6027  0.3822  0.0091
  419MOL0     H56523   7.394   4.733  10.174 -0.8593 -0.8336 -0.4003
  419MOL0     H56524   7.384   4.811  10.336 -0.4891  0.1707  0.3565
  419MOL0     H56525   7.563   4.680  10.350  0.3079 -0.0205 -0.4060
  419MOL0     H56526   7.799   4.629  10.410  1.7479  0.4857 -0.3316
  419MOL0     H56527   8.242   4.660  10.485  0.4646 -0.5171 -0.5584
  419MOL0     H56528   8.467   4.662  10.570 -0.0687 -0.8465 -0.3676
  419MOL0     H56529   8.602   4.846  10.726  0.7225  1.7239  0.1099
  419MOL0     H56530   8.698   4.711  10.657  0.5497 -0.3884  0.2944
  419MOL0     H56531   8.828   4.856  10.787 -1.0822 -0.2099  0.2855
  419MOL0     H56532   8.877   4.883  10.610  0.9243 -0.4413  1.3567
  419MOL0     H56533   8.723   5.082  10.643 -0.0038  1.1806  0.5706
  419MOL0     H56534   8.714   5.057  10.816 -0.4910  0.8319 -0.2469
  419MOL0     H56535   8.877   5.224  10.781 -1.8248 -0.4749 -0.6782
  419MOL0     H56536   8.979   5.107  10.683  0.4619  0.3775  0.1834
  419MOL0     H56537   9.041   4.987  10.867 -1.3118 -0.5080 -0.6801
  419MOL0     H56538   8.915   5.047  10.980 -1.0652 -1.7734 -1.0001
  419MOL0     H56539   9.013   5.265  10.990 -0.5369 -0.8231  0.6091
  419MOL0     H56540   9.114   5.135  11.049 -2.2387  0.4973  0.9950
  419MOL0     H56541   9.142   5.196  10.763  0.5464 -2.1200 -0.5756
  419MOL0     H56542   9.266   5.159  10.892 -0.8222 -0.1149  2.1343
  419MOL0     H56543   9.205   5.428  10.784  1.5407 -2.2513 -1.8733
  419MOL0     H56544   9.184   5.413  10.964  0.2090  0.2321  0.4531
  419MOL0     H56545   8.524   5.031  10.362 -1.9250  1.5440  0.9041
  419MOL0     H56546   8.291   5.027  10.279 -0.5253 -1.6892 -2.2692
  419MOL0     H56547   7.948   4.951  10.191  1.2466 -1.5888  2.5439
  419MOL0     H56548   7.700   5.041  10.157 -3.8943 -0.8508  2.4890
  419MOL0     H56549   6.480   4.366   9.113  2.6917  0.4182  2.2989
  419MOL0     H56550   6.468   4.426   8.891 -0.5686 -1.0421 -0.1176
  419MOL0     H56551   6.472   4.607   8.486  1.6212 -1.8774  2.0489
  419MOL0     H56552   6.464   4.656   8.255  0.7953  1.6550  0.8021
  419MOL0     H56553   6.475   4.660   8.024  1.4627 -1.1856  3.1754
  419MOL0     H56554   6.352   4.552   8.064  1.5607 -1.2835  2.7380
  419MOL0     H56555   6.537   4.521   7.808 -0.0849  0.2046 -0.9363
  419MOL0     H56556   6.394   4.625   7.807  0.4426  0.3083  0.1676
  419MOL0     H56557   6.249   4.423   7.875  0.9698 -1.1304  1.6292
  419MOL0     H56558   6.390   4.326   7.851 -0.9555  0.1453  3.0479
  419MOL0     H56559   6.284   4.305   7.656  3.2071 -1.2593 -1.2282
  419MOL0     H56560   6.195   4.461   7.669 -1.4756 -1.6532 -1.6693
  419MOL0     H56561   6.553   4.506   7.432 -0.1659  1.3235  0.8128
  419MOL0     H56562   6.687   4.285   8.182  2.2844  1.6062 -1.6624
  419MOL0     H56563   6.770   4.164   8.347 -1.4846  0.5317  0.1335
  419MOL0     H56564   6.826   4.237   8.498  0.7793 -0.2344 -0.4933
  419MOL0     H56565   6.667   4.152   8.473  1.5823 -2.0294 -1.4554
  420MOL0     O56566   2.562   6.398   3.215 -0.5187 -0.2591  0.3415
  420MOL0     C56567   2.542   6.413   3.092 -0.1003 -0.6065  0.6829
  420MOL0     O56568   2.618   6.499   3.017 -0.3516 -0.9385  0.5326
  420MOL0     C56569   2.729   6.554   3.080  0.3207  1.2302 -0.2156
  420MOL0     C56570   2.853   6.482   3.098 -0.3320 -0.1025 -0.5060
  420MOL0     C56571   2.956   6.544   3.170  0.2976  0.2581 -0.3151
  420MOL0     C56572   2.946   6.662   3.233  0.6289  0.2583 -0.3685
  420MOL0     O56573   3.053   6.711   3.299  0.3010  0.3248 -0.5616
  420MOL0     C56574   3.019   6.772   3.428  0.6101 -0.7611  0.0573
  420MOL0     C56575   3.040   6.925   3.418  0.0559  0.5114 -0.8423
  420MOL0     C56576   3.187   6.953   3.414 -0.6108 -0.0355  0.0117
  420MOL0     C56577   3.199   7.101   3.427  0.4024 -1.2584 -0.0788
  420MOL0     C56578   3.339   7.144   3.409 -0.3992 -0.1535 -0.3650
  420MOL0     C56579   3.396   7.113   3.275 -0.4794 -0.8165  0.3430
  420MOL0     C56580   3.541   7.144   3.264  0.1173 -0.2643 -0.1507
  420MOL0     C56581   3.576   7.301   3.262  0.0994  0.6000 -0.0705
  420MOL0     N56582   3.716   7.321   3.238  0.3711  0.4582 -0.5247
  420MOL0     C56583   3.797   7.392   3.320 -0.4728  0.5243  0.3006
  420MOL0     C56584   3.915   7.399   3.254  0.0465 -0.0641 -0.1912
  420MOL0     C56585   4.042   7.469   3.308  0.3429  0.5066  0.9124
  420MOL0     C56586   4.177   7.387   3.323 -0.9342  0.2283  0.5482
  420MOL0     C56587   4.248   7.356   3.188 -0.0621 -0.8213  0.2141
  420MOL0     C56588   4.280   7.481   3.099  0.3685  1.1288  0.6358
  420MOL0     O56589   4.345   7.587   3.170 -0.2715 -0.2438  0.2784
  420MOL0     C56590   4.484   7.592   3.171 -0.5546 -0.2632  0.1053
  420MOL0     C56591   4.579   7.486   3.143 -0.5538  0.0150 -0.4860
  420MOL0     C56592   4.714   7.510   3.135  0.0309 -0.6392 -0.0506
  420MOL0     C56593   4.760   7.641   3.162  0.1976  0.9947 -0.2123
  420MOL0     C56594   4.908   7.675   3.143 -0.5894  0.1767  0.2357
  420MOL0     O56595   4.946   7.800   3.181  0.1450 -0.2277 -0.5573
  420MOL0     C56596   5.080   7.831   3.148  0.6304 -0.7706 -0.4886
  420MOL0     C56597   5.166   7.818   3.252  0.5363  0.6560  0.2104
  420MOL0     C56598   5.303   7.834   3.233  0.2427 -0.3129  0.1227
  420MOL0     C56599   5.359   7.881   3.111 -0.4565 -0.3956  0.7208
  420MOL0     O56600   5.493   7.898   3.085  0.1795  0.5345 -0.5831
  420MOL0     C56601   5.558   7.999   3.167 -0.6845 -0.2492  0.0217
  420MOL0     C56602   5.707   7.997   3.141  0.5078  0.3089 -0.8405
  420MOL0     C56603   5.774   8.121   3.202 -0.2779  0.2998 -0.1199
  420MOL0     C56604   5.794   8.109   3.354 -0.5084 -0.5671 -0.1989
  420MOL0     C56605   5.894   8.209   3.400  0.5845 -0.6040  0.5394
  420MOL0     C56606   5.918   8.209   3.547 -0.7230 -0.1169  0.2807
  420MOL0     C56607   6.043   8.287   3.588  0.2844  0.1742  1.0113
  420MOL0     C56608   6.066   8.332   3.736 -0.5519  0.8940 -0.4770
  420MOL0    Cl56609   6.201   8.455   3.730 -0.1059 -0.2237 -0.4183
  420MOL0     C56610   5.266   7.901   3.007  0.3251  0.5379 -0.3210
  420MOL0     C56611   5.124   7.869   3.017 -0.2411 -0.6490  0.7127
  420MOL0     O56612   4.978   7.597   3.078  0.0241  0.1860 -0.0098
  420MOL0     C56613   4.678   7.740   3.209 -1.0932  0.0166  0.1083
  420MOL0     C56614   4.543   7.714   3.213  0.5436  0.8119  0.3389
  420MOL0     N56615   3.894   7.330   3.137  0.1890 -0.4548  0.7842
  420MOL0     N56616   3.776   7.288   3.128 -0.0684  0.2053  0.4380
  420MOL0     C56617   2.832   6.736   3.198 -0.0633 -0.9817 -0.4854
  420MOL0     C56618   2.719   6.679   3.134  0.8780 -0.5765 -0.0203
  420MOL0     C56619   2.420   6.340   3.019  0.5818  0.9596  0.0753
  420MOL0     C56620   2.394   6.372   2.885  0.4385  0.4232  0.4439
  420MOL0     C56621   2.288   6.308   2.818 -0.1244 -0.5236  0.0654
  420MOL0     C56622   2.206   6.213   2.870  0.4600  1.0287 -0.1990
  420MOL0     O56623   2.109   6.161   2.790  0.7073  0.4847  0.8161
  420MOL0     C56624   2.024   6.056   2.841 -0.1965  0.8421  0.0507
  420MOL0     C56625   1.926   6.015   2.743 -0.5227 -0.5512 -0.4387
  420MOL0     C56626   1.821   5.937   2.810 -0.1731 -0.3906  1.0812
  420MOL0     C56627   1.716   5.861   2.720 -0.4043  1.2003  0.0216
  420MOL0     C56628   1.651   5.948   2.626 -0.0110 -0.3118  0.2931
  420MOL0     C56629   1.589   6.020   2.548 -0.1588 -0.0386 -1.0028
  420MOL0     C56630   2.224   6.180   3.005  0.0977 -0.0267 -0.2047
  420MOL0     C56631   2.331   6.242   3.074 -0.6065 -0.6360  0.1697
  420MOL0     C56632   2.357   6.193   3.207 -0.9372  0.4876 -0.1947
  420MOL0     H56633   2.853   6.380   3.061  2.0259 -0.3579  0.0062
  420MOL0     H56634   3.043   6.482   3.192 -0.2533 -0.6473 -0.6541
  420MOL0     H56635   2.915   6.754   3.457  0.1230 -0.8182 -1.6194
  420MOL0     H56636   3.081   6.719   3.501  1.1828 -1.6380 -1.0226
  420MOL0     H56637   2.995   6.961   3.511 -0.1802 -0.0397 -0.7367
  420MOL0     H56638   2.995   6.970   3.329 -2.3943  0.0212  0.0696
  420MOL0     H56639   3.222   6.922   3.316 -2.4840  2.6122 -1.6398
  420MOL0     H56640   3.241   6.905   3.496 -0.5078 -3.2480 -1.7939
  420MOL0     H56641   3.129   7.144   3.355 -0.6992  2.5377  2.9339
  420MOL0     H56642   3.157   7.147   3.516  0.8071  1.9010 -1.3777
  420MOL0     H56643   3.347   7.253   3.419 -0.0503 -0.2274  0.1909
  420MOL0     H56644   3.399   7.090   3.482  0.4485  1.0514 -0.1404
  420MOL0     H56645   3.400   7.004   3.265  1.4387 -0.7321 -0.1051
  420MOL0     H56646   3.334   7.153   3.195  1.0102 -1.7698 -1.3611
  420MOL0     H56647   3.583   7.108   3.169  2.0648  1.3697  0.0223
  420MOL0     H56648   3.594   7.103   3.350 -0.2844 -0.3053  0.0793
  420MOL0     H56649   3.520   7.355   3.186 -1.9804  0.3591  1.2223
  420MOL0     H56650   3.559   7.333   3.365  4.0067 -0.8805  1.2516
  420MOL0     H56651   3.770   7.433   3.416 -1.6520 -3.0177  1.6466
  420MOL0     H56652   4.067   7.551   3.241 -3.6355  0.6263 -0.6619
  420MOL0     H56653   4.015   7.501   3.409 -1.3686 -1.5751  1.1861
  420MOL0     H56654   4.240   7.446   3.389 -0.0071 -0.2976  0.1560
  420MOL0     H56655   4.152   7.293   3.374 -4.1504 -0.9083 -2.6652
  420MOL0     H56656   4.181   7.287   3.137 -0.8765 -2.0664  2.7980
  420MOL0     H56657   4.341   7.304   3.214 -0.5537 -0.5102  2.8858
  420MOL0     H56658   4.189   7.513   3.048  1.0447  0.1314 -1.2988
  420MOL0     H56659   4.343   7.448   3.015 -1.5673  1.5568 -1.0657
  420MOL0     H56660   4.556   7.385   3.111  2.2809 -0.2449 -2.0707
  420MOL0     H56661   4.788   7.440   3.100  0.8447  0.9122 -1.5846
  420MOL0     H56662   5.141   7.783   3.351  2.8621  4.0104  2.1649
  420MOL0     H56663   5.364   7.809   3.319  1.3304  1.8515  0.0317
  420MOL0     H56664   5.521   8.099   3.140  2.3598  1.1004  0.4957
  420MOL0     H56665   5.543   7.999   3.275  2.2009  2.1374  0.5578
  420MOL0     H56666   5.736   7.902   3.189  0.2986  2.0582  3.1616
  420MOL0     H56667   5.723   8.009   3.034  1.5494  0.6964 -0.6590
  420MOL0     H56668   5.873   8.118   3.156 -0.7666 -1.3343 -1.1561
  420MOL0     H56669   5.717   8.211   3.178 -2.9746 -1.6003 -1.2991
  420MOL0     H56670   5.827   8.007   3.376 -1.8448 -0.7659  1.0205
  420MOL0     H56671   5.703   8.133   3.411  0.3577  0.5193  0.7816
  420MOL0     H56672   5.858   8.308   3.371 -0.6006 -1.0394  0.4535
  420MOL0     H56673   5.991   8.196   3.351  1.6434  2.1804  1.7072
  420MOL0     H56674   5.837   8.248   3.608 -0.2383  1.9051 -0.3040
  420MOL0     H56675   5.953   8.107   3.568  4.4862  1.2725 -0.1727
  420MOL0     H56676   6.038   8.379   3.530  1.4489  0.7483  1.7926
  420MOL0     H56677   6.123   8.220   3.555 -0.5110 -1.2079  1.7923
  420MOL0     H56678   5.969   8.370   3.767 -1.0511 -2.3250  2.5348
  420MOL0     H56679   6.074   8.244   3.800 -3.4768 -0.0661 -1.2779
  420MOL0     H56680   5.304   7.925   2.908  2.8236 -1.8549 -0.0518
  420MOL0     H56681   5.050   7.875   2.938  0.0073  0.2734  0.5352
  420MOL0     H56682   4.727   7.828   3.251  0.1014 -0.4343 -0.3124
  420MOL0     H56683   4.474   7.795   3.235 -1.4229 -0.7631  0.2128
  420MOL0     H56684   2.829   6.837   3.236 -0.9364 -0.1298 -2.6259
  420MOL0     H56685   2.626   6.734   3.128  1.4002  0.1508 -2.5950
  420MOL0     H56686   2.453   6.448   2.834  0.5207 -0.4808 -0.8479
  420MOL0     H56687   2.274   6.332   2.712 -0.7954 -2.2273 -0.2647
  420MOL0     H56688   1.973   6.103   2.926  0.1934  2.2969 -0.4824
  420MOL0     H56689   2.085   5.977   2.886 -3.0673 -0.7179  1.4766
  420MOL0     H56690   1.976   5.947   2.674 -0.3021 -0.7626 -0.0725
  420MOL0     H56691   1.878   6.097   2.689 -0.9448  0.1997  1.0222
  420MOL0     H56692   1.768   6.002   2.880 -0.2837 -0.0432  0.6798
  420MOL0     H56693   1.867   5.852   2.862  0.8210 -0.2312  0.4863
  420MOL0     H56694   1.766   5.775   2.673  1.0969  0.3456  2.9378
  420MOL0     H56695   1.645   5.820   2.792  3.2778 -2.1418  2.1660
  420MOL0     H56696   1.524   6.072   2.481 -3.1779  0.6258  2.1475
  420MOL0     H56697   2.166   6.100   3.050  2.1626 -1.8334 -0.5192
  420MOL0     H56698   2.345   6.282   3.270  0.4291  0.3571  0.2677
  420MOL0     H56699   2.278   6.123   3.236 -1.5122  1.6837  1.2219
  420MOL0     H56700   2.458   6.154   3.223 -1.4190 -0.0122  1.8897
  421MOL0     O56701   5.839  10.902   4.450 -0.0250 -0.0577 -0.1348
  421MOL0     C56702   5.731  10.918   4.508 -0.5835  0.0613  1.2043
  421MOL0     O56703   5.712  10.941   4.641  0.1017 -1.0436 -0.8478
  421MOL0     C56704   5.807  10.969   4.735  0.2355  0.2028  0.2927
  421MOL0     C56705   5.949  10.989   4.720 -0.3663  0.2744  0.2331
  421MOL0     C56706   6.029  11.047   4.822  0.2801  0.5776 -0.1921
  421MOL0     C56707   5.970  11.063   4.945 -0.4984 -0.2384 -0.0298
  421MOL0     O56708   6.063  11.102   5.036 -0.1324 -0.3939  0.5643
  421MOL0     C56709   6.022  11.148   5.164 -0.1587 -0.5557 -0.7037
  421MOL0     C56710   6.142  11.154   5.269 -1.0265  0.3577  0.7412
  421MOL0     C56711   6.247  11.249   5.223 -0.7923  0.1289  0.2468
  421MOL0     C56712   6.347  11.256   5.340 -0.3679  0.1277  0.0898
  421MOL0     C56713   6.458  11.359   5.327 -0.0416 -0.3885  0.1448
  421MOL0     C56714   6.536  11.370   5.452 -0.4262  0.4245 -0.0430
  421MOL0     C56715   6.637  11.482   5.437  0.5251  0.4406  0.1106
  421MOL0     C56716   6.751  11.472   5.330 -0.6503  0.8120  0.3114
  421MOL0     N56717   6.867  11.549   5.384  0.6991  0.2022  0.4960
  421MOL0     C56718   6.892  11.684   5.372 -0.5881  0.7147  0.2079
  421MOL0     C56719   7.018  11.703   5.402 -0.0126 -0.3914 -0.4148
  421MOL0     C56720   7.084  11.836   5.402  0.9720 -0.4709 -0.0472
  421MOL0     C56721   7.045  11.918   5.518  0.2831 -0.8384 -0.3402
  421MOL0     C56722   7.093  12.063   5.488  0.0800 -0.2727 -0.7091
  421MOL0     C56723   7.237  12.091   5.513  0.0277 -0.0560  0.3398
  421MOL0     O56724   7.323  12.066   5.396  0.5786  0.2196 -0.4659
  421MOL0     C56725   7.452  12.098   5.423  0.6537  0.2088  0.0982
  421MOL0     C56726   7.541  12.104   5.317  1.3451 -1.7235 -0.3119
  421MOL0     C56727   7.662  12.163   5.328 -0.1279  0.3093 -0.4789
  421MOL0     C56728   7.719  12.202   5.448 -0.7388  0.1100 -0.5658
  421MOL0     C56729   7.856  12.258   5.470 -0.3076  0.6824  0.7724
  421MOL0     O56730   7.881  12.307   5.596  0.2877 -0.3006 -0.0875
  421MOL0     C56731   8.000  12.368   5.620  0.0162 -1.6679  0.0196
  421MOL0     C56732   8.051  12.478   5.538  0.5906 -0.2345 -0.6266
  421MOL0     C56733   8.184  12.523   5.563 -0.1100 -0.5038  0.0642
  421MOL0     C56734   8.257  12.470   5.671  0.3607 -0.2514 -0.6943
  421MOL0     O56735   8.382  12.531   5.683  0.2696  0.1435  0.2588
  421MOL0     C56736   8.478  12.482   5.779  0.7940 -0.2173  0.8322
  421MOL0     C56737   8.604  12.563   5.783 -0.5796  0.3715  0.2672
  421MOL0     C56738   8.707  12.501   5.697 -0.2672 -0.9355  0.8742
  421MOL0     C56739   8.811  12.610   5.668  0.3524 -0.3090  0.2335
  421MOL0     C56740   8.920  12.541   5.583 -0.4767 -0.6762 -0.3836
  421MOL0     C56741   9.048  12.627   5.598 -0.8861  0.0467  0.6265
  421MOL0     C56742   9.169  12.611   5.490  1.0546  0.7306 -0.0073
  421MOL0     C56743   9.299  12.664   5.552  0.3855  0.9067  0.7166
  421MOL0    Cl56744   9.360  12.549   5.673 -0.1827  0.3090 -0.0433
  421MOL0     C56745   8.199  12.366   5.753  0.2240  0.3934  0.6512
  421MOL0     C56746   8.073  12.313   5.721  0.1047  0.4976  0.3637
  421MOL0     O56747   7.940  12.247   5.388  0.5896 -0.0730 -0.2193
  421MOL0     C56748   7.629  12.195   5.561 -0.7702  0.4949  0.9297
  421MOL0     C56749   7.505  12.139   5.554 -0.6834 -0.9389 -0.1921
  421MOL0     N56750   7.079  11.582   5.420 -0.1965  0.0294  0.3409
  421MOL0     N56751   6.985  11.493   5.427 -0.8926  0.4203 -0.0902
  421MOL0     C56752   5.834  11.040   4.964  0.2703 -0.4910  0.3618
  421MOL0     C56753   5.759  10.989   4.860  0.2425 -0.5475 -0.0922
  421MOL0     C56754   5.596  10.924   4.429 -0.8257  0.3290 -1.2359
  421MOL0     C56755   5.478  10.935   4.507  0.0790  0.2943 -0.3227
  421MOL0     C56756   5.358  10.949   4.434  0.5952  1.0730 -0.8736
  421MOL0     C56757   5.349  10.934   4.294  0.1342 -0.8593  0.7219
  421MOL0     O56758   5.224  10.972   4.243 -0.6827 -0.4921  0.0264
  421MOL0     C56759   5.198  10.936   4.111 -0.6413  0.0360  0.1983
  421MOL0     C56760   5.049  10.966   4.083 -0.2549  0.3384 -0.2803
  421MOL0     C56761   4.960  10.875   4.178  1.0158  0.3087  0.7287
  421MOL0     C56762   4.818  10.868   4.120 -0.2068 -0.3434  0.3070
  421MOL0     C56763   4.736  10.986   4.145 -0.9981  0.1034  0.9997
  421MOL0     C56764   4.661  11.081   4.157  0.1993  0.2008  0.2008
  421MOL0     C56765   5.468  10.897   4.223  0.3102  1.0357 -0.3534
  421MOL0     C56766   5.592  10.896   4.285 -0.2297  0.5482 -0.7794
  421MOL0     C56767   5.716  10.862   4.198 -0.2075 -0.7133  0.9506
  421MOL0     H56768   5.997  10.988   4.623 -1.9595  2.4718 -0.6717
  421MOL0     H56769   6.136  11.060   4.810  0.7011  0.4820  2.7122
  421MOL0     H56770   5.976  11.247   5.156 -1.0093 -0.8779  0.0021
  421MOL0     H56771   5.942  11.088   5.207 -1.1665  1.3000  0.1219
  421MOL0     H56772   6.197  11.060   5.269 -2.2292 -0.3776  0.5471
  421MOL0     H56773   6.105  11.179   5.369  0.2912  1.7658  0.9060
  421MOL0     H56774   6.220  11.353   5.208 -0.8720  0.5042  2.5941
  421MOL0     H56775   6.303  11.208   5.138 -0.2339  0.7576  0.3085
  421MOL0     H56776   6.294  11.274   5.434  1.5705  0.7099  1.1140
  421MOL0     H56777   6.392  11.158   5.360 -2.5226 -0.7163  1.1781
  421MOL0     H56778   6.518  11.324   5.243 -0.8383 -0.7371 -0.2922
  421MOL0     H56779   6.416  11.452   5.290  0.2560 -1.2143 -2.4378
  421MOL0     H56780   6.464  11.390   5.532  0.2627 -0.9284  0.9594
  421MOL0     H56781   6.587  11.275   5.472  0.5481  0.6474 -1.3482
  421MOL0     H56782   6.679  11.493   5.537 -0.0353 -2.7693  0.8216
  421MOL0     H56783   6.583  11.575   5.417 -1.9149 -0.4658  1.9667
  421MOL0     H56784   6.782  11.368   5.313 -0.5585  1.0783 -1.2844
  421MOL0     H56785   6.710  11.513   5.238 -0.3659 -1.5363 -0.9556
  421MOL0     H56786   6.823  11.761   5.340  1.2026  1.9755 -0.7869
  421MOL0     H56787   7.193  11.831   5.396  1.2324  2.4827  0.5118
  421MOL0     H56788   7.059  11.882   5.306  1.0134 -0.7348 -0.1839
  421MOL0     H56789   6.936  11.922   5.531  0.2706 -1.2064 -0.2993
  421MOL0     H56790   7.093  11.881   5.609  1.8120 -1.2753 -1.2791
  421MOL0     H56791   7.044  12.138   5.552  1.1132  0.0738 -0.3022
  421MOL0     H56792   7.058  12.090   5.388 -1.1326  0.8662 -0.0271
  421MOL0     H56793   7.271  12.028   5.597  2.0366 -0.8081 -0.9677
  421MOL0     H56794   7.251  12.197   5.536  0.6087 -0.2861  1.1048
  421MOL0     H56795   7.506  12.066   5.222  1.3353  0.4627 -1.2552
  421MOL0     H56796   7.722  12.168   5.238 -0.1205 -0.8073 -0.5397
  421MOL0     H56797   7.981  12.524   5.470  1.1532  3.3361  0.9748
  421MOL0     H56798   8.230  12.596   5.498 -0.7699 -0.3996 -0.2954
  421MOL0     H56799   8.431  12.500   5.876 -0.9322  1.2973 -0.2354
  421MOL0     H56800   8.497  12.375   5.765  0.8102 -0.1695  0.4922
  421MOL0     H56801   8.588  12.668   5.754 -0.7766  0.3316  0.2305
  421MOL0     H56802   8.637  12.565   5.887  0.2370  2.3751  0.0096
  421MOL0     H56803   8.762  12.423   5.752  4.1315  1.0489 -0.2684
  421MOL0     H56804   8.658  12.466   5.606 -2.5848  0.6930  1.4174
  421MOL0     H56805   8.850  12.647   5.764 -1.3676 -0.5419  1.0610
  421MOL0     H56806   8.774  12.691   5.605  4.0926  1.2926 -0.2128
  421MOL0     H56807   8.888  12.521   5.481 -0.0048 -1.1162 -0.4495
  421MOL0     H56808   8.949  12.447   5.630 -0.8392 -0.8331 -0.4741
  421MOL0     H56809   9.016  12.731   5.590 -3.9836 -0.9098 -1.2055
  421MOL0     H56810   9.090  12.607   5.697  0.5841  1.1019  0.2456
  421MOL0     H56811   9.149  12.671   5.401  2.6065  1.0440 -0.1627
  421MOL0     H56812   9.176  12.507   5.456 -0.0287  0.1247  1.4624
  421MOL0     H56813   9.384  12.673   5.484  0.8947 -1.8518  0.8749
  421MOL0     H56814   9.287  12.765   5.594 -3.0589  1.4896 -1.2824
  421MOL0     H56815   8.258  12.327   5.835  0.9272  1.2577  0.5788
  421MOL0     H56816   8.023  12.232   5.773  1.1697 -1.4154 -1.4499
  421MOL0     H56817   7.659  12.229   5.659 -1.7403  0.2252  1.3359
  421MOL0     H56818   7.445  12.153   5.644 -2.1194  1.0609 -1.3767
  421MOL0     H56819   5.785  11.045   5.061  2.0710 -1.9501  1.4315
  421MOL0     H56820   5.656  10.973   4.890  0.1008  1.0499  0.3910
  421MOL0     H56821   5.476  10.938   4.616 -0.0263 -0.7644 -0.2833
  421MOL0     H56822   5.266  10.959   4.490  0.3683  3.1202 -1.5439
  421MOL0     H56823   5.220  10.830   4.098  1.5279 -0.0018  3.0274
  421MOL0     H56824   5.268  10.993   4.049  0.9898  0.9338  2.7008
  421MOL0     H56825   5.040  10.948   3.976  4.4359 -1.5421 -0.5752
  421MOL0     H56826   5.043  11.073   4.107 -0.6468  0.4763 -0.9655
  421MOL0     H56827   4.945  10.914   4.279 -3.8681 -1.2081  0.8795
  421MOL0     H56828   5.000  10.774   4.192 -3.9928 -2.0822  0.0010
  421MOL0     H56829   4.813  10.853   4.012  0.7459  1.3738 -0.0066
  421MOL0     H56830   4.771  10.781   4.166  1.1065 -1.5379 -0.5147
  421MOL0     H56831   4.591  11.161   4.172  0.3363  0.3054  0.2840
  421MOL0     H56832   5.464  10.882   4.116 -0.8581 -0.0904 -0.1768
  421MOL0     H56833   5.777  10.949   4.172  0.6370 -1.3420  0.7854
  421MOL0     H56834   5.775  10.781   4.242 -1.0670 -1.1789  1.2608
  421MOL0     H56835   5.689  10.818   4.102  1.1377  0.2802  0.0695
  422MOL0     O56836   6.873   9.388   8.264  0.8861  0.0785  0.4039
  422MOL0     C56837   6.930   9.333   8.356  0.0232 -0.0207  0.9106
  422MOL0     O56838   7.071   9.343   8.375 -1.0005 -0.2496  0.7420
  422MOL0     C56839   7.149   9.400   8.276  0.1579 -0.2455  0.0832
  422MOL0     C56840   7.220   9.323   8.184  1.0524  0.0881 -0.1081
  422MOL0     C56841   7.308   9.373   8.089 -0.5223  0.0810 -0.1880
  422MOL0     C56842   7.321   9.511   8.083 -0.0641 -0.5200 -0.5126
  422MOL0     O56843   7.411   9.555   7.998 -0.3373  0.3324 -0.1842
  422MOL0     C56844   7.453   9.690   8.007 -0.0644  0.1918 -0.7852
  422MOL0     C56845   7.587   9.710   7.929 -0.1000 -0.3778 -0.2042
  422MOL0     C56846   7.544   9.695   7.777  0.2653 -0.3239  0.2860
  422MOL0     C56847   7.674   9.693   7.690  1.2920  0.3626 -0.7428
  422MOL0     C56848   7.646   9.679   7.538 -0.5967 -0.6291  0.3700
  422MOL0     C56849   7.765   9.732   7.458 -0.3299 -1.3698 -0.7143
  422MOL0     C56850   7.858   9.614   7.426 -0.0213  0.5572 -0.1874
  422MOL0     C56851   7.804   9.549   7.299 -0.0738 -0.6152  0.3359
  422MOL0     N56852   7.902   9.459   7.239  0.2410  0.4483 -0.1968
  422MOL0     C56853   8.016   9.504   7.171  0.3160 -0.7267 -0.1971
  422MOL0     C56854   8.089   9.392   7.159  0.2798  0.3397  0.5322
  422MOL0     C56855   8.228   9.385   7.098  0.1298  0.6315 -0.5736
  422MOL0     C56856   8.339   9.439   7.192  0.0035 -0.7366  0.0089
  422MOL0     C56857   8.472   9.474   7.131 -0.7685  0.4021  0.2392
  422MOL0     C56858   8.565   9.533   7.229 -0.3116 -0.0376 -0.4249
  422MOL0     O56859   8.689   9.565   7.151 -0.2136 -1.4177 -0.1734
  422MOL0     C56860   8.789   9.621   7.232 -0.0824 -0.1572 -0.6593
  422MOL0     C56861   8.917   9.628   7.179 -0.2731  0.0730  0.2843
  422MOL0     C56862   9.018   9.695   7.249  0.4140  0.0861 -0.3163
  422MOL0     C56863   8.992   9.757   7.379  0.9389  0.2246 -0.2691
  422MOL0     C56864   9.080   9.843   7.450 -0.3308 -0.2202 -0.1332
  422MOL0     O56865   9.194   9.858   7.381  0.6614  0.1971  0.0120
  422MOL0     C56866   9.297   9.943   7.412 -0.5770  1.1715 -0.3247
  422MOL0     C56867   9.402   9.957   7.322 -0.1070  0.1973  0.2394
  422MOL0     C56868   9.530  10.008   7.347  0.1026 -0.2438  0.3444
  422MOL0     C56869   9.552  10.079   7.465 -0.1553 -0.2131 -0.8652
  422MOL0     O56870   9.670  10.141   7.494 -0.0557  0.0927 -0.0530
  422MOL0     C56871   9.670  10.270   7.562  0.5945  0.1573 -0.3154
  422MOL0     C56872   9.819  10.321   7.562  0.2640 -0.3514  0.3164
  422MOL0     C56873   9.931  10.232   7.625  0.4292 -0.8352 -0.7401
  422MOL0     C56874  10.072  10.275   7.587 -0.0174 -0.2980 -0.0095
  422MOL0     C56875  10.182  10.191   7.656  0.4765 -0.5640  0.5252
  422MOL0     C56876  10.322  10.216   7.592 -0.0119  0.1507 -0.3027
  422MOL0     C56877  10.426  10.125   7.663  0.1080 -0.2651  0.2372
  422MOL0     C56878  10.449  10.165   7.805  0.0011 -0.3071  0.0624
  422MOL0    Cl56879  10.586  10.060   7.885 -0.0711  0.0148 -0.0619
  422MOL0     C56880   9.448  10.079   7.560 -0.2042 -0.5903 -0.0606
  422MOL0     C56881   9.329  10.008   7.539  0.2557 -0.0866 -0.2181
  422MOL0     O56882   9.049   9.890   7.562 -0.1405  0.3710  0.9325
  422MOL0     C56883   8.861   9.738   7.435  0.5455  0.4681  0.3444
  422MOL0     C56884   8.771   9.667   7.365  0.4090  0.3755  0.7194
  422MOL0     N56885   8.019   9.284   7.213 -0.1574 -0.5714  0.1173
  422MOL0     N56886   7.904   9.326   7.251 -0.3639 -0.0183 -0.5929
  422MOL0     C56887   7.257   9.598   8.180 -0.0412  0.4172  0.2163
  422MOL0     C56888   7.172   9.537   8.272  0.6398 -0.5097 -0.5786
  422MOL0     C56889   6.846   9.250   8.445  0.1315 -0.5304  0.1155
  422MOL0     C56890   6.702   9.280   8.445  0.1136 -0.3622 -0.1529
  422MOL0     C56891   6.618   9.202   8.528  0.0617  0.9497 -0.1842
  422MOL0     C56892   6.672   9.111   8.608 -0.0769  1.5124 -0.1326
  422MOL0     O56893   6.595   9.038   8.694 -0.2212  0.7523 -0.5658
  422MOL0     C56894   6.472   8.979   8.644  0.2957  0.4196  0.3789
  422MOL0     C56895   6.432   8.868   8.741  0.4367  0.2434  0.7458
  422MOL0     C56896   6.400   8.923   8.879  0.6956 -0.9410  0.2322
  422MOL0     C56897   6.389   8.808   8.968 -0.0123  0.0670 -0.0929
  422MOL0     C56898   6.483   8.691   8.960  0.0597 -0.1352  0.1349
  422MOL0     C56899   6.542   8.590   8.961 -1.2062 -0.1171 -1.1485
  422MOL0     C56900   6.810   9.088   8.621  0.8198 -0.5469  0.0231
  422MOL0     C56901   6.898   9.158   8.543  0.1067 -0.2232 -0.1794
  422MOL0     C56902   7.039   9.109   8.564 -0.4327  0.3354  0.2335
  422MOL0     H56903   7.216   9.217   8.208  0.4279  0.2739  0.6273
  422MOL0     H56904   7.358   9.305   8.021  1.2721 -0.6122  1.7174
  422MOL0     H56905   7.380   9.762   7.968 -1.4699 -0.9917 -0.4327
  422MOL0     H56906   7.474   9.722   8.110 -1.0538  1.6162 -0.9863
  422MOL0     H56907   7.658   9.637   7.970 -1.0154 -0.4609  1.2783
  422MOL0     H56908   7.632   9.809   7.937 -0.2661 -0.1875 -1.3321
  422MOL0     H56909   7.482   9.782   7.752  0.5947 -0.1169  0.1837
  422MOL0     H56910   7.487   9.603   7.766  1.4498 -0.7979 -2.6119
  422MOL0     H56911   7.727   9.787   7.709  1.8516 -0.1688  0.4594
  422MOL0     H56912   7.734   9.614   7.736 -0.1183  0.0506  0.6271
  422MOL0     H56913   7.630   9.571   7.524 -0.1314 -0.8193  1.2233
  422MOL0     H56914   7.559   9.737   7.506  0.4252 -0.0340 -1.4769
  422MOL0     H56915   7.737   9.783   7.366 -1.3376 -3.5790 -1.7025
  422MOL0     H56916   7.817   9.815   7.507 -3.3537  1.7963 -2.4234
  422MOL0     H56917   7.860   9.544   7.510 -4.2852  2.7159  2.0063
  422MOL0     H56918   7.957   9.652   7.398 -1.1587  1.8101 -2.9004
  422MOL0     H56919   7.708   9.498   7.311 -0.9194  0.6369 -0.7757
  422MOL0     H56920   7.785   9.632   7.229  0.7131  1.2288  2.2142
  422MOL0     H56921   8.040   9.605   7.139 -0.1776 -1.5227 -3.5226
  422MOL0     H56922   8.247   9.285   7.060  0.2282 -1.0051  3.3349
  422MOL0     H56923   8.230   9.452   7.011 -3.6365 -0.7008 -1.8959
  422MOL0     H56924   8.293   9.533   7.223 -0.6576 -0.2783 -2.1788
  422MOL0     H56925   8.357   9.372   7.277  1.0220 -2.0922 -1.2431
  422MOL0     H56926   8.462   9.538   7.043 -2.1585 -2.3237 -1.7448
  422MOL0     H56927   8.518   9.383   7.090  1.4754  0.1307  3.0408
  422MOL0     H56928   8.581   9.455   7.305  1.1609 -2.1027 -2.7215
  422MOL0     H56929   8.540   9.626   7.281 -0.0041 -1.4451  2.4617
  422MOL0     H56930   8.939   9.595   7.078  0.3573 -0.0091  0.4476
  422MOL0     H56931   9.117   9.702   7.207 -0.1457 -0.0813 -1.7168
  422MOL0     H56932   9.395   9.910   7.224 -0.6582 -1.5315  1.0786
  422MOL0     H56933   9.610  10.006   7.273 -0.2400 -2.5383 -0.0221
  422MOL0     H56934   9.597  10.336   7.516  0.4967  0.8714  0.8318
  422MOL0     H56935   9.655  10.265   7.670  2.6801  0.3781  0.0211
  422MOL0     H56936   9.862  10.347   7.464 -1.6556  0.0228 -0.4834
  422MOL0     H56937   9.828  10.421   7.604  2.2649  0.4803 -1.8520
  422MOL0     H56938   9.918  10.252   7.731  4.6258 -1.6934  0.0891
  422MOL0     H56939   9.919  10.126   7.598 -0.5346 -1.0069  0.3026
  422MOL0     H56940  10.083  10.378   7.621 -2.3643 -0.1519  0.4925
  422MOL0     H56941  10.070  10.265   7.478 -3.2742  2.2091 -0.3192
  422MOL0     H56942  10.159  10.084   7.665 -1.6273 -0.6374 -3.5037
  422MOL0     H56943  10.190  10.233   7.757 -0.8117  0.9125  0.0552
  422MOL0     H56944  10.311  10.194   7.485 -0.2345  2.8936 -0.9375
  422MOL0     H56945  10.349  10.322   7.600 -0.1026  0.1291  0.3403
  422MOL0     H56946  10.521  10.132   7.610 -0.8950  1.0884 -1.5276
  422MOL0     H56947  10.397  10.021   7.642 -0.4901  0.0557 -0.6019
  422MOL0     H56948  10.468  10.273   7.805 -0.1747 -0.2634 -1.2846
  422MOL0     H56949  10.362  10.155   7.870  0.3240  0.5922  0.6544
  422MOL0     H56950   9.465  10.123   7.657  1.8606  0.4826 -0.8690
  422MOL0     H56951   9.265   9.997   7.626  0.3332 -0.0868 -0.1616
  422MOL0     H56952   8.841   9.762   7.539  0.5918 -1.8258  0.9403
  422MOL0     H56953   8.675   9.660   7.414 -0.1348  0.7827 -0.2734
  422MOL0     H56954   7.264   9.706   8.183  1.4262  0.3604 -0.2900
  422MOL0     H56955   7.129   9.602   8.348 -0.2794  1.7827 -2.9336
  422MOL0     H56956   6.684   9.371   8.390 -0.8909 -0.8243 -0.6108
  422MOL0     H56957   6.513   9.225   8.544  0.0217  0.4228  0.3607
  422MOL0     H56958   6.477   8.957   8.537 -2.3234  3.7524 -0.6165
  422MOL0     H56959   6.397   9.059   8.647 -0.5853 -0.2991 -1.2880
  422MOL0     H56960   6.508   8.789   8.732  1.3391  1.1335  0.3939
  422MOL0     H56961   6.336   8.826   8.708  0.4257 -0.6981  1.8990
  422MOL0     H56962   6.307   8.981   8.882 -0.9824 -3.3748 -0.7972
  422MOL0     H56963   6.484   8.979   8.920 -0.6381  1.0029  0.4964
  422MOL0     H56964   6.396   8.844   9.071 -1.3417  1.1329 -0.3550
  422MOL0     H56965   6.289   8.769   8.947  0.5774 -1.4659 -0.1960
  422MOL0     H56966   6.598   8.499   8.947  3.2726  2.0236  1.0718
  422MOL0     H56967   6.840   8.999   8.674 -1.2736 -2.5531 -1.9027
  422MOL0     H56968   7.063   9.021   8.503 -2.1889  0.5977 -0.8904
  422MOL0     H56969   7.116   9.182   8.537 -0.7028  0.5877  0.1444
  422MOL0     H56970   7.060   9.080   8.667  2.0650  1.4496  0.1137
  423MOL0     O56971   6.003   5.228   2.529  0.2532  0.0165 -0.5248
  423MOL0     C56972   5.912   5.214   2.613  0.2039  0.9147  0.0623
  423MOL0     O56973   5.895   5.096   2.686 -0.6909 -0.0579  0.2288
  423MOL0     C56974   6.005   5.017   2.686  0.0112 -1.3590 -0.0677
  423MOL0     C56975   6.044   4.950   2.575  0.6922  0.5199 -0.7228
  423MOL0     C56976   6.161   4.874   2.585  0.4507  0.4072 -0.2975
  423MOL0     C56977   6.235   4.864   2.709 -0.5588 -0.4009  0.2378
  423MOL0     O56978   6.335   4.764   2.721 -0.2524 -0.5874  0.2647
  423MOL0     C56979   6.404   4.747   2.847 -0.2601  0.3307 -1.1476
  423MOL0     C56980   6.506   4.851   2.873  0.4117  0.2443 -0.4455
  423MOL0     C56981   6.618   4.870   2.773  0.4477  1.1272 -0.0259
  423MOL0     C56982   6.746   4.805   2.828  0.6218  0.3505  1.0847
  423MOL0     C56983   6.861   4.832   2.726  0.1939 -0.0346  0.8147
  423MOL0     C56984   6.994   4.818   2.806 -0.4203  0.4443  0.1763
  423MOL0     C56985   7.112   4.827   2.715  0.4156 -0.1702  2.1978
  423MOL0     C56986   7.248   4.837   2.784 -0.1414  0.2634  0.2747
  423MOL0     N56987   7.303   4.699   2.807  0.4322  0.3311  0.1027
  423MOL0     C56988   7.401   4.630   2.734  0.8783  0.3222  0.4438
  423MOL0     C56989   7.408   4.519   2.814  0.0901  0.1189 -0.4892
  423MOL0     C56990   7.506   4.411   2.768 -0.1117  0.6325 -0.5884
  423MOL0     C56991   7.565   4.326   2.892  0.3919 -0.4143 -0.3646
  423MOL0     C56992   7.663   4.219   2.853  0.8492  0.2008 -1.2708
  423MOL0     C56993   7.764   4.192   2.964  0.5197  0.8568  0.3033
  423MOL0     O56994   7.852   4.092   2.903  0.1194 -0.6909 -0.3740
  423MOL0     C56995   7.977   4.142   2.869 -0.1693  0.1797 -0.4606
  423MOL0     C56996   8.026   4.103   2.744  0.1845 -0.0919  0.5417
  423MOL0     C56997   8.135   4.162   2.692 -0.1854 -0.5757  0.4613
  423MOL0     C56998   8.221   4.250   2.765 -1.9571  0.8116  0.1128
  423MOL0     C56999   8.353   4.299   2.711  0.0690 -0.8429  0.0915
  423MOL0     O57000   8.386   4.239   2.595  0.3876  0.3202 -0.3683
  423MOL0     C57001   8.513   4.226   2.542  0.1023  0.0748 -0.1171
  423MOL0     C57002   8.637   4.225   2.612  0.8386 -0.0434 -0.6629
  423MOL0     C57003   8.763   4.208   2.554 -0.1406 -0.0383 -0.3977
  423MOL0     C57004   8.763   4.193   2.409  0.0451 -0.0463  0.3613
  423MOL0     O57005   8.894   4.162   2.370 -0.5372 -0.0301  0.1287
  423MOL0     C57006   8.913   4.062   2.261  1.1526  0.2344  0.4108
  423MOL0     C57007   9.057   4.026   2.252  0.2669 -0.7764  0.2316
  423MOL0     C57008   9.095   3.943   2.376  0.8857  0.0489  0.1770
  423MOL0     C57009   9.230   3.882   2.350 -0.9346  0.2729  0.8503
  423MOL0     C57010   9.313   3.845   2.475  0.7537 -0.1078 -0.2201
  423MOL0     C57011   9.430   3.763   2.435 -0.8309  0.2698  0.4345
  423MOL0     C57012   9.508   3.701   2.555 -0.2815  0.0382 -0.8559
  423MOL0     C57013   9.662   3.711   2.546 -0.2866 -0.6400 -0.3731
  423MOL0    Cl57014   9.735   3.593   2.442  0.2644  0.1304  0.3040
  423MOL0     C57015   8.638   4.185   2.339 -0.4673 -0.2464 -0.0435
  423MOL0     C57016   8.518   4.203   2.405  0.2069 -0.0979  0.5407
  423MOL0     O57017   8.425   4.378   2.775  0.3794  0.1479 -0.1540
  423MOL0     C57018   8.174   4.282   2.895 -0.6794 -0.0042 -0.2207
  423MOL0     C57019   8.053   4.229   2.947 -0.7682 -0.2324 -0.0611
  423MOL0     N57020   7.324   4.519   2.920 -0.0134 -0.0397 -0.0876
  423MOL0     N57021   7.257   4.629   2.919  0.3414 -0.8650 -0.1409
  423MOL0     C57022   6.197   4.941   2.820 -0.1177  0.7696 -0.4727
  423MOL0     C57023   6.085   5.019   2.802 -0.0557  0.8660 -0.6239
  423MOL0     C57024   5.791   5.306   2.624 -0.4029  0.0721 -0.6226
  423MOL0     C57025   5.675   5.252   2.684 -0.4391  0.1262  0.2670
  423MOL0     C57026   5.576   5.337   2.744 -0.1121  0.2724  0.3481
  423MOL0     C57027   5.585   5.473   2.723  0.1210 -0.5329  0.2235
  423MOL0     O57028   5.496   5.567   2.772  0.5478  0.3054  0.1655
  423MOL0     C57029   5.356   5.534   2.774  0.5991 -0.9342  0.2688
  423MOL0     C57030   5.268   5.642   2.710  0.2531  0.6144  0.8775
  423MOL0     C57031   5.324   5.704   2.581 -0.9279  0.3915  0.1735
  423MOL0     C57032   5.353   5.598   2.472 -0.8174 -0.6798 -0.0504
  423MOL0     C57033   5.232   5.581   2.395 -0.1781  0.2271 -0.6600
  423MOL0     C57034   5.128   5.551   2.332  0.4036  0.3619 -0.4417
  423MOL0     C57035   5.702   5.528   2.652  0.1875 -0.1917  0.1969
  423MOL0     C57036   5.808   5.445   2.600  0.1819 -0.1414 -0.5996
  423MOL0     C57037   5.936   5.501   2.539 -0.5389  0.0156 -0.3006
  423MOL0     H57038   5.979   4.943   2.488  0.1191  1.2900 -0.3712
  423MOL0     H57039   6.206   4.815   2.506  0.4736 -0.1302  0.1161
  423MOL0     H57040   6.340   4.745   2.936 -0.6966  0.8029 -1.4394
  423MOL0     H57041   6.457   4.652   2.842 -0.6849 -0.1140  1.2662
  423MOL0     H57042   6.555   4.841   2.970  3.0347  3.8635 -1.1945
  423MOL0     H57043   6.459   4.949   2.874 -1.0571 -0.4156 -1.4912
  423MOL0     H57044   6.641   4.975   2.754  2.7147  1.2938  2.9384
  423MOL0     H57045   6.592   4.817   2.681  1.6880 -3.2731  1.8877
  423MOL0     H57046   6.774   4.850   2.924 -0.5659  1.1841  1.0596
  423MOL0     H57047   6.726   4.700   2.847 -0.5472  0.5591  1.0978
  423MOL0     H57048   6.844   4.752   2.654  0.3737 -0.5716  1.3564
  423MOL0     H57049   6.839   4.928   2.680 -0.4274  0.1020  1.3766
  423MOL0     H57050   7.001   4.897   2.882  2.0313  2.1220 -1.5949
  423MOL0     H57051   6.986   4.715   2.841 -1.1865  0.4610  0.0685
  423MOL0     H57052   7.102   4.916   2.653  1.8589 -1.8097 -0.5574
  423MOL0     H57053   7.114   4.747   2.640  0.1144 -1.5387  3.5892
  423MOL0     H57054   7.320   4.897   2.728 -0.5610  1.7510  1.2682
  423MOL0     H57055   7.231   4.898   2.873 -0.5816  2.5624 -1.3064
  423MOL0     H57056   7.455   4.663   2.646  1.2081 -0.3142  0.4003
  423MOL0     H57057   7.455   4.343   2.699 -0.3656 -1.3319  1.4476
  423MOL0     H57058   7.587   4.455   2.708  1.6903  0.6531  1.7262
  423MOL0     H57059   7.605   4.382   2.976 -2.7448 -0.6575  1.4572
  423MOL0     H57060   7.474   4.279   2.930 -1.4588  0.2926 -3.5746
  423MOL0     H57061   7.718   4.248   2.763  2.8042 -2.3690 -1.0280
  423MOL0     H57062   7.607   4.128   2.830 -0.0942  0.0298  1.3029
  423MOL0     H57063   7.711   4.143   3.046 -0.3436  0.8222 -0.2660
  423MOL0     H57064   7.814   4.287   2.985  0.9589  0.5674  0.5911
  423MOL0     H57065   7.971   4.041   2.674 -1.2749 -0.6657  2.1181
  423MOL0     H57066   8.158   4.132   2.590  0.1625  0.3845  0.2461
  423MOL0     H57067   8.651   4.241   2.719  4.1715  2.9907 -1.3621
  423MOL0     H57068   8.852   4.207   2.615 -0.3554  1.9913  0.0112
  423MOL0     H57069   8.847   3.979   2.287 -0.0282  1.3084  0.9312
  423MOL0     H57070   8.879   4.111   2.170 -0.9331  2.5065  2.2998
  423MOL0     H57071   9.082   3.970   2.162  1.9565  0.9342 -0.4187
  423MOL0     H57072   9.111   4.119   2.232  0.5750 -1.2477 -1.2497
  423MOL0     H57073   9.097   4.019   2.455  0.4941  1.5633 -1.2121
  423MOL0     H57074   9.023   3.865   2.403  2.2734 -0.6269  2.2525
  423MOL0     H57075   9.297   3.956   2.306 -0.1502  0.0458  1.6589
  423MOL0     H57076   9.217   3.792   2.289 -0.0004  0.3148  0.5839
  423MOL0     H57077   9.247   3.803   2.552 -2.6745  0.8013 -2.4194
  423MOL0     H57078   9.358   3.934   2.520 -0.5449  0.5773 -0.2061
  423MOL0     H57079   9.402   3.674   2.378  3.8747 -0.8009 -0.6269
  423MOL0     H57080   9.507   3.820   2.382  1.1167 -1.7033  1.0404
  423MOL0     H57081   9.470   3.599   2.572 -2.5432  0.6299 -1.9345
  423MOL0     H57082   9.482   3.765   2.640 -1.2620 -1.3112 -0.0985
  423MOL0     H57083   9.681   3.812   2.510  1.7498 -1.1800 -0.9300
  423MOL0     H57084   9.713   3.700   2.642 -0.5149 -0.6429 -0.2512
  423MOL0     H57085   8.644   4.168   2.232 -1.2467 -1.0334  0.0286
  423MOL0     H57086   8.426   4.213   2.350  1.1696 -0.0235 -1.1298
  423MOL0     H57087   8.237   4.344   2.959  0.3640 -0.7585 -0.5092
  423MOL0     H57088   8.024   4.245   3.050 -2.8484  1.5295 -0.8475
  423MOL0     H57089   6.246   4.944   2.916  0.5222 -0.9399 -0.7089
  423MOL0     H57090   6.052   5.074   2.889 -0.7261  0.6728 -0.7543
  423MOL0     H57091   5.658   5.145   2.694  0.2264  0.2061  4.2787
  423MOL0     H57092   5.488   5.304   2.798 -0.3151  0.0925 -0.0911
  423MOL0     H57093   5.330   5.522   2.879  0.0055 -1.4327  0.0778
  423MOL0     H57094   5.334   5.439   2.723  0.2371 -0.1597 -1.0661
  423MOL0     H57095   5.240   5.721   2.780  0.8153 -0.0515  1.8813
  423MOL0     H57096   5.172   5.599   2.681  0.6942  0.6281 -0.6921
  423MOL0     H57097   5.421   5.751   2.597  0.6789 -2.2045 -1.3885
  423MOL0     H57098   5.260   5.787   2.550 -0.5766 -0.0532 -1.8554
  423MOL0     H57099   5.428   5.620   2.396 -1.4590 -2.7053 -1.3336
  423MOL0     H57100   5.385   5.504   2.518  0.1466 -1.4888 -2.2657
  423MOL0     H57101   5.029   5.541   2.290 -0.0864 -1.7246  1.0049
  423MOL0     H57102   5.691   5.632   2.625 -0.2487 -1.2940 -4.9239
  423MOL0     H57103   5.929   5.472   2.434 -1.5047 -1.6265  0.1790
  423MOL0     H57104   5.938   5.610   2.542 -2.5001  0.0808  1.9214
  423MOL0     H57105   6.026   5.468   2.591 -0.5992  1.5515  0.8309
  424MOL0     O57106   7.481   0.933   4.945 -0.1631 -0.4592 -0.2092
  424MOL0     C57107   7.553   0.838   4.967 -0.8344 -0.8569  0.4387
  424MOL0     O57108   7.688   0.846   4.982  0.0897 -0.2854 -0.1016
  424MOL0     C57109   7.750   0.965   5.015  0.0010  0.2044  0.2860
  424MOL0     C57110   7.886   0.958   5.038 -0.1623  0.5403 -0.0108
  424MOL0     C57111   7.963   1.067   5.080  0.4631 -0.3578 -0.7065
  424MOL0     C57112   7.901   1.190   5.115 -0.3870 -0.1531 -0.9270
  424MOL0     O57113   7.951   1.295   5.187 -0.2464  0.3354 -0.0593
  424MOL0     C57114   8.088   1.320   5.174  0.0991 -0.5738  0.0212
  424MOL0     C57115   8.110   1.448   5.236 -0.3174 -0.1431 -0.5031
  424MOL0     C57116   8.255   1.490   5.247 -0.1389 -0.3764  0.6594
  424MOL0     C57117   8.268   1.634   5.307 -0.3242 -0.9249  0.0638
  424MOL0     C57118   8.412   1.702   5.296  0.1736  0.1972  0.4398
  424MOL0     C57119   8.407   1.845   5.351 -0.0004 -0.8237 -0.2476
  424MOL0     C57120   8.544   1.905   5.344 -0.6817  0.2179 -0.3824
  424MOL0     C57121   8.565   1.972   5.209 -0.3565  0.2098  0.2580
  424MOL0     N57122   8.677   2.064   5.217 -0.4321  0.0293 -0.1952
  424MOL0     C57123   8.681   2.184   5.289  0.3972 -0.4817  0.0708
  424MOL0     C57124   8.813   2.202   5.305  0.4462 -0.6527 -0.3568
  424MOL0     C57125   8.863   2.325   5.384  0.2802 -0.1095 -0.0531
  424MOL0     C57126   9.015   2.347   5.378  0.3027 -0.4691  0.5683
  424MOL0     C57127   9.062   2.449   5.278 -0.3964  0.0861  0.9251
  424MOL0     C57128   9.059   2.398   5.133 -0.5224  0.3166  0.1342
  424MOL0     O57129   9.080   2.515   5.049 -0.0700  0.4205  0.2152
  424MOL0     C57130   9.203   2.576   5.041  0.7666  0.5173  0.5720
  424MOL0     C57131   9.188   2.700   4.998  0.9715 -0.0749  0.8808
  424MOL0     C57132   9.302   2.775   4.989  0.0065 -0.1644 -0.3182
  424MOL0     C57133   9.429   2.727   5.028 -0.1334  0.4305  0.1692
  424MOL0     C57134   9.548   2.811   5.008 -0.1561  0.1396  0.2127
  424MOL0     O57135   9.676   2.754   5.028  0.2114 -0.1669 -0.1526
  424MOL0     C57136   9.794   2.832   5.005  0.7812  0.4709 -0.5374
  424MOL0     C57137   9.917   2.750   5.008  0.0366 -0.4681  0.2624
  424MOL0     C57138  10.051   2.801   5.000 -0.6551  0.1592  0.4292
  424MOL0     C57139  10.062   2.942   4.979  0.3984 -0.2724 -0.1023
  424MOL0     O57140  10.179   3.019   4.968 -0.0423 -0.5207  0.2497
  424MOL0     C57141  10.299   2.965   5.017  0.4672  0.0273  0.4167
  424MOL0     C57142  10.397   3.066   5.073  0.2491 -0.9901  0.5107
  424MOL0     C57143  10.328   3.164   5.166 -0.0285 -0.0142 -0.2497
  424MOL0     C57144  10.255   3.274   5.089  0.1731 -1.0019 -0.3747
  424MOL0     C57145  10.251   3.399   5.173 -0.2836 -0.3307  0.2418
  424MOL0     C57146  10.158   3.499   5.108 -0.2403 -0.1203  0.7949
  424MOL0     C57147  10.141   3.634   5.196  0.3255 -0.8279  0.1776
  424MOL0     C57148  10.027   3.727   5.145 -0.3718 -0.0794 -0.3630
  424MOL0    Cl57149   9.872   3.644   5.198  0.0955 -0.6806 -0.8957
  424MOL0     C57150   9.942   3.021   4.965 -0.4722 -0.0706 -0.9762
  424MOL0     C57151   9.813   2.971   4.981 -0.0670 -0.2880  0.6487
  424MOL0     O57152   9.520   2.922   4.960 -0.8380 -0.3222  0.8956
  424MOL0     C57153   9.439   2.593   5.068  0.6895  0.2322 -0.2560
  424MOL0     C57154   9.325   2.515   5.079  0.5827  0.2518 -0.7072
  424MOL0     N57155   8.880   2.106   5.232 -0.2521 -0.4807 -0.1569
  424MOL0     N57156   8.807   2.018   5.182  0.1600 -0.8308 -0.7540
  424MOL0     C57157   7.765   1.197   5.079  0.0730  0.1979  0.6527
  424MOL0     C57158   7.690   1.095   5.035 -0.5892  0.0369  0.1552
  424MOL0     C57159   7.489   0.706   4.967 -0.3075  0.4425  0.1502
  424MOL0     C57160   7.352   0.688   4.928  0.3467  0.5285  0.3202
  424MOL0     C57161   7.288   0.560   4.930  0.3920  0.2943  0.8113
  424MOL0     C57162   7.367   0.452   4.974 -0.4690  0.2073  0.3003
  424MOL0     O57163   7.318   0.329   4.988 -0.4132 -0.4330  0.1600
  424MOL0     C57164   7.263   0.290   5.116 -0.1518  0.7393 -0.1087
  424MOL0     C57165   7.206   0.151   5.102  0.1634 -0.0716 -0.1547
  424MOL0     C57166   7.054   0.145   5.071  0.3388  0.5694  0.5857
  424MOL0     C57167   6.991   0.013   5.108 -0.7513 -0.8095 -0.2119
  424MOL0     C57168   6.859  -0.005   5.044 -0.3233 -0.0483  0.6608
  424MOL0     C57169   6.750  -0.031   4.996  0.4613 -0.1548 -0.2948
  424MOL0     C57170   7.499   0.480   5.011  0.3464  1.1557 -0.0064
  424MOL0     C57171   7.563   0.596   5.003 -0.0724  0.2702 -0.1687
  424MOL0     C57172   7.710   0.579   5.060  0.4993 -0.3659  0.2853
  424MOL0     H57173   7.938   0.863   5.047 -0.3824  0.2573 -1.4531
  424MOL0     H57174   8.068   1.049   5.097  0.1789  0.1982  2.0563
  424MOL0     H57175   8.162   1.255   5.223 -0.4286 -1.4922 -0.3857
  424MOL0     H57176   8.111   1.324   5.067  0.5446 -0.6430  0.1116
  424MOL0     H57177   8.057   1.438   5.331 -1.4977 -2.9443 -1.3297
  424MOL0     H57178   8.065   1.534   5.186  0.3766  2.2430  2.6774
  424MOL0     H57179   8.297   1.478   5.147 -1.0461 -0.1343  0.2354
  424MOL0     H57180   8.313   1.427   5.315 -2.9053 -1.3491  2.2714
  424MOL0     H57181   8.197   1.701   5.257 -3.0184 -0.8901  3.5735
  424MOL0     H57182   8.237   1.637   5.412 -0.8448  1.7376 -0.0935
  424MOL0     H57183   8.475   1.637   5.357  1.0706 -0.0861 -0.7571
  424MOL0     H57184   8.448   1.704   5.193  0.5939 -1.0788  0.5537
  424MOL0     H57185   8.328   1.896   5.295  0.0705 -1.6053 -1.0913
  424MOL0     H57186   8.370   1.844   5.455  0.1455  1.2482 -0.1283
  424MOL0     H57187   8.618   1.836   5.387 -0.0177  0.9975 -0.2601
  424MOL0     H57188   8.542   1.987   5.416 -3.0675 -1.8268  2.1377
  424MOL0     H57189   8.583   1.900   5.129  2.1664  0.8189  0.1953
  424MOL0     H57190   8.471   2.021   5.181 -1.1026 -2.4878 -2.5045
  424MOL0     H57191   8.604   2.243   5.339  2.4333  1.9554  0.5204
  424MOL0     H57192   8.821   2.416   5.341 -0.8828  0.5978  2.3672
  424MOL0     H57193   8.835   2.330   5.490 -0.1648  0.4358 -0.1930
  424MOL0     H57194   9.059   2.379   5.473  1.1068  1.6205 -0.4413
  424MOL0     H57195   9.062   2.250   5.359  1.1231 -0.2466  1.3729
  424MOL0     H57196   9.165   2.481   5.296 -0.9054  1.0495  2.2954
  424MOL0     H57197   9.005   2.541   5.293 -1.8611 -1.0559  2.8083
  424MOL0     H57198   8.958   2.362   5.114 -0.4289 -0.5390  1.1930
  424MOL0     H57199   9.129   2.319   5.105 -0.6819  0.4775 -0.7625
  424MOL0     H57200   9.094   2.746   4.970  1.2069  0.5955  1.1704
  424MOL0     H57201   9.282   2.874   4.948 -2.0545 -0.4764 -0.1420
  424MOL0     H57202   9.894   2.644   5.008 -0.7852 -0.2999  0.3747
  424MOL0     H57203  10.141   2.741   5.005 -1.8546 -1.7076  0.7276
  424MOL0     H57204  10.288   2.890   5.096  2.0746 -0.8819 -0.1756
  424MOL0     H57205  10.351   2.913   4.937  2.1441  0.4461  1.2013
  424MOL0     H57206  10.465   3.007   5.135  1.5858  1.1278  1.2016
  424MOL0     H57207  10.447   3.126   4.996  0.2780 -1.6496  0.0112
  424MOL0     H57208  10.265   3.104   5.233  0.3483  0.6917  0.7672
  424MOL0     H57209  10.407   3.204   5.231  0.0089  0.5663 -0.6494
  424MOL0     H57210  10.154   3.237   5.073  1.1235 -2.9706 -2.3914
  424MOL0     H57211  10.297   3.292   4.990  2.0520 -0.0005  0.5544
  424MOL0     H57212  10.351   3.443   5.173 -1.3884  2.3631 -0.3626
  424MOL0     H57213  10.228   3.376   5.278 -2.4091 -1.4658 -0.4124
  424MOL0     H57214  10.192   3.518   5.005 -1.0867 -2.9828 -0.1010
  424MOL0     H57215  10.066   3.441   5.108 -0.2875 -0.2292 -2.1386
  424MOL0     H57216  10.228   3.701   5.194  0.9134 -1.5988 -0.9191
  424MOL0     H57217  10.113   3.601   5.296 -5.0195  1.3875 -0.2562
  424MOL0     H57218  10.033   3.816   5.208 -1.7322 -0.3361  0.1666
  424MOL0     H57219  10.015   3.756   5.040 -0.6053 -0.0898 -0.3408
  424MOL0     H57220   9.954   3.129   4.955 -3.1979  0.4142  0.0772
  424MOL0     H57221   9.734   3.045   4.966 -0.0531 -0.6867 -1.8530
  424MOL0     H57222   9.536   2.554   5.097  0.2493  0.8038  2.1918
  424MOL0     H57223   9.335   2.414   5.119 -0.7082 -0.0424 -1.0779
  424MOL0     H57224   7.710   1.281   5.119  1.8293  1.9973 -0.5718
  424MOL0     H57225   7.583   1.108   5.036 -0.7485 -1.2211  0.5939
  424MOL0     H57226   7.297   0.769   4.881 -0.3838  0.8574  1.6781
  424MOL0     H57227   7.188   0.555   4.887  0.0602  2.2984  1.2352
  424MOL0     H57228   7.184   0.353   5.157 -2.3245 -2.4446  1.0526
  424MOL0     H57229   7.346   0.281   5.187 -0.1113  0.4614 -0.1882
  424MOL0     H57230   7.215   0.098   5.197  1.5356  2.2493  1.1046
  424MOL0     H57231   7.271   0.100   5.030  0.5933 -0.0195  0.1945
  424MOL0     H57232   7.042   0.172   4.966  0.5328 -1.8405 -0.1257
  424MOL0     H57233   7.005   0.222   5.130 -1.1814 -3.1100  4.6400
  424MOL0     H57234   7.060  -0.068   5.080 -1.4583 -1.3751 -0.3440
  424MOL0     H57235   6.985   0.004   5.217  2.1610 -1.1844  0.0055
  424MOL0     H57236   6.661  -0.073   4.953  2.1296 -1.7859 -2.3791
  424MOL0     H57237   7.555   0.394   5.048 -0.5022  1.0663  1.1093
  424MOL0     H57238   7.745   0.475   5.061  0.3340 -0.4843 -1.5589
  424MOL0     H57239   7.777   0.623   4.985 -3.1239  2.3303 -1.6667
  424MOL0     H57240   7.704   0.629   5.157  0.7530  0.0990  0.0621
  425MOL0     O57241   1.102   6.517   1.437 -0.2623  0.1680  0.0918
  425MOL0     C57242   1.076   6.636   1.437  0.2181 -0.0920  0.3541
  425MOL0     O57243   1.142   6.732   1.361 -0.1580 -0.7026 -1.0935
  425MOL0     C57244   1.264   6.688   1.325 -0.0539  0.0956 -0.2729
  425MOL0     C57245   1.287   6.668   1.186 -0.6591 -0.5035  0.1605
  425MOL0     C57246   1.415   6.652   1.134  0.8862 -0.9553 -0.1018
  425MOL0     C57247   1.525   6.636   1.224 -0.5466  0.9694 -0.0234
  425MOL0     O57248   1.659   6.621   1.189 -0.3048  0.1722 -0.3808
  425MOL0     C57249   1.694   6.682   1.061 -0.0167 -0.4333 -0.1518
  425MOL0     C57250   1.784   6.806   1.085 -0.0168 -0.1436  0.3068
  425MOL0     C57251   1.921   6.777   1.155 -0.4486  0.8216  0.3210
  425MOL0     C57252   1.985   6.913   1.181 -0.0784 -0.9130 -0.1086
  425MOL0     C57253   1.981   6.949   1.331 -0.4944 -0.5675  0.0910
  425MOL0     C57254   2.070   6.850   1.412 -0.5389 -0.2687 -0.8360
  425MOL0     C57255   2.101   6.919   1.542  0.5775 -0.7393  0.4081
  425MOL0     C57256   2.196   6.838   1.628 -0.2634 -0.0647  0.1305
  425MOL0     N57257   2.342   6.851   1.611 -0.2731  0.3954  0.4247
  425MOL0     C57258   2.436   6.850   1.710 -0.2576 -0.1289  0.3708
  425MOL0     C57259   2.554   6.869   1.654  0.1840  0.8664 -0.6583
  425MOL0     C57260   2.672   6.908   1.742 -0.8536 -0.1462 -0.0786
  425MOL0     C57261   2.669   7.052   1.786  0.4063 -0.4697  0.4600
  425MOL0     C57262   2.807   7.093   1.855 -0.1658  0.3464  1.0851
  425MOL0     C57263   2.913   7.136   1.744  0.5793 -0.6631 -0.3003
  425MOL0     O57264   3.023   7.175   1.829 -0.4655 -0.6148  0.0302
  425MOL0     C57265   3.144   7.187   1.764 -0.6939  0.2216  0.1617
  425MOL0     C57266   3.173   7.138   1.634  0.6220 -0.1295  0.3447
  425MOL0     C57267   3.292   7.171   1.568 -0.6580  0.5229 -0.9028
  425MOL0     C57268   3.384   7.245   1.640 -0.7427 -0.7170  0.7120
  425MOL0     C57269   3.517   7.264   1.577 -0.3277  0.9816  0.2047
  425MOL0     O57270   3.610   7.325   1.653  0.4166 -0.2960 -0.3228
  425MOL0     C57271   3.742   7.294   1.628 -0.3638 -0.0533 -0.6642
  425MOL0     C57272   3.802   7.190   1.702 -0.2124  0.7111  0.7856
  425MOL0     C57273   3.936   7.156   1.670  0.1206 -0.0643 -1.4077
  425MOL0     C57274   4.010   7.232   1.583 -0.0380 -0.2393 -0.3163
  425MOL0     O57275   4.133   7.192   1.555 -0.0707 -0.0057 -0.6634
  425MOL0     C57276   4.234   7.296   1.540  0.7162 -0.0603 -0.0922
  425MOL0     C57277   4.354   7.254   1.636  0.8204 -0.3302  0.3521
  425MOL0     C57278   4.478   7.352   1.626  0.2013 -0.7150  0.1319
  425MOL0     C57279   4.602   7.274   1.673  0.2050  0.7591  0.5319
  425MOL0     C57280   4.725   7.362   1.666  0.1733 -0.0259 -1.5631
  425MOL0     C57281   4.845   7.306   1.743 -0.1778 -0.2704  0.6060
  425MOL0     C57282   4.943   7.409   1.758  0.0484  0.0667 -0.0948
  425MOL0     C57283   5.072   7.365   1.820 -0.1174  0.2689 -0.9375
  425MOL0    Cl57284   5.180   7.504   1.830  0.4761 -0.7440  0.0739
  425MOL0     C57285   3.955   7.341   1.510  0.0457 -0.7695  0.0488
  425MOL0     C57286   3.823   7.370   1.536  0.0423 -0.2055 -0.5873
  425MOL0     O57287   3.537   7.219   1.465  0.3711 -0.1870 -0.1338
  425MOL0     C57288   3.359   7.305   1.763 -0.3635  0.8914 -0.8683
  425MOL0     C57289   3.234   7.280   1.826  0.3671  1.4539  0.5061
  425MOL0     N57290   2.536   6.883   1.523 -0.3547  0.0870  0.3491
  425MOL0     N57291   2.408   6.869   1.495  0.8910 -0.6415  0.2879
  425MOL0     C57292   1.501   6.644   1.363  0.7095  0.3036  0.2586
  425MOL0     C57293   1.371   6.674   1.417 -1.0034  0.0294  0.5219
  425MOL0     C57294   0.953   6.681   1.515 -0.2739 -0.9302  0.6557
  425MOL0     C57295   0.825   6.623   1.490 -0.8223 -0.1947  0.3497
  425MOL0     C57296   0.715   6.668   1.565 -0.0216  0.4142  0.2034
  425MOL0     C57297   0.728   6.767   1.667 -0.0619  0.3010  0.7117
  425MOL0     O57298   0.618   6.812   1.753  0.8872  1.1592 -0.3965
  425MOL0     C57299   0.482   6.756   1.744  0.1949 -0.7987  0.6806
  425MOL0     C57300   0.397   6.828   1.840  0.0958 -0.3604 -0.0452
  425MOL0     C57301   0.436   6.813   1.987  0.2124  0.1699 -0.8846
  425MOL0     C57302   0.357   6.908   2.083  0.3148 -0.8071 -0.5177
  425MOL0     C57303   0.215   6.869   2.097  0.5960  0.6056 -1.3422
  425MOL0     C57304   0.100   6.832   2.101  0.0519 -0.4013 -0.1997
  425MOL0     C57305   0.849   6.825   1.687  0.4069  0.0555  0.3003
  425MOL0     C57306   0.962   6.779   1.619 -0.4524  0.4720 -0.0690
  425MOL0     C57307   1.093   6.852   1.657  0.1463  0.2796  0.0085
  425MOL0     H57308   1.209   6.672   1.110  1.6317 -0.3032 -2.3085
  425MOL0     H57309   1.425   6.641   1.026 -0.6504 -1.2882 -0.2337
  425MOL0     H57310   1.736   6.601   1.001 -1.0209 -1.0634 -0.0341
  425MOL0     H57311   1.612   6.721   1.001  0.3147 -0.3669 -0.5622
  425MOL0     H57312   1.733   6.867   1.160  0.8742  1.3100 -0.2463
  425MOL0     H57313   1.802   6.866   0.996  1.5204  0.5567  1.0545
  425MOL0     H57314   1.982   6.717   1.087 -0.2501  2.0799 -0.6344
  425MOL0     H57315   1.910   6.708   1.240 -0.2831 -1.3446 -1.3321
  425MOL0     H57316   2.087   6.908   1.141 -0.6508 -0.4074 -1.6999
  425MOL0     H57317   1.936   6.993   1.126 -0.2524 -1.4940 -0.8072
  425MOL0     H57318   2.007   7.054   1.348 -2.6126  0.2088 -0.9870
  425MOL0     H57319   1.880   6.945   1.373 -0.3390  1.0637  0.6934
  425MOL0     H57320   2.022   6.753   1.427 -3.2616  0.7562 -2.1946
  425MOL0     H57321   2.168   6.836   1.366 -1.0450 -1.5755 -1.5992
  425MOL0     H57322   2.001   6.929   1.586 -0.2919 -1.5479 -1.2750
  425MOL0     H57323   2.129   7.024   1.529 -0.4721 -0.2380  1.9025
  425MOL0     H57324   2.171   6.870   1.730  1.6384 -1.8591  1.2447
  425MOL0     H57325   2.176   6.731   1.614  0.7430 -0.4398  1.3143
  425MOL0     H57326   2.412   6.849   1.816  0.2551  0.5599  0.5016
  425MOL0     H57327   2.695   6.840   1.824  1.6681 -0.9928 -1.3963
  425MOL0     H57328   2.761   6.892   1.680 -0.4541 -0.6475  0.6038
  425MOL0     H57329   2.658   7.118   1.699  2.0701  0.2692  0.7687
  425MOL0     H57330   2.587   7.066   1.857 -0.6828 -1.5702 -0.5359
  425MOL0     H57331   2.844   7.006   1.911 -0.8517 -0.1062  0.8424
  425MOL0     H57332   2.796   7.173   1.929 -0.3330 -0.1434  1.6016
  425MOL0     H57333   2.884   7.209   1.667  0.8723 -0.3188 -0.0842
  425MOL0     H57334   2.935   7.049   1.681  0.2986 -0.8551 -0.1354
  425MOL0     H57335   3.111   7.071   1.575 -0.2067 -0.0919  1.1597
  425MOL0     H57336   3.308   7.132   1.468 -1.0255  3.9341 -2.4239
  425MOL0     H57337   3.749   7.128   1.773  4.1831 -3.3628  1.0122
  425MOL0     H57338   3.983   7.069   1.714 -0.4497 -0.4768 -1.5944
  425MOL0     H57339   4.256   7.313   1.434 -3.0159 -2.1593 -1.3825
  425MOL0     H57340   4.192   7.388   1.581  1.4065  1.2985 -2.2169
  425MOL0     H57341   4.329   7.231   1.741  2.6877 -0.7355  0.7431
  425MOL0     H57342   4.390   7.163   1.588 -1.4868 -0.5215 -1.1476
  425MOL0     H57343   4.479   7.398   1.528  0.2246  0.0445  0.4854
  425MOL0     H57344   4.459   7.429   1.701  1.8751 -0.8690  0.7620
  425MOL0     H57345   4.605   7.189   1.605 -1.4404  0.0657  1.2703
  425MOL0     H57346   4.594   7.238   1.776 -3.2474 -1.5735 -0.3653
  425MOL0     H57347   4.689   7.455   1.711 -0.3529 -1.9439  2.4548
  425MOL0     H57348   4.758   7.365   1.562  0.3724  1.3349 -1.4780
  425MOL0     H57349   4.813   7.277   1.843  2.3363 -0.5865  1.3862
  425MOL0     H57350   4.889   7.222   1.688  1.1889  0.1910  0.9649
  425MOL0     H57351   4.902   7.495   1.811 -2.0812  0.6605 -2.5015
  425MOL0     H57352   4.962   7.456   1.661 -2.9654  1.5650 -0.0441
  425MOL0     H57353   5.047   7.329   1.920 -1.0329 -0.5317 -1.4444
  425MOL0     H57354   5.118   7.287   1.759  0.7994  1.0327 -1.2460
  425MOL0     H57355   4.000   7.403   1.433  1.1627 -1.4808  0.1020
  425MOL0     H57356   3.780   7.452   1.480 -2.0352 -0.4708  0.5228
  425MOL0     H57357   3.420   7.363   1.832  0.9148 -2.1403  0.7536
  425MOL0     H57358   3.203   7.330   1.917  0.2255  0.3886  1.0585
  425MOL0     H57359   1.584   6.628   1.431  2.1430 -1.2585 -1.7387
  425MOL0     H57360   1.350   6.686   1.522  0.2221 -3.7363  1.3392
  425MOL0     H57361   0.801   6.539   1.425 -0.4444 -1.7709  2.1585
  425MOL0     H57362   0.617   6.623   1.557  0.0883  0.2292 -0.1362
  425MOL0     H57363   0.474   6.649   1.761  3.2406 -1.5321 -1.6284
  425MOL0     H57364   0.443   6.778   1.644  3.7500 -0.8944 -0.8700
  425MOL0     H57365   0.294   6.793   1.827  0.2190 -0.4483 -0.8609
  425MOL0     H57366   0.396   6.935   1.818 -2.4787 -0.5066 -0.8969
  425MOL0     H57367   0.538   6.842   2.012 -0.0871 -1.2994  2.5707
  425MOL0     H57368   0.419   6.713   2.028 -3.2152  1.6738  1.9411
  425MOL0     H57369   0.398   6.907   2.184  0.3840  0.2823 -0.5216
  425MOL0     H57370   0.375   7.010   2.047 -3.6786 -0.6834 -2.7459
  425MOL0     H57371  -0.000   6.795   2.102 -0.6517  1.3573 -1.8234
  425MOL0     H57372   0.857   6.894   1.770 -0.8150  0.9272 -0.2765
  425MOL0     H57373   1.091   6.882   1.762  0.1211 -3.5838  1.2716
  425MOL0     H57374   1.185   6.793   1.649  0.3875  0.8091 -1.5864
  425MOL0     H57375   1.098   6.933   1.584 -1.9179 -2.1286 -3.0582
  426MOL0     O57376   3.066   0.713   8.941 -0.4571  1.3732 -0.1918
  426MOL0     C57377   3.050   0.594   8.926  0.3495 -1.2589 -0.0558
  426MOL0     O57378   3.125   0.513   8.845  0.0998 -0.1045  0.0954
  426MOL0     C57379   3.245   0.541   8.791 -0.0100 -0.1695 -1.1038
  426MOL0     C57380   3.320   0.430   8.759 -1.2596  0.0830 -0.6105
  426MOL0     C57381   3.453   0.437   8.703 -0.8249  0.5105 -0.0148
  426MOL0     C57382   3.506   0.556   8.673 -0.1774 -1.2798  0.5487
  426MOL0     O57383   3.629   0.580   8.622  0.2952 -0.2637 -0.4021
  426MOL0     C57384   3.730   0.477   8.604 -0.4847  0.0281 -0.1795
  426MOL0     C57385   3.844   0.554   8.543 -0.1665 -0.6191 -0.2351
  426MOL0     C57386   3.950   0.450   8.532  0.6343  0.3448 -1.0892
  426MOL0     C57387   4.077   0.512   8.475  0.2021 -0.1729 -0.0117
  426MOL0     C57388   4.198   0.413   8.471 -0.3423  0.1064 -0.5342
  426MOL0     C57389   4.292   0.461   8.362 -0.9455 -0.7989  0.7492
  426MOL0     C57390   4.388   0.344   8.338 -0.8164 -0.6414  0.5143
  426MOL0     C57391   4.514   0.343   8.437  0.6834 -1.1775  0.0247
  426MOL0     N57392   4.600   0.228   8.401  0.2614  0.3854 -0.1186
  426MOL0     C57393   4.616   0.113   8.478  0.2598  0.0304  0.0237
  426MOL0     C57394   4.710   0.043   8.406 -0.5199  0.3366 -0.5709
  426MOL0     C57395   4.771  -0.094   8.436  0.0790 -0.1148 -0.1338
  426MOL0     C57396   4.863  -0.075   8.553  0.5742  0.5163  0.3983
  426MOL0     C57397   4.929  -0.211   8.585 -1.3320 -0.1906  0.2300
  426MOL0     C57398   5.033  -0.198   8.695  0.5257  0.2604 -0.4071
  426MOL0     O57399   5.153  -0.149   8.643 -0.5996  0.5150  0.1011
  426MOL0     C57400   5.256  -0.118   8.725 -1.1226  0.2148  0.7658
  426MOL0     C57401   5.341  -0.013   8.689  0.0207 -0.4895  0.3793
  426MOL0     C57402   5.454   0.015   8.769 -0.2966  0.5468  0.9809
  426MOL0     C57403   5.480  -0.041   8.893  0.0323  1.5427 -0.3251
  426MOL0     C57404   5.596  -0.001   8.983  1.1030 -0.0961 -0.0372
  426MOL0     O57405   5.676   0.092   8.938 -0.5530 -0.0922 -0.3200
  426MOL0     C57406   5.772   0.135   9.024 -0.0070 -0.5779  0.3005
  426MOL0     C57407   5.746   0.205   9.144 -0.1793 -0.2327 -0.9693
  426MOL0     C57408   5.857   0.256   9.221  0.8175  0.9078 -0.6360
  426MOL0     C57409   5.990   0.229   9.174 -0.1318  0.4556 -1.0590
  426MOL0     O57410   6.090   0.299   9.244 -0.4727 -0.2980  0.1272
  426MOL0     C57411   6.223   0.280   9.217 -0.3703 -0.4271 -1.1993
  426MOL0     C57412   6.268   0.167   9.309  0.6178  0.8345  0.5794
  426MOL0     C57413   6.414   0.137   9.287  0.3343 -0.0909 -0.4384
  426MOL0     C57414   6.507   0.263   9.298 -0.3548 -0.3148 -1.0604
  426MOL0     C57415   6.662   0.240   9.308 -0.1893  0.2133 -0.4819
  426MOL0     C57416   6.726   0.179   9.182 -0.0138  0.3992  0.6608
  426MOL0     C57417   6.849   0.089   9.207 -0.9587 -0.2057  0.6218
  426MOL0     C57418   6.903   0.013   9.072  0.6661 -0.4807  0.1964
  426MOL0    Cl57419   7.064  -0.056   9.101  0.2841  0.4342 -0.2210
  426MOL0     C57420   6.007   0.165   9.054 -0.4172 -0.1248  0.5794
  426MOL0     C57421   5.899   0.119   8.975 -0.0490  0.1431  0.1527
  426MOL0     O57422   5.600  -0.052   9.092  0.2363  0.1476 -0.1103
  426MOL0     C57423   5.395  -0.152   8.928 -0.2944 -0.1244  0.5276
  426MOL0     C57424   5.283  -0.185   8.846 -0.4921 -0.5136 -0.2140
  426MOL0     N57425   4.752   0.111   8.294 -0.0767 -0.4701 -0.0166
  426MOL0     N57426   4.683   0.224   8.290 -0.6559  0.2649  0.5051
  426MOL0     C57427   3.425   0.668   8.682  0.2064  0.0637 -0.3464
  426MOL0     C57428   3.294   0.663   8.742  0.3203 -1.0160 -0.1723
  426MOL0     C57429   2.944   0.523   9.005  0.2558 -0.3583 -0.7729
  426MOL0     C57430   2.967   0.383   9.035 -0.1242 -0.1001 -0.1152
  426MOL0     C57431   2.871   0.314   9.103  0.1062 -0.3965 -0.1980
  426MOL0     C57432   2.747   0.367   9.125 -0.7213 -0.1685  0.2612
  426MOL0     O57433   2.642   0.289   9.167 -1.2561  0.0763  0.6655
  426MOL0     C57434   2.508   0.321   9.164  0.2562  0.2474 -0.3619
  426MOL0     C57435   2.416   0.195   9.198  0.0259  0.6337 -0.1484
  426MOL0     C57436   2.460   0.074   9.112 -0.2218 -0.1081  0.1881
  426MOL0     C57437   2.478   0.116   8.962  0.2181  0.4169  0.3112
  426MOL0     C57438   2.346   0.153   8.919  0.9258  0.8691  0.3142
  426MOL0     C57439   2.235   0.191   8.894  0.0456 -0.0299  0.0372
  426MOL0     C57440   2.721   0.501   9.102 -0.0343 -0.5001 -0.0712
  426MOL0     C57441   2.817   0.579   9.045 -0.0319 -0.3852  0.3798
  426MOL0     C57442   2.776   0.716   9.010 -0.0524  0.4002  0.6110
  426MOL0     H57443   3.277   0.337   8.793  1.3329 -0.2494  2.2069
  426MOL0     H57444   3.511   0.349   8.679  1.0580  1.6136  0.2911
  426MOL0     H57445   3.752   0.418   8.693 -0.5420 -2.1963 -1.5720
  426MOL0     H57446   3.693   0.405   8.531 -0.0814 -2.0141  1.5350
  426MOL0     H57447   3.876   0.629   8.616  0.1047  0.6205 -1.5964
  426MOL0     H57448   3.820   0.604   8.449 -1.3636 -1.3427 -0.3320
  426MOL0     H57449   3.910   0.364   8.478  0.3382  0.2912 -0.7861
  426MOL0     H57450   3.968   0.423   8.637 -0.3307  1.8429 -0.4895
  426MOL0     H57451   4.050   0.546   8.375  3.0016 -1.9495 -1.4848
  426MOL0     H57452   4.101   0.593   8.545  2.5289 -3.2804  3.1834
  426MOL0     H57453   4.245   0.401   8.569 -0.4912 -1.8646 -0.6663
  426MOL0     H57454   4.143   0.321   8.451 -1.3389  0.4228  0.6026
  426MOL0     H57455   4.249   0.481   8.263  3.0341 -2.4436 -1.5709
  426MOL0     H57456   4.338   0.554   8.394 -2.2532  0.6595 -1.3066
  426MOL0     H57457   4.437   0.357   8.242 -1.7325  0.0706  0.1322
  426MOL0     H57458   4.332   0.250   8.342 -2.3667  0.2278  0.0371
  426MOL0     H57459   4.566   0.440   8.437 -0.1128 -0.7191  1.4953
  426MOL0     H57460   4.482   0.330   8.541 -1.4437 -0.6406 -0.5127
  426MOL0     H57461   4.567   0.075   8.567 -2.9679  1.1510 -1.1236
  426MOL0     H57462   4.691  -0.165   8.458 -2.7935  1.9490 -2.9457
  426MOL0     H57463   4.822  -0.129   8.346  2.3597 -1.5335  1.5812
  426MOL0     H57464   4.936   0.002   8.525 -0.5922  2.1526  1.6650
  426MOL0     H57465   4.810  -0.037   8.640  1.5943 -0.0975  1.3090
  426MOL0     H57466   4.965  -0.261   8.495  0.4785  1.6188 -0.1242
  426MOL0     H57467   4.857  -0.277   8.634  0.1588 -2.2972 -0.2832
  426MOL0     H57468   5.053  -0.293   8.744 -0.0905 -0.1276 -0.9023
  426MOL0     H57469   4.989  -0.125   8.764 -0.5016  0.4745 -1.2707
  426MOL0     H57470   5.329   0.043   8.597  0.4297 -1.4688 -0.2920
  426MOL0     H57471   5.521   0.094   8.736  0.4494  0.0346  1.2567
  426MOL0     H57472   5.643   0.237   9.161 -0.2090  0.2258 -1.9461
  426MOL0     H57473   5.834   0.304   9.315  0.4311  0.5616 -0.5541
  426MOL0     H57474   6.250   0.279   9.111  1.1703 -2.2856 -0.8404
  426MOL0     H57475   6.276   0.364   9.262  0.1750 -2.5493  2.5360
  426MOL0     H57476   6.260   0.193   9.415 -0.7709  2.2252  0.1680
  426MOL0     H57477   6.208   0.078   9.289 -0.4342  1.3841  1.1933
  426MOL0     H57478   6.447   0.066   9.364 -0.2743  0.7824  0.6627
  426MOL0     H57479   6.431   0.100   9.186  0.8729  0.1582 -0.4417
  426MOL0     H57480   6.480   0.314   9.391 -4.0493 -1.9995 -1.0614
  426MOL0     H57481   6.492   0.330   9.212  1.9073 -0.8414 -1.9499
  426MOL0     H57482   6.675   0.170   9.392 -0.2287  0.7768  0.0013
  426MOL0     H57483   6.722   0.331   9.321 -0.4986  1.7230 -6.6471
  426MOL0     H57484   6.641   0.123   9.142  0.3571 -1.3710  2.2349
  426MOL0     H57485   6.760   0.242   9.099  3.0723 -1.3554  0.4324
  426MOL0     H57486   6.836   0.018   9.289  0.2596 -0.9917  0.1774
  426MOL0     H57487   6.926   0.159   9.240 -1.5938 -0.5980  3.0867
  426MOL0     H57488   6.842  -0.073   9.044  1.8273 -0.7679 -1.5847
  426MOL0     H57489   6.905   0.077   8.984  0.7009 -1.0569 -0.2254
  426MOL0     H57490   6.107   0.144   9.017 -0.4912  0.0295  0.2890
  426MOL0     H57491   5.905   0.065   8.880 -0.7925  0.2552  0.0358
  426MOL0     H57492   5.419  -0.204   9.020  3.2268  0.5193  0.1136
  426MOL0     H57493   5.219  -0.263   8.885 -1.2717  0.4306  0.4584
  426MOL0     H57494   3.475   0.763   8.668 -2.2127  1.7892  1.6630
  426MOL0     H57495   3.233   0.750   8.763  1.7329 -0.2899  1.1332
  426MOL0     H57496   3.067   0.344   9.019 -0.8735 -0.9289 -3.5399
  426MOL0     H57497   2.877   0.212   9.139 -0.0299 -0.5382 -0.5732
  426MOL0     H57498   2.473   0.374   9.075 -2.8197 -3.0237 -1.3204
  426MOL0     H57499   2.500   0.386   9.252  0.5742 -0.8461  0.5159
  426MOL0     H57500   2.313   0.217   9.167 -0.0667 -0.4107 -0.6131
  426MOL0     H57501   2.404   0.166   9.303 -2.0636  1.3954 -0.1312
  426MOL0     H57502   2.401  -0.017   9.125  0.6935 -0.6492  0.6627
  426MOL0     H57503   2.563   0.046   9.140  0.4140  0.1743 -1.6978
  426MOL0     H57504   2.545   0.198   8.936 -0.8910  0.6830 -1.9553
  426MOL0     H57505   2.523   0.033   8.907 -1.2900 -0.6147  0.5538
  426MOL0     H57506   2.152   0.243   8.851 -0.0252  1.4170  1.8136
  426MOL0     H57507   2.622   0.544   9.114 -1.5610 -3.8087  0.2553
  426MOL0     H57508   2.784   0.733   8.902 -1.1738  0.5971  0.5429
  426MOL0     H57509   2.675   0.736   9.046 -1.2447 -3.6157  0.0228
  426MOL0     H57510   2.848   0.791   9.043  0.2289  0.3995  0.0059
  427MOL0     O57511   1.087   9.540   2.199  0.3999  1.0443 -0.0028
  427MOL0     C57512   1.050   9.460   2.109 -0.1708  0.5928 -0.0790
  427MOL0     O57513   1.115   9.422   1.997 -0.4783  0.0510 -0.1082
  427MOL0     C57514   1.242   9.468   1.976  0.0550 -0.2488 -0.1515
  427MOL0     C57515   1.274   9.475   1.844 -0.1458  0.0482 -0.4238
  427MOL0     C57516   1.394   9.536   1.799 -0.1424  0.3262 -0.4546
  427MOL0     C57517   1.488   9.585   1.898  0.9296 -0.7268  0.1435
  427MOL0     O57518   1.611   9.645   1.876 -0.9239 -0.4160 -0.4004
  427MOL0     C57519   1.647   9.704   1.752  0.5794  0.6746  0.4289
  427MOL0     C57520   1.777   9.783   1.777  0.4177 -0.7044 -0.7691
  427MOL0     C57521   1.893   9.706   1.710 -0.2605  0.2486  0.7690
  427MOL0     C57522   2.026   9.788   1.721  0.4521 -0.1268 -0.2439
  427MOL0     C57523   2.130   9.749   1.618  0.7903 -0.7463  0.4813
  427MOL0     C57524   2.193   9.616   1.644 -0.4698 -0.2350  0.0958
  427MOL0     C57525   2.330   9.608   1.575  0.0598  0.5769  0.1011
  427MOL0     C57526   2.386   9.469   1.577 -0.6727  0.7638  0.6267
  427MOL0     N57527   2.531   9.474   1.551  0.6244 -0.0652 -0.0786
  427MOL0     C57528   2.589   9.405   1.449  0.0133 -0.0652 -0.0988
  427MOL0     C57529   2.716   9.435   1.437 -0.4352  0.1296  0.1243
  427MOL0     C57530   2.806   9.399   1.321 -0.5212  0.2777 -0.1526
  427MOL0     C57531   2.895   9.519   1.287  0.3089 -0.8607 -1.3343
  427MOL0     C57532   2.988   9.493   1.170 -0.0564  0.2704 -0.8598
  427MOL0     C57533   3.053   9.620   1.131  0.6099 -0.2831  0.5261
  427MOL0     O57534   3.181   9.592   1.081 -0.9581  0.1554 -0.5100
  427MOL0     C57535   3.258   9.686   1.012 -0.0705 -0.4006 -0.1491
  427MOL0     C57536   3.219   9.823   0.995 -0.5439 -0.1673  0.2624
  427MOL0     C57537   3.306   9.918   0.945 -0.2924 -0.5853 -1.1231
  427MOL0     C57538   3.435   9.879   0.896 -0.6439  0.1148 -0.0266
  427MOL0     C57539   3.537   9.970   0.842  0.2696  0.0425 -0.2650
  427MOL0     O57540   3.497  10.105   0.854 -0.1192  0.0603 -0.6801
  427MOL0     C57541   3.586  10.197   0.816 -0.1903 -0.1003  0.2739
  427MOL0     C57542   3.567  10.281   0.701  0.6348  0.2480  0.0405
  427MOL0     C57543   3.654  10.382   0.669  0.9001  0.2539  0.7569
  427MOL0     C57544   3.766  10.414   0.748  0.1980  0.6096 -0.2504
  427MOL0     O57545   3.855  10.508   0.691 -0.4169 -0.3879 -1.0552
  427MOL0     C57546   3.944  10.575   0.775  0.3056  0.5887 -0.0944
  427MOL0     C57547   3.995  10.699   0.704 -0.3164 -0.8116  0.5378
  427MOL0     C57548   3.888  10.808   0.716  1.1415 -0.8992  0.4805
  427MOL0     C57549   3.926  10.939   0.642 -0.1886 -0.9997 -0.2175
  427MOL0     C57550   3.799  11.024   0.621  0.0041 -0.5459  0.4146
  427MOL0     C57551   3.827  11.134   0.516 -0.2585 -0.1387  0.3543
  427MOL0     C57552   3.928  11.240   0.562 -0.0589  0.0537  0.2642
  427MOL0     C57553   3.935  11.343   0.457 -0.6301  0.0395  0.2303
  427MOL0    Cl57554   4.060  11.451   0.528  0.3063  0.1153  0.1627
  427MOL0     C57555   3.782  10.335   0.867 -0.3081  0.4377  0.2665
  427MOL0     C57556   3.694  10.220   0.893  0.5612 -0.8322  0.1470
  427MOL0     O57557   3.642   9.932   0.789  0.5741  0.4417 -0.0434
  427MOL0     C57558   3.475   9.740   0.912 -0.0647 -0.8014 -0.2805
  427MOL0     C57559   3.391   9.649   0.974  0.0535  0.5622  0.3583
  427MOL0     N57560   2.746   9.534   1.539  0.5308  0.1782 -0.2940
  427MOL0     N57561   2.638   9.543   1.605 -0.2555  0.0377 -0.3104
  427MOL0     C57562   1.456   9.575   2.035 -0.3386  0.2644  0.4497
  427MOL0     C57563   1.330   9.529   2.069 -0.1307 -0.3473 -0.1512
  427MOL0     C57564   0.916   9.394   2.119  0.5255  0.2206 -0.6652
  427MOL0     C57565   0.858   9.343   2.008  0.0055  0.7819  0.7190
  427MOL0     C57566   0.741   9.274   2.009  0.3604  0.7421 -0.3234
  427MOL0     C57567   0.664   9.266   2.130  0.2260  0.2586  0.0209
  427MOL0     O57568   0.539   9.212   2.126 -0.1760  0.0816  0.1616
  427MOL0     C57569   0.482   9.151   2.244  0.0175 -0.0137 -0.7793
  427MOL0     C57570   0.389   9.250   2.330  0.8407 -0.2509 -0.4022
  427MOL0     C57571   0.330   9.176   2.451 -0.2495 -0.0566  0.6658
  427MOL0     C57572   0.249   9.276   2.532  0.0809  0.5829  0.3235
  427MOL0     C57573   0.340   9.353   2.621  0.6393 -0.2191  0.0965
  427MOL0     C57574   0.409   9.417   2.702 -0.4640  0.9139 -0.4044
  427MOL0     C57575   0.717   9.320   2.248 -0.2445 -0.1148 -0.1433
  427MOL0     C57576   0.848   9.380   2.244  0.4087  0.1572  0.0498
  427MOL0     C57577   0.911   9.425   2.383  0.0168  0.2046 -0.0195
  427MOL0     H57578   1.206   9.437   1.768 -0.9969  0.0577  0.3116
  427MOL0     H57579   1.416   9.532   1.693 -2.0532 -0.8844 -0.8569
  427MOL0     H57580   1.662   9.630   1.673 -1.6603 -0.1039  0.6578
  427MOL0     H57581   1.575   9.781   1.723  2.0309  1.5181 -1.1112
  427MOL0     H57582   1.808   9.796   1.881 -2.1646  0.1264 -0.0522
  427MOL0     H57583   1.776   9.881   1.728  2.5165 -0.5334 -0.5985
  427MOL0     H57584   1.869   9.694   1.604 -0.1697  0.3941  0.7304
  427MOL0     H57585   1.913   9.605   1.748 -1.1702 -0.6681 -1.0454
  427MOL0     H57586   1.990   9.889   1.700  2.4790  0.5993 -0.4438
  427MOL0     H57587   2.067   9.772   1.821  0.1565 -3.6863 -0.5517
  427MOL0     H57588   2.097   9.759   1.514  3.5747  2.3416 -0.2858
  427MOL0     H57589   2.203   9.828   1.632  0.6774 -0.2505 -1.4160
  427MOL0     H57590   2.205   9.602   1.752  2.8685 -4.0212 -0.5293
  427MOL0     H57591   2.129   9.536   1.606  1.9766 -3.3661  2.0362
  427MOL0     H57592   2.394   9.677   1.631  1.1189 -0.2081 -0.1168
  427MOL0     H57593   2.321   9.644   1.472 -0.0253  0.3008  0.0121
  427MOL0     H57594   2.365   9.422   1.674  1.2779 -1.3392  0.1138
  427MOL0     H57595   2.345   9.409   1.495  0.8530 -1.5540  1.4365
  427MOL0     H57596   2.549   9.340   1.372  2.3893  2.1425 -3.4553
  427MOL0     H57597   2.878   9.321   1.348 -0.7858  0.5098  1.3123
  427MOL0     H57598   2.751   9.362   1.234  0.6759 -0.4966 -0.6005
  427MOL0     H57599   2.824   9.599   1.264  0.2046 -0.2287  0.9522
  427MOL0     H57600   2.953   9.549   1.374 -0.0437  1.3767 -1.7932
  427MOL0     H57601   2.926   9.456   1.089 -1.1037 -0.0232  0.0506
  427MOL0     H57602   3.064   9.422   1.203 -1.3928  0.0845  2.1459
  427MOL0     H57603   3.075   9.683   1.217 -0.2440 -0.5439  0.9478
  427MOL0     H57604   2.984   9.683   1.074 -0.3665  0.6007  2.5844
  427MOL0     H57605   3.124   9.868   1.023 -0.4393  0.6264 -0.6028
  427MOL0     H57606   3.273  10.022   0.952  0.1057 -0.4956 -0.3768
  427MOL0     H57607   3.479  10.264   0.641 -0.6334  2.2338  1.2135
  427MOL0     H57608   3.639  10.447   0.583  1.3299  0.0246  0.5013
  427MOL0     H57609   3.900  10.598   0.873  1.7746 -0.3240  0.8272
  427MOL0     H57610   4.033  10.514   0.791 -0.2118 -0.1389  0.0502
  427MOL0     H57611   4.088  10.743   0.741 -0.7757  1.6262 -0.9724
  427MOL0     H57612   4.020  10.676   0.600 -0.7938  1.1604 -0.0490
  427MOL0     H57613   3.807  10.762   0.659  1.4948  1.0618 -1.7463
  427MOL0     H57614   3.854  10.827   0.818 -1.2123 -2.2778  0.0349
  427MOL0     H57615   3.963  10.910   0.544 -2.7125 -0.3487 -1.4295
  427MOL0     H57616   4.006  10.993   0.694 -2.4749  1.3786  1.0419
  427MOL0     H57617   3.758  11.063   0.714  0.6650  0.0622  0.4639
  427MOL0     H57618   3.732  10.952   0.574 -0.0644 -1.0250  1.2287
  427MOL0     H57619   3.871  11.098   0.423  3.3644  2.4202  0.8854
  427MOL0     H57620   3.738  11.192   0.490 -1.0978 -1.1981  0.7870
  427MOL0     H57621   4.026  11.193   0.566  0.5403  1.1264 -1.0630
  427MOL0     H57622   3.908  11.285   0.660 -0.7901  0.2595  0.0266
  427MOL0     H57623   3.961  11.297   0.361  0.4192  0.7389  0.1614
  427MOL0     H57624   3.847  11.407   0.443  0.5765  1.8571  0.6481
  427MOL0     H57625   3.866  10.363   0.930  0.9218 -1.5339 -0.3853
  427MOL0     H57626   3.707  10.174   0.990  1.5608  1.4324  1.1624
  427MOL0     H57627   3.574   9.714   0.878  1.1186  0.6146  1.8635
  427MOL0     H57628   3.425   9.551   1.002 -1.2173  0.6359  2.3518
  427MOL0     H57629   1.533   9.594   2.108  1.0090 -1.6439 -0.3923
  427MOL0     H57630   1.307   9.539   2.174 -1.0635 -1.7137 -0.1987
  427MOL0     H57631   0.908   9.353   1.912 -0.1645  1.7946  0.7299
  427MOL0     H57632   0.709   9.229   1.916 -0.3209  1.0770 -0.2551
  427MOL0     H57633   0.559   9.104   2.305 -0.2048  0.4677 -0.1190
  427MOL0     H57634   0.414   9.070   2.217 -1.7225  1.1052  0.0376
  427MOL0     H57635   0.310   9.289   2.265  3.7993  3.2129 -2.2681
  427MOL0     H57636   0.437   9.344   2.358 -0.7424  1.0004 -1.7070
  427MOL0     H57637   0.413   9.126   2.503 -1.7022 -0.0431  3.1328
  427MOL0     H57638   0.254   9.106   2.416 -1.7322  2.2371 -0.9645
  427MOL0     H57639   0.194   9.343   2.466 -2.0987 -0.7568  0.6413
  427MOL0     H57640   0.185   9.218   2.601  0.5824  0.0149  0.3188
  427MOL0     H57641   0.459   9.482   2.771 -1.0241 -1.1155  2.0451
  427MOL0     H57642   0.661   9.315   2.341 -0.9092  0.4858 -0.5003
  427MOL0     H57643   0.855   9.379   2.465  1.2729 -3.2709 -0.8930
  427MOL0     H57644   1.014   9.388   2.387  0.1546  0.6966  1.3258
  427MOL0     H57645   0.902   9.533   2.393 -0.8764 -0.0590  2.5753
  428MOL0     O57646   4.787   2.896   2.304  0.6105 -0.7230  0.3136
  428MOL0     C57647   4.744   2.999   2.255  0.5648 -0.8405  0.6176
  428MOL0     O57648   4.816   3.105   2.193 -0.5771  0.1433  0.0072
  428MOL0     C57649   4.949   3.092   2.165  0.0706 -0.8048  0.3214
  428MOL0     C57650   5.003   2.970   2.116 -0.3705  0.3581  0.2011
  428MOL0     C57651   5.132   2.956   2.074 -0.4423  0.4763  0.4874
  428MOL0     C57652   5.220   3.063   2.092 -0.0735 -0.3157  0.0822
  428MOL0     O57653   5.353   3.035   2.081  0.0780 -0.5639  0.2963
  428MOL0     C57654   5.454   3.133   2.104  0.6231  0.2061 -0.3239
  428MOL0     C57655   5.592   3.071   2.093 -0.0098  0.2742 -0.4232
  428MOL0     C57656   5.699   3.137   2.182  0.7464 -0.2914  0.3852
  428MOL0     C57657   5.671   3.112   2.336 -0.2355  0.3037 -0.5470
  428MOL0     C57658   5.772   3.177   2.425  0.0741  0.6311  0.2670
  428MOL0     C57659   5.748   3.170   2.574  0.2535  0.4168 -0.2059
  428MOL0     C57660   5.864   3.202   2.667 -0.4029  0.1174  0.5296
  428MOL0     C57661   5.940   3.331   2.630  0.6622  0.2926  0.6583
  428MOL0     N57662   6.052   3.371   2.712 -0.0423 -0.0210 -0.8207
  428MOL0     C57663   6.142   3.473   2.676  0.1760  0.1652  1.1241
  428MOL0     C57664   6.208   3.496   2.800  0.9914 -0.0010 -1.2213
  428MOL0     C57665   6.320   3.594   2.811  0.8162 -0.1423  0.3341
  428MOL0     C57666   6.289   3.700   2.919  0.2306  0.1658  0.9933
  428MOL0     C57667   6.315   3.664   3.068 -0.9770  0.2322 -0.6657
  428MOL0     C57668   6.461   3.623   3.081 -0.7280  0.6047  0.7979
  428MOL0     O57669   6.552   3.708   3.000 -0.5115 -0.6724 -0.2020
  428MOL0     C57670   6.689   3.693   3.030  0.0056 -1.1405  0.0753
  428MOL0     C57671   6.740   3.580   3.097  0.2954 -0.6640  0.4419
  428MOL0     C57672   6.873   3.575   3.140 -0.2182 -0.3237 -0.1791
  428MOL0     C57673   6.961   3.675   3.113  0.0896 -0.0087 -0.5533
  428MOL0     C57674   7.109   3.668   3.153 -0.0455 -0.7785  0.4344
  428MOL0     O57675   7.187   3.778   3.125 -0.0641  1.5160  0.5154
  428MOL0     C57676   7.327   3.771   3.146  0.1771  0.8048  0.2676
  428MOL0     C57677   7.412   3.783   3.038  0.4146 -0.2120 -1.0869
  428MOL0     C57678   7.555   3.786   3.060  0.3615 -0.8492 -0.0080
  428MOL0     C57679   7.607   3.777   3.185 -0.5038 -0.7380 -0.7049
  428MOL0     O57680   7.734   3.798   3.221 -0.0883 -0.0339 -0.6240
  428MOL0     C57681   7.824   3.834   3.120 -0.7232 -0.4319 -0.0629
  428MOL0     C57682   7.971   3.847   3.168  0.6419 -0.2951 -0.6868
  428MOL0     C57683   8.076   3.838   3.055 -0.4475  0.1595 -0.0730
  428MOL0     C57684   8.209   3.877   3.115  0.3884 -0.3756  0.0464
  428MOL0     C57685   8.319   3.890   3.012 -0.6193 -0.2295  0.1917
  428MOL0     C57686   8.440   3.961   3.057 -0.0708  0.5024  0.6837
  428MOL0     C57687   8.543   3.984   2.940 -0.3253 -0.2236  0.2618
  428MOL0     C57688   8.676   4.031   2.999  0.5675 -0.1220 -0.5604
  428MOL0    Cl57689   8.797   4.072   2.865 -0.1712  0.1332 -0.5453
  428MOL0     C57690   7.517   3.773   3.296  0.3688  0.4936  0.1121
  428MOL0     C57691   7.377   3.763   3.279 -0.7717 -1.1319 -0.1384
  428MOL0     O57692   7.155   3.568   3.205  0.5657  0.1265  0.2198
  428MOL0     C57693   6.919   3.777   3.025  0.8058  0.4156  1.1303
  428MOL0     C57694   6.780   3.786   2.987  0.3615 -0.3345 -0.3966
  428MOL0     N57695   6.155   3.411   2.896  0.0264 -0.3517  0.5726
  428MOL0     N57696   6.057   3.340   2.843 -0.1859 -0.3915 -0.2430
  428MOL0     C57697   5.169   3.182   2.139  0.6698 -0.0742 -0.7266
  428MOL0     C57698   5.037   3.205   2.174 -0.5339  0.6393 -0.4921
  428MOL0     C57699   4.598   3.032   2.291 -0.5838  0.4109 -0.4940
  428MOL0     C57700   4.542   3.166   2.283 -0.4353 -0.6103  0.1215
  428MOL0     C57701   4.411   3.200   2.306  0.4749  0.3962 -0.0444
  428MOL0     C57702   4.321   3.104   2.347 -0.3806 -0.3436 -0.4503
  428MOL0     O57703   4.202   3.148   2.394  0.2166 -0.3046 -0.3274
  428MOL0     C57704   4.102   3.065   2.463  0.3044  0.0009 -0.0593
  428MOL0     C57705   3.985   3.026   2.368  0.5013  0.0899  1.1719
  428MOL0     C57706   3.895   2.922   2.446 -0.2869  0.2526 -0.8416
  428MOL0     C57707   3.840   2.981   2.575 -0.2578 -0.5981 -0.2802
  428MOL0     C57708   3.744   3.089   2.554 -0.2446  0.3539 -0.6069
  428MOL0     C57709   3.665   3.179   2.538 -0.6504  0.4685  0.1622
  428MOL0     C57710   4.368   2.973   2.365 -0.1511 -0.0277  0.6715
  428MOL0     C57711   4.501   2.932   2.327 -0.1465  0.7092  0.5936
  428MOL0     C57712   4.530   2.790   2.321 -0.6225  0.5748  0.2389
  428MOL0     H57713   4.949   2.877   2.123 -0.6637  0.6027  1.6861
  428MOL0     H57714   5.160   2.855   2.047  0.8652  0.9393  0.0348
  428MOL0     H57715   5.436   3.216   2.036 -1.0289  0.2693  0.1413
  428MOL0     H57716   5.427   3.170   2.204 -2.0525 -0.2625 -0.7842
  428MOL0     H57717   5.612   3.071   1.985  1.2728  0.9282 -0.2018
  428MOL0     H57718   5.594   2.965   2.119 -1.8656 -0.2279 -2.0845
  428MOL0     H57719   5.700   3.244   2.158  0.2740 -0.1655  0.8943
  428MOL0     H57720   5.796   3.100   2.147 -0.3172 -2.0271 -0.8324
  428MOL0     H57721   5.571   3.137   2.372 -0.5761  1.2856 -2.0963
  428MOL0     H57722   5.683   3.004   2.345  0.7654  0.2273 -2.3284
  428MOL0     H57723   5.874   3.141   2.408  0.2433  0.5958  1.3006
  428MOL0     H57724   5.770   3.285   2.408  0.9434  0.6350  0.1657
  428MOL0     H57725   5.658   3.225   2.602  2.0366  3.1977  0.4349
  428MOL0     H57726   5.730   3.064   2.595  1.8677 -0.2204 -1.7609
  428MOL0     H57727   5.943   3.127   2.662 -0.7596 -0.1745 -1.5909
  428MOL0     H57728   5.833   3.207   2.772  0.2631 -1.6584  0.8424
  428MOL0     H57729   5.959   3.335   2.523 -1.4004 -1.9165  0.1197
  428MOL0     H57730   5.868   3.407   2.661  1.9019  1.2984  1.1830
  428MOL0     H57731   6.150   3.518   2.578 -0.9861  1.2544  1.5016
  428MOL0     H57732   6.413   3.543   2.838  0.8505  0.0190  0.5237
  428MOL0     H57733   6.335   3.639   2.712  0.0248  0.8748  0.6505
  428MOL0     H57734   6.347   3.790   2.895  0.3164 -0.2214 -0.2983
  428MOL0     H57735   6.184   3.716   2.897  0.8664  1.5011 -1.3344
  428MOL0     H57736   6.259   3.578   3.106  1.7453 -1.9780 -1.3511
  428MOL0     H57737   6.296   3.750   3.132  1.3859  1.1138 -1.0624
  428MOL0     H57738   6.467   3.522   3.038 -1.9746  0.7170  0.3238
  428MOL0     H57739   6.489   3.623   3.186  1.2458 -0.9297  0.3396
  428MOL0     H57740   6.672   3.495   3.105 -2.0265  1.1423  1.1440
  428MOL0     H57741   6.906   3.501   3.213 -1.3357 -0.8513 -0.1824
  428MOL0     H57742   7.362   3.788   2.941 -0.2008 -4.0676 -1.1504
  428MOL0     H57743   7.610   3.790   2.967  0.2695  3.7203 -0.0889
  428MOL0     H57744   7.815   3.758   3.042 -1.6872  0.0162 -0.4054
  428MOL0     H57745   7.790   3.931   3.084 -1.0598  0.7764  3.1635
  428MOL0     H57746   7.970   3.943   3.221  0.9500 -1.2679  1.1822
  428MOL0     H57747   7.988   3.766   3.240 -0.7403 -1.4272 -1.5917
  428MOL0     H57748   8.071   3.732   3.028 -2.6067 -0.2266  1.5035
  428MOL0     H57749   8.051   3.905   2.972 -1.1252  0.7682  0.6084
  428MOL0     H57750   8.246   3.806   3.190 -0.1034 -0.3890  0.2805
  428MOL0     H57751   8.196   3.977   3.159  1.5452 -0.2905  0.2459
  428MOL0     H57752   8.282   3.952   2.930  3.4119  0.6747 -1.2012
  428MOL0     H57753   8.350   3.789   2.984 -0.2518  0.3025 -1.4215
  428MOL0     H57754   8.413   4.060   3.095  1.3748  1.6536 -1.1289
  428MOL0     H57755   8.498   3.893   3.121  1.2071  0.2613 -0.6672
  428MOL0     H57756   8.500   4.064   2.879 -0.7932  0.0770  0.9821
  428MOL0     H57757   8.557   3.904   2.866  3.1806  0.2485  0.2611
  428MOL0     H57758   8.654   4.124   3.053 -0.9249 -0.0362 -1.2594
  428MOL0     H57759   8.711   3.962   3.075 -2.3278  1.9774  3.0441
  428MOL0     H57760   7.556   3.780   3.397  0.1301 -0.6784  0.2972
  428MOL0     H57761   7.307   3.768   3.363 -0.6864 -0.3503 -0.1094
  428MOL0     H57762   6.985   3.854   2.986  1.0214  0.9333  2.4416
  428MOL0     H57763   6.752   3.880   2.940  0.3302 -1.0576 -1.8893
  428MOL0     H57764   5.232   3.271   2.144 -2.9681  2.7051  0.2645
  428MOL0     H57765   5.000   3.295   2.222 -0.8200  0.0453  0.4107
  428MOL0     H57766   4.600   3.252   2.251 -0.4180 -1.4445 -2.3144
  428MOL0     H57767   4.376   3.302   2.289  0.2074 -0.1093 -2.9465
  428MOL0     H57768   4.055   3.130   2.537 -0.5964  1.2759 -1.6919
  428MOL0     H57769   4.147   2.973   2.502 -0.3322 -0.4963 -0.4866
  428MOL0     H57770   4.037   2.982   2.283 -1.8865  1.4068 -1.1305
  428MOL0     H57771   3.924   3.112   2.339 -0.6939  0.0261  3.2496
  428MOL0     H57772   3.953   2.831   2.464 -2.5902 -1.7971 -3.0061
  428MOL0     H57773   3.810   2.887   2.386 -2.1508  0.6814  1.4291
  428MOL0     H57774   3.791   2.907   2.639 -0.5023  0.3162  0.6093
  428MOL0     H57775   3.917   3.021   2.642 -0.1951  1.8047 -1.6887
  428MOL0     H57776   3.594   3.253   2.510  0.1874  1.7036  1.1924
  428MOL0     H57777   4.298   2.892   2.381  0.4283 -0.5398  0.6953
  428MOL0     H57778   4.440   2.728   2.316 -2.0994  2.6344 -0.5448
  428MOL0     H57779   4.597   2.768   2.237  1.3727  1.6774  1.4786
  428MOL0     H57780   4.587   2.757   2.408 -1.7156 -0.1485  0.6995
  429MOL0     O57781   5.561   6.710   5.416  0.9131  0.4147 -0.3965
  429MOL0     C57782   5.537   6.593   5.407 -0.1163  0.0804 -0.6907
  429MOL0     O57783   5.625   6.496   5.386  0.1282 -0.1438 -0.4011
  429MOL0     C57784   5.758   6.520   5.370  0.8868  0.2670  0.0080
  429MOL0     C57785   5.829   6.566   5.481 -0.4070 -0.0405  0.5424
  429MOL0     C57786   5.962   6.605   5.468  0.2885  0.7939 -0.3504
  429MOL0     C57787   6.026   6.583   5.347  1.0783 -0.0142 -0.5817
  429MOL0     O57788   6.153   6.625   5.318  0.8393  0.0819 -0.5972
  429MOL0     C57789   6.245   6.614   5.424 -0.8825  0.6023  0.1403
  429MOL0     C57790   6.386   6.585   5.375 -0.1694  0.1821  1.1421
  429MOL0     C57791   6.497   6.585   5.477  0.1549  0.1027 -0.5205
  429MOL0     C57792   6.632   6.584   5.412 -0.7630  0.0018  0.4639
  429MOL0     C57793   6.736   6.603   5.517  0.3038  0.6194  0.2317
  429MOL0     C57794   6.875   6.622   5.457 -0.6964 -1.0905  0.2563
  429MOL0     C57795   6.964   6.714   5.554 -0.5038  0.0984 -0.6058
  429MOL0     C57796   7.058   6.636   5.644 -0.2817  0.5975  0.8298
  429MOL0     N57797   7.176   6.597   5.568 -0.6560  0.5881  0.2555
  429MOL0     C57798   7.300   6.658   5.574 -0.1773 -0.3020  0.1258
  429MOL0     C57799   7.390   6.576   5.512  0.8684  0.0064 -0.1117
  429MOL0     C57800   7.537   6.597   5.512 -0.4851  0.2361  0.0318
  429MOL0     C57801   7.594   6.658   5.381 -0.7271  0.7349  0.5845
  429MOL0     C57802   7.736   6.702   5.380  0.2708 -0.5157 -0.1249
  429MOL0     C57803   7.831   6.583   5.429  0.0165 -1.1330  0.0550
  429MOL0     O57804   7.968   6.627   5.414  0.0100  0.2793 -0.7456
  429MOL0     C57805   8.080   6.563   5.478  0.8540 -0.5142  0.5131
  429MOL0     C57806   8.077   6.456   5.566  0.1976 -0.1485  0.2478
  429MOL0     C57807   8.194   6.403   5.627 -0.4277 -0.3645 -0.6547
  429MOL0     C57808   8.313   6.478   5.609  0.7183  0.4092 -0.1982
  429MOL0     C57809   8.442   6.446   5.683  0.1427  0.1171 -0.9445
  429MOL0     O57810   8.540   6.539   5.676  0.0478  0.7256  0.0624
  429MOL0     C57811   8.641   6.520   5.766  0.4435 -0.0220  1.1469
  429MOL0     C57812   8.718   6.401   5.789 -0.0648 -0.1846 -0.5016
  429MOL0     C57813   8.838   6.401   5.852  0.6524  0.3301  0.3406
  429MOL0     C57814   8.897   6.519   5.890  0.1597 -1.2497  0.3619
  429MOL0     O57815   9.011   6.493   5.973 -0.5775  0.0428 -0.2889
  429MOL0     C57816   9.049   6.614   6.053 -0.0503  0.8788  0.0987
  429MOL0     C57817   9.173   6.676   6.000  0.8991 -0.9075  0.2460
  429MOL0     C57818   9.251   6.765   6.097 -0.4535  0.7977 -0.5342
  429MOL0     C57819   9.178   6.887   6.128 -0.8872 -0.3820  0.1016
  429MOL0     C57820   9.263   7.004   6.176  0.0855  0.3428  0.4643
  429MOL0     C57821   9.377   6.979   6.279 -0.0765  0.1503 -0.1334
  429MOL0     C57822   9.451   7.106   6.315 -0.5535 -0.5194  0.1916
  429MOL0     C57823   9.556   7.072   6.425 -0.0069 -0.5631 -0.0061
  429MOL0    Cl57824   9.692   7.193   6.456 -0.2154 -0.1371 -0.2920
  429MOL0     C57825   8.827   6.637   5.875  0.1499 -0.2760  0.1971
  429MOL0     C57826   8.699   6.642   5.812 -0.0533  1.0744  1.5044
  429MOL0     O57827   8.442   6.340   5.754  0.1867  0.1761 -0.3536
  429MOL0     C57828   8.311   6.594   5.534  0.1336 -0.6207  0.4692
  429MOL0     C57829   8.198   6.631   5.466  0.3977 -0.9191 -0.1725
  429MOL0     N57830   7.327   6.462   5.488 -1.1215 -0.1277  0.6828
  429MOL0     N57831   7.199   6.478   5.515 -0.7453  0.4708 -0.5750
  429MOL0     C57832   5.950   6.546   5.239  0.2115 -0.4719  0.0496
  429MOL0     C57833   5.818   6.509   5.245 -0.0422  1.0225  1.0416
  429MOL0     C57834   5.394   6.549   5.423 -0.1584 -0.0563  0.7116
  429MOL0     C57835   5.321   6.631   5.524 -1.2285  0.9820  0.2488
  429MOL0     C57836   5.186   6.600   5.547 -0.6365  0.0741 -0.0871
  429MOL0     C57837   5.119   6.512   5.473 -0.5413  1.1939  0.2090
  429MOL0     O57838   4.987   6.478   5.491  0.8937  0.1057  0.0472
  429MOL0     C57839   4.908   6.556   5.583  0.6169 -0.6051 -0.0537
  429MOL0     C57840   4.767   6.494   5.580 -0.5283 -0.0548  0.3218
  429MOL0     C57841   4.692   6.501   5.446  0.5740  0.5592  0.1214
  429MOL0     C57842   4.570   6.411   5.447  1.2153  0.7180  0.3378
  429MOL0     C57843   4.484   6.416   5.569 -0.1690  0.1887 -0.2933
  429MOL0     C57844   4.409   6.439   5.662  0.0657  0.2567  0.5017
  429MOL0     C57845   5.187   6.439   5.378  0.9039  0.6078 -0.0705
  429MOL0     C57846   5.323   6.455   5.351 -0.0216 -0.0056 -0.5517
  429MOL0     C57847   5.391   6.372   5.247 -0.0957  0.5761  0.1742
  429MOL0     H57848   5.777   6.582   5.575 -1.5232  2.3673 -0.3961
  429MOL0     H57849   6.006   6.653   5.555 -0.9204 -1.0491  1.3822
  429MOL0     H57850   6.235   6.718   5.455 -1.9107  0.7639 -0.6769
  429MOL0     H57851   6.229   6.541   5.504  1.4011  0.3293  0.4119
  429MOL0     H57852   6.418   6.653   5.295  0.0347  1.3418  2.1762
  429MOL0     H57853   6.378   6.483   5.335 -3.3128  0.7131  0.0921
  429MOL0     H57854   6.476   6.492   5.530  1.5288  0.9183  1.5781
  429MOL0     H57855   6.474   6.663   5.549 -1.7007 -0.0509 -0.9012
  429MOL0     H57856   6.641   6.484   5.368 -1.0660  0.2279 -0.1157
  429MOL0     H57857   6.638   6.656   5.330  1.3402 -0.7448 -0.1052
  429MOL0     H57858   6.707   6.686   5.582 -1.6429  0.8710 -0.8789
  429MOL0     H57859   6.750   6.521   5.587 -2.0943 -2.4740 -2.5677
  429MOL0     H57860   6.919   6.523   5.445  1.6776  0.1511 -2.4232
  429MOL0     H57861   6.859   6.662   5.356 -1.6515 -1.1544  0.3727
  429MOL0     H57862   6.897   6.772   5.618 -1.0107 -0.7911 -0.2998
  429MOL0     H57863   7.030   6.785   5.504  1.4442 -0.9101  0.3761
  429MOL0     H57864   7.088   6.705   5.723 -0.1049  0.4893  0.8579
  429MOL0     H57865   7.020   6.538   5.675  0.4686  0.0398  0.0351
  429MOL0     H57866   7.328   6.740   5.638  1.8995  1.1318 -2.4129
  429MOL0     H57867   7.571   6.666   5.590 -1.2893  2.7359 -1.6945
  429MOL0     H57868   7.580   6.497   5.525  0.7487  0.7300 -0.1559
  429MOL0     H57869   7.574   6.592   5.296  0.4340 -0.0838  0.9201
  429MOL0     H57870   7.536   6.748   5.355 -0.1727  1.0248  0.3331
  429MOL0     H57871   7.739   6.790   5.445 -0.8551 -0.2963 -0.3614
  429MOL0     H57872   7.768   6.725   5.278  1.5134  0.3567  0.4384
  429MOL0     H57873   7.810   6.489   5.378 -0.3594 -1.1408  0.2216
  429MOL0     H57874   7.825   6.563   5.536  2.0017 -2.2225  0.0203
  429MOL0     H57875   7.978   6.418   5.587 -0.1196  0.9378  0.8238
  429MOL0     H57876   8.194   6.320   5.698  4.8686  0.0404  0.2609
  429MOL0     H57877   8.683   6.309   5.744 -0.7936 -0.5233  0.7209
  429MOL0     H57878   8.888   6.309   5.883  1.4068  1.5528  2.9882
  429MOL0     H57879   8.966   6.682   6.072 -2.7779 -2.0803 -0.3811
  429MOL0     H57880   9.092   6.579   6.147  2.9282  1.0567 -1.0828
  429MOL0     H57881   9.237   6.589   5.981 -2.2296 -3.2157 -0.4301
  429MOL0     H57882   9.141   6.733   5.912  0.1011  2.5031  2.5495
  429MOL0     H57883   9.284   6.709   6.185  2.1969 -0.4745 -2.2145
  429MOL0     H57884   9.349   6.777   6.051  0.5979  0.4123  1.5077
  429MOL0     H57885   9.096   6.866   6.197 -0.9121  0.8627  0.4814
  429MOL0     H57886   9.141   6.922   6.031 -1.4037 -1.0316  0.0647
  429MOL0     H57887   9.184   7.071   6.209 -0.5338 -0.0644 -0.1721
  429MOL0     H57888   9.317   7.052   6.093  2.1897  0.1791  1.6578
  429MOL0     H57889   9.334   6.930   6.367  0.2902 -1.0155 -0.5886
  429MOL0     H57890   9.448   6.904   6.245  1.5067  2.1072 -1.3796
  429MOL0     H57891   9.400   7.197   6.349  0.9647  2.0256 -3.6240
  429MOL0     H57892   9.511   7.138   6.229 -1.4142 -2.9892 -1.4341
  429MOL0     H57893   9.489   7.059   6.510  0.5074  2.0839  0.8889
  429MOL0     H57894   9.603   6.977   6.397  0.8493 -0.2693  0.3980
  429MOL0     H57895   8.859   6.735   5.909  0.0059 -0.8780  2.2237
  429MOL0     H57896   8.630   6.725   5.798 -1.0966  0.3773  2.3423
  429MOL0     H57897   8.400   6.652   5.511 -1.3382  1.2889 -0.8134
  429MOL0     H57898   8.204   6.727   5.415 -2.1587 -0.5777  0.0223
  429MOL0     H57899   6.012   6.538   5.151 -0.1274 -1.3644 -0.1182
  429MOL0     H57900   5.772   6.489   5.149 -1.4650  0.7093  1.7524
  429MOL0     H57901   5.363   6.717   5.576 -0.2191 -0.7951  2.5429
  429MOL0     H57902   5.145   6.663   5.626  0.6329 -1.1415  1.6041
  429MOL0     H57903   4.895   6.658   5.546 -0.6011 -1.5040 -2.2871
  429MOL0     H57904   4.957   6.558   5.681  3.0725  1.5947 -1.2118
  429MOL0     H57905   4.709   6.554   5.652  1.4294  2.8459 -0.3250
  429MOL0     H57906   4.783   6.391   5.612  0.1702 -0.7189 -2.0142
  429MOL0     H57907   4.755   6.464   5.365 -0.2006  0.5437 -0.4826
  429MOL0     H57908   4.666   6.604   5.422 -0.1758  0.6687  1.3011
  429MOL0     H57909   4.505   6.448   5.367  0.9181 -1.2265 -0.3602
  429MOL0     H57910   4.600   6.314   5.406  0.3110  0.7389 -0.4254
  429MOL0     H57911   4.352   6.473   5.745 -1.8819  1.3996 -1.2264
  429MOL0     H57912   5.126   6.369   5.321 -0.2091  0.2853  1.4557
  429MOL0     H57913   5.444   6.284   5.285 -0.7240  0.2894  0.4102
  429MOL0     H57914   5.322   6.345   5.166  0.0365  6.3582 -2.3540
  429MOL0     H57915   5.453   6.437   5.185 -1.6155  1.2115 -0.7399
  430MOL0     O57916   6.110   2.071   4.813  0.1244  0.8759  0.0556
  430MOL0     C57917   6.052   2.017   4.720  0.1186 -0.2506  0.5391
  430MOL0     O57918   6.090   1.899   4.653 -0.9709 -0.1974 -0.2227
  430MOL0     C57919   6.216   1.855   4.675  0.0020  0.7415  0.0022
  430MOL0     C57920   6.323   1.935   4.655 -0.2544 -0.3348  0.5409
  430MOL0     C57921   6.452   1.878   4.651  0.5211 -0.1472 -0.3672
  430MOL0     C57922   6.474   1.732   4.648  0.7060 -0.2903 -0.8667
  430MOL0     O57923   6.598   1.666   4.653 -0.3708  0.0792  0.5870
  430MOL0     C57924   6.699   1.751   4.717 -0.4340  0.4571  0.1939
  430MOL0     C57925   6.818   1.675   4.762  0.0519 -0.3515  0.7062
  430MOL0     C57926   6.911   1.615   4.652 -0.2722 -0.0183  0.3407
  430MOL0     C57927   7.040   1.553   4.723 -0.3246  0.6517  0.4119
  430MOL0     C57928   7.149   1.536   4.618 -0.4126  0.6630 -0.2348
  430MOL0     C57929   7.282   1.479   4.681  0.1778  0.7070 -1.1587
  430MOL0     C57930   7.269   1.323   4.678 -0.1801  0.0439 -0.2092
  430MOL0     C57931   7.393   1.255   4.731 -0.4321 -0.4867  0.0094
  430MOL0     N57932   7.524   1.299   4.662 -0.3149  0.6466  0.7885
  430MOL0     C57933   7.644   1.303   4.731 -0.8265  0.5000  0.1287
  430MOL0     C57934   7.730   1.358   4.644 -0.1319 -0.4250  0.5452
  430MOL0     C57935   7.879   1.380   4.676 -0.1924  0.5576  0.1954
  430MOL0     C57936   7.899   1.533   4.716  0.4895 -0.2996  0.4778
  430MOL0     C57937   7.827   1.571   4.847  0.1775 -0.1533 -0.5711
  430MOL0     C57938   7.745   1.699   4.808 -0.1503  0.7163  0.4594
  430MOL0     O57939   7.670   1.729   4.926 -0.1122 -0.3736 -0.7319
  430MOL0     C57940   7.554   1.790   4.921 -0.1762 -0.3021  0.6424
  430MOL0     C57941   7.526   1.882   5.029 -0.0371 -0.1806  0.3590
  430MOL0     C57942   7.410   1.961   5.021  0.2754 -0.6584 -0.2210
  430MOL0     C57943   7.313   1.936   4.918 -0.4826 -0.6157  0.2316
  430MOL0     C57944   7.192   2.018   4.919 -0.1633 -0.4856 -0.3131
  430MOL0     O57945   7.102   2.001   4.817 -0.7085 -0.5683 -0.1042
  430MOL0     C57946   6.992   2.072   4.827  1.0276 -0.1113  0.3019
  430MOL0     C57947   6.879   2.012   4.886 -0.5088 -0.4403 -0.4637
  430MOL0     C57948   6.761   2.092   4.891 -0.2122 -0.0535  0.1112
  430MOL0     C57949   6.751   2.225   4.835  0.0949  1.2838  0.1457
  430MOL0     O57950   6.638   2.298   4.825  0.7447  0.6456  0.3754
  430MOL0     C57951   6.518   2.249   4.886 -0.6668  0.4008  0.0592
  430MOL0     C57952   6.419   2.350   4.855 -0.1123  0.4674  0.7493
  430MOL0     C57953   6.392   2.374   4.704  0.8499 -0.8907 -0.7723
  430MOL0     C57954   6.286   2.489   4.689 -0.2242  0.0559  0.5535
  430MOL0     C57955   6.261   2.512   4.538  0.2118  0.4117  0.7458
  430MOL0     C57956   6.139   2.602   4.516  0.3579  0.2224 -0.0423
  430MOL0     C57957   6.012   2.529   4.561  0.0455 -0.7618 -0.0419
  430MOL0     C57958   5.888   2.612   4.519 -0.3551 -0.5377 -0.2562
  430MOL0    Cl57959   5.736   2.548   4.561 -0.1354  0.1580 -0.3954
  430MOL0     C57960   6.865   2.277   4.784 -0.2372 -0.8336 -0.0174
  430MOL0     C57961   6.982   2.202   4.775 -0.3715  0.4645 -0.0591
  430MOL0     O57962   7.176   2.103   5.008 -0.1899  0.0732 -0.4283
  430MOL0     C57963   7.333   1.838   4.826 -0.0959  0.5081  0.2904
  430MOL0     C57964   7.452   1.760   4.828 -0.1610  0.8183 -0.5895
  430MOL0     N57965   7.674   1.380   4.530  0.6508 -0.5346  0.6421
  430MOL0     N57966   7.548   1.346   4.535 -0.1764 -0.3561 -0.5284
  430MOL0     C57967   6.368   1.650   4.672 -0.4687 -0.7359  1.2541
  430MOL0     C57968   6.240   1.715   4.682  0.6724 -0.3581 -0.0023
  430MOL0     C57969   5.926   2.076   4.685  0.3486 -0.1033 -0.2377
  430MOL0     C57970   5.847   2.008   4.587  0.5098  0.3010  0.3284
  430MOL0     C57971   5.713   2.046   4.546  0.5735  0.4206  0.1108
  430MOL0     C57972   5.645   2.148   4.619  0.2101  0.4119 -0.2666
  430MOL0     O57973   5.518   2.190   4.582  0.3905 -0.5876 -0.1519
  430MOL0     C57974   5.426   2.132   4.678 -0.2302 -0.7484 -0.1247
  430MOL0     C57975   5.288   2.095   4.619 -0.4744 -0.4446 -0.4317
  430MOL0     C57976   5.221   2.225   4.569 -0.1684  0.3367 -1.2337
  430MOL0     C57977   5.101   2.261   4.656 -0.3686  0.0569 -0.8510
  430MOL0     C57978   4.982   2.179   4.616  1.2033 -0.0481  0.9116
  430MOL0     C57979   4.888   2.102   4.590  0.3242 -1.4878  0.1309
  430MOL0     C57980   5.722   2.220   4.709 -0.4643  0.3533  0.1011
  430MOL0     C57981   5.857   2.194   4.739 -0.4244 -0.6164 -0.8321
  430MOL0     C57982   5.919   2.295   4.836 -0.0136  0.4844 -0.2915
  430MOL0     H57983   6.305   2.040   4.636 -0.1392 -0.3230  0.4959
  430MOL0     H57984   6.534   1.948   4.639  1.9574 -1.7061  0.0080
  430MOL0     H57985   6.734   1.820   4.640 -0.8698 -0.5007 -0.8974
  430MOL0     H57986   6.658   1.807   4.801 -0.3053  2.6848 -1.1410
  430MOL0     H57987   6.783   1.599   4.833  2.2156 -1.8067  0.3359
  430MOL0     H57988   6.876   1.747   4.819 -0.0525  0.6390 -0.4176
  430MOL0     H57989   6.953   1.693   4.587  0.3443  0.7668  1.6358
  430MOL0     H57990   6.869   1.547   4.578  0.1191 -0.2779  0.3534
  430MOL0     H57991   7.071   1.625   4.799 -0.4010 -0.3004  1.3794
  430MOL0     H57992   7.021   1.458   4.774 -1.0588 -1.8647 -4.0540
  430MOL0     H57993   7.119   1.468   4.538  1.6171 -1.8188  0.9625
  430MOL0     H57994   7.160   1.634   4.571 -2.9404  0.9136 -0.4401
  430MOL0     H57995   7.369   1.508   4.621  2.2712  0.2011  1.4036
  430MOL0     H57996   7.300   1.520   4.781  2.0371 -0.2605 -1.0355
  430MOL0     H57997   7.249   1.293   4.574 -1.4159 -1.9091  0.5296
  430MOL0     H57998   7.179   1.302   4.736 -1.2247  2.2363 -0.9627
  430MOL0     H57999   7.385   1.289   4.835  2.3238  1.0498 -0.1906
  430MOL0     H58000   7.381   1.146   4.738  0.8806 -0.6872 -0.5346
  430MOL0     H58001   7.676   1.273   4.830  1.5449  0.7646 -0.5073
  430MOL0     H58002   7.903   1.321   4.765 -0.8817 -0.6718 -0.4045
  430MOL0     H58003   7.950   1.356   4.596  0.1304  1.6618  0.1406
  430MOL0     H58004   8.004   1.557   4.733  0.8697 -0.2583 -1.6124
  430MOL0     H58005   7.866   1.598   4.634  1.5493  0.6146  0.7454
  430MOL0     H58006   7.897   1.583   4.931 -1.2176 -1.1781  0.8014
  430MOL0     H58007   7.754   1.495   4.876  2.2516 -1.5731  1.3017
  430MOL0     H58008   7.694   1.680   4.713 -1.2049  0.7145  1.0064
  430MOL0     H58009   7.815   1.782   4.796 -3.0117  3.1247 -0.9027
  430MOL0     H58010   7.603   1.897   5.104  0.3741  1.4337 -0.3476
  430MOL0     H58011   7.398   2.048   5.084  0.3532 -0.8208  0.0186
  430MOL0     H58012   6.897   1.914   4.930  1.5865  0.3556  0.6062
  430MOL0     H58013   6.669   2.048   4.928 -0.4456  1.1269  0.9714
  430MOL0     H58014   6.486   2.154   4.843 -1.0448  0.1591  0.8519
  430MOL0     H58015   6.530   2.237   4.994 -0.1090 -0.6597 -0.1126
  430MOL0     H58016   6.324   2.325   4.903 -0.2240  1.0283  0.8299
  430MOL0     H58017   6.460   2.445   4.892  1.1828  0.3294 -0.2522
  430MOL0     H58018   6.487   2.400   4.655  1.7255 -2.4269  0.0217
  430MOL0     H58019   6.347   2.280   4.670 -1.2214 -0.8158  1.5252
  430MOL0     H58020   6.328   2.577   4.739 -1.6443  0.1919  1.5501
  430MOL0     H58021   6.192   2.472   4.741  0.8892 -1.7685  2.0967
  430MOL0     H58022   6.249   2.418   4.485  3.1879 -0.8552  2.0936
  430MOL0     H58023   6.348   2.556   4.489 -1.0509  0.8365 -1.2183
  430MOL0     H58024   6.159   2.695   4.570  0.8236 -0.2691  0.6498
  430MOL0     H58025   6.125   2.623   4.410 -2.3961 -0.2114  0.1666
  430MOL0     H58026   6.000   2.531   4.670  0.1193  0.6663 -0.0308
  430MOL0     H58027   5.994   2.431   4.517 -1.8487  1.1783 -4.1848
  430MOL0     H58028   5.895   2.706   4.573  0.6869 -1.6398  1.6363
  430MOL0     H58029   5.895   2.626   4.410  1.2260 -1.9951 -0.3946
  430MOL0     H58030   6.864   2.377   4.742 -4.2197  0.3105  2.3355
  430MOL0     H58031   7.067   2.250   4.727  0.1021 -0.0128  0.2950
  430MOL0     H58032   7.256   1.818   4.753  1.5818 -0.1853 -1.3869
  430MOL0     H58033   7.466   1.682   4.754  2.9595  0.0421  0.6613
  430MOL0     H58034   6.379   1.542   4.664 -2.9662 -1.0349  1.0513
  430MOL0     H58035   6.151   1.659   4.706  0.3825  0.9759  2.4447
  430MOL0     H58036   5.885   1.923   4.532 -1.3031 -0.6205  0.4164
  430MOL0     H58037   5.670   2.003   4.457 -2.3206 -0.2489  1.7067
  430MOL0     H58038   5.416   2.213   4.751 -1.7771  0.9538 -2.0809
  430MOL0     H58039   5.463   2.038   4.719  0.3045  0.2924  1.8622
  430MOL0     H58040   5.228   2.041   4.693  0.0384 -2.1793 -1.2446
  430MOL0     H58041   5.303   2.015   4.547 -1.2357  0.9113 -2.1517
  430MOL0     H58042   5.189   2.196   4.468  1.7046  1.0913 -2.1028
  430MOL0     H58043   5.300   2.301   4.559  1.0516 -0.4195  1.5745
  430MOL0     H58044   5.122   2.250   4.762 -0.0565 -3.7291 -1.1649
  430MOL0     H58045   5.083   2.368   4.640  4.1345  0.8954 -1.5865
  430MOL0     H58046   4.805   2.040   4.562 -2.8185  2.4827 -0.2581
  430MOL0     H58047   5.680   2.307   4.757  0.0839  1.9130 -2.0805
  430MOL0     H58048   5.913   2.261   4.940 -0.3260  0.8583 -0.1878
  430MOL0     H58049   6.023   2.316   4.809  0.5833 -2.3486 -0.5072
  430MOL0     H58050   5.874   2.393   4.819 -0.9457 -0.2101 -2.1392
  431MOL0     O58051   6.719   9.509   9.243 -0.4132  0.1602  0.5463
  431MOL0     C58052   6.747   9.394   9.195  0.4452  0.4816  0.0926
  431MOL0     O58053   6.852   9.361   9.111 -0.5451  0.0277  0.1488
  431MOL0     C58054   6.961   9.438   9.080  0.1185  0.0592 -0.4639
  431MOL0     C58055   7.001   9.555   9.152 -0.3426  0.7360  0.2318
  431MOL0     C58056   7.109   9.629   9.113 -0.3369 -0.5483  0.5722
  431MOL0     C58057   7.163   9.605   8.992  0.2202  0.1268  0.5857
  431MOL0     O58058   7.267   9.690   8.959 -0.0696 -0.5233  0.0569
  431MOL0     C58059   7.321   9.689   8.819  0.5215  0.0980 -0.0920
  431MOL0     C58060   7.432   9.790   8.800 -0.3008  0.5368 -0.9863
  431MOL0     C58061   7.394   9.937   8.828  0.6032  1.2088 -0.4893
  431MOL0     C58062   7.514  10.014   8.801 -0.2333 -0.1683 -0.2777
  431MOL0     C58063   7.480  10.169   8.789 -0.6061  0.3917  0.1271
  431MOL0     C58064   7.550  10.240   8.670  0.4556 -0.0606 -0.1030
  431MOL0     C58065   7.488  10.197   8.529  0.1346 -0.0667  0.2890
  431MOL0     C58066   7.544  10.277   8.404 -0.6240  0.0119  0.1413
  431MOL0     N58067   7.694  10.275   8.397 -0.2139 -0.2295  0.3702
  431MOL0     C58068   7.777  10.177   8.345 -0.1306  0.2891  0.1173
  431MOL0     C58069   7.904  10.228   8.362 -0.2325  0.7460 -0.7801
  431MOL0     C58070   8.029  10.147   8.320  0.1454  0.1241 -0.3780
  431MOL0     C58071   8.163  10.216   8.347  1.3357 -0.0805 -0.2294
  431MOL0     C58072   8.197  10.334   8.243  0.3707 -0.3279 -0.5663
  431MOL0     C58073   8.257  10.286   8.114  0.3085  0.6030  0.2543
  431MOL0     O58074   8.300  10.394   8.027  0.5120  0.2009 -0.0841
  431MOL0     C58075   8.425  10.449   8.030  0.6306  0.1630  0.0157
  431MOL0     C58076   8.524  10.418   8.127  0.5232 -0.6717 -0.4874
  431MOL0     C58077   8.654  10.473   8.110 -0.3612 -0.2397 -0.1681
  431MOL0     C58078   8.684  10.562   8.003 -0.0139  0.1965 -0.9734
  431MOL0     C58079   8.822  10.609   7.985 -0.0189  1.1656  0.5710
  431MOL0     O58080   8.844  10.679   7.872 -0.4794 -0.0598 -0.2117
  431MOL0     C58081   8.965  10.745   7.864 -0.6337  0.6438  0.6395
  431MOL0     C58082   8.993  10.861   7.939 -0.1831 -0.1867  0.1782
  431MOL0     C58083   9.103  10.937   7.920 -0.3773  0.0124  0.6149
  431MOL0     C58084   9.214  10.878   7.836  0.2060  0.0109 -0.1714
  431MOL0     O58085   9.330  10.938   7.792  0.2469 -0.9682 -0.1330
  431MOL0     C58086   9.397  11.025   7.874  0.6462 -0.7030 -0.1287
  431MOL0     C58087   9.364  11.177   7.856  0.2258 -0.0773 -0.0188
  431MOL0     C58088   9.449  11.263   7.945 -0.0573 -0.5174  0.0520
  431MOL0     C58089   9.375  11.389   7.982 -0.0340 -0.3773 -0.7017
  431MOL0     C58090   9.462  11.479   8.067  0.5858  0.2762  0.6864
  431MOL0     C58091   9.388  11.601   8.115  0.7404 -0.0419 -0.3924
  431MOL0     C58092   9.491  11.710   8.152 -0.0633 -0.3971  0.7887
  431MOL0     C58093   9.440  11.808   8.255 -0.0935  0.0139 -0.7412
  431MOL0    Cl58094   9.408  11.734   8.408 -0.1842  0.1479  0.0030
  431MOL0     C58095   9.191  10.747   7.777 -0.0625 -0.0180 -1.0005
  431MOL0     C58096   9.067  10.688   7.793  1.1147  0.2013 -0.6233
  431MOL0     O58097   8.906  10.570   8.062 -0.1466  0.2408  0.7861
  431MOL0     C58098   8.578  10.601   7.917 -0.2533 -0.0525 -0.6811
  431MOL0     C58099   8.449  10.541   7.936 -1.2773 -0.4342  0.7717
  431MOL0     N58100   7.899  10.350   8.418  0.4769 -0.6885  0.2221
  431MOL0     N58101   7.772  10.380   8.427 -0.7309  0.6782 -0.3661
  431MOL0     C58102   7.140   9.480   8.926  0.0313 -0.2139  0.6722
  431MOL0     C58103   7.039   9.399   8.969  0.4905 -0.3437 -0.5298
  431MOL0     C58104   6.655   9.288   9.242 -0.9847  0.0528  0.4772
  431MOL0     C58105   6.565   9.308   9.346  0.4381 -1.1878 -0.5267
  431MOL0     C58106   6.480   9.208   9.395  0.6372  0.2972 -0.4624
  431MOL0     C58107   6.497   9.085   9.347 -0.2021  0.2461 -0.3316
  431MOL0     O58108   6.436   8.974   9.392  0.0007  0.4222  0.2119
  431MOL0     C58109   6.331   8.979   9.491 -0.3671 -0.5440  0.6196
  431MOL0     C58110   6.206   8.967   9.424  0.3474  0.1055  0.2312
  431MOL0     C58111   6.173   8.837   9.355 -0.5150  0.7356  0.1666
  431MOL0     C58112   6.031   8.804   9.308 -0.3914 -0.0250 -0.3400
  431MOL0     C58113   6.007   8.873   9.182  0.6935 -0.1041 -0.0713
  431MOL0     C58114   5.991   8.921   9.072 -0.8625  0.3263  0.2202
  431MOL0     C58115   6.584   9.054   9.249 -0.6845  0.2007 -0.1851
  431MOL0     C58116   6.656   9.153   9.186  0.2993 -1.2082  0.2546
  431MOL0     C58117   6.741   9.110   9.064  1.0254  0.3551 -0.0327
  431MOL0     H58118   6.956   9.587   9.246  0.3619  4.1562 -0.4962
  431MOL0     H58119   7.145   9.713   9.172 -0.7379  1.1931 -1.5241
  431MOL0     H58120   7.354   9.590   8.786  0.6773  0.5322 -1.3004
  431MOL0     H58121   7.244   9.731   8.753 -0.9385 -0.0532  1.4593
  431MOL0     H58122   7.451   9.782   8.693  0.0427 -1.3127 -0.8174
  431MOL0     H58123   7.519   9.761   8.860  0.7376  0.0314 -2.6819
  431MOL0     H58124   7.350   9.967   8.924  0.0829  5.4053 -1.8130
  431MOL0     H58125   7.320   9.968   8.753  0.1296  2.4461  0.4513
  431MOL0     H58126   7.594   9.999   8.874  0.3509  1.3345 -0.5709
  431MOL0     H58127   7.567   9.991   8.708  0.5732  4.9305 -1.4150
  431MOL0     H58128   7.373  10.180   8.771 -0.7381  0.0693  0.6927
  431MOL0     H58129   7.503  10.219   8.883 -3.0911  3.7102 -0.8616
  431MOL0     H58130   7.543  10.348   8.686 -2.4262 -0.0633 -0.7727
  431MOL0     H58131   7.654  10.207   8.683  0.4562 -0.9547 -1.9955
  431MOL0     H58132   7.379  10.203   8.530  0.1837  2.6158  3.4794
  431MOL0     H58133   7.518  10.094   8.506 -0.9243 -0.3308  0.0605
  431MOL0     H58134   7.499  10.228   8.318  1.2215 -0.2265 -0.7276
  431MOL0     H58135   7.514  10.381   8.418  0.1968  0.2277  0.3678
  431MOL0     H58136   7.741  10.090   8.290  1.0328  1.2692 -2.3413
  431MOL0     H58137   8.025  10.058   8.383 -0.3558  0.4496  0.0604
  431MOL0     H58138   8.023  10.098   8.222 -0.2914 -2.3618  0.8271
  431MOL0     H58139   8.154  10.244   8.452 -3.1928  2.5024 -1.0444
  431MOL0     H58140   8.245  10.147   8.324  1.3549  0.8349 -3.3911
  431MOL0     H58141   8.279  10.374   8.302 -0.3036 -3.1994  2.7128
  431MOL0     H58142   8.117  10.408   8.236 -0.0457 -0.6121  0.7711
  431MOL0     H58143   8.188  10.219   8.063  1.4140 -0.5182  0.1892
  431MOL0     H58144   8.344  10.224   8.136 -0.0756  0.1397  0.4927
  431MOL0     H58145   8.507  10.346   8.207 -2.7107 -1.6894 -1.9434
  431MOL0     H58146   8.727  10.444   8.185  0.4562 -0.7567 -1.1261
  431MOL0     H58147   8.911  10.899   8.000  0.6558  4.0770 -0.9964
  431MOL0     H58148   9.109  11.041   7.950 -1.1552  1.0943 -2.5537
  431MOL0     H58149   9.386  10.991   7.978  1.6209 -0.9258 -0.0938
  431MOL0     H58150   9.494  10.995   7.834 -0.2060 -1.5459 -1.6355
  431MOL0     H58151   9.376  11.204   7.751  0.4162 -0.9010 -0.2210
  431MOL0     H58152   9.261  11.191   7.890 -0.2378 -0.3116 -1.3018
  431MOL0     H58153   9.476  11.209   8.037 -0.9951  0.6379  1.0390
  431MOL0     H58154   9.543  11.297   7.902  0.7775 -1.1718  1.2955
  431MOL0     H58155   9.290  11.364   8.045 -0.9984 -1.4765 -2.3553
  431MOL0     H58156   9.339  11.440   7.892 -1.1215 -1.0397 -0.6542
  431MOL0     H58157   9.541  11.524   8.005 -1.8438  2.0252 -1.3171
  431MOL0     H58158   9.503  11.422   8.151 -0.7300  0.0083  1.1639
  431MOL0     H58159   9.327  11.645   8.036 -1.2177  0.2322  1.2135
  431MOL0     H58160   9.321  11.576   8.197  1.1351 -0.6245 -0.2373
  431MOL0     H58161   9.515  11.766   8.061 -0.2369  2.7055  2.5112
  431MOL0     H58162   9.578  11.652   8.185 -0.2006 -0.0514  1.8083
  431MOL0     H58163   9.511  11.891   8.263  0.6861 -0.4216 -2.6063
  431MOL0     H58164   9.349  11.848   8.211 -1.1424  0.8224  1.9607
  431MOL0     H58165   9.281  10.702   7.736  0.8143  0.8447 -0.0718
  431MOL0     H58166   9.054  10.591   7.747  0.0148 -1.4253  2.7281
  431MOL0     H58167   8.598  10.671   7.837  0.6435  1.8916  1.1305
  431MOL0     H58168   8.380  10.567   7.857  0.8650  2.4823 -0.3021
  431MOL0     H58169   7.197   9.455   8.837  1.4771 -2.2234  2.0591
  431MOL0     H58170   7.024   9.307   8.914  0.5680 -0.7824  0.1666
  431MOL0     H58171   6.546   9.399   9.402 -1.2422 -2.0611  0.4142
  431MOL0     H58172   6.403   9.231   9.468  2.0566 -0.6231  1.4162
  431MOL0     H58173   6.335   9.058   9.566  0.1292 -1.1953  1.2887
  431MOL0     H58174   6.341   8.887   9.548  0.5310 -1.9280 -1.6213
  431MOL0     H58175   6.198   9.047   9.350 -0.2793  1.3300  1.5688
  431MOL0     H58176   6.134   8.991   9.502 -0.6080 -0.7348 -0.3805
  431MOL0     H58177   6.201   8.754   9.421 -2.3318 -1.3925 -1.5874
  431MOL0     H58178   6.230   8.825   9.263 -0.7232 -3.0698  0.3599
  431MOL0     H58179   6.012   8.697   9.295 -0.4877 -0.1754  0.9261
  431MOL0     H58180   5.975   8.829   9.399  1.7477  0.1458  1.0013
  431MOL0     H58181   5.963   8.946   8.972  0.6964 -1.9102 -0.8795
  431MOL0     H58182   6.600   8.948   9.233 -0.4850  0.1402  0.3727
  431MOL0     H58183   6.705   9.015   9.024  2.0221 -1.4806  3.0980
  431MOL0     H58184   6.734   9.185   8.985  1.3242 -2.3314 -2.7909
  431MOL0     H58185   6.843   9.081   9.092  1.5031 -0.2836 -2.2158
  432MOL0     O58186   2.855   0.959   6.061  0.5450 -0.3168 -0.4433
  432MOL0     C58187   2.843   1.054   5.979 -0.3121  0.3792  0.0431
  432MOL0     O58188   2.937   1.152   5.965  0.5810 -0.1480  0.4690
  432MOL0     C58189   3.069   1.146   6.012  0.0647  0.6371  0.4192
  432MOL0     C58190   3.166   1.170   5.915  0.1228  0.3562  0.4149
  432MOL0     C58191   3.307   1.156   5.945 -1.2105 -0.1390  0.9935
  432MOL0     C58192   3.343   1.134   6.074 -0.6057 -0.4199 -0.4189
  432MOL0     O58193   3.473   1.130   6.117  0.1081 -0.4296 -0.0077
  432MOL0     C58194   3.554   1.233   6.060  0.7560  0.1278 -0.1214
  432MOL0     C58195   3.687   1.176   6.047  0.5625 -0.0272 -0.0468
  432MOL0     C58196   3.795   1.286   6.042 -0.2395  0.3188  0.8410
  432MOL0     C58197   3.914   1.251   5.953 -0.2765  0.2584  0.1661
  432MOL0     C58198   4.019   1.354   5.995  0.8647 -0.2759 -0.5710
  432MOL0     C58199   4.140   1.329   5.913  0.5659  0.3441  0.2953
  432MOL0     C58200   4.253   1.424   5.950  0.1673  0.1516  0.0142
  432MOL0     C58201   4.222   1.553   5.866  0.9224 -0.9017  0.4312
  432MOL0     N58202   4.314   1.665   5.895 -0.5080  0.4732 -0.6042
  432MOL0     C58203   4.447   1.647   5.911  0.5552  1.0978  0.0822
  432MOL0     C58204   4.503   1.777   5.907  0.5732 -0.0477 -0.1439
  432MOL0     C58205   4.649   1.807   5.906 -0.5596 -0.4243 -0.7685
  432MOL0     C58206   4.711   1.771   6.045  0.4283 -0.4795  0.3720
  432MOL0     C58207   4.858   1.785   6.034 -0.6807  0.5830  0.6198
  432MOL0     C58208   4.908   1.927   6.030 -0.3948 -0.6054 -0.0350
  432MOL0     O58209   5.018   1.940   5.942 -0.3403 -0.2840  0.4114
  432MOL0     C58210   5.147   1.948   5.994  0.1147 -0.6158  0.4383
  432MOL0     C58211   5.253   1.998   5.914  0.2676 -0.4536  0.5609
  432MOL0     C58212   5.384   1.988   5.965  0.2429 -1.4582 -0.5495
  432MOL0     C58213   5.419   1.916   6.079 -0.3330  0.2516  0.9258
  432MOL0     C58214   5.559   1.906   6.120 -0.5127 -0.2568  0.1292
  432MOL0     O58215   5.599   1.826   6.220 -0.4941  0.3960 -0.1917
  432MOL0     C58216   5.723   1.825   6.267  0.6395 -0.6941  0.6708
  432MOL0     C58217   5.817   1.718   6.234  1.1272 -0.2695 -0.2291
  432MOL0     C58218   5.945   1.717   6.297 -0.4917  0.5526  0.3840
  432MOL0     C58219   5.976   1.808   6.399 -0.5289 -0.4896 -0.3455
  432MOL0     O58220   6.101   1.812   6.452  0.8436  0.5264 -0.8865
  432MOL0     C58221   6.158   1.689   6.500 -0.4450 -0.6494 -0.3702
  432MOL0     C58222   6.306   1.717   6.525  0.3268  0.4071 -1.0501
  432MOL0     C58223   6.388   1.741   6.395  0.7981 -0.3384 -0.2742
  432MOL0     C58224   6.523   1.815   6.432  0.2213 -0.5471 -0.0084
  432MOL0     C58225   6.618   1.838   6.314 -0.7926  0.2148 -0.4654
  432MOL0     C58226   6.738   1.937   6.345  0.9574  0.2123 -0.7948
  432MOL0     C58227   6.827   1.880   6.464 -1.3273  0.1368 -0.2849
  432MOL0     C58228   6.880   1.997   6.545  0.3265  0.4596  0.3362
  432MOL0    Cl58229   6.755   2.061   6.648 -0.2823 -0.1742  0.3624
  432MOL0     C58230   5.877   1.896   6.432 -1.2651 -0.5731 -0.6160
  432MOL0     C58231   5.759   1.918   6.369  0.2106  0.3750 -0.4923
  432MOL0     O58232   5.640   1.976   6.054  0.5157 -0.3935 -0.3238
  432MOL0     C58233   5.324   1.860   6.151 -0.0522  1.0822 -0.1700
  432MOL0     C58234   5.188   1.885   6.115  0.2104  0.4240 -0.3963
  432MOL0     N58235   4.397   1.868   5.907  0.7261  0.1767  0.3573
  432MOL0     N58236   4.282   1.801   5.902 -0.5622  1.0471  0.3928
  432MOL0     C58237   3.246   1.112   6.168  0.1875  0.1205  0.5493
  432MOL0     C58238   3.108   1.113   6.139 -0.2363 -0.1233  1.0262
  432MOL0     C58239   2.728   1.062   5.886  0.9877  1.3791 -0.6990
  432MOL0     C58240   2.717   1.172   5.807 -0.5129 -0.6029 -0.2577
  432MOL0     C58241   2.604   1.197   5.726  0.5107 -0.4031  0.2107
  432MOL0     C58242   2.499   1.108   5.712  1.0039  0.1494 -0.9572
  432MOL0     O58243   2.413   1.132   5.605  0.6634  0.0274  0.6440
  432MOL0     C58244   2.334   1.019   5.558 -0.4521 -0.0830 -0.0081
  432MOL0     C58245   2.292   1.046   5.418 -0.1186  0.4246 -0.0792
  432MOL0     C58246   2.178   1.151   5.409  0.4238 -1.0689 -0.5582
  432MOL0     C58247   2.166   1.202   5.270 -0.2049 -0.4045 -0.5037
  432MOL0     C58248   2.062   1.299   5.269  0.4320 -0.1410 -0.4544
  432MOL0     C58249   1.973   1.386   5.270  0.2918 -0.2896  0.4610
  432MOL0     C58250   2.509   0.993   5.790 -0.3133  0.1173  0.4963
  432MOL0     C58251   2.622   0.968   5.879 -0.6818  0.2018  0.4087
  432MOL0     C58252   2.613   0.853   5.971 -0.1439 -0.4555  0.7672
  432MOL0     H58253   3.145   1.200   5.813 -1.4393  2.7320  1.3388
  432MOL0     H58254   3.386   1.174   5.873 -1.8371  2.3112  0.8270
  432MOL0     H58255   3.531   1.267   5.959  1.0157  1.1450  0.1467
  432MOL0     H58256   3.548   1.314   6.133 -1.2934  1.4252 -1.6105
  432MOL0     H58257   3.688   1.108   5.961  0.5544 -0.7644  0.5195
  432MOL0     H58258   3.703   1.119   6.139  1.2715 -0.4353 -0.4143
  432MOL0     H58259   3.827   1.304   6.145 -1.2042 -1.3447  1.4608
  432MOL0     H58260   3.751   1.375   5.997  0.3466  0.2911  0.1946
  432MOL0     H58261   3.947   1.150   5.977 -0.2080  0.2900  0.2071
  432MOL0     H58262   3.889   1.267   5.848 -3.5480  1.3595  0.9967
  432MOL0     H58263   3.978   1.455   5.989  2.0033  0.1289 -4.3725
  432MOL0     H58264   4.056   1.331   6.095  2.1936  2.0953 -0.4396
  432MOL0     H58265   4.175   1.229   5.942 -0.6706  0.5787  2.8443
  432MOL0     H58266   4.129   1.335   5.805  2.9005 -3.2254 -0.3457
  432MOL0     H58267   4.349   1.392   5.909  0.2515  0.3545  0.0506
  432MOL0     H58268   4.253   1.444   6.057 -0.6227 -0.6352  0.1686
  432MOL0     H58269   4.226   1.527   5.760  0.9855 -1.2444  0.5162
  432MOL0     H58270   4.120   1.587   5.884 -0.4124 -2.7928 -2.7638
  432MOL0     H58271   4.494   1.550   5.905  1.0068  1.2597  0.8398
  432MOL0     H58272   4.691   1.746   5.826  1.1999 -1.1863  0.6606
  432MOL0     H58273   4.655   1.909   5.866  0.8327 -0.8307 -1.6764
  432MOL0     H58274   4.671   1.840   6.120  0.3447 -1.5183  1.3024
  432MOL0     H58275   4.695   1.664   6.060 -3.2503 -0.4058 -1.7752
  432MOL0     H58276   4.905   1.731   5.951 -0.9131  1.2773  0.0304
  432MOL0     H58277   4.907   1.743   6.123  1.6706 -0.7393 -1.1833
  432MOL0     H58278   4.933   1.967   6.128  0.6032 -1.3730  0.0326
  432MOL0     H58279   4.826   1.993   5.998  0.7980  1.4891  1.0242
  432MOL0     H58280   5.240   2.051   5.820  0.8780 -0.6167  0.3794
  432MOL0     H58281   5.446   2.046   5.898 -0.7924 -1.3959 -1.4870
  432MOL0     H58282   5.784   1.640   6.166 -1.7934  1.0190 -0.4537
  432MOL0     H58283   6.017   1.639   6.279 -1.1222 -0.6991  2.8037
  432MOL0     H58284   6.106   1.650   6.588 -0.7156 -3.2446 -1.5626
  432MOL0     H58285   6.164   1.600   6.437  2.1257  0.9314 -2.5625
  432MOL0     H58286   6.323   1.807   6.585  1.1288  0.8775 -1.9615
  432MOL0     H58287   6.355   1.634   6.578  1.5698  1.5099 -0.4057
  432MOL0     H58288   6.403   1.646   6.343 -0.2866 -0.6377 -0.0557
  432MOL0     H58289   6.337   1.805   6.323  1.4462  0.0157 -0.4316
  432MOL0     H58290   6.563   1.761   6.518 -2.5901 -0.4076  1.4941
  432MOL0     H58291   6.504   1.916   6.469  1.6047 -0.3396  0.1623
  432MOL0     H58292   6.562   1.877   6.229  0.8199 -0.1803 -1.7671
  432MOL0     H58293   6.657   1.740   6.285 -0.5976 -0.2794  1.2970
  432MOL0     H58294   6.804   1.942   6.258 -0.4846  3.6294 -1.8650
  432MOL0     H58295   6.692   2.034   6.365 -2.8383 -1.5064 -0.4167
  432MOL0     H58296   6.915   1.826   6.428 -0.5120 -0.0103  1.8133
  432MOL0     H58297   6.770   1.809   6.524 -1.8391 -0.0332 -0.9605
  432MOL0     H58298   6.963   1.974   6.612 -1.3193  2.0718  3.0932
  432MOL0     H58299   6.909   2.074   6.473 -1.9480  0.1598 -1.0033
  432MOL0     H58300   5.886   1.967   6.514 -0.8192 -1.3547  0.0236
  432MOL0     H58301   5.687   1.996   6.394 -2.2499 -1.6383 -0.8248
  432MOL0     H58302   5.347   1.792   6.233  1.6227  3.6988  1.6987
  432MOL0     H58303   5.115   1.839   6.181  1.0247 -3.9973 -2.1625
  432MOL0     H58304   3.274   1.101   6.272 -1.0884  1.3970  1.0782
  432MOL0     H58305   3.037   1.082   6.215  0.6716 -0.4263  1.7661
  432MOL0     H58306   2.792   1.249   5.793 -3.0201  1.5793 -3.0333
  432MOL0     H58307   2.618   1.277   5.654  1.4069 -2.2460 -1.7759
  432MOL0     H58308   2.244   1.028   5.620 -0.0976  3.9934  0.1907
  432MOL0     H58309   2.379   0.920   5.564 -2.0899 -1.0740 -2.5421
  432MOL0     H58310   2.252   0.959   5.365  3.9103 -1.6726 -0.0218
  432MOL0     H58311   2.383   1.071   5.364  0.8374  2.6376  2.3324
  432MOL0     H58312   2.187   1.225   5.489  3.6010  0.0324 -1.7848
  432MOL0     H58313   2.102   1.086   5.456  1.0825 -0.3828  1.5781
  432MOL0     H58314   2.261   1.243   5.235  1.1432 -3.4942 -0.7692
  432MOL0     H58315   2.143   1.115   5.208 -1.3677 -0.8432  0.4975
  432MOL0     H58316   1.898   1.461   5.259 -0.7383 -1.7235 -4.8129
  432MOL0     H58317   2.432   0.917   5.783 -0.2539  0.0604  0.4585
  432MOL0     H58318   2.711   0.808   5.989  2.8051  4.4072 -1.1019
  432MOL0     H58319   2.579   0.892   6.067  0.9529  0.0926  0.9563
  432MOL0     H58320   2.549   0.778   5.923 -1.0667  2.5253 -3.2541
  433MOL0     O58321   2.889   6.026   9.518 -0.0773 -0.4611  0.1771
  433MOL0     C58322   2.819   5.925   9.513  0.2446  0.1649  0.8246
  433MOL0     O58323   2.849   5.806   9.568 -0.5220  0.4936  0.5158
  433MOL0     C58324   2.978   5.792   9.614 -0.3155  0.2135  0.0853
  433MOL0     C58325   3.048   5.692   9.552  0.2316 -0.0295  0.0277
  433MOL0     C58326   3.177   5.678   9.593 -0.2165 -1.4878  1.8076
  433MOL0     C58327   3.245   5.763   9.686 -0.1987  0.7480 -0.4268
  433MOL0     O58328   3.379   5.753   9.719  0.1260  0.7426  0.0241
  433MOL0     C58329   3.455   5.640   9.677 -0.1573  0.4127  0.0421
  433MOL0     C58330   3.585   5.631   9.766  0.4971  0.2461 -0.0467
  433MOL0     C58331   3.684   5.746   9.741 -0.0911 -0.3930  0.0540
  433MOL0     C58332   3.831   5.731   9.791 -0.1432 -0.5362  0.9371
  433MOL0     C58333   3.930   5.807   9.698 -0.3246  0.8425 -0.3154
  433MOL0     C58334   4.071   5.805   9.766  0.2800 -0.3911 -0.6526
  433MOL0     C58335   4.186   5.857   9.677 -0.6782  0.9022  0.1133
  433MOL0     C58336   4.177   6.004   9.635 -0.2810 -0.1611 -0.3460
  433MOL0     N58337   4.307   6.056   9.593  0.1383  0.5684 -0.7460
  433MOL0     C58338   4.369   6.033   9.477  0.2045  0.0460  0.6174
  433MOL0     C58339   4.477   6.113   9.484  0.0182 -0.3188  0.2331
  433MOL0     C58340   4.576   6.143   9.369 -0.6717  0.2385 -0.0610
  433MOL0     C58341   4.688   6.035   9.368 -0.6520 -0.6971 -0.4346
  433MOL0     C58342   4.757   6.027   9.237 -0.1181  0.0442 -0.0886
  433MOL0     C58343   4.851   6.140   9.210 -0.6070  1.4702 -0.5879
  433MOL0     O58344   4.957   6.106   9.121  0.1424 -0.2980  0.7476
  433MOL0     C58345   5.076   6.188   9.118  0.7240 -0.2719  0.9806
  433MOL0     C58346   5.178   6.150   9.030  0.0258  0.6179  0.2935
  433MOL0     C58347   5.306   6.223   9.035 -0.6792  0.1366  0.2266
  433MOL0     C58348   5.318   6.335   9.122 -0.3799  0.7837  0.3112
  433MOL0     C58349   5.445   6.402   9.143  0.7763  0.2982 -0.6443
  433MOL0     O58350   5.550   6.372   9.059  0.0434  0.5273 -0.1345
  433MOL0     C58351   5.672   6.423   9.050  0.2315 -0.1187 -0.7081
  433MOL0     C58352   5.736   6.482   9.154  0.2022 -0.4921  0.2862
  433MOL0     C58353   5.855   6.543   9.142 -0.5589 -0.3744 -1.2110
  433MOL0     C58354   5.935   6.524   9.023  0.3360 -0.4555 -0.1668
  433MOL0     O58355   6.068   6.566   9.016 -0.1239 -0.1395  0.8249
  433MOL0     C58356   6.101   6.705   9.038  0.2781  0.1331 -0.3709
  433MOL0     C58357   6.086   6.779   8.906  0.4687  0.3896 -0.2808
  433MOL0     C58358   6.218   6.760   8.835 -0.2311 -0.6339  0.2644
  433MOL0     C58359   6.206   6.814   8.694 -0.2390  0.4765 -0.2427
  433MOL0     C58360   6.342   6.777   8.626  1.0880  0.0111  0.3252
  433MOL0     C58361   6.338   6.827   8.479 -0.7806  0.7500  0.7095
  433MOL0     C58362   6.477   6.791   8.421  0.5141  0.0710 -0.5193
  433MOL0     C58363   6.487   6.862   8.286 -0.4180  0.5088  0.6608
  433MOL0    Cl58364   6.655   6.829   8.222  0.1596 -0.2638  0.3208
  433MOL0     C58365   5.879   6.456   8.917  0.4435  0.8005 -0.6512
  433MOL0     C58366   5.745   6.405   8.939 -0.3901  0.2001  0.4043
  433MOL0     O58367   5.448   6.474   9.240  0.4527 -0.2779  0.5063
  433MOL0     C58368   5.210   6.363   9.203  0.6945 -0.6066 -0.3401
  433MOL0     C58369   5.096   6.288   9.207 -0.0588  0.2351  0.1629
  433MOL0     N58370   4.482   6.176   9.605 -0.2399  0.1788 -0.4513
  433MOL0     N58371   4.381   6.141   9.671 -0.6377 -0.5392 -0.1408
  433MOL0     C58372   3.169   5.851   9.761  0.8473 -0.1993 -0.3452
  433MOL0     C58373   3.034   5.872   9.714 -0.0244  0.4967 -1.0886
  433MOL0     C58374   2.704   5.916   9.413 -0.1318  0.7771  0.0699
  433MOL0     C58375   2.678   5.788   9.345  0.1058 -0.5823 -0.2176
  433MOL0     C58376   2.569   5.777   9.254 -0.4898  0.0405  0.6817
  433MOL0     C58377   2.483   5.887   9.229 -0.3790  0.7369  0.0441
  433MOL0     O58378   2.380   5.885   9.146  0.1551 -0.2188  0.1959
  433MOL0     C58379   2.247   5.849   9.211 -0.8386  0.0018  0.2459
  433MOL0     C58380   2.235   5.698   9.252  1.4306 -0.2060 -0.7633
  433MOL0     C58381   2.108   5.661   9.332  0.1952  0.2750 -0.5364
  433MOL0     C58382   2.127   5.522   9.399 -0.3118 -0.2763 -0.0237
  433MOL0     C58383   2.162   5.416   9.305  0.2915  0.0398  0.6623
  433MOL0     C58384   2.195   5.343   9.215 -0.0173 -0.0523 -1.4486
  433MOL0     C58385   2.510   6.006   9.289 -0.4380 -0.5857  0.4488
  433MOL0     C58386   2.618   6.019   9.383 -0.7453 -0.1696 -0.4951
  433MOL0     C58387   2.633   6.156   9.438 -0.1176 -0.0994 -0.1898
  433MOL0     H58388   2.992   5.637   9.477 -5.0481  2.4430  1.6659
  433MOL0     H58389   3.233   5.607   9.533 -0.0186 -2.3596  3.0013
  433MOL0     H58390   3.393   5.551   9.687 -2.8708  1.7931 -2.8050
  433MOL0     H58391   3.476   5.654   9.571 -1.4762  0.3729 -0.2386
  433MOL0     H58392   3.635   5.534   9.757  1.3933  0.8073 -1.7003
  433MOL0     H58393   3.541   5.625   9.865 -0.8983 -3.0268 -0.7167
  433MOL0     H58394   3.636   5.839   9.771 -1.1057  0.2980 -3.2248
  433MOL0     H58395   3.688   5.752   9.631  0.1522 -1.9524 -0.0521
  433MOL0     H58396   3.845   5.753   9.897 -2.7824 -3.0658  1.9443
  433MOL0     H58397   3.864   5.627   9.780 -3.1767 -1.5480  0.3399
  433MOL0     H58398   3.929   5.755   9.602 -1.2874 -0.2499  0.2530
  433MOL0     H58399   3.901   5.910   9.681  2.1207  1.4229 -1.4142
  433MOL0     H58400   4.072   5.860   9.860  1.0667  1.1492 -1.5021
  433MOL0     H58401   4.098   5.702   9.789 -0.4003 -0.3797  0.1989
  433MOL0     H58402   4.191   5.794   9.588  2.3995  0.3074  0.5882
  433MOL0     H58403   4.273   5.829   9.737 -1.6014  0.7554  1.4317
  433MOL0     H58404   4.114   6.017   9.546  2.7652  2.6818 -2.3462
  433MOL0     H58405   4.134   6.063   9.717 -0.5909 -0.2305 -0.4553
  433MOL0     H58406   4.333   5.969   9.397 -0.2890 -0.8967  1.5738
  433MOL0     H58407   4.516   6.151   9.278  0.9463  0.4233 -1.1505
  433MOL0     H58408   4.600   6.248   9.389  0.3568 -0.2073  1.1721
  433MOL0     H58409   4.763   6.056   9.445  0.5324  1.8886 -2.1722
  433MOL0     H58410   4.636   5.941   9.391 -0.1214 -0.8971 -0.0257
  433MOL0     H58411   4.680   6.025   9.160 -1.1014 -1.3293  0.8841
  433MOL0     H58412   4.819   5.937   9.234  3.5502  2.3577 -1.8693
  433MOL0     H58413   4.893   6.154   9.310  0.8508  1.0601 -1.1191
  433MOL0     H58414   4.802   6.231   9.173 -1.6399  1.1400 -0.0802
  433MOL0     H58415   5.175   6.057   8.974 -0.8937  1.6269 -1.4270
  433MOL0     H58416   5.395   6.199   8.977 -0.8923  0.5555 -0.2870
  433MOL0     H58417   5.686   6.476   9.250  1.3589  0.0965  0.9423
  433MOL0     H58418   5.906   6.588   9.227 -0.6750  0.2577 -1.4663
  433MOL0     H58419   6.039   6.741   9.121 -3.0956 -1.0625 -2.1729
  433MOL0     H58420   6.208   6.710   9.058  0.2886 -3.2905  1.2048
  433MOL0     H58421   5.994   6.757   8.851 -0.1164  0.8360  0.5041
  433MOL0     H58422   6.081   6.883   8.939  1.6853  0.7237 -1.0916
  433MOL0     H58423   6.297   6.819   8.882 -1.5667  1.0667  0.4854
  433MOL0     H58424   6.237   6.652   8.839 -2.6340 -1.1004  3.3499
  433MOL0     H58425   6.186   6.921   8.691 -0.0242  0.6002  1.7193
  433MOL0     H58426   6.127   6.769   8.632  0.1187  1.0396 -1.1221
  433MOL0     H58427   6.353   6.668   8.619 -2.8572 -0.4242 -2.1204
  433MOL0     H58428   6.423   6.819   8.686 -0.6382  1.0058  2.1090
  433MOL0     H58429   6.260   6.764   8.435 -1.6345  2.1095  0.1970
  433MOL0     H58430   6.314   6.933   8.469  2.6794  1.6503  0.5789
  433MOL0     H58431   6.483   6.682   8.409 -0.6389 -0.0449 -0.1551
  433MOL0     H58432   6.554   6.831   8.488 -0.2294  1.8629 -0.6902
  433MOL0     H58433   6.411   6.817   8.220  0.3577 -0.1285  0.1874
  433MOL0     H58434   6.466   6.969   8.299  0.1083  0.4457  2.2707
  433MOL0     H58435   5.930   6.424   8.827  0.3651  1.5249 -0.9670
  433MOL0     H58436   5.691   6.346   8.866 -0.1660  1.9321 -1.2062
  433MOL0     H58437   5.205   6.451   9.266 -3.3889 -2.1703  1.9287
  433MOL0     H58438   5.021   6.314   9.280 -1.1682 -0.2891 -0.7614
  433MOL0     H58439   3.212   5.907   9.843 -0.4592 -0.2328  0.3838
  433MOL0     H58440   2.962   5.925   9.775 -0.7310 -1.7328  0.1186
  433MOL0     H58441   2.747   5.708   9.370  2.9723  2.0483  0.9671
  433MOL0     H58442   2.550   5.687   9.196 -0.1137  2.1726 -3.1326
  433MOL0     H58443   2.167   5.873   9.141 -1.3596  0.4340  0.9715
  433MOL0     H58444   2.237   5.906   9.304  1.4775 -0.3484  0.7948
  433MOL0     H58445   2.324   5.668   9.307  2.9237 -0.0952 -2.9596
  433MOL0     H58446   2.233   5.636   9.161 -2.5624 -0.9317 -0.3826
  433MOL0     H58447   2.022   5.650   9.265  1.3373 -1.7465 -1.7772
  433MOL0     H58448   2.097   5.742   9.404  3.0777  0.8670 -0.6621
  433MOL0     H58449   2.211   5.526   9.468 -3.6474 -1.1283  4.5300
  433MOL0     H58450   2.042   5.496   9.463 -3.1751 -1.1803 -3.7763
  433MOL0     H58451   2.233   5.287   9.131  1.8988 -0.4339 -0.3826
  433MOL0     H58452   2.454   6.098   9.276  1.0038  0.1243 -1.0616
  433MOL0     H58453   2.702   6.210   9.372 -0.0424  1.5049  1.1364
  433MOL0     H58454   2.539   6.209   9.456  0.6050  0.7982  1.1048
  433MOL0     H58455   2.685   6.158   9.534  2.2934  1.1405 -1.4397
  434MOL0     O58456   9.364  11.201   9.420 -0.2340 -0.0907 -0.0825
  434MOL0     C58457   9.328  11.189   9.541 -0.5956 -0.5220  0.4454
  434MOL0     O58458   9.392  11.249   9.646  0.2279  0.6121  0.2271
  434MOL0     C58459   9.511  11.309   9.630  0.8719  0.6843  0.0685
  434MOL0     C58460   9.627  11.241   9.654  0.1423  0.0559  0.2035
  434MOL0     C58461   9.751  11.309   9.635  0.0248  0.5322 -0.0521
  434MOL0     C58462   9.749  11.452   9.585 -0.6091  0.7611  0.6889
  434MOL0     O58463   9.864  11.517   9.568 -0.5483 -0.6479 -0.9617
  434MOL0     C58464   9.899  11.620   9.665 -0.4272 -1.2906 -0.0947
  434MOL0     C58465  10.008  11.706   9.591 -0.2779  0.0638  0.3694
  434MOL0     C58466  10.151  11.646   9.585  0.5162  0.8648  0.0625
  434MOL0     C58467  10.214  11.609   9.722 -0.2783  0.1820  0.1320
  434MOL0     C58468  10.304  11.491   9.734  0.8551  0.6586  0.1814
  434MOL0     C58469  10.364  11.469   9.874 -0.1319  0.2103  0.1114
  434MOL0     C58470  10.464  11.347   9.871  1.1892  0.3948 -0.1908
  434MOL0     C58471  10.542  11.339  10.006  0.9685  0.0892 -0.4816
  434MOL0     N58472  10.677  11.396   9.985 -0.1957 -0.4734 -0.6998
  434MOL0     C58473  10.795  11.325  10.011 -1.2445 -0.6694  0.0844
  434MOL0     C58474  10.896  11.400   9.952  0.1800  0.8368  0.0180
  434MOL0     C58475  11.045  11.352   9.944  0.8265 -0.7897 -0.0383
  434MOL0     C58476  11.074  11.301   9.795  0.5541 -0.3174 -0.2529
  434MOL0     C58477  11.219  11.257   9.782  0.6848  0.0800 -0.3564
  434MOL0     C58478  11.245  11.194   9.645  0.2768 -0.6584  0.2730
  434MOL0     O58479  11.342  11.081   9.643  0.2765 -0.1276 -0.3058
  434MOL0     C58480  11.474  11.089   9.679 -0.4548  0.0225 -0.5053
  434MOL0     C58481  11.551  10.979   9.701 -0.7870 -0.3818  0.4357
  434MOL0     C58482  11.687  10.993   9.746 -0.4994 -0.4810  0.6489
  434MOL0     C58483  11.737  11.126   9.764 -0.1469 -0.2596  0.3301
  434MOL0     C58484  11.882  11.142   9.810  0.3507 -0.1984 -0.5062
  434MOL0     O58485  11.913  11.278   9.837 -0.4985 -0.1784  0.1389
  434MOL0     C58486  12.037  11.303   9.893 -0.5023 -0.2425  0.4403
  434MOL0     C58487  12.069  11.256  10.028  0.8256  0.1402 -0.1904
  434MOL0     C58488  12.185  11.294  10.097  0.8527  1.2549 -0.6293
  434MOL0     C58489  12.278  11.386  10.044  0.5861  0.4800 -0.8068
  434MOL0     O58490  12.382  11.425  10.115 -0.3010  0.2814 -0.1535
  434MOL0     C58491  12.469  11.321  10.158 -0.9862  0.5915 -0.1026
  434MOL0     C58492  12.608  11.369  10.203  0.0274 -0.5087 -0.8904
  434MOL0     C58493  12.594  11.446  10.334 -0.1226 -0.3701 -0.2797
  434MOL0     C58494  12.741  11.508  10.362  0.4803 -1.1364  0.4863
  434MOL0     C58495  12.726  11.606  10.476 -0.9250 -0.6196  0.2514
  434MOL0     C58496  12.851  11.686  10.516 -0.1261  0.2601  0.6166
  434MOL0     C58497  12.850  11.770  10.645  0.6599  0.0404 -0.2540
  434MOL0     C58498  12.729  11.872  10.650  0.0806  0.8522  0.2938
  434MOL0    Cl58499  12.761  11.986  10.785  0.2973 -0.7589  0.2934
  434MOL0     C58500  12.248  11.432   9.916 -0.3417 -0.9400 -0.4946
  434MOL0     C58501  12.125  11.406   9.845 -0.0572 -0.5353 -0.1257
  434MOL0     O58502  11.950  11.039   9.829  0.3464 -1.1995 -0.0601
  434MOL0     C58503  11.663  11.240   9.735  0.7355 -0.6800  0.0791
  434MOL0     C58504  11.526  11.218   9.711  0.3759  0.3470  0.5148
  434MOL0     N58505  10.843  11.517   9.902  0.8459 -0.1218  0.2587
  434MOL0     N58506  10.713  11.515   9.922  0.0433  0.0041 -0.4637
  434MOL0     C58507   9.627  11.513   9.563  0.0365  0.2997 -0.9156
  434MOL0     C58508   9.513  11.436   9.585  0.2897  0.4748 -0.9642
  434MOL0     C58509   9.210  11.100   9.562  0.3736  0.0742 -0.2685
  434MOL0     C58510   9.161  11.024   9.450  0.5927 -0.5963  0.0905
  434MOL0     C58511   9.045  10.946   9.461  0.4891  0.5739 -1.1818
  434MOL0     C58512   8.982  10.922   9.588  0.2696 -0.3819 -0.2003
  434MOL0     O58513   8.866  10.850   9.605 -0.3286  0.2024 -0.2925
  434MOL0     C58514   8.828  10.753   9.506 -0.2023 -0.0118  0.0029
  434MOL0     C58515   8.700  10.676   9.554  0.6228  0.0774  0.5754
  434MOL0     C58516   8.632  10.586   9.446  0.9680 -0.2747  0.3927
  434MOL0     C58517   8.478  10.564   9.486 -0.1506  0.9155  0.0907
  434MOL0     C58518   8.385  10.653   9.416  0.1214  1.2094 -0.2429
  434MOL0     C58519   8.316  10.728   9.357 -1.4058  0.0765  0.4475
  434MOL0     C58520   9.022  10.998   9.702 -0.3005 -0.5125  0.2122
  434MOL0     C58521   9.137  11.087   9.690 -0.3952  0.9830 -0.0712
  434MOL0     C58522   9.184  11.161   9.807 -0.2019  0.1314  0.6729
  434MOL0     H58523   9.621  11.147   9.706 -1.5909 -0.3390 -0.6464
  434MOL0     H58524   9.844  11.257   9.658  1.0670  1.6421 -1.6126
  434MOL0     H58525   9.813  11.684   9.686  1.0403  0.9874 -0.5901
  434MOL0     H58526   9.925  11.587   9.766 -0.8594  0.1955  0.5229
  434MOL0     H58527  10.012  11.804   9.639  0.3304 -0.5789  1.6680
  434MOL0     H58528   9.971  11.703   9.488  2.2295 -1.1629 -0.5862
  434MOL0     H58529  10.207  11.729   9.542  1.1778  0.4129  0.0294
  434MOL0     H58530  10.150  11.558   9.520 -1.2478  2.6258 -2.4773
  434MOL0     H58531  10.278  11.693   9.750 -0.9968  0.4737  0.9750
  434MOL0     H58532  10.134  11.599   9.797  0.7000  1.7630  1.4695
  434MOL0     H58533  10.232  11.411   9.713  0.8037  0.4939  0.9780
  434MOL0     H58534  10.386  11.493   9.662 -0.2249 -0.5374 -1.1353
  434MOL0     H58535  10.424  11.556   9.900  1.1090 -0.9901  1.4521
  434MOL0     H58536  10.292  11.456   9.955 -0.5816  0.0507 -0.3062
  434MOL0     H58537  10.533  11.357   9.787  1.8860  2.2911  0.5610
  434MOL0     H58538  10.401  11.258   9.863 -4.2922  3.7298  1.0055
  434MOL0     H58539  10.486  11.397  10.080 -2.3526 -2.1406 -1.0137
  434MOL0     H58540  10.544  11.236  10.041 -0.0607  0.0840 -0.3898
  434MOL0     H58541  10.801  11.225  10.052 -1.1661 -0.8177 -0.2841
  434MOL0     H58542  11.107  11.442   9.946  2.6681 -1.9896 -0.7201
  434MOL0     H58543  11.078  11.289  10.027  0.7663 -0.4544  0.2438
  434MOL0     H58544  11.005  11.219   9.775 -0.8211  0.7964 -0.2158
  434MOL0     H58545  11.063  11.379   9.719  1.8175 -0.7356 -0.8828
  434MOL0     H58546  11.250  11.186   9.859 -1.3168 -1.5757 -0.9966
  434MOL0     H58547  11.280  11.348   9.786  0.5959  0.1199  0.1935
  434MOL0     H58548  11.289  11.280   9.593 -2.2848  2.8648  3.3903
  434MOL0     H58549  11.158  11.159   9.588 -0.7007  2.0678 -0.0443
  434MOL0     H58550  11.521  10.876   9.689 -2.3396 -0.1274  1.7101
  434MOL0     H58551  11.759  10.913   9.759 -0.4536 -0.5793 -0.1530
  434MOL0     H58552  12.003  11.187  10.078 -2.3849  2.3528 -1.0301
  434MOL0     H58553  12.207  11.254  10.195 -1.2359 -0.3674 -0.7543
  434MOL0     H58554  12.427  11.265  10.242 -1.1728  2.3293  1.0221
  434MOL0     H58555  12.486  11.239  10.087  1.5621  0.1150  0.9340
  434MOL0     H58556  12.662  11.280  10.239 -1.9891 -2.0395 -1.4905
  434MOL0     H58557  12.669  11.413  10.123 -1.3900  0.9006 -1.2368
  434MOL0     H58558  12.518  11.525  10.330 -0.8973 -1.1049 -0.2294
  434MOL0     H58559  12.553  11.382  10.411 -1.2105  1.4740  0.7431
  434MOL0     H58560  12.784  11.558  10.276 -0.6461 -1.8370 -0.5180
  434MOL0     H58561  12.804  11.425  10.395  2.0295 -0.3412 -0.3753
  434MOL0     H58562  12.680  11.548  10.556  0.6031 -2.3767 -0.0858
  434MOL0     H58563  12.651  11.676  10.438  0.2999  0.3491 -0.4943
  434MOL0     H58564  12.936  11.618  10.519  1.5475  2.2486  0.3933
  434MOL0     H58565  12.873  11.756  10.435 -0.8539 -0.5189 -0.2768
  434MOL0     H58566  12.946  11.819  10.661  2.3335 -3.1666  0.1947
  434MOL0     H58567  12.843  11.699  10.728  1.7437 -0.1665 -0.3270
  434MOL0     H58568  12.725  11.926  10.555 -0.5799 -0.0028 -0.1888
  434MOL0     H58569  12.631  11.823  10.658 -0.1981  1.4945  1.0436
  434MOL0     H58570  12.321  11.501   9.873  0.1075 -0.9069  0.3031
  434MOL0     H58571  12.087  11.455   9.756 -0.1231 -1.7122 -0.7695
  434MOL0     H58572  11.699  11.342   9.747  0.9102 -0.7077 -0.1980
  434MOL0     H58573  11.466  11.307   9.692 -0.7567 -0.7048 -1.0760
  434MOL0     H58574   9.631  11.618   9.537  2.9787  1.0282  1.9105
  434MOL0     H58575   9.414  11.478   9.571  0.5389  1.0063 -1.1840
  434MOL0     H58576   9.210  11.027   9.353  3.6691  1.4156  1.5234
  434MOL0     H58577   9.023  10.878   9.380  1.1528 -0.3713 -0.5740
  434MOL0     H58578   8.915  10.687   9.511 -1.2413 -1.3775  0.4598
  434MOL0     H58579   8.821  10.795   9.405  3.2684  0.0940 -0.3273
  434MOL0     H58580   8.623  10.748   9.584 -0.6858 -1.1027  0.1268
  434MOL0     H58581   8.712  10.617   9.645 -0.9986 -1.5973 -0.2439
  434MOL0     H58582   8.673  10.484   9.454 -0.5432 -0.8099  1.9631
  434MOL0     H58583   8.630  10.638   9.350 -1.8044 -0.3072  0.3683
  434MOL0     H58584   8.448  10.461   9.467  2.3933  0.1924 -0.3687
  434MOL0     H58585   8.470  10.573   9.595  1.8443 -0.2472  0.3784
  434MOL0     H58586   8.262  10.811   9.314 -0.7320  1.7525  2.6452
  434MOL0     H58587   8.964  11.001   9.794  0.8671 -0.3392  0.9717
  434MOL0     H58588   9.271  11.118   9.857  0.7720  2.0339  0.7364
  434MOL0     H58589   9.207  11.263   9.772 -1.4280 -0.0830 -0.8505
  434MOL0     H58590   9.097  11.177   9.871 -3.3537 -0.4900 -3.0825
  435MOL0     O58591   7.218   7.077   8.718  0.0183  0.1873 -0.3085
  435MOL0     C58592   7.168   7.182   8.686 -0.1387  0.5107  0.0065
  435MOL0     O58593   7.233   7.292   8.644 -0.6854 -0.9247 -0.1521
  435MOL0     C58594   7.366   7.297   8.619 -0.4082  0.3889  0.0232
  435MOL0     C58595   7.442   7.392   8.683  0.3978 -0.1659  0.7528
  435MOL0     C58596   7.581   7.390   8.682 -0.4385 -0.3254  0.4570
  435MOL0     C58597   7.652   7.290   8.622  0.0251  0.0981  0.0019
  435MOL0     O58598   7.788   7.276   8.605 -0.1533 -0.3519 -0.4058
  435MOL0     C58599   7.876   7.381   8.660 -0.0770 -0.4639  0.4174
  435MOL0     C58600   7.995   7.393   8.562 -0.3031  0.2024 -0.2677
  435MOL0     C58601   8.094   7.499   8.617 -0.1881 -0.0911 -0.2299
  435MOL0     C58602   8.220   7.498   8.534 -0.0655  0.4335  0.0749
  435MOL0     C58603   8.337   7.423   8.595  0.2088  0.0757 -0.5662
  435MOL0     C58604   8.401   7.511   8.703  0.0007  0.3568 -0.4551
  435MOL0     C58605   8.540   7.447   8.742  0.2395  0.3583  0.8571
  435MOL0     C58606   8.602   7.488   8.877 -0.0005  0.7728 -0.7458
  435MOL0     N58607   8.672   7.618   8.876 -0.2888  0.5058 -0.3585
  435MOL0     C58608   8.798   7.654   8.833  0.0257 -0.0797  1.2855
  435MOL0     C58609   8.802   7.787   8.837  0.1050 -0.2225 -0.1537
  435MOL0     C58610   8.917   7.871   8.782  0.5890 -0.4786 -0.8652
  435MOL0     C58611   8.860   7.994   8.708 -0.1844 -0.4168  0.1841
  435MOL0     C58612   8.959   8.083   8.627  0.8883 -0.5556 -0.6663
  435MOL0     C58613   9.066   8.134   8.714  0.6190  0.4942  0.6549
  435MOL0     O58614   9.165   8.179   8.614 -0.5028  0.0223 -0.6487
  435MOL0     C58615   9.295   8.163   8.661  0.4064 -0.0658 -0.3532
  435MOL0     C58616   9.401   8.199   8.570  0.6601 -0.5412 -0.0237
  435MOL0     C58617   9.535   8.199   8.604 -0.6987 -0.7947 -0.1515
  435MOL0     C58618   9.574   8.164   8.738 -0.3665  0.4114  0.7620
  435MOL0     C58619   9.717   8.175   8.780 -0.1245 -0.2625 -0.0636
  435MOL0     O58620   9.804   8.195   8.684 -0.3388  0.2292 -0.2503
  435MOL0     C58621   9.939   8.168   8.711  0.3749 -0.4451  0.4095
  435MOL0     C58622  10.006   8.068   8.638 -0.2143 -0.1334 -0.3142
  435MOL0     C58623  10.150   8.057   8.665  0.0303  0.3816  0.3869
  435MOL0     C58624  10.215   8.146   8.750  0.2456  0.4034  0.0419
  435MOL0     O58625  10.350   8.135   8.757  0.4131  0.0073 -0.1648
  435MOL0     C58626  10.420   8.240   8.815 -0.3582  0.1930  0.3807
  435MOL0     C58627  10.560   8.233   8.764  0.1023 -0.4653  0.6161
  435MOL0     C58628  10.648   8.325   8.846 -0.1383 -0.0827  0.1421
  435MOL0     C58629  10.770   8.384   8.769  0.2232  0.4752 -0.1621
  435MOL0     C58630  10.882   8.287   8.737  0.5984  0.3822 -1.2067
  435MOL0     C58631  10.985   8.350   8.649 -0.0661 -0.2432  0.5390
  435MOL0     C58632  11.066   8.468   8.712  0.7371 -1.1437 -0.3134
  435MOL0     C58633  11.166   8.409   8.809 -1.1552  0.2652  0.5393
  435MOL0    Cl58634  11.303   8.314   8.725  0.0650  0.1991 -0.1485
  435MOL0     C58635  10.144   8.237   8.833 -0.1868  0.2470  0.2365
  435MOL0     C58636  10.005   8.241   8.815 -0.4128 -0.4111  0.0877
  435MOL0     O58637   9.742   8.163   8.899  0.3695 -0.1150 -0.2507
  435MOL0     C58638   9.471   8.134   8.827 -0.3606 -0.7900  0.3089
  435MOL0     C58639   9.340   8.137   8.791  0.3482 -0.0746  0.0872
  435MOL0     N58640   8.687   7.831   8.896  0.4807  0.5659 -0.5509
  435MOL0     N58641   8.611   7.726   8.916  0.2369  0.4839  0.7380
  435MOL0     C58642   7.578   7.199   8.545  0.3813 -0.1680 -0.1528
  435MOL0     C58643   7.437   7.198   8.555  0.1818  0.2195 -0.4683
  435MOL0     C58644   7.023   7.196   8.674 -0.2959 -0.0764 -0.3495
  435MOL0     C58645   6.960   7.287   8.764  0.2054 -0.5274 -0.5261
  435MOL0     C58646   6.821   7.308   8.774  0.5652 -1.4891  0.3133
  435MOL0     C58647   6.738   7.233   8.692  0.7892 -0.2669  0.4595
  435MOL0     O58648   6.598   7.255   8.700  0.0679 -0.3492 -0.5688
  435MOL0     C58649   6.515   7.157   8.640  0.7755  0.4528  0.0633
  435MOL0     C58650   6.368   7.195   8.658 -0.2097  0.3017 -1.0946
  435MOL0     C58651   6.326   7.182   8.807  0.2009 -1.0692  0.0119
  435MOL0     C58652   6.186   7.236   8.822  0.5015 -0.4535  0.1938
  435MOL0     C58653   6.067   7.170   8.756 -0.0356 -0.0535 -0.1288
  435MOL0     C58654   5.973   7.119   8.696 -0.4872 -0.6929 -0.4364
  435MOL0     C58655   6.805   7.132   8.615  0.3533  0.6815  0.6098
  435MOL0     C58656   6.939   7.109   8.611 -0.3711 -0.4846  0.2283
  435MOL0     C58657   6.990   6.996   8.518 -0.5895  0.3959 -0.1149
  435MOL0     H58658   7.384   7.465   8.738  0.4474  0.0510  0.5181
  435MOL0     H58659   7.629   7.460   8.749 -0.8882 -0.9673  1.4767
  435MOL0     H58660   7.815   7.472   8.653 -0.1065 -0.2882  2.5148
  435MOL0     H58661   7.913   7.361   8.760 -1.9593  0.3093  1.3226
  435MOL0     H58662   7.949   7.428   8.469 -1.1749 -0.5704 -0.1463
  435MOL0     H58663   8.039   7.294   8.549  0.0116 -0.1646  2.7069
  435MOL0     H58664   8.126   7.477   8.720  4.0342  0.3118 -1.3059
  435MOL0     H58665   8.034   7.590   8.618  1.4112  1.0024  1.4042
  435MOL0     H58666   8.195   7.453   8.437  1.0688  1.8804 -0.9382
  435MOL0     H58667   8.247   7.601   8.506  3.0958  0.0719  1.3321
  435MOL0     H58668   8.304   7.326   8.633 -1.5712  1.2125  0.9775
  435MOL0     H58669   8.419   7.418   8.523  0.6480 -1.0332 -0.0112
  435MOL0     H58670   8.416   7.611   8.662 -1.2447  0.9458  0.4585
  435MOL0     H58671   8.329   7.514   8.786  0.1115 -1.5806 -0.2502
  435MOL0     H58672   8.609   7.475   8.661 -0.4033 -0.0905  0.1433
  435MOL0     H58673   8.532   7.340   8.726 -1.7483  0.8881 -2.6725
  435MOL0     H58674   8.519   7.501   8.947  1.5816  1.6745  1.0572
  435MOL0     H58675   8.674   7.410   8.905  0.5834  2.0100  1.3440
  435MOL0     H58676   8.869   7.583   8.793 -1.2711 -0.1013 -1.1807
  435MOL0     H58677   8.988   7.905   8.859 -0.4817  1.3156 -0.6095
  435MOL0     H58678   8.975   7.810   8.712  2.4004 -0.9295  0.9162
  435MOL0     H58679   8.787   7.953   8.638 -1.6978  1.6189  0.4785
  435MOL0     H58680   8.808   8.066   8.772  2.2277  1.0810  0.5866
  435MOL0     H58681   8.901   8.171   8.599  2.8850  0.9676 -0.2305
  435MOL0     H58682   8.998   8.032   8.538  1.3100  2.1031 -2.1156
  435MOL0     H58683   9.101   8.062   8.788 -3.6849  0.5525  3.0905
  435MOL0     H58684   9.030   8.223   8.767 -0.8028  0.5235 -0.2955
  435MOL0     H58685   9.376   8.234   8.470 -2.2399  1.0656  1.1634
  435MOL0     H58686   9.614   8.226   8.534  2.2262 -1.2697  2.7457
  435MOL0     H58687   9.947   8.019   8.561  2.9681  1.3617 -4.0498
  435MOL0     H58688  10.213   7.980   8.622  0.8327  0.7333  0.9096
  435MOL0     H58689  10.379   8.339   8.793 -0.7551  0.3843  1.8348
  435MOL0     H58690  10.428   8.222   8.923 -0.0389 -0.1151  0.3064
  435MOL0     H58691  10.603   8.133   8.775  1.1099 -0.2391 -0.9293
  435MOL0     H58692  10.563   8.268   8.660 -0.8964  0.7759  0.9842
  435MOL0     H58693  10.589   8.414   8.872  1.1627  1.0811 -0.7152
  435MOL0     H58694  10.687   8.274   8.934 -1.0697 -2.7260 -0.8866
  435MOL0     H58695  10.814   8.459   8.836  1.8992  1.3051 -2.0899
  435MOL0     H58696  10.728   8.439   8.685  0.7689  3.5738  1.4276
  435MOL0     H58697  10.836   8.193   8.706  0.4033  0.0318  0.0714
  435MOL0     H58698  10.935   8.268   8.831  0.7407  1.4565 -1.0611
  435MOL0     H58699  11.051   8.269   8.616  1.0016  0.4094  1.0094
  435MOL0     H58700  10.933   8.380   8.557  0.9789 -1.3164 -0.4398
  435MOL0     H58701  11.002   8.542   8.761  2.7090 -0.2125  0.9601
  435MOL0     H58702  11.125   8.520   8.636  0.4747 -2.1113 -1.2133
  435MOL0     H58703  11.211   8.493   8.861  0.7034 -0.7816  0.7249
  435MOL0     H58704  11.117   8.351   8.887 -0.6062 -0.3020  0.4808
  435MOL0     H58705  10.193   8.299   8.907 -1.0871 -1.5286  2.4624
  435MOL0     H58706   9.955   8.314   8.878 -0.8598 -0.9690  0.3886
  435MOL0     H58707   9.487   8.116   8.933  1.4419  0.8429  0.3757
  435MOL0     H58708   9.268   8.112   8.868  0.6129 -0.3099  0.2584
  435MOL0     H58709   7.624   7.118   8.488 -1.2929  0.2604 -2.2580
  435MOL0     H58710   7.379   7.116   8.513 -2.5120  3.3151 -3.4106
  435MOL0     H58711   7.035   7.350   8.810  0.2144  1.2163 -2.7154
  435MOL0     H58712   6.780   7.377   8.846  0.6639 -0.4384 -0.6122
  435MOL0     H58713   6.520   7.060   8.690 -1.4857  0.5436  0.5711
  435MOL0     H58714   6.533   7.138   8.533  2.7320 -2.1700  0.7624
  435MOL0     H58715   6.304   7.138   8.590 -0.9579 -3.2167  2.2578
  435MOL0     H58716   6.362   7.303   8.636  2.6244  1.4115  2.6487
  435MOL0     H58717   6.394   7.246   8.865  0.8222 -1.5777 -0.1341
  435MOL0     H58718   6.348   7.080   8.842  0.4560  0.0411  3.4145
  435MOL0     H58719   6.165   7.249   8.929  0.7986 -0.8815  0.3065
  435MOL0     H58720   6.184   7.336   8.778  1.2732 -0.0888  0.9472
  435MOL0     H58721   5.893   7.063   8.652  0.5549 -3.6393  1.2086
  435MOL0     H58722   6.744   7.061   8.560 -1.1826  2.3176  0.0985
  435MOL0     H58723   7.053   6.937   8.586 -1.9683  0.1372  0.9676
  435MOL0     H58724   6.910   6.929   8.486 -0.6888  0.1871  0.5762
  435MOL0     H58725   7.042   7.047   8.435  1.2176  0.1418  0.8061
  436MOL0     O58726  10.826  10.301   4.901 -0.2097  0.0230 -0.1294
  436MOL0     C58727  10.797  10.262   5.014  0.3643 -0.1493 -0.1583
  436MOL0     O58728  10.880  10.241   5.115 -0.0750  0.5864 -1.0391
  436MOL0     C58729  11.018  10.254   5.099 -0.3367  0.2779  1.0759
  436MOL0     C58730  11.094  10.175   5.180 -0.7249 -0.9484 -0.0715
  436MOL0     C58731  11.232  10.200   5.200 -0.5367  0.7015  0.6795
  436MOL0     C58732  11.302  10.289   5.120  0.2428  0.8561  0.8780
  436MOL0     O58733  11.439  10.292   5.148 -0.3950  0.1595 -0.5261
  436MOL0     C58734  11.528  10.378   5.077 -0.7328 -0.7951  1.1239
  436MOL0     C58735  11.610  10.448   5.193  0.0510 -0.2322  0.2719
  436MOL0     C58736  11.692  10.339   5.256 -0.3791 -0.0658  0.1897
  436MOL0     C58737  11.785  10.405   5.363  0.0662  0.2419 -0.4340
  436MOL0     C58738  11.897  10.484   5.300 -0.5083 -0.0784  0.5296
  436MOL0     C58739  11.987  10.405   5.206  0.2817 -0.4578  0.4741
  436MOL0     C58740  12.111  10.488   5.159  0.4372 -0.1396 -0.3964
  436MOL0     C58741  12.185  10.400   5.061  0.4924 -0.0990  0.4514
  436MOL0     N58742  12.305  10.455   5.013 -0.2172  0.4197 -0.2456
  436MOL0     C58743  12.343  10.580   5.010  0.3116 -0.1921  0.1463
  436MOL0     C58744  12.470  10.578   4.957 -0.6435 -0.3111 -0.7948
  436MOL0     C58745  12.552  10.695   4.923 -0.1387 -0.3506  0.2168
  436MOL0     C58746  12.700  10.660   4.918 -0.0281 -0.3024  0.2815
  436MOL0     C58747  12.782  10.786   4.881 -0.5173  0.2874 -0.2853
  436MOL0     C58748  12.919  10.737   4.857 -0.5583 -0.0728  0.3746
  436MOL0     O58749  13.018  10.847   4.838  0.6594  0.3707  0.2083
  436MOL0     C58750  13.152  10.819   4.839  0.2345  0.1902 -0.0824
  436MOL0     C58751  13.230  10.921   4.886 -0.3034  0.4990 -0.5710
  436MOL0     C58752  13.368  10.912   4.894 -0.6760  0.1807  0.0667
  436MOL0     C58753  13.434  10.795   4.850  0.1203  0.3026  0.1507
  436MOL0     C58754  13.583  10.791   4.862  0.2368 -0.4283 -0.5704
  436MOL0     O58755  13.640  10.668   4.841  0.1965  0.2780  0.2324
  436MOL0     C58756  13.780  10.653   4.843  0.8947  0.0677 -0.9111
  436MOL0     C58757  13.855  10.710   4.942  0.0461 -0.6072  0.2396
  436MOL0     C58758  13.993  10.667   4.960  0.7034 -0.5251  0.8623
  436MOL0     C58759  14.052  10.579   4.864  0.6004  0.0068 -0.7538
  436MOL0     O58760  14.186  10.542   4.864 -0.3208  0.7887  1.2640
  436MOL0     C58761  14.279  10.577   4.967  0.8785 -0.1026 -0.0102
  436MOL0     C58762  14.418  10.526   4.931 -0.5834  0.3788 -0.2019
  436MOL0     C58763  14.433  10.372   4.933  0.1004  0.3608  0.7406
  436MOL0     C58764  14.399  10.302   5.064  0.5557 -0.1839 -0.1318
  436MOL0     C58765  14.445  10.158   5.070  0.1558 -0.0373  0.8877
  436MOL0     C58766  14.588  10.150   5.117 -0.2135  0.9082 -0.0247
  436MOL0     C58767  14.606   9.999   5.152 -0.6667  0.1480  0.6163
  436MOL0     C58768  14.753   9.980   5.191 -0.3936 -0.3522 -0.2681
  436MOL0    Cl58769  14.783   9.807   5.233 -0.3539  0.1509 -0.5031
  436MOL0     C58770  13.970  10.510   4.778  0.8809  0.2124 -0.1556
  436MOL0     C58771  13.835  10.547   4.771  0.4572 -0.4672  0.3118
  436MOL0     O58772  13.643  10.894   4.886  0.0080 -0.3870 -0.1189
  436MOL0     C58773  13.348  10.692   4.807 -0.3559  0.6481 -0.3548
  436MOL0     C58774  13.211  10.696   4.803  0.5092 -0.6220  0.4566
  436MOL0     N58775  12.508  10.442   4.929 -0.0725 -0.2172 -0.4595
  436MOL0     N58776  12.409  10.370   4.979 -0.9811  0.6261  0.2199
  436MOL0     C58777  11.231  10.364   5.029  0.0236 -0.6634 -0.1499
  436MOL0     C58778  11.093  10.350   5.016  0.3011  0.7150 -0.1007
  436MOL0     C58779  10.647  10.244   5.042 -0.4150 -0.2515 -1.0305
  436MOL0     C58780  10.599  10.146   5.140 -0.6250  0.2431 -0.0209
  436MOL0     C58781  10.461  10.140   5.166 -0.3113 -0.3082  0.4682
  436MOL0     C58782  10.368  10.224   5.102  0.4080 -0.7441  0.1231
  436MOL0     O58783  10.236  10.199   5.135  0.0319 -0.3596 -0.1652
  436MOL0     C58784  10.131  10.269   5.058  0.1383  0.5767 -0.2950
  436MOL0     C58785   9.992  10.227   5.113 -0.4907  0.1585 -0.0909
  436MOL0     C58786   9.876  10.295   5.050 -0.4699  0.3972 -0.6634
  436MOL0     C58787   9.741  10.260   5.114 -0.5842  0.0851  1.1695
  436MOL0     C58788   9.637  10.334   5.044  0.0311 -0.5688  0.1329
  436MOL0     C58789   9.566  10.391   4.968  0.2702  0.1622  0.5084
  436MOL0     C58790  10.418  10.309   4.999  0.4011  0.0407 -0.6815
  436MOL0     C58791  10.553  10.323   4.975  0.4764  0.4786 -0.3671
  436MOL0     C58792  10.598  10.446   4.885  0.3152  1.0954 -0.1443
  436MOL0     H58793  11.046  10.111   5.254 -3.9530  2.0663  0.7566
  436MOL0     H58794  11.297  10.144   5.267  0.0409  0.6376  0.0822
  436MOL0     H58795  11.590  10.305   5.024  0.6742 -0.0740  1.7375
  436MOL0     H58796  11.478  10.451   5.012  1.1597 -2.3308 -2.3124
  436MOL0     H58797  11.538  10.486   5.266  1.6154  1.8073  0.8336
  436MOL0     H58798  11.667  10.522   5.137 -0.1264  1.7358  2.5419
  436MOL0     H58799  11.761  10.280   5.195 -1.5891 -2.4777  1.0329
  436MOL0     H58800  11.619  10.279   5.311 -0.5189  0.5204  0.6546
  436MOL0     H58801  11.717  10.469   5.419  1.2192  0.0356  1.2680
  436MOL0     H58802  11.827  10.323   5.422  2.8895  1.0411 -1.1923
  436MOL0     H58803  11.854  10.577   5.261 -0.0795 -0.3530 -0.6575
  436MOL0     H58804  11.958  10.521   5.383  0.7241  2.0806 -1.2208
  436MOL0     H58805  11.998  10.307   5.253 -1.4073 -1.1089 -0.3723
  436MOL0     H58806  11.931  10.390   5.113 -0.7866 -0.2437  1.0726
  436MOL0     H58807  12.186  10.511   5.235 -1.3224 -0.5742  1.5683
  436MOL0     H58808  12.084  10.580   5.106  1.4955 -1.1073 -2.7393
  436MOL0     H58809  12.207  10.299   5.094 -1.3044 -1.0191 -0.9642
  436MOL0     H58810  12.110  10.388   4.982 -1.9407  2.5598  2.1584
  436MOL0     H58811  12.281  10.667   5.029  1.4410  0.8431 -0.7326
  436MOL0     H58812  12.520  10.730   4.824 -0.7800  1.3807  1.0014
  436MOL0     H58813  12.522  10.779   4.985 -1.8874  0.6872 -1.8783
  436MOL0     H58814  12.733  10.614   5.011 -0.1611  1.2295  1.1039
  436MOL0     H58815  12.705  10.585   4.838  0.0920 -1.2064  1.1207
  436MOL0     H58816  12.780  10.862   4.959  0.1760  0.1074 -0.0880
  436MOL0     H58817  12.744  10.839   4.792  3.2171  1.3410 -1.4443
  436MOL0     H58818  12.919  10.685   4.761 -0.4758  1.7982 -0.6838
  436MOL0     H58819  12.943  10.673   4.943 -2.8631 -1.1822  0.2480
  436MOL0     H58820  13.185  11.013   4.923 -1.0125  0.3148 -0.9582
  436MOL0     H58821  13.422  10.994   4.940  3.2251 -3.4251  2.6673
  436MOL0     H58822  13.798  10.773   5.009 -1.0416 -1.7078  0.3870
  436MOL0     H58823  14.044  10.721   5.039 -1.7664  1.2328  1.3568
  436MOL0     H58824  14.295  10.685   4.966  3.0260 -0.2784  2.7962
  436MOL0     H58825  14.247  10.550   5.068 -3.3700  0.6463 -0.9674
  436MOL0     H58826  14.448  10.558   4.831  2.0191 -0.5510  0.2152
  436MOL0     H58827  14.492  10.557   5.006  1.1145 -0.5349 -1.4509
  436MOL0     H58828  14.368  10.324   4.859  3.2923 -1.0974 -1.3404
  436MOL0     H58829  14.530  10.339   4.898  0.4382  0.6226  1.4113
  436MOL0     H58830  14.289  10.298   5.063  0.5682 -0.5381 -0.8947
  436MOL0     H58831  14.419  10.357   5.156 -0.4798 -3.2043  2.0553
  436MOL0     H58832  14.437  10.121   4.967 -1.1000  1.7160  0.2995
  436MOL0     H58833  14.383  10.090   5.129  1.2954 -0.1785  1.9509
  436MOL0     H58834  14.660  10.177   5.039  0.6202  1.1432  0.7986
  436MOL0     H58835  14.598  10.214   5.205  1.4556 -0.9558  1.2195
  436MOL0     H58836  14.589   9.927   5.071  0.0107  0.4768  0.1733
  436MOL0     H58837  14.543   9.971   5.236 -0.4374 -1.1043  0.3989
  436MOL0     H58838  14.819  10.010   5.110  2.5009 -3.8901  0.5177
  436MOL0     H58839  14.783  10.041   5.277 -2.9547 -3.3790  3.1587
  436MOL0     H58840  14.008  10.433   4.712  1.7917  0.0603  0.5334
  436MOL0     H58841  13.778  10.499   4.692 -1.7063 -0.5095  1.7801
  436MOL0     H58842  13.382  10.590   4.789 -0.7985 -0.4866  4.0683
  436MOL0     H58843  13.149  10.616   4.765 -1.3862  0.6521  0.7151
  436MOL0     H58844  11.261  10.437   4.955 -3.1971  3.2108  1.9186
  436MOL0     H58845  11.044  10.422   4.952 -4.2642 -0.0933  2.0398
  436MOL0     H58846  10.662  10.082   5.200 -4.8583 -2.2930  2.2431
  436MOL0     H58847  10.415  10.063   5.228 -1.0208 -0.1778  0.1197
  436MOL0     H58848  10.146  10.241   4.953 -2.5649 -0.2029 -0.5612
  436MOL0     H58849  10.146  10.377   5.065  0.8288  0.6343 -2.1400
  436MOL0     H58850   9.992  10.249   5.220 -0.2589 -0.2034 -0.0109
  436MOL0     H58851   9.992  10.118   5.104 -0.7506  0.1104  0.4743
  436MOL0     H58852   9.866  10.257   4.948 -0.9215 -0.7564 -0.2053
  436MOL0     H58853   9.884  10.404   5.050  0.0586  0.4220 -3.2338
  436MOL0     H58854   9.709  10.155   5.112 -1.5524  0.3362 -2.3244
  436MOL0     H58855   9.740  10.284   5.221 -1.2580 -1.0580  1.4487
  436MOL0     H58856   9.500  10.453   4.910 -0.4533  0.0995  1.2525
  436MOL0     H58857  10.354  10.375   4.941  0.1626  1.8689  1.5302
  436MOL0     H58858  10.668  10.507   4.943 -0.3370 -0.4098  2.3632
  436MOL0     H58859  10.630  10.414   4.785  0.0726  1.2980 -0.2853
  436MOL0     H58860  10.515  10.514   4.867 -1.3238 -0.9343 -0.6595
  437MOL0     O58861  10.958   8.615   8.268 -0.0014 -0.2711 -0.7804
  437MOL0     C58862  10.930   8.714   8.195  0.1255 -0.6302 -0.0985
  437MOL0     O58863  11.009   8.834   8.189 -0.5983  1.3533  0.1586
  437MOL0     C58864  11.135   8.837   8.242 -0.9333  0.4339  0.7489
  437MOL0     C58865  11.220   8.735   8.286 -0.8742 -0.0893 -0.1969
  437MOL0     C58866  11.338   8.769   8.362 -0.5628 -1.8596 -0.7900
  437MOL0     C58867  11.385   8.904   8.368 -0.2973 -1.6310  0.7486
  437MOL0     O58868  11.504   8.933   8.422 -0.7386 -0.9652 -0.4244
  437MOL0     C58869  11.605   8.965   8.326  0.2676  1.1566  0.2548
  437MOL0     C58870  11.746   8.931   8.373  0.3951 -1.0583  0.0537
  437MOL0     C58871  11.756   8.778   8.391 -0.4468 -0.3623 -0.5029
  437MOL0     C58872  11.893   8.746   8.439 -0.2314 -0.0614 -0.0362
  437MOL0     C58873  11.933   8.599   8.431 -0.1849  0.2108  0.6003
  437MOL0     C58874  12.081   8.566   8.426 -0.2045 -0.5305 -0.0827
  437MOL0     C58875  12.114   8.433   8.360 -0.9569 -0.9727  0.5862
  437MOL0     C58876  12.268   8.422   8.327 -0.6768  0.7091 -0.3772
  437MOL0     N58877  12.302   8.279   8.289  0.5904 -0.3558 -0.0075
  437MOL0     C58878  12.303   8.183   8.389  0.2143  0.0329  0.4946
  437MOL0     C58879  12.374   8.088   8.333  0.1917  0.0866  0.3318
  437MOL0     C58880  12.411   7.963   8.404  0.7415 -0.0648 -0.9750
  437MOL0     C58881  12.431   7.843   8.307 -0.1758 -1.2387  0.1856
  437MOL0     C58882  12.450   7.716   8.381 -0.3460  0.5587  0.3241
  437MOL0     C58883  12.457   7.599   8.287  0.1026 -0.7216 -0.0802
  437MOL0     O58884  12.540   7.492   8.324  0.5457  0.5231 -0.0702
  437MOL0     C58885  12.676   7.511   8.346  0.3401 -0.6456  0.9649
  437MOL0     C58886  12.745   7.429   8.426  0.1349  0.1726 -0.2425
  437MOL0     C58887  12.875   7.456   8.464  0.2139 -0.9711  0.2346
  437MOL0     C58888  12.950   7.566   8.422 -0.0772 -0.3841  0.2043
  437MOL0     C58889  13.094   7.592   8.451 -0.7901  0.0466  0.2910
  437MOL0     O58890  13.134   7.533   8.566 -0.2693  1.0793  0.1097
  437MOL0     C58891  13.268   7.544   8.585 -0.0398  0.8670  0.7577
  437MOL0     C58892  13.332   7.662   8.623 -0.4640  0.4662  0.1325
  437MOL0     C58893  13.471   7.662   8.659  0.6694 -0.2972  0.6889
  437MOL0     C58894  13.543   7.542   8.651 -0.3549 -0.4481 -0.6888
  437MOL0     O58895  13.681   7.518   8.666  0.2220  0.3117 -0.2424
  437MOL0     C58896  13.752   7.617   8.742 -0.7209 -0.6703  0.8307
  437MOL0     C58897  13.874   7.534   8.803 -0.2655 -0.0451 -0.1392
  437MOL0     C58898  13.973   7.638   8.859 -0.8191 -0.1632 -0.9681
  437MOL0     C58899  14.109   7.579   8.902 -0.2690  0.9827  0.3704
  437MOL0     C58900  14.193   7.693   8.954  0.6883  0.3368 -0.8719
  437MOL0     C58901  14.315   7.630   9.031  0.8212  0.2429  0.0398
  437MOL0     C58902  14.427   7.737   9.068  0.4966 -0.5518  0.1073
  437MOL0     C58903  14.562   7.684   9.113 -0.1410 -0.4064  0.0000
  437MOL0    Cl58904  14.668   7.595   8.997  0.0563 -0.0232  0.3964
  437MOL0     C58905  13.478   7.429   8.600  0.3079  0.0030 -0.6895
  437MOL0     C58906  13.343   7.428   8.566  0.2155 -0.0133 -0.0810
  437MOL0     O58907  13.160   7.658   8.372  0.7592  0.6483 -0.2602
  437MOL0     C58908  12.882   7.647   8.328  0.2794 -0.1749  0.0814
  437MOL0     C58909  12.749   7.623   8.288  0.7085 -0.7354 -0.3829
  437MOL0     N58910  12.385   8.114   8.195  0.2942  0.5844 -0.8186
  437MOL0     N58911  12.359   8.242   8.174 -0.5432  0.4227 -0.0031
  437MOL0     C58912  11.315   8.993   8.298 -0.2694 -0.0840  0.1772
  437MOL0     C58913  11.189   8.964   8.238 -0.7141  0.0563 -0.6772
  437MOL0     C58914  10.803   8.706   8.114 -0.2523  0.0968  0.0920
  437MOL0     C58915  10.751   8.576   8.097  0.3378  0.4706 -0.1979
  437MOL0     C58916  10.629   8.553   8.031  0.5506 -0.4230  0.4835
  437MOL0     C58917  10.547   8.661   7.994 -0.1173  0.7330 -0.2247
  437MOL0     O58918  10.429   8.650   7.926 -0.8516  0.2398  0.0322
  437MOL0     C58919  10.372   8.523   7.889 -0.5582  0.4142 -0.0754
  437MOL0     C58920  10.300   8.448   8.012 -0.2766  0.0943  0.3795
  437MOL0     C58921  10.163   8.407   7.978  0.2482 -0.0107  0.2915
  437MOL0     C58922  10.064   8.520   8.007  0.3026  0.2290 -0.2390
  437MOL0     C58923  10.016   8.582   7.879 -0.1278 -0.8457  0.0281
  437MOL0     C58924   9.968   8.612   7.766  0.1734 -0.9092 -0.3526
  437MOL0     C58925  10.596   8.789   8.009  0.8950 -0.4506  0.0875
  437MOL0     C58926  10.728   8.810   8.064  0.3286  0.2070 -0.0944
  437MOL0     C58927  10.757   8.959   8.083 -0.5261 -0.9850  0.0927
  437MOL0     H58928  11.180   8.634   8.280 -3.4123  0.9068 -1.2560
  437MOL0     H58929  11.408   8.693   8.396  2.1407  0.1348 -1.6012
  437MOL0     H58930  11.598   8.931   8.222  2.9900  0.0513  0.3443
  437MOL0     H58931  11.610   9.075   8.332 -1.9001  1.3277 -0.2305
  437MOL0     H58932  11.771   8.986   8.463  0.8263 -0.5562 -0.3679
  437MOL0     H58933  11.807   8.960   8.287 -2.9279 -1.2318 -2.6086
  437MOL0     H58934  11.739   8.735   8.292  1.4202 -0.3197 -0.8939
  437MOL0     H58935  11.677   8.744   8.458 -0.8512  0.6707 -0.4422
  437MOL0     H58936  11.959   8.802   8.371 -1.6628  1.9891  0.1912
  437MOL0     H58937  11.912   8.783   8.540 -0.1888  0.5919 -0.2823
  437MOL0     H58938  11.879   8.544   8.508 -1.5343  2.3086  1.2464
  437MOL0     H58939  11.901   8.559   8.335  0.6944  0.3750  0.2334
  437MOL0     H58940  12.132   8.649   8.376  0.9793 -0.7139  0.7991
  437MOL0     H58941  12.122   8.573   8.527 -2.0183 -2.9916  0.9172
  437MOL0     H58942  12.056   8.416   8.269 -1.2155 -0.9908  0.7522
  437MOL0     H58943  12.081   8.353   8.427 -0.1321 -0.5931  1.4706
  437MOL0     H58944  12.289   8.492   8.245 -1.5740 -1.2074 -2.3179
  437MOL0     H58945  12.316   8.448   8.422  2.4614 -2.2745 -0.9485
  437MOL0     H58946  12.269   8.206   8.490 -2.2116 -1.0966  0.0022
  437MOL0     H58947  12.511   7.977   8.445  1.5135  0.3444 -2.8820
  437MOL0     H58948  12.339   7.933   8.481  2.2490 -2.6962 -0.4821
  437MOL0     H58949  12.340   7.832   8.247 -0.9135  2.0220  0.4978
  437MOL0     H58950  12.516   7.851   8.238 -0.2131 -0.8132  0.1882
  437MOL0     H58951  12.365   7.703   8.448 -2.8083  0.3449 -2.5918
  437MOL0     H58952  12.546   7.729   8.431  0.4962  2.2890 -1.5473
  437MOL0     H58953  12.478   7.621   8.182 -0.2947 -0.1517 -0.0437
  437MOL0     H58954  12.357   7.556   8.282 -0.4641  0.1256  2.2542
  437MOL0     H58955  12.687   7.347   8.466 -0.7398  0.5470 -0.7062
  437MOL0     H58956  12.920   7.391   8.539 -3.1151 -0.9294  2.4625
  437MOL0     H58957  13.271   7.752   8.625 -1.0561  0.1259 -1.1670
  437MOL0     H58958  13.526   7.744   8.705  1.0586  0.6785 -1.4022
  437MOL0     H58959  13.806   7.686   8.675 -0.0328 -0.0566  1.9798
  437MOL0     H58960  13.686   7.668   8.813 -0.5471  1.2849 -0.3238
  437MOL0     H58961  13.838   7.465   8.881  1.9295 -0.7230  0.3403
  437MOL0     H58962  13.925   7.473   8.728  0.5856  0.9634 -0.3981
  437MOL0     H58963  13.992   7.722   8.792  0.5822  1.6907  1.5664
  437MOL0     H58964  13.937   7.680   8.953  2.8106 -0.9786  0.9567
  437MOL0     H58965  14.169   7.538   8.820 -1.6655  2.8742 -1.7038
  437MOL0     H58966  14.104   7.507   8.984 -1.4088  0.5926 -0.0235
  437MOL0     H58967  14.130   7.736   9.033 -1.1978 -1.7756 -1.0956
  437MOL0     H58968  14.215   7.765   8.875  0.0754  0.6866 -0.7353
  437MOL0     H58969  14.278   7.575   9.118  0.6227 -1.8170 -1.2946
  437MOL0     H58970  14.373   7.562   8.969 -0.3131 -0.4347 -0.3068
  437MOL0     H58971  14.388   7.805   9.144 -3.8007 -2.2328 -0.2741
  437MOL0     H58972  14.455   7.793   8.978  2.2811 -2.8272 -0.8562
  437MOL0     H58973  14.626   7.765   9.148 -3.0142  1.7267  0.7498
  437MOL0     H58974  14.544   7.620   9.200  0.0138  0.8254  0.9612
  437MOL0     H58975  13.531   7.336   8.583 -1.3365 -0.7937 -1.6703
  437MOL0     H58976  13.297   7.333   8.540  0.6374 -0.1162 -0.4779
  437MOL0     H58977  12.943   7.734   8.304 -0.4810  0.8115  1.5719
  437MOL0     H58978  12.694   7.691   8.223  1.3663  0.1639 -0.0154
  437MOL0     H58979  11.362   9.088   8.277 -1.7086 -0.0160 -3.6510
  437MOL0     H58980  11.133   9.039   8.182  2.6899  3.4249 -0.0128
  437MOL0     H58981  10.810   8.490   8.126  2.4457  1.2853 -1.7659
  437MOL0     H58982  10.597   8.457   7.993 -0.6100 -0.1876  0.8100
  437MOL0     H58983  10.445   8.449   7.853 -3.6674 -2.5934 -0.8242
  437MOL0     H58984  10.297   8.542   7.812  0.1851  1.5343 -0.5480
  437MOL0     H58985  10.309   8.505   8.104  2.9790  0.1099  0.1890
  437MOL0     H58986  10.357   8.356   8.027  0.4934  0.6855  1.1764
  437MOL0     H58987  10.148   8.323   8.046  0.6721 -2.3863 -2.3839
  437MOL0     H58988  10.156   8.367   7.877  0.0374 -1.4515  0.8639
  437MOL0     H58989   9.984   8.471   8.064  0.1468 -2.0998 -2.3215
  437MOL0     H58990  10.105   8.598   8.071 -2.1243  1.1710  0.2943
  437MOL0     H58991   9.923   8.646   7.676  1.1611  3.3423  0.4973
  437MOL0     H58992  10.543   8.875   7.968  1.4346 -1.6631 -3.5462
  437MOL0     H58993  10.837   8.993   8.017  0.6964 -3.0970  0.3839
  437MOL0     H58994  10.668   9.021   8.069 -1.1133 -1.4027  1.6984
  437MOL0     H58995  10.790   8.985   8.184 -0.3210 -0.0311 -0.2103
  438MOL0     O58996   6.199   2.338   3.809  0.1216 -0.6750 -0.2406
  438MOL0     C58997   6.258   2.420   3.740  0.6447  0.1268  0.6113
  438MOL0     O58998   6.392   2.427   3.712 -0.3923 -0.0792 -0.4713
  438MOL0     C58999   6.489   2.324   3.734 -0.0820  0.4745 -0.5467
  438MOL0     C59000   6.460   2.196   3.772 -0.4154 -0.0488 -0.7757
  438MOL0     C59001   6.562   2.103   3.809  0.3639  0.1080  0.6648
  438MOL0     C59002   6.690   2.135   3.787  0.5325 -0.0307  0.8054
  438MOL0     O59003   6.785   2.041   3.822 -0.6462 -0.8375  0.4386
  438MOL0     C59004   6.923   2.074   3.806  0.4577 -0.5239  0.6958
  438MOL0     C59005   7.010   1.980   3.889  0.2641 -0.6346 -0.2827
  438MOL0     C59006   7.160   1.989   3.856  0.3591 -0.2362 -0.6717
  438MOL0     C59007   7.236   1.900   3.953  0.1505  0.2543  0.4028
  438MOL0     C59008   7.377   1.857   3.905  0.0513 -1.0654  0.1047
  438MOL0     C59009   7.467   1.977   3.887  0.2575  0.3167  0.4464
  438MOL0     C59010   7.617   1.955   3.881  0.9140  0.1224  0.8476
  438MOL0     C59011   7.655   1.814   3.822  0.6507  0.1531 -0.1265
  438MOL0     N59012   7.803   1.796   3.820 -0.0409  0.6389  0.2406
  438MOL0     C59013   7.881   1.687   3.852 -0.3046  0.5508  0.3218
  438MOL0     C59014   8.007   1.722   3.846 -0.6121 -0.2855 -0.0654
  438MOL0     C59015   8.115   1.634   3.898 -0.7333 -1.4071  0.3264
  438MOL0     C59016   8.243   1.703   3.858 -0.6229  0.1603  0.8128
  438MOL0     C59017   8.271   1.714   3.711 -0.7256  0.0433  0.3556
  438MOL0     C59018   8.404   1.662   3.661 -0.9161  0.5516 -0.0296
  438MOL0     O59019   8.517   1.717   3.734 -0.2416  0.2726 -0.6608
  438MOL0     C59020   8.639   1.668   3.711  0.3819  0.2384 -0.3312
  438MOL0     C59021   8.678   1.611   3.593  0.2845  0.0589  0.4637
  438MOL0     C59022   8.809   1.568   3.570 -0.0292  0.8682 -0.2991
  438MOL0     C59023   8.915   1.592   3.668  0.2010 -0.2201  0.4001
  438MOL0     C59024   9.050   1.554   3.632 -0.1368 -1.1016 -0.2230
  438MOL0     O59025   9.142   1.567   3.727 -0.1449  0.0346  0.1986
  438MOL0     C59026   9.262   1.496   3.717  0.2499 -0.8688 -0.3580
  438MOL0     C59027   9.267   1.357   3.678  0.5107  0.0903  0.0767
  438MOL0     C59028   9.387   1.281   3.655  0.2793 -0.9160  0.6277
  438MOL0     C59029   9.505   1.353   3.699 -0.2381  0.0198  0.1124
  438MOL0     O59030   9.613   1.272   3.687 -0.2351  0.4552  0.3674
  438MOL0     C59031   9.730   1.322   3.747  0.0010 -0.8929 -0.4741
  438MOL0     C59032   9.823   1.214   3.802  0.1410  0.0722 -0.8966
  438MOL0     C59033   9.967   1.263   3.842 -0.0181  0.5409  0.2191
  438MOL0     C59034  10.060   1.163   3.908 -0.2043 -0.1649 -0.1068
  438MOL0     C59035  10.105   1.058   3.806  0.3155 -0.1088  0.5126
  438MOL0     C59036  10.219   0.975   3.857 -0.6210 -0.0454 -0.3306
  438MOL0     C59037  10.358   1.051   3.819  0.0743  0.5820  0.1660
  438MOL0     C59038  10.467   0.995   3.912  1.0772 -0.6758 -0.2583
  438MOL0    Cl59039  10.621   1.066   3.859  0.4947 -0.4318  0.2536
  438MOL0     C59040   9.499   1.480   3.765  0.5034  0.2947 -0.5726
  438MOL0     C59041   9.382   1.554   3.769  0.8923  0.5398  0.5903
  438MOL0     O59042   9.074   1.518   3.519  0.2239 -0.0386 -0.2766
  438MOL0     C59043   8.871   1.636   3.792  0.1377 -0.6856 -0.2910
  438MOL0     C59044   8.730   1.664   3.819  0.4050 -0.0469 -0.0166
  438MOL0     N59045   8.007   1.856   3.808  0.0997 -0.4435 -0.7382
  438MOL0     N59046   7.893   1.893   3.779  0.0258  0.0131 -0.5164
  438MOL0     C59047   6.715   2.265   3.726 -0.5147  0.0393 -0.0522
  438MOL0     C59048   6.617   2.359   3.712 -0.2001  0.4429  0.0298
  438MOL0     C59049   6.183   2.535   3.689  0.0646 -0.2641 -0.5223
  438MOL0     C59050   6.043   2.527   3.696  0.2351 -0.0868 -0.8467
  438MOL0     C59051   5.952   2.616   3.645  0.0845  0.4325  0.0542
  438MOL0     C59052   6.008   2.726   3.580  0.4039  0.5777 -0.3689
  438MOL0     O59053   5.918   2.820   3.523 -0.4073 -0.1981  0.8327
  438MOL0     C59054   5.775   2.802   3.526  0.0855  0.4271  0.1315
  438MOL0     C59055   5.718   2.906   3.420  0.1605 -0.2226 -0.5007
  438MOL0     C59056   5.563   2.887   3.413  0.6892 -0.3785  0.8444
  438MOL0     C59057   5.510   2.986   3.312  0.6285  0.4199 -0.2678
  438MOL0     C59058   5.373   2.951   3.294 -0.4218 -0.5350  0.0272
  438MOL0     C59059   5.262   2.913   3.279  0.3753 -0.2642  0.2017
  438MOL0     C59060   6.143   2.735   3.559  0.2127  0.5512  0.0982
  438MOL0     C59061   6.233   2.645   3.619  0.0934  0.0840 -0.0905
  438MOL0     C59062   6.374   2.679   3.582 -0.2209 -0.1571 -0.0804
  438MOL0     H59063   6.359   2.171   3.801 -0.2094 -2.6156 -1.9710
  438MOL0     H59064   6.543   2.002   3.845 -0.0296 -0.9641 -2.2675
  438MOL0     H59065   6.971   2.072   3.708  2.0627 -3.5198  1.4170
  438MOL0     H59066   6.952   2.173   3.843 -0.5091  0.4767 -1.0895
  438MOL0     H59067   6.984   1.874   3.894  3.1890 -1.3817  1.5531
  438MOL0     H59068   6.997   2.016   3.991  2.1617 -2.8725  0.8424
  438MOL0     H59069   7.197   2.090   3.876  0.7013 -0.5716  0.4429
  438MOL0     H59070   7.188   1.964   3.753  2.3549  0.6413 -0.3903
  438MOL0     H59071   7.237   1.962   4.043 -1.7736  1.9881 -0.6676
  438MOL0     H59072   7.178   1.811   3.981  0.9732  0.0256  1.4780
  438MOL0     H59073   7.419   1.794   3.984  3.4291  1.0311  0.1765
  438MOL0     H59074   7.364   1.795   3.816  2.1740 -0.9373 -0.3473
  438MOL0     H59075   7.446   2.027   3.792  0.0602  0.6956  0.6889
  438MOL0     H59076   7.442   2.038   3.974  0.3595 -0.5021  1.0677
  438MOL0     H59077   7.645   1.956   3.987 -0.5940  0.0881  1.2802
  438MOL0     H59078   7.655   2.046   3.835 -2.2459  2.2169  2.0518
  438MOL0     H59079   7.622   1.730   3.883  1.7885 -0.2917 -0.1013
  438MOL0     H59080   7.603   1.792   3.728 -1.1186 -0.4529  0.9525
  438MOL0     H59081   7.843   1.594   3.892  0.1864 -0.8643 -2.2432
  438MOL0     H59082   8.106   1.621   4.006 -2.1144  0.7913  0.5365
  438MOL0     H59083   8.112   1.533   3.856  3.1174 -2.8203  2.9295
  438MOL0     H59084   8.252   1.805   3.895 -0.1474  0.7818 -0.9383
  438MOL0     H59085   8.319   1.644   3.910  0.5387  0.0927 -0.8863
  438MOL0     H59086   8.267   1.818   3.677  3.0707 -0.2788 -1.5977
  438MOL0     H59087   8.201   1.658   3.648  0.9755 -1.7674 -0.0338
  438MOL0     H59088   8.417   1.686   3.555  1.6005 -0.7942 -0.0854
  438MOL0     H59089   8.410   1.552   3.666  3.8905  0.6802  2.0519
  438MOL0     H59090   8.609   1.598   3.510  2.4722  1.3030 -1.6956
  438MOL0     H59091   8.830   1.520   3.474 -1.0741  0.0934 -0.1596
  438MOL0     H59092   9.167   1.315   3.674 -0.2825  1.9293 -0.6290
  438MOL0     H59093   9.391   1.179   3.620 -0.5088 -0.1229 -1.9490
  438MOL0     H59094   9.787   1.391   3.684  2.8866 -1.9554  0.7733
  438MOL0     H59095   9.706   1.373   3.841  3.6243  0.2437 -0.0217
  438MOL0     H59096   9.771   1.165   3.886 -1.5169  1.0102 -1.3210
  438MOL0     H59097   9.843   1.131   3.733 -1.2631  0.2295 -1.5270
  438MOL0     H59098  10.011   1.302   3.750 -0.2061 -3.2352 -1.6417
  438MOL0     H59099   9.961   1.335   3.925  0.5727 -0.1349  0.8660
  438MOL0     H59100  10.007   1.108   3.986  3.2332 -1.3798  1.5866
  438MOL0     H59101  10.145   1.210   3.959 -0.3014  0.1367 -0.2198
  438MOL0     H59102  10.115   1.110   3.710 -1.2773  1.0733  0.9541
  438MOL0     H59103  10.024   0.989   3.778 -2.3027  1.6075  3.3334
  438MOL0     H59104  10.211   0.961   3.965  0.8903 -0.8754 -0.3068
  438MOL0     H59105  10.213   0.871   3.824 -0.3173 -0.1523 -0.0484
  438MOL0     H59106  10.340   1.158   3.830 -1.9826  0.1550  1.6630
  438MOL0     H59107  10.392   1.046   3.716  2.0269  0.6376  0.7635
  438MOL0     H59108  10.453   1.011   4.019 -1.3599  0.0267 -0.6124
  438MOL0     H59109  10.466   0.887   3.894  0.7545 -0.8389  0.6951
  438MOL0     H59110   9.589   1.532   3.793  0.3681  1.3810 -2.0337
  438MOL0     H59111   9.387   1.657   3.805  0.3387  1.2907 -1.3407
  438MOL0     H59112   8.936   1.648   3.879  2.7993 -2.4294 -1.9018
  438MOL0     H59113   8.686   1.688   3.915  2.3528  2.2326  0.3753
  438MOL0     H59114   6.812   2.306   3.701 -0.8174  0.8252  0.0364
  438MOL0     H59115   6.644   2.457   3.673  1.7820  0.6590  1.7827
  438MOL0     H59116   6.000   2.439   3.743  0.4995  0.6476  0.8451
  438MOL0     H59117   5.847   2.601   3.667 -0.1173 -0.2996 -1.3567
  438MOL0     H59118   5.739   2.822   3.627 -0.2336  1.4652 -0.1690
  438MOL0     H59119   5.742   2.703   3.494  0.3982  0.5015 -0.4476
  438MOL0     H59120   5.772   2.904   3.325 -0.3335  0.6371 -0.8149
  438MOL0     H59121   5.732   3.004   3.465  0.5176 -0.2729 -0.4989
  438MOL0     H59122   5.517   2.911   3.510  0.1477  2.1906  0.0408
  438MOL0     H59123   5.531   2.787   3.381 -1.9048  0.8166 -0.6732
  438MOL0     H59124   5.518   3.088   3.349  1.4779 -0.0097  0.7865
  438MOL0     H59125   5.564   2.988   3.216  0.2274  0.2265 -0.5002
  438MOL0     H59126   5.166   2.880   3.246  0.2992 -0.2039  0.3590
  438MOL0     H59127   6.171   2.826   3.507 -2.3147  1.6404  0.5086
  438MOL0     H59128   6.390   2.787   3.587 -0.0979 -0.2178  1.0769
  438MOL0     H59129   6.445   2.647   3.659 -0.5616 -1.7996 -0.4082
  438MOL0     H59130   6.414   2.637   3.489  1.0160  0.6925  0.0430
  439MOL0     O59131   0.793   8.187   6.769  0.1529  0.2795  0.4518
  439MOL0     C59132   0.830   8.164   6.651  0.5886 -2.0916 -0.1095
  439MOL0     O59133   0.955   8.196   6.605  0.1038  0.4607 -0.5211
  439MOL0     C59134   1.022   8.306   6.656 -0.0675 -0.2594  0.6095
  439MOL0     C59135   0.955   8.427   6.669 -0.7365 -0.4310 -0.5156
  439MOL0     C59136   1.022   8.545   6.705 -0.0389 -0.1392  0.3162
  439MOL0     C59137   1.163   8.543   6.731  0.6565  0.0531 -0.3764
  439MOL0     O59138   1.230   8.663   6.757 -0.5144  0.2178  0.3966
  439MOL0     C59139   1.296   8.681   6.881  0.8304  0.5889  0.1924
  439MOL0     C59140   1.445   8.669   6.869  0.1100 -0.8187 -1.0534
  439MOL0     C59141   1.518   8.707   6.996 -0.3624  0.1150 -0.2623
  439MOL0     C59142   1.661   8.755   6.968 -0.5105 -0.9143  0.0482
  439MOL0     C59143   1.734   8.647   6.880 -1.3995  0.4260  0.5299
  439MOL0     C59144   1.883   8.660   6.905  0.2212 -0.2151 -0.1953
  439MOL0     C59145   1.956   8.540   6.847 -0.4688  0.5042  0.3966
  439MOL0     C59146   2.101   8.547   6.889 -0.1647 -1.1476 -0.7887
  439MOL0     N59147   2.175   8.439   6.824 -0.0830 -0.4740  0.0789
  439MOL0     C59148   2.316   8.435   6.796  1.0263 -0.6614  0.1215
  439MOL0     C59149   2.329   8.321   6.720 -0.1243  0.4065 -0.6494
  439MOL0     C59150   2.458   8.268   6.654  0.1970 -0.2732  0.0575
  439MOL0     C59151   2.580   8.276   6.745 -0.0765  0.5803 -0.1748
  439MOL0     C59152   2.695   8.199   6.669  0.2719 -0.4731 -0.0443
  439MOL0     C59153   2.824   8.203   6.750 -0.2380  0.0279 -0.0408
  439MOL0     O59154   2.931   8.177   6.660 -0.0252  0.1824  0.0188
  439MOL0     C59155   3.054   8.145   6.702  0.1566 -1.2702 -0.3890
  439MOL0     C59156   3.104   8.122   6.829  0.4362  0.0499 -0.3804
  439MOL0     C59157   3.236   8.101   6.854  1.1059  0.0597 -0.5966
  439MOL0     C59158   3.322   8.095   6.745 -0.2450 -0.7402  0.1222
  439MOL0     C59159   3.467   8.080   6.773 -0.8367  0.8597 -0.8193
  439MOL0     O59160   3.547   8.069   6.659 -0.3685 -0.3360  0.8640
  439MOL0     C59161   3.663   7.994   6.664  0.3341  0.0987 -0.0260
  439MOL0     C59162   3.788   8.050   6.709 -0.8965  0.0149 -0.2364
  439MOL0     C59163   3.906   7.976   6.709 -0.2194  0.1508 -0.0051
  439MOL0     C59164   3.891   7.838   6.666  1.0174 -0.2176 -0.0023
  439MOL0     O59165   3.994   7.746   6.675  0.5158 -0.6689  0.7997
  439MOL0     C59166   4.124   7.803   6.638  0.5951  0.0728  1.0311
  439MOL0     C59167   4.224   7.766   6.747 -0.1444  0.2894  0.6117
  439MOL0     C59168   4.362   7.736   6.695 -0.5916 -0.0569 -0.0349
  439MOL0     C59169   4.458   7.770   6.809 -0.1969  0.7936  0.1707
  439MOL0     C59170   4.601   7.781   6.759 -0.4784  0.3795  0.4850
  439MOL0     C59171   4.689   7.800   6.885 -0.3078 -0.7762  0.4564
  439MOL0     C59172   4.834   7.838   6.838  0.4128 -0.8912 -0.3682
  439MOL0     C59173   4.856   7.987   6.813  0.3895  0.7301 -0.9903
  439MOL0    Cl59174   5.032   8.024   6.773 -0.2418  0.1232  0.0790
  439MOL0     C59175   3.764   7.791   6.621 -0.1263  0.5106  0.6656
  439MOL0     C59176   3.654   7.868   6.615 -0.1461 -0.2006  0.2651
  439MOL0     O59177   3.516   8.083   6.884  0.4530  0.0365  0.2889
  439MOL0     C59178   3.275   8.102   6.617 -0.0756  0.6375 -0.0322
  439MOL0     C59179   3.142   8.138   6.598  0.1165 -0.2875 -0.2728
  439MOL0     N59180   2.207   8.260   6.704 -0.0725  0.1425 -0.7805
  439MOL0     N59181   2.118   8.335   6.757  0.7929 -1.6002  0.3157
  439MOL0     C59182   1.227   8.420   6.711  0.0904 -0.4698  0.0996
  439MOL0     C59183   1.161   8.303   6.688  0.7127  0.0951  0.3181
  439MOL0     C59184   0.734   8.090   6.561 -0.1930 -0.2412 -0.2702
  439MOL0     C59185   0.796   7.997   6.478  0.3061  0.1250  0.5139
  439MOL0     C59186   0.710   7.913   6.400 -0.1058 -0.8202  0.2331
  439MOL0     C59187   0.573   7.931   6.406  0.0868  0.5881 -1.1046
  439MOL0     O59188   0.499   7.843   6.330 -0.0146 -0.1570 -0.1967
  439MOL0     C59189   0.351   7.840   6.334 -0.1149  0.3212 -0.0354
  439MOL0     C59190   0.304   7.783   6.469 -0.6082 -0.7883 -0.3808
  439MOL0     C59191   0.349   7.642   6.486  0.2167 -0.0719  0.5555
  439MOL0     C59192   0.320   7.579   6.623 -0.5779  0.2750  0.8174
  439MOL0     C59193   0.182   7.591   6.648  1.0837 -1.1037 -1.0646
  439MOL0     C59194   0.067   7.600   6.661  0.4062  0.3501  0.4532
  439MOL0     C59195   0.515   8.028   6.492  0.2262  0.6070  0.8548
  439MOL0     C59196   0.598   8.116   6.557 -0.0734 -0.0995 -0.1825
  439MOL0     C59197   0.536   8.219   6.646  0.3880  0.9376  0.7390
  439MOL0     H59198   0.848   8.434   6.654 -0.9150  0.7468  1.0871
  439MOL0     H59199   0.969   8.639   6.706 -2.0859 -1.2439 -0.0839
  439MOL0     H59200   1.281   8.783   6.919 -0.8802  0.5275 -0.2479
  439MOL0     H59201   1.266   8.613   6.961  2.0457  1.4644  1.4490
  439MOL0     H59202   1.466   8.745   6.793 -2.5222  3.2409  1.8757
  439MOL0     H59203   1.459   8.564   6.843 -2.4698 -1.3339 -0.6826
  439MOL0     H59204   1.534   8.614   7.051  2.1159  0.7241  0.1541
  439MOL0     H59205   1.472   8.787   7.056  1.0869  0.1173  0.8988
  439MOL0     H59206   1.666   8.853   6.921 -0.0130 -1.7129 -1.6176
  439MOL0     H59207   1.711   8.761   7.065  1.6320 -2.9384 -0.8232
  439MOL0     H59208   1.700   8.545   6.901  0.4331 -0.9791 -2.6491
  439MOL0     H59209   1.714   8.663   6.774  1.2758  0.6242 -0.0060
  439MOL0     H59210   1.923   8.747   6.853 -0.7042  1.9537  2.5303
  439MOL0     H59211   1.894   8.668   7.013  0.4361 -1.5265 -0.1016
  439MOL0     H59212   1.940   8.542   6.739 -2.2861 -3.9891  0.3746
  439MOL0     H59213   1.905   8.445   6.865 -2.1127  0.9672 -1.5648
  439MOL0     H59214   2.156   8.638   6.867  2.5720 -1.8406  2.3380
  439MOL0     H59215   2.100   8.536   6.998 -0.5130 -0.6959 -0.7419
  439MOL0     H59216   2.385   8.514   6.821 -2.3243  2.7876 -0.5856
  439MOL0     H59217   2.436   8.170   6.611 -2.4461  1.5274 -3.1900
  439MOL0     H59218   2.473   8.344   6.576  0.4275  1.1854  1.4768
  439MOL0     H59219   2.600   8.383   6.752  0.3813  0.5447 -0.9163
  439MOL0     H59220   2.565   8.229   6.843 -0.9143 -0.1704 -0.6449
  439MOL0     H59221   2.712   8.245   6.571 -2.8360  1.6924  0.2901
  439MOL0     H59222   2.662   8.096   6.657  1.3757 -0.8383 -0.1009
  439MOL0     H59223   2.824   8.139   6.838 -0.6579  3.1118  2.3487
  439MOL0     H59224   2.840   8.304   6.788 -4.3106  0.8635 -0.1473
  439MOL0     H59225   3.030   8.126   6.908  0.0025 -1.8033 -0.6466
  439MOL0     H59226   3.274   8.087   6.955 -1.7010 -4.2877  0.1641
  439MOL0     H59227   3.790   8.158   6.726 -1.7949  0.2989 -1.7388
  439MOL0     H59228   4.005   8.011   6.738 -0.0683 -0.8361  0.7161
  439MOL0     H59229   4.150   7.754   6.544 -0.8718 -0.2556  0.7729
  439MOL0     H59230   4.125   7.912   6.629  0.7381  0.0539  0.8199
  439MOL0     H59231   4.222   7.844   6.825  4.7895  0.3532  0.9383
  439MOL0     H59232   4.176   7.672   6.776  0.1432  0.4085  1.5130
  439MOL0     H59233   4.372   7.635   6.653 -0.7598  0.8438 -2.3645
  439MOL0     H59234   4.397   7.795   6.610 -1.0916 -0.4012 -0.4877
  439MOL0     H59235   4.443   7.686   6.878 -1.9788  2.1742  1.5808
  439MOL0     H59236   4.430   7.863   6.859 -2.0952  1.7684 -2.5036
  439MOL0     H59237   4.619   7.862   6.688  2.2015  0.8404  1.5805
  439MOL0     H59238   4.633   7.699   6.693  3.7044  2.2335 -0.1041
  439MOL0     H59239   4.651   7.882   6.946 -3.5217  0.8648 -3.3405
  439MOL0     H59240   4.691   7.706   6.941 -1.8434 -0.3510  1.2885
  439MOL0     H59241   4.867   7.776   6.753 -0.7866  2.7158 -3.7540
  439MOL0     H59242   4.894   7.815   6.927 -1.6278 -2.8791  0.5948
  439MOL0     H59243   4.795   8.021   6.730  0.8323  1.2766 -1.0975
  439MOL0     H59244   4.825   8.048   6.899  1.0708  2.1396 -1.7165
  439MOL0     H59245   3.764   7.691   6.578 -1.5999  0.6180  0.3729
  439MOL0     H59246   3.559   7.824   6.585  2.1813 -4.0697 -2.3358
  439MOL0     H59247   3.348   8.079   6.540 -0.1459  1.5109 -0.3661
  439MOL0     H59248   3.095   8.143   6.500 -0.2457  5.3448 -0.1262
  439MOL0     H59249   1.335   8.418   6.706  0.0586 -2.3722 -0.6688
  439MOL0     H59250   1.209   8.206   6.690 -0.8737 -0.7199  0.9303
  439MOL0     H59251   0.905   7.994   6.477  0.3827 -0.0829 -3.0274
  439MOL0     H59252   0.762   7.832   6.350  0.8478  0.8297 -1.6156
  439MOL0     H59253   0.311   7.771   6.259 -1.3626 -0.6719  1.4825
  439MOL0     H59254   0.329   7.946   6.319 -2.5001 -0.1096 -0.0337
  439MOL0     H59255   0.196   7.796   6.467 -0.3818  1.4592 -0.6922
  439MOL0     H59256   0.356   7.832   6.552 -1.4582 -1.4107  0.5325
  439MOL0     H59257   0.458   7.639   6.475  0.0268  0.4810 -2.1100
  439MOL0     H59258   0.319   7.587   6.397  1.1424  0.0760  0.1364
  439MOL0     H59259   0.344   7.472   6.624 -2.3848 -0.1612  0.5757
  439MOL0     H59260   0.377   7.639   6.694  0.4687  0.8512 -0.4810
  439MOL0     H59261  -0.040   7.599   6.663  0.3889  1.4675  0.6867
  439MOL0     H59262   0.408   8.044   6.501  0.3059  0.6541  1.9019
  439MOL0     H59263   0.428   8.228   6.628  0.2172 -0.4697  0.9560
  439MOL0     H59264   0.538   8.197   6.753 -2.3242  0.6286  0.8100
  439MOL0     H59265   0.572   8.318   6.618 -0.9557  0.7349 -2.0925
  440MOL0     O59266   2.334   6.867   0.054  0.0023  0.0748  0.9163
  440MOL0     C59267   2.400   6.962   0.002  0.4293 -1.1588  0.0985
  440MOL0     O59268   2.503   6.942  -0.081  0.3329  0.0540 -0.0656
  440MOL0     C59269   2.557   6.826  -0.139  0.4392  0.1191 -0.2811
  440MOL0     C59270   2.485   6.701  -0.141  0.3178  0.0056  0.7233
  440MOL0     C59271   2.556   6.586  -0.188 -0.1178 -0.7494  0.7313
  440MOL0     C59272   2.686   6.590  -0.236 -0.4207  0.2717 -0.0887
  440MOL0     O59273   2.737   6.465  -0.279  0.5215  0.1617 -0.2443
  440MOL0     C59274   2.876   6.458  -0.306  0.0191 -0.2486 -0.2978
  440MOL0     C59275   2.913   6.458  -0.457  0.3327 -0.2346 -0.1121
  440MOL0     C59276   3.063   6.465  -0.466 -0.4651 -0.3420 -0.2846
  440MOL0     C59277   3.110   6.616  -0.492  0.5200 -0.3157  0.6379
  440MOL0     C59278   3.262   6.618  -0.506 -0.9567  0.6595 -0.1395
  440MOL0     C59279   3.314   6.759  -0.539 -0.1321 -0.1447  0.1626
  440MOL0     C59280   3.460   6.787  -0.514  0.8001  1.0375  0.1218
  440MOL0     C59281   3.555   6.737  -0.617  0.1583 -0.0373 -0.7115
  440MOL0     N59282   3.693   6.752  -0.564  0.8978 -0.3166  0.7864
  440MOL0     C59283   3.802   6.690  -0.613  0.0101 -0.2307  0.2042
  440MOL0     C59284   3.897   6.720  -0.524 -0.2715  0.1862 -0.0003
  440MOL0     C59285   4.036   6.669  -0.521 -0.1707  0.2604  0.6220
  440MOL0     C59286   4.114   6.747  -0.635 -0.5770  0.5589  0.9806
  440MOL0     C59287   4.133   6.885  -0.586 -1.0097 -1.1055 -0.3991
  440MOL0     C59288   4.279   6.926  -0.555 -0.0935  0.4308 -0.3586
  440MOL0     O59289   4.366   6.904  -0.672 -0.5897 -0.7614 -0.1555
  440MOL0     C59290   4.502   6.921  -0.656 -0.4950 -0.5491 -0.9629
  440MOL0     C59291   4.576   6.952  -0.765 -0.5801  0.2740 -0.0900
  440MOL0     C59292   4.716   6.965  -0.757  0.7738  0.3605 -0.1144
  440MOL0     C59293   4.786   6.955  -0.638 -0.1995  0.0175 -0.7648
  440MOL0     C59294   4.928   6.943  -0.626 -0.7129 -0.9920  0.3162
  440MOL0     O59295   4.996   6.956  -0.746  0.1726 -0.2221  0.1182
  440MOL0     C59296   5.125   6.919  -0.762 -0.3387  0.2806 -0.6346
  440MOL0     C59297   5.200   6.974  -0.866  0.5212 -0.5890 -0.6038
  440MOL0     C59298   5.330   6.948  -0.896  0.4684 -1.3715  0.1159
  440MOL0     C59299   5.394   6.850  -0.823 -0.4700  0.8086  1.0950
  440MOL0     O59300   5.528   6.821  -0.862  0.6406 -0.2068  0.3057
  440MOL0     C59301   5.580   6.687  -0.838 -0.3188  0.3558  0.0312
  440MOL0     C59302   5.688   6.665  -0.948  1.0736 -0.4906  0.3376
  440MOL0     C59303   5.809   6.749  -0.923 -0.6768 -0.3630  0.4394
  440MOL0     C59304   5.921   6.720  -1.015 -0.0114 -0.1099  0.4583
  440MOL0     C59305   6.047   6.796  -0.965  0.0859  0.4043 -0.1638
  440MOL0     C59306   6.161   6.792  -1.073 -0.3504 -0.3503 -0.5208
  440MOL0     C59307   6.285   6.865  -1.033 -0.0869 -0.3869 -0.2419
  440MOL0     C59308   6.364   6.924  -1.146 -0.5899  0.2716 -0.5406
  440MOL0    Cl59309   6.450   6.794  -1.235  0.1305 -0.1860 -0.7824
  440MOL0     C59310   5.338   6.791  -0.709  0.3899  0.8708 -0.0832
  440MOL0     C59311   5.202   6.832  -0.684 -0.2488  0.0852 -1.1479
  440MOL0     O59312   4.977   6.915  -0.514  0.2015 -0.8006 -1.0835
  440MOL0     C59313   4.711   6.946  -0.517 -0.1579  0.5961  0.2248
  440MOL0     C59314   4.571   6.925  -0.531  0.1333  0.1258 -0.9824
  440MOL0     N59315   3.851   6.798  -0.416  0.6693 -0.0782  0.2435
  440MOL0     N59316   3.729   6.820  -0.449 -0.4805  0.8021  0.4414
  440MOL0     C59317   2.750   6.717  -0.245  0.2784  0.3111 -0.0863
  440MOL0     C59318   2.686   6.831  -0.186  0.1723 -0.1764 -0.4169
  440MOL0     C59319   2.355   7.106   0.017 -1.0208 -0.1940  0.4017
  440MOL0     C59320   2.219   7.126   0.056 -0.0104 -0.4746  0.1017
  440MOL0     C59321   2.168   7.251   0.057 -0.1937  0.2934 -0.0950
  440MOL0     C59322   2.249   7.363   0.022  0.3850 -0.2189 -0.2939
  440MOL0     O59323   2.206   7.494   0.011 -0.5162 -0.3547 -0.1134
  440MOL0     C59324   2.084   7.528   0.080  0.0941 -0.0743  0.5565
  440MOL0     C59325   1.975   7.497  -0.029  0.3786 -0.3290 -0.6183
  440MOL0     C59326   1.835   7.514   0.023 -0.8154 -0.7158 -0.0555
  440MOL0     C59327   1.741   7.536  -0.095  0.6085  0.3401  0.2295
  440MOL0     C59328   1.607   7.528  -0.043  0.4646  0.2129 -0.0214
  440MOL0     C59329   1.486   7.525  -0.006 -0.7006  0.4529 -0.2157
  440MOL0     C59330   2.377   7.341  -0.013  0.0436 -0.3107  0.4697
  440MOL0     C59331   2.435   7.219  -0.020 -1.0178 -0.5999  0.0495
  440MOL0     C59332   2.578   7.215  -0.067  0.1782 -0.0112  0.3458
  440MOL0     H59333   2.379   6.688  -0.121 -0.4343  3.3053 -0.3500
  440MOL0     H59334   2.513   6.486  -0.186  2.4314 -1.9478  0.0854
  440MOL0     H59335   2.936   6.540  -0.263 -0.0394  0.5326 -1.6664
  440MOL0     H59336   2.923   6.370  -0.261 -0.4022  0.2362  1.1491
  440MOL0     H59337   2.874   6.547  -0.506 -0.9167 -0.8391 -0.2474
  440MOL0     H59338   2.874   6.365  -0.500 -1.3587 -1.0169  2.8332
  440MOL0     H59339   3.100   6.408  -0.551  0.7902 -0.2044  0.1533
  440MOL0     H59340   3.125   6.434  -0.381  3.0904  1.1353 -2.1350
  440MOL0     H59341   3.064   6.654  -0.584 -0.5871 -1.9521  0.4751
  440MOL0     H59342   3.081   6.666  -0.399  0.5514 -2.8602  2.0985
  440MOL0     H59343   3.308   6.568  -0.420  1.9724  3.7956  0.2911
  440MOL0     H59344   3.283   6.558  -0.595  1.3914  1.9775 -0.5425
  440MOL0     H59345   3.292   6.780  -0.644 -3.9950 -2.6554  0.2708
  440MOL0     H59346   3.251   6.822  -0.476 -1.9452 -0.1813 -1.5056
  440MOL0     H59347   3.472   6.734  -0.420 -1.7800  0.4423  0.1646
  440MOL0     H59348   3.477   6.894  -0.495  0.7929  0.4888  3.8681
  440MOL0     H59349   3.533   6.633  -0.643  2.2380 -0.3301 -1.5173
  440MOL0     H59350   3.549   6.795  -0.709  0.0144 -1.5870 -1.7173
  440MOL0     H59351   3.806   6.627  -0.702 -0.8384 -0.2338  0.1650
  440MOL0     H59352   4.080   6.673  -0.421 -0.1346  1.4415  0.5800
  440MOL0     H59353   4.025   6.562  -0.540  0.4654  0.3478 -0.2897
  440MOL0     H59354   4.213   6.702  -0.650 -0.1124  2.4997 -3.4583
  440MOL0     H59355   4.064   6.749  -0.733 -0.0987  3.5605  0.6966
  440MOL0     H59356   4.095   6.899  -0.484 -0.7404 -0.4573 -0.3863
  440MOL0     H59357   4.091   6.966  -0.646  1.2939  1.1016  0.7958
  440MOL0     H59358   4.313   6.863  -0.473 -0.6297  2.1556  1.2731
  440MOL0     H59359   4.267   7.029  -0.519 -0.9917  0.4716 -0.7495
  440MOL0     H59360   4.524   6.968  -0.859  1.0611 -1.8871 -1.4528
  440MOL0     H59361   4.770   6.980  -0.850 -0.1823  0.9650 -0.5919
  440MOL0     H59362   5.145   7.039  -0.933 -3.0962 -3.0251 -0.2518
  440MOL0     H59363   5.381   6.997  -0.979 -0.6512  0.7999  0.6460
  440MOL0     H59364   5.620   6.683  -0.736 -0.4801  3.5283  0.3178
  440MOL0     H59365   5.500   6.615  -0.858  0.2610 -0.1115 -0.6562
  440MOL0     H59366   5.713   6.559  -0.947 -1.5727 -1.1855  1.8191
  440MOL0     H59367   5.630   6.695  -1.036  2.0786 -1.9322 -0.8730
  440MOL0     H59368   5.782   6.855  -0.914 -0.9697 -0.5086  1.3923
  440MOL0     H59369   5.834   6.721  -0.820 -0.9839 -0.0548  0.6018
  440MOL0     H59370   5.891   6.763  -1.111  0.1431  1.7730  1.1959
  440MOL0     H59371   5.946   6.614  -1.025 -0.3518 -0.1407 -0.1489
  440MOL0     H59372   6.080   6.738  -0.879 -1.7030 -0.3117  0.0685
  440MOL0     H59373   6.022   6.898  -0.933 -4.4930  0.0232 -1.8185
  440MOL0     H59374   6.196   6.691  -1.092  1.7255  0.5325 -1.6871
  440MOL0     H59375   6.118   6.839  -1.163 -1.6723  0.5550  0.5291
  440MOL0     H59376   6.341   6.805  -0.961  0.1688 -1.0709 -0.9916
  440MOL0     H59377   6.256   6.953  -0.975 -0.7588 -1.3525  0.9443
  440MOL0     H59378   6.309   6.988  -1.215 -1.9174  0.0038  0.2330
  440MOL0     H59379   6.439   6.989  -1.100 -1.6269  0.7123  0.5756
  440MOL0     H59380   5.391   6.722  -0.644  5.1910  3.3555 -0.8361
  440MOL0     H59381   5.160   6.785  -0.596 -2.6741  2.4399 -0.9135
  440MOL0     H59382   4.754   6.932  -0.418 -3.4230  0.0291  1.7097
  440MOL0     H59383   4.534   6.909  -0.430 -0.5116 -0.0103 -1.2352
  440MOL0     H59384   2.843   6.731  -0.299  1.2615 -1.2428  1.1052
  440MOL0     H59385   2.733   6.929  -0.184  0.4937 -0.3415  0.8563
  440MOL0     H59386   2.153   7.040   0.060 -0.9880  0.2605  0.0621
  440MOL0     H59387   2.061   7.251   0.075 -0.6078 -0.1152 -2.3121
  440MOL0     H59388   2.089   7.636   0.099  0.4411 -0.0766  0.4949
  440MOL0     H59389   2.066   7.470   0.171 -2.1425 -3.2221 -1.7013
  440MOL0     H59390   1.990   7.394  -0.064  0.6546 -0.5362  0.0945
  440MOL0     H59391   1.997   7.562  -0.114  0.1369  1.8770  0.9249
  440MOL0     H59392   1.826   7.611   0.072 -2.7771  0.7587 -3.0168
  440MOL0     H59393   1.813   7.423   0.079 -0.4417 -1.5294 -1.1919
  440MOL0     H59394   1.755   7.636  -0.138 -1.1400  0.3086 -0.5056
  440MOL0     H59395   1.747   7.458  -0.171 -0.5834  0.2735  0.1886
  440MOL0     H59396   1.382   7.518   0.016 -0.6519  1.6247  0.4290
  440MOL0     H59397   2.428   7.435  -0.034 -1.8021  0.6996  0.3152
  440MOL0     H59398   2.620   7.316  -0.070 -2.7803  1.3042 -1.1210
  440MOL0     H59399   2.642   7.148  -0.009  1.1601  0.5763 -0.0196
  440MOL0     H59400   2.570   7.192  -0.173  3.3075  0.5017 -0.1174
  441MOL0     O59401  10.444   1.321   8.004  0.0769 -0.0868  0.1906
  441MOL0     C59402  10.421   1.388   8.104  0.4369  0.1661  0.5806
  441MOL0     O59403  10.491   1.386   8.216  0.0798 -0.1180 -0.4681
  441MOL0     C59404  10.623   1.345   8.191 -0.0049 -1.1871 -0.0769
  441MOL0     C59405  10.654   1.203   8.200  0.1141 -0.5961 -0.2501
  441MOL0     C59406  10.779   1.160   8.154 -0.0472 -0.6722  0.3113
  441MOL0     C59407  10.873   1.260   8.108  0.4699 -0.5875 -0.5220
  441MOL0     O59408  10.996   1.230   8.060 -0.4635  0.4330 -0.8652
  441MOL0     C59409  11.004   1.107   7.973 -0.0947 -0.2663  0.0989
  441MOL0     C59410  11.074   0.989   8.051 -0.9559  1.1746 -0.2871
  441MOL0     C59411  11.229   0.971   8.013  0.1174 -0.5521  0.0182
  441MOL0     C59412  11.285   0.865   8.108 -0.0058 -0.5661  0.7675
  441MOL0     C59413  11.429   0.886   8.143  0.0317  0.2046 -0.8410
  441MOL0     C59414  11.521   0.855   8.027  0.2692 -0.3605  0.3166
  441MOL0     C59415  11.673   0.869   8.054  0.5193 -0.0817  0.8705
  441MOL0     C59416  11.756   0.893   7.924  0.8181 -0.8813 -1.3237
  441MOL0     N59417  11.763   0.775   7.836  0.5756 -0.0291 -0.0114
  441MOL0     C59418  11.830   0.668   7.876 -0.1567 -0.4299  0.8170
  441MOL0     C59419  11.805   0.563   7.788 -0.4893  0.3372 -0.4443
  441MOL0     C59420  11.848   0.417   7.786  0.4954  0.1888 -0.4426
  441MOL0     C59421  11.956   0.388   7.894  1.0603  0.4211 -0.2670
  441MOL0     C59422  12.095   0.436   7.865  0.2112 -0.5081  1.0616
  441MOL0     C59423  12.175   0.437   7.992 -0.1913 -1.0420 -0.0224
  441MOL0     O59424  12.314   0.462   7.951  0.0216 -0.1401 -0.6040
  441MOL0     C59425  12.411   0.456   8.046 -0.2131 -0.0526 -0.0694
  441MOL0     C59426  12.534   0.523   8.026 -0.9045 -0.7708 -0.4448
  441MOL0     C59427  12.634   0.528   8.128  0.2776 -0.5335  0.2175
  441MOL0     C59428  12.623   0.469   8.255  0.5273  0.3393 -0.1521
  441MOL0     C59429  12.730   0.462   8.351 -0.8188  0.2061 -0.3535
  441MOL0     O59430  12.689   0.412   8.478  0.0120  0.6423 -0.2951
  441MOL0     C59431  12.771   0.415   8.588 -0.0773 -0.9735  0.8318
  441MOL0     C59432  12.896   0.351   8.591 -0.2307  0.1385 -0.2019
  441MOL0     C59433  12.974   0.353   8.711 -0.3015 -0.9300  0.9270
  441MOL0     C59434  12.933   0.415   8.824 -0.7040 -0.9766 -0.0554
  441MOL0     O59435  13.010   0.422   8.938 -0.1123  0.3356  0.2599
  441MOL0     C59436  13.065   0.294   8.969  0.7505  0.1392 -0.2858
  441MOL0     C59437  13.135   0.300   9.110  0.3655  0.5826 -0.3931
  441MOL0     C59438  13.210   0.167   9.116  0.0965 -0.3018  0.3703
  441MOL0     C59439  13.284   0.137   9.253  0.1524  0.2956  0.4026
  441MOL0     C59440  13.355  -0.001   9.237 -0.3981  0.1697 -0.2418
  441MOL0     C59441  13.437  -0.038   9.355  1.1950 -0.2157 -0.6898
  441MOL0     C59442  13.474  -0.188   9.346 -0.0693  0.4204 -0.7081
  441MOL0     C59443  13.573  -0.220   9.455 -0.0071  0.5827 -0.5615
  441MOL0    Cl59444  13.744  -0.147   9.429 -0.3475 -0.1866  0.5093
  441MOL0     C59445  12.810   0.481   8.820  0.5959  0.3037 -0.5586
  441MOL0     C59446  12.728   0.487   8.701  0.8403  1.0590 -0.1775
  441MOL0     O59447  12.844   0.488   8.327 -0.8334 -0.1189 -0.1950
  441MOL0     C59448  12.503   0.400   8.269 -0.3673 -0.7252  0.0743
  441MOL0     C59449  12.405   0.396   8.171  0.3549  0.1715  0.2018
  441MOL0     N59450  11.717   0.615   7.699  0.2997  0.5003  0.3736
  441MOL0     N59451  11.695   0.744   7.720 -0.3056 -0.4936 -0.8965
  441MOL0     C59452  10.838   1.403   8.100 -0.1530  0.8012 -0.1279
  441MOL0     C59453  10.715   1.444   8.153 -0.4425  0.3212 -0.2076
  441MOL0     C59454  10.300   1.473   8.104  0.7688  0.5185 -0.7350
  441MOL0     C59455  10.228   1.494   8.231 -0.1311 -0.7580 -0.0692
  441MOL0     C59456  10.100   1.553   8.240  0.6137  0.0459  0.3147
  441MOL0     C59457  10.031   1.593   8.124  1.0670  0.0076 -0.2187
  441MOL0     O59458   9.905   1.644   8.116  0.4241 -0.2950 -0.2985
  441MOL0     C59459   9.810   1.625   8.223  0.1222 -0.4120  0.5098
  441MOL0     C59460   9.766   1.482   8.245 -0.1654 -0.0433  0.0223
  441MOL0     C59461   9.654   1.448   8.150 -0.3080  1.2027 -0.3701
  441MOL0     C59462   9.584   1.317   8.201 -0.5442 -0.3103 -0.8492
  441MOL0     C59463   9.681   1.211   8.230 -0.2380 -0.1905  0.0475
  441MOL0     C59464   9.753   1.120   8.263  0.0111 -0.0531 -0.5605
  441MOL0     C59465  10.102   1.587   8.001 -0.1853  0.5633  0.0779
  441MOL0     C59466  10.233   1.523   7.989 -0.1966  0.2357  1.1249
  441MOL0     C59467  10.281   1.509   7.843 -0.1127  0.5226 -0.5345
  441MOL0     H59468  10.572   1.142   8.236  0.4251 -1.9764 -1.7573
  441MOL0     H59469  10.794   1.054   8.169  0.0909 -0.5738  0.9064
  441MOL0     H59470  10.902   1.083   7.940 -1.6947  0.4767  4.0110
  441MOL0     H59471  11.074   1.123   7.891 -1.7936 -1.8973 -1.8133
  441MOL0     H59472  11.023   0.897   8.022  0.9376  0.1753 -0.5941
  441MOL0     H59473  11.053   1.003   8.157 -0.6381 -0.8301  0.0778
  441MOL0     H59474  11.283   1.065   8.018 -1.0176  0.1186  0.1404
  441MOL0     H59475  11.238   0.943   7.908  0.9408  1.6539 -0.5309
  441MOL0     H59476  11.229   0.863   8.201  1.4269 -0.1571  1.6663
  441MOL0     H59477  11.269   0.769   8.058 -0.7264 -0.6086  1.0761
  441MOL0     H59478  11.451   0.988   8.177  0.3000 -0.4269  1.0375
  441MOL0     H59479  11.456   0.815   8.222  0.2081  1.3946  0.2159
  441MOL0     H59480  11.507   0.755   7.986 -1.8876  0.3164 -0.7363
  441MOL0     H59481  11.509   0.923   7.942  1.2332 -0.1945  0.3019
  441MOL0     H59482  11.711   0.777   8.099 -0.1718  0.0145  1.6831
  441MOL0     H59483  11.695   0.960   8.111  0.2614  0.0366  0.7828
  441MOL0     H59484  11.707   0.964   7.857  1.3675 -0.6637 -1.4995
  441MOL0     H59485  11.854   0.927   7.960 -0.3375 -0.2663  1.5521
  441MOL0     H59486  11.888   0.661   7.968  1.4955  3.3547  0.2644
  441MOL0     H59487  11.760   0.360   7.815  1.1978  1.1261  4.5108
  441MOL0     H59488  11.894   0.394   7.690  2.2695  2.5198 -0.2534
  441MOL0     H59489  11.920   0.421   7.992  0.6703 -0.9247  0.0537
  441MOL0     H59490  11.957   0.279   7.896  0.0932  0.3545 -1.9554
  441MOL0     H59491  12.086   0.534   7.816  3.6274 -2.0966 -3.4956
  441MOL0     H59492  12.141   0.376   7.786  3.1016  0.8678  1.5596
  441MOL0     H59493  12.172   0.340   8.042  1.1185 -1.0852  0.0057
  441MOL0     H59494  12.132   0.499   8.071 -0.8801 -0.4224 -0.8540
  441MOL0     H59495  12.547   0.563   7.926 -1.4937 -3.4360 -1.6979
  441MOL0     H59496  12.716   0.596   8.112 -0.5793 -0.1742 -3.9149
  441MOL0     H59497  12.929   0.294   8.506  1.7120 -0.9633  1.2117
  441MOL0     H59498  13.067   0.299   8.698 -1.1196 -2.0442 -0.7621
  441MOL0     H59499  12.987   0.218   8.964  1.6810 -0.7859 -1.0698
  441MOL0     H59500  13.140   0.275   8.892  0.3829 -1.0270 -0.3710
  441MOL0     H59501  13.196   0.391   9.109  1.0443  0.1956  1.6200
  441MOL0     H59502  13.074   0.305   9.200  1.1748 -0.6762  0.2646
  441MOL0     H59503  13.141   0.084   9.096 -0.0136 -0.2948  0.7200
  441MOL0     H59504  13.293   0.161   9.045  0.8672 -2.5803  1.3617
  441MOL0     H59505  13.223   0.134   9.344 -0.2249 -1.0039  0.1221
  441MOL0     H59506  13.363   0.211   9.267 -0.9256  1.6746 -0.6217
  441MOL0     H59507  13.424   0.003   9.153 -0.4816 -2.5073 -0.5096
  441MOL0     H59508  13.279  -0.078   9.222 -0.9203  0.7642 -0.7450
  441MOL0     H59509  13.527   0.020   9.374  0.2729  0.6690  1.3039
  441MOL0     H59510  13.376  -0.017   9.443  0.1207 -0.2547 -1.4041
  441MOL0     H59511  13.514  -0.214   9.248  0.7956  0.6065 -0.4100
  441MOL0     H59512  13.381  -0.246   9.356 -0.7051  0.3784 -4.9378
  441MOL0     H59513  13.532  -0.193   9.553  0.4782 -1.4201  0.2343
  441MOL0     H59514  13.586  -0.328   9.459  1.1981  0.7720  1.7469
  441MOL0     H59515  12.782   0.528   8.914 -0.0231  0.3329 -0.7538
  441MOL0     H59516  12.632   0.537   8.687 -0.9150 -2.3892 -1.5973
  441MOL0     H59517  12.492   0.330   8.351  2.6437 -1.3173  0.0865
  441MOL0     H59518  12.309   0.357   8.203  1.0325 -1.4949  0.2816
  441MOL0     H59519  10.902   1.484   8.065 -1.4133  2.1163  0.5210
  441MOL0     H59520  10.681   1.546   8.159 -2.4692 -0.3731  1.1004
  441MOL0     H59521  10.270   1.447   8.319 -1.7407 -2.2399 -0.0493
  441MOL0     H59522  10.054   1.547   8.337 -0.7564 -2.7842 -0.3895
  441MOL0     H59523   9.722   1.686   8.199  0.9444  1.0569  1.1026
  441MOL0     H59524   9.859   1.662   8.314 -2.7398  1.1011  1.5724
  441MOL0     H59525   9.722   1.485   8.345 -2.9365  1.6670 -1.1212
  441MOL0     H59526   9.851   1.414   8.234 -0.7061 -0.4330 -2.0710
  441MOL0     H59527   9.683   1.423   8.047 -1.6393 -1.0292 -0.2762
  441MOL0     H59528   9.578   1.526   8.144  1.3090  2.9312  0.5956
  441MOL0     H59529   9.539   1.343   8.297  1.9234  1.9091 -0.1968
  441MOL0     H59530   9.498   1.281   8.143  0.1997  0.6171 -2.5973
  441MOL0     H59531   9.814   1.035   8.288 -0.2232 -0.2954 -0.8101
  441MOL0     H59532  10.051   1.609   7.907  0.0120  2.6204  0.3993
  441MOL0     H59533  10.252   1.410   7.808  2.0508 -0.1349 -0.6365
  441MOL0     H59534  10.226   1.586   7.789 -1.2331  0.4887  0.5007
  441MOL0     H59535  10.387   1.535   7.832  1.1783 -3.2188  1.2813
  442MOL0     O59536   5.906   1.031   2.217  1.1648  0.2565 -0.2912
  442MOL0     C59537   5.889   0.944   2.303  0.1386 -0.8958  0.0277
  442MOL0     O59538   5.997   0.870   2.354 -0.1212 -0.4150 -0.1480
  442MOL0     C59539   6.126   0.906   2.326  0.3535 -0.1626 -0.5086
  442MOL0     C59540   6.184   0.931   2.199  0.1437 -1.0548  0.2532
  442MOL0     C59541   6.319   0.958   2.190  0.0979  0.5079 -0.3254
  442MOL0     C59542   6.394   0.982   2.308 -0.6903  0.0789  0.4874
  442MOL0     O59543   6.526   1.005   2.294 -0.4892 -0.1894  0.3513
  442MOL0     C59544   6.610   0.888   2.299  0.2550 -0.5679 -0.1147
  442MOL0     C59545   6.753   0.926   2.338 -0.0594  0.0355  0.9525
  442MOL0     C59546   6.817   1.000   2.218 -0.7466  1.2972  0.2189
  442MOL0     C59547   6.948   1.069   2.246 -0.3194 -0.3548 -0.5746
  442MOL0     C59548   7.018   1.107   2.112 -0.1102  0.1778  0.5373
  442MOL0     C59549   7.165   1.149   2.140 -0.4452  0.3926  0.9089
  442MOL0     C59550   7.219   1.255   2.045  0.0713  0.3110  0.1405
  442MOL0     C59551   7.356   1.291   2.082 -0.6114  0.7447  0.4628
  442MOL0     N59552   7.407   1.359   1.961  0.0348 -0.4754  0.4574
  442MOL0     C59553   7.493   1.297   1.879 -0.6624  0.6281 -0.7514
  442MOL0     C59554   7.531   1.383   1.786 -0.6058  0.5820  0.2231
  442MOL0     C59555   7.625   1.349   1.672 -0.4562  0.4849  0.9153
  442MOL0     C59556   7.766   1.363   1.720  0.0454  0.1217 -0.1616
  442MOL0     C59557   7.861   1.343   1.604 -1.3426 -0.1682 -0.4973
  442MOL0     C59558   7.974   1.446   1.590 -0.2129 -0.1974 -0.1208
  442MOL0     O59559   8.078   1.434   1.687  0.2471  0.5032 -0.2218
  442MOL0     C59560   8.191   1.359   1.670 -0.1993  0.8458  0.2648
  442MOL0     C59561   8.300   1.385   1.758  0.6396  0.9933  0.3642
  442MOL0     C59562   8.422   1.318   1.720  0.1232 -0.2590  0.2254
  442MOL0     C59563   8.425   1.216   1.623  0.4074 -0.3843 -0.5654
  442MOL0     C59564   8.552   1.148   1.588  0.3619  0.1130 -0.1646
  442MOL0     O59565   8.561   1.084   1.470 -0.1110  0.3006 -0.1852
  442MOL0     C59566   8.683   1.017   1.455 -0.3318  0.6180  0.0360
  442MOL0     C59567   8.794   1.088   1.407 -0.4526 -0.1125 -0.2645
  442MOL0     C59568   8.904   1.014   1.371  0.7191  0.0099 -0.0897
  442MOL0     C59569   8.910   0.873   1.382  0.1738 -0.4750  0.3853
  442MOL0     O59570   9.024   0.806   1.333  0.5132 -1.1870  0.4256
  442MOL0     C59571   9.122   0.804   1.435 -0.2212 -0.4753  0.0023
  442MOL0     C59572   9.227   0.706   1.405  0.6250  0.6798  0.3157
  442MOL0     C59573   9.192   0.552   1.426 -0.0120 -0.5432 -0.5239
  442MOL0     C59574   9.322   0.477   1.432  0.0044  0.8027  0.8610
  442MOL0     C59575   9.392   0.474   1.568 -0.1766  0.0200 -0.7250
  442MOL0     C59576   9.325   0.378   1.657  0.1617  0.3274 -0.0691
  442MOL0     C59577   9.378   0.364   1.800 -0.5360 -0.1160 -0.2735
  442MOL0     C59578   9.500   0.281   1.814  0.3996  0.1086 -0.6046
  442MOL0    Cl59579   9.457   0.116   1.815  0.1910  0.2608  0.2967
  442MOL0     C59580   8.791   0.804   1.419  0.3250 -0.6699 -0.4259
  442MOL0     C59581   8.679   0.877   1.458  0.3298 -0.2207  0.0514
  442MOL0     O59582   8.634   1.150   1.683 -0.2573  0.8315  0.1942
  442MOL0     C59583   8.313   1.182   1.550 -0.1899  0.0754  0.3050
  442MOL0     C59584   8.199   1.258   1.570 -0.1364 -0.9146  0.2509
  442MOL0     N59585   7.449   1.495   1.805 -0.6050 -0.2613 -0.3711
  442MOL0     N59586   7.369   1.479   1.906  0.9628  0.6647 -0.3348
  442MOL0     C59587   6.339   0.967   2.436  0.0597  0.1874 -0.0621
  442MOL0     C59588   6.206   0.928   2.445 -0.3313 -0.0822 -0.2364
  442MOL0     C59589   5.749   0.908   2.331 -1.0131  0.1911 -0.2306
  442MOL0     C59590   5.740   0.800   2.423  0.0772 -0.5585 -0.5811
  442MOL0     C59591   5.614   0.751   2.470 -1.3353  0.5772 -0.5170
  442MOL0     C59592   5.493   0.815   2.435 -0.0242  0.5846  0.1784
  442MOL0     O59593   5.373   0.768   2.482  0.9870  0.4278 -0.0489
  442MOL0     C59594   5.353   0.704   2.601 -0.4577 -0.7326  0.0312
  442MOL0     C59595   5.211   0.646   2.614  0.6118  0.2972 -0.0561
  442MOL0     C59596   5.091   0.739   2.644  0.1158 -0.2490  0.2517
  442MOL0     C59597   5.076   0.843   2.541  0.0273  0.0296  0.2950
  442MOL0     C59598   4.956   0.922   2.580  0.4855  0.6202 -0.6245
  442MOL0     C59599   4.867   0.995   2.614 -0.4400 -0.2010 -1.1362
  442MOL0     C59600   5.501   0.913   2.337  0.4283  1.1274  0.0517
  442MOL0     C59601   5.623   0.964   2.283 -0.0404  1.1046 -0.1546
  442MOL0     C59602   5.615   1.055   2.167 -0.0230 -0.0702  0.4777
  442MOL0     H59603   6.118   0.920   2.113 -0.5695 -0.9551  0.7782
  442MOL0     H59604   6.359   0.973   2.090  2.7018 -2.2496  0.1682
  442MOL0     H59605   6.576   0.823   2.381 -2.4432  0.3996 -0.3765
  442MOL0     H59606   6.614   0.849   2.197 -1.4535  0.9945 -0.8417
  442MOL0     H59607   6.813   0.835   2.351  2.1829  0.7286 -2.9976
  442MOL0     H59608   6.739   0.994   2.422 -2.7362  1.3896 -0.4773
  442MOL0     H59609   6.748   1.073   2.177 -1.5439  0.0875 -0.6717
  442MOL0     H59610   6.822   0.929   2.135 -4.1483 -1.2234  1.8934
  442MOL0     H59611   6.919   1.156   2.305  1.1527  0.5869 -1.1641
  442MOL0     H59612   7.012   1.000   2.302  1.3041  1.8726  0.4864
  442MOL0     H59613   7.018   1.027   2.037  2.9831 -0.7199  1.3478
  442MOL0     H59614   6.967   1.193   2.068 -0.1929 -0.8970 -1.5883
  442MOL0     H59615   7.169   1.191   2.241 -1.2267  2.2443  0.2289
  442MOL0     H59616   7.231   1.063   2.128 -0.3415  0.7064 -1.3984
  442MOL0     H59617   7.163   1.347   2.061 -2.6785 -1.4497  1.5462
  442MOL0     H59618   7.215   1.218   1.942  0.1352  0.3371  0.1286
  442MOL0     H59619   7.359   1.358   2.168  3.9087  1.4138  0.0128
  442MOL0     H59620   7.411   1.199   2.103 -2.5384  0.2157  3.7559
  442MOL0     H59621   7.528   1.197   1.903  0.3627  1.7394  3.0739
  442MOL0     H59622   7.613   1.248   1.630 -2.2653  0.8931  0.3944
  442MOL0     H59623   7.607   1.420   1.591 -2.2728 -1.2988 -0.3658
  442MOL0     H59624   7.783   1.462   1.764  3.1813 -0.2609 -0.2890
  442MOL0     H59625   7.786   1.278   1.785  1.3247 -0.5377 -1.3583
  442MOL0     H59626   7.810   1.352   1.507  0.0760  0.0695 -1.2376
  442MOL0     H59627   7.905   1.244   1.620 -0.4937  0.5663  2.1487
  442MOL0     H59628   7.928   1.545   1.599 -0.8062 -0.0667 -3.5379
  442MOL0     H59629   8.019   1.444   1.491 -1.1347 -2.8324 -0.5617
  442MOL0     H59630   8.304   1.464   1.832  1.8235  2.0846 -0.8301
  442MOL0     H59631   8.513   1.351   1.768  0.1213 -0.6495  0.5049
  442MOL0     H59632   8.790   1.196   1.396  1.9333  0.3834  2.6339
  442MOL0     H59633   8.996   1.064   1.340  1.3754 -0.9761  0.2437
  442MOL0     H59634   9.154   0.908   1.439 -2.5310  0.2487  1.3763
  442MOL0     H59635   9.087   0.772   1.534  0.8734 -2.3264 -0.1572
  442MOL0     H59636   9.278   0.729   1.310  0.0547  1.3840  0.1643
  442MOL0     H59637   9.305   0.724   1.480 -0.0383  1.8056  0.7667
  442MOL0     H59638   9.136   0.530   1.518 -0.6177 -5.6074 -1.7999
  442MOL0     H59639   9.136   0.525   1.336 -1.0113 -1.9311  0.4655
  442MOL0     H59640   9.386   0.520   1.354 -2.8509  2.0217 -0.9790
  442MOL0     H59641   9.302   0.375   1.397  3.1908  1.0490 -2.3122
  442MOL0     H59642   9.391   0.573   1.615  1.2132 -0.7980  1.1383
  442MOL0     H59643   9.491   0.435   1.542  0.3469 -0.3685  1.6314
  442MOL0     H59644   9.225   0.419   1.671  0.3065  1.0938 -1.1591
  442MOL0     H59645   9.314   0.284   1.601  0.7842  1.4879 -2.2332
  442MOL0     H59646   9.299   0.315   1.858  0.2527 -0.0014  0.9372
  442MOL0     H59647   9.401   0.465   1.837  0.8215 -0.3983 -0.3032
  442MOL0     H59648   9.556   0.312   1.726 -3.0327 -0.9777 -3.4005
  442MOL0     H59649   9.553   0.303   1.907 -0.6195 -1.6445  0.4534
  442MOL0     H59650   8.754   0.702   1.421 -3.2725  0.5145  1.6015
  442MOL0     H59651   8.580   0.841   1.484  0.3922 -1.0982 -0.8685
  442MOL0     H59652   8.328   1.110   1.471  1.9669  1.4280 -0.6077
  442MOL0     H59653   8.110   1.244   1.509 -1.3721 -0.1111  1.7901
  442MOL0     H59654   6.395   0.995   2.525  0.6514  0.5712 -0.5501
  442MOL0     H59655   6.154   0.930   2.540  0.6736 -1.3382  0.3761
  442MOL0     H59656   5.828   0.744   2.455  0.4824 -1.2611 -2.7448
  442MOL0     H59657   5.632   0.665   2.534  1.1253  3.1870  2.7621
  442MOL0     H59658   5.382   0.773   2.681 -1.0753  0.9911 -1.1741
  442MOL0     H59659   5.434   0.631   2.603  1.2853  1.1150 -0.6422
  442MOL0     H59660   5.218   0.574   2.695  2.1730 -1.7414 -1.8875
  442MOL0     H59661   5.203   0.579   2.528  2.5361 -0.7414  0.5186
  442MOL0     H59662   5.086   0.785   2.743 -1.0554  0.9261 -0.3203
  442MOL0     H59663   5.008   0.668   2.642  0.1769 -0.3294  0.4836
  442MOL0     H59664   5.165   0.907   2.534 -1.3179  2.2343  2.1316
  442MOL0     H59665   5.061   0.800   2.442  4.4630  0.1384 -0.6509
  442MOL0     H59666   4.776   1.051   2.628  1.3612  2.4188  1.2798
  442MOL0     H59667   5.403   0.946   2.304 -0.3151  0.3871  1.4541
  442MOL0     H59668   5.626   0.999   2.074 -2.2320 -0.2680  0.3008
  442MOL0     H59669   5.510   1.085   2.164 -0.0723 -0.2568  0.2931
  442MOL0     H59670   5.678   1.144   2.168  0.0723 -0.1068 -0.7127
  443MOL0     O59671   2.409   2.386   4.837  0.1601  0.0315  0.4286
  443MOL0     C59672   2.331   2.293   4.862  0.8565 -0.0590  1.1652
  443MOL0     O59673   2.353   2.168   4.919 -0.6986  0.1838  0.7367
  443MOL0     C59674   2.488   2.139   4.926  0.6124 -0.3444  0.5274
  443MOL0     C59675   2.588   2.218   4.992  0.4787  0.3558 -0.1887
  443MOL0     C59676   2.718   2.169   5.009 -0.2855 -0.0965  0.1556
  443MOL0     C59677   2.761   2.053   4.941 -0.3402  0.6587  0.2056
  443MOL0     O59678   2.884   1.990   4.939  0.1909  0.0234 -0.4724
  443MOL0     C59679   2.987   2.064   5.022  0.1025  0.2572 -0.2870
  443MOL0     C59680   3.120   1.982   5.004 -0.4999 -0.3108 -0.7279
  443MOL0     C59681   3.241   2.065   5.065  0.4815 -0.0365  0.3478
  443MOL0     C59682   3.373   2.004   5.025  0.0682 -1.0273  0.8343
  443MOL0     C59683   3.470   1.984   5.137 -0.3669 -0.2667  0.1599
  443MOL0     C59684   3.536   2.114   5.179  0.3426 -0.8572 -0.2750
  443MOL0     C59685   3.610   2.113   5.317  0.7817  0.8487  0.3350
  443MOL0     C59686   3.763   2.085   5.302 -0.0554  0.0614  0.1893
  443MOL0     N59687   3.840   2.201   5.261 -0.5829  0.5218 -0.6615
  443MOL0     C59688   3.937   2.182   5.164 -0.2861  0.0721  0.0212
  443MOL0     C59689   3.981   2.308   5.153 -0.3400 -0.0443 -0.3192
  443MOL0     C59690   4.104   2.341   5.082 -0.8287  0.2983 -0.6085
  443MOL0     C59691   4.234   2.291   5.145  0.7656  0.0270  0.3077
  443MOL0     C59692   4.356   2.362   5.089  0.1255  0.1990  0.3121
  443MOL0     C59693   4.494   2.305   5.126 -1.5140  0.1067 -0.4045
  443MOL0     O59694   4.506   2.287   5.267 -0.5571  0.3999  0.2330
  443MOL0     C59695   4.586   2.385   5.334 -0.0619  0.1775 -0.6565
  443MOL0     C59696   4.699   2.348   5.419  0.3218  0.3981  0.8578
  443MOL0     C59697   4.744   2.432   5.519  0.4413  0.2396 -0.1824
  443MOL0     C59698   4.689   2.554   5.551  0.1795 -0.1492  0.0752
  443MOL0     C59699   4.749   2.638   5.666  0.3623 -0.4201 -0.2680
  443MOL0     O59700   4.844   2.577   5.739 -0.4008  0.2378  0.1454
  443MOL0     C59701   4.884   2.640   5.853  1.0211 -0.5026  0.5025
  443MOL0     C59702   4.802   2.712   5.944 -0.1588 -0.3533 -0.6797
  443MOL0     C59703   4.859   2.755   6.068  0.6172  0.7795 -0.5808
  443MOL0     C59704   4.991   2.730   6.101 -0.3949 -0.1955  1.0310
  443MOL0     O59705   5.036   2.765   6.228 -0.2910 -0.0622  0.7798
  443MOL0     C59706   4.944   2.763   6.331 -0.2754 -0.9073  0.5692
  443MOL0     C59707   5.018   2.803   6.451 -0.3992 -0.1757  0.2231
  443MOL0     C59708   4.928   2.818   6.568  0.1361 -0.2346  0.7631
  443MOL0     C59709   5.015   2.803   6.701  0.5782 -0.5775 -0.4468
  443MOL0     C59710   4.920   2.813   6.822  0.9092  0.1297  0.5425
  443MOL0     C59711   5.013   2.789   6.945  0.5886 -0.8180  0.2121
  443MOL0     C59712   4.951   2.817   7.086 -0.1488  0.0543 -1.1665
  443MOL0     C59713   5.042   2.832   7.204  0.0612  0.4979  0.9274
  443MOL0    Cl59714   5.119   2.987   7.186 -0.1670 -0.0605  0.1002
  443MOL0     C59715   5.073   2.663   6.008  0.4263  1.0536 -0.2347
  443MOL0     C59716   5.014   2.626   5.886 -0.1677 -0.1433  0.5259
  443MOL0     O59717   4.705   2.751   5.688 -0.5219  0.3009  0.0563
  443MOL0     C59718   4.576   2.583   5.474 -0.0293  0.0837  0.0232
  443MOL0     C59719   4.527   2.507   5.372  0.2141 -0.2788  0.1558
  443MOL0     N59720   3.908   2.391   5.237 -0.3894 -0.7572  0.1176
  443MOL0     N59721   3.821   2.326   5.307 -0.6930  0.1774  0.2801
  443MOL0     C59722   2.667   1.981   4.870 -0.3758  0.1722  0.5838
  443MOL0     C59723   2.525   2.024   4.857 -0.2241 -0.4395 -0.0814
  443MOL0     C59724   2.185   2.300   4.811 -0.3208 -0.3602 -0.5534
  443MOL0     C59725   2.095   2.194   4.852 -0.1297  0.4270 -0.5621
  443MOL0     C59726   1.967   2.184   4.794 -0.3099  0.5177  0.4690
  443MOL0     C59727   1.921   2.280   4.706  0.6279  0.6498 -0.0541
  443MOL0     O59728   1.788   2.279   4.671 -1.1073  0.3356 -0.2605
  443MOL0     C59729   1.717   2.397   4.711 -0.2101  0.7032 -0.4060
  443MOL0     C59730   1.574   2.343   4.732 -0.3462  0.3015 -0.5272
  443MOL0     C59731   1.472   2.447   4.766  0.0968  0.1308  0.3126
  443MOL0     C59732   1.324   2.394   4.752 -0.0498 -0.1167 -0.2704
  443MOL0     C59733   1.287   2.318   4.877 -0.4532 -0.4459  0.1122
  443MOL0     C59734   1.245   2.246   4.964  0.0731  0.6784  0.9572
  443MOL0     C59735   2.004   2.393   4.680 -1.2490  0.2140  0.2563
  443MOL0     C59736   2.135   2.409   4.727 -0.4298 -0.3861  0.3189
  443MOL0     C59737   2.202   2.538   4.696  0.7002 -0.2292  0.2240
  443MOL0     H59738   2.572   2.317   5.033  1.0696  0.7450 -0.8831
  443MOL0     H59739   2.794   2.229   5.057 -0.8974  0.9182 -0.0958
  443MOL0     H59740   3.006   2.166   4.988  0.5433 -0.4682 -2.3473
  443MOL0     H59741   2.958   2.057   5.127  2.3337  3.1924  0.6860
  443MOL0     H59742   3.131   1.966   4.896 -0.3053 -0.1977 -0.7256
  443MOL0     H59743   3.109   1.893   5.066  2.8659 -0.0408  0.4923
  443MOL0     H59744   3.226   2.067   5.174 -2.5604  0.3204  0.0007
  443MOL0     H59745   3.231   2.165   5.022 -0.9309  1.2300  3.3458
  443MOL0     H59746   3.362   1.903   4.984  1.8471 -1.7865  2.1155
  443MOL0     H59747   3.416   2.060   4.941  1.5258 -0.0911  2.1542
  443MOL0     H59748   3.430   1.941   5.230 -0.7758  0.3481  0.2740
  443MOL0     H59749   3.545   1.910   5.109 -0.0133 -0.1893  0.8704
  443MOL0     H59750   3.613   2.146   5.109 -0.4268 -0.8367 -1.1314
  443MOL0     H59751   3.456   2.188   5.187  0.4903 -0.5909 -1.2049
  443MOL0     H59752   3.563   2.032   5.374 -0.5778 -0.5895 -2.5994
  443MOL0     H59753   3.601   2.208   5.370  2.8849  2.5458 -2.1373
  443MOL0     H59754   3.809   2.059   5.398  0.7867  1.4535  0.1951
  443MOL0     H59755   3.779   1.998   5.238  0.3862  1.0494 -1.0955
  443MOL0     H59756   3.974   2.095   5.110  0.5875 -0.6989  1.8073
  443MOL0     H59757   4.109   2.295   4.983  1.8512  0.5835 -0.6660
  443MOL0     H59758   4.111   2.449   5.067 -0.6406  0.2279 -1.0360
  443MOL0     H59759   4.236   2.310   5.253  0.5055  1.0246  0.1485
  443MOL0     H59760   4.232   2.182   5.134 -2.3982 -0.1270  1.2307
  443MOL0     H59761   4.357   2.467   5.120  5.7644  0.2278  1.0701
  443MOL0     H59762   4.346   2.360   4.980  0.8551  1.4726  0.1949
  443MOL0     H59763   4.569   2.368   5.077 -1.4040 -0.2543 -0.7087
  443MOL0     H59764   4.506   2.205   5.083 -0.3344 -0.3815  0.9821
  443MOL0     H59765   4.740   2.250   5.395 -0.1479  0.9997 -3.0733
  443MOL0     H59766   4.823   2.385   5.576  1.1918 -1.1824 -2.2730
  443MOL0     H59767   4.695   2.731   5.936  0.2349  1.6165 -1.9959
  443MOL0     H59768   4.780   2.786   6.136  0.9372 -0.2280  0.2821
  443MOL0     H59769   4.861   2.830   6.309  1.0172  0.5582  0.0268
  443MOL0     H59770   4.902   2.663   6.343 -0.9257 -0.8420 -1.0091
  443MOL0     H59771   5.104   2.739   6.471 -0.8163 -1.0604 -0.6972
  443MOL0     H59772   5.061   2.901   6.429  0.7615 -0.8140 -0.4377
  443MOL0     H59773   4.881   2.917   6.569  2.4301  0.9341  1.2268
  443MOL0     H59774   4.844   2.748   6.569 -3.2835  3.5003  0.2494
  443MOL0     H59775   5.089   2.885   6.700 -2.1148  2.2394  3.0254
  443MOL0     H59776   5.062   2.704   6.703 -0.7439 -1.2143  1.3751
  443MOL0     H59777   4.843   2.735   6.822  1.9881 -1.0367 -1.2861
  443MOL0     H59778   4.866   2.908   6.825 -0.5223 -0.5874 -0.8528
  443MOL0     H59779   5.054   2.687   6.940  0.5350 -0.8068 -0.5987
  443MOL0     H59780   5.102   2.851   6.949 -0.3885  0.5713  1.1280
  443MOL0     H59781   4.870   2.747   7.107  1.5071 -1.8981 -0.8924
  443MOL0     H59782   4.903   2.915   7.086 -0.3258 -0.0325 -0.9631
  443MOL0     H59783   4.995   2.832   7.303 -0.1935 -0.1498  0.8106
  443MOL0     H59784   5.118   2.753   7.201 -0.1920  0.2476  1.0754
  443MOL0     H59785   5.174   2.633   6.034  0.5338 -0.6560 -2.3532
  443MOL0     H59786   5.065   2.566   5.811  0.0157  1.0315 -0.3150
  443MOL0     H59787   4.527   2.679   5.489  0.3428  0.4723 -1.1020
  443MOL0     H59788   4.443   2.554   5.321  0.1661  1.1820  1.5076
  443MOL0     H59789   2.700   1.892   4.818 -0.4204  0.7698 -0.4964
  443MOL0     H59790   2.464   1.964   4.790  0.3009  0.4639 -1.4194
  443MOL0     H59791   2.120   2.109   4.915 -1.3704  0.7161  0.3599
  443MOL0     H59792   1.912   2.091   4.804 -1.4237  1.0258 -0.7089
  443MOL0     H59793   1.716   2.470   4.630 -2.6643  0.2365 -0.8878
  443MOL0     H59794   1.760   2.439   4.803 -1.7802  3.9180 -0.9673
  443MOL0     H59795   1.572   2.265   4.809 -0.0215  0.3493 -0.4721
  443MOL0     H59796   1.545   2.295   4.638  1.6830  0.1522 -1.1081
  443MOL0     H59797   1.498   2.535   4.706  2.0845  0.5706  1.7266
  443MOL0     H59798   1.473   2.489   4.867 -1.0574 -0.8432  0.7585
  443MOL0     H59799   1.263   2.485   4.750 -0.8214 -0.6210 -0.2888
  443MOL0     H59800   1.308   2.332   4.664 -0.0514  1.2442 -1.2612
  443MOL0     H59801   1.202   2.185   5.040  0.2243  1.8822  2.0595
  443MOL0     H59802   1.963   2.466   4.611 -0.0738 -1.1827 -2.0598
  443MOL0     H59803   2.128   2.614   4.669 -2.1132 -1.9129  2.7328
  443MOL0     H59804   2.241   2.585   4.787 -2.4280  0.5814  1.2540
  443MOL0     H59805   2.271   2.525   4.612  0.3890 -2.2494  0.2490
  444MOL0     O59806   2.195   0.832   6.527 -0.6331  0.2209 -0.5366
  444MOL0     C59807   2.148   0.782   6.431 -0.1712  0.0794 -0.0833
  444MOL0     O59808   2.224   0.720   6.331  0.4314  0.4306 -0.0985
  444MOL0     C59809   2.357   0.706   6.355 -0.2670  0.3938 -0.2530
  444MOL0     C59810   2.442   0.804   6.314  0.7183  0.0319 -0.6375
  444MOL0     C59811   2.577   0.801   6.339 -1.0168  0.2245 -0.1829
  444MOL0     C59812   2.637   0.698   6.407 -0.2968  1.1857  0.4376
  444MOL0     O59813   2.774   0.683   6.425  0.4662  0.4867  0.6884
  444MOL0     C59814   2.863   0.772   6.350  0.2949 -0.6699 -0.5896
  444MOL0     C59815   2.997   0.745   6.410  0.1951  0.4737  0.7535
  444MOL0     C59816   3.105   0.793   6.307  0.4717  0.3815 -0.7460
  444MOL0     C59817   3.243   0.783   6.370  0.8418 -0.8250 -0.7175
  444MOL0     C59818   3.353   0.777   6.262  0.1872 -0.1652 -0.0155
  444MOL0     C59819   3.486   0.762   6.324  0.1661  0.8509 -0.1613
  444MOL0     C59820   3.604   0.777   6.220  0.8530 -0.6614 -0.4391
  444MOL0     C59821   3.625   0.680   6.102 -0.2540 -0.1664 -0.3877
  444MOL0     N59822   3.698   0.560   6.142  0.5815  0.4780  0.4961
  444MOL0     C59823   3.646   0.437   6.180  0.2036 -0.3184  0.2347
  444MOL0     C59824   3.756   0.358   6.174  0.3205 -0.8961  0.1619
  444MOL0     C59825   3.761   0.214   6.208 -0.1912  0.0633 -0.5807
  444MOL0     C59826   3.719   0.128   6.083  0.0658 -0.1166  0.3045
  444MOL0     C59827   3.764  -0.014   6.086  0.0626  0.4634  0.3104
  444MOL0     C59828   3.916  -0.040   6.084 -0.2650 -0.2115 -1.1400
  444MOL0     O59829   3.977   0.008   5.963  0.6208 -0.1226  0.2028
  444MOL0     C59830   4.109   0.035   5.953 -0.4963  0.0668  0.2085
  444MOL0     C59831   4.206   0.000   6.050 -0.2956  0.5804 -0.7873
  444MOL0     C59832   4.334   0.025   6.043 -0.8689  0.3048  0.1240
  444MOL0     C59833   4.390   0.089   5.927  0.9327  0.5664  0.1912
  444MOL0     C59834   4.527   0.129   5.913 -0.3728 -0.4787 -0.1263
  444MOL0     O59835   4.577   0.183   5.798  0.1675 -0.3669  0.8628
  444MOL0     C59836   4.711   0.219   5.789 -0.2567  0.4308  0.9368
  444MOL0     C59837   4.787   0.283   5.883  0.8138  0.7975  0.4935
  444MOL0     C59838   4.916   0.334   5.859  0.3346  0.3968  0.1402
  444MOL0     C59839   4.970   0.334   5.729 -0.3008 -0.0652  0.0547
  444MOL0     O59840   5.087   0.399   5.731 -0.2709  0.8204 -0.2901
  444MOL0     C59841   5.199   0.318   5.729 -0.1735 -0.1940  0.6873
  444MOL0     C59842   5.313   0.399   5.677  0.7093 -0.0666 -0.6017
  444MOL0     C59843   5.455   0.335   5.699 -1.2841 -0.5779  0.2464
  444MOL0     C59844   5.577   0.408   5.620 -0.0784 -0.3979  0.0933
  444MOL0     C59845   5.712   0.350   5.632 -0.0648 -0.3389 -0.9174
  444MOL0     C59846   5.780   0.343   5.777 -0.0552 -0.2135  0.5371
  444MOL0     C59847   5.924   0.284   5.778  0.7251  0.1951  0.0425
  444MOL0     C59848   6.022   0.386   5.741  0.4572  0.0052 -0.0484
  444MOL0    Cl59849   6.087   0.493   5.880 -0.2108  0.3676 -0.2254
  444MOL0     C59850   4.906   0.271   5.627  0.3856  0.1933 -0.4988
  444MOL0     C59851   4.783   0.210   5.660  0.2756 -0.0420 -0.0634
  444MOL0     O59852   4.592   0.091   6.011 -0.2832  0.2419 -0.0614
  444MOL0     C59853   4.297   0.141   5.835 -0.0773 -0.3446 -0.2044
  444MOL0     C59854   4.159   0.112   5.846 -0.8816 -0.5267 -0.0557
  444MOL0     N59855   3.872   0.432   6.143  0.6191  0.8077  0.0485
  444MOL0     N59856   3.835   0.551   6.123  0.7859  0.2697 -0.8484
  444MOL0     C59857   2.545   0.594   6.456 -0.0591 -0.1127 -0.4352
  444MOL0     C59858   2.406   0.598   6.437  0.3812 -0.0839  0.0169
  444MOL0     C59859   2.007   0.794   6.409  0.4995 -0.8683  0.2874
  444MOL0     C59860   1.954   0.926   6.436 -0.4685  0.2292  0.4021
  444MOL0     C59861   1.819   0.957   6.418  0.6164  0.2263  0.8034
  444MOL0     C59862   1.729   0.854   6.387  0.0495  0.6812  0.1823
  444MOL0     O59863   1.592   0.874   6.359  0.5676  0.2422 -0.5410
  444MOL0     C59864   1.541   1.015   6.362 -0.4465  0.1070 -0.1445
  444MOL0     C59865   1.415   1.018   6.282 -0.7341  0.0611 -0.2888
  444MOL0     C59866   1.445   0.979   6.131  0.5708 -0.5995 -0.2155
  444MOL0     C59867   1.319   0.912   6.080  0.0983  0.5669  0.4863
  444MOL0     C59868   1.204   1.006   6.105  0.2377  1.0061 -0.3937
  444MOL0     C59869   1.102   1.070   6.135 -0.1307 -0.0447 -0.2542
  444MOL0     C59870   1.784   0.722   6.370  0.5169 -0.6278 -0.5487
  444MOL0     C59871   1.918   0.689   6.386  1.0085  0.7223 -0.1063
  444MOL0     C59872   1.959   0.546   6.386  0.5450  0.3509 -0.0233
  444MOL0     H59873   2.409   0.892   6.260  0.2600  1.0536  1.1944
  444MOL0     H59874   2.637   0.883   6.301  0.2264 -1.1544 -1.2877
  444MOL0     H59875   2.871   0.756   6.242  1.6731  1.7767 -0.9322
  444MOL0     H59876   2.841   0.879   6.355  2.9716 -0.0472 -0.2345
  444MOL0     H59877   3.009   0.643   6.447 -1.0105  0.6491  1.6818
  444MOL0     H59878   3.014   0.798   6.505 -1.6184  1.6487  0.4696
  444MOL0     H59879   3.093   0.900   6.288  3.7055  2.0505  4.3802
  444MOL0     H59880   3.111   0.735   6.214  0.2888  0.3035 -0.7094
  444MOL0     H59881   3.252   0.870   6.437  2.5801 -1.3769 -0.1964
  444MOL0     H59882   3.256   0.691   6.427  2.0561 -0.6372 -0.6767
  444MOL0     H59883   3.327   0.693   6.196  0.5035 -0.1526 -0.1580
  444MOL0     H59884   3.345   0.870   6.205  0.0080 -0.9443 -1.3115
  444MOL0     H59885   3.506   0.826   6.411  0.2826 -1.8683  1.9365
  444MOL0     H59886   3.488   0.663   6.370 -0.8706  0.3530 -1.1320
  444MOL0     H59887   3.701   0.780   6.270  1.7398  0.0792 -2.1137
  444MOL0     H59888   3.599   0.880   6.183  0.3276  0.0648  1.5312
  444MOL0     H59889   3.525   0.651   6.068 -2.4963  0.1658  4.8863
  444MOL0     H59890   3.677   0.726   6.017  1.1241 -0.7376  0.1170
  444MOL0     H59891   3.545   0.414   6.215 -0.1307  2.3601  1.2497
  444MOL0     H59892   3.863   0.184   6.235 -1.8116 -2.2859  3.9988
  444MOL0     H59893   3.692   0.196   6.291  0.4576  3.9877  1.0085
  444MOL0     H59894   3.611   0.129   6.063 -0.0493  2.1185  0.8623
  444MOL0     H59895   3.754   0.172   5.989  0.9752 -2.4586 -0.5421
  444MOL0     H59896   3.716  -0.071   6.006 -1.1166  0.3898  1.0373
  444MOL0     H59897   3.725  -0.063   6.176 -3.0638  0.7088 -0.7786
  444MOL0     H59898   3.931  -0.147   6.100  0.6700 -0.0002 -0.5350
  444MOL0     H59899   3.965   0.008   6.169 -0.3011  1.4673 -2.0303
  444MOL0     H59900   4.171  -0.045   6.143 -1.7491  0.1503 -1.5038
  444MOL0     H59901   4.395  -0.004   6.128  1.6172  0.3029 -1.5730
  444MOL0     H59902   4.755   0.289   5.986  2.9841 -0.2738  1.3061
  444MOL0     H59903   4.968   0.382   5.941 -0.6576  1.4964  0.1449
  444MOL0     H59904   5.225   0.277   5.827  5.0044 -3.0570 -1.4989
  444MOL0     H59905   5.176   0.245   5.652 -4.0943  1.8378 -0.3387
  444MOL0     H59906   5.296   0.412   5.569 -1.5609 -0.7722 -0.3763
  444MOL0     H59907   5.311   0.498   5.724 -1.4181  0.9021 -2.5131
  444MOL0     H59908   5.489   0.342   5.802  2.1480  2.5296 -0.8872
  444MOL0     H59909   5.452   0.230   5.670  0.6435 -0.0435 -2.3267
  444MOL0     H59910   5.571   0.515   5.643  1.6408 -0.7797  2.8136
  444MOL0     H59911   5.555   0.404   5.513  0.6252  0.1786 -0.0811
  444MOL0     H59912   5.781   0.407   5.569  0.3891 -0.4832 -0.5574
  444MOL0     H59913   5.710   0.249   5.590  0.1771 -1.0659  0.7183
  444MOL0     H59914   5.789   0.447   5.809  2.0132  0.8070 -2.8609
  444MOL0     H59915   5.715   0.290   5.847 -1.6811  3.1195  1.7628
  444MOL0     H59916   5.929   0.195   5.713 -0.9544  0.4515 -0.4840
  444MOL0     H59917   5.934   0.254   5.883 -3.4784  1.7051  1.0775
  444MOL0     H59918   6.112   0.358   5.686 -0.1900  1.1508 -1.7831
  444MOL0     H59919   5.971   0.455   5.672 -5.6428 -0.9500  2.7781
  444MOL0     H59920   4.947   0.255   5.528 -0.7114  0.9156 -1.0860
  444MOL0     H59921   4.746   0.153   5.575 -0.6826  0.5087 -0.0274
  444MOL0     H59922   4.336   0.211   5.761 -0.0708  0.6490  0.7095
  444MOL0     H59923   4.091   0.146   5.769 -0.8125 -1.1347 -0.3928
  444MOL0     H59924   2.564   0.508   6.520 -1.2234 -0.3060 -0.3381
  444MOL0     H59925   2.333   0.535   6.488 -2.8010  1.9814 -1.6633
  444MOL0     H59926   2.017   1.008   6.467 -1.9245  1.6697 -0.2719
  444MOL0     H59927   1.784   1.059   6.427 -0.9754 -0.1874 -0.0655
  444MOL0     H59928   1.619   1.077   6.316 -0.3588  1.9146  2.2369
  444MOL0     H59929   1.522   1.039   6.467  2.8714 -0.2391  0.6517
  444MOL0     H59930   1.379   1.121   6.290 -1.4508 -0.0721 -1.5278
  444MOL0     H59931   1.358   0.938   6.330 -0.2033 -1.5523 -2.1711
  444MOL0     H59932   1.542   0.933   6.112  1.1078 -0.1773  1.3369
  444MOL0     H59933   1.469   1.071   6.076  0.3965 -0.0722  0.5805
  444MOL0     H59934   1.331   0.882   5.975 -2.6191 -0.1477  0.3086
  444MOL0     H59935   1.301   0.813   6.121 -1.8951  0.3510 -0.7743
  444MOL0     H59936   1.015   1.127   6.159 -0.0163 -0.0961  0.2851
  444MOL0     H59937   1.716   0.638   6.366  1.0995 -1.4774  3.2048
  444MOL0     H59938   1.931   0.497   6.292 -2.9298  1.5838  0.1875
  444MOL0     H59939   2.064   0.530   6.411  0.8605  1.5830 -0.4721
  444MOL0     H59940   1.893   0.492   6.455  0.0519  1.3726  0.3293
  445MOL0     O59941   0.307   0.938   1.972 -0.0257 -0.0107  0.5886
  445MOL0     C59942   0.232   1.029   1.961  0.5080 -0.2559 -0.6519
  445MOL0     O59943   0.257   1.151   2.006  0.2176 -0.1440 -0.1891
  445MOL0     C59944   0.385   1.174   2.063  0.0062 -0.3372 -0.6499
  445MOL0     C59945   0.418   1.138   2.202 -0.5363  0.3491  0.8007
  445MOL0     C59946   0.537   1.184   2.264 -0.8185  0.3612  0.7938
  445MOL0     C59947   0.623   1.272   2.193  0.3301 -0.1961  0.2542
  445MOL0     O59948   0.721   1.333   2.264 -0.0269  0.3023  0.1522
  445MOL0     C59949   0.844   1.296   2.213 -0.1628 -0.3266  0.2747
  445MOL0     C59950   0.953   1.377   2.300  0.1428  0.8652 -0.5888
  445MOL0     C59951   1.053   1.276   2.350 -0.2797 -0.1437 -0.3587
  445MOL0     C59952   1.145   1.329   2.458 -1.3938  0.2659  0.2242
  445MOL0     C59953   1.252   1.234   2.516 -0.1242 -0.0256 -0.2354
  445MOL0     C59954   1.293   1.271   2.659 -0.4576  0.5129 -0.3661
  445MOL0     C59955   1.423   1.199   2.688 -0.2070  0.3060 -0.2780
  445MOL0     C59956   1.531   1.307   2.664 -0.4365  0.1019 -0.4336
  445MOL0     N59957   1.666   1.257   2.703 -0.2278  0.2318 -0.1900
  445MOL0     C59958   1.718   1.221   2.831 -0.6656 -0.5169  0.9644
  445MOL0     C59959   1.846   1.183   2.809 -0.1876  0.6231  0.0576
  445MOL0     C59960   1.962   1.139   2.888 -0.6573  0.8070 -0.4172
  445MOL0     C59961   2.079   1.239   2.878  0.6868  0.3386  0.6360
  445MOL0     C59962   2.208   1.206   2.962  0.3603 -0.0479  0.2451
  445MOL0     C59963   2.314   1.322   2.947 -0.9616  0.1551  0.0819
  445MOL0     O59964   2.432   1.299   3.035 -0.2991 -0.3826 -0.2772
  445MOL0     C59965   2.536   1.392   3.009  0.1629 -0.0102 -0.5136
  445MOL0     C59966   2.660   1.355   3.049 -0.4934  0.6353  0.3010
  445MOL0     C59967   2.777   1.443   3.029  0.9838 -0.1772  0.5135
  445MOL0     C59968   2.752   1.578   2.988  0.3984  0.0777  0.9245
  445MOL0     C59969   2.862   1.675   2.980  0.9644 -0.2263 -0.4956
  445MOL0     O59970   2.842   1.786   2.903 -0.0039  0.6881  0.0323
  445MOL0     C59971   2.940   1.865   2.853  0.2401  0.2482 -0.5305
  445MOL0     C59972   2.953   1.865   2.715 -0.2023 -0.1819 -0.1844
  445MOL0     C59973   3.067   1.928   2.659 -0.5421 -0.2054  0.3200
  445MOL0     C59974   3.150   1.998   2.741 -0.7657  0.0748  0.6002
  445MOL0     O59975   3.264   2.059   2.695 -0.1616 -0.1109 -0.5058
  445MOL0     C59976   3.344   1.996   2.594  0.2336 -0.7549 -0.2657
  445MOL0     C59977   3.460   2.084   2.556  1.0459  0.1844  0.3847
  445MOL0     C59978   3.554   2.003   2.465  0.5641  0.2240 -0.5931
  445MOL0     C59979   3.650   2.084   2.376  0.1444  0.2205  0.0246
  445MOL0     C59980   3.738   1.983   2.295  0.5765 -0.0699 -0.3443
  445MOL0     C59981   3.833   2.066   2.200  0.8196  0.0714  0.5497
  445MOL0     C59982   3.920   1.987   2.105  0.6568  0.0400  0.1768
  445MOL0     C59983   3.984   2.082   2.002  0.5672  0.3129  0.6504
  445MOL0    Cl59984   4.125   2.009   1.919 -0.0139 -0.0782  0.4095
  445MOL0     C59985   3.129   2.010   2.879 -0.4399 -0.0506 -1.3769
  445MOL0     C59986   3.024   1.940   2.939 -0.7742  0.0776  0.7606
  445MOL0     O59987   2.966   1.640   3.033 -0.4233  0.4965  0.1922
  445MOL0     C59988   2.617   1.617   2.948  0.3087 -0.7406 -0.2042
  445MOL0     C59989   2.514   1.523   2.968 -0.2276  0.1996 -0.1914
  445MOL0     N59990   1.863   1.188   2.671  0.6579  0.4930 -0.1316
  445MOL0     N59991   1.761   1.231   2.609  1.0852 -0.2095 -0.7501
  445MOL0     C59992   0.602   1.308   2.059 -0.3362 -0.3326 -0.1990
  445MOL0     C59993   0.484   1.253   2.000  0.6163 -1.4696  0.2277
  445MOL0     C59994   0.093   1.008   1.906 -0.0328 -0.4137  0.8274
  445MOL0     C59995   0.055   0.881   1.875  0.4879 -0.8387 -0.0976
  445MOL0     C59996  -0.070   0.845   1.827 -0.1813  0.1200 -0.8945
  445MOL0     C59997  -0.163   0.936   1.787 -0.8393 -0.6431 -0.0346
  445MOL0     O59998  -0.281   0.899   1.728  0.3367  0.3047  0.7774
  445MOL0     C59999  -0.356   1.001   1.669 -0.7744  0.2960 -0.2697
  445MOL0     C60000  -0.474   0.934   1.611 -0.8399 -0.5758  0.1400
  445MOL0     C60001  -0.440   0.846   1.491 -0.9108  0.4171  0.3852
  445MOL0     C60002  -0.558   0.750   1.478 -0.5566 -0.5918 -0.3460
  445MOL0     C60003  -0.522   0.672   1.362  0.5975 -0.4782  0.0002
  445MOL0     C60004  -0.491   0.601   1.268 -0.7328 -0.7277 -0.2123
  445MOL0     C60005  -0.124   1.070   1.822 -0.0174 -0.6365  0.0965
  445MOL0     C60006  -0.008   1.112   1.885 -0.8637  0.4752  0.5124
  445MOL0     C60007   0.009   1.255   1.913  0.2409 -0.5666  0.4844
  445MOL0     H60008   0.344   1.083   2.258  2.8082 -2.5564  2.7567
  445MOL0     H60009   0.561   1.164   2.368  1.0213  0.8811  0.5032
  445MOL0     H60010   0.858   1.187   2.208  1.1802 -0.1141 -0.9661
  445MOL0     H60011   0.859   1.351   2.120  1.3394  0.8236  1.1562
  445MOL0     H60012   0.907   1.439   2.377 -1.4850  2.7411 -2.9409
  445MOL0     H60013   1.000   1.448   2.232  0.8314 -0.4205 -1.5041
  445MOL0     H60014   1.103   1.222   2.270 -1.0002  0.0871 -0.9691
  445MOL0     H60015   1.013   1.188   2.400  0.3542  0.6879  1.7355
  445MOL0     H60016   1.186   1.428   2.440  1.6728 -0.9576 -0.1029
  445MOL0     H60017   1.089   1.340   2.551  1.1207  0.1030  1.8426
  445MOL0     H60018   1.221   1.130   2.505 -0.1688  0.0651 -1.0245
  445MOL0     H60019   1.341   1.227   2.453  1.8492 -1.4937  2.4863
  445MOL0     H60020   1.311   1.378   2.673  1.7159  0.0665  0.6893
  445MOL0     H60021   1.220   1.235   2.733  1.6710 -1.0045  1.1144
  445MOL0     H60022   1.443   1.117   2.617 -2.4088  0.8295 -1.6119
  445MOL0     H60023   1.423   1.165   2.792  1.6384  0.4819 -0.1931
  445MOL0     H60024   1.529   1.350   2.564  0.5948  1.5609  0.1391
  445MOL0     H60025   1.517   1.397   2.726 -0.3745  1.4177 -2.2435
  445MOL0     H60026   1.662   1.224   2.924  0.2006  1.0854  1.4825
  445MOL0     H60027   1.939   1.115   2.992  0.0053 -0.5999 -0.5733
  445MOL0     H60028   1.998   1.049   2.837 -0.3506  0.6986 -0.0106
  445MOL0     H60029   2.112   1.254   2.775  0.5899  2.9640  0.9114
  445MOL0     H60030   2.034   1.337   2.899 -0.4430 -0.7192  3.6624
  445MOL0     H60031   2.239   1.112   2.916 -1.5235 -0.3537 -0.4958
  445MOL0     H60032   2.192   1.196   3.070  0.8868 -0.3949  0.2930
  445MOL0     H60033   2.272   1.419   2.973  2.4357  1.4042  1.5388
  445MOL0     H60034   2.344   1.326   2.842 -1.0849  1.3426  0.0846
  445MOL0     H60035   2.679   1.257   3.091  0.6363  0.1081 -1.3607
  445MOL0     H60036   2.872   1.411   3.070  0.5198 -1.1302  0.8677
  445MOL0     H60037   2.886   1.802   2.657 -1.3242  1.7702 -1.1381
  445MOL0     H60038   3.072   1.920   2.551  2.5163  0.2392  0.3406
  445MOL0     H60039   3.379   1.902   2.638  0.2558 -1.7787 -2.3589
  445MOL0     H60040   3.289   1.977   2.501 -1.7182  1.3628  0.3746
  445MOL0     H60041   3.415   2.156   2.487 -0.6437 -1.5587 -0.4574
  445MOL0     H60042   3.515   2.137   2.634  0.4281  2.2947 -0.5430
  445MOL0     H60043   3.613   1.936   2.529 -0.4452 -1.1687 -1.0648
  445MOL0     H60044   3.501   1.937   2.395  2.6520  0.4186 -2.4610
  445MOL0     H60045   3.708   2.144   2.447  1.0459 -0.9296  0.3029
  445MOL0     H60046   3.593   2.153   2.314 -2.4422 -2.1618 -0.4685
  445MOL0     H60047   3.683   1.913   2.231 -0.4022  3.1958 -3.4690
  445MOL0     H60048   3.796   1.924   2.366 -1.7591  0.1795  1.9483
  445MOL0     H60049   3.765   2.125   2.137 -0.5205  0.1087  1.9621
  445MOL0     H60050   3.887   2.139   2.262 -0.0381  0.9272  0.3146
  445MOL0     H60051   3.864   1.911   2.049  1.7633 -0.3716 -0.3889
  445MOL0     H60052   3.991   1.935   2.170  1.9245  0.7973 -0.5716
  445MOL0     H60053   3.911   2.115   1.927  0.1317 -0.8261  0.5445
  445MOL0     H60054   4.005   2.176   2.052 -1.4994  0.3993  1.4719
  445MOL0     H60055   3.203   2.055   2.943 -0.7106 -5.4157  3.5967
  445MOL0     H60056   3.021   1.935   3.048  5.3229  2.4631  1.4532
  445MOL0     H60057   2.600   1.719   2.917 -2.2522 -0.0248  2.9717
  445MOL0     H60058   2.409   1.548   2.955  0.0445  0.3002 -2.7875
  445MOL0     H60059   0.682   1.366   2.013 -0.8986 -0.9075 -2.0003
  445MOL0     H60060   0.473   1.279   1.895  0.7896  1.6759  0.8974
  445MOL0     H60061   0.131   0.804   1.869  1.5029  0.1868 -1.2550
  445MOL0     H60062  -0.090   0.739   1.812 -1.0241  0.1446 -0.0387
  445MOL0     H60063  -0.295   1.036   1.585 -1.8417 -2.6089 -2.4305
  445MOL0     H60064  -0.390   1.076   1.741 -2.5356  1.3218 -2.0683
  445MOL0     H60065  -0.532   1.017   1.571  0.0283  2.1368  4.0068
  445MOL0     H60066  -0.536   0.884   1.686  0.0272 -1.4392  0.3063
  445MOL0     H60067  -0.344   0.796   1.505 -1.1360 -0.3025 -0.5421
  445MOL0     H60068  -0.431   0.906   1.401  1.0904 -0.7206 -0.2301
  445MOL0     H60069  -0.584   0.686   1.563 -1.8925 -0.6687 -0.7819
  445MOL0     H60070  -0.648   0.806   1.452 -0.8507 -1.3423 -1.0124
  445MOL0     H60071  -0.461   0.533   1.191  2.2603 -0.1328  0.2856
  445MOL0     H60072  -0.198   1.146   1.802  0.8340  0.7596  1.9555
  445MOL0     H60073  -0.013   1.264   2.020  1.4261 -1.9416  0.8824
  445MOL0     H60074   0.107   1.296   1.886 -1.3616  2.7178 -0.9284
  445MOL0     H60075  -0.068   1.313   1.862 -1.5294 -1.0822  2.4433
  446MOL0     O60076   4.477   1.885   9.419 -0.3578  0.0648 -0.0035
  446MOL0     C60077   4.576   1.959   9.418  0.0237  0.0526 -0.1764
  446MOL0     O60078   4.704   1.924   9.376  0.4696 -0.3300  0.2303
  446MOL0     C60079   4.760   1.798   9.398  0.2280  0.0346 -0.0395
  446MOL0     C60080   4.704   1.702   9.495  0.0875  0.6596  0.3157
  446MOL0     C60081   4.758   1.571   9.509  0.1557 -0.5194 -0.3450
  446MOL0     C60082   4.876   1.538   9.437  0.4319  0.8332 -0.5805
  446MOL0     O60083   4.943   1.420   9.449  0.0364 -0.0103 -0.4207
  446MOL0     C60084   4.933   1.356   9.580 -0.6328  0.0567 -0.3957
  446MOL0     C60085   5.046   1.253   9.589  0.7909  0.0636  0.4162
  446MOL0     C60086   5.081   1.221   9.743 -0.1950 -0.3354  0.7280
  446MOL0     C60087   5.226   1.182   9.769  0.2439 -0.4596  0.7540
  446MOL0     C60088   5.259   1.039   9.719 -0.1369  0.1250 -0.5739
  446MOL0     C60089   5.346   0.954   9.809 -0.3731 -0.4709 -0.0780
  446MOL0     C60090   5.376   0.825   9.747  0.0091  0.1529  0.7797
  446MOL0     C60091   5.476   0.745   9.825  0.9331  0.3609 -0.0389
  446MOL0     N60092   5.612   0.804   9.819 -0.0954 -0.6769  0.0728
  446MOL0     C60093   5.705   0.766   9.722 -1.1908 -0.0224 -0.1351
  446MOL0     C60094   5.818   0.811   9.779 -0.1055  0.9508  0.6652
  446MOL0     C60095   5.948   0.778   9.709  0.1399  0.2965 -0.2583
  446MOL0     C60096   6.066   0.755   9.813 -0.6032 -0.4207 -0.0852
  446MOL0     C60097   6.204   0.730   9.747 -0.9775  0.6000  0.4297
  446MOL0     C60098   6.211   0.604   9.662  0.5473 -1.1319 -0.0416
  446MOL0     O60099   6.330   0.585   9.598  0.3896  0.1621  0.4952
  446MOL0     C60100   6.393   0.465   9.620 -0.5809  0.7528 -0.5654
  446MOL0     C60101   6.531   0.466   9.629 -0.2110 -0.3914 -0.6674
  446MOL0     C60102   6.602   0.352   9.654 -0.1405 -0.7241 -0.3685
  446MOL0     C60103   6.537   0.231   9.665 -1.1757  0.3155 -0.2299
  446MOL0     C60104   6.616   0.108   9.669  0.9278  0.6975 -0.3456
  446MOL0     O60105   6.749   0.118   9.714  0.2522  0.0844 -0.5626
  446MOL0     C60106   6.822   0.004   9.718 -0.2060  0.1560  0.4718
  446MOL0     C60107   6.940  -0.003   9.645 -1.0767 -0.1242 -0.7067
  446MOL0     C60108   7.023  -0.117   9.655 -0.7872 -0.0331  0.2691
  446MOL0     C60109   6.978  -0.220   9.739  0.0681  0.0988 -0.1635
  446MOL0     O60110   7.049  -0.341   9.763 -0.6096 -0.0964 -0.5111
  446MOL0     C60111   7.193  -0.342   9.748 -0.3784 -0.0592 -0.4179
  446MOL0     C60112   7.259  -0.476   9.781 -0.2769  0.7520  0.4286
  446MOL0     C60113   7.401  -0.470   9.724  0.4805  0.6997  0.9360
  446MOL0     C60114   7.467  -0.608   9.754 -0.0509  0.5797  0.4831
  446MOL0     C60115   7.613  -0.613   9.722  0.0631  0.1503 -0.0326
  446MOL0     C60116   7.658  -0.613   9.575 -0.3906 -0.6915 -0.3081
  446MOL0     C60117   7.802  -0.631   9.555 -0.0710  0.2568  0.1699
  446MOL0     C60118   7.897  -0.522   9.615 -0.4854 -0.9454 -0.2351
  446MOL0    Cl60119   8.063  -0.540   9.563 -0.2778  0.1197  0.0183
  446MOL0     C60120   6.860  -0.211   9.817 -0.3086  0.9417  0.4881
  446MOL0     C60121   6.795  -0.095   9.811  0.6608  0.4315 -0.1620
  446MOL0     O60122   6.562   0.008   9.615 -0.2067  0.5411 -0.2074
  446MOL0     C60123   6.399   0.223   9.650 -0.4513 -0.1087 -0.3347
  446MOL0     C60124   6.333   0.340   9.617  0.0175 -0.6873  0.2016
  446MOL0     N60125   5.794   0.878   9.901 -0.1980  0.1630  0.3270
  446MOL0     N60126   5.667   0.871   9.920 -0.2592  0.5033 -0.1635
  446MOL0     C60127   4.927   1.631   9.341 -0.8221  0.3362 -0.2998
  446MOL0     C60128   4.874   1.757   9.324  1.4139 -0.1048 -0.7670
  446MOL0     C60129   4.549   2.103   9.453  0.3978  0.2006  0.5507
  446MOL0     C60130   4.643   2.174   9.529  0.8024  0.3276 -0.2570
  446MOL0     C60131   4.610   2.296   9.581 -0.6484  0.1998 -0.9824
  446MOL0     C60132   4.495   2.366   9.554 -0.3087 -0.5377  0.1328
  446MOL0     O60133   4.462   2.489   9.612 -0.0040  0.2235  0.3111
  446MOL0     C60134   4.492   2.494   9.751 -0.4978  1.0845 -0.0272
  446MOL0     C60135   4.448   2.625   9.807  0.1629  0.1548 -0.0084
  446MOL0     C60136   4.302   2.650   9.799 -0.6718 -0.1859 -0.0338
  446MOL0     C60137   4.248   2.785   9.842  0.1446 -0.3213 -0.3062
  446MOL0     C60138   4.102   2.781   9.823  0.4792 -0.2237  0.0777
  446MOL0     C60139   3.983   2.784   9.816 -0.4360 -0.7991 -0.3327
  446MOL0     C60140   4.418   2.310   9.455 -0.3120 -0.3716 -0.2977
  446MOL0     C60141   4.437   2.177   9.408  0.5187  0.1281 -0.5456
  446MOL0     C60142   4.336   2.118   9.312  0.3315  0.2033  0.0176
  446MOL0     H60143   4.616   1.732   9.552  1.2859  1.0106  2.0798
  446MOL0     H60144   4.700   1.497   9.563  2.5792 -2.5072 -0.2717
  446MOL0     H60145   4.956   1.428   9.659 -0.3146 -0.9132  0.4164
  446MOL0     H60146   4.839   1.306   9.605 -0.4993  0.3786  0.8151
  446MOL0     H60147   5.133   1.295   9.537  0.1792 -0.3261 -0.9589
  446MOL0     H60148   5.016   1.165   9.531 -1.2497  1.3873 -0.6619
  446MOL0     H60149   5.013   1.145   9.784 -1.3219  0.0055 -0.4464
  446MOL0     H60150   5.050   1.301   9.811 -0.5517  0.1827 -0.0321
  446MOL0     H60151   5.293   1.245   9.708  1.5736 -0.4466  2.1760
  446MOL0     H60152   5.243   1.207   9.874  0.8801  0.8890  0.3629
  446MOL0     H60153   5.164   0.988   9.698 -1.4272  2.9087 -2.0436
  446MOL0     H60154   5.302   1.049   9.619  0.0942 -2.2527 -0.7666
  446MOL0     H60155   5.434   1.013   9.835  0.5423 -1.6274 -0.4756
  446MOL0     H60156   5.292   0.928   9.901  3.9130 -2.5940  2.1701
  446MOL0     H60157   5.423   0.841   9.650 -1.4562 -2.0075 -0.3600
  446MOL0     H60158   5.286   0.769   9.722  1.5341 -1.4611 -1.3781
  446MOL0     H60159   5.435   0.738   9.926 -1.6619 -0.1185 -1.0561
  446MOL0     H60160   5.485   0.642   9.791  1.3173  0.4148 -0.1067
  446MOL0     H60161   5.699   0.712   9.628  3.6454 -0.4345 -0.4609
  446MOL0     H60162   5.930   0.689   9.647  1.1731  0.1671 -0.4012
  446MOL0     H60163   5.980   0.865   9.650  0.0706  0.7163  0.3158
  446MOL0     H60164   6.081   0.843   9.875 -1.0902  0.8394 -1.6748
  446MOL0     H60165   6.038   0.684   9.891 -1.4766 -0.0189 -0.0318
  446MOL0     H60166   6.275   0.726   9.830 -3.7960  1.0417  3.0613
  446MOL0     H60167   6.228   0.820   9.690 -0.3314 -0.5952 -1.2398
  446MOL0     H60168   6.125   0.607   9.595  1.4424 -1.3347 -1.2360
  446MOL0     H60169   6.193   0.520   9.729  0.1377  1.3965  3.2903
  446MOL0     H60170   6.584   0.559   9.611  0.4130 -0.9437 -1.7911
  446MOL0     H60171   6.711   0.356   9.657 -0.1205 -0.9640 -0.7697
  446MOL0     H60172   6.968   0.087   9.591  1.9720  0.7875  2.0458
  446MOL0     H60173   7.120  -0.119   9.606  0.5032  0.2833  2.6839
  446MOL0     H60174   7.204  -0.332   9.640  0.5908 -0.8017 -0.4010
  446MOL0     H60175   7.234  -0.263   9.811 -2.1343 -1.6379  2.9991
  446MOL0     H60176   7.259  -0.489   9.890 -1.5400  2.0657  0.6152
  446MOL0     H60177   7.205  -0.556   9.731  1.3254  1.1877 -2.1815
  446MOL0     H60178   7.391  -0.456   9.616 -0.9321 -2.0111  0.6108
  446MOL0     H60179   7.452  -0.382   9.765 -1.2065  1.6087  1.1501
  446MOL0     H60180   7.422  -0.700   9.718 -1.6404  0.3963  2.7511
  446MOL0     H60181   7.466  -0.621   9.863  1.5887  0.0011  0.4616
  446MOL0     H60182   7.661  -0.695   9.777  1.8183  0.5324 -0.9059
  446MOL0     H60183   7.658  -0.521   9.762 -0.0404  0.7114 -1.1630
  446MOL0     H60184   7.599  -0.683   9.516 -2.7548  0.6416  0.3189
  446MOL0     H60185   7.636  -0.514   9.534 -1.0212  0.0665  1.7036
  446MOL0     H60186   7.821  -0.634   9.447 -2.5235  1.7010 -0.3636
  446MOL0     H60187   7.841  -0.724   9.597  0.4727  0.5148  0.2488
  446MOL0     H60188   7.869  -0.418   9.597  1.0595 -0.2357  1.2288
  446MOL0     H60189   7.901  -0.524   9.725 -1.6022 -1.3206 -0.1899
  446MOL0     H60190   6.830  -0.305   9.862  1.8740 -0.7606 -1.3376
  446MOL0     H60191   6.709  -0.075   9.874  0.2680 -0.5918 -0.3599
  446MOL0     H60192   6.343   0.130   9.646 -2.0318  0.8423 -1.9898
  446MOL0     H60193   6.233   0.333   9.576  0.0795  1.2592 -0.4139
  446MOL0     H60194   5.018   1.611   9.286  0.1238 -0.9639  1.6285
  446MOL0     H60195   4.907   1.835   9.256 -1.9911  0.3232 -2.1659
  446MOL0     H60196   4.735   2.125   9.556 -1.0868 -2.5205  1.5136
  446MOL0     H60197   4.684   2.328   9.654 -1.9439 -1.7627  1.3474
  446MOL0     H60198   4.600   2.483   9.756 -0.7241 -1.0712  0.8171
  446MOL0     H60199   4.451   2.410   9.807 -3.2109  1.0131 -1.9045
  446MOL0     H60200   4.496   2.706   9.751  1.7910 -0.9229 -0.2262
  446MOL0     H60201   4.477   2.641   9.911  0.6828  2.6340 -0.4682
  446MOL0     H60202   4.261   2.568   9.859 -1.4165  1.6799  2.1385
  446MOL0     H60203   4.264   2.638   9.696  0.3845 -1.0985 -0.3322
  446MOL0     H60204   4.263   2.798   9.950 -1.3746 -1.1986  0.0368
  446MOL0     H60205   4.289   2.868   9.783  0.5964 -0.2971  0.0336
  446MOL0     H60206   3.876   2.779   9.802 -0.6691 -0.2046  1.0492
  446MOL0     H60207   4.331   2.365   9.420 -0.3195  0.8287  1.4758
  446MOL0     H60208   4.276   2.044   9.365  1.2120 -0.2916  0.3444
  446MOL0     H60209   4.270   2.196   9.271 -0.8022 -2.1406 -2.9410
  446MOL0     H60210   4.379   2.073   9.223  0.1177 -1.0877  0.5471
  447MOL0     O60211   4.085   4.139   9.218  0.0975  0.3805  0.3878
  447MOL0     C60212   3.987   4.194   9.275  0.4459 -0.6701 -0.5112
  447MOL0     O60213   3.896   4.130   9.351 -0.3305  0.0698 -0.4223
  447MOL0     C60214   3.912   4.013   9.415  0.2296  0.3236  0.7099
  447MOL0     C60215   4.032   3.953   9.440 -0.5615  0.9125 -0.8667
  447MOL0     C60216   4.047   3.843   9.521  0.1088 -0.1128  0.8260
  447MOL0     C60217   3.940   3.787   9.579  0.5125 -0.0239  0.0036
  447MOL0     O60218   3.944   3.681   9.668 -1.4016 -0.1606  0.2184
  447MOL0     C60219   4.055   3.590   9.668  0.6721 -0.2451  0.4871
  447MOL0     C60220   4.013   3.480   9.760 -0.0933 -0.1732  0.3481
  447MOL0     C60221   4.124   3.390   9.804  0.3606 -0.4920 -0.1436
  447MOL0     C60222   4.179   3.307   9.695  1.0891 -0.3371 -0.3357
  447MOL0     C60223   4.261   3.191   9.751 -0.1834 -0.8693  0.1925
  447MOL0     C60224   4.390   3.248   9.823  0.0981 -0.1436  0.4094
  447MOL0     C60225   4.495   3.140   9.859  0.5994  0.6848 -0.0217
  447MOL0     C60226   4.618   3.205   9.919 -0.3582 -0.0739  0.0135
  447MOL0     N60227   4.701   3.102   9.977 -0.2911  0.5146 -0.2757
  447MOL0     C60228   4.722   3.090  10.110  0.0421 -0.0371 -1.0570
  447MOL0     C60229   4.823   2.997  10.133  1.1253 -0.3997  0.1889
  447MOL0     C60230   4.877   2.938  10.258 -0.3819 -0.0586  0.6910
  447MOL0     C60231   4.771   2.887  10.364 -0.5620  1.0476 -0.0795
  447MOL0     C60232   4.681   2.766  10.310 -0.6723 -0.0900 -0.1236
  447MOL0     C60233   4.746   2.639  10.270  0.1364  0.3799  0.4138
  447MOL0     O60234   4.782   2.653  10.137  0.2055 -0.0172  0.4775
  447MOL0     C60235   4.877   2.556  10.090  1.1345 -0.7395 -0.4656
  447MOL0     C60236   4.927   2.595   9.969  0.3992 -0.5616  0.1624
  447MOL0     C60237   5.016   2.505   9.896  0.4625  0.1946  0.9002
  447MOL0     C60238   5.046   2.381   9.952 -0.1553 -0.9603  0.1754
  447MOL0     C60239   5.150   2.301   9.881 -0.1897  1.1071  0.1394
  447MOL0     O60240   5.175   2.180   9.926  0.4312  0.2673  0.5379
  447MOL0     C60241   5.268   2.102   9.856  0.0506  0.2286 -0.2343
  447MOL0     C60242   5.361   2.030   9.936 -0.2425 -0.0164 -0.1226
  447MOL0     C60243   5.458   1.947   9.872  0.6326 -0.5714 -0.4094
  447MOL0     C60244   5.461   1.924   9.729 -0.2312 -0.1809 -1.2406
  447MOL0     O60245   5.564   1.845   9.682  0.1860 -0.6102  0.0888
  447MOL0     C60246   5.589   1.846   9.539  0.2920  0.1497  0.4323
  447MOL0     C60247   5.718   1.776   9.496 -0.1346 -1.3312  0.2624
  447MOL0     C60248   5.706   1.626   9.498  0.7690 -0.5477  0.1486
  447MOL0     C60249   5.844   1.566   9.459 -0.6686  0.6779  0.7115
  447MOL0     C60250   5.849   1.432   9.391  0.7330  0.6652 -0.0853
  447MOL0     C60251   5.772   1.334   9.480  0.0728 -0.0741  0.0879
  447MOL0     C60252   5.800   1.184   9.453  0.4022  0.1527 -0.4545
  447MOL0     C60253   5.745   1.100   9.577  0.5641 -0.1094  0.6757
  447MOL0    Cl60254   5.568   1.104   9.570  0.0051 -0.0756  0.0059
  447MOL0     C60255   5.362   1.997   9.648  1.1791 -0.5034  0.2360
  447MOL0     C60256   5.271   2.080   9.714  0.4049 -0.0460 -0.3865
  447MOL0     O60257   5.218   2.358   9.800 -0.2007 -0.6240  0.1820
  447MOL0     C60258   4.995   2.346  10.083 -0.4072  0.1321  0.5607
  447MOL0     C60259   4.913   2.435  10.153  0.3759 -0.5796  0.3353
  447MOL0     N60260   4.848   2.943  10.004 -0.3889 -0.5555  0.0240
  447MOL0     N60261   4.785   3.014   9.915 -0.0115  0.7546  0.2500
  447MOL0     C60262   3.812   3.832   9.550 -0.4526  0.3945 -1.2156
  447MOL0     C60263   3.796   3.947   9.465  0.0005 -0.3949 -0.9138
  447MOL0     C60264   3.954   4.340   9.261 -1.1734  0.8097 -0.4346
  447MOL0     C60265   3.844   4.390   9.335  0.2558 -0.5109  0.0015
  447MOL0     C60266   3.797   4.522   9.333 -0.7172 -0.6760  0.1998
  447MOL0     C60267   3.868   4.613   9.250  0.5374 -0.5999 -0.1676
  447MOL0     O60268   3.819   4.734   9.230  0.0593 -0.2752 -0.2969
  447MOL0     C60269   3.685   4.748   9.182 -0.7529  0.1576  0.4050
  447MOL0     C60270   3.638   4.897   9.177  0.0861 -0.1086 -0.4035
  447MOL0     C60271   3.488   4.911   9.142  0.2514  0.3439  0.6391
  447MOL0     C60272   3.483   4.906   8.983  0.7554  0.4890 -0.4445
  447MOL0     C60273   3.515   5.036   8.929  0.7993  0.2773  1.0534
  447MOL0     C60274   3.549   5.141   8.877  0.6092 -0.1679 -0.5492
  447MOL0     C60275   3.976   4.566   9.177 -0.4941  0.9053  0.5828
  447MOL0     C60276   4.034   4.438   9.191  0.5519  0.0854 -0.3158
  447MOL0     C60277   4.153   4.404   9.105  0.8547  0.1156 -0.3664
  447MOL0     H60278   4.125   3.983   9.392 -0.8592 -2.5710 -4.0767
  447MOL0     H60279   4.149   3.810   9.537  0.4560  1.3520  1.9372
  447MOL0     H60280   4.097   3.565   9.570 -0.1070  1.5846 -0.3664
  447MOL0     H60281   4.148   3.628   9.713  1.9794 -2.3211 -0.3361
  447MOL0     H60282   3.935   3.419   9.713  0.3432  0.7894 -1.7405
  447MOL0     H60283   3.983   3.515   9.859 -2.3986  1.2142 -0.7545
  447MOL0     H60284   4.094   3.325   9.887  3.3428 -0.8855  0.7679
  447MOL0     H60285   4.203   3.449   9.851  1.2141 -0.7442 -1.2272
  447MOL0     H60286   4.091   3.280   9.635  0.6739  3.1897 -1.5197
  447MOL0     H60287   4.245   3.371   9.635  2.5057  1.4240  2.8813
  447MOL0     H60288   4.206   3.122   9.816  0.5454 -1.8304 -0.1998
  447MOL0     H60289   4.289   3.127   9.667 -0.7453  0.8210 -1.3465
  447MOL0     H60290   4.434   3.321   9.754 -2.9120  0.2840 -1.2209
  447MOL0     H60291   4.376   3.311   9.912  0.1066 -1.5899  1.4622
  447MOL0     H60292   4.523   3.076   9.774 -1.0574 -2.3052  1.5517
  447MOL0     H60293   4.452   3.068   9.929 -0.9837  0.5534 -1.0694
  447MOL0     H60294   4.679   3.252   9.842  0.4534  1.7195  1.6537
  447MOL0     H60295   4.593   3.287   9.987  2.1266  2.8410 -2.3188
  447MOL0     H60296   4.681   3.157  10.184  1.5291 -2.1443  1.8703
  447MOL0     H60297   4.952   2.863  10.231 -0.5985  0.4078 -1.3397
  447MOL0     H60298   4.939   3.013  10.307  3.1164 -2.8487  0.9564
  447MOL0     H60299   4.815   2.857  10.460 -4.8742  3.1453  2.8934
  447MOL0     H60300   4.709   2.975  10.385  0.1362  1.4999  0.1270
  447MOL0     H60301   4.621   2.796  10.224  0.0035  0.7777 -0.3031
  447MOL0     H60302   4.620   2.754  10.400 -0.0733  0.7495  0.4037
  447MOL0     H60303   4.679   2.553  10.272  4.0793 -3.0960 -1.1837
  447MOL0     H60304   4.835   2.631  10.334  1.9966  1.6219 -1.8652
  447MOL0     H60305   4.889   2.687   9.926 -0.0576 -0.3687  0.9666
  447MOL0     H60306   5.040   2.521   9.792  0.3991  0.2539  0.8944
  447MOL0     H60307   5.353   2.048  10.043 -0.6402 -1.1191  0.0430
  447MOL0     H60308   5.543   1.908   9.927  1.1490  2.7681  1.4257
  447MOL0     H60309   5.501   1.808   9.486 -1.8155  0.7149  3.2541
  447MOL0     H60310   5.592   1.951   9.508  0.3460  0.0134 -0.0318
  447MOL0     H60311   5.724   1.795   9.388  1.0879  1.5368  0.7454
  447MOL0     H60312   5.799   1.824   9.553  2.3295 -0.6516 -3.4205
  447MOL0     H60313   5.676   1.599   9.600  0.3703 -2.0096 -0.3254
  447MOL0     H60314   5.621   1.591   9.438  0.7095  1.5110 -1.0739
  447MOL0     H60315   5.906   1.559   9.549  0.4340 -0.0082 -0.0763
  447MOL0     H60316   5.906   1.626   9.392 -0.4146 -0.7058 -0.3408
  447MOL0     H60317   5.953   1.399   9.388  0.6973  0.5246 -2.8872
  447MOL0     H60318   5.810   1.441   9.289  0.0963  0.6121  0.1478
  447MOL0     H60319   5.808   1.351   9.581 -0.4280  2.3121 -0.0925
  447MOL0     H60320   5.663   1.347   9.481  0.2559  1.7442 -0.9341
  447MOL0     H60321   5.907   1.164   9.442  0.1645 -2.2989  1.1072
  447MOL0     H60322   5.750   1.152   9.361 -0.9758  1.7134 -0.2898
  447MOL0     H60323   5.774   0.996   9.561  4.0274  0.7300  0.6511
  447MOL0     H60324   5.781   1.139   9.672 -0.4512  0.4378  0.8536
  447MOL0     H60325   5.362   1.993   9.540  1.1302 -1.1986  0.2599
  447MOL0     H60326   5.205   2.140   9.652  1.0457  2.3692  1.1500
  447MOL0     H60327   5.019   2.248  10.123  0.0668 -0.1535 -0.3992
  447MOL0     H60328   4.877   2.400  10.249  0.5700  3.6381  2.1573
  447MOL0     H60329   3.725   3.781   9.592 -0.3094  0.5998 -0.6533
  447MOL0     H60330   3.697   3.991   9.461 -0.6233 -0.9032  3.6353
  447MOL0     H60331   3.785   4.321   9.395  1.4801 -1.7346 -0.1576
  447MOL0     H60332   3.718   4.561   9.397 -0.7321  1.1394 -0.8494
  447MOL0     H60333   3.623   4.693   9.253  1.8965 -2.1183  1.1123
  447MOL0     H60334   3.686   4.703   9.082  3.5902  0.8929 -0.0815
  447MOL0     H60335   3.705   4.955   9.114  0.8046 -2.3170 -1.8239
  447MOL0     H60336   3.653   4.928   9.280  0.4299 -1.5823  0.0191
  447MOL0     H60337   3.447   5.004   9.181  0.5223  0.6573  0.1844
  447MOL0     H60338   3.445   4.813   9.166 -0.2361  0.2732 -0.4709
  447MOL0     H60339   3.562   4.837   8.951  0.2720 -0.5755  0.5774
  447MOL0     H60340   3.386   4.865   8.958  0.5589 -0.1865  1.2753
  447MOL0     H60341   3.591   5.229   8.832  1.4990 -0.2773  0.0556
  447MOL0     H60342   4.027   4.642   9.119 -2.0984  1.1951 -0.5283
  447MOL0     H60343   4.198   4.497   9.067  1.3018 -0.3229 -0.9387
  447MOL0     H60344   4.221   4.349   9.172  2.4310  0.7679 -1.3556
  447MOL0     H60345   4.120   4.341   9.022 -0.8581  0.4543  0.0346
  448MOL0     O60346   9.129   6.675   5.606 -0.4776 -0.5639 -0.0497
  448MOL0     C60347   9.161   6.704   5.493  0.3709 -0.8850  0.2251
  448MOL0     O60348   9.274   6.764   5.465 -0.4541 -0.0862  0.0055
  448MOL0     C60349   9.365   6.785   5.569 -0.1783  0.2528  0.3027
  448MOL0     C60350   9.479   6.701   5.583 -0.4665  0.3215 -0.7379
  448MOL0     C60351   9.576   6.721   5.690  1.1344  0.5925  0.1788
  448MOL0     C60352   9.556   6.823   5.783 -0.0782 -0.8084 -0.1571
  448MOL0     O60353   9.642   6.846   5.892 -0.3505  0.1187  0.0140
  448MOL0     C60354   9.776   6.885   5.858 -0.3589 -0.1390 -0.0946
  448MOL0     C60355   9.842   6.953   5.974 -0.0399 -0.3776  0.7104
  448MOL0     C60356   9.995   6.986   5.969 -0.3142  0.5635 -0.2294
  448MOL0     C60357  10.036   7.085   5.858  0.1818  0.8733  0.6714
  448MOL0     C60358  10.151   7.162   5.914 -0.3734  0.1561  0.2478
  448MOL0     C60359  10.217   7.243   5.810  0.2332 -0.7254 -0.0910
  448MOL0     C60360  10.304   7.364   5.860 -0.9280 -0.0249  0.0824
  448MOL0     C60361  10.371   7.427   5.735 -0.6280  0.4663  0.0403
  448MOL0     N60362  10.480   7.520   5.775  0.1609  0.2191  0.7829
  448MOL0     C60363  10.612   7.478   5.770  0.0294  0.1136  0.0535
  448MOL0     C60364  10.673   7.598   5.805  0.0151 -0.2049  0.0943
  448MOL0     C60365  10.819   7.618   5.824  0.0528  0.4827 -0.4661
  448MOL0     C60366  10.882   7.500   5.895  0.5216  0.8148 -0.1372
  448MOL0     C60367  11.005   7.524   5.971  0.5037  0.4014 -0.0752
  448MOL0     C60368  11.059   7.390   6.022  0.1074  0.1139 -0.1436
  448MOL0     O60369  11.171   7.421   6.104  0.4262  0.4265  0.4174
  448MOL0     C60370  11.176   7.346   6.221 -0.2011 -0.1222 -0.0864
  448MOL0     C60371  11.239   7.410   6.337 -0.6992  0.4120  0.0492
  448MOL0     C60372  11.267   7.329   6.453 -0.4939 -0.0117  0.2805
  448MOL0     C60373  11.235   7.194   6.458 -0.3622 -0.7806  0.1206
  448MOL0     C60374  11.286   7.111   6.567  0.5200  0.0696  0.2888
  448MOL0     O60375  11.310   7.180   6.681 -0.0037  0.3696 -0.0677
  448MOL0     C60376  11.394   7.122   6.781 -0.7149  0.1506  0.3826
  448MOL0     C60377  11.484   7.206   6.856 -0.2117 -0.6799  1.0578
  448MOL0     C60378  11.573   7.156   6.946 -0.0396 -0.5828  0.3922
  448MOL0     C60379  11.568   7.018   6.967 -0.3466 -0.6730  0.1321
  448MOL0     O60380  11.651   6.955   7.058  0.5525 -0.6082  0.2460
  448MOL0     C60381  11.781   7.014   7.063  0.3763  0.8802  0.7734
  448MOL0     C60382  11.844   6.913   7.151 -0.9225 -0.6162  0.0350
  448MOL0     C60383  11.985   6.958   7.175  0.0540 -0.2728  0.3481
  448MOL0     C60384  12.055   6.857   7.266 -0.1025  0.4912  0.0998
  448MOL0     C60385  12.204   6.850   7.246  1.1022 -0.1963  0.2458
  448MOL0     C60386  12.268   6.960   7.329 -0.6184 -0.0777 -0.4728
  448MOL0     C60387  12.419   6.951   7.318 -0.6028  0.7856  0.7750
  448MOL0     C60388  12.494   7.004   7.436 -0.2014  0.3759 -0.5239
  448MOL0    Cl60389  12.674   6.983   7.419  0.0126  0.0260  0.0725
  448MOL0     C60390  11.465   6.936   6.914  0.6347 -0.7876 -0.0716
  448MOL0     C60391  11.380   6.989   6.819 -0.1334 -0.1889  1.0460
  448MOL0     O60392  11.310   6.993   6.553  0.1109  0.1561  0.6103
  448MOL0     C60393  11.171   7.137   6.356  0.0811 -0.2921 -0.4633
  448MOL0     C60394  11.135   7.208   6.235 -0.2564 -0.3122 -0.9497
  448MOL0     N60395  10.583   7.702   5.823 -1.0718 -0.8121  0.5618
  448MOL0     N60396  10.464   7.657   5.790 -0.1785 -0.2928 -1.4163
  448MOL0     C60397   9.449   6.907   5.765  0.4938  0.5370  0.6510
  448MOL0     C60398   9.351   6.895   5.661 -0.6111  0.6183  0.2463
  448MOL0     C60399   9.053   6.699   5.391 -0.2597  0.1019 -0.0978
  448MOL0     C60400   9.053   6.794   5.292  0.2121 -0.6084  0.1910
  448MOL0     C60401   8.957   6.798   5.189  0.1105 -0.0017 -0.3745
  448MOL0     C60402   8.848   6.705   5.183 -0.5172 -0.3181  0.3011
  448MOL0     O60403   8.762   6.693   5.079  0.1594  0.1883 -0.0060
  448MOL0     C60404   8.721   6.805   5.010  0.7206 -0.3535 -0.0462
  448MOL0     C60405   8.780   6.802   4.872 -0.4867  0.1083 -0.0315
  448MOL0     C60406   8.744   6.933   4.791  0.2290 -0.1304  0.0428
  448MOL0     C60407   8.601   6.990   4.785 -0.6659  0.5134  0.8192
  448MOL0     C60408   8.506   6.897   4.728  0.5394  0.5636 -0.7024
  448MOL0     C60409   8.424   6.824   4.678 -0.0589  0.1703 -0.2068
  448MOL0     C60410   8.844   6.619   5.285  0.2535 -0.1960 -0.7977
  448MOL0     C60411   8.940   6.607   5.392  0.1648 -0.8432  0.2854
  448MOL0     C60412   8.931   6.499   5.492 -0.2480  0.1165  0.0969
  448MOL0     H60413   9.487   6.617   5.515 -1.3460 -1.5618  1.3577
  448MOL0     H60414   9.658   6.653   5.706  0.0835 -0.3292  1.9659
  448MOL0     H60415   9.836   6.794   5.845 -2.2009 -1.3020 -0.7466
  448MOL0     H60416   9.775   6.948   5.769  0.7654 -0.7691 -0.5684
  448MOL0     H60417   9.823   6.885   6.057 -0.6817 -1.4536 -0.2893
  448MOL0     H60418   9.789   7.049   5.985  1.6729  0.9809 -1.8567
  448MOL0     H60419  10.055   6.894   5.965  4.1149  3.1667 -0.5260
  448MOL0     H60420  10.012   7.019   6.071  1.8088 -0.6382 -0.1361
  448MOL0     H60421  10.049   7.035   5.762 -1.8351 -0.5674  1.0784
  448MOL0     H60422   9.958   7.162   5.851 -1.3156 -0.6370  0.2063
  448MOL0     H60423  10.117   7.225   5.997  0.7194 -0.7435  1.4169
  448MOL0     H60424  10.216   7.088   5.960  0.3405  0.8417  0.3677
  448MOL0     H60425  10.277   7.172   5.752  0.8143 -0.5748  0.3205
  448MOL0     H60426  10.146   7.287   5.739 -0.8675 -1.2351  0.6610
  448MOL0     H60427  10.381   7.334   5.932 -0.2914 -1.7601 -1.2520
  448MOL0     H60428  10.246   7.435   5.919 -2.6216 -2.0138  0.9360
  448MOL0     H60429  10.414   7.355   5.664  1.3691  1.3113  0.3398
  448MOL0     H60430  10.289   7.484   5.690 -0.7547 -0.4009 -0.8846
  448MOL0     H60431  10.654   7.378   5.772 -0.4697 -0.0922  1.1134
  448MOL0     H60432  10.876   7.622   5.731 -0.1181 -1.6442 -0.7239
  448MOL0     H60433  10.834   7.710   5.882 -2.5766  0.9851 -0.4976
  448MOL0     H60434  10.816   7.477   5.978  0.3850  0.6593 -0.2866
  448MOL0     H60435  10.895   7.419   5.822  1.8467 -1.1321  2.1048
  448MOL0     H60436  10.990   7.601   6.048  0.0957  0.1592  0.0921
  448MOL0     H60437  11.079   7.557   5.897  0.0587 -1.7761 -1.5926
  448MOL0     H60438  11.077   7.324   5.936  1.8628 -0.3004  0.4815
  448MOL0     H60439  10.985   7.350   6.092 -1.6986  3.3448 -0.0452
  448MOL0     H60440  11.272   7.513   6.341 -0.3477  0.2562  2.2739
  448MOL0     H60441  11.312   7.384   6.535  1.1163  0.0914 -0.6163
  448MOL0     H60442  11.494   7.310   6.824  0.4449 -1.4290 -1.4210
  448MOL0     H60443  11.633   7.218   7.012 -0.1162  0.3208 -0.3650
  448MOL0     H60444  11.825   7.019   6.962 -2.5598  5.1737 -0.5801
  448MOL0     H60445  11.783   7.109   7.118 -0.1742  1.4686 -0.1856
  448MOL0     H60446  11.793   6.907   7.248 -0.9675  1.7436  0.1999
  448MOL0     H60447  11.854   6.813   7.107  2.7130  0.0189 -0.8312
  448MOL0     H60448  12.035   6.957   7.078  0.2581 -1.1216  0.4558
  448MOL0     H60449  11.986   7.057   7.221 -1.2353 -0.0438 -0.0516
  448MOL0     H60450  12.012   6.757   7.255  1.0889 -0.7837  4.9816
  448MOL0     H60451  12.037   6.877   7.372  3.0611  2.7922  0.3642
  448MOL0     H60452  12.228   6.872   7.141  1.3190  1.2608  0.5701
  448MOL0     H60453  12.235   6.750   7.276 -1.1537 -1.3484 -1.0447
  448MOL0     H60454  12.227   7.058   7.303 -0.7681  0.0340  0.1580
  448MOL0     H60455  12.247   6.961   7.437  1.2849  0.5140 -0.0853
  448MOL0     H60456  12.442   7.016   7.233 -1.2465  2.2411  1.6729
  448MOL0     H60457  12.457   6.851   7.293 -0.9178  0.9185 -0.3122
  448MOL0     H60458  12.470   7.110   7.454  3.1067  1.4167 -1.3788
  448MOL0     H60459  12.475   6.948   7.528  1.5479  0.6543  0.0543
  448MOL0     H60460  11.454   6.831   6.941 -2.2981  0.1403  3.0483
  448MOL0     H60461  11.302   6.925   6.781  1.6052 -0.9388 -1.5041
  448MOL0     H60462  11.153   7.030   6.360  3.2623 -0.8827  1.9326
  448MOL0     H60463  11.102   7.151   6.149 -0.7296 -1.2571 -0.1754
  448MOL0     H60464   9.439   6.983   5.843 -0.3043 -0.6796  1.7892
  448MOL0     H60465   9.262   6.956   5.651 -0.9027 -0.0472 -1.5945
  448MOL0     H60466   9.124   6.875   5.305 -0.8674  0.5528 -0.8392
  448MOL0     H60467   8.972   6.876   5.115 -1.4364 -1.1415 -1.9581
  448MOL0     H60468   8.751   6.896   5.063  0.4717 -0.2720 -0.0456
  448MOL0     H60469   8.612   6.799   5.014  0.8648 -3.2591  2.4560
  448MOL0     H60470   8.743   6.718   4.814  0.2132 -1.2445  1.4020
  448MOL0     H60471   8.890   6.803   4.871 -0.4280  2.9829 -1.7712
  448MOL0     H60472   8.778   6.917   4.688  1.7228 -2.4872  0.8326
  448MOL0     H60473   8.806   7.013   4.832 -0.9804  1.4343 -1.0599
  448MOL0     H60474   8.564   7.011   4.886 -5.0051 -2.5367  0.1688
  448MOL0     H60475   8.598   7.081   4.726 -0.2692 -0.6734 -1.1043
  448MOL0     H60476   8.344   6.755   4.659 -1.2544  0.7502  2.2555
  448MOL0     H60477   8.758   6.553   5.290  0.1245  0.0479  0.8442
  448MOL0     H60478   8.888   6.405   5.457  2.7290 -1.7666  1.1274
  448MOL0     H60479   9.029   6.475   5.533  0.2428 -0.9201 -1.5724
  448MOL0     H60480   8.856   6.529   5.566 -0.6694  0.2992 -0.3924
  449MOL0     O60481   1.002   7.462   4.726  0.6207  0.1332 -0.0870
  449MOL0     C60482   0.973   7.575   4.692 -0.3464 -0.6817  0.0201
  449MOL0     O60483   1.060   7.679   4.670 -1.0513  0.4623  0.3148
  449MOL0     C60484   1.192   7.661   4.677  0.7579  0.3113 -0.3689
  449MOL0     C60485   1.270   7.709   4.568 -0.3600 -0.1990  0.3992
  449MOL0     C60486   1.408   7.695   4.564  0.4267  0.7322 -0.1954
  449MOL0     C60487   1.470   7.629   4.669  0.5299 -0.0652 -0.2242
  449MOL0     O60488   1.606   7.612   4.645  0.1322 -0.1495  1.2428
  449MOL0     C60489   1.679   7.537   4.745 -0.3150 -0.9645 -0.6168
  449MOL0     C60490   1.818   7.504   4.690 -0.1173 -0.8678  0.2291
  449MOL0     C60491   1.923   7.594   4.746  0.2417 -0.1004  0.6271
  449MOL0     C60492   2.056   7.578   4.683  0.1137 -0.1050 -0.1502
  449MOL0     C60493   2.149   7.677   4.749  0.0036 -0.9485  0.0527
  449MOL0     C60494   2.295   7.659   4.709  0.5055 -0.1812  0.3748
  449MOL0     C60495   2.393   7.766   4.762  0.3693 -0.5595  1.0827
  449MOL0     C60496   2.543   7.722   4.739 -0.3501 -0.1827  0.3821
  449MOL0     N60497   2.651   7.827   4.752 -0.4413  0.3951  0.2802
  449MOL0     C60498   2.682   7.896   4.864 -0.0463 -0.1552  0.6674
  449MOL0     C60499   2.794   7.962   4.835  0.0088  0.8029  0.5190
  449MOL0     C60500   2.866   8.049   4.928  0.1692  0.3604  0.2291
  449MOL0     C60501   2.962   8.149   4.860  0.1000  0.4538  0.1927
  449MOL0     C60502   3.007   8.262   4.961  0.0752  0.7475  0.4255
  449MOL0     C60503   3.093   8.379   4.908 -0.0480  0.0579  0.7411
  449MOL0     O60504   3.213   8.318   4.866 -0.2105 -0.3059 -0.4817
  449MOL0     C60505   3.324   8.397   4.863  0.8139  0.5670 -0.1262
  449MOL0     C60506   3.440   8.339   4.808 -1.5273  0.5953 -0.6771
  449MOL0     C60507   3.569   8.404   4.795 -0.2625  0.4581  0.8494
  449MOL0     C60508   3.578   8.542   4.829  0.1545 -0.0281  1.0437
  449MOL0     C60509   3.702   8.622   4.805  1.0125  0.1342  0.2370
  449MOL0     O60510   3.804   8.562   4.730 -0.5758  1.0239  0.1948
  449MOL0     C60511   3.929   8.624   4.720 -0.2120 -0.1403 -0.6807
  449MOL0     C60512   3.993   8.614   4.595  0.3571  0.4505  0.2720
  449MOL0     C60513   4.119   8.684   4.573 -0.2763 -0.9198  0.0657
  449MOL0     C60514   4.188   8.753   4.674  0.5861 -0.6364  0.0626
  449MOL0     O60515   4.324   8.795   4.677  0.6218 -0.2292  0.4464
  449MOL0     C60516   4.349   8.858   4.548  0.1695  0.6215 -0.0971
  449MOL0     C60517   4.437   8.979   4.563 -0.0312 -0.9058 -0.6828
  449MOL0     C60518   4.487   9.039   4.427 -0.0505  0.2550 -0.8567
  449MOL0     C60519   4.586   8.960   4.346 -0.2938 -0.8220  0.3904
  449MOL0     C60520   4.661   9.054   4.249 -1.0479  0.2711 -0.1067
  449MOL0     C60521   4.736   8.981   4.138  0.7190  0.6283  0.4458
  449MOL0     C60522   4.838   8.875   4.180  0.9327  0.3256 -0.6833
  449MOL0     C60523   4.941   8.931   4.284  0.4168 -0.3623 -0.5534
  449MOL0    Cl60524   5.058   8.799   4.329  0.3279 -0.5742  0.7063
  449MOL0     C60525   4.119   8.753   4.800 -0.4432 -0.4693 -0.0432
  449MOL0     C60526   3.996   8.694   4.827  0.1372  0.2892 -0.1530
  449MOL0     O60527   3.699   8.736   4.848  0.6559  0.2156  0.1065
  449MOL0     C60528   3.457   8.603   4.875 -0.4922 -0.2107 -0.0368
  449MOL0     C60529   3.332   8.535   4.886 -0.0235 -0.0991 -0.6451
  449MOL0     N60530   2.827   7.939   4.704  0.2630  0.8247 -0.2813
  449MOL0     N60531   2.736   7.868   4.650  0.2289  0.0542 -0.1850
  449MOL0     C60532   1.394   7.581   4.778  0.2981 -0.4042  0.2438
  449MOL0     C60533   1.256   7.597   4.788 -0.7883  0.2434  0.6460
  449MOL0     C60534   0.835   7.598   4.676 -0.1864 -0.9476  0.2474
  449MOL0     C60535   0.796   7.733   4.705 -0.1570 -0.2438 -0.0580
  449MOL0     C60536   0.667   7.781   4.693 -0.3362 -0.7163 -0.2607
  449MOL0     C60537   0.570   7.704   4.635 -0.2938 -0.4259  0.3566
  449MOL0     O60538   0.454   7.763   4.596  0.5851  0.2002 -0.3229
  449MOL0     C60539   0.327   7.689   4.597 -0.6881 -1.7880 -0.4325
  449MOL0     C60540   0.206   7.777   4.605 -0.0113 -0.0304 -0.9810
  449MOL0     C60541   0.179   7.854   4.476 -0.3603  0.5953  0.7612
  449MOL0     C60542   0.067   7.955   4.474 -0.0759  0.3721  0.3239
  449MOL0     C60543  -0.061   7.883   4.491  0.5896  0.0326 -0.0030
  449MOL0     C60544  -0.170   7.833   4.496  0.3502  0.2158  0.1790
  449MOL0     C60545   0.600   7.566   4.613  0.3467  0.4542 -0.1609
  449MOL0     C60546   0.730   7.508   4.640  0.9053  0.3505 -0.8831
  449MOL0     C60547   0.748   7.369   4.599 -0.2329  0.3967  0.2910
  449MOL0     H60548   1.214   7.748   4.484 -0.7864  0.6147  1.0399
  449MOL0     H60549   1.468   7.737   4.484 -1.1309  0.9788 -1.2654
  449MOL0     H60550   1.692   7.596   4.836 -1.5476 -0.4045 -0.7980
  449MOL0     H60551   1.636   7.441   4.775  0.3240 -1.5875 -1.6141
  449MOL0     H60552   1.813   7.522   4.583 -2.0197 -2.5744 -0.0416
  449MOL0     H60553   1.839   7.399   4.714 -2.7804 -2.1702 -2.5630
  449MOL0     H60554   1.935   7.585   4.855  0.0244 -0.9769  0.5875
  449MOL0     H60555   1.901   7.700   4.728 -1.5177 -0.6217 -0.6225
  449MOL0     H60556   2.093   7.477   4.703 -1.1778 -1.0248 -2.1506
  449MOL0     H60557   2.057   7.599   4.576 -0.9351 -0.9751 -0.3537
  449MOL0     H60558   2.120   7.779   4.719  0.6787 -1.2852 -1.8946
  449MOL0     H60559   2.138   7.674   4.858 -1.7590 -0.2037 -0.0627
  449MOL0     H60560   2.333   7.562   4.744 -1.6110 -1.7430 -1.3791
  449MOL0     H60561   2.304   7.664   4.600 -0.1064 -2.9186  0.1174
  449MOL0     H60562   2.374   7.792   4.867 -1.7761  3.6825 -0.1763
  449MOL0     H60563   2.378   7.855   4.702  1.8158 -1.5027 -0.7985
  449MOL0     H60564   2.562   7.643   4.812  0.1488 -1.9776 -1.5966
  449MOL0     H60565   2.548   7.694   4.634 -4.5535  0.3596 -0.1262
  449MOL0     H60566   2.645   7.884   4.965 -0.7323  0.7017  0.5327
  449MOL0     H60567   2.792   8.105   4.986  1.8338  1.1325  1.7338
  449MOL0     H60568   2.937   7.999   4.995 -1.0769  0.4714  1.6782
  449MOL0     H60569   3.046   8.091   4.821 -1.4932 -1.7793 -0.0850
  449MOL0     H60570   2.918   8.205   4.777 -3.2697  1.8498  2.6675
  449MOL0     H60571   3.063   8.209   5.038  1.9147  0.3850 -1.0810
  449MOL0     H60572   2.914   8.304   5.000 -0.7279  0.4862 -1.1225
  449MOL0     H60573   3.102   8.442   4.997  0.8393  1.6400 -0.4170
  449MOL0     H60574   3.044   8.440   4.831 -2.9449 -2.7112  0.2090
  449MOL0     H60575   3.421   8.239   4.771  0.4901 -0.8392  1.8130
  449MOL0     H60576   3.646   8.339   4.754 -2.1458 -1.3112 -0.0505
  449MOL0     H60577   3.949   8.562   4.510 -0.9814  0.6707  0.8200
  449MOL0     H60578   4.170   8.680   4.478 -1.2596  1.3341 -0.6369
  449MOL0     H60579   4.413   8.794   4.487 -2.0211 -0.5611 -1.2861
  449MOL0     H60580   4.265   8.895   4.489  0.6599  0.7545 -0.7195
  449MOL0     H60581   4.379   9.052   4.620 -1.7459 -0.8557 -2.3636
  449MOL0     H60582   4.520   8.954   4.630 -0.8157 -1.2174  0.1930
  449MOL0     H60583   4.404   9.053   4.358 -0.6274  0.8537 -0.0648
  449MOL0     H60584   4.528   9.139   4.442  0.0904 -0.0545  1.0698
  449MOL0     H60585   4.522   8.883   4.301 -0.1333 -1.1603  0.7317
  449MOL0     H60586   4.662   8.906   4.405  0.0790 -0.6039  0.1122
  449MOL0     H60587   4.734   9.124   4.293  0.7801 -0.2387 -2.1618
  449MOL0     H60588   4.594   9.124   4.198  0.2198  1.3352 -0.3699
  449MOL0     H60589   4.669   8.926   4.071 -0.4484  1.0441  1.2384
  449MOL0     H60590   4.789   9.061   4.085  0.1781  1.7869  1.5992
  449MOL0     H60591   4.889   8.851   4.086 -0.0219  1.3620 -1.4857
  449MOL0     H60592   4.778   8.796   4.226  0.6071  1.4859  0.9621
  449MOL0     H60593   4.995   9.020   4.249 -0.9812  0.8862  0.3431
  449MOL0     H60594   4.893   8.957   4.378  0.8302  0.7752 -0.6423
  449MOL0     H60595   4.156   8.803   4.888 -1.5877 -1.3321  0.9668
  449MOL0     H60596   3.950   8.707   4.925 -0.6674  0.5972 -0.5671
  449MOL0     H60597   3.467   8.706   4.906  0.7527  0.0566 -1.2252
  449MOL0     H60598   3.242   8.573   4.932  0.8669 -0.1661  1.2480
  449MOL0     H60599   1.434   7.515   4.855 -2.0064 -0.8481  1.1648
  449MOL0     H60600   1.185   7.565   4.864 -1.3713  0.8066  0.3523
  449MOL0     H60601   0.872   7.808   4.723 -1.1821  0.2623  2.8043
  449MOL0     H60602   0.654   7.885   4.719  0.3373 -1.0710  1.6367
  449MOL0     H60603   0.323   7.624   4.685  1.1248  1.3254  2.1869
  449MOL0     H60604   0.330   7.625   4.508 -0.7211 -1.8990 -0.3542
  449MOL0     H60605   0.219   7.857   4.679 -1.2061 -0.1538 -0.6177
  449MOL0     H60606   0.129   7.716   4.653 -0.5023 -2.7461 -4.8363
  449MOL0     H60607   0.154   7.787   4.393 -1.9353 -0.2005  1.8153
  449MOL0     H60608   0.267   7.912   4.447  0.3028 -1.1354 -0.9609
  449MOL0     H60609   0.085   8.031   4.551  2.4746 -0.3502  0.5499
  449MOL0     H60610   0.067   8.008   4.378 -0.0727 -1.3182 -0.6647
  449MOL0     H60611  -0.266   7.786   4.486  0.1497 -0.0261  2.5744
  449MOL0     H60612   0.527   7.498   4.571  0.5730  0.4559 -0.5536
  449MOL0     H60613   0.804   7.314   4.676 -1.4136 -2.4110 -0.7221
  449MOL0     H60614   0.649   7.322   4.597 -0.0823  0.0590  0.6029
  449MOL0     H60615   0.801   7.386   4.505 -0.7598  1.6122  0.1927
  450MOL0     O60616   9.376   4.220  10.216 -0.1247 -0.0919 -0.4024
  450MOL0     C60617   9.371   4.103  10.238  0.0173 -0.3422 -0.5627
  450MOL0     O60618   9.478   4.020  10.239 -0.9748 -0.3415 -0.3410
  450MOL0     C60619   9.602   4.079  10.190  0.2234 -0.6045 -0.1185
  450MOL0     C60620   9.699   4.136  10.275  0.5874  0.5080 -0.5092
  450MOL0     C60621   9.824   4.169  10.235  0.9402 -0.1390 -0.2836
  450MOL0     C60622   9.866   4.145  10.106 -0.0564 -0.5441  0.5753
  450MOL0     O60623   9.993   4.181  10.086  0.3560 -0.2977  0.0602
  450MOL0     C60624  10.064   4.155   9.959  0.6935  0.4745  0.0243
  450MOL0     C60625  10.189   4.236   9.956  0.4313  0.0381 -0.0493
  450MOL0     C60626  10.270   4.210   9.837 -0.2320  0.2295  0.1983
  450MOL0     C60627  10.389   4.304   9.840 -0.5094 -0.2038 -0.0975
  450MOL0     C60628  10.475   4.270   9.715 -0.0396  0.7655 -0.5382
  450MOL0     C60629  10.591   4.357   9.701  0.1393  0.5547 -1.0710
  450MOL0     C60630  10.690   4.317   9.588 -0.6189 -0.3574 -0.1714
  450MOL0     C60631  10.828   4.388   9.597  0.0985  0.6440 -0.1423
  450MOL0     N60632  10.910   4.326   9.693 -0.1243 -0.1396  0.0241
  450MOL0     C60633  11.051   4.343   9.697  0.0825 -0.1005  0.1176
  450MOL0     C60634  11.087   4.318   9.822 -0.2131  0.5206  0.5246
  450MOL0     C60635  11.227   4.339   9.883 -0.5378 -0.6984 -0.0229
  450MOL0     C60636  11.292   4.471   9.836  0.6160 -0.4099  0.5658
  450MOL0     C60637  11.434   4.487   9.884 -0.3971 -0.4282 -1.1031
  450MOL0     C60638  11.473   4.449  10.034  0.2871 -0.2804 -0.0110
  450MOL0     O60639  11.548   4.325  10.035 -0.5073 -0.3676  0.4463
  450MOL0     C60640  11.682   4.316  10.028 -0.0304 -0.0142 -0.5083
  450MOL0     C60641  11.767   4.432  10.029  0.1065 -0.0287  0.1031
  450MOL0     C60642  11.903   4.418  10.017 -0.6088 -0.6599  0.5379
  450MOL0     C60643  11.960   4.284  10.021 -0.2034 -1.3495  0.7950
  450MOL0     C60644  12.106   4.268  10.013  0.2629 -0.3028 -0.5109
  450MOL0     O60645  12.161   4.145  10.035  0.0291  0.0647 -0.2107
  450MOL0     C60646  12.293   4.135  10.032  0.4090  0.4430  0.3732
  450MOL0     C60647  12.364   4.129   9.906  0.5028 -0.3676  0.3984
  450MOL0     C60648  12.503   4.126   9.905 -0.2614  0.3447  0.0589
  450MOL0     C60649  12.572   4.099  10.031 -0.1618 -0.4260  0.9337
  450MOL0     O60650  12.712   4.089  10.032 -0.4003 -0.3843  0.2793
  450MOL0     C60651  12.774   4.171  10.140  0.4811  0.7628 -0.1616
  450MOL0     C60652  12.870   4.084  10.224 -0.2071  0.2240  0.3575
  450MOL0     C60653  12.992   4.032  10.148 -0.2691 -0.1280  0.4849
  450MOL0     C60654  13.023   3.889  10.176 -0.3545  0.1668  0.9163
  450MOL0     C60655  13.135   3.823  10.091 -0.4350 -0.2447 -0.1613
  450MOL0     C60656  13.277   3.878  10.129 -0.0236  0.2287 -0.4328
  450MOL0     C60657  13.381   3.815  10.032  0.0902  0.5238  0.4264
  450MOL0     C60658  13.510   3.835  10.100  0.1471 -0.6091 -0.8419
  450MOL0    Cl60659  13.524   4.010  10.148  0.2635 -0.0609  0.0478
  450MOL0     C60660  12.498   4.086  10.149 -0.1496 -0.0843  0.8787
  450MOL0     C60661  12.355   4.101  10.153 -0.5089 -0.7333  0.0358
  450MOL0     O60662  12.166   4.372   9.998  0.1640  0.0057  0.3449
  450MOL0     C60663  11.877   4.174  10.030  0.1791  0.3353 -0.1091
  450MOL0     C60664  11.739   4.186  10.022 -0.2388  0.1265 -0.3923
  450MOL0     N60665  10.978   4.292   9.896  0.0598  0.0908  0.1066
  450MOL0     N60666  10.877   4.307   9.822  0.4229  0.6485 -0.1690
  450MOL0     C60667   9.777   4.084  10.016 -0.6034  0.4998 -0.0962
  450MOL0     C60668   9.645   4.052  10.058 -0.0453 -0.6446  0.4844
  450MOL0     C60669   9.238   4.025  10.255 -0.0164  0.3906 -0.0819
  450MOL0     C60670   9.231   3.892  10.191 -0.5735  0.6339 -0.3636
  450MOL0     C60671   9.136   3.796  10.222 -0.1460  0.1790 -0.2881
  450MOL0     C60672   9.025   3.834  10.299  0.0922  0.3533  0.7557
  450MOL0     O60673   8.914   3.750  10.333 -0.1120  0.6549  0.2934
  450MOL0     C60674   8.919   3.614  10.288  1.1143 -0.7894  0.9607
  450MOL0     C60675   8.781   3.540  10.296  0.0827  0.5600 -0.0130
  450MOL0     C60676   8.682   3.600  10.198 -0.0242 -0.3357 -0.2968
  450MOL0     C60677   8.558   3.511  10.190  0.5547 -0.1935  0.4364
  450MOL0     C60678   8.465   3.583  10.099  0.4259 -0.7042  0.5956
  450MOL0     C60679   8.404   3.644  10.014  0.5950 -0.0906 -0.0199
  450MOL0     C60680   9.024   3.971  10.356 -0.6607 -0.2553  0.1418
  450MOL0     C60681   9.123   4.062  10.327 -0.0797 -0.2308 -0.4181
  450MOL0     C60682   9.098   4.192  10.394  0.1295  0.9111  0.2019
  450MOL0     H60683   9.661   4.149  10.376 -0.4579 -0.4528 -0.7457
  450MOL0     H60684   9.890   4.206  10.313 -1.4250  0.8565  1.3453
  450MOL0     H60685  10.083   4.048   9.950 -1.8918  0.0014 -0.7697
  450MOL0     H60686   9.995   4.171   9.876 -0.3692 -1.2769  0.5074
  450MOL0     H60687  10.255   4.214  10.040  2.4243  0.7605 -1.3493
  450MOL0     H60688  10.161   4.341   9.965 -0.1894  0.0471 -1.7041
  450MOL0     H60689  10.212   4.227   9.746 -1.0948 -1.8913  0.2745
  450MOL0     H60690  10.311   4.109   9.847 -1.3383 -0.2188  0.3972
  450MOL0     H60691  10.354   4.407   9.834 -1.0536 -0.3295  0.7451
  450MOL0     H60692  10.439   4.286   9.936  1.7394 -1.9262 -1.4864
  450MOL0     H60693  10.508   4.166   9.715 -2.9370 -0.2505 -0.2876
  450MOL0     H60694  10.424   4.276   9.619  0.9929 -2.1044 -1.3650
  450MOL0     H60695  10.552   4.458   9.682 -0.8574 -0.1282 -2.8872
  450MOL0     H60696  10.648   4.355   9.794 -0.8765  0.5003 -0.4304
  450MOL0     H60697  10.647   4.326   9.488  2.8942  3.7914 -1.6237
  450MOL0     H60698  10.700   4.210   9.608 -1.6786 -0.5173 -0.4200
  450MOL0     H60699  10.882   4.370   9.504 -0.3531 -3.0680  0.1586
  450MOL0     H60700  10.817   4.496   9.614 -1.2209  0.8525 -2.0506
  450MOL0     H60701  11.097   4.390   9.610 -3.2281 -0.9590 -2.3100
  450MOL0     H60702  11.215   4.347   9.991 -2.2313 -1.4348 -0.1239
  450MOL0     H60703  11.288   4.250   9.865  0.7954  0.4534 -1.5090
  450MOL0     H60704  11.300   4.471   9.727  1.9640 -0.4358  0.6509
  450MOL0     H60705  11.237   4.559   9.871  3.4147  2.0277 -0.7898
  450MOL0     H60706  11.464   4.593   9.879 -2.9822  0.3923 -0.4804
  450MOL0     H60707  11.495   4.429   9.814 -0.4782 -1.4905 -0.3243
  450MOL0     H60708  11.390   4.428  10.103 -0.5792  0.6995 -0.7361
  450MOL0     H60709  11.514   4.537  10.084 -2.6516  0.9889  0.3813
  450MOL0     H60710  11.728   4.533  10.034 -2.2396 -0.8379 -0.3916
  450MOL0     H60711  11.971   4.502  10.016  0.7112 -1.7056  0.2575
  450MOL0     H60712  12.299   4.138   9.819 -0.6799 -1.8653  1.0710
  450MOL0     H60713  12.556   4.147   9.813  1.1025  3.3223  1.3854
  450MOL0     H60714  12.833   4.244  10.084  1.1441 -0.1485 -0.6567
  450MOL0     H60715  12.697   4.225  10.196  0.6390  1.3953 -0.5467
  450MOL0     H60716  12.906   4.144  10.308 -0.0914 -0.5020  0.8378
  450MOL0     H60717  12.811   3.999  10.260 -1.1018  0.2625 -0.9673
  450MOL0     H60718  12.962   4.041  10.043 -1.3416 -1.6208  0.6339
  450MOL0     H60719  13.076   4.097  10.173 -0.4708 -0.2561  1.5398
  450MOL0     H60720  12.934   3.841  10.132  0.5135  1.9320 -3.2259
  450MOL0     H60721  13.035   3.873  10.283  1.4284 -0.7459  0.6019
  450MOL0     H60722  13.110   3.832   9.985 -1.8154  2.2651  0.2880
  450MOL0     H60723  13.129   3.715  10.105  1.1725 -0.5720 -1.6233
  450MOL0     H60724  13.269   3.987  10.124 -1.8214  0.0718 -2.0723
  450MOL0     H60725  13.290   3.855  10.235  3.2085  1.8968 -0.3375
  450MOL0     H60726  13.367   3.846   9.928 -0.6941 -3.2246 -0.7315
  450MOL0     H60727  13.365   3.706  10.031  1.2730  0.3401 -1.0043
  450MOL0     H60728  13.512   3.772  10.189 -3.6385 -1.9803 -1.5353
  450MOL0     H60729  13.586   3.796  10.032  1.3632  1.3957 -0.7299
  450MOL0     H60730  12.539   4.057  10.245 -2.6097 -3.7140  1.0285
  450MOL0     H60731  12.292   4.090  10.241  1.5151  1.1075  1.8292
  450MOL0     H60732  11.924   4.076  10.037  0.9053  0.5650 -1.3980
  450MOL0     H60733  11.680   4.095  10.030 -0.7204  0.4793  0.2213
  450MOL0     H60734   9.795   4.056   9.912 -4.6638 -1.9793 -0.3672
  450MOL0     H60735   9.591   4.015   9.971 -0.0191  2.3686 -0.9561
  450MOL0     H60736   9.319   3.879  10.129 -0.0269  1.0441  0.3072
  450MOL0     H60737   9.138   3.699  10.173  0.2582  0.2343 -0.3847
  450MOL0     H60738   8.998   3.559  10.341  1.9542  0.8858  1.5180
  450MOL0     H60739   8.944   3.617  10.182 -0.2074  0.9277  0.6635
  450MOL0     H60740   8.742   3.564  10.396 -1.3411  0.3292 -0.4852
  450MOL0     H60741   8.785   3.431  10.285  2.1275  0.4932  0.9465
  450MOL0     H60742   8.724   3.607  10.097 -2.3099  0.9227 -1.2306
  450MOL0     H60743   8.654   3.695  10.244  0.7370 -0.5813  0.6961
  450MOL0     H60744   8.589   3.410  10.160  1.4423 -0.0737  0.9031
  450MOL0     H60745   8.510   3.501  10.288  1.0425  0.9139  0.8017
  450MOL0     H60746   8.333   3.682   9.944 -0.7447 -3.9205 -0.9918
  450MOL0     H60747   8.947   3.981  10.432  1.4949  0.1523  2.4439
  450MOL0     H60748   9.149   4.271  10.338  1.1927  0.8346  1.0273
  450MOL0     H60749   8.991   4.210  10.380  0.0055  0.7840  0.9356
  450MOL0     H60750   9.123   4.186  10.501  0.5099 -1.9148  0.0463
  451MOL0     O60751   8.795   8.978   8.383 -0.0970  0.7416  0.1337
  451MOL0     C60752   8.710   9.016   8.466 -0.6561  0.4908 -1.7069
  451MOL0     O60753   8.743   9.087   8.581 -0.2187 -0.3740  0.4865
  451MOL0     C60754   8.875   9.098   8.617 -0.2413  0.0920 -0.0238
  451MOL0     C60755   8.946   9.006   8.686 -0.2551  0.9428  0.9866
  451MOL0     C60756   9.082   9.021   8.707 -0.2736 -0.3152 -0.1458
  451MOL0     C60757   9.154   9.129   8.646  0.3575  0.4595  0.9040
  451MOL0     O60758   9.286   9.143   8.658 -0.1234 -0.5377  0.0976
  451MOL0     C60759   9.366   9.029   8.613  0.1769 -0.5586 -0.0415
  451MOL0     C60760   9.499   9.080   8.559  0.2358 -0.5958 -1.0005
  451MOL0     C60761   9.577   9.168   8.658 -0.0446  0.9115 -0.4749
  451MOL0     C60762   9.697   9.245   8.586  0.4571  0.1011  0.3456
  451MOL0     C60763   9.819   9.248   8.681  0.2972  0.7054 -0.6265
  451MOL0     C60764   9.934   9.321   8.631 -0.2178 -0.5032  0.3891
  451MOL0     C60765  10.061   9.331   8.727  0.6230  0.3582 -0.6219
  451MOL0     C60766  10.145   9.456   8.694  0.0257  0.1978 -0.6176
  451MOL0     N60767  10.255   9.466   8.797 -1.1167 -0.1019 -0.0728
  451MOL0     C60768  10.370   9.389   8.807  0.9700 -0.2149  0.4083
  451MOL0     C60769  10.433   9.439   8.918 -0.0734  0.4876 -0.2021
  451MOL0     C60770  10.559   9.383   8.974  0.5333 -0.0607  0.1025
  451MOL0     C60771  10.672   9.483   8.964 -0.4538 -0.6594  1.0084
  451MOL0     C60772  10.803   9.418   9.008  0.0289  0.3093  0.0389
  451MOL0     C60773  10.916   9.511   9.030 -0.7591  0.1912  0.4129
  451MOL0     O60774  11.046   9.431   9.047  0.1962 -0.4726  0.2745
  451MOL0     C60775  11.162   9.501   9.032 -0.3408  0.1567 -0.3821
  451MOL0     C60776  11.180   9.628   9.071  0.4512 -0.0411  0.2092
  451MOL0     C60777  11.309   9.689   9.055  0.5507 -0.4809 -0.5745
  451MOL0     C60778  11.421   9.613   9.005  0.2619 -0.4104 -0.2086
  451MOL0     C60779  11.554   9.680   8.971  0.1783  0.3689 -0.0842
  451MOL0     O60780  11.556   9.812   9.003  0.6256  0.3932  0.4692
  451MOL0     C60781  11.664   9.895   8.999 -0.7247 -0.0757  0.2146
  451MOL0     C60782  11.667  10.001   8.912  0.8430  0.2179 -0.0026
  451MOL0     C60783  11.784  10.084   8.909 -0.1279  0.7982 -0.3669
  451MOL0     C60784  11.894  10.050   8.984  0.2264  0.2321 -0.1514
  451MOL0     O60785  12.013  10.116   8.980 -0.0495 -0.4380 -0.3348
  451MOL0     C60786  12.014  10.250   8.931  1.2937  0.6337 -0.0806
  451MOL0     C60787  12.122  10.331   8.996 -0.0690 -0.6782 -0.7046
  451MOL0     C60788  12.261  10.267   8.984 -0.1457  0.1829  0.1096
  451MOL0     C60789  12.358  10.344   9.066 -0.4368  0.3977  0.0725
  451MOL0     C60790  12.490  10.264   9.093  0.7202  0.4137 -0.0411
  451MOL0     C60791  12.600  10.348   9.165 -0.0578  0.4547  0.6815
  451MOL0     C60792  12.670  10.445   9.072  0.4734 -0.6166  0.5851
  451MOL0     C60793  12.777  10.504   9.152  1.0026 -0.0454 -0.1635
  451MOL0    Cl60794  12.717  10.605   9.276  0.0241 -0.1694 -0.4545
  451MOL0     C60795  11.888   9.953   9.081  0.4322 -0.8994 -0.3747
  451MOL0     C60796  11.775   9.874   9.082 -0.4614 -0.2677 -0.1555
  451MOL0     O60797  11.651   9.608   8.937 -0.4225  0.5014 -0.3860
  451MOL0     C60798  11.403   9.482   8.982 -0.0889  0.8923 -0.4130
  451MOL0     C60799  11.275   9.426   8.995  0.4797 -0.4182 -0.3354
  451MOL0     N60800  10.366   9.556   8.965  0.0466  0.1093 -0.5700
  451MOL0     N60801  10.261   9.561   8.894  0.0613 -0.2527  0.1855
  451MOL0     C60802   9.085   9.222   8.580 -0.2013 -0.4386  0.3086
  451MOL0     C60803   8.947   9.213   8.567  0.8958  1.1244 -0.0122
  451MOL0     C60804   8.568   8.969   8.472 -0.1540  0.1623  0.8411
  451MOL0     C60805   8.555   8.841   8.420 -0.3395  0.6215 -0.8618
  451MOL0     C60806   8.431   8.780   8.396 -0.2128 -1.2482 -0.1682
  451MOL0     C60807   8.319   8.859   8.427  0.3058 -0.7564  0.3610
  451MOL0     O60808   8.193   8.819   8.402  0.7580 -0.6312 -0.2653
  451MOL0     C60809   8.164   8.770   8.270  0.1543  0.4850  0.7875
  451MOL0     C60810   8.009   8.757   8.254  0.9884  0.8396  0.2300
  451MOL0     C60811   7.947   8.662   8.359 -0.5499  0.5228  0.1496
  451MOL0     C60812   7.800   8.632   8.316  0.0075 -0.1238  0.4991
  451MOL0     C60813   7.729   8.563   8.425 -0.1154  0.3818  0.1245
  451MOL0     C60814   7.649   8.530   8.507  0.3237  0.5064  0.2021
  451MOL0     C60815   8.329   8.976   8.504 -0.4602  0.1612 -0.2932
  451MOL0     C60816   8.454   9.035   8.526  0.5813 -0.5069  0.0995
  451MOL0     C60817   8.465   9.167   8.594  0.1856  0.9641 -0.3604
  451MOL0     H60818   8.905   8.915   8.729 -2.5626  0.1443 -2.5277
  451MOL0     H60819   9.120   8.950   8.780 -2.0285 -1.7011 -0.5286
  451MOL0     H60820   9.384   8.956   8.692 -1.1555 -1.6377 -0.7028
  451MOL0     H60821   9.324   8.984   8.523  2.0423 -2.0490 -0.2261
  451MOL0     H60822   9.478   9.145   8.474 -3.1212  1.5823  1.2685
  451MOL0     H60823   9.557   8.991   8.533  1.1360 -0.0198 -1.0251
  451MOL0     H60824   9.615   9.097   8.733 -1.1098 -1.5911 -2.1754
  451MOL0     H60825   9.505   9.236   8.704 -2.3645  1.1424 -4.0432
  451MOL0     H60826   9.727   9.192   8.495 -0.0315  1.3655 -0.5782
  451MOL0     H60827   9.658   9.346   8.568 -1.8690 -0.3730  2.2034
  451MOL0     H60828   9.786   9.293   8.776 -2.2222  0.2655 -1.2151
  451MOL0     H60829   9.851   9.145   8.698  0.1998  0.7807  0.0651
  451MOL0     H60830   9.973   9.291   8.534  3.5197  0.7843  1.3123
  451MOL0     H60831   9.905   9.422   8.600  2.8425  1.1332  2.3483
  451MOL0     H60832  10.121   9.240   8.715  2.0136  1.3657 -1.8452
  451MOL0     H60833  10.016   9.333   8.826  1.5826  2.1499 -0.1844
  451MOL0     H60834  10.193   9.458   8.596 -1.1870  3.5497 -1.2555
  451MOL0     H60835  10.089   9.550   8.702  3.1368  2.0852  0.5954
  451MOL0     H60836  10.405   9.297   8.760 -0.3985 -2.1994  3.0347
  451MOL0     H60837  10.554   9.363   9.082  1.7150  1.5194  0.4863
  451MOL0     H60838  10.590   9.289   8.927 -1.8890 -0.0071 -1.7945
  451MOL0     H60839  10.698   9.509   8.861  0.5954 -1.4876  1.0532
  451MOL0     H60840  10.649   9.568   9.029  0.6286 -0.9105  1.7306
  451MOL0     H60841  10.836   9.349   8.930  1.9307  0.5267  0.5752
  451MOL0     H60842  10.797   9.356   9.098  1.7176  0.4809  0.3084
  451MOL0     H60843  10.895   9.581   9.111  2.0956  2.7535 -0.8937
  451MOL0     H60844  10.925   9.565   8.936 -1.4352  0.1826  0.3382
  451MOL0     H60845  11.095   9.689   9.099 -0.3680 -1.5279  1.0173
  451MOL0     H60846  11.304   9.795   9.078  0.5196 -0.1464 -2.0806
  451MOL0     H60847  11.582  10.012   8.846  0.4229 -0.7001  0.3631
  451MOL0     H60848  11.798  10.164   8.837  1.4820 -0.8246 -1.9973
  451MOL0     H60849  12.038  10.244   8.824 -0.8772  1.1493 -0.6404
  451MOL0     H60850  11.923  10.310   8.933  0.9925  0.1749  2.5373
  451MOL0     H60851  12.129  10.433   8.957 -1.2588 -1.3809 -2.9632
  451MOL0     H60852  12.110  10.340   9.104  4.1799  1.0581 -0.1656
  451MOL0     H60853  12.244  10.169   9.028  1.0793 -0.5838 -1.0568
  451MOL0     H60854  12.299  10.259   8.882  2.0034 -2.9635  1.0099
  451MOL0     H60855  12.318  10.370   9.165  1.3107  0.5577  0.7600
  451MOL0     H60856  12.388  10.439   9.023  2.3961 -1.0857 -1.4844
  451MOL0     H60857  12.534  10.232   8.998  0.5649  2.3397 -0.8263
  451MOL0     H60858  12.468  10.174   9.150 -0.6814  0.8864  0.2120
  451MOL0     H60859  12.569  10.406   9.252  0.3180  2.4037 -0.4077
  451MOL0     H60860  12.668  10.269   9.197  1.1549  0.5306 -1.5346
  451MOL0     H60861  12.597  10.517   9.034 -0.2914 -2.0038 -0.7184
  451MOL0     H60862  12.717  10.396   8.986 -0.7616 -1.8043  0.5416
  451MOL0     H60863  12.839  10.430   9.201 -2.0042  0.3469  4.9377
  451MOL0     H60864  12.843  10.565   9.089 -0.8583  1.0936 -1.1146
  451MOL0     H60865  11.967   9.933   9.153  0.8240 -0.3392 -0.6425
  451MOL0     H60866  11.781   9.790   9.150  3.1725 -0.5060 -0.5642
  451MOL0     H60867  11.480   9.415   8.943  0.1269  2.2295 -2.4307
  451MOL0     H60868  11.255   9.321   8.982 -0.1064 -0.0491 -3.1894
  451MOL0     H60869   9.134   9.311   8.541  0.9690 -0.9827  0.5258
  451MOL0     H60870   8.886   9.283   8.510  0.4887  1.1917  0.4948
  451MOL0     H60871   8.645   8.791   8.387 -0.8996 -0.8809 -0.1947
  451MOL0     H60872   8.422   8.683   8.348 -2.5198 -2.4798  2.4607
  451MOL0     H60873   8.218   8.677   8.253 -0.3430  0.6112 -1.8735
  451MOL0     H60874   8.214   8.829   8.192  0.5513 -1.2392 -0.3035
  451MOL0     H60875   7.991   8.720   8.153 -1.0674  2.1377  0.0537
  451MOL0     H60876   7.971   8.860   8.253  2.1894  1.3148 -1.4808
  451MOL0     H60877   7.956   8.697   8.462 -2.4597 -0.1335  0.5728
  451MOL0     H60878   7.999   8.566   8.361 -0.4045  0.5262 -1.4538
  451MOL0     H60879   7.738   8.717   8.284  0.5091  0.1456  0.2322
  451MOL0     H60880   7.820   8.563   8.234  0.7982  0.4909  0.1640
  451MOL0     H60881   7.583   8.503   8.587  2.0803 -2.5924  0.7331
  451MOL0     H60882   8.242   9.030   8.539  0.5745  2.3109 -0.8675
  451MOL0     H60883   8.506   9.161   8.695  0.0407 -2.9697 -0.3803
  451MOL0     H60884   8.531   9.239   8.545 -1.6591  0.7575 -3.3766
  451MOL0     H60885   8.362   9.205   8.600  0.2546  1.3800 -1.5117
  452MOL0     O60886  10.459   6.294   7.542 -0.2425  0.4663 -0.5517
  452MOL0     C60887  10.536   6.339   7.458  0.0934 -0.9752  0.1774
  452MOL0     O60888  10.500   6.388   7.334  0.2565  0.0571 -0.6264
  452MOL0     C60889  10.364   6.397   7.322  0.3030 -0.6614  0.6603
  452MOL0     C60890  10.286   6.291   7.271 -0.6767  0.8187 -1.2122
  452MOL0     C60891  10.149   6.299   7.278 -0.6155 -0.2747  0.3867
  452MOL0     C60892  10.082   6.420   7.316 -0.4391 -0.3667  0.3327
  452MOL0     O60893   9.943   6.427   7.294  0.1556  0.2007  0.0267
  452MOL0     C60894   9.883   6.535   7.362 -0.3565 -0.9374  0.1212
  452MOL0     C60895   9.741   6.487   7.393  0.6801 -0.2753 -0.5464
  452MOL0     C60896   9.657   6.602   7.453  0.0853 -0.2883 -0.2483
  452MOL0     C60897   9.694   6.654   7.596 -0.1892  0.2297  0.0299
  452MOL0     C60898   9.675   6.552   7.707 -0.6685  0.2848  1.2217
  452MOL0     C60899   9.676   6.613   7.853 -0.7843 -0.1038 -0.5649
  452MOL0     C60900   9.798   6.690   7.893 -0.9872  0.0285 -0.1316
  452MOL0     C60901   9.787   6.731   8.041  0.2514  0.1939  0.0906
  452MOL0     N60902   9.929   6.739   8.086 -0.0023  0.3354  0.0721
  452MOL0     C60903  10.006   6.640   8.135 -0.6993 -0.4559  0.3870
  452MOL0     C60904  10.132   6.683   8.119 -0.0236  2.0960  0.0523
  452MOL0     C60905  10.248   6.601   8.169  0.5168 -0.6942  0.5317
  452MOL0     C60906  10.382   6.664   8.130 -0.4809  0.6867  0.6217
  452MOL0     C60907  10.443   6.774   8.220 -0.3458  0.0211  0.0465
  452MOL0     C60908  10.588   6.817   8.177 -0.2794  0.5523  0.4694
  452MOL0     O60909  10.669   6.878   8.281  0.9098 -0.5920  0.1167
  452MOL0     C60910  10.800   6.851   8.299  0.5249  0.0895  0.4819
  452MOL0     C60911  10.839   6.734   8.369 -0.4566  0.5533 -0.2939
  452MOL0     C60912  10.977   6.716   8.388 -0.2863 -1.0342  0.2891
  452MOL0     C60913  11.074   6.808   8.346 -0.3003 -0.9863 -0.6548
  452MOL0     C60914  11.216   6.777   8.365  0.9271 -0.1666 -0.9283
  452MOL0     O60915  11.318   6.862   8.319  0.0082  0.2431 -0.1742
  452MOL0     C60916  11.440   6.827   8.342 -1.3872 -0.0822  0.2542
  452MOL0     C60917  11.496   6.746   8.247 -0.8144  0.0431 -0.0211
  452MOL0     C60918  11.635   6.728   8.251 -0.5776 -0.6304  0.6675
  452MOL0     C60919  11.718   6.792   8.349 -0.1460 -0.1004  0.4220
  452MOL0     O60920  11.854   6.790   8.350  0.1341 -0.4457 -0.4637
  452MOL0     C60921  11.918   6.661   8.345  0.3167  0.3671 -0.6299
  452MOL0     C60922  12.069   6.660   8.336 -0.5291  0.7150 -0.6455
  452MOL0     C60923  12.118   6.733   8.210 -0.1985 -0.6189  0.5559
  452MOL0     C60924  12.115   6.893   8.220 -0.0204 -0.8927  0.5092
  452MOL0     C60925  12.171   6.952   8.090  0.7511  0.0801 -0.2085
  452MOL0     C60926  12.251   7.083   8.101  0.4089  0.7557 -0.4911
  452MOL0     C60927  12.386   7.046   8.156 -0.5481 -0.3103 -0.1162
  452MOL0     C60928  12.474   7.171   8.181 -0.4381  0.6796 -0.4671
  452MOL0    Cl60929  12.622   7.103   8.274 -0.0203 -0.0571 -0.1454
  452MOL0     C60930  11.649   6.865   8.437 -0.1500  0.8052 -0.6466
  452MOL0     C60931  11.512   6.883   8.439 -0.1674  0.5672  0.2885
  452MOL0     O60932  11.237   6.674   8.428 -0.1522 -0.6441  0.6667
  452MOL0     C60933  11.030   6.925   8.275  0.3232  0.6259  0.1481
  452MOL0     C60934  10.891   6.947   8.255 -0.1061 -0.2835 -0.1464
  452MOL0     N60935  10.129   6.812   8.077 -0.8037 -0.3346  0.0059
  452MOL0     N60936  10.004   6.848   8.065  0.2967  0.4541 -0.0915
  452MOL0     C60937  10.160   6.530   7.354  0.1018  0.0139 -0.5397
  452MOL0     C60938  10.300   6.518   7.361 -1.1705 -0.3718  0.6019
  452MOL0     C60939  10.680   6.339   7.487  0.7386 -0.7073  1.3628
  452MOL0     C60940  10.733   6.229   7.553 -0.7378  0.5965 -0.8887
  452MOL0     C60941  10.864   6.225   7.586  0.3323  0.1189 -0.2537
  452MOL0     C60942  10.953   6.322   7.553 -0.5233  0.1416  0.4170
  452MOL0     O60943  11.088   6.322   7.567  0.0525 -0.1180 -0.2956
  452MOL0     C60944  11.146   6.229   7.661  0.4236 -0.1655  0.6606
  452MOL0     C60945  11.284   6.275   7.715  0.0348 -0.6857 -0.5271
  452MOL0     C60946  11.273   6.415   7.786 -0.4270  0.4635 -0.4634
  452MOL0     C60947  11.228   6.396   7.938  0.5307  1.1573  0.0069
  452MOL0     C60948  11.220   6.535   7.992 -0.3404  0.2245 -0.7051
  452MOL0     C60949  11.220   6.656   8.001 -0.3512 -0.3457  0.6043
  452MOL0     C60950  10.900   6.441   7.493 -0.5860  0.2878  0.1963
  452MOL0     C60951  10.765   6.449   7.454  0.1022 -0.1328  0.0171
  452MOL0     C60952  10.707   6.589   7.410  0.7743 -1.2352 -0.5329
  452MOL0     H60953  10.337   6.197   7.256  0.4342  1.1047  0.4786
  452MOL0     H60954  10.091   6.210   7.253 -1.4172  0.1753  0.5931
  452MOL0     H60955   9.921   6.576   7.456  0.1682 -2.0096  0.3893
  452MOL0     H60956   9.880   6.624   7.298  0.9101 -0.6685  0.3980
  452MOL0     H60957   9.748   6.400   7.458 -2.5954 -0.6972 -0.6046
  452MOL0     H60958   9.695   6.450   7.301  2.4885  0.4769 -1.8198
  452MOL0     H60959   9.553   6.568   7.459  0.2568 -0.9129 -0.7122
  452MOL0     H60960   9.650   6.690   7.388 -0.7729  1.4371  2.0413
  452MOL0     H60961   9.795   6.694   7.600 -0.7088  1.4968  2.3618
  452MOL0     H60962   9.618   6.732   7.608 -1.5121 -0.9482 -0.2907
  452MOL0     H60963   9.590   6.487   7.687  1.0081 -1.0220 -2.6095
  452MOL0     H60964   9.756   6.481   7.686 -1.2265 -0.1715  0.5865
  452MOL0     H60965   9.593   6.684   7.850  0.7650  1.7744 -1.9160
  452MOL0     H60966   9.671   6.522   7.914 -0.2123 -0.8256 -1.5539
  452MOL0     H60967   9.799   6.777   7.826  1.2149 -0.0829 -0.3366
  452MOL0     H60968   9.879   6.619   7.871 -1.8147 -0.2780 -2.4723
  452MOL0     H60969   9.732   6.825   8.043 -0.1539  0.0436 -1.8250
  452MOL0     H60970   9.728   6.653   8.091 -1.2105  0.2953 -1.3749
  452MOL0     H60971   9.978   6.539   8.163  2.4244 -1.5872 -0.1713
  452MOL0     H60972  10.235   6.601   8.277 -0.8371 -1.2354  0.3878
  452MOL0     H60973  10.230   6.501   8.127  0.9967  0.5178 -2.9213
  452MOL0     H60974  10.449   6.579   8.112 -0.5026  0.5877  1.0065
  452MOL0     H60975  10.369   6.707   8.030 -0.2222  3.1266  1.5758
  452MOL0     H60976  10.438   6.742   8.324 -2.0957 -0.3544 -0.1185
  452MOL0     H60977  10.374   6.859   8.209 -0.0222  0.2560 -0.1849
  452MOL0     H60978  10.587   6.874   8.084 -2.3922 -1.0154 -0.5552
  452MOL0     H60979  10.627   6.720   8.145 -5.0508 -0.8067 -2.1732
  452MOL0     H60980  10.763   6.661   8.395  0.5692  0.3225  2.3459
  452MOL0     H60981  10.999   6.622   8.438 -1.5253 -1.3613  0.2692
  452MOL0     H60982  11.436   6.715   8.161 -0.9542 -0.3693  0.2182
  452MOL0     H60983  11.687   6.667   8.178  2.0187  1.4496  0.6208
  452MOL0     H60984  11.887   6.603   8.433  5.7508 -1.3767  0.4840
  452MOL0     H60985  11.888   6.611   8.252  1.2972 -3.2639  0.8495
  452MOL0     H60986  12.110   6.691   8.432  2.0843 -1.7566 -0.8344
  452MOL0     H60987  12.090   6.553   8.330  1.4155  1.0542 -0.3141
  452MOL0     H60988  12.223   6.705   8.198 -0.9551 -2.3927 -3.8642
  452MOL0     H60989  12.063   6.699   8.122  0.8447  1.1360 -0.8600
  452MOL0     H60990  12.159   6.936   8.310  0.4135 -0.6803  0.2052
  452MOL0     H60991  12.012   6.928   8.234 -0.3308 -1.8581  0.6702
  452MOL0     H60992  12.087   6.980   8.025  0.8614 -2.4064 -1.5465
  452MOL0     H60993  12.228   6.873   8.040  2.0218 -0.5376  2.0960
  452MOL0     H60994  12.258   7.148   8.013  1.4073  1.9592  0.4458
  452MOL0     H60995  12.204   7.142   8.180  3.4430  0.2592  1.8892
  452MOL0     H60996  12.431   6.972   8.090 -1.5095  0.9947 -2.3769
  452MOL0     H60997  12.364   7.005   8.255 -1.0877 -0.0258 -0.1112
  452MOL0     H60998  12.516   7.200   8.084 -0.1532  0.0843 -0.5288
  452MOL0     H60999  12.435   7.254   8.240 -1.0544 -1.0145  1.6531
  452MOL0     H61000  11.704   6.911   8.519  0.6648  2.4014 -2.0092
  452MOL0     H61001  11.458   6.935   8.517 -1.8783  0.7352 -0.9545
  452MOL0     H61002  11.109   6.991   8.242  1.3824  0.6035  2.4811
  452MOL0     H61003  10.851   7.039   8.213  3.1158  1.5466  0.5083
  452MOL0     H61004  10.107   6.622   7.376  0.4016  1.0350 -3.6949
  452MOL0     H61005  10.357   6.602   7.396 -2.7071  0.7719  0.4844
  452MOL0     H61006  10.681   6.138   7.583  1.2009 -0.4677 -0.5504
  452MOL0     H61007  10.900   6.134   7.632 -0.0506  0.8067  1.4939
  452MOL0     H61008  11.161   6.133   7.610 -1.9440 -1.3210  1.9565
  452MOL0     H61009  11.074   6.211   7.741  0.7599  0.1422  1.0388
  452MOL0     H61010  11.356   6.289   7.634  1.4334 -1.2894  0.5617
  452MOL0     H61011  11.309   6.200   7.791 -0.2012  0.0308  0.2683
  452MOL0     H61012  11.204   6.478   7.730 -0.2967  0.0501 -1.1027
  452MOL0     H61013  11.373   6.461   7.785  0.5199 -1.3719 -3.3988
  452MOL0     H61014  11.131   6.344   7.941  0.9654  0.1671 -1.6358
  452MOL0     H61015  11.305   6.332   7.981  0.9232 -0.4721 -2.8175
  452MOL0     H61016  11.234   6.762   7.990  0.6104 -0.5824 -0.7116
  452MOL0     H61017  10.957   6.531   7.475 -1.0784  0.4912 -0.3784
  452MOL0     H61018  10.627   6.630   7.472  0.3283  2.4363 -3.2272
  452MOL0     H61019  10.783   6.667   7.423  0.5270 -1.3252  2.0188
  452MOL0     H61020  10.677   6.585   7.305  0.8245 -1.1794 -0.5498
  453MOL0     O61021   2.637   0.077   8.459  0.0967  0.5300  0.0699
  453MOL0     C61022   2.582  -0.013   8.398 -0.0999 -0.2417 -0.1041
  453MOL0     O61023   2.636  -0.132   8.366 -0.8747  0.1231 -0.2837
  453MOL0     C61024   2.764  -0.163   8.398 -0.0891 -0.5041  0.1991
  453MOL0     C61025   2.795  -0.285   8.473  0.1703  0.1899  0.7884
  453MOL0     C61026   2.924  -0.319   8.503  0.3285  0.2966  0.3564
  453MOL0     C61027   3.023  -0.234   8.474 -0.5637  0.3348  0.2397
  453MOL0     O61028   3.151  -0.280   8.500 -0.6300 -0.1695  0.0852
  453MOL0     C61029   3.263  -0.185   8.518  0.3173 -0.1001 -0.9989
  453MOL0     C61030   3.383  -0.242   8.447 -1.0306  0.1435  0.5147
  453MOL0     C61031   3.363  -0.235   8.294 -0.0715 -0.7744 -0.4877
  453MOL0     C61032   3.362  -0.090   8.242 -1.0368 -0.6768  0.7676
  453MOL0     C61033   3.332  -0.076   8.092  0.1519  0.4871 -1.3317
  453MOL0     C61034   3.331   0.071   8.053  0.5937 -1.1760 -0.4907
  453MOL0     C61035   3.382   0.096   7.914  0.6926 -0.0984 -0.0575
  453MOL0     C61036   3.349   0.232   7.860  0.5204 -0.6078  0.3068
  453MOL0     N61037   3.435   0.265   7.749  0.2177 -0.6815  0.9754
  453MOL0     C61038   3.557   0.314   7.755  0.7076  0.7405 -0.7190
  453MOL0     C61039   3.601   0.308   7.632  0.7130  0.2248 -0.5792
  453MOL0     C61040   3.741   0.327   7.594  0.4963 -0.8973  0.1776
  453MOL0     C61041   3.833   0.210   7.652  0.4840  0.0820  0.3793
  453MOL0     C61042   3.975   0.225   7.602 -1.1545 -0.0712  0.2269
  453MOL0     C61043   4.070   0.122   7.645  0.0575 -0.0686  0.4196
  453MOL0     O61044   4.179   0.141   7.551 -0.4274 -0.0856 -0.0357
  453MOL0     C61045   4.309   0.101   7.593  0.4614 -0.1901  0.2626
  453MOL0     C61046   4.419   0.123   7.506 -0.1721  0.7547  0.0293
  453MOL0     C61047   4.549   0.078   7.545  0.8456 -0.4455 -0.6219
  453MOL0     C61048   4.573   0.014   7.670 -0.5929  0.6487 -0.6827
  453MOL0     C61049   4.713  -0.034   7.708 -0.1496  0.4469  0.6706
  453MOL0     O61050   4.740  -0.073   7.840  0.0765  0.9768  0.2141
  453MOL0     C61051   4.868  -0.085   7.885  0.7448  0.1577  1.1657
  453MOL0     C61052   4.901  -0.041   8.015 -0.5832 -0.5818 -0.1168
  453MOL0     C61053   5.030  -0.061   8.066  0.6653  0.1906  0.1196
  453MOL0     C61054   5.127  -0.123   7.990 -0.1516 -1.0046 -0.3737
  453MOL0     O61055   5.246  -0.131   8.053  0.1953  0.2902 -0.0159
  453MOL0     C61056   5.361  -0.170   7.979  0.0874 -0.1166  0.4303
  453MOL0     C61057   5.476  -0.158   8.078 -0.0394  0.0172 -0.5124
  453MOL0     C61058   5.609  -0.224   8.047 -0.2023 -0.5857  0.0556
  453MOL0     C61059   5.726  -0.187   8.142 -0.9516  0.3109  0.6498
  453MOL0     C61060   5.867  -0.250   8.106  0.4358  0.1209 -0.9374
  453MOL0     C61061   5.867  -0.401   8.087 -0.1556  1.1534  0.0625
  453MOL0     C61062   5.864  -0.480   8.220  0.2602 -0.5792  0.8249
  453MOL0     C61063   5.841  -0.633   8.190  0.3783  0.2336  1.0453
  453MOL0    Cl61064   5.977  -0.689   8.088 -0.0221  0.0115 -0.7402
  453MOL0     C61065   5.095  -0.163   7.862  0.1156 -0.3305 -0.2246
  453MOL0     C61066   4.972  -0.140   7.809  0.0429  0.5418  0.1697
  453MOL0     O61067   4.798  -0.022   7.618 -0.2541 -0.2246 -0.2290
  453MOL0     C61068   4.466  -0.012   7.749 -1.3010 -0.1579 -0.6308
  453MOL0     C61069   4.339   0.033   7.713  0.5436 -0.3183  0.5735
  453MOL0     N61070   3.507   0.253   7.548  0.5345  0.4821  0.3161
  453MOL0     N61071   3.410   0.227   7.625 -0.1207  0.1612  0.1413
  453MOL0     C61072   2.992  -0.115   8.401  0.5971  0.0137 -0.1185
  453MOL0     C61073   2.864  -0.072   8.372  0.0764  0.0162 -0.6917
  453MOL0     C61074   2.441   0.008   8.354 -0.2030 -1.3442  0.2515
  453MOL0     C61075   2.408  -0.056   8.232 -0.0966  0.4409 -0.6027
  453MOL0     C61076   2.280  -0.038   8.176 -0.9092 -0.3937 -0.5279
  453MOL0     C61077   2.177   0.039   8.237  0.6140  0.5207  0.0235
  453MOL0     O61078   2.044   0.047   8.201 -0.3598 -0.3186 -0.7996
  453MOL0     C61079   1.988  -0.035   8.100 -0.2767 -0.2022  0.4156
  453MOL0     C61080   1.979  -0.183   8.148  0.5297 -0.8596  0.2758
  453MOL0     C61081   1.852  -0.248   8.091  0.3373  0.0846 -0.3480
  453MOL0     C61082   1.812  -0.373   8.158  0.0165  0.2565  0.3596
  453MOL0     C61083   1.718  -0.442   8.069  0.5285  0.1178  0.0193
  453MOL0     C61084   1.636  -0.491   7.994  0.5202  0.6334  0.2153
  453MOL0     C61085   2.224   0.108   8.351 -0.3401  0.3874  0.7577
  453MOL0     C61086   2.354   0.097   8.420  0.1651 -0.1720  0.9644
  453MOL0     C61087   2.384   0.186   8.536 -0.3857 -0.1170  0.1256
  453MOL0     H61088   2.709  -0.350   8.485  1.5860 -1.9533 -0.0929
  453MOL0     H61089   2.951  -0.407   8.561 -1.0157  0.2341  0.9343
  453MOL0     H61090   3.231  -0.087   8.481 -0.7551  0.0590  0.2998
  453MOL0     H61091   3.295  -0.171   8.622  0.2919 -1.8709 -0.7134
  453MOL0     H61092   3.404  -0.346   8.472  1.5240 -0.0101 -1.7740
  453MOL0     H61093   3.476  -0.192   8.476 -1.0686  0.0561  0.7890
  453MOL0     H61094   3.270  -0.279   8.255 -0.9037  0.9142 -0.4864
  453MOL0     H61095   3.447  -0.289   8.249  1.1908  1.6983 -1.2382
  453MOL0     H61096   3.305  -0.017   8.300  4.1494  1.0167  4.5200
  453MOL0     H61097   3.461  -0.049   8.263 -0.4762 -0.8072 -1.4253
  453MOL0     H61098   3.422  -0.120   8.048  1.2104 -0.9813  1.9967
  453MOL0     H61099   3.250  -0.143   8.065 -1.9309  1.4919  1.9149
  453MOL0     H61100   3.230   0.114   8.056  2.1244  2.8976 -0.8860
  453MOL0     H61101   3.399   0.127   8.118 -0.5691  1.2109 -1.1968
  453MOL0     H61102   3.333   0.021   7.850  3.8695 -0.7559 -1.9682
  453MOL0     H61103   3.490   0.081   7.908  1.0865  2.4694 -0.2373
  453MOL0     H61104   3.243   0.227   7.832 -0.8079 -2.1376  4.7931
  453MOL0     H61105   3.348   0.312   7.934 -0.9689  0.7040 -1.0511
  453MOL0     H61106   3.609   0.344   7.845 -0.7181  2.0349 -0.2884
  453MOL0     H61107   3.743   0.324   7.484 -1.1355  0.4215  0.0671
  453MOL0     H61108   3.774   0.428   7.620 -0.0142 -0.1262 -1.9309
  453MOL0     H61109   3.825   0.214   7.761 -0.3942 -0.1309  0.3328
  453MOL0     H61110   3.793   0.112   7.624 -0.1624  0.1653  0.9748
  453MOL0     H61111   4.023   0.321   7.622  0.4781 -0.8717  0.3362
  453MOL0     H61112   3.961   0.227   7.493 -4.7646 -0.6060  0.5544
  453MOL0     H61113   4.029   0.021   7.643 -2.0030  0.7341 -0.1803
  453MOL0     H61114   4.102   0.155   7.744 -0.1976  1.1108  0.1211
  453MOL0     H61115   4.403   0.175   7.412 -3.2427 -2.2089 -1.3029
  453MOL0     H61116   4.637   0.093   7.483  0.6669 -1.2153 -1.0607
  453MOL0     H61117   4.839   0.002   8.093  0.6332  0.0463  0.5406
  453MOL0     H61118   5.044  -0.009   8.160 -3.2438 -0.0133  0.9679
  453MOL0     H61119   5.349  -0.276   7.954  0.8692 -0.2032  0.3889
  453MOL0     H61120   5.385  -0.104   7.896  2.0700  1.8029  2.3713
  453MOL0     H61121   5.495  -0.053   8.102  0.8206  0.4534 -2.8128
  453MOL0     H61122   5.432  -0.201   8.169  0.5478 -0.7873 -0.5932
  453MOL0     H61123   5.596  -0.333   8.045  2.7208 -1.0793  1.8735
  453MOL0     H61124   5.638  -0.179   7.952 -2.7848  0.7883 -0.1747
  453MOL0     H61125   5.693  -0.227   8.238  0.3646  0.4115  1.1661
  453MOL0     H61126   5.734  -0.078   8.152  0.0931  0.4944 -1.5364
  453MOL0     H61127   5.930  -0.216   8.188 -3.6289  1.1106  2.0509
  453MOL0     H61128   5.905  -0.206   8.013  0.0568 -0.1602 -1.2303
  453MOL0     H61129   5.784  -0.429   8.023 -0.5333  0.8127  0.6915
  453MOL0     H61130   5.955  -0.438   8.033 -1.0086 -3.2876  1.2775
  453MOL0     H61131   5.780  -0.436   8.273 -0.7383 -2.1157  0.5867
  453MOL0     H61132   5.963  -0.474   8.266  1.7836 -1.0854 -2.1356
  453MOL0     H61133   5.826  -0.696   8.278 -2.8547  0.5575  0.8299
  453MOL0     H61134   5.757  -0.652   8.123  2.6242 -3.5741 -1.0655
  453MOL0     H61135   5.170  -0.221   7.809 -1.3530 -2.3296 -0.2291
  453MOL0     H61136   4.948  -0.185   7.713 -0.5389 -0.0495  0.5811
  453MOL0     H61137   4.487  -0.051   7.848 -0.3961  2.0260  0.0930
  453MOL0     H61138   4.257   0.022   7.783  0.5260  2.3828  1.0664
  453MOL0     H61139   3.069  -0.043   8.373  2.4000 -1.2040  1.5024
  453MOL0     H61140   2.849   0.025   8.325 -1.1798  0.9717  1.5073
  453MOL0     H61141   2.483  -0.120   8.187 -0.5110 -0.3977 -0.1166
  453MOL0     H61142   2.251  -0.099   8.091  0.9116 -5.1503  1.8828
  453MOL0     H61143   2.040  -0.008   8.008  0.6741  1.6964  1.4422
  453MOL0     H61144   1.889   0.005   8.079  0.5754  2.9554  1.8396
  453MOL0     H61145   1.966  -0.181   8.257 -3.9173  0.4190 -0.0774
  453MOL0     H61146   2.073  -0.234   8.124  0.5693  0.1266 -1.9459
  453MOL0     H61147   1.862  -0.258   7.982  4.4335 -2.3150  0.0384
  453MOL0     H61148   1.773  -0.178   8.119  1.9949  2.3445 -0.9605
  453MOL0     H61149   1.904  -0.433   8.165  1.0305  1.7792  0.5526
  453MOL0     H61150   1.770  -0.355   8.257 -1.0930  0.7090 -0.1777
  453MOL0     H61151   1.550  -0.522   7.938  0.3214 -0.0832  0.9002
  453MOL0     H61152   2.146   0.166   8.401 -1.5627 -1.0292  0.5795
  453MOL0     H61153   2.298   0.248   8.561 -0.9953  0.6885 -3.3486
  453MOL0     H61154   2.427   0.127   8.617 -1.5755 -2.5026 -0.8874
  453MOL0     H61155   2.462   0.258   8.508 -0.9332  0.6417  0.5365
  454MOL0     O61156  10.086  11.156   7.101  0.0806  0.7281  0.6083
  454MOL0     C61157   9.989  11.100   7.165  0.0574  0.0967 -0.1389
  454MOL0     O61158   9.939  11.132   7.277  0.8028 -0.0961 -0.1998
  454MOL0     C61159  10.006  11.225   7.351  0.3159 -0.6890 -0.3831
  454MOL0     C61160  10.118  11.186   7.420 -0.1197  0.2710 -0.2511
  454MOL0     C61161  10.183  11.286   7.499 -0.0828 -0.0989 -0.5763
  454MOL0     C61162  10.137  11.417   7.518 -0.1090 -0.7040 -0.5763
  454MOL0     O61163  10.210  11.499   7.596  0.4333  0.1126  0.0447
  454MOL0     C61164  10.137  11.607   7.662 -0.7740  0.7388 -0.4195
  454MOL0     C61165  10.238  11.703   7.711 -1.3782 -0.0580 -0.5115
  454MOL0     C61166  10.261  11.711   7.862 -0.4177 -0.4282  0.0223
  454MOL0     C61167  10.397  11.773   7.904 -0.3968  0.3284  0.9397
  454MOL0     C61168  10.413  11.789   8.061  0.0332 -0.6646  0.3223
  454MOL0     C61169  10.296  11.848   8.144 -0.3971 -0.0748  0.4369
  454MOL0     C61170  10.340  11.852   8.291 -0.5528 -0.0253  0.7430
  454MOL0     C61171  10.225  11.867   8.390 -0.1388  0.3251  0.3257
  454MOL0     N61172  10.221  11.749   8.479 -0.1109 -0.1936  0.7356
  454MOL0     C61173  10.281  11.739   8.597  0.8011  0.2306 -0.3983
  454MOL0     C61174  10.249  11.610   8.641 -0.1865  0.0108  0.0234
  454MOL0     C61175  10.313  11.561   8.764 -0.0375 -0.1330 -0.3509
  454MOL0     C61176  10.469  11.548   8.745  0.4765 -0.3560 -0.1404
  454MOL0     C61177  10.533  11.616   8.867 -1.7066  0.4158 -0.3460
  454MOL0     C61178  10.664  11.556   8.901 -0.6840 -0.6696 -0.1533
  454MOL0     O61179  10.764  11.600   8.808 -0.3125 -0.6979  0.6402
  454MOL0     C61180  10.898  11.562   8.827  0.5651  0.3034  0.0841
  454MOL0     C61181  10.983  11.598   8.726  1.1104  0.8557 -0.1841
  454MOL0     C61182  11.113  11.561   8.733 -0.7650  0.0192  0.1433
  454MOL0     C61183  11.176  11.502   8.848  0.1529  0.0224  0.4634
  454MOL0     C61184  11.322  11.468   8.849  0.0963 -1.5439 -0.3792
  454MOL0     O61185  11.408  11.540   8.766  0.0787 -0.1538  0.4026
  454MOL0     C61186  11.530  11.478   8.739  0.3263 -0.8294 -0.1076
  454MOL0     C61187  11.540  11.346   8.701  0.2250 -0.4285 -0.0049
  454MOL0     C61188  11.662  11.296   8.667 -0.1623  0.0735  0.5457
  454MOL0     C61189  11.782  11.376   8.688  0.3141  0.3642 -0.9623
  454MOL0     O61190  11.908  11.330   8.658  0.2981  0.0676  0.4753
  454MOL0     C61191  11.975  11.266   8.766 -0.1875  1.7040  0.7000
  454MOL0     C61192  12.091  11.185   8.709  0.0372  0.5672 -0.3742
  454MOL0     C61193  12.142  11.074   8.794 -0.0891 -0.3404 -0.2368
  454MOL0     C61194  12.263  10.994   8.743 -0.3207  0.2651 -0.3804
  454MOL0     C61195  12.308  10.876   8.838  0.6354 -0.4316  0.1094
  454MOL0     C61196  12.459  10.823   8.816 -0.1927 -0.1340  0.7992
  454MOL0     C61197  12.562  10.907   8.898  0.5231  0.2133  0.1575
  454MOL0     C61198  12.704  10.855   8.873 -0.6425 -0.2796  0.2533
  454MOL0    Cl61199  12.832  10.955   8.951  0.0559  0.0745  0.3172
  454MOL0     C61200  11.772  11.511   8.726  0.0735  0.5625 -1.0671
  454MOL0     C61201  11.643  11.560   8.760  0.2168 -0.8132 -0.4213
  454MOL0     O61202  11.345  11.368   8.919  1.1836 -0.4658 -0.2516
  454MOL0     C61203  11.085  11.470   8.953 -0.2848  0.1273 -0.4359
  454MOL0     C61204  10.945  11.501   8.936 -0.9459 -0.9285  0.3425
  454MOL0     N61205  10.171  11.552   8.543 -0.2746 -0.0746  0.3016
  454MOL0     N61206  10.148  11.638   8.451  0.1422  0.1472 -0.4652
  454MOL0     C61207  10.015  11.451   7.449 -0.2253 -0.4446  0.6560
  454MOL0     C61208   9.948  11.349   7.376  0.1436  0.5318 -0.7490
  454MOL0     C61209   9.929  10.991   7.085  0.1557  1.1204  0.6857
  454MOL0     C61210   9.787  10.968   7.082 -0.8073  0.2421 -0.4612
  454MOL0     C61211   9.732  10.881   6.991  0.1908 -0.1775 -0.4996
  454MOL0     C61212   9.812  10.814   6.896  0.4067  0.0418 -0.0040
  454MOL0     O61213   9.744  10.758   6.791  0.0966 -0.2305 -0.0996
  454MOL0     C61214   9.823  10.715   6.678 -0.0140 -0.1515  0.1344
  454MOL0     C61215   9.838  10.826   6.576  0.3294 -0.0029  1.2085
  454MOL0     C61216   9.694  10.851   6.521  0.4557  0.1767 -0.0723
  454MOL0     C61217   9.699  10.974   6.423 -0.0436  0.5219 -0.5508
  454MOL0     C61218   9.783  10.943   6.306 -0.7583 -0.2926 -0.4140
  454MOL0     C61219   9.849  10.934   6.206  0.6465 -0.0880 -0.3249
  454MOL0     C61220   9.949  10.811   6.907  0.3302  0.0505  0.0036
  454MOL0     C61221  10.005  10.899   6.997  0.3519  0.5551 -0.0014
  454MOL0     C61222  10.153  10.903   6.999  0.5096  0.0384 -0.5333
  454MOL0     H61223  10.166  11.090   7.401  4.2356  2.2666 -0.7398
  454MOL0     H61224  10.269  11.250   7.554  0.6681  1.8911 -0.3416
  454MOL0     H61225  10.076  11.665   7.591 -1.8962 -0.0843 -0.1500
  454MOL0     H61226  10.076  11.564   7.742 -1.4105  2.5266  0.1027
  454MOL0     H61227  10.208  11.805   7.684  1.8221  1.2034  0.2483
  454MOL0     H61228  10.329  11.679   7.655  0.4485 -0.1270  2.3204
  454MOL0     H61229  10.255  11.611   7.907 -1.1515 -0.9013 -1.0998
  454MOL0     H61230  10.173  11.766   7.896 -0.0146 -0.4867  1.2144
  454MOL0     H61231  10.475  11.709   7.862  3.3987  4.7342  0.4552
  454MOL0     H61232  10.406  11.873   7.861  2.0565  0.0013  0.5613
  454MOL0     H61233  10.433  11.685   8.092  1.6935 -0.9619 -1.5506
  454MOL0     H61234  10.501  11.851   8.083 -0.2058  0.1646 -1.0014
  454MOL0     H61235  10.260  11.941   8.099  0.6447 -1.7649 -4.6688
  454MOL0     H61236  10.221  11.769   8.134  0.4074 -0.7078 -0.9113
  454MOL0     H61237  10.404  11.941   8.303  1.5598 -1.1657 -1.2050
  454MOL0     H61238  10.394  11.760   8.314 -1.5012 -1.5884 -2.7611
  454MOL0     H61239  10.238  11.959   8.447 -0.3213  0.7346 -0.2863
  454MOL0     H61240  10.130  11.879   8.338  0.3923  1.8902 -0.3581
  454MOL0     H61241  10.338  11.815   8.648  0.8426  1.6539 -2.4289
  454MOL0     H61242  10.275  11.645   8.823 -0.2756  0.2815 -1.0944
  454MOL0     H61243  10.273  11.466   8.801  0.8374  0.0456  1.1659
  454MOL0     H61244  10.488  11.440   8.753 -0.0867 -0.4247  0.3486
  454MOL0     H61245  10.501  11.595   8.652  1.6422 -1.6601 -0.4284
  454MOL0     H61246  10.461  11.615   8.949 -0.5553  0.9931  0.6911
  454MOL0     H61247  10.556  11.721   8.848  1.2157  0.0406  0.6465
  454MOL0     H61248  10.662  11.447   8.889 -3.8818 -0.5722 -1.5109
  454MOL0     H61249  10.687  11.583   9.005 -0.6465  1.2894 -0.6348
  454MOL0     H61250  10.946  11.641   8.634 -0.8553 -4.3873 -2.1977
  454MOL0     H61251  11.163  11.587   8.640 -0.9794  1.6982  0.4655
  454MOL0     H61252  11.448  11.294   8.675  1.7348 -3.7529  0.7342
  454MOL0     H61253  11.674  11.204   8.612 -1.3354  0.3548 -0.2080
  454MOL0     H61254  12.015  11.339   8.836  3.8653 -2.6672  3.5970
  454MOL0     H61255  11.904  11.203   8.821  1.6978  0.3194  1.7025
  454MOL0     H61256  12.060  11.148   8.611 -0.1463  0.9925 -0.4761
  454MOL0     H61257  12.178  11.250   8.695  0.9860 -0.4962  0.3714
  454MOL0     H61258  12.167  11.112   8.894 -0.8888 -2.4591  0.8305
  454MOL0     H61259  12.060  11.005   8.818  0.4045 -0.4618  1.1992
  454MOL0     H61260  12.346  11.064   8.756 -0.2898  0.3135 -0.8416
  454MOL0     H61261  12.244  10.961   8.640  0.5421 -1.9346  0.0952
  454MOL0     H61262  12.235  10.794   8.832  0.1222  0.1265 -2.4578
  454MOL0     H61263  12.308  10.912   8.941  0.8011 -0.9825  0.3076
  454MOL0     H61264  12.453  10.715   8.830 -3.0810 -0.3631 -1.2054
  454MOL0     H61265  12.484  10.844   8.711  0.0957  2.0652  1.2529
  454MOL0     H61266  12.553  10.913   9.006  1.7247 -4.0650  0.6650
  454MOL0     H61267  12.570  11.008   8.857  1.7585  0.3449  0.7044
  454MOL0     H61268  12.706  10.755   8.917  1.2256 -0.7294 -0.7440
  454MOL0     H61269  12.730  10.849   8.766 -2.4484  1.5128 -0.3415
  454MOL0     H61270  11.856  11.579   8.716 -0.7326  1.3787 -2.8686
  454MOL0     H61271  11.626  11.661   8.797  3.0411 -0.5569  0.4319
  454MOL0     H61272  11.118  11.408   9.036 -1.2420 -0.2545 -0.3306
  454MOL0     H61273  10.865  11.468   9.001 -2.7580 -1.6896 -2.1430
  454MOL0     H61274   9.976  11.551   7.463 -0.7737 -0.6778  0.8237
  454MOL0     H61275   9.848  11.359   7.335 -0.8038 -1.2664  0.9091
  454MOL0     H61276   9.724  11.027   7.148 -0.1415 -0.0189  0.4300
  454MOL0     H61277   9.624  10.873   6.990  0.1410  0.0118  0.7286
  454MOL0     H61278   9.766  10.632   6.634 -0.0587  0.7939 -1.6717
  454MOL0     H61279   9.917  10.667   6.706 -0.9640 -1.6503  0.9182
  454MOL0     H61280   9.911  10.808   6.497 -0.2872  2.0716  0.0717
  454MOL0     H61281   9.882  10.912   6.628  1.5269  0.4275 -0.4478
  454MOL0     H61282   9.625  10.869   6.603  2.5945 -0.9052  2.0747
  454MOL0     H61283   9.658  10.767   6.461 -0.4958  1.3599 -1.2180
  454MOL0     H61284   9.600  10.997   6.381  0.2491  0.2348 -1.4204
  454MOL0     H61285   9.728  11.071   6.466 -0.4022  0.2317  0.3634
  454MOL0     H61286   9.912  10.912   6.121  1.0092 -0.4754  0.0367
  454MOL0     H61287  10.014  10.738   6.859 -0.0568 -0.2199 -0.1086
  454MOL0     H61288  10.190  10.898   7.102  1.5855 -2.3743 -0.9633
  454MOL0     H61289  10.196  10.808   6.965  0.8979 -1.1238  2.8941
  454MOL0     H61290  10.198  10.984   6.941  2.5399 -0.0913  0.7512
  455MOL0     O61291   2.443   8.461   3.837  0.1237 -0.3442  0.4584
  455MOL0     C61292   2.456   8.345   3.876  0.2890 -0.1631  0.8057
  455MOL0     O61293   2.574   8.282   3.916 -0.2464  0.3239 -0.2672
  455MOL0     C61294   2.689   8.349   3.894 -0.3116 -0.1552 -0.6765
  455MOL0     C61295   2.811   8.279   3.859  0.7838  0.2217  0.4077
  455MOL0     C61296   2.924   8.353   3.837  0.8934  0.7812  0.3245
  455MOL0     C61297   2.933   8.491   3.855  0.2496 -0.9810  0.2896
  455MOL0     O61298   3.057   8.552   3.843  0.6593 -0.6041  0.0243
  455MOL0     C61299   3.095   8.674   3.891 -0.1756  0.4400 -0.1195
  455MOL0     C61300   3.248   8.672   3.920  0.7925 -0.8211  0.0986
  455MOL0     C61301   3.333   8.582   3.827  0.6537  0.5616 -0.9791
  455MOL0     C61302   3.489   8.597   3.854 -0.1506  0.0355 -0.5876
  455MOL0     C61303   3.556   8.491   3.774  0.1806 -0.0325  0.9422
  455MOL0     C61304   3.707   8.505   3.748  1.3408  0.3145 -0.5952
  455MOL0     C61305   3.788   8.504   3.884 -0.1137  0.9435  0.4284
  455MOL0     C61306   3.935   8.478   3.852  0.3110 -0.6272  0.6350
  455MOL0     N61307   3.979   8.535   3.734  1.0821 -0.1561  0.2514
  455MOL0     C61308   4.009   8.667   3.710  0.5427  0.3840  0.0738
  455MOL0     C61309   4.057   8.681   3.588 -0.0999  0.3969  0.3326
  455MOL0     C61310   4.126   8.810   3.525  0.1102  0.5648 -0.0292
  455MOL0     C61311   4.282   8.793   3.521 -0.2611 -0.1982  0.3684
  455MOL0     C61312   4.342   8.936   3.476  0.7279  0.7681 -0.7020
  455MOL0     C61313   4.477   8.953   3.554 -0.3688  0.0621  0.4021
  455MOL0     O61314   4.511   9.091   3.531  0.5525 -0.1827  0.5480
  455MOL0     C61315   4.612   9.161   3.585 -0.4276 -0.1457 -0.2879
  455MOL0     C61316   4.707   9.108   3.671  0.5677  0.3006 -0.3822
  455MOL0     C61317   4.819   9.176   3.718 -0.3379 -0.2360  0.1708
  455MOL0     C61318   4.851   9.304   3.661  1.0460  0.5698  0.2007
  455MOL0     C61319   4.974   9.363   3.702 -0.1367 -0.3187 -0.1828
  455MOL0     O61320   5.070   9.279   3.731  0.1806  0.5118 -0.9804
  455MOL0     C61321   5.195   9.313   3.789 -0.4177 -0.5542 -0.9283
  455MOL0     C61322   5.207   9.414   3.882 -0.1141  0.6663  0.5520
  455MOL0     C61323   5.327   9.422   3.951 -0.1521  0.8156  0.1063
  455MOL0     C61324   5.445   9.345   3.920 -0.3470  0.3840  0.5776
  455MOL0     O61325   5.557   9.373   3.983 -0.4279  0.9597  0.2825
  455MOL0     C61326   5.648   9.273   4.014 -0.3088  0.1869  0.5603
  455MOL0     C61327   5.780   9.344   4.064 -0.0836 -0.0182  0.6437
  455MOL0     C61328   5.896   9.248   4.070  0.9624  0.1653 -1.0359
  455MOL0     C61329   6.004   9.287   4.167 -0.0404 -0.1470 -0.3266
  455MOL0     C61330   6.123   9.191   4.138 -0.4681  0.4771  0.4120
  455MOL0     C61331   6.249   9.224   4.224 -0.0357 -0.2770 -0.2844
  455MOL0     C61332   6.371   9.144   4.159  0.0797  0.2100  0.7786
  455MOL0     C61333   6.498   9.197   4.219 -0.4125 -0.2669  0.4244
  455MOL0    Cl61334   6.487   9.208   4.397  0.0296 -0.0158  0.0505
  455MOL0     C61335   5.433   9.264   3.808  0.1496  0.4214 -0.2066
  455MOL0     C61336   5.311   9.244   3.749  0.0939  0.0676  0.0995
  455MOL0     O61337   4.979   9.489   3.716  0.2650  0.0305  0.5055
  455MOL0     C61338   4.763   9.361   3.572  0.8714 -0.4443  0.0560
  455MOL0     C61339   4.642   9.287   3.537 -0.2347  0.2811  0.3702
  455MOL0     N61340   4.056   8.554   3.536  0.2787  0.4368  0.3039
  455MOL0     N61341   4.001   8.468   3.618  0.4596  0.2392 -0.0268
  455MOL0     C61342   2.825   8.562   3.894 -0.2859  0.0822  0.1334
  455MOL0     C61343   2.705   8.491   3.909 -0.2859 -0.1988 -0.3491
  455MOL0     C61344   2.320   8.283   3.921  0.2313  0.9448  0.0116
  455MOL0     C61345   2.319   8.189   4.027 -0.5034  0.4007 -0.6801
  455MOL0     C61346   2.217   8.133   4.092  0.9974  0.6172  0.8833
  455MOL0     C61347   2.092   8.161   4.034 -0.0369  1.1500 -0.3784
  455MOL0     O61348   1.974   8.117   4.092 -0.5505 -0.0212 -0.4090
  455MOL0     C61349   1.981   8.090   4.229  0.4860 -0.0619 -0.3228
  455MOL0     C61350   1.841   8.105   4.290 -1.0311  0.4087 -0.4793
  455MOL0     C61351   1.817   8.049   4.431  0.4728 -0.1352 -0.2816
  455MOL0     C61352   1.701   8.128   4.508 -0.0684 -0.1647  0.0847
  455MOL0     C61353   1.580   8.099   4.440 -0.2511  0.0460 -0.2980
  455MOL0     C61354   1.482   8.077   4.373 -0.0703  0.7861  0.2800
  455MOL0     C61355   2.080   8.235   3.912 -0.7580 -0.7549 -0.3040
  455MOL0     C61356   2.191   8.306   3.865 -0.2945 -0.4847  0.3518
  455MOL0     C61357   2.166   8.403   3.747  0.0621  0.9009 -0.9403
  455MOL0     H61358   2.808   8.171   3.851 -0.7752  0.3591 -2.1499
  455MOL0     H61359   3.018   8.306   3.811  1.0502  1.1856  0.1464
  455MOL0     H61360   3.081   8.744   3.807 -2.1003  0.7507  0.3962
  455MOL0     H61361   3.036   8.713   3.975 -1.2181  0.2768 -0.7478
  455MOL0     H61362   3.267   8.650   4.025 -1.5571  1.1941  1.0432
  455MOL0     H61363   3.284   8.773   3.897 -1.5426 -0.2348 -1.3517
  455MOL0     H61364   3.299   8.607   3.726 -1.6580 -2.6476 -1.1317
  455MOL0     H61365   3.315   8.476   3.848 -0.5708  1.1491  1.1979
  455MOL0     H61366   3.528   8.690   3.811  4.1132 -1.0085  0.5293
  455MOL0     H61367   3.522   8.582   3.957  2.4785 -0.9286 -1.5019
  455MOL0     H61368   3.529   8.391   3.810 -1.2421 -0.6078 -1.4414
  455MOL0     H61369   3.507   8.496   3.676  2.7338  0.2010 -0.4079
  455MOL0     H61370   3.737   8.430   3.675  1.1258 -0.0157 -0.3496
  455MOL0     H61371   3.726   8.602   3.701 -0.5683  0.5442 -0.9689
  455MOL0     H61372   3.747   8.427   3.949  0.3698  0.9446  0.7322
  455MOL0     H61373   3.785   8.600   3.936  0.2010  1.4981 -0.5384
  455MOL0     H61374   3.984   8.513   3.943 -1.7951  1.8032  0.9383
  455MOL0     H61375   3.955   8.370   3.842  0.7010 -0.4798 -0.3758
  455MOL0     H61376   4.003   8.746   3.785  1.1250  1.3869 -0.9059
  455MOL0     H61377   4.091   8.814   3.421  0.4633 -0.9374 -0.2160
  455MOL0     H61378   4.100   8.898   3.585  0.0921  0.6200 -0.1178
  455MOL0     H61379   4.305   8.771   3.625 -0.5150 -0.2920  0.4056
  455MOL0     H61380   4.320   8.716   3.453 -2.2304 -0.9299  0.0348
  455MOL0     H61381   4.274   9.015   3.509 -0.3338 -0.0625 -0.8559
  455MOL0     H61382   4.365   8.935   3.369  1.6408 -0.6305 -0.5218
  455MOL0     H61383   4.559   8.898   3.507 -0.4996  2.7521 -3.4425
  455MOL0     H61384   4.467   8.931   3.661  0.8317 -1.2000  0.2891
  455MOL0     H61385   4.701   9.003   3.698  1.6582 -0.2713 -2.1549
  455MOL0     H61386   4.879   9.123   3.792 -0.5960 -0.3008  0.3341
  455MOL0     H61387   5.119   9.475   3.902 -0.5104  0.2393  0.1257
  455MOL0     H61388   5.338   9.508   4.016 -1.4086  0.7724  0.4041
  455MOL0     H61389   5.623   9.200   4.091 -2.7722  2.6234  2.2474
  455MOL0     H61390   5.673   9.217   3.923 -1.1094 -1.0251  1.0688
  455MOL0     H61391   5.807   9.426   3.996  4.0880 -0.3674  1.6279
  455MOL0     H61392   5.754   9.383   4.163  0.9558 -0.0796  0.9504
  455MOL0     H61393   5.872   9.150   4.112  2.3488 -0.9437 -2.6988
  455MOL0     H61394   5.941   9.230   3.972  3.5310 -0.2597  0.1495
  455MOL0     H61395   5.974   9.288   4.272 -0.1473  1.9958 -0.3487
  455MOL0     H61396   6.034   9.389   4.141  0.7969  0.7700  3.5673
  455MOL0     H61397   6.147   9.211   4.034 -0.1033  0.8442  0.5631
  455MOL0     H61398   6.098   9.085   4.144  0.4850  0.1229 -1.2384
  455MOL0     H61399   6.270   9.332   4.223  2.6421 -0.7363 -0.9673
  455MOL0     H61400   6.214   9.187   4.321 -2.2518 -0.4856 -1.1227
  455MOL0     H61401   6.373   9.153   4.050  0.1912 -3.1089  0.4107
  455MOL0     H61402   6.353   9.037   4.176  3.3589 -0.7717 -1.1684
  455MOL0     H61403   6.591   9.149   4.186  0.3030  0.3168  1.5353
  455MOL0     H61404   6.528   9.298   4.189 -2.1064  0.7075  1.8045
  455MOL0     H61405   5.523   9.231   3.757  0.1178 -2.6487  1.5001
  455MOL0     H61406   5.309   9.190   3.655 -3.1657  0.9807 -0.4920
  455MOL0     H61407   4.779   9.460   3.531 -2.8686  0.0375 -0.6542
  455MOL0     H61408   4.566   9.332   3.473  1.9167 -1.0416 -3.4316
  455MOL0     H61409   2.832   8.669   3.913  0.7318 -0.0883  0.7913
  455MOL0     H61410   2.627   8.559   3.940  1.2373  1.8895 -0.9205
  455MOL0     H61411   2.413   8.153   4.068 -1.7039  0.7653  2.6648
  455MOL0     H61412   2.218   8.065   4.177 -2.5444 -0.2059  0.4106
  455MOL0     H61413   2.052   8.155   4.281 -0.7272 -1.1848  2.9754
  455MOL0     H61414   2.018   7.989   4.246  2.3704  0.1664 -2.4862
  455MOL0     H61415   1.779   8.059   4.213  0.2511  1.3083 -2.1107
  455MOL0     H61416   1.808   8.209   4.283 -3.6725 -0.1664  1.5815
  455MOL0     H61417   1.910   8.052   4.489 -0.1110 -0.5033  0.7023
  455MOL0     H61418   1.791   7.943   4.429  2.0597 -0.5726 -2.3191
  455MOL0     H61419   1.695   8.091   4.610  1.2409 -5.0245 -1.3258
  455MOL0     H61420   1.721   8.235   4.497 -2.5037  0.1723 -2.2675
  455MOL0     H61421   1.392   8.065   4.317 -0.6254  0.3644  1.2512
  455MOL0     H61422   1.982   8.254   3.870 -0.2103  0.0860 -1.2339
  455MOL0     H61423   2.232   8.382   3.663  0.9380  4.5299 -1.3041
  455MOL0     H61424   2.060   8.390   3.722  0.2617 -2.0982 -0.5738
  455MOL0     H61425   2.184   8.505   3.783  3.4773 -0.1429  0.7637
  456MOL0     O61426   2.868   6.316   4.823 -0.0467 -0.7803  0.5907
  456MOL0     C61427   2.779   6.233   4.808 -0.6495  0.6356 -0.0816
  456MOL0     O61428   2.780   6.104   4.856 -0.9918 -0.5982 -0.0239
  456MOL0     C61429   2.878   6.048   4.932 -1.0546  0.6968 -0.2607
  456MOL0     C61430   2.886   5.907   4.926  0.3786 -0.1713  0.5369
  456MOL0     C61431   2.991   5.832   4.993  0.6749  0.0570  0.6677
  456MOL0     C61432   3.094   5.905   5.055 -0.2628 -1.1653  0.1520
  456MOL0     O61433   3.202   5.838   5.115 -0.5359 -0.3487  0.5044
  456MOL0     C61434   3.325   5.863   5.037  0.1909  0.4479 -0.2527
  456MOL0     C61435   3.326   5.767   4.913 -0.1628  0.0015  0.8118
  456MOL0     C61436   3.447   5.799   4.821  0.1416  1.2588 -0.1979
  456MOL0     C61437   3.444   5.691   4.706 -0.0620  0.4449  0.3503
  456MOL0     C61438   3.545   5.719   4.593  0.5680 -0.2019 -0.2131
  456MOL0     C61439   3.685   5.743   4.654  0.2626  0.0737  0.8846
  456MOL0     C61440   3.805   5.751   4.558 -1.4013  0.2953  0.6262
  456MOL0     C61441   3.820   5.626   4.467 -0.1678  0.4121  0.4623
  456MOL0     N61442   3.854   5.497   4.528 -0.0447 -0.2268 -0.1910
  456MOL0     C61443   3.866   5.387   4.455 -0.2142  0.5870  1.3105
  456MOL0     C61444   3.936   5.308   4.526 -1.6428  0.2181 -0.2567
  456MOL0     C61445   3.982   5.168   4.486 -0.1541 -0.5116  0.3373
  456MOL0     C61446   4.134   5.161   4.456 -0.4072  0.0879 -0.1748
  456MOL0     C61447   4.193   5.020   4.480 -0.8174 -1.2940 -0.3923
  456MOL0     C61448   4.343   5.022   4.472 -0.1468  0.8186 -0.5728
  456MOL0     O61449   4.383   4.884   4.472 -0.2265 -0.4712 -0.3607
  456MOL0     C61450   4.508   4.850   4.428 -0.3449  0.0221 -0.5148
  456MOL0     C61451   4.609   4.932   4.380 -0.2381 -0.7108  0.2042
  456MOL0     C61452   4.739   4.895   4.334 -0.1080  0.1792 -0.0204
  456MOL0     C61453   4.763   4.752   4.336 -0.8688  0.4707  0.6645
  456MOL0     C61454   4.888   4.699   4.276 -0.0213  0.1941 -0.2134
  456MOL0     O61455   4.918   4.571   4.318 -0.0632 -0.2182 -0.0346
  456MOL0     C61456   5.000   4.515   4.228 -0.1134  0.6396  0.4830
  456MOL0     C61457   4.947   4.466   4.104 -1.4351 -0.1241 -0.0637
  456MOL0     C61458   5.018   4.387   4.018  0.2509  0.3992 -0.1961
  456MOL0     C61459   5.134   4.325   4.074 -0.6148  1.1259 -0.3729
  456MOL0     O61460   5.209   4.232   4.006 -0.3104 -0.3855  0.5381
  456MOL0     C61461   5.202   4.219   3.865  0.2980 -0.5062 -0.1389
  456MOL0     C61462   5.304   4.122   3.813 -0.2477  0.1238  0.2194
  456MOL0     C61463   5.334   4.007   3.903 -0.6090 -0.2256 -0.2359
  456MOL0     C61464   5.420   3.902   3.814  0.4157 -0.4087  0.7863
  456MOL0     C61465   5.487   3.794   3.885  0.7980  0.2395  0.2428
  456MOL0     C61466   5.635   3.813   3.928 -0.5524 -0.8206  0.0575
  456MOL0     C61467   5.702   3.709   4.007  0.6413  0.2546 -0.3069
  456MOL0     C61468   5.844   3.758   4.043  0.1182  0.5987  0.4953
  456MOL0    Cl61469   5.929   3.635   4.153 -0.2682 -0.3099 -0.4947
  456MOL0     C61470   5.184   4.370   4.189 -0.4976  0.0205  0.1664
  456MOL0     C61471   5.124   4.470   4.262  0.0782 -0.4981  0.5646
  456MOL0     O61472   4.957   4.774   4.211  0.2217  0.3810 -0.0891
  456MOL0     C61473   4.667   4.671   4.385  0.2682 -0.7980  0.2820
  456MOL0     C61474   4.543   4.717   4.436  0.6400 -0.4613  0.8098
  456MOL0     N61475   3.964   5.362   4.649 -0.6464  0.7117  0.1933
  456MOL0     N61476   3.909   5.476   4.651 -0.6636 -0.3522  0.5414
  456MOL0     C61477   3.091   6.047   5.067  1.0700 -0.8030 -0.5815
  456MOL0     C61478   2.973   6.109   5.013  0.5178  0.2208  0.1159
  456MOL0     C61479   2.646   6.258   4.741 -0.2685 -0.0647 -0.0069
  456MOL0     C61480   2.548   6.151   4.749 -0.6723  0.2055  0.4368
  456MOL0     C61481   2.422   6.173   4.697  0.1299 -0.4865 -0.2744
  456MOL0     C61482   2.393   6.289   4.627  0.4871  0.5342  0.4920
  456MOL0     O61483   2.262   6.321   4.591 -0.0718  0.4848 -0.3449
  456MOL0     C61484   2.169   6.217   4.582 -0.3667  0.3780  0.8460
  456MOL0     C61485   2.043   6.262   4.508  0.0231  1.2212 -0.3253
  456MOL0     C61486   2.073   6.325   4.368 -0.6466  0.6766 -0.0997
  456MOL0     C61487   1.940   6.385   4.306  0.5326 -0.0492  0.4572
  456MOL0     C61488   1.844   6.280   4.295 -0.6487  0.2609  0.0697
  456MOL0     C61489   1.766   6.186   4.292  0.7816  0.3387  0.9740
  456MOL0     C61490   2.484   6.394   4.622 -0.2110 -0.0324  0.2564
  456MOL0     C61491   2.612   6.379   4.666  0.7024  0.7729 -0.7159
  456MOL0     C61492   2.708   6.491   4.641  0.4072 -0.1617  0.5514
  456MOL0     H61493   2.807   5.856   4.872 -1.1061  2.5049 -0.0011
  456MOL0     H61494   3.010   5.726   4.980  0.1252  0.1327 -0.9821
  456MOL0     H61495   3.351   5.964   5.007  2.4688  0.1202  0.4611
  456MOL0     H61496   3.408   5.837   5.103  0.9557  3.3561  0.0335
  456MOL0     H61497   3.239   5.785   4.850 -1.1605  0.6445  2.3218
  456MOL0     H61498   3.326   5.662   4.941  3.2502 -1.3592 -3.2748
  456MOL0     H61499   3.537   5.788   4.881  0.6018 -1.9288 -1.3124
  456MOL0     H61500   3.447   5.898   4.773  0.0498  1.8801  1.0417
  456MOL0     H61501   3.471   5.597   4.755 -1.3764  0.1873  0.6166
  456MOL0     H61502   3.347   5.679   4.657 -0.3008  1.4907  0.5437
  456MOL0     H61503   3.540   5.638   4.521 -4.2622  1.1503 -1.8021
  456MOL0     H61504   3.501   5.802   4.537 -0.3935 -2.1550 -2.4884
  456MOL0     H61505   3.668   5.834   4.712  0.0665  0.1128  0.7668
  456MOL0     H61506   3.701   5.655   4.717 -0.9616 -0.9621 -0.1800
  456MOL0     H61507   3.893   5.774   4.617  0.5116 -1.3234 -1.4225
  456MOL0     H61508   3.795   5.832   4.485 -0.5803 -1.6443 -1.7772
  456MOL0     H61509   3.732   5.619   4.403  0.6287  2.9169 -1.0594
  456MOL0     H61510   3.901   5.651   4.398  0.4137 -3.3003 -0.3844
  456MOL0     H61511   3.831   5.372   4.353  1.4554  0.5266  0.7199
  456MOL0     H61512   3.954   5.096   4.563  1.5485 -0.1071  1.4013
  456MOL0     H61513   3.943   5.148   4.386 -0.2866  3.0296 -0.4556
  456MOL0     H61514   4.159   5.178   4.351 -0.4272  0.6411 -0.0894
  456MOL0     H61515   4.182   5.236   4.520  1.5681 -1.7322  0.6180
  456MOL0     H61516   4.169   4.948   4.401 -0.4465 -3.0799  1.0506
  456MOL0     H61517   4.146   4.978   4.569 -0.1528 -1.0332  0.0842
  456MOL0     H61518   4.384   5.076   4.558  1.1606  0.6073 -1.0491
  456MOL0     H61519   4.375   5.067   4.378  0.7754  3.1442  0.7929
  456MOL0     H61520   4.588   5.038   4.371 -0.2259 -0.5238  1.9842
  456MOL0     H61521   4.816   4.966   4.306  0.4336 -0.7390 -0.9320
  456MOL0     H61522   4.844   4.492   4.081 -0.8024  1.6925 -1.0664
  456MOL0     H61523   4.982   4.366   3.918 -4.6929  3.6326  0.5716
  456MOL0     H61524   5.104   4.180   3.835 -1.6259  3.4777  0.2969
  456MOL0     H61525   5.212   4.313   3.811 -0.9458 -0.8054 -0.9592
  456MOL0     H61526   5.261   4.083   3.720  0.9550  2.9351 -1.6406
  456MOL0     H61527   5.399   4.170   3.790 -0.2751 -1.1224 -2.9948
  456MOL0     H61528   5.405   4.039   3.980 -0.6702 -0.7973  0.0604
  456MOL0     H61529   5.244   3.958   3.944 -2.9114  2.4904 -1.7051
  456MOL0     H61530   5.494   3.955   3.754  0.6545 -0.7390  0.7875
  456MOL0     H61531   5.353   3.862   3.737 -1.6950  0.9534  1.8106
  456MOL0     H61532   5.491   3.717   3.808 -0.1572  0.7804 -0.3665
  456MOL0     H61533   5.431   3.753   3.970  2.3758 -2.6791 -0.0177
  456MOL0     H61534   5.693   3.840   3.839 -3.2670 -0.8420 -1.8380
  456MOL0     H61535   5.637   3.905   3.987 -1.6946 -2.0001  2.0312
  456MOL0     H61536   5.713   3.622   3.942 -0.6474  0.4867 -0.8604
  456MOL0     H61537   5.644   3.681   4.095  1.2577 -0.6454 -0.1773
  456MOL0     H61538   5.916   3.776   3.962  0.3502  0.4329  0.6643
  456MOL0     H61539   5.850   3.853   4.096  1.4339  1.5956 -1.3509
  456MOL0     H61540   5.282   4.334   4.219 -0.4036  0.0474 -0.1053
  456MOL0     H61541   5.154   4.515   4.355 -1.6025  1.5602  0.1764
  456MOL0     H61542   4.682   4.564   4.378 -1.5917 -1.1976  1.7091
  456MOL0     H61543   4.473   4.645   4.475 -1.5242  0.9036 -0.3441
  456MOL0     H61544   3.170   6.100   5.119  2.4337 -0.0270 -3.2939
  456MOL0     H61545   2.962   6.213   5.041 -0.9666 -0.5410  2.6685
  456MOL0     H61546   2.570   6.052   4.786 -1.5685 -0.2869 -0.2972
  456MOL0     H61547   2.342   6.105   4.724 -0.3095  0.4122  0.7711
  456MOL0     H61548   2.147   6.171   4.679 -1.0062 -0.7152  0.2062
  456MOL0     H61549   2.215   6.133   4.529  0.0376  1.8048 -1.2070
  456MOL0     H61550   2.001   6.343   4.567  0.3562 -0.3026  2.1225
  456MOL0     H61551   1.973   6.178   4.501  2.1557 -0.7551  0.7637
  456MOL0     H61552   2.106   6.241   4.306 -1.4901  0.8174 -0.7597
  456MOL0     H61553   2.148   6.404   4.371 -1.4522  1.4701 -0.4952
  456MOL0     H61554   1.904   6.475   4.356  0.7860 -0.8292  2.1147
  456MOL0     H61555   1.961   6.413   4.202 -0.6215  0.2473  0.2988
  456MOL0     H61556   1.700   6.102   4.300  2.8712 -1.3116  1.9905
  456MOL0     H61557   2.440   6.484   4.581 -1.7293  0.0143  1.8418
  456MOL0     H61558   2.668   6.558   4.564  0.6071 -1.9704 -1.2223
  456MOL0     H61559   2.728   6.545   4.734 -1.6831  1.2037  0.2794
  456MOL0     H61560   2.808   6.463   4.606  1.2494  1.4523  1.5079
  457MOL0     O61561   0.296   5.515   1.172  0.2136  0.3817 -0.1758
  457MOL0     C61562   0.349   5.621   1.154  0.4099 -0.0711  0.4891
  457MOL0     O61563   0.305   5.724   1.077 -0.4894  0.1766 -0.1287
  457MOL0     C61564   0.186   5.714   1.010  0.3165  0.3386 -0.0049
  457MOL0     C61565   0.062   5.661   1.063 -0.3664 -0.2974 -0.2009
  457MOL0     C61566  -0.057   5.676   0.992 -0.3405 -0.7673  0.5357
  457MOL0     C61567  -0.063   5.735   0.867 -0.4270 -0.2323 -0.3306
  457MOL0     O61568  -0.185   5.736   0.810 -0.7544 -0.4145 -0.2537
  457MOL0     C61569  -0.194   5.795   0.678 -0.4412 -0.0511 -0.2890
  457MOL0     C61570  -0.339   5.792   0.637 -0.2633  0.3972  0.2580
  457MOL0     C61571  -0.376   5.876   0.520  0.3729 -0.1051  0.8259
  457MOL0     C61572  -0.526   5.843   0.478  0.0189 -0.3811  1.1773
  457MOL0     C61573  -0.590   5.955   0.408  0.5201  0.3824 -0.6352
  457MOL0     C61574  -0.737   5.904   0.397  0.6066 -0.7626  0.4399
  457MOL0     C61575  -0.810   5.986   0.288  0.1274  0.1368  0.1573
  457MOL0     C61576  -0.970   5.972   0.312  0.2268 -0.4898  0.6162
  457MOL0     N61577  -1.016   5.845   0.259  0.0046  0.4751 -0.4837
  457MOL0     C61578  -1.061   5.807   0.136  0.1513  0.2228 -0.1813
  457MOL0     C61579  -1.093   5.675   0.151 -0.0338 -0.0071 -0.2079
  457MOL0     C61580  -1.153   5.595   0.039 -0.0366  0.9361  0.8043
  457MOL0     C61581  -1.072   5.464   0.024 -1.6376  0.0034 -0.1716
  457MOL0     C61582  -0.937   5.497  -0.036 -0.8145  0.4758  0.5241
  457MOL0     C61583  -0.819   5.489   0.069  0.8341 -1.4452  0.5390
  457MOL0     O61584  -0.687   5.521   0.009 -0.0146 -0.7857  0.1728
  457MOL0     C61585  -0.583   5.526   0.101 -0.1283  0.0898 -0.0738
  457MOL0     C61586  -0.586   5.519   0.245  0.0292 -0.4929  0.4525
  457MOL0     C61587  -0.471   5.545   0.319  0.0056  0.3970 -0.0202
  457MOL0     C61588  -0.346   5.574   0.255 -0.4264  0.4522  0.1477
  457MOL0     C61589  -0.217   5.587   0.336 -0.1189 -0.1738  0.0915
  457MOL0     O61590  -0.111   5.647   0.265 -0.0253 -0.1662 -0.1381
  457MOL0     C61591   0.019   5.656   0.317 -0.6001  0.3675  1.2352
  457MOL0     C61592   0.065   5.634   0.447  0.2812  0.3685  0.1307
  457MOL0     C61593   0.195   5.649   0.486  0.0170 -0.3127 -0.7825
  457MOL0     C61594   0.287   5.709   0.403  0.0743 -0.1702  0.1387
  457MOL0     O61595   0.404   5.747   0.460 -0.6211 -0.0180  0.0160
  457MOL0     C61596   0.496   5.838   0.390  0.4571  0.1968  0.0538
  457MOL0     C61597   0.591   5.897   0.485  0.8175 -0.4230  0.1380
  457MOL0     C61598   0.689   5.799   0.549  0.0266  0.5298 -0.4099
  457MOL0     C61599   0.806   5.771   0.453  0.9478  0.4125 -0.0229
  457MOL0     C61600   0.898   5.678   0.515  0.1568  0.3079 -0.0615
  457MOL0     C61601   1.034   5.686   0.446  0.2704 -0.4717 -0.8062
  457MOL0     C61602   1.134   5.590   0.510 -0.2142 -0.1290  0.1624
  457MOL0     C61603   1.266   5.575   0.435 -0.1657  0.2153  0.4020
  457MOL0    Cl61604   1.255   5.534   0.263 -0.3089  0.5296  0.0848
  457MOL0     C61605   0.249   5.739   0.269  0.2371  0.4980 -0.2559
  457MOL0     C61606   0.122   5.698   0.226  0.4698 -1.5410 -0.3851
  457MOL0     O61607  -0.214   5.525   0.442  0.3956 -0.4708 -0.1059
  457MOL0     C61608  -0.341   5.575   0.115 -0.0141 -0.6794 -0.7606
  457MOL0     C61609  -0.457   5.554   0.039 -0.3842  0.3101 -0.3282
  457MOL0     N61610  -1.064   5.638   0.279 -0.2753 -0.0799  0.2755
  457MOL0     N61611  -1.021   5.739   0.342  0.1800 -0.1233  0.4057
  457MOL0     C61612   0.059   5.790   0.817 -0.4419  0.3391 -0.4802
  457MOL0     C61613   0.181   5.786   0.894 -0.1538 -0.4887 -0.3134
  457MOL0     C61614   0.488   5.613   1.199 -0.1279  0.4221  0.4312
  457MOL0     C61615   0.540   5.528   1.302 -0.3531  0.0009 -0.0210
  457MOL0     C61616   0.674   5.525   1.341  0.8918 -0.2824 -0.2759
  457MOL0     C61617   0.770   5.605   1.283  0.0879 -0.1414  0.0537
  457MOL0     O61618   0.906   5.605   1.307  0.5609 -0.1998  0.3022
  457MOL0     C61619   0.939   5.583   1.445  0.2655  0.6786 -0.4383
  457MOL0     C61620   1.018   5.701   1.514 -0.5520  0.1239  0.8921
  457MOL0     C61621   0.924   5.819   1.541 -0.4310  0.0255 -0.4021
  457MOL0     C61622   0.997   5.918   1.639  0.1409  0.0284 -0.0213
  457MOL0     C61623   0.892   5.998   1.705 -0.1870  0.2773  0.5986
  457MOL0     C61624   0.801   6.050   1.762  0.1671 -0.0113  0.5286
  457MOL0     C61625   0.716   5.696   1.181 -0.1065  0.5293 -0.0107
  457MOL0     C61626   0.581   5.703   1.139  0.3427 -0.3900  0.3010
  457MOL0     C61627   0.555   5.794   1.021  0.4454  0.3482  0.0906
  457MOL0     H61628   0.070   5.603   1.155  0.2982  1.4920  0.9314
  457MOL0     H61629  -0.155   5.637   1.017 -1.7375  0.9544 -1.8047
  457MOL0     H61630  -0.148   5.894   0.673  0.3910 -0.2797  1.8306
  457MOL0     H61631  -0.132   5.732   0.614 -2.0985 -3.4596  1.2331
  457MOL0     H61632  -0.396   5.831   0.722 -0.2160  3.6752 -1.0678
  457MOL0     H61633  -0.352   5.685   0.617  1.5533 -0.0735  1.4084
  457MOL0     H61634  -0.309   5.848   0.439 -1.5551 -3.1947  0.1233
  457MOL0     H61635  -0.370   5.980   0.554  2.1576 -0.5934  2.1219
  457MOL0     H61636  -0.517   5.760   0.407 -1.0146 -1.8119  2.6586
  457MOL0     H61637  -0.595   5.810   0.556 -1.6405 -0.8508 -0.4338
  457MOL0     H61638  -0.584   6.047   0.467 -0.6204 -0.5399  0.9877
  457MOL0     H61639  -0.550   5.954   0.306 -2.1201 -0.8147 -1.7460
  457MOL0     H61640  -0.731   5.802   0.359  0.7116 -1.3303  1.9172
  457MOL0     H61641  -0.789   5.887   0.492 -1.3834 -1.7451 -0.7552
  457MOL0     H61642  -0.798   5.949   0.186 -3.0246 -0.6841 -0.0091
  457MOL0     H61643  -0.779   6.091   0.298  0.9227 -0.0441 -0.3203
  457MOL0     H61644  -1.002   5.980   0.416 -1.1237  0.2415  0.1741
  457MOL0     H61645  -1.018   6.052   0.255  2.0822  0.9615  0.9892
  457MOL0     H61646  -1.073   5.870   0.049  0.4487 -0.0289 -0.4069
  457MOL0     H61647  -1.258   5.575   0.065  0.8597 -1.9103  2.6636
  457MOL0     H61648  -1.167   5.657  -0.050 -1.1606  0.9214  0.9546
  457MOL0     H61649  -1.056   5.417   0.121  0.9470  1.2465  0.0953
  457MOL0     H61650  -1.128   5.387  -0.030  0.9112 -3.5599  1.8412
  457MOL0     H61651  -0.937   5.593  -0.088 -0.9738  0.8268  1.1573
  457MOL0     H61652  -0.917   5.424  -0.115 -0.2085 -0.6842  1.6978
  457MOL0     H61653  -0.817   5.387   0.110 -2.2571 -1.8317 -0.0587
  457MOL0     H61654  -0.836   5.556   0.154  0.6314 -1.7005  0.7011
  457MOL0     H61655  -0.682   5.503   0.292 -0.8365 -1.1239 -1.4284
  457MOL0     H61656  -0.473   5.539   0.427  3.8480 -0.3630  0.1544
  457MOL0     H61657  -0.009   5.598   0.518 -0.4045 -0.9897 -1.2155
  457MOL0     H61658   0.219   5.609   0.585  3.8851  0.6503 -1.1797
  457MOL0     H61659   0.551   5.784   0.312  0.7290 -1.4250  1.3090
  457MOL0     H61660   0.445   5.919   0.336 -0.0417 -1.3136 -1.8446
  457MOL0     H61661   0.652   5.977   0.443  2.2277 -2.4931 -1.9925
  457MOL0     H61662   0.538   5.922   0.578  3.0723  2.1824  0.8750
  457MOL0     H61663   0.722   5.825   0.650  2.0761  0.0661 -0.9092
  457MOL0     H61664   0.637   5.708   0.580 -2.4093  2.0762  0.2982
  457MOL0     H61665   0.862   5.865   0.453  1.0972  0.3225 -0.3951
  457MOL0     H61666   0.766   5.736   0.358  0.2054 -1.4008  0.9063
  457MOL0     H61667   0.858   5.578   0.497 -1.7946  1.0877 -0.2932
  457MOL0     H61668   0.905   5.691   0.623  0.0688 -1.0923  0.1327
  457MOL0     H61669   1.016   5.671   0.339  0.1595  2.7782 -1.3266
  457MOL0     H61670   1.071   5.789   0.446 -3.5541  1.0653 -0.5223
  457MOL0     H61671   1.084   5.494   0.524 -2.3841  0.6088 -1.8904
  457MOL0     H61672   1.166   5.635   0.605 -0.5879  0.4431  0.0217
  457MOL0     H61673   1.334   5.659   0.454  0.0264 -0.0585  0.9548
  457MOL0     H61674   1.315   5.490   0.482  1.9981  0.7480 -0.7621
  457MOL0     H61675   0.314   5.788   0.197  0.0516  0.4028 -0.4915
  457MOL0     H61676   0.090   5.715   0.124  1.5658 -1.5461 -0.7437
  457MOL0     H61677  -0.248   5.611   0.072  1.0243  1.6160  2.8827
  457MOL0     H61678  -0.456   5.578  -0.067 -1.1304 -0.3416 -0.4995
  457MOL0     H61679   0.057   5.837   0.719  1.1663 -0.3928 -0.9080
  457MOL0     H61680   0.265   5.846   0.861 -0.0885  0.9990  2.3509
  457MOL0     H61681   0.467   5.479   1.366 -1.3203  1.8270  0.3370
  457MOL0     H61682   0.695   5.457   1.424  1.5720 -2.5366 -2.1920
  457MOL0     H61683   1.004   5.495   1.443  1.7636  1.5931  2.3919
  457MOL0     H61684   0.854   5.561   1.509 -1.8024  1.5038 -2.7559
  457MOL0     H61685   1.108   5.732   1.460 -1.2628  0.1967 -0.3069
  457MOL0     H61686   1.059   5.661   1.607 -0.6969 -0.9073  0.5346
  457MOL0     H61687   0.830   5.789   1.588 -1.4846  1.5802 -1.4013
  457MOL0     H61688   0.890   5.864   1.447 -1.0007 -0.6778 -0.5435
  457MOL0     H61689   1.067   5.870   1.707 -1.7148  0.7076  2.5257
  457MOL0     H61690   1.058   5.984   1.576  0.6465 -0.5443 -0.1356
  457MOL0     H61691   0.720   6.095   1.816  0.8289  1.9002  0.0198
  457MOL0     H61692   0.792   5.764   1.143  0.4812 -0.0674  0.0920
  457MOL0     H61693   0.647   5.840   0.983  1.7431 -0.5803  1.9835
  457MOL0     H61694   0.523   5.737   0.933 -1.8661 -0.2935  1.2993
  457MOL0     H61695   0.499   5.882   1.055  0.8593 -0.4205  3.0327
  458MOL0     O61696   0.081  10.267   8.823  0.2059  0.4513 -0.0924
  458MOL0     C61697   0.032  10.317   8.723  0.6842 -0.0800  0.6094
  458MOL0     O61698   0.104  10.351   8.607  0.6555  0.4020 -1.0856
  458MOL0     C61699   0.239  10.381   8.620 -0.3401 -0.0626 -0.6305
  458MOL0     C61700   0.318  10.360   8.507 -0.0319  0.9987 -0.2078
  458MOL0     C61701   0.450  10.407   8.507 -0.6468  0.2191 -0.0274
  458MOL0     C61702   0.501  10.472   8.619 -0.2471  0.0795 -0.2597
  458MOL0     O61703   0.630  10.539   8.621 -0.3593 -0.1381  0.0176
  458MOL0     C61704   0.748  10.477   8.572  0.0595  0.0234  0.2659
  458MOL0     C61705   0.841  10.587   8.567  0.0632 -0.9794 -0.0754
  458MOL0     C61706   0.960  10.529   8.482  0.3865 -0.4944 -0.4237
  458MOL0     C61707   1.083  10.621   8.488 -0.2799  0.6835 -0.2746
  458MOL0     C61708   1.064  10.744   8.395 -0.8126  0.4212  0.5548
  458MOL0     C61709   1.190  10.839   8.391 -0.0238 -0.4823 -0.2788
  458MOL0     C61710   1.326  10.770   8.386 -0.4486  0.5422  0.2410
  458MOL0     C61711   1.433  10.848   8.308 -0.7900  0.7183 -0.7530
  458MOL0     N61712   1.444  10.988   8.357 -0.1504  0.2030 -0.3069
  458MOL0     C61713   1.445  11.096   8.272  0.0716  0.0503 -0.3042
  458MOL0     C61714   1.524  11.189   8.332  0.0484 -0.5790  1.0825
  458MOL0     C61715   1.559  11.323   8.281  0.0518  0.5504  1.1038
  458MOL0     C61716   1.488  11.368   8.151  0.4634 -0.9573  0.0814
  458MOL0     C61717   1.487  11.514   8.117  0.9818  0.1832 -0.4772
  458MOL0     C61718   1.616  11.567   8.088  0.3413  0.1500 -0.3271
  458MOL0     O61719   1.658  11.517   7.958 -0.3488 -0.3808  0.0432
  458MOL0     C61720   1.786  11.532   7.918  0.5551 -0.6862  0.3142
  458MOL0     C61721   1.874  11.610   7.994 -0.8306  0.3794  0.2744
  458MOL0     C61722   2.005  11.615   7.951 -0.4153 -0.0115 -0.6441
  458MOL0     C61723   2.052  11.571   7.827 -1.0616  0.3924 -0.1058
  458MOL0     C61724   2.202  11.572   7.810 -0.1148  0.1480  0.7818
  458MOL0     O61725   2.253  11.494   7.702 -0.5233  1.1218  0.2497
  458MOL0     C61726   2.384  11.465   7.689  0.2889  1.1542  0.5251
  458MOL0     C61727   2.465  11.426   7.797 -0.0054 -0.1335 -0.2001
  458MOL0     C61728   2.601  11.409   7.777 -0.1648 -0.5420  0.0478
  458MOL0     C61729   2.662  11.423   7.649  0.4544 -0.4250 -0.9505
  458MOL0     O61730   2.798  11.403   7.621 -0.2766 -0.2656 -0.2676
  458MOL0     C61731   2.883  11.357   7.734  0.5098 -0.0723  0.2349
  458MOL0     C61732   2.979  11.469   7.791  0.6939  0.1028 -0.6722
  458MOL0     C61733   2.907  11.555   7.906 -0.1379  0.0343 -0.5017
  458MOL0     C61734   2.890  11.477   8.037 -0.1266  0.1345  0.1562
  458MOL0     C61735   2.819  11.564   8.147 -0.9357  0.0052 -0.0488
  458MOL0     C61736   2.672  11.601   8.103  0.1914 -0.2092 -0.8008
  458MOL0     C61737   2.592  11.679   8.214  0.4185  1.0807 -0.2295
  458MOL0     C61738   2.441  11.685   8.177 -0.1631  0.4140 -0.0362
  458MOL0    Cl61739   2.346  11.749   8.307  0.1823  0.1967 -0.3969
  458MOL0     C61740   2.576  11.469   7.548 -0.6417 -0.1496 -0.3609
  458MOL0     C61741   2.444  11.492   7.568  0.8846  0.1846  1.0177
  458MOL0     O61742   2.274  11.638   7.882  0.3330 -0.1579 -0.2694
  458MOL0     C61743   1.963  11.489   7.744 -0.7656  0.1522  0.2748
  458MOL0     C61744   1.834  11.478   7.793  0.7746  0.6785 -0.5514
  458MOL0     N61745   1.576  11.130   8.446  0.6466 -0.0040 -0.2661
  458MOL0     N61746   1.536  11.002   8.459  0.2575 -0.1415 -0.2729
  458MOL0     C61747   0.431  10.479   8.734 -0.7883 -0.3497 -0.0827
  458MOL0     C61748   0.298  10.436   8.741 -0.4836  0.0509 -0.1451
  458MOL0     C61749  -0.115  10.322   8.701 -0.5335  0.1722 -0.1610
  458MOL0     C61750  -0.168  10.388   8.582  0.4254 -0.2156 -0.7468
  458MOL0     C61751  -0.309  10.387   8.567  0.2430 -1.0693  0.1467
  458MOL0     C61752  -0.396  10.323   8.656  1.2772 -0.5684  0.5217
  458MOL0     O61753  -0.527  10.302   8.638 -0.0512 -0.2660  0.7197
  458MOL0     C61754  -0.590  10.315   8.508 -0.6292 -0.0179  0.3974
  458MOL0     C61755  -0.532  10.211   8.403  0.1550  0.5816 -0.2972
  458MOL0     C61756  -0.605  10.219   8.270 -0.0156 -0.4209 -0.5442
  458MOL0     C61757  -0.625  10.362   8.209  0.2240  0.2210  0.5001
  458MOL0     C61758  -0.487  10.422   8.198 -0.4325  0.7987  0.1601
  458MOL0     C61759  -0.382  10.483   8.186 -0.3641 -0.0474  0.3441
  458MOL0     C61760  -0.342  10.275   8.768 -0.3678  0.2437 -0.7645
  458MOL0     C61761  -0.209  10.279   8.794  0.1495  0.8325 -0.2908
  458MOL0     C61762  -0.176  10.229   8.926 -0.3643  0.0306 -0.8732
  458MOL0     H61763   0.264  10.321   8.420 -0.0200  0.1166  0.1671
  458MOL0     H61764   0.514  10.412   8.420  0.9549 -2.4068  0.8922
  458MOL0     H61765   0.788  10.400   8.639  0.8684 -0.3253 -0.6017
  458MOL0     H61766   0.721  10.434   8.475  1.8016 -0.1495 -0.1793
  458MOL0     H61767   0.875  10.629   8.663  1.6517  2.6784 -2.0282
  458MOL0     H61768   0.799  10.673   8.515  1.5119 -0.8269 -1.0777
  458MOL0     H61769   0.934  10.515   8.377  1.2201  0.0514 -0.7216
  458MOL0     H61770   0.992  10.433   8.523 -0.1620 -1.0944 -1.3700
  458MOL0     H61771   1.103  10.638   8.595  2.1749  0.9070 -0.7160
  458MOL0     H61772   1.169  10.556   8.471 -0.0451  0.5486  1.2854
  458MOL0     H61773   1.042  10.712   8.293  4.4407 -0.5061 -0.5963
  458MOL0     H61774   0.982  10.795   8.446 -2.1795 -0.9466 -0.1784
  458MOL0     H61775   1.180  10.907   8.306  0.8689 -2.1444 -1.7786
  458MOL0     H61776   1.185  10.898   8.483 -2.0205  1.0896 -1.3203
  458MOL0     H61777   1.308  10.674   8.336 -2.9090  1.2673 -0.4502
  458MOL0     H61778   1.353  10.745   8.489 -2.4577  0.1861  0.7244
  458MOL0     H61779   1.528  10.795   8.315 -1.7382 -1.4425 -2.7124
  458MOL0     H61780   1.410  10.844   8.201 -0.4731 -1.4029 -0.7888
  458MOL0     H61781   1.391  11.110   8.179 -0.5526 -3.2370 -0.5454
  458MOL0     H61782   1.525  11.401   8.350 -2.0000  2.2279 -1.5936
  458MOL0     H61783   1.668  11.320   8.266 -0.3074 -1.4623 -2.0315
  458MOL0     H61784   1.517  11.304   8.067  1.3583 -0.9700  0.3882
  458MOL0     H61785   1.384  11.344   8.173  0.8988 -1.9703  1.1195
  458MOL0     H61786   1.450  11.558   8.210 -1.4358 -2.4752 -0.0481
  458MOL0     H61787   1.418  11.526   8.033  0.6887 -1.1519 -0.4489
  458MOL0     H61788   1.685  11.537   8.167 -2.3311 -1.0991  1.7058
  458MOL0     H61789   1.610  11.676   8.086  1.6976  0.2381 -2.2011
  458MOL0     H61790   1.849  11.671   8.081  0.3561 -0.0029  0.9062
  458MOL0     H61791   2.080  11.673   8.005  0.6424 -3.2205  1.6630
  458MOL0     H61792   2.423  11.418   7.897 -1.5587  2.4326 -0.5506
  458MOL0     H61793   2.652  11.374   7.867  2.1031  2.6221  0.1719
  458MOL0     H61794   2.828  11.308   7.815 -2.4838  1.1606 -0.9255
  458MOL0     H61795   2.950  11.294   7.674  0.5695  0.0558  0.1669
  458MOL0     H61796   3.069  11.427   7.836  1.9275  1.6303 -1.6016
  458MOL0     H61797   3.003  11.526   7.701 -0.5373  0.2169 -0.9456
  458MOL0     H61798   2.961  11.645   7.935 -1.8290  1.0227 -0.3039
  458MOL0     H61799   2.807  11.589   7.879  0.5678  3.2893  0.5712
  458MOL0     H61800   2.991  11.453   8.072  0.1004 -0.7245 -1.0259
  458MOL0     H61801   2.838  11.382   8.022  2.2193 -1.6365  2.3052
  458MOL0     H61802   2.873  11.658   8.162 -1.7901  1.1339 -3.3020
  458MOL0     H61803   2.816  11.512   8.243  0.2057  0.6264  0.3368
  458MOL0     H61804   2.689  11.671   8.021  3.0461  2.6164  1.9452
  458MOL0     H61805   2.610  11.512   8.086 -0.6337  0.0642  0.5772
  458MOL0     H61806   2.641  11.775   8.231 -1.1521  1.3961  3.7127
  458MOL0     H61807   2.602  11.626   8.309  1.0472 -1.6957 -1.7145
  458MOL0     H61808   2.429  11.746   8.086 -4.1298  1.8117  1.1976
  458MOL0     H61809   2.402  11.584   8.157  1.0068 -0.9191  3.6190
  458MOL0     H61810   2.622  11.477   7.450  1.9283  0.8183  0.8298
  458MOL0     H61811   2.380  11.539   7.494 -1.0134  0.6340  2.8528
  458MOL0     H61812   1.992  11.444   7.649 -1.3499 -1.1969  0.7177
  458MOL0     H61813   1.751  11.432   7.740  0.2195  0.3293  0.5886
  458MOL0     H61814   0.477  10.519   8.824  1.1743  2.7424 -2.2608
  458MOL0     H61815   0.241  10.457   8.831  0.1349  3.2631 -0.3711
  458MOL0     H61816  -0.110  10.410   8.493 -0.7938 -0.0955 -1.5367
  458MOL0     H61817  -0.347  10.428   8.474 -0.2725  1.6619  1.4765
  458MOL0     H61818  -0.572  10.416   8.470 -1.2995  0.8478  2.2633
  458MOL0     H61819  -0.698  10.298   8.511 -0.8204  0.2786 -2.2000
  458MOL0     H61820  -0.559  10.121   8.458 -2.8555  0.9033 -1.0894
  458MOL0     H61821  -0.425  10.214   8.380  0.1922  0.1503 -0.1994
  458MOL0     H61822  -0.699  10.164   8.277  0.1237 -0.6727 -0.6800
  458MOL0     H61823  -0.549  10.162   8.196 -2.6220 -0.0769 -2.9606
  458MOL0     H61824  -0.685  10.354   8.118 -0.7184  1.3910  0.9881
  458MOL0     H61825  -0.690  10.427   8.268 -0.1148  0.6261 -0.3005
  458MOL0     H61826  -0.284  10.525   8.176 -0.2641 -0.3282  0.1373
  458MOL0     H61827  -0.410  10.219   8.831  0.4003 -0.2180 -0.3166
  458MOL0     H61828  -0.099  10.151   8.935 -0.9865 -0.4362  0.8190
  458MOL0     H61829  -0.116  10.302   8.981  3.3207 -3.1569 -0.2279
  458MOL0     H61830  -0.256  10.194   8.992 -1.2923  1.1914 -1.3412
  459MOL0     O61831   7.901   6.699   1.034  0.0148  0.1555 -0.0199
  459MOL0     C61832   7.884   6.815   1.046 -0.8986  0.4142 -0.4358
  459MOL0     O61833   7.988   6.906   1.063 -0.8223  0.3914 -0.1500
  459MOL0     C61834   8.123   6.884   1.077 -0.4802  0.4127  0.5845
  459MOL0     C61835   8.199   6.991   1.101 -0.1604 -0.4791 -0.1069
  459MOL0     C61836   8.343   6.987   1.112 -0.7270 -0.2343 -0.1529
  459MOL0     C61837   8.407   6.862   1.082 -0.1674  0.4580 -0.2696
  459MOL0     O61838   8.544   6.834   1.084  0.4008 -0.1574  0.2976
  459MOL0     C61839   8.614   6.919   1.176 -0.6213 -0.3144  0.0015
  459MOL0     C61840   8.752   6.856   1.212 -0.4341 -0.8233  0.4501
  459MOL0     C61841   8.835   6.841   1.089  0.1153 -0.1290  0.0188
  459MOL0     C61842   8.976   6.793   1.125 -0.0262 -0.4654 -0.7524
  459MOL0     C61843   9.045   6.719   1.013  0.5393 -0.7077 -0.4236
  459MOL0     C61844   8.980   6.587   0.978  0.5345  0.2614 -0.1251
  459MOL0     C61845   9.027   6.506   0.859 -0.3141  0.1981 -0.0528
  459MOL0     C61846   9.179   6.482   0.847 -0.1242 -0.9089  1.0099
  459MOL0     N61847   9.230   6.388   0.941 -0.6351  0.2682 -0.2231
  459MOL0     C61848   9.247   6.255   0.928  0.3342  0.3276  0.3556
  459MOL0     C61849   9.285   6.201   1.044 -0.2305 -0.2943 -0.1340
  459MOL0     C61850   9.316   6.058   1.074 -0.3453  0.0137  0.5504
  459MOL0     C61851   9.462   6.030   1.056  0.1127  0.1361  0.4734
  459MOL0     C61852   9.548   6.068   1.180 -1.2053  0.8455 -0.3523
  459MOL0     C61853   9.701   6.079   1.146 -0.2709  0.4603 -0.0020
  459MOL0     O61854   9.765   6.134   1.267 -1.1449 -0.3000  0.5255
  459MOL0     C61855   9.898   6.091   1.264  0.3830 -0.0073  0.4885
  459MOL0     C61856   9.931   5.966   1.319 -0.0529 -0.4657 -0.3365
  459MOL0     C61857  10.062   5.927   1.332 -0.0925  0.1181 -0.3708
  459MOL0     C61858  10.160   6.011   1.273  0.8105  0.7327 -0.6518
  459MOL0     C61859  10.308   5.967   1.284 -0.0962  0.5356  0.2901
  459MOL0     O61860  10.393   6.067   1.256 -0.5853 -0.4784 -0.5476
  459MOL0     C61861  10.526   6.051   1.273  0.2283 -0.9798 -0.8580
  459MOL0     C61862  10.602   6.108   1.176 -1.0047 -1.8051 -0.1668
  459MOL0     C61863  10.748   6.091   1.181 -0.6327 -1.2069 -0.4132
  459MOL0     C61864  10.805   6.015   1.288 -0.5500  0.0750  0.0920
  459MOL0     O61865  10.944   5.991   1.295 -0.6379  0.3248 -0.4115
  459MOL0     C61866  11.038   6.099   1.258 -0.0305  0.3528  0.5566
  459MOL0     C61867  11.171   6.104   1.330 -0.0190  0.4031  0.4707
  459MOL0     C61868  11.271   5.988   1.292  0.0293 -0.6157  0.5794
  459MOL0     C61869  11.395   6.010   1.373 -0.9577  0.2112 -0.4538
  459MOL0     C61870  11.503   5.903   1.351  0.6056  0.0563  0.2096
  459MOL0     C61871  11.590   5.872   1.469 -0.3522  0.3232  0.9697
  459MOL0     C61872  11.648   5.997   1.543 -0.0273 -0.0385  0.2016
  459MOL0     C61873  11.759   5.961   1.640 -0.3750  0.5184  0.1914
  459MOL0    Cl61874  11.909   5.917   1.561 -0.1242 -0.1308  0.0635
  459MOL0     C61875  10.727   5.964   1.388  0.8989  0.0009 -0.3027
  459MOL0     C61876  10.587   5.979   1.380 -0.1445  0.3541  1.0233
  459MOL0     O61877  10.342   5.848   1.317  0.6624  0.9054 -0.5403
  459MOL0     C61878  10.129   6.140   1.233  0.7111 -0.3438 -0.3931
  459MOL0     C61879   9.999   6.179   1.223 -0.1105 -0.8749 -0.4412
  459MOL0     N61880   9.284   6.301   1.134 -0.0951  0.2790  0.4552
  459MOL0     N61881   9.251   6.408   1.071 -0.1801  0.6220  0.9719
  459MOL0     C61882   8.322   6.753   1.052 -1.2466 -0.2659  0.4098
  459MOL0     C61883   8.184   6.758   1.049  0.2689  0.3763 -0.1627
  459MOL0     C61884   7.744   6.881   1.044  0.0024 -0.1386 -0.6726
  459MOL0     C61885   7.737   7.007   0.985  0.5008 -0.5645  0.6187
  459MOL0     C61886   7.610   7.054   0.957 -0.7472 -0.1268 -0.4618
  459MOL0     C61887   7.489   6.988   0.989 -0.9941 -0.1909 -0.6156
  459MOL0     O61888   7.375   7.056   0.957  0.5833  0.0237  0.0506
  459MOL0     C61889   7.241   7.006   0.984  0.5251 -0.5837 -0.5450
  459MOL0     C61890   7.176   7.088   1.090 -0.3360 -1.3967 -0.0368
  459MOL0     C61891   7.031   7.048   1.113 -0.7862  0.4475 -0.1306
  459MOL0     C61892   7.032   6.903   1.186  0.0563 -0.6465 -0.1580
  459MOL0     C61893   6.893   6.874   1.207  1.3474 -0.0946  0.1557
  459MOL0     C61894   6.777   6.837   1.220  0.0404 -0.1288 -0.0661
  459MOL0     C61895   7.504   6.868   1.055  0.0850  0.3083  0.0112
  459MOL0     C61896   7.630   6.816   1.088 -0.4862  0.0252 -0.0892
  459MOL0     C61897   7.634   6.678   1.143 -0.7251  0.1577 -0.1163
  459MOL0     H61898   8.160   7.088   1.131 -1.0726 -0.7209 -0.4704
  459MOL0     H61899   8.408   7.073   1.121  0.7121 -1.1691 -1.1699
  459MOL0     H61900   8.629   7.015   1.125  1.2106 -1.4584 -1.8139
  459MOL0     H61901   8.562   6.939   1.270 -0.3213  0.6183 -0.0205
  459MOL0     H61902   8.717   6.763   1.260 -0.3575 -1.0935 -0.0140
  459MOL0     H61903   8.802   6.920   1.285 -2.8013 -2.1854  3.5278
  459MOL0     H61904   8.848   6.928   1.024  2.1555 -0.4656 -0.1041
  459MOL0     H61905   8.779   6.771   1.025 -3.4954  2.0712  0.4975
  459MOL0     H61906   9.039   6.877   1.156  0.5073  0.0258 -2.9722
  459MOL0     H61907   8.968   6.726   1.211  0.9124  1.6595  1.0819
  459MOL0     H61908   9.037   6.783   0.924  1.7589  0.6837  0.4356
  459MOL0     H61909   9.149   6.698   1.040 -0.3278 -2.5110  1.9034
  459MOL0     H61910   9.001   6.527   1.067  1.9128  1.4823  0.4217
  459MOL0     H61911   8.872   6.601   0.974  0.2157 -0.2634  3.3049
  459MOL0     H61912   9.001   6.565   0.771 -1.1931  2.3000  1.5118
  459MOL0     H61913   8.973   6.411   0.853 -0.2048  0.1863 -0.9757
  459MOL0     H61914   9.198   6.450   0.744  0.1519  1.7778  0.1467
  459MOL0     H61915   9.225   6.581   0.856  0.7822 -1.1485 -0.6690
  459MOL0     H61916   9.223   6.212   0.832 -0.6637  2.7669 -0.5684
  459MOL0     H61917   9.280   6.039   1.175 -0.3810  1.7515  0.8865
  459MOL0     H61918   9.260   5.998   1.001  0.2678 -0.9806  0.8807
  459MOL0     H61919   9.475   5.925   1.029 -1.5711  0.4908 -2.0511
  459MOL0     H61920   9.481   6.083   0.962  3.3592  1.0997  1.5426
  459MOL0     H61921   9.522   5.995   1.258  0.2427  1.3458  0.6660
  459MOL0     H61922   9.511   6.165   1.214 -1.2139  0.3119  1.2591
  459MOL0     H61923   9.727   6.144   1.062  1.2634  0.6583  0.5848
  459MOL0     H61924   9.726   5.978   1.114 -0.6164  1.3923 -3.6754
  459MOL0     H61925   9.855   5.899   1.357 -2.0902  1.5642 -0.5672
  459MOL0     H61926  10.082   5.833   1.384 -1.4806 -0.3503 -0.6250
  459MOL0     H61927  10.569   6.187   1.108 -1.6871  0.9020  3.0444
  459MOL0     H61928  10.810   6.130   1.101 -0.1472 -1.6625 -0.2647
  459MOL0     H61929  11.057   6.085   1.151 -2.1636  1.5966 -0.0565
  459MOL0     H61930  10.988   6.195   1.271  0.5983  0.7302  0.2339
  459MOL0     H61931  11.217   6.198   1.297  1.6856 -0.3649  0.5605
  459MOL0     H61932  11.152   6.110   1.438 -2.4696 -0.2514  0.1278
  459MOL0     H61933  11.229   5.888   1.309  1.2077 -1.2085  0.0611
  459MOL0     H61934  11.298   5.985   1.186  0.2841  1.3909  0.5357
  459MOL0     H61935  11.360   6.014   1.477 -3.2101  1.6874 -1.1911
  459MOL0     H61936  11.434   6.111   1.363  0.1126  0.0922  1.8494
  459MOL0     H61937  11.574   5.929   1.272  2.2267 -3.9256  0.1058
  459MOL0     H61938  11.457   5.811   1.315  0.6045 -0.9420  2.5906
  459MOL0     H61939  11.541   5.808   1.542 -0.3654  0.2317  0.8811
  459MOL0     H61940  11.669   5.810   1.425  1.3115  2.0182  1.4451
  459MOL0     H61941  11.564   6.052   1.588 -1.5923  0.0012 -2.5764
  459MOL0     H61942  11.685   6.065   1.466  1.8749  0.7483  1.7171
  459MOL0     H61943  11.782   6.050   1.700 -0.8886  2.0515 -1.7997
  459MOL0     H61944  11.741   5.879   1.710  2.9802 -2.1885 -1.8393
  459MOL0     H61945  10.771   5.904   1.467 -0.4177  0.5411  0.8961
  459MOL0     H61946  10.518   5.939   1.454 -3.4040  3.6476  0.0394
  459MOL0     H61947  10.211   6.211   1.219  0.6168  0.1989  1.5501
  459MOL0     H61948   9.970   6.281   1.198 -0.6293 -0.8834  0.0852
  459MOL0     H61949   8.386   6.671   1.021  0.3476  0.8662  0.6165
  459MOL0     H61950   8.145   6.667   1.002  1.2665  0.8131 -1.9232
  459MOL0     H61951   7.827   7.061   0.955 -0.2683 -0.7077 -2.1862
  459MOL0     H61952   7.590   7.150   0.911 -3.3763 -1.4078 -2.2386
  459MOL0     H61953   7.232   6.902   1.017 -1.2975  0.2697  2.0118
  459MOL0     H61954   7.189   7.021   0.889  2.0942 -1.3717 -1.5624
  459MOL0     H61955   7.164   7.192   1.059 -1.7003 -0.1370  4.1353
  459MOL0     H61956   7.238   7.095   1.180  1.5674 -1.6822 -1.2748
  459MOL0     H61957   6.966   7.052   1.025  0.2008  0.2248 -0.8924
  459MOL0     H61958   6.983   7.113   1.186 -2.0275 -0.9451  0.3443
  459MOL0     H61959   7.080   6.827   1.124  2.4621  0.8221 -0.2218
  459MOL0     H61960   7.077   6.903   1.285  0.4445 -2.3485 -0.3160
  459MOL0     H61961   6.675   6.802   1.224 -1.8260  4.2397 -2.5315
  459MOL0     H61962   7.417   6.806   1.070  0.0459  0.2305 -0.5218
  459MOL0     H61963   7.720   6.657   1.207 -0.5897  0.6704 -0.1223
  459MOL0     H61964   7.541   6.675   1.200 -0.4599  1.8515  0.4759
  459MOL0     H61965   7.639   6.608   1.059  2.0454  0.2782 -0.1470
  460MOL0     O61966   3.533   5.186   6.798  0.3559 -0.3743 -0.3904
  460MOL0     C61967   3.519   5.083   6.736 -0.6297 -0.4655  0.1274
  460MOL0     O61968   3.623   5.007   6.691  0.1248 -0.5654  0.1516
  460MOL0     C61969   3.743   5.067   6.678 -0.2977  0.4511  1.0142
  460MOL0     C61970   3.845   5.011   6.748  0.3725  0.2685  0.3054
  460MOL0     C61971   3.974   5.064   6.737 -0.1344  0.7685  0.8622
  460MOL0     C61972   4.002   5.179   6.664  0.0945 -0.5410  0.6729
  460MOL0     O61973   4.131   5.224   6.652  0.4900 -0.1112  0.6012
  460MOL0     C61974   4.155   5.363   6.648 -0.4081  0.5512  0.8274
  460MOL0     C61975   4.244   5.415   6.765  0.0425 -0.2321  0.3676
  460MOL0     C61976   4.373   5.333   6.773  0.0490  0.0322 -0.3801
  460MOL0     C61977   4.463   5.359   6.894 -0.9409 -0.4426  0.3152
  460MOL0     C61978   4.546   5.494   6.881 -0.3660  0.8385 -0.4834
  460MOL0     C61979   4.675   5.465   6.790 -0.5100  0.4125  0.1177
  460MOL0     C61980   4.749   5.595   6.783 -0.3676  0.8450  0.4006
  460MOL0     C61981   4.873   5.591   6.686  0.0012  0.1539 -1.1866
  460MOL0     N61982   4.975   5.497   6.732  0.3676  1.1050 -0.4069
  460MOL0     C61983   5.024   5.502   6.859 -1.1527  0.3009 -0.4918
  460MOL0     C61984   5.117   5.398   6.861 -0.1955  0.2144 -0.4478
  460MOL0     C61985   5.204   5.360   6.983  0.7556  0.2360 -0.5128
  460MOL0     C61986   5.358   5.395   6.981 -0.8573 -0.0818  0.0818
  460MOL0     C61987   5.385   5.550   6.979 -0.1405  0.5760  0.6253
  460MOL0     C61988   5.529   5.594   7.003  0.1738  0.5983  0.1393
  460MOL0     O61989   5.620   5.510   6.924 -0.9656 -0.6452  0.6626
  460MOL0     C61990   5.748   5.553   6.933 -0.5784  0.6852  0.8690
  460MOL0     C61991   5.812   5.631   7.029 -1.0224 -0.2069 -0.0623
  460MOL0     C61992   5.945   5.666   7.018 -0.2166  0.2520  0.2168
  460MOL0     C61993   6.014   5.611   6.909 -0.2247  0.3686  1.1371
  460MOL0     C61994   6.161   5.651   6.881 -0.2685 -0.4845  0.4858
  460MOL0     O61995   6.242   5.676   6.988  0.6542  0.2575 -0.1682
  460MOL0     C61996   6.376   5.675   6.970 -0.1173  0.1320  0.0962
  460MOL0     C61997   6.451   5.583   7.043 -0.6929 -0.3508 -0.6322
  460MOL0     C61998   6.592   5.597   7.026 -0.3441  0.7858  0.4954
  460MOL0     C61999   6.653   5.694   6.948 -1.0455 -0.3463  0.5633
  460MOL0     O62000   6.791   5.716   6.943  0.5260 -0.1007  0.0454
  460MOL0     C62001   6.887   5.603   6.939 -0.2111  0.9210 -0.3751
  460MOL0     C62002   7.023   5.646   6.885  0.6427 -0.1855 -0.3060
  460MOL0     C62003   7.124   5.536   6.862 -0.0964 -0.1336  0.3990
  460MOL0     C62004   7.177   5.481   6.989 -0.1062 -1.0004  0.1498
  460MOL0     C62005   7.300   5.407   6.966 -0.1380 -0.3487 -0.9682
  460MOL0     C62006   7.352   5.374   7.102  0.7487 -0.7512  0.1843
  460MOL0     C62007   7.478   5.287   7.088  0.0389 -0.6129 -0.2648
  460MOL0     C62008   7.527   5.259   7.230 -1.0607  0.0656  0.0006
  460MOL0    Cl62009   7.664   5.138   7.235 -0.5155 -0.1435  0.2171
  460MOL0     C62010   6.576   5.781   6.872 -0.3562  0.1872  0.6567
  460MOL0     C62011   6.439   5.764   6.883 -1.0681 -0.8265 -0.8649
  460MOL0     O62012   6.197   5.662   6.761 -0.1161  0.0090  0.4075
  460MOL0     C62013   5.952   5.529   6.810  0.1452  0.9611  0.4824
  460MOL0     C62014   5.823   5.492   6.828  0.3225 -0.5733 -0.1343
  460MOL0     N62015   5.119   5.341   6.731 -0.1814  0.3109  0.0380
  460MOL0     N62016   5.029   5.401   6.658 -0.0742 -0.4894 -0.5182
  460MOL0     C62017   3.896   5.233   6.584 -0.8734 -0.1244 -0.4621
  460MOL0     C62018   3.766   5.186   6.595 -0.5129  0.0990  0.2190
  460MOL0     C62019   3.386   5.035   6.702 -0.0916 -0.6388  0.1895
  460MOL0     C62020   3.374   4.962   6.583  0.3788  0.2583  0.1190
  460MOL0     C62021   3.242   4.921   6.544 -0.4051 -0.3270  0.2729
  460MOL0     C62022   3.131   4.952   6.609 -0.5450 -0.5274  0.0859
  460MOL0     O62023   3.001   4.921   6.573  0.4115  0.3924 -0.2900
  460MOL0     C62024   2.978   4.812   6.478 -1.1127 -0.0929 -1.5011
  460MOL0     C62025   2.829   4.781   6.497  0.2280 -0.2549  0.3382
  460MOL0     C62026   2.796   4.639   6.460  1.0499 -0.3009 -0.1002
  460MOL0     C62027   2.698   4.576   6.566  0.0177  0.6656  0.1134
  460MOL0     C62028   2.666   4.440   6.519 -0.5587 -1.0304  0.1976
  460MOL0     C62029   2.668   4.330   6.461 -0.5204  0.4666 -0.3931
  460MOL0     C62030   3.147   5.015   6.727  0.9714  0.1279  0.0066
  460MOL0     C62031   3.268   5.065   6.778 -0.3748  0.0774  0.2718
  460MOL0     C62032   3.259   5.124   6.913  0.2812  0.5549  0.8325
  460MOL0     H62033   3.826   4.919   6.802 -1.4037  0.8493  0.7328
  460MOL0     H62034   4.051   5.018   6.798  0.0525  0.2044  0.2228
  460MOL0     H62035   4.199   5.386   6.551  1.5518  0.9209  1.7372
  460MOL0     H62036   4.060   5.416   6.636  0.1804  1.0008 -2.9241
  460MOL0     H62037   4.196   5.400   6.862 -0.9722 -1.0119 -0.2298
  460MOL0     H62038   4.274   5.519   6.747  0.7971 -0.2173  1.6041
  460MOL0     H62039   4.434   5.359   6.686  0.8552  1.9764  0.7020
  460MOL0     H62040   4.343   5.228   6.774  2.0642 -0.5812  0.3135
  460MOL0     H62041   4.404   5.360   6.985 -1.0729  2.3188  0.2749
  460MOL0     H62042   4.535   5.277   6.904 -0.8378 -0.5069 -0.8508
  460MOL0     H62043   4.486   5.569   6.829 -1.8118  1.2243  1.6288
  460MOL0     H62044   4.579   5.540   6.974  1.0355  0.6155 -0.8532
  460MOL0     H62045   4.726   5.386   6.846 -0.6000  0.5258  0.3615
  460MOL0     H62046   4.644   5.430   6.691 -2.3539  0.9686  0.4552
  460MOL0     H62047   4.773   5.631   6.884  0.7622 -1.3627  0.9870
  460MOL0     H62048   4.676   5.673   6.760  0.0569  2.0627  2.8003
  460MOL0     H62049   4.848   5.565   6.583  1.0189  1.0345 -1.6810
  460MOL0     H62050   4.908   5.695   6.682 -1.0819  0.7535  1.9370
  460MOL0     H62051   4.997   5.571   6.938  0.3240 -2.6197  2.8396
  460MOL0     H62052   5.156   5.417   7.063  1.2465  0.4015 -0.3322
  460MOL0     H62053   5.200   5.253   7.006  1.1496 -0.0172 -1.5808
  460MOL0     H62054   5.408   5.375   7.076 -2.0319 -3.1488  0.1480
  460MOL0     H62055   5.414   5.345   6.902  2.1430 -0.0177  2.0088
  460MOL0     H62056   5.313   5.597   7.047 -0.4305 -1.0227  1.4808
  460MOL0     H62057   5.362   5.583   6.878 -0.2259  0.3910  0.5827
  460MOL0     H62058   5.550   5.577   7.109  1.3543 -1.7603 -0.3946
  460MOL0     H62059   5.538   5.699   6.975  0.7295  1.4680  3.2092
  460MOL0     H62060   5.752   5.667   7.112  0.5239 -0.1086  1.0417
  460MOL0     H62061   5.979   5.736   7.094 -1.9825 -0.0494  1.3216
  460MOL0     H62062   6.406   5.515   7.114 -0.8539  1.4834  1.0980
  460MOL0     H62063   6.659   5.534   7.083  0.5481  0.0285 -1.2921
  460MOL0     H62064   6.897   5.563   7.040  2.5270 -0.0922 -0.9424
  460MOL0     H62065   6.838   5.528   6.877 -1.3066  1.2543  0.0573
  460MOL0     H62066   7.009   5.684   6.784  1.3313 -0.0149 -0.3410
  460MOL0     H62067   7.053   5.725   6.954 -2.8856 -1.9472  3.7687
  460MOL0     H62068   7.078   5.452   6.809  1.5511  0.3599 -2.0033
  460MOL0     H62069   7.206   5.579   6.804  0.9367 -1.3217  0.9222
  460MOL0     H62070   7.105   5.427   7.052  1.1830 -0.2632  2.3985
  460MOL0     H62071   7.199   5.567   7.053  1.8648 -0.8683 -0.6221
  460MOL0     H62072   7.371   5.465   6.906 -1.1616  1.7422 -0.2798
  460MOL0     H62073   7.278   5.314   6.914  3.2566 -1.6444 -0.3189
  460MOL0     H62074   7.381   5.467   7.151 -0.3406  0.2152 -0.9319
  460MOL0     H62075   7.277   5.332   7.170  0.1443 -0.6705 -0.4201
  460MOL0     H62076   7.560   5.331   7.030  0.6967 -3.0562 -1.2789
  460MOL0     H62077   7.460   5.194   7.033  0.2140  0.4115 -2.1350
  460MOL0     H62078   7.560   5.357   7.267 -1.9272 -1.0026  4.0047
  460MOL0     H62079   7.446   5.222   7.293 -1.2182 -2.4586 -1.5385
  460MOL0     H62080   6.623   5.857   6.810  1.1656 -2.6957 -1.9607
  460MOL0     H62081   6.380   5.837   6.828 -1.0484 -1.4699 -1.7622
  460MOL0     H62082   6.004   5.485   6.726 -0.9114  1.1652 -0.3118
  460MOL0     H62083   5.761   5.435   6.760 -3.5800  3.3858 -0.3004
  460MOL0     H62084   3.921   5.315   6.518 -2.1131  0.1284 -0.6499
  460MOL0     H62085   3.682   5.241   6.554 -1.7754 -1.9803 -0.1426
  460MOL0     H62086   3.460   4.940   6.521  0.6251  0.2400  0.4657
  460MOL0     H62087   3.231   4.858   6.457  2.5849 -2.5021  1.2803
  460MOL0     H62088   3.033   4.720   6.498 -1.2608 -0.1606 -1.4052
  460MOL0     H62089   3.004   4.840   6.375  2.2162  0.2300 -0.6833
  460MOL0     H62090   2.770   4.860   6.449 -0.2556 -1.0823 -0.4673
  460MOL0     H62091   2.807   4.788   6.604  0.3223 -2.7215  0.5746
  460MOL0     H62092   2.881   4.571   6.445  0.2377 -1.6707  1.2643
  460MOL0     H62093   2.736   4.645   6.369  1.5386  0.6083 -0.3715
  460MOL0     H62094   2.745   4.558   6.663 -1.6139  0.6521  0.9294
  460MOL0     H62095   2.599   4.623   6.572 -1.2519 -1.6473 -1.2916
  460MOL0     H62096   2.654   4.248   6.393  0.7685  0.9310 -1.2559
  460MOL0     H62097   3.054   5.035   6.780 -0.8315 -0.2514 -2.8148
  460MOL0     H62098   3.357   5.150   6.954  2.4941 -1.7200 -2.4910
  460MOL0     H62099   3.200   5.216   6.914  1.1940  1.2285 -1.4418
  460MOL0     H62100   3.222   5.052   6.987  2.5678  0.0360  1.5372
  461MOL0     O62101  10.930   8.382   7.599  0.5936  0.4231 -0.7719
  461MOL0     C62102  10.819   8.409   7.624 -0.4626 -0.4017 -1.2147
  461MOL0     O62103  10.768   8.417   7.757 -0.0170 -0.2283 -0.3850
  461MOL0     C62104  10.849   8.367   7.856  0.0707  0.2583  0.6224
  461MOL0     C62105  10.983   8.404   7.875  1.3565 -0.6484  0.6075
  461MOL0     C62106  11.062   8.339   7.965 -1.2030 -0.4201 -0.7828
  461MOL0     C62107  11.011   8.229   8.045  0.4745  0.7759  0.1790
  461MOL0     O62108  11.106   8.175   8.127  0.7891  0.3328  0.2501
  461MOL0     C62109  11.128   8.237   8.257  0.5311  1.1975 -0.1924
  461MOL0     C62110  11.258   8.314   8.220 -0.0150 -0.1439 -0.6350
  461MOL0     C62111  11.356   8.290   8.334  0.0983 -0.4876 -0.0867
  461MOL0     C62112  11.486   8.368   8.299 -0.3159 -0.1002 -0.0244
  461MOL0     C62113  11.616   8.294   8.339 -0.3712  0.2858 -0.2271
  461MOL0     C62114  11.664   8.315   8.480  0.7273 -0.5159  0.9393
  461MOL0     C62115  11.782   8.229   8.512  0.5286 -0.3289 -0.2086
  461MOL0     C62116  11.845   8.264   8.646 -0.0055  0.0355  0.2857
  461MOL0     N62117  11.942   8.153   8.685  0.0696  0.3213  0.5532
  461MOL0     C62118  11.965   8.107   8.806  0.4737 -0.1622 -0.2817
  461MOL0     C62119  12.077   8.040   8.788 -0.3286 -0.3542 -0.0019
  461MOL0     C62120  12.145   7.960   8.897  0.9062 -0.1569 -0.8901
  461MOL0     C62121  12.288   7.997   8.908  0.4218 -0.3213 -0.9263
  461MOL0     C62122  12.378   7.932   8.802 -0.4776 -0.0604  0.2863
  461MOL0     C62123  12.521   7.927   8.851 -0.4209  0.4093 -0.8805
  461MOL0     O62124  12.617   7.921   8.751  0.1340 -0.3650  0.1153
  461MOL0     C62125  12.748   7.933   8.794  0.1417  0.8460  1.1539
  461MOL0     C62126  12.840   7.921   8.691  0.0110  1.0024 -0.4537
  461MOL0     C62127  12.976   7.936   8.716 -0.5714 -0.5376 -0.7154
  461MOL0     C62128  13.025   7.955   8.848 -0.1984  0.0154  0.1465
  461MOL0     C62129  13.168   7.944   8.876  0.1984  0.4500  0.0229
  461MOL0     O62130  13.215   7.926   9.002  0.6372 -0.2980  0.6463
  461MOL0     C62131  13.340   7.872   9.023  0.5355  0.6261  0.4542
  461MOL0     C62132  13.436   7.957   9.062 -0.7229 -0.0449 -0.2669
  461MOL0     C62133  13.565   7.910   9.097  0.9464 -1.3183  0.0120
  461MOL0     C62134  13.595   7.776   9.090 -1.1355  0.2314 -0.9042
  461MOL0     O62135  13.725   7.740   9.141 -0.0196 -0.3141 -0.1864
  461MOL0     C62136  13.727   7.601   9.178  0.0788 -0.2569 -0.0426
  461MOL0     C62137  13.870   7.592   9.233 -0.1517  0.8508 -0.4066
  461MOL0     C62138  13.876   7.616   9.386 -0.2198  0.3736 -1.5004
  461MOL0     C62139  14.018   7.605   9.449  0.4675 -1.0199  0.2344
  461MOL0     C62140  14.075   7.748   9.418 -0.6058  0.4497 -0.3202
  461MOL0     C62141  14.234   7.751   9.419 -0.4184  0.0317  0.1932
  461MOL0     C62142  14.307   7.682   9.530 -0.5289  0.5119  0.0532
  461MOL0     C62143  14.453   7.671   9.497  0.6873 -1.0426  0.2965
  461MOL0    Cl62144  14.542   7.641   9.649  0.6669  0.0459  0.0150
  461MOL0     C62145  13.492   7.686   9.048 -0.0425 -0.2154 -0.2466
  461MOL0     C62146  13.362   7.737   9.016  0.1459 -0.5402 -0.0659
  461MOL0     O62147  13.246   7.927   8.781  0.7172 -0.8018 -0.9044
  461MOL0     C62148  12.928   7.954   8.954 -0.8942 -0.2055 -0.5919
  461MOL0     C62149  12.794   7.957   8.929  0.2427 -0.1989  0.6265
  461MOL0     N62150  12.111   8.041   8.658  0.1785  0.0805  0.2245
  461MOL0     N62151  12.032   8.106   8.593 -0.0611 -0.4460 -0.6990
  461MOL0     C62152  10.874   8.185   8.016 -1.0927 -0.6393 -0.4785
  461MOL0     C62153  10.796   8.263   7.933  0.5010  0.1356 -0.3211
  461MOL0     C62154  10.731   8.441   7.509 -0.8812 -0.2017  0.0334
  461MOL0     C62155  10.610   8.503   7.548  0.4176 -0.7890 -0.7783
  461MOL0     C62156  10.518   8.543   7.451 -0.1857 -0.1077 -0.0241
  461MOL0     C62157  10.535   8.515   7.317  0.6302  0.1346 -0.2024
  461MOL0     O62158  10.424   8.547   7.239  0.8018  0.4887 -0.1462
  461MOL0     C62159  10.441   8.549   7.096 -0.2462  0.4297  0.3682
  461MOL0     C62160  10.530   8.666   7.049  0.1383  0.4274 -0.1452
  461MOL0     C62161  10.534   8.680   6.898  0.1727  0.0220 -0.0914
  461MOL0     C62162  10.583   8.547   6.830 -0.1459 -0.4722 -0.4489
  461MOL0     C62163  10.725   8.504   6.869  1.0721  1.3654  0.1026
  461MOL0     C62164  10.841   8.479   6.907  0.4461 -0.0640  0.0653
  461MOL0     C62165  10.649   8.450   7.273 -0.0979 -0.4695 -1.3267
  461MOL0     C62166  10.742   8.406   7.374 -0.2665 -0.1170  0.1934
  461MOL0     C62167  10.865   8.353   7.317 -0.5749  0.1085 -0.0522
  461MOL0     H62168  11.020   8.481   7.808 -1.2363 -0.1004 -0.2879
  461MOL0     H62169  11.166   8.369   7.973 -0.8697 -0.9635 -2.7230
  461MOL0     H62170  11.054   8.312   8.285 -1.2647 -0.4766 -0.2696
  461MOL0     H62171  11.147   8.164   8.336 -0.5745  1.8808  0.7365
  461MOL0     H62172  11.239   8.421   8.209 -0.1875 -0.2055 -0.9466
  461MOL0     H62173  11.300   8.284   8.124  2.7352  0.3059  0.3392
  461MOL0     H62174  11.363   8.182   8.344 -1.3517 -0.7129 -1.1583
  461MOL0     H62175  11.318   8.332   8.428  2.8470  1.6721  0.2032
  461MOL0     H62176  11.496   8.387   8.191  3.0963 -2.3577 -0.2701
  461MOL0     H62177  11.484   8.468   8.343  1.3008 -1.5829  3.9228
  461MOL0     H62178  11.606   8.188   8.314  0.8822  0.3079 -0.8957
  461MOL0     H62179  11.695   8.327   8.271  0.1768  1.5921  0.9916
  461MOL0     H62180  11.679   8.421   8.500 -0.5710 -0.6614  2.9062
  461MOL0     H62181  11.575   8.279   8.533 -0.2128  1.8789  1.1069
  461MOL0     H62182  11.864   8.245   8.441 -0.7154 -0.7969 -1.8046
  461MOL0     H62183  11.746   8.127   8.499 -1.8532  0.7180 -3.2928
  461MOL0     H62184  11.899   8.359   8.649  3.0273 -1.5615  3.8208
  461MOL0     H62185  11.760   8.268   8.716 -0.4998  3.2086 -0.3679
  461MOL0     H62186  11.906   8.123   8.895 -1.6174 -1.9277 -1.2828
  461MOL0     H62187  12.091   7.977   8.991  1.4636  0.0866 -0.6121
  461MOL0     H62188  12.130   7.859   8.858  1.9491 -0.3295 -0.8669
  461MOL0     H62189  12.290   8.105   8.892  0.9604 -0.6097 -3.2320
  461MOL0     H62190  12.322   7.965   9.007  1.3333 -0.3099 -1.2254
  461MOL0     H62191  12.385   8.006   8.722 -0.9287  2.0996  2.1129
  461MOL0     H62192  12.338   7.839   8.763 -2.0718 -0.1730  2.0482
  461MOL0     H62193  12.534   7.841   8.917 -0.7671  1.0120 -0.0184
  461MOL0     H62194  12.541   8.019   8.907  2.0349 -1.4200  1.4966
  461MOL0     H62195  12.801   7.907   8.591  2.3362 -0.1728 -1.2787
  461MOL0     H62196  13.045   7.936   8.633 -1.3260 -2.1067 -1.3921
  461MOL0     H62197  13.410   8.063   9.058  0.6283  0.2503 -2.8371
  461MOL0     H62198  13.641   7.983   9.123 -0.2381  0.1158 -0.3900
  461MOL0     H62199  13.657   7.571   9.256  0.7002 -0.3899  0.4803
  461MOL0     H62200  13.726   7.533   9.093 -1.7901  1.9534 -1.8948
  461MOL0     H62201  13.903   7.489   9.216 -1.6083  0.3352 -0.2943
  461MOL0     H62202  13.928   7.660   9.170 -2.7776  2.6911 -1.0132
  461MOL0     H62203  13.833   7.714   9.411  1.6560  1.0023 -0.5554
  461MOL0     H62204  13.818   7.539   9.437  0.6458 -0.8362 -2.2746
  461MOL0     H62205  14.082   7.538   9.392  1.0814  0.1443 -0.4836
  461MOL0     H62206  14.011   7.579   9.555  5.0148 -1.8344  0.5194
  461MOL0     H62207  14.034   7.814   9.494 -0.9652 -3.3444  3.1525
  461MOL0     H62208  14.040   7.783   9.320 -0.2763  3.2486  0.4936
  461MOL0     H62209  14.268   7.689   9.335 -0.1848  0.0180  0.2990
  461MOL0     H62210  14.262   7.855   9.404 -1.5172  0.2443 -0.4859
  461MOL0     H62211  14.278   7.577   9.535  3.0819 -0.7062 -0.9783
  461MOL0     H62212  14.298   7.734   9.626  3.8071  2.5134 -0.3640
  461MOL0     H62213  14.458   7.591   9.422  0.2132  0.6551 -1.6373
  461MOL0     H62214  14.503   7.752   9.443 -0.1447 -0.8486 -0.2096
  461MOL0     H62215  13.512   7.580   9.040  5.7088  0.3717  1.7912
  461MOL0     H62216  13.293   7.667   8.969 -0.2787 -0.0681 -0.1648
  461MOL0     H62217  12.967   7.950   9.055  0.6269 -0.9440 -1.1727
  461MOL0     H62218  12.732   7.945   9.017  0.8041 -1.5007  0.8665
  461MOL0     H62219  10.818   8.115   8.077 -1.7201 -0.0865 -0.4084
  461MOL0     H62220  10.696   8.233   7.904 -0.2181  2.7020 -0.7971
  461MOL0     H62221  10.595   8.525   7.653  2.0818 -0.0604 -0.6461
  461MOL0     H62222  10.434   8.605   7.480 -2.0276 -1.5096 -2.0092
  461MOL0     H62223  10.346   8.557   7.042 -1.1813 -0.2191  1.8476
  461MOL0     H62224  10.478   8.453   7.059 -0.5694 -0.1529  1.5167
  461MOL0     H62225  10.632   8.656   7.087  0.5123  1.7738 -0.7256
  461MOL0     H62226  10.493   8.764   7.080 -1.3642 -0.0862 -0.1888
  461MOL0     H62227  10.599   8.766   6.883 -1.2110  1.6508  2.6057
  461MOL0     H62228  10.431   8.699   6.863 -0.0287 -0.1648  0.3933
  461MOL0     H62229  10.518   8.464   6.860 -0.0173  0.5552  3.2425
  461MOL0     H62230  10.577   8.575   6.725  2.8110  0.6512 -0.3963
  461MOL0     H62231  10.938   8.461   6.947 -0.8610 -1.8124  2.7472
  461MOL0     H62232  10.673   8.428   7.169  4.0233 -1.8809 -0.2653
  461MOL0     H62233  10.958   8.408   7.336  0.1381 -1.0489 -0.1333
  461MOL0     H62234  10.875   8.253   7.360 -0.0470 -0.7040 -1.9710
  461MOL0     H62235  10.854   8.348   7.208 -1.0950 -1.3345  0.0454
  462MOL0     O62236   0.444  10.892  10.937 -0.1710 -0.3719 -0.2555
  462MOL0     C62237   0.448  10.862  11.060  0.2625 -0.5218 -0.1426
  462MOL0     O62238   0.551  10.892  11.144  0.6335  0.5528 -0.0937
  462MOL0     C62239   0.639  10.987  11.090  0.6923  0.0579  0.3460
  462MOL0     C62240   0.604  11.123  11.079 -0.3078 -0.6780 -0.6910
  462MOL0     C62241   0.694  11.218  11.049  0.2859  0.4526 -0.6986
  462MOL0     C62242   0.827  11.177  11.013 -0.1077 -0.2554  0.0127
  462MOL0     O62243   0.925  11.268  10.978  0.3292 -0.3623  0.5867
  462MOL0     C62244   0.885  11.403  10.951 -0.4433 -0.1453  0.4150
  462MOL0     C62245   1.013  11.487  10.926  0.0781  0.2200 -0.7446
  462MOL0     C62246   1.113  11.487  11.044  0.0963  0.0903  0.1118
  462MOL0     C62247   1.228  11.567  11.001 -0.4864 -0.1806  0.1171
  462MOL0     C62248   1.350  11.548  11.101 -0.1793 -0.4400  0.1507
  462MOL0     C62249   1.431  11.684  11.095 -0.5519  0.2087 -0.0099
  462MOL0     C62250   1.533  11.677  11.208  0.2994 -0.0306 -0.1152
  462MOL0     C62251   1.630  11.801  11.205  0.3537 -0.7557 -0.6981
  462MOL0     N62252   1.691  11.836  11.074 -0.1795 -0.0613 -0.5083
  462MOL0     C62253   1.692  11.971  11.028 -0.3802  0.2813 -0.2528
  462MOL0     C62254   1.737  11.953  10.892 -0.4135  0.1568 -0.3747
  462MOL0     C62255   1.761  12.065  10.792  0.5566  1.1654 -0.7698
  462MOL0     C62256   1.899  12.128  10.817  0.7096 -0.2629 -0.2055
  462MOL0     C62257   1.945  12.233  10.716  0.1629 -0.1301 -0.1995
  462MOL0     C62258   2.091  12.266  10.729  0.1347 -0.6172 -0.2365
  462MOL0     O62259   2.135  12.322  10.856 -0.1901  0.2581 -0.3836
  462MOL0     C62260   2.255  12.395  10.860  0.2677  0.4374  0.6245
  462MOL0     C62261   2.283  12.474  10.973 -0.9002  0.2678  0.1487
  462MOL0     C62262   2.407  12.539  10.983  0.4307 -0.2377 -0.8619
  462MOL0     C62263   2.504  12.532  10.879 -0.4719  0.6593 -0.0031
  462MOL0     C62264   2.624  12.606  10.881 -0.7871  0.0264 -0.0797
  462MOL0     O62265   2.647  12.678  10.992  0.3203 -0.0309  0.4594
  462MOL0     C62266   2.773  12.733  11.017 -0.4059 -0.2803 -0.0023
  462MOL0     C62267   2.869  12.773  10.925 -0.1713 -0.0105  0.5354
  462MOL0     C62268   2.990  12.833  10.966 -0.3242 -0.0571  0.7379
  462MOL0     C62269   3.024  12.849  11.098  0.1139  0.3256  0.5661
  462MOL0     O62270   3.137  12.926  11.139 -0.1376 -0.3765 -1.1706
  462MOL0     C62271   3.210  13.015  11.062 -0.3078  0.1210  0.3958
  462MOL0     C62272   3.269  13.126  11.150  0.2441  0.8171 -0.7887
  462MOL0     C62273   3.322  13.243  11.071 -0.5482 -0.3769  0.1600
  462MOL0     C62274   3.419  13.209  10.957 -0.0348 -0.0685 -0.3660
  462MOL0     C62275   3.549  13.174  11.018  0.1690 -0.0201 -0.1950
  462MOL0     C62276   3.664  13.167  10.916  0.5183 -0.5821 -0.2350
  462MOL0     C62277   3.800  13.230  10.954 -0.7326 -0.1592 -0.4126
  462MOL0     C62278   3.892  13.202  10.832 -0.1319 -0.2994  0.8042
  462MOL0    Cl62279   4.047  13.266  10.833  0.2965  0.8474  0.5941
  462MOL0     C62280   2.931  12.806  11.191  0.5363 -0.4800 -0.1356
  462MOL0     C62281   2.812  12.750  11.153 -0.0065  0.3446  0.2960
  462MOL0     O62282   2.700  12.596  10.784 -0.2609  0.7046  0.4788
  462MOL0     C62283   2.478  12.449  10.773  0.1229  0.0415  0.2854
  462MOL0     C62284   2.353  12.386  10.767  0.1572 -0.0184 -0.1542
  462MOL0     N62285   1.778  11.822  10.879  0.9265 -0.2347  0.3016
  462MOL0     N62286   1.744  11.752  10.984 -0.0115  0.4148  0.8144
  462MOL0     C62287   0.859  11.045  11.027 -0.1079  0.2192  0.7324
  462MOL0     C62288   0.769  10.949  11.081 -0.4525  0.3781 -0.0247
  462MOL0     C62289   0.331  10.796  11.126  0.0178 -0.2932 -0.3879
  462MOL0     C62290   0.315  10.806  11.267 -0.2612 -0.3725  0.3368
  462MOL0     C62291   0.200  10.752  11.333  0.1851  0.2118 -0.0768
  462MOL0     C62292   0.103  10.689  11.250 -0.3132  0.6039  0.0959
  462MOL0     O62293  -0.014  10.652  11.310  0.4768  0.7450  0.4548
  462MOL0     C62294  -0.130  10.665  11.233  0.3362 -0.2955 -0.1578
  462MOL0     C62295  -0.251  10.651  11.325 -0.4823 -0.0196  0.2775
  462MOL0     C62296  -0.386  10.715  11.272 -0.1082  0.4348  1.9694
  462MOL0     C62297  -0.494  10.682  11.376 -0.1073  0.8532  0.8075
  462MOL0     C62298  -0.618  10.752  11.360 -0.9065 -0.5716  0.1951
  462MOL0     C62299  -0.719  10.814  11.362 -0.1606  1.0000  0.4694
  462MOL0     C62300   0.119  10.693  11.112 -0.3105 -0.1761  0.0780
  462MOL0     C62301   0.229  10.729  11.051 -1.0266 -0.3977 -0.0273
  462MOL0     C62302   0.234  10.700  10.905 -0.4607  0.4752  0.0499
  462MOL0     H62303   0.499  11.148  11.087 -0.9382 -2.8449 -1.2795
  462MOL0     H62304   0.660  11.320  11.031  1.6760  0.7183 -2.0294
  462MOL0     H62305   0.813  11.415  10.870 -0.8861  1.8537  1.0248
  462MOL0     H62306   0.835  11.451  11.036  1.9961  1.3821  1.1066
  462MOL0     H62307   0.990  11.593  10.911  2.0484  0.5877 -1.4963
  462MOL0     H62308   1.054  11.438  10.837  3.9883 -1.3441  1.6550
  462MOL0     H62309   1.150  11.384  11.051  2.0863  0.7393 -0.1299
  462MOL0     H62310   1.074  11.525  11.139 -0.9478  0.7192 -0.5508
  462MOL0     H62311   1.254  11.551  10.896  0.8468  1.1704  0.2073
  462MOL0     H62312   1.201  11.673  11.007  1.4968  0.3382  0.3680
  462MOL0     H62313   1.310  11.536  11.202 -2.1133 -2.3964 -0.7689
  462MOL0     H62314   1.414  11.462  11.083  1.1542  0.3633  0.8928
  462MOL0     H62315   1.485  11.696  11.001  0.5973 -1.6567  0.3698
  462MOL0     H62316   1.358  11.765  11.102 -1.2346 -0.2675 -1.4309
  462MOL0     H62317   1.592  11.585  11.205 -1.2509 -1.0702  0.0619
  462MOL0     H62318   1.463  11.678  11.292  1.1157  0.2241  0.5806
  462MOL0     H62319   1.576  11.889  11.240  1.1958  0.0909 -1.4388
  462MOL0     H62320   1.707  11.783  11.281  1.6684  1.5405 -1.3598
  462MOL0     H62321   1.667  12.058  11.088  0.5768 -0.7356  1.7307
  462MOL0     H62322   1.754  12.034  10.688  1.2774  1.0103 -0.7779
  462MOL0     H62323   1.679  12.136  10.809 -2.0237 -1.0705 -2.8315
  462MOL0     H62324   1.895  12.169  10.919  1.8139 -1.8813  0.5411
  462MOL0     H62325   1.967  12.044  10.834  0.0925 -0.3767  2.0534
  462MOL0     H62326   1.881  12.322  10.710 -0.0564  0.0632  3.2344
  462MOL0     H62327   1.927  12.191  10.616 -1.8366 -1.9027  0.8168
  462MOL0     H62328   2.108  12.341  10.652  0.0615  0.5167  0.8237
  462MOL0     H62329   2.152  12.179  10.702  0.4438 -1.1568  2.0047
  462MOL0     H62330   2.216  12.480  11.058 -0.0975 -0.8510  0.8947
  462MOL0     H62331   2.420  12.611  11.063  0.6274  0.5759 -1.6156
  462MOL0     H62332   2.863  12.782  10.817 -1.6119  2.4663  0.7555
  462MOL0     H62333   3.052  12.883  10.892  0.4254  1.7742  2.5126
  462MOL0     H62334   3.270  12.941  11.007 -1.9272 -1.3923  0.5802
  462MOL0     H62335   3.138  13.066  10.998  0.3491 -0.0936 -0.5419
  462MOL0     H62336   3.193  13.151  11.225  0.4181 -0.0602 -0.3098
  462MOL0     H62337   3.359  13.100  11.208 -0.8119  0.2022  0.6351
  462MOL0     H62338   3.231  13.289  11.033 -1.2703  0.5682  2.8089
  462MOL0     H62339   3.358  13.319  11.140  1.7000 -0.4271 -0.8796
  462MOL0     H62340   3.430  13.293  10.888  2.8333  2.7782  3.1510
  462MOL0     H62341   3.389  13.123  10.896  1.7527 -1.4278  0.5646
  462MOL0     H62342   3.540  13.086  11.083 -2.1295  0.7493  0.6483
  462MOL0     H62343   3.577  13.257  11.083 -0.7422 -0.2892  0.5797
  462MOL0     H62344   3.672  13.060  10.898  4.3842 -1.0928  3.1216
  462MOL0     H62345   3.633  13.210  10.820  1.6258 -3.8360 -2.2018
  462MOL0     H62346   3.841  13.173  11.039 -0.4874 -0.3819 -0.6791
  462MOL0     H62347   3.804  13.338  10.971  0.9723 -0.1453 -0.6826
  462MOL0     H62348   3.896  13.095  10.810 -1.1195 -0.0882 -0.5701
  462MOL0     H62349   3.847  13.252  10.745  3.4212 -1.6270 -2.0612
  462MOL0     H62350   2.961  12.824  11.294  0.9134  1.7235 -0.5806
  462MOL0     H62351   2.744  12.727  11.235 -0.6903  0.7979 -0.1326
  462MOL0     H62352   2.549  12.424  10.694 -0.6327 -2.2687  0.2519
  462MOL0     H62353   2.337  12.324  10.679 -1.4037  2.6860 -1.9077
  462MOL0     H62354   0.959  11.019  10.995  0.2360 -0.1398  2.0229
  462MOL0     H62355   0.801  10.848  11.105 -2.1474 -0.6744 -1.8855
  462MOL0     H62356   0.389  10.861  11.324  0.3644 -2.0673  1.2281
  462MOL0     H62357   0.175  10.769  11.437 -2.1333  0.4006 -0.6094
  462MOL0     H62358  -0.134  10.591  11.152  0.3596  0.0993 -0.5235
  462MOL0     H62359  -0.131  10.765  11.189 -2.4636  0.9868  2.4400
  462MOL0     H62360  -0.221  10.699  11.418  0.3499  2.2325 -1.0613
  462MOL0     H62361  -0.277  10.545  11.338 -2.3829  0.3568 -0.1630
  462MOL0     H62362  -0.404  10.673  11.173  0.1218  1.5134  1.4606
  462MOL0     H62363  -0.357  10.820  11.262  1.6078 -0.2138 -1.4412
  462MOL0     H62364  -0.520  10.576  11.379 -2.8725  1.4146 -0.3779
  462MOL0     H62365  -0.458  10.722  11.471  1.9079 -2.4429  1.6040
  462MOL0     H62366  -0.807  10.875  11.351  0.0362  0.8806 -3.1681
  462MOL0     H62367   0.035  10.657  11.055  1.3047 -2.1529 -1.1601
  462MOL0     H62368   0.330  10.659  10.874 -0.6312 -1.7336  2.1474
  462MOL0     H62369   0.164  10.619  10.881  0.5282  0.0188 -1.4191
  462MOL0     H62370   0.210  10.791  10.849  2.9655  0.4591 -1.6702
  463MOL0     O62371   2.916   0.223   3.952  0.0736  0.3236  0.2965
  463MOL0     C62372   2.820   0.279   3.909 -1.1448 -1.0215  0.3550
  463MOL0     O62373   2.791   0.407   3.928  0.0092 -0.1649  0.0166
  463MOL0     C62374   2.846   0.457   4.042 -0.9047  0.0448 -0.8427
  463MOL0     C62375   2.988   0.496   4.047  0.5751  0.2562 -0.5488
  463MOL0     C62376   3.026   0.545   4.166 -0.9006 -0.3041 -0.2689
  463MOL0     C62377   2.939   0.566   4.280 -0.8273  1.0729  0.0808
  463MOL0     O62378   2.986   0.630   4.397  0.5382  0.4243 -0.6244
  463MOL0     C62379   2.984   0.546   4.515 -1.1031  0.4907 -0.9151
  463MOL0     C62380   3.008   0.615   4.648 -0.2034 -0.1695  0.3046
  463MOL0     C62381   3.161   0.633   4.683 -0.1041 -0.4030  0.7869
  463MOL0     C62382   3.233   0.504   4.693  0.0231  0.1017  0.6719
  463MOL0     C62383   3.370   0.508   4.755 -0.3463 -0.7031 -1.2884
  463MOL0     C62384   3.422   0.364   4.766  0.5863 -0.1074 -0.4554
  463MOL0     C62385   3.571   0.363   4.796 -0.4665 -0.0992 -0.1153
  463MOL0     C62386   3.611   0.220   4.837  0.2477 -0.5930  0.0958
  463MOL0     N62387   3.744   0.221   4.901  0.5832  1.1836  0.4447
  463MOL0     C62388   3.857   0.274   4.837 -0.1442  0.3405 -1.1486
  463MOL0     C62389   3.948   0.281   4.935 -0.4559 -0.4501  0.0991
  463MOL0     C62390   4.085   0.339   4.910  0.6361  0.2170  0.2721
  463MOL0     C62391   4.145   0.293   4.779  0.1363  0.4642 -0.2787
  463MOL0     C62392   4.295   0.316   4.756 -0.2259  0.4900  0.0642
  463MOL0     C62393   4.388   0.238   4.847 -0.9286 -0.0742  0.1008
  463MOL0     O62394   4.526   0.251   4.803 -0.1019  0.7974 -0.2219
  463MOL0     C62395   4.591   0.372   4.803  0.4090  0.5905 -0.5251
  463MOL0     C62396   4.714   0.361   4.736  0.4795  0.1555  0.4250
  463MOL0     C62397   4.794   0.474   4.720  0.3650  0.6934  0.3415
  463MOL0     C62398   4.744   0.602   4.759 -0.4202  1.3985 -0.4243
  463MOL0     C62399   4.824   0.723   4.733  0.2940 -0.5620 -0.5627
  463MOL0     O62400   4.935   0.711   4.661 -0.1016 -0.1471 -0.4417
  463MOL0     C62401   4.996   0.827   4.612 -0.2656  0.3709 -0.0785
  463MOL0     C62402   4.928   0.948   4.583 -0.6300 -0.7568  0.0412
  463MOL0     C62403   5.007   1.066   4.551  0.8709  0.0482  0.8093
  463MOL0     C62404   5.144   1.060   4.529 -0.0581 -0.1573  0.2146
  463MOL0     O62405   5.214   1.172   4.487  0.1920 -0.2720  0.4088
  463MOL0     C62406   5.317   1.231   4.575  1.2109  0.9194 -0.1400
  463MOL0     C62407   5.439   1.269   4.491  0.4081  0.6241 -0.8307
  463MOL0     C62408   5.523   1.137   4.445 -0.7473  0.0620 -0.4338
  463MOL0     C62409   5.600   1.074   4.566 -0.1717 -0.2387 -0.1779
  463MOL0     C62410   5.717   0.980   4.517  0.2566 -0.3616 -0.6227
  463MOL0     C62411   5.820   0.947   4.635  0.1942  0.1696  0.3679
  463MOL0     C62412   5.953   0.896   4.581  0.5240  0.2971 -0.6019
  463MOL0     C62413   6.055   1.001   4.534  0.0631  0.8652 -0.3029
  463MOL0    Cl62414   6.116   1.083   4.678  1.1316 -0.5566  0.1300
  463MOL0     C62415   5.208   0.937   4.541  0.7904  0.5795 -0.3359
  463MOL0     C62416   5.133   0.822   4.580  0.7724 -0.1642  0.3941
  463MOL0     O62417   4.777   0.823   4.788 -0.6743 -0.3277 -0.2398
  463MOL0     C62418   4.614   0.608   4.820  0.7327  0.5360  0.2443
  463MOL0     C62419   4.547   0.494   4.851 -0.6826  0.7796 -0.2751
  463MOL0     N62420   3.896   0.233   5.054  0.0916 -0.2770 -0.1904
  463MOL0     N62421   3.770   0.204   5.034 -0.1909 -0.9170 -0.3720
  463MOL0     C62422   2.806   0.525   4.270  0.9532 -0.6831  0.4394
  463MOL0     C62423   2.762   0.481   4.142  0.5257  0.5682 -0.1244
  463MOL0     C62424   2.743   0.200   3.812  0.0237 -0.1213  0.3401
  463MOL0     C62425   2.815   0.139   3.716 -0.2941  0.2134 -0.4538
  463MOL0     C62426   2.759   0.043   3.630 -0.0060 -0.1154 -0.3502
  463MOL0     C62427   2.619   0.018   3.640 -0.5503  1.0499  0.1541
  463MOL0     O62428   2.556  -0.061   3.547  0.0180 -0.0383  0.4053
  463MOL0     C62429   2.463  -0.162   3.578 -0.7814  0.2036  0.4632
  463MOL0     C62430   2.333  -0.141   3.509 -0.3155 -0.6363  0.0226
  463MOL0     C62431   2.226  -0.245   3.510 -0.5718 -0.5441  0.6466
  463MOL0     C62432   2.097  -0.190   3.443 -0.3446  0.3441 -0.8672
  463MOL0     C62433   1.983  -0.276   3.452 -0.6792  0.2898 -0.0085
  463MOL0     C62434   1.887  -0.341   3.430  0.6900 -0.0997  0.4479
  463MOL0     C62435   2.545   0.097   3.729 -0.2162 -0.4961  0.9093
  463MOL0     C62436   2.601   0.179   3.820 -0.3321  0.9084  0.7861
  463MOL0     C62437   2.507   0.230   3.932  0.4020  0.3936 -0.1615
  463MOL0     H62438   3.065   0.487   3.970  0.9090  3.3724 -0.7204
  463MOL0     H62439   3.123   0.593   4.172 -1.0309  0.1367 -1.5329
  463MOL0     H62440   2.882   0.509   4.522 -1.2660  1.1319  0.7537
  463MOL0     H62441   3.053   0.461   4.511  1.4012  2.4137 -1.6437
  463MOL0     H62442   2.968   0.561   4.735 -4.9921  1.9633 -0.2828
  463MOL0     H62443   2.962   0.713   4.642 -0.7489 -0.4307  0.1890
  463MOL0     H62444   3.156   0.687   4.778 -0.1407  1.4171 -0.2004
  463MOL0     H62445   3.218   0.703   4.622  1.9274 -0.8479  2.0789
  463MOL0     H62446   3.177   0.433   4.755 -1.3258 -2.1400 -2.8370
  463MOL0     H62447   3.250   0.456   4.596  1.7490  0.2467  0.8693
  463MOL0     H62448   3.438   0.571   4.697  0.0654  1.0017  0.8889
  463MOL0     H62449   3.370   0.550   4.857  0.8169 -3.2895 -0.1363
  463MOL0     H62450   3.367   0.316   4.848  0.5609 -1.1515 -1.0683
  463MOL0     H62451   3.397   0.300   4.681 -1.0536  1.7477 -1.4456
  463MOL0     H62452   3.590   0.436   4.875 -0.8141  0.8973 -0.9185
  463MOL0     H62453   3.628   0.398   4.710  0.5387 -3.0179 -0.7420
  463MOL0     H62454   3.529   0.182   4.898  0.3345  0.8178  1.1418
  463MOL0     H62455   3.616   0.168   4.741  2.0259 -1.7044  0.7344
  463MOL0     H62456   3.866   0.313   4.736 -2.3330  0.5487 -1.3141
  463MOL0     H62457   4.079   0.448   4.905  1.5127  0.2596  0.1067
  463MOL0     H62458   4.146   0.326   4.999  1.6428  1.1642 -0.2565
  463MOL0     H62459   4.123   0.186   4.772  0.1595  0.5037 -1.0409
  463MOL0     H62460   4.102   0.341   4.691  0.6928  0.7548 -0.3976
  463MOL0     H62461   4.312   0.423   4.768 -0.3947  0.4915  0.2870
  463MOL0     H62462   4.337   0.291   4.658 -0.2419 -1.0251  0.4136
  463MOL0     H62463   4.351   0.135   4.856 -0.9382  0.1215  3.3004
  463MOL0     H62464   4.384   0.280   4.947  0.9747  1.3840 -0.3797
  463MOL0     H62465   4.745   0.264   4.698  1.0054  0.0600  1.0873
  463MOL0     H62466   4.895   0.479   4.681  0.4502 -1.1352  0.2502
  463MOL0     H62467   4.821   0.965   4.592 -0.4940 -0.7654  2.4183
  463MOL0     H62468   4.951   1.155   4.522 -1.0830  0.2553  4.6804
  463MOL0     H62469   5.272   1.323   4.614 -1.5331 -0.5093  0.3612
  463MOL0     H62470   5.331   1.170   4.665 -1.7417 -0.5790 -0.5643
  463MOL0     H62471   5.404   1.324   4.404  3.8214 -0.1457 -2.8907
  463MOL0     H62472   5.502   1.330   4.557  1.5301 -2.5798  1.2922
  463MOL0     H62473   5.461   1.061   4.397 -0.5212 -0.9744  0.8563
  463MOL0     H62474   5.604   1.157   4.374 -1.1644  0.2149 -0.8740
  463MOL0     H62475   5.534   1.024   4.639  0.8646 -1.6507 -0.1683
  463MOL0     H62476   5.651   1.153   4.621 -0.7175 -0.4856  0.7035
  463MOL0     H62477   5.780   1.023   4.439 -0.0648  1.7660  0.2324
  463MOL0     H62478   5.671   0.886   4.485 -0.8993  0.0399 -0.2158
  463MOL0     H62479   5.838   1.035   4.698  1.5293  0.3737 -0.2616
  463MOL0     H62480   5.765   0.872   4.692  1.0521  0.9262  2.2662
  463MOL0     H62481   5.933   0.831   4.495  1.9102 -1.4043  0.2925
  463MOL0     H62482   5.999   0.832   4.658 -0.0942 -2.7877 -2.6009
  463MOL0     H62483   6.137   0.948   4.486 -1.8400 -4.3075  1.4703
  463MOL0     H62484   5.998   1.060   4.462 -0.8561 -0.9436 -1.1420
  463MOL0     H62485   5.313   0.919   4.517  0.1897 -2.0427 -1.3556
  463MOL0     H62486   5.200   0.741   4.606 -0.9303 -1.8946 -0.3303
  463MOL0     H62487   4.556   0.693   4.854  0.5449  0.1833  0.8292
  463MOL0     H62488   4.459   0.509   4.913  0.2451  0.5534  1.1391
  463MOL0     H62489   2.734   0.540   4.350  1.3232  0.4738  0.5756
  463MOL0     H62490   2.657   0.454   4.145  0.4213  0.7569 -1.4143
  463MOL0     H62491   2.922   0.139   3.701  0.3221 -3.7650  2.2099
  463MOL0     H62492   2.812  -0.025   3.563 -1.7866 -0.1603 -1.7963
  463MOL0     H62493   2.447  -0.154   3.686 -1.8103 -0.6161  0.3860
  463MOL0     H62494   2.518  -0.255   3.559 -0.4128  0.1469  1.6971
  463MOL0     H62495   2.350  -0.111   3.405 -1.0194 -0.5839 -0.0871
  463MOL0     H62496   2.290  -0.055   3.562  1.2092 -0.4821  1.0528
  463MOL0     H62497   2.199  -0.289   3.607 -0.5758 -1.0875  0.4074
  463MOL0     H62498   2.273  -0.328   3.456  3.7366  1.4315  0.9801
  463MOL0     H62499   2.079  -0.097   3.499 -0.8311  0.8148 -1.7786
  463MOL0     H62500   2.105  -0.179   3.334  2.1882  2.1159 -0.5865
  463MOL0     H62501   1.800  -0.403   3.438  2.0888 -2.5268 -1.5354
  463MOL0     H62502   2.438   0.083   3.725 -0.8188  3.2794 -2.9170
  463MOL0     H62503   2.450   0.146   3.971  0.2354  0.5589 -0.0450
  463MOL0     H62504   2.570   0.266   4.014  2.0262 -2.4385 -0.0558
  463MOL0     H62505   2.440   0.305   3.889  0.3320 -0.5754 -1.7912
  464MOL0     O62506   8.700   2.753   7.493 -0.3811  0.2703  0.5980
  464MOL0     C62507   8.618   2.801   7.568 -0.7135 -0.6819  0.5225
  464MOL0     O62508   8.652   2.882   7.680  0.1414 -0.0465  0.5041
  464MOL0     C62509   8.785   2.929   7.690 -0.1442 -0.3871 -0.3071
  464MOL0     C62510   8.858   2.923   7.809  0.2382  0.0414  0.1365
  464MOL0     C62511   8.979   2.995   7.824 -0.3117  0.0725  0.2013
  464MOL0     C62512   9.042   3.056   7.713  0.0660 -0.9144  0.3546
  464MOL0     O62513   9.163   3.117   7.721 -0.1818 -0.0571 -0.3683
  464MOL0     C62514   9.274   3.047   7.783 -0.7879 -0.3221 -0.3079
  464MOL0     C62515   9.400   3.131   7.742  0.9529 -0.2825 -0.4253
  464MOL0     C62516   9.538   3.068   7.737  0.0574 -0.3565  0.3420
  464MOL0     C62517   9.649   3.168   7.685  0.0898  0.7873  0.1901
  464MOL0     C62518   9.786   3.093   7.659  0.4316 -0.4091 -0.1235
  464MOL0     C62519   9.880   3.092   7.784 -0.4319 -1.1987  0.4730
  464MOL0     C62520  10.020   3.038   7.746 -0.2857 -0.2275 -0.8860
  464MOL0     C62521  10.110   3.131   7.659 -0.3574 -0.4535 -0.5318
  464MOL0     N62522  10.253   3.110   7.673 -0.9498 -0.0320  0.0682
  464MOL0     C62523  10.318   2.997   7.722  0.3165  0.2940  0.4265
  464MOL0     C62524  10.449   3.024   7.722 -0.2137 -0.3240 -0.3034
  464MOL0     C62525  10.559   2.929   7.756  0.5972 -0.5230 -0.3215
  464MOL0     C62526  10.701   2.986   7.786  0.2314 -0.6673 -0.1570
  464MOL0     C62527  10.788   3.012   7.664 -0.5743  0.4739  0.1414
  464MOL0     C62528  10.921   3.055   7.720  0.1834  0.3780  0.0002
  464MOL0     O62529  11.023   3.050   7.609  0.7601 -0.3452 -0.4741
  464MOL0     C62530  11.156   3.028   7.638 -0.5085 -0.1573  0.3799
  464MOL0     C62531  11.236   2.946   7.560 -0.0743  0.1861  0.4649
  464MOL0     C62532  11.365   2.904   7.598 -0.7990  0.4026 -0.5884
  464MOL0     C62533  11.421   2.953   7.717 -0.8772 -0.1351 -0.5782
  464MOL0     C62534  11.553   2.907   7.754  0.0402 -0.0595 -0.8464
  464MOL0     O62535  11.609   2.951   7.873  0.7308 -0.0105  0.5536
  464MOL0     C62536  11.740   2.927   7.900  0.7653  0.1876  0.4756
  464MOL0     C62537  11.797   2.798   7.901 -0.4923  0.4479 -0.1196
  464MOL0     C62538  11.935   2.784   7.942  0.7766  0.4864  0.3569
  464MOL0     C62539  12.006   2.887   7.988 -0.6181  0.2452 -0.2847
  464MOL0     O62540  12.135   2.882   8.024  0.6740  0.2183  0.1845
  464MOL0     C62541  12.184   2.751   8.064 -0.1315 -0.1495  0.1133
  464MOL0     C62542  12.281   2.775   8.179 -0.0724 -1.1459 -0.6801
  464MOL0     C62543  12.356   2.651   8.210  0.3491 -0.1021  0.3752
  464MOL0     C62544  12.428   2.656   8.341 -0.6483  0.8227  0.3748
  464MOL0     C62545  12.518   2.529   8.371 -0.2728  0.0215 -0.2484
  464MOL0     C62546  12.594   2.550   8.507 -0.4250  0.2489  0.3416
  464MOL0     C62547  12.645   2.425   8.580  0.3880  0.4777  0.9723
  464MOL0     C62548  12.730   2.334   8.497  0.5125 -0.5605 -0.0041
  464MOL0    Cl62549  12.633   2.207   8.394 -0.4438 -0.1335 -0.1518
  464MOL0     C62550  11.948   3.013   7.985  0.2582  0.0334  0.0638
  464MOL0     C62551  11.820   3.035   7.944 -0.0153  0.1041  0.3035
  464MOL0     O62552  11.613   2.840   7.669 -0.2529 -0.4670 -0.0675
  464MOL0     C62553  11.346   3.041   7.793  0.4026 -0.2267  0.1397
  464MOL0     C62554  11.217   3.080   7.750  0.6979 -0.2842 -0.3299
  464MOL0     N62555  10.464   3.154   7.665  0.1156  0.1966 -0.5207
  464MOL0     N62556  10.345   3.196   7.635  0.1840  0.3320  0.2785
  464MOL0     C62557   8.972   3.052   7.586  0.8550  0.5937 -0.0202
  464MOL0     C62558   8.840   2.990   7.573 -0.0986  1.4015  0.0162
  464MOL0     C62559   8.467   2.785   7.551 -0.5127 -0.2221  0.1448
  464MOL0     C62560   8.386   2.788   7.668  0.1367  1.3315  0.6717
  464MOL0     C62561   8.251   2.772   7.668  0.3994 -0.9968  0.1696
  464MOL0     C62562   8.189   2.766   7.540  1.2723 -0.3690  0.6068
  464MOL0     O62563   8.053   2.749   7.523  0.0349  0.7809 -0.1435
  464MOL0     C62564   7.959   2.726   7.633 -0.1889  0.0286 -0.9406
  464MOL0     C62565   7.808   2.724   7.597 -0.6171 -0.2309  0.1155
  464MOL0     C62566   7.754   2.853   7.554  0.0315  0.2966 -0.2807
  464MOL0     C62567   7.597   2.867   7.551 -0.1693  0.1078 -0.4461
  464MOL0     C62568   7.540   2.781   7.449  0.6170 -0.2872  0.6308
  464MOL0     C62569   7.492   2.733   7.345 -0.9880  0.5512  0.5516
  464MOL0     C62570   8.265   2.759   7.422 -0.2135  1.0303 -0.6027
  464MOL0     C62571   8.404   2.774   7.423 -0.1284 -0.6459 -0.9247
  464MOL0     C62572   8.470   2.800   7.294 -0.3493 -0.4333  0.6886
  464MOL0     H62573   8.812   2.876   7.895 -1.0256 -3.0492 -2.0421
  464MOL0     H62574   9.022   2.998   7.924  2.2838  0.7168 -0.8575
  464MOL0     H62575   9.258   3.036   7.890 -0.6290 -0.2573 -0.2778
  464MOL0     H62576   9.285   2.945   7.743 -0.0541  0.2501 -1.6546
  464MOL0     H62577   9.390   3.228   7.791 -2.3283 -1.0239  0.6001
  464MOL0     H62578   9.388   3.154   7.636 -4.7189 -0.9838 -0.2390
  464MOL0     H62579   9.540   2.980   7.672 -1.8608 -1.6968  1.9500
  464MOL0     H62580   9.574   3.026   7.832  1.4162  1.7084  0.8048
  464MOL0     H62581   9.622   3.194   7.582  0.1709 -0.0360 -0.0434
  464MOL0     H62582   9.661   3.253   7.753  1.3739  1.4715 -0.8483
  464MOL0     H62583   9.767   2.986   7.642  0.6417 -0.7349  1.5127
  464MOL0     H62584   9.847   3.150   7.589  1.8541  2.8299  3.4371
  464MOL0     H62585   9.892   3.187   7.837  1.0863 -1.6565  0.9923
  464MOL0     H62586   9.848   3.019   7.859 -0.0397 -1.7633  0.0985
  464MOL0     H62587  10.005   2.938   7.703 -3.5740 -0.5661  0.6922
  464MOL0     H62588  10.067   3.022   7.843  0.5264 -0.7819 -1.3568
  464MOL0     H62589  10.073   3.127   7.556  0.0760  2.0526 -0.8378
  464MOL0     H62590  10.085   3.231   7.696 -0.0820  0.6955 -3.2215
  464MOL0     H62591  10.271   2.904   7.752 -0.9709  0.4893 -0.8636
  464MOL0     H62592  10.537   2.879   7.851  3.3323  0.8823  1.1941
  464MOL0     H62593  10.576   2.854   7.679  0.7813 -0.7933 -0.0216
  464MOL0     H62594  10.687   3.080   7.840  2.6984 -1.3177  1.7564
  464MOL0     H62595  10.743   2.915   7.857 -0.3857  0.5968  1.5379
  464MOL0     H62596  10.739   3.088   7.602 -1.0986  2.4522  2.8298
  464MOL0     H62597  10.804   2.913   7.620  0.0063 -0.3280  2.0802
  464MOL0     H62598  10.955   2.989   7.800  2.5007  0.6236 -0.6961
  464MOL0     H62599  10.909   3.151   7.772 -0.4920 -0.3603  1.2470
  464MOL0     H62600  11.201   2.893   7.472  3.1766  0.5433 -1.2097
  464MOL0     H62601  11.413   2.815   7.560 -0.3393 -1.2425  3.3629
  464MOL0     H62602  11.740   2.719   7.854 -0.4018 -0.8792  1.8858
  464MOL0     H62603  11.976   2.686   7.918 -2.3702 -1.9235  3.6508
  464MOL0     H62604  12.108   2.680   8.097 -2.3885  2.9802  2.1783
  464MOL0     H62605  12.242   2.723   7.975  0.0714 -1.2691  0.5783
  464MOL0     H62606  12.342   2.864   8.159 -2.0380  0.6664  0.8905
  464MOL0     H62607  12.236   2.807   8.273  3.4592  0.8980  0.5041
  464MOL0     H62608  12.287   2.566   8.196 -0.9317  0.9760 -0.1071
  464MOL0     H62609  12.432   2.629   8.135  0.9767 -0.9138  1.2277
  464MOL0     H62610  12.351   2.655   8.419 -2.6456 -2.7065 -1.3715
  464MOL0     H62611  12.498   2.740   8.345  3.6171 -2.3577 -0.6247
  464MOL0     H62612  12.580   2.506   8.284  0.6562 -2.2538  0.9233
  464MOL0     H62613  12.453   2.444   8.392 -2.1203  1.4978  0.2990
  464MOL0     H62614  12.671   2.625   8.486  0.7991 -0.7808  0.9940
  464MOL0     H62615  12.518   2.592   8.573 -0.5936  0.8434 -0.2185
  464MOL0     H62616  12.554   2.375   8.615 -3.1963  4.5654 -1.4853
  464MOL0     H62617  12.708   2.444   8.668  3.2758 -0.3213 -0.7858
  464MOL0     H62618  12.790   2.385   8.420  0.0944 -2.7187 -1.8944
  464MOL0     H62619  12.811   2.284   8.551  0.7025 -1.2158 -0.8610
  464MOL0     H62620  12.007   3.092   8.030  2.9142 -0.3059 -2.5167
  464MOL0     H62621  11.782   3.132   7.972  0.6481 -0.1254  2.1110
  464MOL0     H62622  11.385   3.084   7.885 -1.8936  0.9457  0.6464
  464MOL0     H62623  11.166   3.143   7.823 -0.1980 -0.2843 -0.9332
  464MOL0     H62624   9.018   3.103   7.502  0.6020 -0.0368 -0.5522
  464MOL0     H62625   8.788   2.993   7.478  0.3999  1.0343 -0.2717
  464MOL0     H62626   8.441   2.785   7.761 -1.6565  0.0169  1.7451
  464MOL0     H62627   8.193   2.789   7.758 -0.0522  1.7300 -0.5376
  464MOL0     H62628   7.964   2.806   7.707  0.2011  0.3644 -1.3253
  464MOL0     H62629   7.990   2.638   7.690  2.4082 -0.6556 -3.1945
  464MOL0     H62630   7.750   2.680   7.679 -1.0664 -0.1923 -0.1799
  464MOL0     H62631   7.816   2.655   7.512 -0.0889  0.3863 -0.3461
  464MOL0     H62632   7.785   2.876   7.451 -0.0956  0.5516 -0.2653
  464MOL0     H62633   7.791   2.930   7.622  4.6924 -0.4038 -1.7103
  464MOL0     H62634   7.543   2.828   7.638  0.3757 -0.6194 -0.4331
  464MOL0     H62635   7.577   2.975   7.550 -2.7067 -0.2044  2.0444
  464MOL0     H62636   7.457   2.693   7.252 -0.6379  0.5294  0.4280
  464MOL0     H62637   8.204   2.737   7.335 -1.1090 -2.5878  0.7520
  464MOL0     H62638   8.428   2.747   7.208 -1.2409 -0.1489  0.9375
  464MOL0     H62639   8.454   2.903   7.259  3.8612  0.5558  1.1191
  464MOL0     H62640   8.577   2.784   7.308 -0.3217  0.9645  2.4855
  465MOL0     O62641   9.192  10.738   4.633 -0.2439 -0.5498  0.2809
  465MOL0     C62642   9.238  10.838   4.571  0.4799 -0.4023 -0.0024
  465MOL0     O62643   9.370  10.865   4.562 -0.1545 -0.3449 -0.5200
  465MOL0     C62644   9.481  10.783   4.580  1.0747 -0.6225 -0.1573
  465MOL0     C62645   9.489  10.641   4.557 -0.3663  0.2592 -0.1178
  465MOL0     C62646   9.621  10.576   4.569  0.5588  0.5765  0.2764
  465MOL0     C62647   9.731  10.653   4.599 -0.4504 -0.0433 -0.5005
  465MOL0     O62648   9.856  10.595   4.583  0.0256 -0.0356 -0.1141
  465MOL0     C62649   9.956  10.621   4.685  0.5554  0.5813  0.1993
  465MOL0     C62650  10.071  10.521   4.671  0.0266 -0.0648 -0.0192
  465MOL0     C62651  10.165  10.574   4.565 -0.3783 -0.9413 -0.7272
  465MOL0     C62652  10.273  10.465   4.543  0.0038  0.3936 -0.1075
  465MOL0     C62653  10.295  10.465   4.388  0.6038 -0.7606 -0.6984
  465MOL0     C62654  10.373  10.342   4.333 -0.5585 -0.2972 -0.5859
  465MOL0     C62655  10.519  10.324   4.370  0.3311  0.2850  0.2517
  465MOL0     C62656  10.602  10.458   4.382  0.1228 -0.1684 -0.3232
  465MOL0     N62657  10.743  10.437   4.400 -1.1620 -0.0432 -0.4246
  465MOL0     C62658  10.817  10.449   4.520 -0.3872  0.4635 -0.0998
  465MOL0     C62659  10.946  10.412   4.484  0.7903  0.2466 -0.2500
  465MOL0     C62660  11.052  10.397   4.591 -0.2619 -0.1722  0.2296
  465MOL0     C62661  11.180  10.472   4.538  0.7507 -0.7626 -0.3614
  465MOL0     C62662  11.273  10.497   4.660 -0.0242 -0.2182 -0.1034
  465MOL0     C62663  11.406  10.556   4.627 -0.0828 -0.5335 -0.0555
  465MOL0     O62664  11.497  10.555   4.740  1.1440  0.5360  0.2425
  465MOL0     C62665  11.620  10.596   4.717  0.7130 -0.3022 -0.5934
  465MOL0     C62666  11.664  10.673   4.611 -0.6894 -0.3241 -0.6211
  465MOL0     C62667  11.797  10.708   4.613 -0.0027 -1.1540 -0.6505
  465MOL0     C62668  11.890  10.663   4.719 -1.0187 -0.6305  0.4927
  465MOL0     C62669  12.039  10.693   4.719  0.4830 -0.2496  0.0773
  465MOL0     O62670  12.083  10.745   4.605 -0.2902 -0.0665  0.7885
  465MOL0     C62671  12.194  10.825   4.613  0.4482  0.4588  0.0775
  465MOL0     C62672  12.265  10.840   4.495 -0.3579  0.3584 -0.8565
  465MOL0     C62673  12.381  10.917   4.481 -0.0946  0.0979  0.6423
  465MOL0     C62674  12.438  10.968   4.598 -0.4846 -1.1454  0.0369
  465MOL0     O62675  12.559  11.039   4.581  0.0950 -0.2338 -0.0076
  465MOL0     C62676  12.616  11.099   4.691  0.6452  0.0631 -0.5626
  465MOL0     C62677  12.768  11.116   4.687 -1.0725  0.6388 -0.0383
  465MOL0     C62678  12.818  11.193   4.812 -0.3310 -0.7498 -1.2321
  465MOL0     C62679  12.964  11.225   4.811  0.0194 -0.3606  0.9162
  465MOL0     C62680  13.019  11.287   4.936  0.4815 -0.0113 -0.5497
  465MOL0     C62681  13.164  11.334   4.925  0.5246 -0.0418 -0.6609
  465MOL0     C62682  13.213  11.407   5.059  0.1998 -0.0589 -0.4470
  465MOL0     C62683  13.360  11.407   5.095  0.6560 -0.0037 -0.7796
  465MOL0    Cl62684  13.405  11.239   5.134  0.3693  0.1118  0.0919
  465MOL0     C62685  12.375  10.947   4.717 -0.3934 -0.6697  0.1127
  465MOL0     C62686  12.252  10.891   4.728 -0.2856 -0.3872  0.3911
  465MOL0     O62687  12.109  10.673   4.819 -0.3598  0.0318 -0.0980
  465MOL0     C62688  11.838  10.585   4.821  0.1296 -0.4342  0.5394
  465MOL0     C62689  11.704  10.551   4.820 -0.3236 -0.1378 -0.8239
  465MOL0     N62690  10.942  10.374   4.356  0.2131 -0.6521  0.7016
  465MOL0     N62691  10.830  10.397   4.304  0.5478  0.0039  0.3864
  465MOL0     C62692   9.720  10.791   4.638  0.2098 -0.4732  1.3983
  465MOL0     C62693   9.596  10.851   4.623  1.0828  0.5533  0.6595
  465MOL0     C62694   9.137  10.936   4.508 -0.3059  0.1648 -0.9544
  465MOL0     C62695   9.002  10.894   4.501  0.5047  0.5683 -0.8070
  465MOL0     C62696   8.897  10.979   4.480  0.4503  0.9280 -0.3145
  465MOL0     C62697   8.922  11.112   4.459  0.0160 -0.3537  0.7726
  465MOL0     O62698   8.834  11.212   4.446 -0.2194 -0.3498 -0.6164
  465MOL0     C62699   8.693  11.182   4.444  0.0512 -0.4183 -0.0296
  465MOL0     C62700   8.638  11.117   4.316  0.4039  0.1652 -0.2956
  465MOL0     C62701   8.684  11.209   4.192  0.1226 -0.6263  0.0869
  465MOL0     C62702   8.611  11.344   4.189 -0.0201  1.5411 -0.6289
  465MOL0     C62703   8.471  11.333   4.154  0.0063  0.0176  0.5472
  465MOL0     C62704   8.358  11.323   4.109 -0.3252  0.8110 -0.3590
  465MOL0     C62705   9.057  11.155   4.449 -0.6828  0.3865 -0.4466
  465MOL0     C62706   9.165  11.070   4.474 -0.1190 -0.3693 -1.0035
  465MOL0     C62707   9.306  11.129   4.478 -0.2375  0.1578 -0.2070
  465MOL0     H62708   9.399  10.585   4.534 -0.0332 -0.5235  0.4102
  465MOL0     H62709   9.634  10.470   4.550  2.1711  0.9931 -1.1820
  465MOL0     H62710   9.996  10.722   4.683  2.9568 -0.3097 -1.3066
  465MOL0     H62711   9.909  10.608   4.783  2.7690  0.8471  1.3489
  465MOL0     H62712  10.030  10.423   4.647 -1.5311 -0.0743  2.3465
  465MOL0     H62713  10.128  10.516   4.764  1.2582 -3.4485 -0.8410
  465MOL0     H62714  10.202  10.669   4.605 -2.1508 -0.7176  0.4887
  465MOL0     H62715  10.105  10.602   4.479 -0.0170 -0.0656 -0.7034
  465MOL0     H62716  10.366  10.488   4.595 -0.6688  0.0855  1.2536
  465MOL0     H62717  10.244  10.370   4.588 -0.4009  0.1595 -0.8433
  465MOL0     H62718  10.196  10.466   4.341 -0.8336 -0.0288  2.1401
  465MOL0     H62719  10.344  10.559   4.362 -1.6825  0.2123 -1.7269
  465MOL0     H62720  10.318  10.250   4.355  0.1097 -0.5356  0.0919
  465MOL0     H62721  10.354  10.361   4.226 -2.3448  1.2505 -0.0562
  465MOL0     H62722  10.565  10.273   4.285  1.6632  0.0405  1.0896
  465MOL0     H62723  10.536  10.263   4.459 -0.4115  0.9289  0.8463
  465MOL0     H62724  10.602  10.525   4.296 -0.4200  0.4513  0.1487
  465MOL0     H62725  10.561  10.521   4.461 -0.9904 -2.6087  1.1642
  465MOL0     H62726  10.779  10.492   4.612  0.4965  1.9437 -0.3808
  465MOL0     H62727  11.009  10.428   4.687  0.4706  3.5899 -0.4787
  465MOL0     H62728  11.078  10.291   4.597 -2.2465 -0.8301 -1.4165
  465MOL0     H62729  11.235  10.419   4.460 -2.2864 -0.1487 -3.1626
  465MOL0     H62730  11.152  10.571   4.501  0.8360 -0.9004 -0.8105
  465MOL0     H62731  11.296  10.398   4.701 -1.8215 -0.9853 -0.8078
  465MOL0     H62732  11.230  10.554   4.743  1.1562  1.8121 -0.8153
  465MOL0     H62733  11.391  10.661   4.601  1.3703 -0.3205 -0.1254
  465MOL0     H62734  11.456  10.506   4.543 -0.5467  1.4897 -1.6381
  465MOL0     H62735  11.587  10.707   4.543 -3.6735 -1.8116  1.7794
  465MOL0     H62736  11.846  10.776   4.544 -0.3640  1.4617  1.4952
  465MOL0     H62737  12.213  10.802   4.408  2.6268 -3.0309 -1.4021
  465MOL0     H62738  12.428  10.923   4.384  1.0317 -0.6995  1.1153
  465MOL0     H62739  12.570  11.197   4.707  2.3070  0.9216 -0.8397
  465MOL0     H62740  12.607  11.039   4.782  0.6176  0.5803 -0.2155
  465MOL0     H62741  12.815  11.018   4.677  0.8763  1.3016  1.8862
  465MOL0     H62742  12.795  11.184   4.606 -0.8927  1.0288  0.3429
  465MOL0     H62743  12.758  11.283   4.828  1.6401 -0.0371  4.3271
  465MOL0     H62744  12.802  11.120   4.891  0.5237 -1.5172 -1.7415
  465MOL0     H62745  12.990  11.286   4.724  1.6434 -0.9086  0.9779
  465MOL0     H62746  13.016  11.130   4.795 -0.8409 -1.0187  1.9218
  465MOL0     H62747  13.011  11.215   5.018 -0.9210  0.6102 -0.1067
  465MOL0     H62748  12.957  11.374   4.958 -0.7167 -0.7793 -0.8021
  465MOL0     H62749  13.219  11.241   4.908  2.3075  0.5147  1.5304
  465MOL0     H62750  13.172  11.397   4.836 -0.0362  2.0659  0.6914
  465MOL0     H62751  13.167  11.362   5.148  0.8690  5.1801  2.9977
  465MOL0     H62752  13.180  11.510   5.045  1.9848  0.2596 -3.0260
  465MOL0     H62753  13.425  11.440   5.014 -0.9253  2.2786 -1.2226
  465MOL0     H62754  13.367  11.458   5.192 -0.9162 -1.2257  0.0388
  465MOL0     H62755  12.416  10.981   4.812  1.0539 -0.3004 -0.6161
  465MOL0     H62756  12.194  10.884   4.820 -4.6836 -1.9967 -2.1641
  465MOL0     H62757  11.899  10.534   4.895 -0.9878 -0.2877  1.5914
  465MOL0     H62758  11.670  10.481   4.896  1.3458  1.0470  1.1187
  465MOL0     H62759   9.803  10.846   4.682  0.5266  0.7105 -0.5963
  465MOL0     H62760   9.600  10.958   4.637  0.9179  0.8321 -1.1670
  465MOL0     H62761   8.973  10.790   4.514 -3.0229  1.4835 -0.3986
  465MOL0     H62762   8.798  10.935   4.482  0.7356  0.2573  2.2816
  465MOL0     H62763   8.644  11.276   4.471  0.7635  0.6697 -2.2485
  465MOL0     H62764   8.674  11.112   4.526 -2.5427  0.8616  0.5882
  465MOL0     H62765   8.529  11.106   4.326  0.2203 -0.7793 -2.7613
  465MOL0     H62766   8.699  11.027   4.310  0.9905  0.3626  1.7922
  465MOL0     H62767   8.661  11.157   4.098  0.2645  1.1166 -0.9666
  465MOL0     H62768   8.792  11.219   4.206 -0.0733  1.3980  0.3950
  465MOL0     H62769   8.627  11.385   4.289 -0.5174  0.0036  0.1197
  465MOL0     H62770   8.645  11.409   4.109 -1.3281  0.2710 -2.2996
  465MOL0     H62771   8.258  11.320   4.072 -1.0312 -1.0712  1.5070
  465MOL0     H62772   9.081  11.259   4.428 -0.3879  0.0977 -1.5833
  465MOL0     H62773   9.354  11.082   4.392 -0.3551 -0.1684 -0.0952
  465MOL0     H62774   9.306  11.237   4.464  0.7788  0.3426  1.0480
  465MOL0     H62775   9.374  11.104   4.559  3.3401 -0.6833 -3.2090
  466MOL0     O62776   9.450   8.031   0.536  0.2419  0.7339 -0.7145
  466MOL0     C62777   9.461   8.120   0.458  1.1340  0.2278 -0.9452
  466MOL0     O62778   9.567   8.162   0.392  0.6363 -0.1197  0.2728
  466MOL0     C62779   9.622   8.076   0.296  0.5399 -0.1771 -0.1135
  466MOL0     C62780   9.760   8.092   0.279 -0.1675 -0.4765  0.1013
  466MOL0     C62781   9.821   8.000   0.194  0.1178  0.6564  1.1617
  466MOL0     C62782   9.746   7.904   0.125  0.3563  0.6357  0.7450
  466MOL0     O62783   9.824   7.823   0.048  0.1221  0.2532  0.1720
  466MOL0     C62784   9.782   7.762  -0.074  0.6292  0.3677 -1.3178
  466MOL0     C62785   9.767   7.616  -0.058  0.5332  0.5839 -0.1676
  466MOL0     C62786   9.651   7.571   0.021 -0.4064 -0.6985 -0.1308
  466MOL0     C62787   9.609   7.422   0.014  0.3266 -0.2138  0.6634
  466MOL0     C62788   9.721   7.319   0.047  0.3766  0.4438  0.2939
  466MOL0     C62789   9.729   7.296   0.202  0.1679  0.1669  0.0486
  466MOL0     C62790   9.822   7.183   0.252 -0.6373 -0.0087  0.0041
  466MOL0     C62791   9.788   7.138   0.392  0.1513 -0.5262  0.1213
  466MOL0     N62792   9.835   7.232   0.492 -0.2952  0.2983 -0.9102
  466MOL0     C62793   9.944   7.218   0.575  0.2463 -0.5768 -0.0332
  466MOL0     C62794   9.942   7.334   0.650 -0.2348  0.4059  0.0427
  466MOL0     C62795  10.043   7.387   0.740  0.6591 -0.3546  0.0765
  466MOL0     C62796  10.185   7.386   0.677  0.4061 -0.6956 -0.2960
  466MOL0     C62797  10.279   7.481   0.755 -1.0715  0.0928 -0.8615
  466MOL0     C62798  10.378   7.534   0.655  0.4460  0.2188 -0.5999
  466MOL0     O62799  10.449   7.421   0.589  0.1496 -0.5233 -0.3228
  466MOL0     C62800  10.583   7.395   0.620  0.3986 -0.5959 -0.2883
  466MOL0     C62801  10.636   7.399   0.752  0.5879  1.3708  0.1427
  466MOL0     C62802  10.765   7.358   0.783  0.0558 -0.5466 -0.2800
  466MOL0     C62803  10.847   7.310   0.677  0.1686 -0.0993 -0.4469
  466MOL0     C62804  10.983   7.264   0.703  0.4326  0.5344 -0.2896
  466MOL0     O62805  11.010   7.246   0.839  0.6386 -0.3389 -0.3646
  466MOL0     C62806  11.140   7.210   0.869 -1.0047  0.3969 -0.8460
  466MOL0     C62807  11.201   7.081   0.861  0.2065 -0.4915  0.1833
  466MOL0     C62808  11.325   7.047   0.915  0.3344 -0.2163  0.9706
  466MOL0     C62809  11.407   7.150   0.965 -0.8246  0.0458  0.2518
  466MOL0     O62810  11.538   7.135   1.010 -0.5534  0.4978 -0.7053
  466MOL0     C62811  11.612   7.045   0.929 -0.5667  0.2128  0.4147
  466MOL0     C62812  11.761   7.070   0.944  0.5765 -0.9370 -0.4693
  466MOL0     C62813  11.841   6.961   0.872 -0.2261 -0.8086 -0.7362
  466MOL0     C62814  11.891   6.856   0.974 -0.4391 -0.0172 -0.7038
  466MOL0     C62815  11.978   6.745   0.909  0.8815 -0.2905  0.5222
  466MOL0     C62816  11.983   6.614   0.982 -0.4491  0.2076  0.4813
  466MOL0     C62817  12.014   6.624   1.136 -0.0831  0.1474  0.7642
  466MOL0     C62818  12.163   6.657   1.150 -0.9602  0.1744 -0.1622
  466MOL0    Cl62819  12.256   6.506   1.156  0.4012  0.0371 -0.3056
  466MOL0     C62820  11.357   7.280   0.954 -0.0199  0.0779  0.4522
  466MOL0     C62821  11.223   7.312   0.920 -0.3261  0.4450  0.1479
  466MOL0     O62822  11.070   7.252   0.619  0.1299  0.4728  0.1258
  466MOL0     C62823  10.793   7.306   0.545  0.5578 -0.3668  0.4524
  466MOL0     C62824  10.664   7.352   0.516  0.2905  0.2711  0.0094
  466MOL0     N62825   9.820   7.397   0.627  0.2281  0.7418  0.0790
  466MOL0     N62826   9.755   7.329   0.542 -0.0660  0.0499  0.2475
  466MOL0     C62827   9.615   7.891   0.134  0.0703  0.5655 -0.2720
  466MOL0     C62828   9.547   7.978   0.222 -0.2297  0.1039 -0.1346
  466MOL0     C62829   9.350   8.205   0.477 -0.2655 -0.4362  0.2009
  466MOL0     C62830   9.360   8.341   0.451 -0.8552 -0.0817  1.0585
  466MOL0     C62831   9.251   8.425   0.453 -0.5608  0.4293  0.2291
  466MOL0     C62832   9.121   8.374   0.479  0.0258  0.8147  0.6182
  466MOL0     O62833   9.020   8.466   0.469  0.4536  0.1203  0.1186
  466MOL0     C62834   8.880   8.437   0.446  0.0847 -0.5948 -0.3480
  466MOL0     C62835   8.857   8.362   0.312  0.7895 -0.0506 -0.8284
  466MOL0     C62836   8.706   8.337   0.279 -0.3675 -0.2292  0.8919
  466MOL0     C62837   8.693   8.196   0.215  0.3540  0.0713  0.0043
  466MOL0     C62838   8.757   8.173   0.088 -0.3231  0.2855  1.1536
  466MOL0     C62839   8.824   8.155  -0.012 -0.1706  0.0094  0.1381
  466MOL0     C62840   9.105   8.238   0.509 -0.3634 -0.8455 -0.1866
  466MOL0     C62841   9.217   8.156   0.504 -0.1215  0.3223 -0.4542
  466MOL0     C62842   9.181   8.003   0.521  0.9004 -0.2327  0.3225
  466MOL0     H62843   9.822   8.167   0.327  1.7597 -2.7513  1.3595
  466MOL0     H62844   9.927   8.003   0.174 -0.1541 -1.2895 -1.0125
  466MOL0     H62845   9.686   7.802  -0.109 -0.4764  0.5995  1.6967
  466MOL0     H62846   9.850   7.782  -0.157  2.0815  1.2355  0.0384
  466MOL0     H62847   9.860   7.587  -0.008 -0.7831  2.2541  3.6201
  466MOL0     H62848   9.768   7.570  -0.158  0.9149  0.0140  0.0935
  466MOL0     H62849   9.569   7.632  -0.017  0.3569 -1.8711 -4.1894
  466MOL0     H62850   9.683   7.586   0.125 -1.1602  0.3984 -0.0480
  466MOL0     H62851   9.526   7.416   0.085 -0.8167 -0.5451 -0.6668
  466MOL0     H62852   9.581   7.407  -0.091  2.8784 -0.5986 -0.0453
  466MOL0     H62853   9.675   7.231   0.001 -1.4807  1.9813 -0.9362
  466MOL0     H62854   9.823   7.340   0.016  1.8453 -1.0495  3.6038
  466MOL0     H62855   9.772   7.386   0.246  2.1561 -0.3856 -0.6818
  466MOL0     H62856   9.631   7.285   0.249  1.0974  0.4977  2.1479
  466MOL0     H62857   9.925   7.220   0.255 -0.9180  0.7568  0.8641
  466MOL0     H62858   9.813   7.089   0.197  0.8481  0.0973 -0.4505
  466MOL0     H62859   9.679   7.125   0.399 -0.0942  0.1068 -1.7890
  466MOL0     H62860   9.816   7.035   0.417 -1.9041 -0.4766  3.2267
  466MOL0     H62861  10.023   7.144   0.585 -1.0417 -1.8806  0.7745
  466MOL0     H62862  10.009   7.488   0.766 -1.3099 -0.6346 -1.2312
  466MOL0     H62863  10.030   7.318   0.824  0.2086 -1.2847 -0.7480
  466MOL0     H62864  10.235   7.288   0.680  0.6133 -0.5637  0.9161
  466MOL0     H62865  10.183   7.415   0.572  0.0786  1.4895  0.2576
  466MOL0     H62866  10.333   7.426   0.833  0.0085 -0.1436 -1.7606
  466MOL0     H62867  10.232   7.569   0.800 -0.8463  0.5301 -1.4802
  466MOL0     H62868  10.449   7.592   0.715 -2.7736 -0.5153  4.5712
  466MOL0     H62869  10.339   7.605   0.582  1.0319 -0.5638 -1.7192
  466MOL0     H62870  10.572   7.427   0.835  1.8366  2.2057  0.8616
  466MOL0     H62871  10.793   7.369   0.887 -1.9848 -1.4086  0.4090
  466MOL0     H62872  11.138   6.998   0.829 -0.6381  0.3350 -0.4002
  466MOL0     H62873  11.359   6.944   0.906 -3.1596 -1.3925 -0.6059
  466MOL0     H62874  11.591   6.943   0.965 -3.5936  2.0757  4.8247
  466MOL0     H62875  11.582   7.053   0.825 -0.2102  1.3030  0.3825
  466MOL0     H62876  11.774   7.172   0.905 -3.5620  0.6804  1.7483
  466MOL0     H62877  11.776   7.074   1.052 -1.6020 -0.2576 -0.1472
  466MOL0     H62878  11.790   6.909   0.790 -0.7318 -1.6477  0.0819
  466MOL0     H62879  11.931   7.013   0.840 -0.1343 -0.2654  0.3597
  466MOL0     H62880  11.813   6.811   1.036 -1.3018 -0.2113 -1.8770
  466MOL0     H62881  11.947   6.908   1.052 -1.5646  3.5995 -2.1115
  466MOL0     H62882  12.082   6.779   0.898  0.3495  1.0444 -0.9715
  466MOL0     H62883  11.938   6.727   0.809  1.5775  0.0062  0.1813
  466MOL0     H62884  11.887   6.565   0.963 -0.7866  1.5450 -1.6205
  466MOL0     H62885  12.055   6.552   0.929 -0.0053  0.8640  0.2970
  466MOL0     H62886  11.991   6.532   1.189 -1.1560 -0.2930 -0.4126
  466MOL0     H62887  11.951   6.701   1.181 -1.9826 -1.5537  1.1573
  466MOL0     H62888  12.202   6.718   1.067 -0.3047  3.5614  2.4128
  466MOL0     H62889  12.196   6.722   1.231  0.8486  0.8439 -1.3653
  466MOL0     H62890  11.425   7.357   0.988 -0.8142  0.7946  0.4278
  466MOL0     H62891  11.195   7.416   0.930 -0.2063  0.3412  1.9916
  466MOL0     H62892  10.858   7.289   0.461 -0.4868  1.9743 -0.9281
  466MOL0     H62893  10.626   7.355   0.414 -0.5322  2.0258  0.3212
  466MOL0     H62894   9.559   7.813   0.084 -3.3405  1.1955  2.1681
  466MOL0     H62895   9.438   7.979   0.225 -0.3862 -1.1774 -2.7399
  466MOL0     H62896   9.459   8.378   0.426  0.1582 -2.3189  1.5889
  466MOL0     H62897   9.255   8.532   0.435 -3.7063  0.9453  1.8354
  466MOL0     H62898   8.829   8.533   0.445 -1.5729 -1.3454  2.2460
  466MOL0     H62899   8.838   8.385   0.533 -1.8238  0.0866 -0.8084
  466MOL0     H62900   8.907   8.265   0.321  3.0454  1.0990 -0.2304
  466MOL0     H62901   8.900   8.417   0.227 -1.1433  1.9541 -0.6009
  466MOL0     H62902   8.684   8.409   0.200  0.5273  0.2359  1.0485
  466MOL0     H62903   8.633   8.346   0.360 -0.4672 -0.0574  0.7821
  466MOL0     H62904   8.736   8.130   0.291  1.0385  1.8975  1.2805
  466MOL0     H62905   8.588   8.170   0.202  0.7116 -2.4406  1.5562
  466MOL0     H62906   8.882   8.138  -0.100  2.0681 -1.2557  1.7461
  466MOL0     H62907   9.010   8.199   0.542 -0.4843  0.6449  1.3751
  466MOL0     H62908   9.082   7.991   0.477  0.0534  1.0721  1.8022
  466MOL0     H62909   9.249   7.929   0.477 -0.3427  0.1819 -2.4764
  466MOL0     H62910   9.181   7.987   0.629 -1.5514 -1.7033  0.1646
  467MOL0     O62911   6.582   8.318   3.044 -0.8158 -0.4790  0.5753
  467MOL0     C62912   6.549   8.343   3.162  0.3835  0.3695 -0.5389
  467MOL0     O62913   6.634   8.344   3.268 -0.0839  0.4280 -0.1889
  467MOL0     C62914   6.769   8.344   3.238 -0.2794 -0.4051  0.3845
  467MOL0     C62915   6.832   8.463   3.243 -1.3839  0.0743 -0.9715
  467MOL0     C62916   6.965   8.473   3.196  0.7197  0.1313  0.1972
  467MOL0     C62917   7.035   8.365   3.150  0.3028 -0.6013  0.2644
  467MOL0     O62918   7.165   8.399   3.107 -0.0404 -0.1442 -0.0901
  467MOL0     C62919   7.236   8.301   3.032  0.1653  1.0371 -0.0057
  467MOL0     C62920   7.350   8.365   2.956 -0.7708 -0.9392  0.2505
  467MOL0     C62921   7.431   8.464   3.034  0.5670  0.0636 -0.4383
  467MOL0     C62922   7.540   8.533   2.947 -0.0448  0.4115 -0.2657
  467MOL0     C62923   7.626   8.619   3.033  0.0356 -1.5009 -0.3658
  467MOL0     C62924   7.749   8.681   2.954 -0.5670  0.2669  0.8805
  467MOL0     C62925   7.842   8.761   3.055 -0.3143 -0.0492  0.0227
  467MOL0     C62926   7.956   8.831   2.974  0.0715 -0.2333 -0.5951
  467MOL0     N62927   8.012   8.952   3.035  0.0717 -0.1068 -0.8122
  467MOL0     C62928   8.115   8.953   3.134 -0.5775 -0.2324 -0.2714
  467MOL0     C62929   8.179   9.073   3.118  0.4032 -0.3358 -1.3132
  467MOL0     C62930   8.293   9.127   3.212  0.0546  0.0302  0.7666
  467MOL0     C62931   8.432   9.048   3.206 -0.2750  0.1369 -0.0022
  467MOL0     C62932   8.492   9.026   3.065  0.1393 -0.7669 -0.6172
  467MOL0     C62933   8.625   8.959   3.082 -0.4469  0.7178 -0.3282
  467MOL0     O62934   8.662   8.891   2.962 -0.4847 -0.4796 -0.0553
  467MOL0     C62935   8.789   8.848   2.961  0.5972 -0.1098 -0.4989
  467MOL0     C62936   8.875   8.852   3.068 -0.5654  0.3133 -0.1875
  467MOL0     C62937   9.008   8.809   3.048 -0.1150 -0.3251 -0.2794
  467MOL0     C62938   9.055   8.766   2.920 -0.1628 -0.0105  0.1506
  467MOL0     C62939   9.197   8.736   2.899  0.6333  0.2386  0.2960
  467MOL0     O62940   9.231   8.677   2.775  0.3455  0.3091  0.9202
  467MOL0     C62941   9.364   8.666   2.751 -0.2073  0.5975 -0.7928
  467MOL0     C62942   9.452   8.768   2.723 -0.3606 -0.1804 -0.1203
  467MOL0     C62943   9.592   8.751   2.730 -0.0582 -0.1148 -1.1998
  467MOL0     C62944   9.643   8.619   2.747  0.8556 -0.0996  0.0815
  467MOL0     O62945   9.776   8.582   2.749  0.2954  0.0420  0.1678
  467MOL0     C62946   9.866   8.686   2.785  0.7480  0.0654 -0.4927
  467MOL0     C62947   9.994   8.615   2.831  0.0453  0.0168  0.0313
  467MOL0     C62948  10.125   8.696   2.849  0.5708 -0.0111 -0.4831
  467MOL0     C62949  10.247   8.602   2.850 -0.1506 -0.6334  0.6045
  467MOL0     C62950  10.368   8.689   2.895 -0.3429 -0.0903 -0.0090
  467MOL0     C62951  10.500   8.602   2.892 -0.6823  0.0099 -0.0299
  467MOL0     C62952  10.506   8.510   3.015 -0.5696  0.5063 -0.3961
  467MOL0     C62953  10.577   8.579   3.124 -0.1963 -0.2121 -0.7457
  467MOL0    Cl62954  10.615   8.464   3.250  0.3404  0.3333 -0.3439
  467MOL0     C62955   9.550   8.508   2.752 -0.6757 -0.7051 -0.2018
  467MOL0     C62956   9.421   8.538   2.766  0.5866 -0.5255 -0.2936
  467MOL0     O62957   9.272   8.764   2.997 -0.1637 -0.1240  0.4430
  467MOL0     C62958   8.959   8.765   2.819 -0.0597  0.2110 -0.4275
  467MOL0     C62959   8.834   8.803   2.835 -0.0607 -0.3997 -1.0092
  467MOL0     N62960   8.113   9.137   3.010  0.0808 -0.6378 -0.2644
  467MOL0     N62961   8.009   9.072   2.974  0.7097 -0.3213 -0.2112
  467MOL0     C62962   6.973   8.239   3.179  0.3344 -0.7553  0.3788
  467MOL0     C62963   6.846   8.229   3.226  0.0482  0.4650  0.0989
  467MOL0     C62964   6.414   8.386   3.196  0.2702 -0.1877  0.0166
  467MOL0     C62965   6.397   8.475   3.302  0.3228 -0.4192  0.0533
  467MOL0     C62966   6.264   8.524   3.332  0.1491  0.0446  0.9193
  467MOL0     C62967   6.147   8.485   3.257 -1.1550  0.4502 -0.3551
  467MOL0     O62968   6.016   8.519   3.279 -0.5597  0.0415 -0.0616
  467MOL0     C62969   6.001   8.622   3.377  0.0189  0.2505  0.6909
  467MOL0     C62970   5.862   8.679   3.379  0.2433  1.0608  0.6005
  467MOL0     C62971   5.827   8.775   3.260 -0.4152 -0.0559 -0.4865
  467MOL0     C62972   5.848   8.724   3.123 -0.9068  0.8731  0.2914
  467MOL0     C62973   5.762   8.606   3.101  0.1469  0.8010  0.6942
  467MOL0     C62974   5.699   8.502   3.069  1.1558 -0.4204  0.0673
  467MOL0     C62975   6.180   8.407   3.150 -0.0385  0.4489  0.4327
  467MOL0     C62976   6.307   8.349   3.116  0.1002 -0.4647 -0.8757
  467MOL0     C62977   6.311   8.243   3.009  0.1551  0.3990  0.0934
  467MOL0     H62978   6.777   8.552   3.270 -0.9889  0.4378 -1.3415
  467MOL0     H62979   6.987   8.579   3.186 -1.3517  0.6937  0.9862
  467MOL0     H62980   7.276   8.218   3.092 -1.9645  1.0129  1.4903
  467MOL0     H62981   7.169   8.264   2.953 -1.1229  2.8418  0.1961
  467MOL0     H62982   7.302   8.419   2.875  3.5388  2.1769 -0.5505
  467MOL0     H62983   7.420   8.285   2.930  1.3122  0.5841  0.9457
  467MOL0     H62984   7.482   8.398   3.105  1.4755 -1.3423 -2.3091
  467MOL0     H62985   7.369   8.542   3.079 -0.3758 -0.2659 -1.1319
  467MOL0     H62986   7.597   8.454   2.898 -1.6389 -2.9969  2.8410
  467MOL0     H62987   7.491   8.600   2.875 -0.4870 -1.4506 -1.7724
  467MOL0     H62988   7.566   8.707   3.058 -0.6457 -1.7398 -1.1222
  467MOL0     H62989   7.668   8.571   3.122 -1.1030 -0.9520  0.4926
  467MOL0     H62990   7.799   8.591   2.916  0.4453  0.7324  1.0968
  467MOL0     H62991   7.708   8.747   2.877 -1.1641 -0.8222  0.2258
  467MOL0     H62992   7.893   8.693   3.124  0.3649  0.1123 -0.3171
  467MOL0     H62993   7.792   8.841   3.112  0.7601  0.0833  0.8109
  467MOL0     H62994   8.032   8.761   2.941  1.5119 -0.7042  3.2494
  467MOL0     H62995   7.911   8.872   2.883 -1.2706  0.4253  0.3160
  467MOL0     H62996   8.134   8.872   3.204 -2.6919 -0.1008  0.5091
  467MOL0     H62997   8.315   9.231   3.185  0.8386 -0.3222 -0.0271
  467MOL0     H62998   8.262   9.127   3.317 -2.7497 -2.9203  0.1111
  467MOL0     H62999   8.504   9.088   3.279 -0.9222  1.0742  0.1393
  467MOL0     H63000   8.409   8.947   3.241  0.0334 -1.1574 -3.2412
  467MOL0     H63001   8.499   9.118   3.006 -3.3922  0.7407  1.0424
  467MOL0     H63002   8.424   8.957   3.015  0.2199 -0.4955 -1.1072
  467MOL0     H63003   8.622   8.877   3.155 -3.7658 -1.0116 -2.1803
  467MOL0     H63004   8.699   9.037   3.103 -1.6385  2.0338 -0.9049
  467MOL0     H63005   8.848   8.888   3.167  1.9630  1.7399  0.0771
  467MOL0     H63006   9.068   8.791   3.137  0.9109  3.5214 -0.0271
  467MOL0     H63007   9.424   8.873   2.720 -1.7313 -0.4259  2.0434
  467MOL0     H63008   9.661   8.835   2.726  0.2585 -0.2973 -0.0262
  467MOL0     H63009   9.897   8.741   2.696  1.0553 -2.5504 -2.1034
  467MOL0     H63010   9.822   8.751   2.862 -2.5788 -1.4232 -0.9865
  467MOL0     H63011   9.959   8.554   2.914 -1.5029 -0.8809 -1.2137
  467MOL0     H63012  10.016   8.550   2.746 -0.9386 -0.4928  0.1459
  467MOL0     H63013  10.142   8.773   2.773  1.7873 -2.0161 -2.3631
  467MOL0     H63014  10.115   8.740   2.948  0.0603 -1.3009  0.0677
  467MOL0     H63015  10.271   8.553   2.755  2.7087 -0.8845  1.3630
  467MOL0     H63016  10.227   8.514   2.911 -3.3399 -1.3723 -1.3103
  467MOL0     H63017  10.348   8.737   2.990 -0.2843 -0.1053  0.0115
  467MOL0     H63018  10.382   8.773   2.827  1.3099 -0.0835  0.3047
  467MOL0     H63019  10.501   8.538   2.803  0.8894  0.3319 -0.2772
  467MOL0     H63020  10.587   8.669   2.887 -2.4291  2.8259  3.2156
  467MOL0     H63021  10.563   8.423   2.980 -2.1176 -0.4592 -0.6176
  467MOL0     H63022  10.408   8.479   3.052 -0.4593 -1.7626 -1.8136
  467MOL0     H63023  10.674   8.617   3.089  0.1147  0.0002  0.3288
  467MOL0     H63024  10.525   8.667   3.162  1.1313 -0.0319  0.7322
  467MOL0     H63025   9.587   8.406   2.754  1.4073 -0.0140 -0.1468
  467MOL0     H63026   9.363   8.447   2.779  1.0090 -0.4843  2.5135
  467MOL0     H63027   8.989   8.731   2.721 -0.0040  1.0849 -0.7251
  467MOL0     H63028   8.767   8.804   2.750 -0.2737  3.0867 -0.9606
  467MOL0     H63029   7.025   8.146   3.162 -1.1877 -1.6722  0.5435
  467MOL0     H63030   6.798   8.132   3.234 -3.6741  1.7978 -3.0924
  467MOL0     H63031   6.477   8.515   3.362 -2.5944  1.7104  2.8649
  467MOL0     H63032   6.247   8.594   3.413  0.0263  0.4741  0.5242
  467MOL0     H63033   6.069   8.699   3.340 -0.8540  2.0039  2.5345
  467MOL0     H63034   6.026   8.589   3.479 -1.9074 -0.1214  1.0935
  467MOL0     H63035   5.835   8.734   3.470 -1.3666  0.2056  0.6878
  467MOL0     H63036   5.796   8.592   3.387 -0.2530  1.5967  3.4705
  467MOL0     H63037   5.885   8.866   3.271  0.9334 -1.0622  1.2168
  467MOL0     H63038   5.725   8.812   3.271 -0.5030 -0.0382 -1.2866
  467MOL0     H63039   5.827   8.807   3.054  5.3578  1.4408 -1.4849
  467MOL0     H63040   5.949   8.689   3.102 -1.9083 -1.6764 -0.6658
  467MOL0     H63041   5.637   8.426   3.027 -3.8318  2.9284  0.5080
  467MOL0     H63042   6.100   8.373   3.085  2.2147 -1.6708 -1.4334
  467MOL0     H63043   6.224   8.177   3.002 -2.5045  3.7069 -0.9945
  467MOL0     H63044   6.316   8.288   2.909 -3.9873 -0.0697 -0.5102
  467MOL0     H63045   6.402   8.184   3.023  0.2187 -0.4767 -3.2174
  468MOL0     O63046   5.946   2.634   2.579 -0.5393 -0.4683 -0.0828
  468MOL0     C63047   5.927   2.548   2.669  0.2342 -0.6325  0.1781
  468MOL0     O63048   6.025   2.488   2.752 -0.4510 -0.1925  0.2611
  468MOL0     C63049   6.152   2.533   2.745 -0.2247 -0.2624 -0.2064
  468MOL0     C63050   6.200   2.606   2.851  0.2225  0.6596 -0.0805
  468MOL0     C63051   6.313   2.683   2.834 -0.3042 -0.5790 -0.3077
  468MOL0     C63052   6.394   2.681   2.718  0.4024 -0.8170 -0.3139
  468MOL0     O63053   6.513   2.752   2.694  0.8480 -0.1518 -0.4096
  468MOL0     C63054   6.550   2.842   2.797  0.1388 -0.0696 -0.0063
  468MOL0     C63055   6.689   2.888   2.773  0.0127  0.3462 -0.7003
  468MOL0     C63056   6.741   2.960   2.901  0.8480  0.1904 -1.0139
  468MOL0     C63057   6.889   3.003   2.897  0.1191  0.2413 -0.1819
  468MOL0     C63058   6.938   3.085   3.023 -0.9042  0.5432  0.3249
  468MOL0     C63059   7.089   3.074   3.013  0.1818  0.0399  0.7922
  468MOL0     C63060   7.165   3.162   3.109 -0.4004 -1.0604  0.0542
  468MOL0     C63061   7.311   3.109   3.093  0.2211  0.1299 -0.0176
  468MOL0     N63062   7.409   3.158   3.190 -0.1784  0.4835  0.3235
  468MOL0     C63063   7.403   3.271   3.263  0.2702 -0.3094 -0.6520
  468MOL0     C63064   7.516   3.263   3.345  0.2984  0.0178  0.0249
  468MOL0     C63065   7.547   3.371   3.442  0.0201  0.5611 -0.6919
  468MOL0     C63066   7.692   3.369   3.495  0.3261 -0.3993  0.2953
  468MOL0     C63067   7.732   3.313   3.629  0.4473  0.4726 -1.1253
  468MOL0     C63068   7.700   3.158   3.644 -0.7951 -0.7041 -0.3379
  468MOL0     O63069   7.794   3.100   3.728 -0.2062  0.3413  0.5856
  468MOL0     C63070   7.922   3.085   3.676  0.6600  0.0163  0.1986
  468MOL0     C63071   8.009   3.042   3.777  0.0854 -0.6758 -0.2855
  468MOL0     C63072   8.138   3.015   3.756 -0.1174  0.2374  0.5190
  468MOL0     C63073   8.196   3.039   3.628 -0.8476  0.3534 -0.5228
  468MOL0     C63074   8.344   3.007   3.595  0.3153 -0.2568  0.0081
  468MOL0     O63075   8.392   3.062   3.477 -0.4836  0.3918  0.3912
  468MOL0     C63076   8.529   3.048   3.483 -0.0212 -0.9203  0.7611
  468MOL0     C63077   8.613   3.155   3.493  0.4725  0.3947  0.1880
  468MOL0     C63078   8.756   3.141   3.478  0.2630  0.6386 -0.2662
  468MOL0     C63079   8.813   3.012   3.458  0.1681 -0.1880  0.7875
  468MOL0     O63080   8.949   3.005   3.442  0.6774  0.3759 -1.1958
  468MOL0     C63081   9.019   2.879   3.483  0.1133  0.4379 -0.5692
  468MOL0     C63082   9.164   2.907   3.501  0.2627  0.5016  0.1536
  468MOL0     C63083   9.234   2.769   3.513  0.0200  0.4026 -0.4171
  468MOL0     C63084   9.377   2.790   3.567  0.3149 -0.6033 -0.3330
  468MOL0     C63085   9.468   2.665   3.548  1.0489  0.4654  0.0304
  468MOL0     C63086   9.610   2.686   3.587 -0.2290 -0.0740 -0.1576
  468MOL0     C63087   9.636   2.666   3.735  0.2440  0.6397 -0.3080
  468MOL0     C63088   9.765   2.723   3.776  0.0915 -0.0077  0.3455
  468MOL0    Cl63089   9.775   2.689   3.945  0.1092  0.0847 -0.0852
  468MOL0     C63090   8.727   2.907   3.445 -0.5682  0.4307  0.4346
  468MOL0     C63091   8.587   2.923   3.448 -0.6661  0.1280 -0.4574
  468MOL0     O63092   8.400   2.950   3.685 -0.3878  0.4652  0.5493
  468MOL0     C63093   8.107   3.071   3.529 -0.6057  0.6845 -0.0323
  468MOL0     C63094   7.979   3.094   3.548  1.0061 -0.6044  0.7410
  468MOL0     N63095   7.582   3.145   3.317 -0.3727 -0.7343 -0.3220
  468MOL0     N63096   7.516   3.076   3.231  0.1527 -0.5000 -0.2602
  468MOL0     C63097   6.345   2.600   2.613  0.7794  0.0572 -1.0593
  468MOL0     C63098   6.226   2.527   2.627  1.4058  0.9070 -0.0843
  468MOL0     C63099   5.779   2.502   2.673  0.6457 -1.2274 -0.2532
  468MOL0     C63100   5.676   2.532   2.581 -0.4875 -0.5366  0.0463
  468MOL0     C63101   5.546   2.490   2.598  0.2362 -0.9043  1.0271
  468MOL0     C63102   5.518   2.390   2.694 -0.3364 -0.2625  0.0804
  468MOL0     O63103   5.384   2.348   2.698 -0.1068 -0.2012  0.1100
  468MOL0     C63104   5.330   2.369   2.821 -0.1402 -0.7009 -1.1961
  468MOL0     C63105   5.187   2.330   2.820 -0.4516 -0.3738  0.1884
  468MOL0     C63106   5.100   2.342   2.954 -1.2411 -0.0966 -0.2306
  468MOL0     C63107   4.948   2.335   2.963  0.0104  0.1136 -0.1832
  468MOL0     C63108   4.886   2.204   2.925  0.0450  0.4104  0.1630
  468MOL0     C63109   4.831   2.101   2.892  0.1121 -0.5791  0.0477
  468MOL0     C63110   5.611   2.357   2.781  0.9281  0.1088 -0.9887
  468MOL0     C63111   5.738   2.414   2.782 -0.5949 -0.6306  0.3634
  468MOL0     C63112   5.811   2.382   2.912  0.1344 -0.0937  0.5126
  468MOL0     H63113   6.149   2.610   2.946  3.3711  0.4026  1.7495
  468MOL0     H63114   6.340   2.728   2.929 -0.7627  0.3515 -0.6063
  468MOL0     H63115   6.476   2.922   2.801 -0.5008 -0.6941  1.4255
  468MOL0     H63116   6.543   2.785   2.890 -1.0845 -2.6942 -1.5491
  468MOL0     H63117   6.682   2.962   2.692 -0.3734  1.6310  0.4794
  468MOL0     H63118   6.755   2.804   2.752  2.0553  1.0686  2.2582
  468MOL0     H63119   6.719   2.888   2.980 -1.3055 -0.3368 -2.0122
  468MOL0     H63120   6.675   3.043   2.927  0.3833 -0.6837  0.7099
  468MOL0     H63121   6.953   2.916   2.877  0.2348  0.0443  0.9636
  468MOL0     H63122   6.901   3.064   2.808 -1.0165  0.1404 -0.4158
  468MOL0     H63123   6.904   3.189   3.021  1.1271  1.2479 -1.2461
  468MOL0     H63124   6.901   3.044   3.118  2.7141 -0.4329  1.4842
  468MOL0     H63125   7.117   2.969   3.021 -0.3231 -0.2057 -0.4328
  468MOL0     H63126   7.115   3.122   2.918 -1.2503  0.8341  0.7638
  468MOL0     H63127   7.128   3.149   3.211  2.0240 -1.1087  0.9914
  468MOL0     H63128   7.156   3.265   3.073 -2.7305  0.6906  4.7575
  468MOL0     H63129   7.315   3.000   3.100  2.9171  0.2066  0.9815
  468MOL0     H63130   7.341   3.147   2.995 -1.2039 -0.1388 -0.5837
  468MOL0     H63131   7.326   3.346   3.251  0.8064  0.1654 -1.1863
  468MOL0     H63132   7.526   3.459   3.380 -3.0725  2.0181  2.0949
  468MOL0     H63133   7.478   3.377   3.527  0.2912  1.1393 -0.5054
  468MOL0     H63134   7.755   3.329   3.416 -0.3890 -0.9182 -0.0250
  468MOL0     H63135   7.723   3.473   3.483 -1.0450 -0.1504 -1.5934
  468MOL0     H63136   7.679   3.368   3.707 -0.3738 -1.0348 -0.5837
  468MOL0     H63137   7.837   3.340   3.649 -0.2227  0.8900  2.4559
  468MOL0     H63138   7.700   3.114   3.544 -0.7593 -0.3858 -0.4777
  468MOL0     H63139   7.598   3.154   3.685 -1.7747 -2.8943 -2.7216
  468MOL0     H63140   7.968   3.038   3.877 -3.0181 -0.8127 -1.4602
  468MOL0     H63141   8.200   2.986   3.840 -0.7516 -0.7619  0.6494
  468MOL0     H63142   8.560   3.250   3.495  1.7814  1.2550 -2.1290
  468MOL0     H63143   8.827   3.223   3.488 -2.3864  3.3326 -1.7664
  468MOL0     H63144   8.984   2.836   3.577  3.8069  0.8800  1.1932
  468MOL0     H63145   8.997   2.812   3.399 -0.7017  0.4575 -0.3704
  468MOL0     H63146   9.204   2.960   3.414 -0.7837  2.6791  0.9453
  468MOL0     H63147   9.189   2.967   3.588  0.7081 -0.0556  0.4162
  468MOL0     H63148   9.191   2.690   3.574  2.5853  0.0724  1.0958
  468MOL0     H63149   9.227   2.722   3.414  2.6159 -2.9426  0.7867
  468MOL0     H63150   9.378   2.818   3.673 -0.3295  0.4773 -0.6066
  468MOL0     H63151   9.429   2.876   3.524  0.7688  0.5282  2.2625
  468MOL0     H63152   9.464   2.644   3.441  1.2922 -1.7603  0.4127
  468MOL0     H63153   9.421   2.578   3.594 -0.5868  0.9067 -0.7331
  468MOL0     H63154   9.677   2.623   3.527  2.1130  0.0643  2.1510
  468MOL0     H63155   9.633   2.788   3.555  0.2561 -0.3793 -0.8138
  468MOL0     H63156   9.638   2.559   3.758  2.8393  0.7061  0.0354
  468MOL0     H63157   9.563   2.719   3.797  1.9051  2.1564  0.4342
  468MOL0     H63158   9.839   2.665   3.720 -3.1878 -3.5821 -0.7070
  468MOL0     H63159   9.773   2.830   3.753 -0.6450 -0.4118 -2.1152
  468MOL0     H63160   8.768   2.813   3.413 -1.6391  0.3837 -0.8729
  468MOL0     H63161   8.522   2.837   3.433  0.5155 -1.1662  1.4233
  468MOL0     H63162   8.146   3.073   3.428  1.3296  2.7794  0.6739
  468MOL0     H63163   7.919   3.103   3.458 -1.2314 -1.5747  2.0479
  468MOL0     H63164   6.405   2.589   2.523  0.0266 -0.3447 -1.5211
  468MOL0     H63165   6.189   2.456   2.553  1.3345  0.0861  0.7308
  468MOL0     H63166   5.712   2.592   2.498  0.4799 -1.0658  0.0715
  468MOL0     H63167   5.467   2.535   2.538  0.5123  1.5143  2.3366
  468MOL0     H63168   5.346   2.471   2.858 -1.0168 -0.4573 -1.4637
  468MOL0     H63169   5.374   2.295   2.888 -0.5546  0.5991  0.5944
  468MOL0     H63170   5.166   2.226   2.792  1.2859 -0.8958  0.7197
  468MOL0     H63171   5.143   2.398   2.747  0.8403 -0.6722 -0.8893
  468MOL0     H63172   5.129   2.436   3.001  1.4319 -1.2300  0.6185
  468MOL0     H63173   5.146   2.267   3.020 -2.2983 -1.7917 -1.3403
  468MOL0     H63174   4.926   2.354   3.069 -0.0227 -0.4900 -0.0785
  468MOL0     H63175   4.910   2.421   2.907 -0.6276 -0.3640 -0.4993
  468MOL0     H63176   4.771   2.028   2.842 -1.5612  0.2470  0.7733
  468MOL0     H63177   5.593   2.272   2.845 -0.8566  0.6908 -0.6639
  468MOL0     H63178   5.750   2.330   2.988 -1.3686 -0.2320 -0.7358
  468MOL0     H63179   5.892   2.308   2.906  0.0337 -0.3234  1.6825
  468MOL0     H63180   5.840   2.481   2.948 -1.0053  0.6174 -0.4296
  469MOL0     O63181   5.391   6.979   4.578  0.3302  0.0824 -0.8927
  469MOL0     C63182   5.330   6.973   4.683 -0.3076  0.3061 -0.7784
  469MOL0     O63183   5.385   6.983   4.810  0.3162  0.4362  0.2635
  469MOL0     C63184   5.509   7.035   4.825  0.0399  0.2463  0.6396
  469MOL0     C63185   5.534   7.169   4.855  0.0616  0.2432  0.0345
  469MOL0     C63186   5.662   7.225   4.868  0.2405 -0.6225  0.6697
  469MOL0     C63187   5.772   7.139   4.843  0.7201 -0.0711  0.0934
  469MOL0     O63188   5.898   7.198   4.844  0.1151 -0.0461 -0.1286
  469MOL0     C63189   6.005   7.113   4.887 -0.2058  0.2352  0.0513
  469MOL0     C63190   6.116   7.199   4.935 -0.3063 -0.4201 -0.5506
  469MOL0     C63191   6.152   7.307   4.834 -0.3883  0.5017  0.5843
  469MOL0     C63192   6.299   7.349   4.851 -0.2643  0.6641 -0.2249
  469MOL0     C63193   6.393   7.240   4.802 -0.1634  0.3488 -0.4553
  469MOL0     C63194   6.521   7.290   4.747 -0.3420  0.5766  0.2299
  469MOL0     C63195   6.604   7.170   4.695 -0.1227  0.3528  0.0386
  469MOL0     C63196   6.744   7.213   4.637 -0.5135 -0.0995 -0.4475
  469MOL0     N63197   6.824   7.278   4.738 -0.4515  0.3131 -0.4832
  469MOL0     C63198   6.903   7.198   4.826  0.2043  0.6739  0.2398
  469MOL0     C63199   6.975   7.289   4.893 -0.0563  0.0190  0.2657
  469MOL0     C63200   7.065   7.273   5.010  0.5543  1.0367 -0.5248
  469MOL0     C63201   7.210   7.253   4.964  0.4760 -0.3194  0.4879
  469MOL0     C63202   7.269   7.374   4.909 -0.7860 -1.2179  0.2137
  469MOL0     C63203   7.413   7.358   4.869  0.0131 -0.2524 -0.0320
  469MOL0     O63204   7.501   7.373   4.979 -0.1633 -0.0445 -0.5050
  469MOL0     C63205   7.635   7.356   4.961 -0.1510  0.0571  0.3049
  469MOL0     C63206   7.693   7.281   4.853  0.7439  0.3960  0.4495
  469MOL0     C63207   7.831   7.278   4.839  0.1965  0.3540 -0.0976
  469MOL0     C63208   7.924   7.336   4.927  0.8880  0.1304  0.4776
  469MOL0     C63209   8.064   7.306   4.920  0.4487  0.4035  0.2170
  469MOL0     O63210   8.156   7.391   4.976 -0.5191  0.7903 -0.5429
  469MOL0     C63211   8.285   7.379   4.929 -0.3745 -0.0964 -0.5813
  469MOL0     C63212   8.301   7.397   4.790 -0.5193  0.0286 -0.8471
  469MOL0     C63213   8.426   7.412   4.730 -0.0989  0.1929 -0.0532
  469MOL0     C63214   8.536   7.398   4.807  0.0648  0.8550 -0.4307
  469MOL0     O63215   8.664   7.397   4.755  0.1761  0.4982 -0.1373
  469MOL0     C63216   8.726   7.524   4.750  0.0374  0.0913 -0.2366
  469MOL0     C63217   8.876   7.507   4.731 -0.2558  0.2940 -0.6414
  469MOL0     C63218   8.952   7.641   4.730  0.1740 -0.1167 -0.0067
  469MOL0     C63219   9.099   7.630   4.750  0.3471 -0.4189  0.1540
  469MOL0     C63220   9.167   7.759   4.801 -0.3371  0.8006 -0.2760
  469MOL0     C63221   9.321   7.733   4.822  0.4466 -0.0058 -0.4712
  469MOL0     C63222   9.395   7.839   4.898  0.1590  0.0805  0.2613
  469MOL0     C63223   9.547   7.814   4.875  0.6846  0.1760 -0.1827
  469MOL0    Cl63224   9.622   7.941   4.979 -0.0945 -0.0271  0.0719
  469MOL0     C63225   8.529   7.390   4.954 -0.4129  0.8523  0.2490
  469MOL0     C63226   8.401   7.380   5.014  1.1475 -0.1705 -0.4667
  469MOL0     O63227   8.091   7.193   4.862  0.2415  0.4258 -0.3211
  469MOL0     C63228   7.868   7.411   5.032 -0.0331  0.6205  0.1360
  469MOL0     C63229   7.733   7.415   5.044 -0.7288  0.5258 -0.2227
  469MOL0     N63230   6.953   7.419   4.848  0.1655  0.4334  0.1003
  469MOL0     N63231   6.857   7.414   4.758 -0.9760 -0.7559 -0.5921
  469MOL0     C63232   5.748   7.004   4.810 -0.9015  0.0082  0.0101
  469MOL0     C63233   5.615   6.950   4.807 -0.3962  0.5934 -0.4876
  469MOL0     C63234   5.181   6.955   4.682  0.5819 -1.1133  0.6751
  469MOL0     C63235   5.116   6.946   4.807  1.4065 -0.3121 -0.0765
  469MOL0     C63236   4.977   6.951   4.826  0.1445 -0.3850  0.2999
  469MOL0     C63237   4.898   6.941   4.716 -0.3737 -0.5505  1.1075
  469MOL0     O63238   4.768   6.934   4.720 -0.0551  0.1686 -0.4962
  469MOL0     C63239   4.698   6.839   4.634  0.0767  0.0957 -0.2331
  469MOL0     C63240   4.647   6.722   4.715  0.0921 -0.0332  0.3828
  469MOL0     C63241   4.534   6.744   4.820 -0.6486 -0.2048 -0.0877
  469MOL0     C63242   4.552   6.641   4.935  0.2005  0.2832  0.3599
  469MOL0     C63243   4.443   6.643   5.031  0.4412 -0.4562  0.4373
  469MOL0     C63244   4.367   6.666   5.121 -0.6734 -0.3729 -0.8047
  469MOL0     C63245   4.959   6.946   4.585  0.1756  0.7151 -0.3207
  469MOL0     C63246   5.094   6.965   4.571 -0.2332 -0.0358 -0.2709
  469MOL0     C63247   5.152   6.994   4.430 -0.1511  0.5522  0.3715
  469MOL0     H63248   5.449   7.237   4.859 -0.0709  0.0275  1.7771
  469MOL0     H63249   5.679   7.331   4.886 -1.1207 -0.1257 -0.7701
  469MOL0     H63250   5.979   7.053   4.975 -2.0790 -0.3975 -0.8715
  469MOL0     H63251   6.024   7.040   4.808 -0.6661  1.8442 -1.6215
  469MOL0     H63252   6.203   7.138   4.961 -0.4629 -0.1052  0.8009
  469MOL0     H63253   6.089   7.248   5.029 -4.6920  0.9206 -2.2670
  469MOL0     H63254   6.089   7.394   4.857 -2.7351 -0.0866 -2.8117
  469MOL0     H63255   6.125   7.281   4.731 -0.2691 -0.5630  0.8094
  469MOL0     H63256   6.309   7.442   4.793 -3.1874  0.9017 -0.5317
  469MOL0     H63257   6.326   7.367   4.955  0.7576 -1.6591 -0.0276
  469MOL0     H63258   6.407   7.167   4.882 -4.7572 -1.5850 -1.1403
  469MOL0     H63259   6.345   7.180   4.724  1.0034  0.0624 -0.9785
  469MOL0     H63260   6.517   7.354   4.658  0.4785 -1.1340 -1.0995
  469MOL0     H63261   6.568   7.349   4.826 -0.9487 -1.6203  2.3436
  469MOL0     H63262   6.546   7.121   4.616  0.6522  0.6106 -0.7066
  469MOL0     H63263   6.623   7.096   4.774  1.3065  0.1380 -0.4620
  469MOL0     H63264   6.799   7.130   4.592 -0.6463 -0.9928  0.9789
  469MOL0     H63265   6.735   7.286   4.556 -1.4250 -0.7947 -0.9888
  469MOL0     H63266   6.891   7.091   4.835 -3.8720  1.0598  1.5649
  469MOL0     H63267   7.062   7.362   5.074 -1.9431  0.2338  0.5777
  469MOL0     H63268   7.028   7.190   5.072  0.4322  1.1531 -0.4414
  469MOL0     H63269   7.261   7.229   5.058  0.1183 -0.4514  0.6492
  469MOL0     H63270   7.222   7.166   4.899 -2.4614 -0.9225  0.6463
  469MOL0     H63271   7.276   7.451   4.987  4.9104 -1.3033  0.2136
  469MOL0     H63272   7.214   7.410   4.822  0.1477 -2.6701 -1.0455
  469MOL0     H63273   7.439   7.427   4.788  0.6530  2.3016  2.1864
  469MOL0     H63274   7.423   7.262   4.817 -0.7261 -0.5076  0.2810
  469MOL0     H63275   7.627   7.235   4.779  1.8405 -0.1898 -0.1851
  469MOL0     H63276   7.861   7.228   4.747  1.0225 -0.6120  0.6704
  469MOL0     H63277   8.218   7.404   4.721  0.0855 -0.4027 -1.6453
  469MOL0     H63278   8.433   7.428   4.623  0.8223 -2.5013 -0.4805
  469MOL0     H63279   8.689   7.568   4.656 -1.6174  0.8926  0.7466
  469MOL0     H63280   8.698   7.585   4.836 -1.3892 -0.6329 -0.1468
  469MOL0     H63281   8.922   7.451   4.813  0.4377  0.8333 -0.6528
  469MOL0     H63282   8.888   7.447   4.640  1.9095 -0.3391 -0.0098
  469MOL0     H63283   8.923   7.706   4.646  0.1171  0.9850  0.8454
  469MOL0     H63284   8.908   7.689   4.818 -1.2939  0.9611 -1.2598
  469MOL0     H63285   9.154   7.592   4.663  0.5279 -1.0859  0.5501
  469MOL0     H63286   9.121   7.543   4.813  1.3781 -1.7436 -1.8983
  469MOL0     H63287   9.112   7.774   4.895 -5.0575 -4.3619 -1.6438
  469MOL0     H63288   9.153   7.839   4.728 -0.1480 -0.4538 -1.7382
  469MOL0     H63289   9.346   7.634   4.862 -2.3432 -0.5079  0.1819
  469MOL0     H63290   9.346   7.731   4.715 -2.5695 -1.9892 -1.2805
  469MOL0     H63291   9.378   7.840   5.006 -0.0553  1.4032  0.2375
  469MOL0     H63292   9.360   7.938   4.866  0.0523  0.5167  1.6497
  469MOL0     H63293   9.574   7.709   4.892 -1.3954 -0.5660 -1.1455
  469MOL0     H63294   9.569   7.839   4.771  0.0641  0.0818 -0.3404
  469MOL0     H63295   8.613   7.379   5.022 -0.5664  1.4682  0.5503
  469MOL0     H63296   8.396   7.378   5.122  1.8777  2.0049 -0.3576
  469MOL0     H63297   7.942   7.458   5.097 -0.2315 -0.9976  1.6378
  469MOL0     H63298   7.697   7.476   5.126 -0.5668 -0.2948  0.4783
  469MOL0     H63299   5.827   6.936   4.782 -0.7129  0.2086  0.0507
  469MOL0     H63300   5.599   6.848   4.774  1.0913  1.1735 -3.3904
  469MOL0     H63301   5.170   6.945   4.901 -0.5155 -0.2466  1.0871
  469MOL0     H63302   4.933   6.961   4.925 -0.9557  2.8317 -0.3659
  469MOL0     H63303   4.754   6.805   4.547  1.4090  0.7492  0.3480
  469MOL0     H63304   4.621   6.901   4.587  1.1677  1.7005  0.0321
  469MOL0     H63305   4.735   6.686   4.768  0.8689  0.6725 -0.3869
  469MOL0     H63306   4.620   6.645   4.642 -1.4227 -0.6180  1.4896
  469MOL0     H63307   4.431   6.739   4.782 -1.2173  0.1506  1.3510
  469MOL0     H63308   4.549   6.845   4.860  0.8058 -0.0984 -0.7998
  469MOL0     H63309   4.552   6.539   4.896 -2.3734  0.1702  0.4895
  469MOL0     H63310   4.647   6.663   4.985 -0.9028 -0.8651  3.2264
  469MOL0     H63311   4.316   6.686   5.213  3.9042  0.3432  1.9230
  469MOL0     H63312   4.896   6.944   4.496 -1.4358  0.0310  0.7792
  469MOL0     H63313   5.219   6.916   4.394 -0.8756  0.1022 -0.0291
  469MOL0     H63314   5.067   7.004   4.362 -0.3334 -3.3769 -0.1789
  469MOL0     H63315   5.203   7.091   4.424  0.4258  0.2262 -0.0093
  470MOL0     O63316   0.193   9.766   3.228 -0.4096 -0.1025  0.2776
  470MOL0     C63317   0.152   9.707   3.323 -0.2126 -0.2625 -0.1426
  470MOL0     O63318   0.213   9.710   3.443 -0.0615 -0.2297 -0.0017
  470MOL0     C63319   0.332   9.786   3.453 -0.0161  0.0504 -0.2155
  470MOL0     C63320   0.322   9.928   3.437  1.0244 -1.0948 -0.0233
  470MOL0     C63321   0.438  10.007   3.444  0.4702  0.3332 -0.7396
  470MOL0     C63322   0.557   9.946   3.483  0.3332  0.1097 -0.0912
  470MOL0     O63323   0.670  10.024   3.507 -0.0739  0.6124  0.1199
  470MOL0     C63324   0.788   9.982   3.434  0.0764 -0.0658  0.2623
  470MOL0     C63325   0.891  10.095   3.445  0.4526 -0.5579 -0.3370
  470MOL0     C63326   0.944  10.110   3.592  0.5106 -0.4744  0.9510
  470MOL0     C63327   1.077  10.176   3.595 -0.0596 -0.4279  0.0893
  470MOL0     C63328   1.134  10.147   3.738  0.2290  0.6179  0.0347
  470MOL0     C63329   1.287  10.175   3.757  0.3920 -0.0981  0.5007
  470MOL0     C63330   1.368  10.080   3.675  0.4147 -0.0764  0.3888
  470MOL0     C63331   1.448  10.158   3.559  0.8706 -0.0899  0.0531
  470MOL0     N63332   1.566  10.222   3.605 -0.0860 -0.1744 -0.1958
  470MOL0     C63333   1.607  10.213   3.736 -0.7400  0.1574 -0.0908
  470MOL0     C63334   1.738  10.240   3.736 -0.5279 -0.0889  0.4139
  470MOL0     C63335   1.830  10.256   3.853 -0.1385 -0.9237  0.1951
  470MOL0     C63336   1.973  10.258   3.816 -0.8990 -1.2562 -0.8498
  470MOL0     C63337   2.062  10.218   3.936 -0.3147  0.6240 -0.2933
  470MOL0     C63338   2.206  10.234   3.902 -0.7568  0.5591  0.5031
  470MOL0     O63339   2.277  10.190   4.020  0.2427  0.0026 -0.3747
  470MOL0     C63340   2.417  10.196   4.021  0.6940  0.4551 -0.0474
  470MOL0     C63341   2.486  10.129   4.118 -0.4470 -0.4696 -0.4425
  470MOL0     C63342   2.621  10.141   4.129  0.4283  0.0250 -0.3857
  470MOL0     C63343   2.700  10.208   4.035 -0.5844  0.7332 -0.1329
  470MOL0     C63344   2.857  10.225   4.049  0.7338  0.3467 -0.1639
  470MOL0     O63345   2.907  10.195   4.174 -0.0709  0.2048  0.0322
  470MOL0     C63346   3.045  10.193   4.198  0.5452  0.5420  0.5047
  470MOL0     C63347   3.080  10.204   4.329 -0.4394  0.5602  0.3286
  470MOL0     C63348   3.208  10.223   4.367 -1.0331 -1.1272 -0.5354
  470MOL0     C63349   3.316  10.228   4.277  1.1883  0.4869 -0.2299
  470MOL0     O63350   3.445  10.238   4.318 -0.0220 -0.0372 -0.1099
  470MOL0     C63351   3.553  10.196   4.232 -0.3074 -0.0382  0.9243
  470MOL0     C63352   3.685  10.195   4.321  0.1465 -0.7060  1.1618
  470MOL0     C63353   3.755  10.326   4.310 -0.1553 -0.0356 -0.6722
  470MOL0     C63354   3.904  10.308   4.353  0.4698  0.7738  0.0951
  470MOL0     C63355   3.983  10.435   4.338  0.9485 -0.5997 -0.7364
  470MOL0     C63356   4.003  10.489   4.199  0.4810 -0.0455 -0.9556
  470MOL0     C63357   4.087  10.618   4.192  0.4822 -0.3362  1.1287
  470MOL0     C63358   4.239  10.593   4.212 -0.0864 -0.1459  0.5803
  470MOL0    Cl63359   4.290  10.538   4.049  0.0001  0.2353 -0.5231
  470MOL0     C63360   3.280  10.210   4.136 -0.5386  0.7566 -0.7890
  470MOL0     C63361   3.147  10.196   4.097  0.4629 -0.0997 -0.0072
  470MOL0     O63362   2.915  10.270   3.953 -0.6091  0.0767 -0.2359
  470MOL0     C63363   2.630  10.271   3.932  0.1776  0.0788  0.5285
  470MOL0     C63364   2.493  10.280   3.934  0.0492  0.3186  0.2071
  470MOL0     N63365   1.772  10.226   3.600  0.0152  0.5822 -0.6234
  470MOL0     N63366   1.677  10.228   3.526 -0.5582 -0.1529  0.2912
  470MOL0     C63367   0.563   9.811   3.505  0.2248 -0.1268  0.8302
  470MOL0     C63368   0.453   9.734   3.492  0.5206  0.9749  0.4435
  470MOL0     C63369   0.037   9.612   3.322 -0.6984 -0.1449  0.1002
  470MOL0     C63370   0.024   9.515   3.426 -0.1239  0.0692 -0.5118
  470MOL0     C63371  -0.072   9.418   3.429  0.1653  0.5432  0.5315
  470MOL0     C63372  -0.173   9.419   3.331  0.1230 -0.9245 -0.2907
  470MOL0     O63373  -0.265   9.325   3.323 -0.9682 -0.0614  0.1947
  470MOL0     C63374  -0.249   9.196   3.389  0.4743 -0.1458 -0.4581
  470MOL0     C63375  -0.343   9.193   3.510  0.9692 -0.5363  0.9721
  470MOL0     C63376  -0.495   9.227   3.481 -0.2562  0.4854 -0.3131
  470MOL0     C63377  -0.575   9.187   3.598 -0.1853  0.1962  0.2423
  470MOL0     C63378  -0.724   9.191   3.574 -0.6444  0.4878  0.0344
  470MOL0     C63379  -0.839   9.183   3.542 -0.5257  0.6237 -0.7839
  470MOL0     C63380  -0.172   9.523   3.240  0.1595 -0.0147  0.5916
  470MOL0     C63381  -0.073   9.622   3.233  0.9829  0.2022  0.2450
  470MOL0     C63382  -0.085   9.729   3.131  0.2567 -0.8545  0.0679
  470MOL0     H63383   0.227   9.978   3.420  0.6521 -1.6214  0.4508
  470MOL0     H63384   0.427  10.115   3.438 -1.7648  0.2639  1.0493
  470MOL0     H63385   0.830   9.889   3.473 -0.1837 -1.4716 -2.5525
  470MOL0     H63386   0.767   9.965   3.328  0.5835  4.0971 -0.6893
  470MOL0     H63387   0.838  10.185   3.413 -0.2092 -1.0849 -0.7298
  470MOL0     H63388   0.978  10.071   3.383  0.9139 -3.2906  1.2295
  470MOL0     H63389   0.955  10.016   3.646  0.2086  0.4409  2.6605
  470MOL0     H63390   0.873  10.169   3.650 -0.8759 -1.6837  0.5456
  470MOL0     H63391   1.148  10.142   3.519  0.9112  1.9523 -0.1446
  470MOL0     H63392   1.072  10.284   3.583  0.0917 -0.1931  1.9657
  470MOL0     H63393   1.071  10.192   3.815 -0.1098  0.0821  0.0785
  470MOL0     H63394   1.128  10.041   3.763  2.7718  0.5149  0.4809
  470MOL0     H63395   1.310  10.279   3.733 -3.9885  0.9960  0.1566
  470MOL0     H63396   1.303  10.167   3.865 -3.3358 -2.0652  1.0786
  470MOL0     H63397   1.301  10.021   3.612 -0.1556 -0.8372  1.6761
  470MOL0     H63398   1.430  10.019   3.741 -0.2945  0.7862  1.8977
  470MOL0     H63399   1.469  10.085   3.480  0.9900 -1.3623  1.2301
  470MOL0     H63400   1.384  10.237   3.520 -1.6027 -2.5558 -1.2037
  470MOL0     H63401   1.548  10.204   3.827  1.2688 -0.0643  1.2717
  470MOL0     H63402   1.795  10.336   3.919 -0.9084 -0.2036 -1.0477
  470MOL0     H63403   1.819  10.169   3.918  0.1660 -1.2774 -0.2128
  470MOL0     H63404   2.006  10.212   3.722  0.3658  0.7641 -1.4660
  470MOL0     H63405   1.988  10.364   3.793  0.2230 -1.6896 -2.3434
  470MOL0     H63406   2.035  10.118   3.972 -0.3166  0.8387  0.3145
  470MOL0     H63407   2.043  10.288   4.018 -2.4341 -2.0062  1.6427
  470MOL0     H63408   2.238  10.337   3.885  0.6747 -0.3493 -3.6228
  470MOL0     H63409   2.229  10.181   3.809 -0.5263  1.2513  0.1629
  470MOL0     H63410   2.428  10.075   4.192 -1.1893  0.2851 -0.4590
  470MOL0     H63411   2.665  10.106   4.221  0.3177 -1.8344 -0.9996
  470MOL0     H63412   3.005  10.201   4.407 -1.6784  0.5498 -0.8340
  470MOL0     H63413   3.250  10.235   4.466  1.5250 -0.0351 -1.6552
  470MOL0     H63414   3.530  10.095   4.197  1.2536  0.2936 -1.3349
  470MOL0     H63415   3.562  10.256   4.141 -2.9157 -0.2312  0.4583
  470MOL0     H63416   3.668  10.174   4.427  1.4989  0.3782  1.6129
  470MOL0     H63417   3.748  10.120   4.272 -2.5159 -1.6769 -1.0620
  470MOL0     H63418   3.738  10.372   4.213 -0.9573  3.3963  0.9377
  470MOL0     H63419   3.698  10.394   4.374  0.3061  1.3791 -1.7252
  470MOL0     H63420   3.947  10.236   4.282  0.8603  3.4917 -2.6641
  470MOL0     H63421   3.909  10.262   4.452 -1.1377 -1.2242 -0.6756
  470MOL0     H63422   4.079  10.420   4.388 -0.7327 -1.6502  2.4798
  470MOL0     H63423   3.928  10.509   4.397  1.6130  1.3235 -2.4200
  470MOL0     H63424   4.066  10.410   4.157  1.6529  0.8948 -1.0178
  470MOL0     H63425   3.912  10.500   4.140  1.3150 -0.6131 -2.4117
  470MOL0     H63426   4.057  10.690   4.269  0.6760  3.1796 -1.8028
  470MOL0     H63427   4.067  10.661   4.094  1.7448  0.1837  1.0799
  470MOL0     H63428   4.299  10.675   4.254  0.8811 -1.5382  2.0372
  470MOL0     H63429   4.256  10.512   4.283  0.1844 -0.9999 -0.4288
  470MOL0     H63430   3.352  10.225   4.056  0.5758 -3.9650 -0.9565
  470MOL0     H63431   3.124  10.197   3.991  0.0060 -2.2172  0.0116
  470MOL0     H63432   2.681  10.331   3.858 -1.6123  1.1493  0.1226
  470MOL0     H63433   2.452  10.339   3.853  1.1916  0.4164 -0.3212
  470MOL0     H63434   0.658   9.764   3.531  0.7610 -0.1371 -1.0485
  470MOL0     H63435   0.460   9.629   3.518  1.8419  1.1397  0.8345
  470MOL0     H63436   0.100   9.512   3.503 -0.3612 -1.0543 -0.3047
  470MOL0     H63437  -0.067   9.336   3.500  1.0261  0.4453  0.3757
  470MOL0     H63438  -0.148   9.164   3.416  0.5564  0.2624 -0.2824
  470MOL0     H63439  -0.295   9.124   3.320  1.1261  3.0909 -4.6576
  470MOL0     H63440  -0.307   9.260   3.589  3.4901  0.4637 -0.8718
  470MOL0     H63441  -0.333   9.092   3.550 -0.6014 -0.9495  0.3717
  470MOL0     H63442  -0.534   9.178   3.391 -4.0358  1.7339  0.4679
  470MOL0     H63443  -0.514   9.334   3.478 -1.2882  0.3001 -2.1324
  470MOL0     H63444  -0.546   9.086   3.630  0.6723  0.2309 -0.3928
  470MOL0     H63445  -0.551   9.255   3.681 -5.2274 -0.4752  2.5993
  470MOL0     H63446  -0.938   9.152   3.517 -0.0115 -0.5174 -1.5408
  470MOL0     H63447  -0.248   9.534   3.164  1.1852 -2.6714 -0.9723
  470MOL0     H63448   0.004   9.735   3.068  0.3795  3.0274  0.3600
  470MOL0     H63449  -0.173   9.730   3.065  0.2066 -1.3957  0.1272
  470MOL0     H63450  -0.104   9.811   3.201 -1.4319 -1.4124  0.3189
  471MOL0     O63451   6.984   9.415   0.009 -0.5130 -0.5117  0.4228
  471MOL0     C63452   6.952   9.397  -0.107 -0.3031 -0.4458 -0.2263
  471MOL0     O63453   7.006   9.297  -0.192 -0.1663  0.1010 -0.5168
  471MOL0     C63454   7.122   9.235  -0.147  0.1549 -0.8358 -0.2228
  471MOL0     C63455   7.237   9.283  -0.076  0.0742 -0.2680  0.8216
  471MOL0     C63456   7.352   9.206  -0.060 -0.1117 -0.3468 -0.6592
  471MOL0     C63457   7.365   9.081  -0.117  1.0529  0.1169  0.2262
  471MOL0     O63458   7.485   9.012  -0.108  0.2849 -0.4165  0.1773
  471MOL0     C63459   7.543   8.976  -0.229 -0.0186  0.0346  0.2701
  471MOL0     C63460   7.695   8.963  -0.221  0.8575 -0.3810 -0.7041
  471MOL0     C63461   7.763   8.968  -0.353  0.0346 -0.9284  0.0079
  471MOL0     C63462   7.904   8.898  -0.346  0.6420  0.3437  0.3425
  471MOL0     C63463   7.891   8.749  -0.296  0.0398  0.3375  1.3294
  471MOL0     C63464   8.035   8.688  -0.310 -0.1282 -0.7062  0.0741
  471MOL0     C63465   8.069   8.662  -0.454  0.5007 -0.5969  0.0660
  471MOL0     C63466   8.189   8.748  -0.512  0.4496 -0.6473  0.4565
  471MOL0     N63467   8.311   8.704  -0.453  0.1380 -0.0182 -0.0948
  471MOL0     C63468   8.398   8.606  -0.498 -0.3628  0.0259 -0.0499
  471MOL0     C63469   8.517   8.628  -0.441 -0.7090 -0.1380 -0.3805
  471MOL0     C63470   8.633   8.540  -0.448 -0.6687  0.2415 -0.0789
  471MOL0     C63471   8.770   8.596  -0.482 -0.5740  0.1002 -0.1943
  471MOL0     C63472   8.829   8.677  -0.373  0.1232  0.2611 -0.3320
  471MOL0     C63473   8.973   8.723  -0.401 -0.3004  0.1546  0.3362
  471MOL0     O63474   9.056   8.613  -0.428  0.4261  0.3711  0.1465
  471MOL0     C63475   9.186   8.639  -0.414 -0.2828  0.4182  0.5008
  471MOL0     C63476   9.260   8.550  -0.341  0.0386  0.8158 -0.9449
  471MOL0     C63477   9.397   8.568  -0.300  0.5783 -0.9849 -0.6208
  471MOL0     C63478   9.454   8.695  -0.329  0.5828 -0.0329  0.0729
  471MOL0     C63479   9.585   8.730  -0.286  0.5997 -0.6194  0.4531
  471MOL0     O63480   9.617   8.855  -0.275 -0.0885  0.2880 -0.1913
  471MOL0     C63481   9.730   8.907  -0.219 -0.0320  0.9476 -0.0424
  471MOL0     C63482   9.748   9.045  -0.227  0.0537 -0.9165 -0.0074
  471MOL0     C63483   9.857   9.102  -0.164 -0.5032  0.4114 -1.0292
  471MOL0     C63484   9.945   9.021  -0.089  0.4993 -0.4044 -0.5976
  471MOL0     O63485  10.036   9.090  -0.020 -0.3047 -0.1553 -0.0091
  471MOL0     C63486  10.134   9.027   0.067  1.0531 -0.0638 -0.3182
  471MOL0     C63487  10.237   9.128   0.087 -0.2869 -0.4401 -0.8269
  471MOL0     C63488  10.372   9.065   0.103 -0.6449  0.3383 -0.8479
  471MOL0     C63489  10.443   9.155   0.215  0.7350  0.0086  0.4488
  471MOL0     C63490  10.577   9.085   0.259 -0.4428  0.5440 -0.5074
  471MOL0     C63491  10.678   9.081   0.142  0.0300 -0.4192  0.3601
  471MOL0     C63492  10.724   9.228   0.101 -0.5122 -0.1019  0.0405
  471MOL0     C63493  10.796   9.308   0.218 -0.0638  0.0934  0.4484
  471MOL0    Cl63494  10.960   9.231   0.237  0.1877 -0.6093  0.2890
  471MOL0     C63495   9.939   8.882  -0.094  0.4159  0.7230 -0.3477
  471MOL0     C63496   9.828   8.827  -0.148 -0.1793  0.3901  0.4293
  471MOL0     O63497   9.650   8.632  -0.238 -0.8725 -0.4444 -0.0249
  471MOL0     C63498   9.374   8.791  -0.403 -0.3198 -0.1517  0.2716
  471MOL0     C63499   9.241   8.762  -0.443  0.2218 -0.1784 -1.1081
  471MOL0     N63500   8.494   8.729  -0.349 -0.3834  0.8075 -0.0451
  471MOL0     N63501   8.376   8.776  -0.365 -0.1306 -0.1544 -1.0137
  471MOL0     C63502   7.255   9.035  -0.188 -0.1234  0.0546 -0.2747
  471MOL0     C63503   7.137   9.106  -0.200 -0.5821 -0.6154 -0.3691
  471MOL0     C63504   6.844   9.475  -0.170 -0.3429 -0.4580  0.0332
  471MOL0     C63505   6.819   9.464  -0.309  0.1386  1.2728  0.2222
  471MOL0     C63506   6.727   9.541  -0.374  0.9485 -0.4227  0.2874
  471MOL0     C63507   6.660   9.643  -0.309  0.1988 -1.0945 -0.0673
  471MOL0     O63508   6.574   9.735  -0.381 -0.0841 -0.2012 -0.3042
  471MOL0     C63509   6.507   9.844  -0.324  0.9856 -0.0209 -0.1944
  471MOL0     C63510   6.383   9.793  -0.241  0.2231 -0.2915  0.1524
  471MOL0     C63511   6.291   9.894  -0.164 -0.7302  0.3390 -0.0403
  471MOL0     C63512   6.188   9.825  -0.080 -0.1121 -0.5828 -0.5964
  471MOL0     C63513   6.136   9.919   0.023 -0.2632 -0.8896 -0.1447
  471MOL0     C63514   6.105  10.005   0.102  0.4597 -1.0691  0.1960
  471MOL0     C63515   6.690   9.667  -0.175  0.1853  0.4324  0.2529
  471MOL0     C63516   6.777   9.584  -0.100  0.4195 -0.1502  0.0458
  471MOL0     C63517   6.796   9.618   0.042  0.7733 -0.1913 -0.6424
  471MOL0     H63518   7.234   9.378  -0.023  1.9322 -0.0133  0.5209
  471MOL0     H63519   7.436   9.251  -0.007  1.0362 -0.5088 -2.2647
  471MOL0     H63520   7.502   8.885  -0.273 -1.2423  0.2003  1.0256
  471MOL0     H63521   7.524   9.063  -0.294 -2.5654 -0.2527  0.5110
  471MOL0     H63522   7.716   8.864  -0.180  0.5911 -0.8498 -1.6669
  471MOL0     H63523   7.729   9.040  -0.151  0.5317 -1.0055  0.1631
  471MOL0     H63524   7.789   9.073  -0.371  1.8956 -1.5986 -1.5979
  471MOL0     H63525   7.698   8.935  -0.435 -1.5051  3.2611 -0.6630
  471MOL0     H63526   7.946   8.900  -0.447 -0.0943 -0.2768  0.0220
  471MOL0     H63527   7.962   8.963  -0.279  0.4735  0.1153  0.7084
  471MOL0     H63528   7.848   8.739  -0.196 -1.0402  0.5399  0.8996
  471MOL0     H63529   7.819   8.693  -0.357  0.6861  1.1284 -0.2345
  471MOL0     H63530   8.116   8.743  -0.261  0.3895 -0.3340 -1.1452
  471MOL0     H63531   8.036   8.592  -0.260  0.0823  0.5292  2.5761
  471MOL0     H63532   7.984   8.687  -0.518  0.2398  0.9079  0.9424
  471MOL0     H63533   8.085   8.558  -0.481 -0.9058 -0.4710 -1.3642
  471MOL0     H63534   8.201   8.729  -0.619  0.9642 -2.8932  0.8731
  471MOL0     H63535   8.183   8.855  -0.490  2.0148  0.0279 -1.9627
  471MOL0     H63536   8.370   8.537  -0.577 -1.8968  1.0943 -0.4803
  471MOL0     H63537   8.644   8.487  -0.353 -0.7609  2.7513  1.3945
  471MOL0     H63538   8.601   8.470  -0.526 -0.6745  0.5890 -0.3920
  471MOL0     H63539   8.842   8.522  -0.519  0.4809  0.7290  0.5728
  471MOL0     H63540   8.763   8.666  -0.565  0.3033  0.2842 -0.1242
  471MOL0     H63541   8.828   8.630  -0.274  0.4950  1.7595  0.4024
  471MOL0     H63542   8.762   8.763  -0.372  0.2340  0.3462  0.3239
  471MOL0     H63543   9.014   8.775  -0.313  2.0546  0.6156 -0.9313
  471MOL0     H63544   8.958   8.800  -0.477 -1.2615  1.8049  2.1002
  471MOL0     H63545   9.200   8.465  -0.309 -2.7737  2.4506 -1.5045
  471MOL0     H63546   9.458   8.499  -0.243 -0.1869 -0.2914  1.1045
  471MOL0     H63547   9.679   9.104  -0.286  0.2544  0.7229  1.3056
  471MOL0     H63548   9.872   9.210  -0.166 -0.7294  0.4947  0.7280
  471MOL0     H63549  10.090   9.001   0.163  0.6455  1.6515 -0.0259
  471MOL0     H63550  10.182   8.947   0.009  0.9475 -1.4031  1.3715
  471MOL0     H63551  10.248   9.188  -0.003  0.4073 -0.8863 -1.0438
  471MOL0     H63552  10.204   9.193   0.169  2.3632  0.9283 -0.7241
  471MOL0     H63553  10.368   8.966   0.150  4.8286 -0.0082 -0.4903
  471MOL0     H63554  10.436   9.062   0.015 -1.5184  0.6917 -1.5111
  471MOL0     H63555  10.380   9.146   0.305  0.3622 -2.9114 -0.0030
  471MOL0     H63556  10.455   9.258   0.182  2.9567 -0.1421  0.6781
  471MOL0     H63557  10.566   8.980   0.290  0.9181  0.5312  0.0157
  471MOL0     H63558  10.614   9.133   0.350 -4.2893 -0.4916  1.8175
  471MOL0     H63559  10.762   9.026   0.184 -1.9297 -3.5647  0.5119
  471MOL0     H63560  10.640   9.013   0.065 -0.7142 -0.9310  1.1539
  471MOL0     H63561  10.639   9.292   0.077  0.6694  0.5811 -2.6300
  471MOL0     H63562  10.792   9.224   0.016 -0.4507 -0.9287  0.1163
  471MOL0     H63563  10.803   9.414   0.190  1.6545 -0.7509 -2.8494
  471MOL0     H63564  10.740   9.295   0.311 -1.6654  1.3395 -0.2922
  471MOL0     H63565  10.002   8.808  -0.046 -2.3559 -0.8505  1.1691
  471MOL0     H63566   9.823   8.723  -0.118 -1.0776  0.2155 -0.2859
  471MOL0     H63567   9.416   8.886  -0.435 -0.0628  0.0413  1.1597
  471MOL0     H63568   9.177   8.832  -0.496 -2.2640 -1.2821  0.2386
  471MOL0     H63569   7.254   8.930  -0.215  0.3369  0.6771 -2.9303
  471MOL0     H63570   7.056   9.059  -0.254 -1.8785  0.9405  0.1333
  471MOL0     H63571   6.870   9.389  -0.369  0.2895  0.4149  1.3807
  471MOL0     H63572   6.696   9.520  -0.476 -0.6937  3.4910 -0.2113
  471MOL0     H63573   6.479   9.916  -0.401  2.8556  1.2976  0.2791
  471MOL0     H63574   6.566   9.910  -0.259  0.7723  0.7945 -0.8128
  471MOL0     H63575   6.411   9.728  -0.158 -1.0693 -1.7451 -0.4957
  471MOL0     H63576   6.320   9.730  -0.306 -0.9023  0.9695 -0.0121
  471MOL0     H63577   6.244   9.962  -0.236  2.7663  1.4118 -1.5297
  471MOL0     H63578   6.372   9.954  -0.121  1.5955 -0.8396 -2.4581
  471MOL0     H63579   6.115   9.791  -0.154  0.9193 -0.0360 -1.8981
  471MOL0     H63580   6.232   9.735  -0.036 -1.2357 -1.1677 -0.6513
  471MOL0     H63581   6.071  10.079   0.172  0.9919 -0.8580  0.2391
  471MOL0     H63582   6.639   9.743  -0.116 -0.6743 -1.0227  1.4497
  471MOL0     H63583   6.776   9.535   0.111 -1.8934  1.1918  0.3781
  471MOL0     H63584   6.899   9.649   0.063  0.3237 -0.3274  2.1151
  471MOL0     H63585   6.730   9.703   0.064 -0.4522  0.0739 -4.4818
  472MOL0     O63586   9.403   6.996  10.131 -0.5617 -0.2351  0.3769
  472MOL0     C63587   9.453   7.028  10.236 -0.1280 -0.9225  0.0124
  472MOL0     O63588   9.393   7.094  10.339  0.3427  0.1843  0.2376
  472MOL0     C63589   9.266   7.146  10.322 -0.3171  0.1234  0.2642
  472MOL0     C63590   9.168   7.079  10.383  0.3289 -0.4104 -0.3592
  472MOL0     C63591   9.036   7.132  10.398 -0.4479 -0.1211  0.9879
  472MOL0     C63592   9.008   7.259  10.353  0.3013 -0.2390  0.8315
  472MOL0     O63593   8.884   7.324  10.363 -0.1636  0.4491  0.3400
  472MOL0     C63594   8.777   7.246  10.307 -0.2140  0.4555  0.3307
  472MOL0     C63595   8.663   7.348  10.297 -0.8164 -0.1269 -0.1218
  472MOL0     C63596   8.671   7.436  10.168 -0.2059  0.2388  0.6143
  472MOL0     C63597   8.741   7.570  10.195 -0.4423  0.3020 -0.2970
  472MOL0     C63598   8.825   7.610  10.076 -0.0330  0.2701 -0.2852
  472MOL0     C63599   8.886   7.747  10.115  0.1363  0.3880 -0.3580
  472MOL0     C63600   8.973   7.797   9.992 -0.1197 -0.3713 -0.3836
  472MOL0     C63601   9.021   7.939  10.019  1.0509 -0.3322  0.5787
  472MOL0     N63602   9.117   7.965   9.913  1.0586  1.0456  0.7668
  472MOL0     C63603   9.244   8.002   9.949 -0.2207 -0.0167  0.1938
  472MOL0     C63604   9.318   8.011   9.838 -0.6750 -0.4397  0.5807
  472MOL0     C63605   9.467   8.023   9.827 -0.7076  0.3546 -0.1668
  472MOL0     C63606   9.543   7.888   9.820  0.5161 -0.6227  0.4421
  472MOL0     C63607   9.568   7.822   9.955  0.6848  0.7213 -0.3191
  472MOL0     C63608   9.694   7.863  10.027 -0.1668 -0.4178  0.5181
  472MOL0     O63609   9.809   7.832   9.944  0.1412 -0.0392 -0.0746
  472MOL0     C63610   9.933   7.866   9.996  0.1180  0.2189  0.5412
  472MOL0     C63611  10.028   7.793   9.920 -0.2699  0.7980 -0.1603
  472MOL0     C63612  10.158   7.770   9.979  0.3734 -0.7659  0.8102
  472MOL0     C63613  10.189   7.812  10.114  0.1386  0.5781  0.2015
  472MOL0     C63614  10.327   7.780  10.168  0.3410  0.3725  0.3791
  472MOL0     O63615  10.343   7.809  10.295 -0.6049 -0.1422 -0.3189
  472MOL0     C63616  10.454   7.773  10.366  0.1884 -0.4318 -0.5977
  472MOL0     C63617  10.426   7.752  10.508  0.4025  0.8661  0.4260
  472MOL0     C63618  10.531   7.705  10.586 -0.0007 -0.1902  0.1936
  472MOL0     C63619  10.660   7.687  10.539 -0.3523 -0.3173 -0.1612
  472MOL0     O63620  10.765   7.640  10.610  0.5929  0.2568 -0.4662
  472MOL0     C63621  10.747   7.511  10.662  0.1929  0.0445 -0.2178
  472MOL0     C63622  10.887   7.452  10.682  0.5728  0.1040  0.3560
  472MOL0     C63623  10.880   7.304  10.718  1.0369  0.5077 -0.1525
  472MOL0     C63624  11.011   7.251  10.767  0.1068  0.3887  0.5056
  472MOL0     C63625  11.010   7.095  10.781 -0.4971 -0.3981 -0.0258
  472MOL0     C63626  11.153   7.036  10.762  0.4856  0.4788  0.3135
  472MOL0     C63627  11.179   7.017  10.601 -0.0028  0.3655  0.9638
  472MOL0     C63628  11.312   6.959  10.567  0.7080 -0.3139 -1.0168
  472MOL0    Cl63629  11.314   6.911  10.400  0.3114 -0.1001 -0.4782
  472MOL0     C63630  10.683   7.737  10.412  0.6108 -0.4242  0.0803
  472MOL0     C63631  10.588   7.775  10.321  0.6774 -0.3249  0.0135
  472MOL0     O63632  10.413   7.744  10.086  0.2799 -0.2368 -0.7124
  472MOL0     C63633  10.090   7.882  10.177  0.0607  0.4294 -0.2348
  472MOL0     C63634   9.965   7.910  10.124 -0.4947 -0.2923  0.9527
  472MOL0     N63635   9.227   7.984   9.734  0.1497  0.0074  0.0701
  472MOL0     N63636   9.108   7.959   9.776 -0.5502  0.8040 -0.1434
  472MOL0     C63637   9.116   7.333  10.294 -0.3946 -0.9127  0.1901
  472MOL0     C63638   9.244   7.276  10.290  0.1915  0.6864  0.2074
  472MOL0     C63639   9.607   7.025  10.258 -0.1677 -0.1877 -0.4278
  472MOL0     C63640   9.655   7.082  10.383  0.7006 -0.1446  1.3570
  472MOL0     C63641   9.789   7.088  10.411  0.0476  0.7327  0.3310
  472MOL0     C63642   9.878   7.024  10.317  0.6798 -0.6894 -0.3488
  472MOL0     O63643  10.011   7.008  10.352  0.0929 -0.2578 -0.9417
  472MOL0     C63644  10.090   7.129  10.334  0.2813  0.1605  0.2128
  472MOL0     C63645  10.229   7.098  10.296 -0.2697 -0.3798 -0.2235
  472MOL0     C63646  10.307   7.025  10.401 -0.4033 -0.0679 -0.2601
  472MOL0     C63647  10.461   7.034  10.388 -0.4283  0.1417  0.7814
  472MOL0     C63648  10.513   7.021  10.257 -0.4823 -0.0333 -0.0618
  472MOL0     C63649  10.573   7.025  10.152 -0.1432 -0.4039  0.5347
  472MOL0     C63650   9.829   6.964  10.206  0.4723 -0.1048 -0.1296
  472MOL0     C63651   9.701   6.958  10.169  0.0620 -0.3740 -0.4352
  472MOL0     C63652   9.667   6.903  10.033 -0.3149 -0.0304  0.2540
  472MOL0     H63653   9.197   6.989  10.437  0.8377 -0.1418 -0.1786
  472MOL0     H63654   8.955   7.064  10.424 -0.3479 -2.2259 -3.2786
  472MOL0     H63655   8.793   7.208  10.206  1.9206  2.4840 -0.1893
  472MOL0     H63656   8.755   7.170  10.382  4.0729  2.4842  4.1941
  472MOL0     H63657   8.656   7.407  10.389 -1.2404  3.2914 -2.1971
  472MOL0     H63658   8.566   7.300  10.284 -0.9305  0.0185  0.1788
  472MOL0     H63659   8.570   7.447  10.129  0.5548 -1.0594 -2.0258
  472MOL0     H63660   8.720   7.380  10.087 -1.9373  0.6674 -0.7766
  472MOL0     H63661   8.667   7.647  10.219 -1.8412 -0.9721 -0.3906
  472MOL0     H63662   8.803   7.564  10.285  0.1005 -1.9220 -0.7645
  472MOL0     H63663   8.909   7.540  10.065 -1.4601 -1.5569 -0.0744
  472MOL0     H63664   8.777   7.616   9.978  1.8451 -1.1052 -1.3668
  472MOL0     H63665   8.811   7.822  10.144 -0.8905 -0.5768 -0.4824
  472MOL0     H63666   8.941   7.736  10.209 -3.1513  2.9622  2.1254
  472MOL0     H63667   8.928   7.790   9.892  0.0643 -1.1590 -0.4212
  472MOL0     H63668   9.050   7.720   9.983 -1.7119 -2.0055 -0.7736
  472MOL0     H63669   8.948   8.020  10.019  0.5775 -0.7570  0.4066
  472MOL0     H63670   9.070   7.957  10.115  2.4239  0.5757 -0.2672
  472MOL0     H63671   9.278   8.000  10.052 -1.3931 -2.0721  0.6054
  472MOL0     H63672   9.492   8.070   9.731 -1.7103 -0.1324 -0.6831
  472MOL0     H63673   9.507   8.081   9.910  1.2025 -3.3148  1.7321
  472MOL0     H63674   9.489   7.818   9.756 -0.3637  1.8024 -1.6138
  472MOL0     H63675   9.627   7.912   9.755 -1.0292 -1.1356 -1.8601
  472MOL0     H63676   9.568   7.715   9.931 -0.0820  0.6786 -0.1763
  472MOL0     H63677   9.485   7.838  10.025  0.4839  0.7032 -0.5519
  472MOL0     H63678   9.696   7.802  10.118 -3.1895  0.1955  1.1134
  472MOL0     H63679   9.706   7.969  10.049  0.1707 -0.1478 -0.8726
  472MOL0     H63680  10.019   7.755   9.818  4.1140  0.3671 -0.5923
  472MOL0     H63681  10.223   7.706   9.920  0.1599  0.4613 -0.8367
  472MOL0     H63682  10.331   7.762  10.558 -0.2824 -0.5119 -0.5295
  472MOL0     H63683  10.494   7.678  10.685  1.2592  1.1579  1.0794
  472MOL0     H63684  10.672   7.515  10.741  1.2251  1.7932  0.7357
  472MOL0     H63685  10.703   7.446  10.586  0.9299 -1.2062  0.3938
  472MOL0     H63686  10.935   7.453  10.584  0.5564  1.4827  0.3489
  472MOL0     H63687  10.943   7.509  10.757 -0.6603  0.0283  1.3770
  472MOL0     H63688  10.808   7.292  10.800  0.9476  0.6011 -0.2183
  472MOL0     H63689  10.846   7.254  10.627 -2.1726 -0.1308  1.2416
  472MOL0     H63690  11.026   7.294  10.866 -3.5577  0.0635  1.3303
  472MOL0     H63691  11.091   7.276  10.697 -0.8290 -1.9640 -1.5864
  472MOL0     H63692  10.954   7.034  10.708  0.4724 -1.6303  0.2158
  472MOL0     H63693  10.967   7.073  10.879  0.0158 -0.9354  0.0881
  472MOL0     H63694  11.223   7.105  10.811 -0.2427  2.1573 -0.9221
  472MOL0     H63695  11.158   6.935  10.803 -3.1400 -0.3960 -1.0522
  472MOL0     H63696  11.174   7.114  10.550 -0.2410  0.3253  0.9107
  472MOL0     H63697  11.101   6.946  10.572 -1.1874  1.3557  1.6398
  472MOL0     H63698  11.393   7.027  10.594 -0.3476  0.4621  0.2958
  472MOL0     H63699  11.324   6.869  10.628  2.0224 -0.2619 -1.1676
  472MOL0     H63700  10.790   7.740  10.392  1.0926  2.2204  2.3334
  472MOL0     H63701  10.607   7.799  10.218  1.2240  0.5055  0.3023
  472MOL0     H63702  10.115   7.921  10.275  2.0771 -2.2405  0.4305
  472MOL0     H63703   9.895   7.978  10.172 -2.4467 -2.8389  1.9747
  472MOL0     H63704   9.095   7.437  10.273  1.0751 -0.5194  0.6005
  472MOL0     H63705   9.333   7.331  10.261  0.2924  1.9194  2.6096
  472MOL0     H63706   9.583   7.125  10.452 -0.0043  0.9379 -0.0180
  472MOL0     H63707   9.827   7.114  10.509  1.1526  1.5815 -0.2914
  472MOL0     H63708  10.090   7.194  10.422  0.8773  0.7632 -0.2165
  472MOL0     H63709  10.037   7.189  10.259  2.0560 -1.5447 -2.5765
  472MOL0     H63710  10.274   7.193  10.266 -3.6853  1.3728 -0.2957
  472MOL0     H63711  10.226   7.039  10.204  2.5537 -0.2656 -0.4987
  472MOL0     H63712  10.277   6.920  10.389  2.6680 -1.0420 -0.2838
  472MOL0     H63713  10.291   7.064  10.502  3.2084  0.3349  0.2677
  472MOL0     H63714  10.481   7.133  10.431  0.9300  0.3546 -0.2680
  472MOL0     H63715  10.512   6.962  10.451  0.0979  0.0929  0.3087
  472MOL0     H63716  10.631   7.020  10.062 -3.5307 -0.5472 -1.8330
  472MOL0     H63717   9.905   6.914  10.146 -1.2759 -2.0869 -0.8093
  472MOL0     H63718   9.759   6.872   9.983 -0.0987  1.8321 -0.5666
  472MOL0     H63719   9.598   6.818  10.043 -0.7610  0.1624 -1.0827
  472MOL0     H63720   9.629   6.990   9.979 -1.0440 -1.3867 -1.5130
  473MOL0     O63721   8.646   4.051   8.140 -0.0020 -0.0420 -0.3404
  473MOL0     C63722   8.570   4.135   8.086  0.0100  0.0652 -0.8239
  473MOL0     O63723   8.604   4.237   8.002 -0.4954  0.3377  1.0176
  473MOL0     C63724   8.739   4.275   7.992 -0.0901 -0.0379 -0.4664
  473MOL0     C63725   8.842   4.187   7.956  0.3371  0.1425  0.6328
  473MOL0     C63726   8.977   4.231   7.946 -0.0894 -0.0609  0.2296
  473MOL0     C63727   9.001   4.367   7.966  0.8596 -0.4265 -0.3286
  473MOL0     O63728   9.128   4.407   7.950  0.1186  0.4721  0.2103
  473MOL0     C63729   9.139   4.541   7.905 -0.2668 -0.1945  0.8526
  473MOL0     C63730   9.287   4.585   7.906  0.2365 -0.6651  0.3654
  473MOL0     C63731   9.371   4.499   7.810  0.4370  0.0484 -0.1563
  473MOL0     C63732   9.512   4.564   7.787  0.4276  0.3082 -0.4523
  473MOL0     C63733   9.597   4.509   7.673 -0.0075  1.0586 -0.8102
  473MOL0     C63734   9.603   4.347   7.681 -0.1530 -0.7305 -0.5037
  473MOL0     C63735   9.703   4.290   7.570 -0.1314 -1.0679  0.2854
  473MOL0     C63736   9.850   4.311   7.593 -0.3609 -0.1495  0.0417
  473MOL0     N63737   9.922   4.422   7.531  0.3017 -0.0295 -0.7319
  473MOL0     C63738   9.972   4.426   7.400  0.3352  0.1981 -0.2240
  473MOL0     C63739  10.073   4.512   7.408  0.6241  0.2141  0.3402
  473MOL0     C63740  10.167   4.524   7.298  0.6362 -0.2185  0.4722
  473MOL0     C63741  10.270   4.411   7.302 -0.1317  0.0004 -0.7365
  473MOL0     C63742  10.336   4.392   7.433 -0.8036 -0.2783 -0.4928
  473MOL0     C63743  10.472   4.330   7.429  0.5783  0.0853  1.4495
  473MOL0     O63744  10.569   4.422   7.365 -0.2870 -0.0806 -0.5082
  473MOL0     C63745  10.706   4.391   7.394  0.1537  0.7444  0.2403
  473MOL0     C63746  10.782   4.488   7.461 -0.4535 -0.8653  0.2626
  473MOL0     C63747  10.918   4.465   7.484  0.1014 -0.4787 -0.2069
  473MOL0     C63748  10.985   4.356   7.432  1.0249  0.0882 -0.4052
  473MOL0     C63749  11.125   4.328   7.463 -0.3947  0.3686 -0.0381
  473MOL0     O63750  11.181   4.219   7.401  0.4512 -0.3203 -0.2641
  473MOL0     C63751  11.316   4.228   7.386  0.7202 -0.3877 -1.1538
  473MOL0     C63752  11.391   4.339   7.336  0.7489 -0.1601 -1.0160
  473MOL0     C63753  11.530   4.340   7.342 -0.4029 -0.1848 -0.1245
  473MOL0     C63754  11.602   4.235   7.393 -0.0312  0.6561 -0.4121
  473MOL0     O63755  11.737   4.246   7.406  0.2184 -0.0556 -0.0698
  473MOL0     C63756  11.825   4.132   7.387 -0.1678 -0.5878  0.3626
  473MOL0     C63757  11.967   4.173   7.360  0.8058  0.0074 -1.1849
  473MOL0     C63758  12.056   4.181   7.487 -0.6668 -0.7209 -0.8688
  473MOL0     C63759  12.089   4.329   7.531 -0.0614  0.1080  0.0714
  473MOL0     C63760  12.205   4.324   7.627  0.9508 -1.6397 -0.4789
  473MOL0     C63761  12.349   4.300   7.570  1.2308  0.7805 -0.8163
  473MOL0     C63762  12.445   4.320   7.686  0.6008 -0.2309 -0.1509
  473MOL0     C63763  12.582   4.272   7.648  0.3080  0.1865 -0.4507
  473MOL0    Cl63764  12.702   4.352   7.763 -0.1853  0.6736  0.2720
  473MOL0     C63765  11.532   4.115   7.433  0.6527  0.0073 -0.1037
  473MOL0     C63766  11.387   4.113   7.429 -0.1510 -0.5986 -0.5258
  473MOL0     O63767  11.184   4.414   7.519 -0.8904 -0.7995 -0.8549
  473MOL0     C63768  10.913   4.264   7.358 -0.1354 -0.1577 -0.7571
  473MOL0     C63769  10.773   4.282   7.335  0.1020 -0.4733 -0.7427
  473MOL0     N63770  10.071   4.572   7.532 -0.4445 -0.0877  0.1404
  473MOL0     N63771   9.981   4.526   7.604 -0.0040  0.5162  0.5074
  473MOL0     C63772   8.889   4.454   7.996 -0.5215  0.2951 -0.1756
  473MOL0     C63773   8.756   4.414   8.003 -0.2489 -0.4210 -0.7701
  473MOL0     C63774   8.424   4.133   8.092 -0.0991  0.5388 -0.3155
  473MOL0     C63775   8.344   4.189   7.988 -0.0111  0.6746 -0.3369
  473MOL0     C63776   8.204   4.190   7.994 -0.9054 -0.0361  0.4793
  473MOL0     C63777   8.141   4.131   8.095  0.1111  0.3189  0.0908
  473MOL0     O63778   8.012   4.137   8.096  0.3415  0.1561 -0.1450
  473MOL0     C63779   7.943   4.015   8.121  0.1404  0.4736  0.7324
  473MOL0     C63780   7.799   4.025   8.063 -0.2055  0.0865  0.4172
  473MOL0     C63781   7.725   4.120   8.154 -0.1815  0.0896 -0.3784
  473MOL0     C63782   7.581   4.135   8.119  0.2499 -0.4524  0.9344
  473MOL0     C63783   7.519   4.252   8.175  0.3562 -0.8075 -0.2623
  473MOL0     C63784   7.464   4.353   8.215 -0.0097 -1.7395  0.1515
  473MOL0     C63785   8.208   4.066   8.193 -0.0471  0.6844  0.8087
  473MOL0     C63786   8.345   4.056   8.191  0.1566 -0.8011 -1.2746
  473MOL0     C63787   8.408   3.980   8.314 -0.1045 -0.3929 -0.1302
  473MOL0     H63788   8.842   4.080   7.940  0.2233  0.3471 -0.8240
  473MOL0     H63789   9.062   4.166   7.930  1.2382  1.1822  1.9258
  473MOL0     H63790   9.101   4.537   7.802  3.6322  1.1420 -0.8693
  473MOL0     H63791   9.085   4.609   7.970 -0.1513  0.0009  0.7439
  473MOL0     H63792   9.337   4.593   8.003  3.2592 -2.0460 -0.9664
  473MOL0     H63793   9.278   4.684   7.861 -1.6882 -0.7008  0.5594
  473MOL0     H63794   9.329   4.509   7.709  1.3723  2.3423 -0.3652
  473MOL0     H63795   9.382   4.396   7.846  0.9756  0.2735  0.3285
  473MOL0     H63796   9.496   4.669   7.760  1.3166  0.3279 -0.9385
  473MOL0     H63797   9.568   4.562   7.881  2.9123  1.2249 -1.8141
  473MOL0     H63798   9.570   4.553   7.577  0.0569  4.3533  0.5191
  473MOL0     H63799   9.699   4.542   7.697  0.9761 -2.3692  0.2064
  473MOL0     H63800   9.622   4.311   7.783 -0.9402  1.9520  0.6847
  473MOL0     H63801   9.503   4.310   7.659 -0.1013 -0.7561 -0.6969
  473MOL0     H63802   9.665   4.329   7.475  0.5382 -1.0669  0.0175
  473MOL0     H63803   9.686   4.182   7.571 -0.0491 -1.1157  2.4591
  473MOL0     H63804   9.867   4.308   7.701  0.0480 -2.4873 -0.0437
  473MOL0     H63805   9.902   4.224   7.551  0.9682  0.8379 -0.4277
  473MOL0     H63806   9.948   4.360   7.317 -0.1936  0.9914 -0.7236
  473MOL0     H63807  10.112   4.527   7.204  0.8446 -0.1954  0.3504
  473MOL0     H63808  10.209   4.625   7.311  0.4004 -0.1727  0.9169
  473MOL0     H63809  10.220   4.315   7.283 -0.3357  0.0747 -0.5622
  473MOL0     H63810  10.344   4.437   7.225  0.5227  0.9012  0.1803
  473MOL0     H63811  10.281   4.328   7.502  0.6952  0.1294  1.1714
  473MOL0     H63812  10.344   4.494   7.474  3.1019 -0.9117  0.8179
  473MOL0     H63813  10.457   4.241   7.368 -2.5237  0.1678  1.9267
  473MOL0     H63814  10.495   4.301   7.532  1.0388  0.6617  1.5156
  473MOL0     H63815  10.727   4.571   7.504 -0.7047 -0.9202  0.0462
  473MOL0     H63816  10.967   4.536   7.549 -1.2566  0.8982 -0.6146
  473MOL0     H63817  11.335   4.429   7.312  1.3013  1.5624  3.2710
  473MOL0     H63818  11.580   4.431   7.310 -0.6638 -0.1195 -0.3590
  473MOL0     H63819  11.815   4.057   7.466 -2.2027  1.7725  2.5567
  473MOL0     H63820  11.792   4.085   7.294  1.0826 -0.2772 -0.2507
  473MOL0     H63821  12.009   4.105   7.285 -1.9430  0.4233 -3.2643
  473MOL0     H63822  11.963   4.273   7.316  3.2051 -0.0424 -1.6699
  473MOL0     H63823  12.016   4.130   7.574  2.0779  0.8623  1.5108
  473MOL0     H63824  12.149   4.128   7.464 -1.8486 -1.8601 -3.4681
  473MOL0     H63825  11.996   4.373   7.569 -0.3716 -1.4575  1.2259
  473MOL0     H63826  12.118   4.380   7.439  0.7386 -0.5526 -0.0548
  473MOL0     H63827  12.183   4.244   7.699  0.6828 -1.3735 -0.2582
  473MOL0     H63828  12.203   4.413   7.692  0.8821 -1.9976  0.0182
  473MOL0     H63829  12.351   4.200   7.526 -2.7612  0.3049 -0.2402
  473MOL0     H63830  12.363   4.358   7.478 -1.0919  2.2130 -0.3493
  473MOL0     H63831  12.403   4.282   7.780  0.5438 -0.6484 -0.3411
  473MOL0     H63832  12.447   4.429   7.686 -1.9525 -0.1160 -0.1721
  473MOL0     H63833  12.580   4.164   7.668 -3.2579  0.3013  0.5058
  473MOL0     H63834  12.600   4.289   7.542 -1.6509 -0.2132 -0.8915
  473MOL0     H63835  11.592   4.036   7.476 -0.5952 -0.5876  0.5847
  473MOL0     H63836  11.333   4.027   7.467  0.6613 -0.9635 -0.1671
  473MOL0     H63837  10.963   4.181   7.310  1.0019 -0.1308  0.3374
  473MOL0     H63838  10.708   4.214   7.281 -1.3237  0.0732  0.2338
  473MOL0     H63839   8.884   4.560   8.019  0.0245  0.0066  1.4195
  473MOL0     H63840   8.681   4.482   8.043  0.8628 -0.5222  1.6768
  473MOL0     H63841   8.382   4.250   7.906  0.9780  1.7206  0.8575
  473MOL0     H63842   8.156   4.227   7.903  1.7440 -3.7302 -2.7718
  473MOL0     H63843   7.942   3.996   8.229  1.1825  1.3144  0.9118
  473MOL0     H63844   7.997   3.930   8.078 -1.3560 -0.5884  0.8853
  473MOL0     H63845   7.749   3.928   8.078  0.5822 -0.6570 -1.4427
  473MOL0     H63846   7.790   4.057   7.959  1.9808  0.4360  0.3059
  473MOL0     H63847   7.770   4.218   8.136  1.7578 -0.3247  1.8288
  473MOL0     H63848   7.731   4.081   8.256 -4.6352 -1.6415 -0.5323
  473MOL0     H63849   7.573   4.151   8.011  0.8208 -1.6740  0.6990
  473MOL0     H63850   7.512   4.054   8.145  1.0633 -1.4399  0.0408
  473MOL0     H63851   7.415   4.445   8.241  0.5861 -1.2310 -0.4812
  473MOL0     H63852   8.158   4.021   8.278 -0.8850 -3.9328 -1.7780
  473MOL0     H63853   8.326   3.928   8.364  0.4646 -1.8462 -0.6617
  473MOL0     H63854   8.485   3.914   8.275  0.1857 -0.1498  0.0288
  473MOL0     H63855   8.463   4.042   8.386 -1.3609 -0.7775  1.2219
  474MOL0     O63856   2.674  10.252   0.475  1.2435 -0.1747 -0.3058
  474MOL0     C63857   2.666  10.309   0.584  0.3111 -0.5221 -0.4058
  474MOL0     O63858   2.759  10.397   0.631 -0.1751 -0.3525 -0.4484
  474MOL0     C63859   2.812  10.477   0.534 -0.6608 -0.0054  0.3836
  474MOL0     C63860   2.751  10.593   0.473 -0.3584  0.5565  0.4536
  474MOL0     C63861   2.817  10.651   0.369 -0.4742 -0.0426  0.0850
  474MOL0     C63862   2.944  10.612   0.327 -0.4205 -0.2055 -0.0112
  474MOL0     O63863   3.015  10.689   0.244  0.0323 -0.3138  0.2201
  474MOL0     C63864   2.953  10.753   0.133  0.5968  0.6229 -0.3465
  474MOL0     C63865   3.049  10.795   0.023  0.1457  0.3308 -0.6429
  474MOL0     C63866   3.165  10.692   0.004 -0.9207  0.3530  0.2475
  474MOL0     C63867   3.287  10.746  -0.079  0.4242  0.6460 -0.9217
  474MOL0     C63868   3.241  10.788  -0.216  0.4179  0.2860 -0.2160
  474MOL0     C63869   3.362  10.798  -0.315 -0.7495  0.2780  0.1164
  474MOL0     C63870   3.339  10.859  -0.462 -0.4928 -0.4226  0.3736
  474MOL0     C63871   3.228  10.788  -0.540 -0.1309 -0.1769  0.2419
  474MOL0     N63872   3.258  10.647  -0.561  0.1454  0.0992 -0.0601
  474MOL0     C63873   3.366  10.595  -0.621  0.1582 -0.6807 -0.0821
  474MOL0     C63874   3.369  10.460  -0.594 -0.6041 -0.1608  0.7296
  474MOL0     C63875   3.469  10.359  -0.629 -0.2564 -0.2763 -0.4452
  474MOL0     C63876   3.594  10.357  -0.550 -0.5136  0.0300 -0.2877
  474MOL0     C63877   3.589  10.280  -0.414  0.2308  0.1231  0.2589
  474MOL0     C63878   3.727  10.258  -0.350  0.1973 -0.0938 -0.2624
  474MOL0     O63879   3.825  10.201  -0.443 -0.0233 -0.0782 -0.6373
  474MOL0     C63880   3.958  10.181  -0.414 -0.9236 -1.0661  0.0944
  474MOL0     C63881   4.041  10.136  -0.513  0.8305 -0.5574 -0.1071
  474MOL0     C63882   4.182  10.122  -0.482  0.7905 -0.1819 -0.9671
  474MOL0     C63883   4.232  10.144  -0.350 -0.3757 -0.0361 -0.1731
  474MOL0     C63884   4.368  10.119  -0.319 -0.2414 -0.6221  0.2257
  474MOL0     O63885   4.411   9.999  -0.350  0.1211  0.2640  0.9934
  474MOL0     C63886   4.548   9.988  -0.348 -0.7205  0.5403  0.0044
  474MOL0     C63887   4.631  10.078  -0.421 -0.4556  1.0880  0.0297
  474MOL0     C63888   4.772  10.060  -0.406  0.3457  0.4807 -0.2733
  474MOL0     C63889   4.825   9.955  -0.334  0.1305 -0.4688 -0.6022
  474MOL0     O63890   4.953   9.931  -0.314  0.9549  0.2108  0.1282
  474MOL0     C63891   5.043  10.032  -0.341  0.0131  0.3654 -0.2707
  474MOL0     C63892   5.175  10.008  -0.265  0.6334  0.0450 -0.3565
  474MOL0     C63893   5.235   9.871  -0.308  0.5865  0.0251  0.1982
  474MOL0     C63894   5.365   9.838  -0.226 -0.3158  0.1551  0.7061
  474MOL0     C63895   5.431   9.708  -0.263 -0.2978 -0.5415  0.7785
  474MOL0     C63896   5.551   9.668  -0.179  0.5137  0.8009  0.2016
  474MOL0     C63897   5.636   9.784  -0.149 -0.3391 -0.6929  0.1966
  474MOL0     C63898   5.771   9.740  -0.096 -0.4669  0.2362  0.5858
  474MOL0    Cl63899   5.756   9.644   0.062 -0.0923  0.2411 -0.1546
  474MOL0     C63900   4.741   9.864  -0.273 -0.4749  0.1306  0.6597
  474MOL0     C63901   4.599   9.876  -0.284 -0.9561 -0.4858 -0.6494
  474MOL0     O63902   4.425  10.200  -0.249  0.6885 -0.2176  0.4690
  474MOL0     C63903   4.146  10.206  -0.258 -0.1109  0.4590  0.3672
  474MOL0     C63904   4.015  10.230  -0.295  0.8168 -0.8210  0.5020
  474MOL0     N63905   3.269  10.433  -0.507 -0.0832  0.0844  0.0204
  474MOL0     N63906   3.198  10.547  -0.482  0.5596  0.3449  0.8754
  474MOL0     C63907   3.004  10.506   0.383 -0.2368  0.0794  0.3358
  474MOL0     C63908   2.940  10.439   0.485  0.3658 -0.3257  0.1705
  474MOL0     C63909   2.551  10.272   0.673 -0.6941  0.0603  0.4577
  474MOL0     C63910   2.536  10.357   0.786 -0.3963  0.3082  0.3733
  474MOL0     C63911   2.422  10.353   0.858  0.2850  0.0535 -0.4137
  474MOL0     C63912   2.318  10.267   0.835 -0.0075  0.2046 -0.1433
  474MOL0     O63913   2.206  10.273   0.913 -0.7160  0.8100 -0.2626
  474MOL0     C63914   2.119  10.155   0.901  0.0634  0.5041  0.0240
  474MOL0     C63915   2.017  10.167   1.013 -0.5885 -0.4133  0.3338
  474MOL0     C63916   1.896  10.252   0.984  0.5973  0.2570 -0.0565
  474MOL0     C63917   1.827  10.276   1.114 -0.5681 -0.4078  0.1223
  474MOL0     C63918   1.711  10.352   1.091 -1.1804 -0.7318 -0.2326
  474MOL0     C63919   1.619  10.420   1.051  1.1282  0.7427  0.0690
  474MOL0     C63920   2.345  10.165   0.734 -0.7939  0.1098 -0.2103
  474MOL0     C63921   2.456  10.172   0.648  0.2259  0.0525 -0.1949
  474MOL0     C63922   2.476  10.050   0.553  0.0643  0.2670 -0.4079
  474MOL0     H63923   2.653  10.631   0.496 -1.2536 -0.6122 -1.1775
  474MOL0     H63924   2.780  10.750   0.345 -1.9763 -0.9479 -1.6256
  474MOL0     H63925   2.881  10.682   0.091  1.3776 -0.7149  0.4844
  474MOL0     H63926   2.896  10.840   0.168 -1.0581  0.2860 -2.0673
  474MOL0     H63927   3.097  10.889   0.052  0.6881  0.3494 -1.5676
  474MOL0     H63928   2.989  10.808  -0.067 -1.8730 -2.4833  0.1420
  474MOL0     H63929   3.120  10.604  -0.045 -2.4259 -0.5523  3.0268
  474MOL0     H63930   3.212  10.654   0.095  2.3369 -0.0553 -1.4506
  474MOL0     H63931   3.339  10.826  -0.026  1.7654 -0.0801 -1.0928
  474MOL0     H63932   3.355  10.662  -0.095  1.1733  1.4391 -2.0438
  474MOL0     H63933   3.173  10.712  -0.254 -0.9089  0.8870  0.8429
  474MOL0     H63934   3.181  10.880  -0.211 -3.2956 -1.9724  0.6970
  474MOL0     H63935   3.437  10.864  -0.271 -0.8490 -0.4334  1.3790
  474MOL0     H63936   3.407  10.699  -0.323 -2.4649 -0.4561 -1.3818
  474MOL0     H63937   3.425  10.848  -0.528 -1.1948 -0.1032 -0.6180
  474MOL0     H63938   3.324  10.967  -0.453  2.2967  0.0913 -0.4005
  474MOL0     H63939   3.133  10.799  -0.486 -0.1632  1.1136 -0.0486
  474MOL0     H63940   3.218  10.833  -0.639 -1.8267 -0.1520  0.4021
  474MOL0     H63941   3.427  10.657  -0.686 -1.8284  1.6861  0.1981
  474MOL0     H63942   3.413  10.265  -0.622 -3.2438  0.7622 -5.4205
  474MOL0     H63943   3.491  10.365  -0.736 -2.2838  2.3937 -0.8045
  474MOL0     H63944   3.678  10.320  -0.609  2.2658 -0.3974  3.5787
  474MOL0     H63945   3.619  10.461  -0.530 -1.4971 -0.0435  1.6831
  474MOL0     H63946   3.532  10.189  -0.431 -0.0796  0.5621 -1.2446
  474MOL0     H63947   3.538  10.339  -0.337 -0.6235 -1.3444  0.8596
  474MOL0     H63948   3.719  10.180  -0.273  2.4588  0.7425  0.9208
  474MOL0     H63949   3.768  10.347  -0.302  1.4766 -0.4175 -0.6981
  474MOL0     H63950   4.002  10.100  -0.608 -0.3091 -0.6441  0.3770
  474MOL0     H63951   4.252  10.075  -0.550  0.9080 -2.2740  0.5060
  474MOL0     H63952   4.594  10.161  -0.480 -0.8740  1.9896  1.5159
  474MOL0     H63953   4.838  10.134  -0.450 -1.3113  1.0900 -1.8743
  474MOL0     H63954   5.052  10.056  -0.447  0.0736  1.8040  0.0480
  474MOL0     H63955   5.008  10.124  -0.294  1.9327  1.0705 -0.1426
  474MOL0     H63956   5.240  10.092  -0.292  0.4660 -0.0671 -1.1375
  474MOL0     H63957   5.165  10.009  -0.156  0.7199  1.6155 -0.3490
  474MOL0     H63958   5.157   9.798  -0.286 -1.4493  1.8555 -0.5691
  474MOL0     H63959   5.274   9.881  -0.410  0.2479 -1.1578 -0.0599
  474MOL0     H63960   5.350   9.839  -0.117 -3.1299 -0.5553  0.3945
  474MOL0     H63961   5.431   9.924  -0.239  0.5900 -0.7271 -0.8340
  474MOL0     H63962   5.464   9.711  -0.367 -0.5288  0.1241  0.7199
  474MOL0     H63963   5.356   9.628  -0.268 -2.0089  1.0535 -1.4193
  474MOL0     H63964   5.521   9.621  -0.085  2.5786  0.0099  0.5178
  474MOL0     H63965   5.605   9.591  -0.235  2.4766  2.3700 -0.2013
  474MOL0     H63966   5.595   9.855  -0.077  1.7277 -0.7392  1.4996
  474MOL0     H63967   5.657   9.841  -0.241  2.4672 -0.8598  0.6319
  474MOL0     H63968   5.819   9.675  -0.170  0.3207  1.0046  0.4075
  474MOL0     H63969   5.842   9.822  -0.083 -1.2977  1.0158  0.3043
  474MOL0     H63970   4.783   9.780  -0.220 -1.8177 -2.8111 -2.5372
  474MOL0     H63971   4.526   9.811  -0.237 -0.2106  0.1414  1.4704
  474MOL0     H63972   4.194  10.237  -0.166  1.9054  1.2810 -0.8883
  474MOL0     H63973   3.954  10.269  -0.214  0.2608  0.3724 -0.4644
  474MOL0     H63974   3.105  10.473   0.362 -0.7565  0.0063 -2.5412
  474MOL0     H63975   2.993  10.352   0.522  3.7693  1.1152 -0.9026
  474MOL0     H63976   2.607  10.434   0.815 -1.1071  1.5980 -1.1491
  474MOL0     H63977   2.412  10.429   0.935 -1.3454 -0.6281  0.0823
  474MOL0     H63978   2.170  10.059   0.916  0.9282  1.1723  1.5428
  474MOL0     H63979   2.074  10.141   0.803 -2.0321 -2.4564  1.2752
  474MOL0     H63980   2.060  10.208   1.105 -2.6512 -3.0470  2.6491
  474MOL0     H63981   1.983  10.065   1.034  0.7622 -0.7965  0.7485
  474MOL0     H63982   1.829  10.202   0.913 -2.4490 -0.3721  3.0028
  474MOL0     H63983   1.937  10.345   0.941 -0.9351  1.8470  1.7267
  474MOL0     H63984   1.793  10.180   1.153 -2.0204 -1.2710 -2.9655
  474MOL0     H63985   1.892  10.312   1.195 -0.9121  3.2822 -1.0252
  474MOL0     H63986   1.545  10.493   1.025 -0.4832 -0.8000  0.1215
  474MOL0     H63987   2.262  10.097   0.722 -1.3265  0.5722  0.7218
  474MOL0     H63988   2.561   9.992   0.589  0.8592  1.6950  0.1190
  474MOL0     H63989   2.380   9.998   0.562 -0.7334  2.0181  3.3190
  474MOL0     H63990   2.499  10.079   0.450 -1.2342 -2.8739 -1.7074
  475MOL0     O63991   6.743   0.783   7.539 -0.3728  0.0527  0.0362
  475MOL0     C63992   6.728   0.750   7.418  1.2380 -0.4282 -0.9136
  475MOL0     O63993   6.807   0.668   7.348 -0.0779  0.0040  1.0150
  475MOL0     C63994   6.898   0.585   7.415  1.4772  0.1126  0.2571
  475MOL0     C63995   7.034   0.569   7.380  0.0799 -0.4955 -0.0407
  475MOL0     C63996   7.112   0.468   7.428  0.8178  0.0987 -0.3016
  475MOL0     C63997   7.068   0.377   7.519 -0.2072 -0.3413 -0.3171
  475MOL0     O63998   7.150   0.272   7.539 -0.4672 -0.3372  0.5015
  475MOL0     C63999   7.147   0.172   7.435  0.3706  0.6773 -0.4125
  475MOL0     C64000   7.185   0.034   7.490 -0.9272 -0.6695  0.8579
  475MOL0     C64001   7.333   0.034   7.537 -0.0153  0.3195  0.7372
  475MOL0     C64002   7.429   0.089   7.430 -0.3810  0.9475 -0.1152
  475MOL0     C64003   7.577   0.072   7.470 -0.4687 -0.2849 -0.8414
  475MOL0     C64004   7.670   0.157   7.385 -0.0158  0.2795  0.1050
  475MOL0     C64005   7.649   0.310   7.405  0.2384  0.4302  0.5708
  475MOL0     C64006   7.783   0.375   7.411 -0.4037 -0.0099  0.5963
  475MOL0     N64007   7.848   0.381   7.281  0.2910 -0.4655  0.2198
  475MOL0     C64008   7.796   0.441   7.166 -0.4616 -0.6393  1.1495
  475MOL0     C64009   7.897   0.448   7.073  0.3720  0.5111 -0.6483
  475MOL0     C64010   7.887   0.482   6.926  0.7925  0.2503  0.1798
  475MOL0     C64011   8.031   0.463   6.860 -0.6873  0.3669  0.9511
  475MOL0     C64012   8.037   0.557   6.731 -0.3031 -0.5552 -1.1372
  475MOL0     C64013   8.079   0.703   6.772  0.2901  0.2377 -0.3276
  475MOL0     O64014   8.104   0.794   6.666 -0.0358  1.3267 -0.2305
  475MOL0     C64015   7.997   0.844   6.592 -0.1174 -0.5752 -0.2224
  475MOL0     C64016   8.030   0.937   6.491  0.3668 -0.2633 -0.0662
  475MOL0     C64017   7.936   1.016   6.432 -0.1487  0.3791 -0.1230
  475MOL0     C64018   7.796   0.987   6.445  0.1689 -0.3324  0.0721
  475MOL0     C64019   7.697   1.071   6.376  0.7622 -0.0926 -0.0009
  475MOL0     O64020   7.563   1.042   6.410  0.4604  0.4481  0.2992
  475MOL0     C64021   7.450   1.098   6.353  0.3360  1.2667 -0.2436
  475MOL0     C64022   7.455   1.144   6.220  0.2369 -0.4903  0.2168
  475MOL0     C64023   7.341   1.197   6.163  0.2538 -0.7597 -0.8365
  475MOL0     C64024   7.211   1.195   6.233 -0.3037 -0.5493 -0.1251
  475MOL0     O64025   7.093   1.248   6.186 -0.4582 -0.4571  0.5203
  475MOL0     C64026   7.102   1.271   6.045  0.0654  1.0488 -0.5042
  475MOL0     C64027   6.966   1.314   5.999  1.1488  0.4860 -0.0539
  475MOL0     C64028   6.856   1.211   6.009 -0.9539  0.1819 -0.1807
  475MOL0     C64029   6.737   1.236   5.911 -0.9543  0.1414 -0.8386
  475MOL0     C64030   6.626   1.144   5.971 -0.2486  0.4865 -0.2057
  475MOL0     C64031   6.525   1.116   5.864  0.0561  0.2309  0.5016
  475MOL0     C64032   6.405   1.029   5.905 -0.0300 -0.7973 -0.3656
  475MOL0     C64033   6.296   1.043   5.789 -0.5903  0.0805 -0.5372
  475MOL0    Cl64034   6.157   0.954   5.841 -0.2541  0.2456 -0.3439
  475MOL0     C64035   7.213   1.130   6.358  0.3308  0.0203  0.1971
  475MOL0     C64036   7.327   1.081   6.421  0.2316 -0.2256  0.1147
  475MOL0     O64037   7.733   1.165   6.311  0.9689 -0.3062  0.2482
  475MOL0     C64038   7.763   0.884   6.534  0.2088 -0.3277 -0.4325
  475MOL0     C64039   7.856   0.808   6.606  0.4978 -0.5576 -0.1648
  475MOL0     N64040   8.010   0.400   7.134 -0.2180  0.2761 -0.6161
  475MOL0     N64041   7.979   0.366   7.255 -0.1472  0.8721  0.3342
  475MOL0     C64042   6.935   0.388   7.563  0.0553  0.4622  0.4748
  475MOL0     C64043   6.842   0.485   7.503 -0.3444  0.9688 -0.0665
  475MOL0     C64044   6.616   0.811   7.343  0.5901 -0.0367  0.2022
  475MOL0     C64045   6.588   0.767   7.214 -0.0830  0.0294 -0.7067
  475MOL0     C64046   6.483   0.809   7.131  0.1533  0.3088 -0.1937
  475MOL0     C64047   6.405   0.910   7.175  0.3515  0.2795  0.1522
  475MOL0     O64048   6.309   0.942   7.086  0.1464 -0.3845  0.5358
  475MOL0     C64049   6.194   1.015   7.136 -0.4631  0.1376  0.5837
  475MOL0     C64050   6.095   0.936   7.217 -0.2047  0.0956 -0.8032
  475MOL0     C64051   6.072   0.805   7.153  0.0568 -0.6428 -0.2171
  475MOL0     C64052   5.947   0.737   7.190 -0.6082  0.0238  0.2255
  475MOL0     C64053   5.833   0.800   7.117  0.1730 -0.4839  0.2448
  475MOL0     C64054   5.764   0.864   7.051  0.6321  0.5070  0.7871
  475MOL0     C64055   6.421   0.955   7.308  0.5836  0.4180 -0.7609
  475MOL0     C64056   6.528   0.913   7.387 -0.3794 -0.5371  0.2661
  475MOL0     C64057   6.528   0.963   7.532 -0.8112  0.3936 -0.3117
  475MOL0     H64058   7.074   0.632   7.301 -0.4465 -0.9633 -0.6896
  475MOL0     H64059   7.208   0.457   7.379  1.9410  3.0463  0.9582
  475MOL0     H64060   7.047   0.162   7.392  0.1031 -1.7824  0.6354
  475MOL0     H64061   7.213   0.198   7.352  2.7895 -2.8949  0.1389
  475MOL0     H64062   7.173  -0.038   7.409  1.8781  0.5452 -0.7833
  475MOL0     H64063   7.117   0.008   7.572 -2.0649  0.5036  0.3238
  475MOL0     H64064   7.356  -0.071   7.559  4.1105  1.1840  1.3850
  475MOL0     H64065   7.339   0.089   7.632 -0.3257  3.1836 -0.7974
  475MOL0     H64066   7.416   0.034   7.336  1.9196  1.5381 -0.8332
  475MOL0     H64067   7.406   0.192   7.403 -0.8479  1.5271  2.2271
  475MOL0     H64068   7.598   0.105   7.572  2.0492 -0.7681 -1.1475
  475MOL0     H64069   7.618  -0.029   7.466  3.6626  1.1267  0.5367
  475MOL0     H64070   7.770   0.145   7.429  1.3126  3.2091 -1.8459
  475MOL0     H64071   7.672   0.136   7.278  1.2355 -1.0257  0.3387
  475MOL0     H64072   7.607   0.334   7.504 -2.7574  0.9556 -0.7129
  475MOL0     H64073   7.586   0.355   7.328  0.2140 -0.9160 -0.2241
  475MOL0     H64074   7.753   0.477   7.437  1.5727  1.5432 -2.7080
  475MOL0     H64075   7.854   0.339   7.486  0.1156  1.1690  0.6773
  475MOL0     H64076   7.692   0.472   7.156  0.0510  0.2995 -3.1613
  475MOL0     H64077   7.814   0.411   6.884  2.3404 -2.9910  2.5357
  475MOL0     H64078   7.844   0.583   6.925 -1.2486 -0.5488 -1.3149
  475MOL0     H64079   8.116   0.485   6.925  1.3038 -2.4917 -0.4571
  475MOL0     H64080   8.038   0.359   6.826 -0.3395  0.5799  0.3523
  475MOL0     H64081   7.935   0.555   6.692 -0.6985  2.2006 -0.5038
  475MOL0     H64082   8.102   0.524   6.650 -0.6493 -1.5437 -1.0169
  475MOL0     H64083   8.166   0.696   6.837  0.2666  1.7823 -0.0976
  475MOL0     H64084   8.001   0.740   6.839 -0.1184  2.3966 -1.8778
  475MOL0     H64085   8.134   0.963   6.473  0.8310  0.3181  2.9180
  475MOL0     H64086   7.980   1.092   6.369  0.4758 -0.4988 -0.7800
  475MOL0     H64087   7.546   1.149   6.162 -0.0491 -1.8666 -0.3664
  475MOL0     H64088   7.353   1.238   6.063 -1.0197 -0.4102 -0.8693
  475MOL0     H64089   7.174   1.351   6.027  1.9576 -0.5149 -0.1995
  475MOL0     H64090   7.141   1.186   5.989  0.1041  1.3041 -0.8723
  475MOL0     H64091   6.943   1.406   6.053 -0.3620 -0.2036  0.5148
  475MOL0     H64092   6.964   1.334   5.891 -0.0205 -2.0585 -0.5931
  475MOL0     H64093   6.898   1.110   6.001  0.6453  0.8776 -1.1642
  475MOL0     H64094   6.817   1.213   6.111 -1.3165  1.6959 -0.3172
  475MOL0     H64095   6.767   1.207   5.809 -1.3917  1.1918 -1.2740
  475MOL0     H64096   6.687   1.333   5.901  1.0565  1.2709 -0.4776
  475MOL0     H64097   6.589   1.179   6.067 -0.1485 -0.8448  0.3401
  475MOL0     H64098   6.675   1.048   5.991 -0.4227  0.4469  0.0339
  475MOL0     H64099   6.479   1.208   5.829  0.1027 -0.3963 -1.3191
  475MOL0     H64100   6.571   1.075   5.774 -0.6308  5.0423 -2.3703
  475MOL0     H64101   6.370   1.064   6.002  1.2084 -0.1992 -0.1180
  475MOL0     H64102   6.444   0.927   5.916 -0.6909 -1.1885 -1.5119
  475MOL0     H64103   6.263   1.147   5.779 -2.0477 -0.2308  0.6634
  475MOL0     H64104   6.335   1.003   5.695  0.0829 -0.7427  0.0772
  475MOL0     H64105   7.121   1.118   6.415 -0.4422  0.7429 -0.8635
  475MOL0     H64106   7.322   1.050   6.524 -1.0638  1.4973  0.6172
  475MOL0     H64107   7.660   0.854   6.549 -0.3200  1.2601 -0.6632
  475MOL0     H64108   7.831   0.724   6.671  1.0005 -0.0619  0.6996
  475MOL0     H64109   6.884   0.310   7.618 -0.6736 -0.4885 -1.4543
  475MOL0     H64110   6.737   0.486   7.532 -0.0006 -0.8974  1.4598
  475MOL0     H64111   6.650   0.685   7.178 -0.3243 -0.0103 -1.0345
  475MOL0     H64112   6.468   0.764   7.033 -0.3439  0.7616 -0.3269
  475MOL0     H64113   6.151   1.059   7.046  1.7339  0.2764 -0.4481
  475MOL0     H64114   6.233   1.102   7.190  2.2737 -0.4217 -0.3306
  475MOL0     H64115   6.006   0.998   7.233  1.5855  3.0034 -1.2983
  475MOL0     H64116   6.137   0.913   7.315 -0.3639 -1.6528 -1.1143
  475MOL0     H64117   6.159   0.742   7.173  3.3861  3.2645 -1.1178
  475MOL0     H64118   6.068   0.823   7.045 -2.0601  0.1909 -0.0625
  475MOL0     H64119   5.946   0.628   7.176 -1.2841 -0.2783  2.2930
  475MOL0     H64120   5.934   0.747   7.298 -2.6982 -1.7813  0.2105
  475MOL0     H64121   5.689   0.919   6.997  2.1282 -0.5446 -2.5890
  475MOL0     H64122   6.349   1.026   7.346 -0.7749 -1.2601 -0.0439
  475MOL0     H64123   6.628   1.000   7.558  0.1616  0.4232 -3.5359
  475MOL0     H64124   6.457   1.046   7.533 -0.9747  0.2794 -1.1401
  475MOL0     H64125   6.496   0.883   7.598  1.7381 -3.2845 -3.0936
  476MOL0     O64126  11.210   2.649   7.696 -0.2832 -0.6518  0.9563
  476MOL0     C64127  11.195   2.575   7.790  0.6305  1.1409  0.7218
  476MOL0     O64128  11.295   2.499   7.834 -0.1436  0.2187 -0.2765
  476MOL0     C64129  11.401   2.480   7.757 -0.1663  0.5969  1.0059
  476MOL0     C64130  11.528   2.522   7.796  0.3591 -0.1254 -0.6158
  476MOL0     C64131  11.637   2.493   7.719 -0.8462 -0.1595 -0.9127
  476MOL0     C64132  11.629   2.430   7.594  1.3043 -0.4553 -0.3288
  476MOL0     O64133  11.740   2.404   7.512  0.0545  0.5012 -0.7000
  476MOL0     C64134  11.869   2.365   7.575  0.7400 -0.3033  0.0058
  476MOL0     C64135  11.955   2.481   7.615 -0.0264 -0.0595 -0.6844
  476MOL0     C64136  12.030   2.466   7.747 -0.3730 -0.4722  0.2986
  476MOL0     C64137  12.145   2.365   7.735 -0.0827  0.7128 -0.0704
  476MOL0     C64138  12.242   2.370   7.855  0.6170  0.7141  0.0602
  476MOL0     C64139  12.350   2.272   7.813 -0.0803  0.3667 -0.6444
  476MOL0     C64140  12.444   2.250   7.929 -0.8685 -0.3181  0.1892
  476MOL0     C64141  12.395   2.149   8.036 -0.2106 -0.0290  0.1210
  476MOL0     N64142  12.411   2.003   7.990  0.4605 -0.2753  1.2969
  476MOL0     C64143  12.390   1.895   8.068 -0.7057  0.4960 -0.0751
  476MOL0     C64144  12.408   1.788   7.992  0.2375  0.2289  0.3720
  476MOL0     C64145  12.376   1.645   8.025  0.6190  0.7236  0.3335
  476MOL0     C64146  12.509   1.573   8.020  0.3244  0.4989 -0.0441
  476MOL0     C64147  12.565   1.555   7.879 -0.8822  0.7815  0.1936
  476MOL0     C64148  12.692   1.470   7.863  0.0663  0.8717  0.5782
  476MOL0     O64149  12.797   1.519   7.946  0.4287  0.0728 -0.3609
  476MOL0     C64150  12.912   1.437   7.966  0.3063 -0.3798 -0.0182
  476MOL0     C64151  12.945   1.322   7.898  0.7375  0.4404  0.3063
  476MOL0     C64152  13.049   1.235   7.933  1.2636 -0.3946 -0.1536
  476MOL0     C64153  13.126   1.266   8.045  0.4889  0.3206  0.3063
  476MOL0     C64154  13.217   1.165   8.106  0.1827  0.2078 -1.1638
  476MOL0     O64155  13.267   1.207   8.235  0.7334 -0.1364  0.2195
  476MOL0     C64156  13.350   1.122   8.306 -0.1643  0.7716  0.5671
  476MOL0     C64157  13.488   1.139   8.320  0.5034  0.3095 -0.1145
  476MOL0     C64158  13.564   1.044   8.397  0.2338 -0.3254  0.2184
  476MOL0     C64159  13.497   0.944   8.467 -0.4751  0.7550  0.4163
  476MOL0     O64160  13.560   0.846   8.543 -1.1722 -0.3525  0.4310
  476MOL0     C64161  13.699   0.827   8.520 -0.5953 -0.6434  0.0128
  476MOL0     C64162  13.738   0.695   8.570  0.2703  1.5377 -0.0818
  476MOL0     C64163  13.814   0.704   8.709  0.0096 -0.2565 -0.3504
  476MOL0     C64164  13.881   0.574   8.751 -0.4441  0.4327 -0.7752
  476MOL0     C64165  13.993   0.528   8.663  0.2938  0.2010 -0.8821
  476MOL0     C64166  14.044   0.395   8.708 -0.0434 -0.1998  0.5284
  476MOL0     C64167  14.180   0.379   8.641 -0.2277 -0.2194  0.2314
  476MOL0     C64168  14.222   0.234   8.662  0.1885  0.2841 -0.1025
  476MOL0    Cl64169  14.372   0.202   8.573  0.2712  0.2412 -0.1109
  476MOL0     C64170  13.358   0.929   8.448 -0.5674  0.1859 -0.8510
  476MOL0     C64171  13.288   1.020   8.371 -0.2920 -0.1725 -0.0674
  476MOL0     O64172  13.237   1.055   8.059 -0.1730  0.2316  0.0311
  476MOL0     C64173  13.105   1.390   8.110 -0.2739 -0.6055 -0.3322
  476MOL0     C64174  13.009   1.472   8.061 -0.9432  0.5614 -0.7835
  476MOL0     N64175  12.435   1.827   7.864  0.0095 -0.5406 -0.2262
  476MOL0     N64176  12.441   1.954   7.864  0.4918 -0.1428 -0.0050
  476MOL0     C64177  11.499   2.382   7.555 -0.0794 -0.4243  0.1552
  476MOL0     C64178  11.385   2.416   7.630  0.9598 -0.0451 -0.7253
  476MOL0     C64179  11.068   2.574   7.871 -0.0884 -0.0090  0.0846
  476MOL0     C64180  11.064   2.509   7.998  0.1414  0.1715 -0.2593
  476MOL0     C64181  10.951   2.491   8.076  0.3454  0.2578 -0.2198
  476MOL0     C64182  10.840   2.570   8.040  0.4345  0.1864 -0.4993
  476MOL0     O64183  10.732   2.592   8.124  0.4550 -0.6253 -0.4070
  476MOL0     C64184  10.727   2.525   8.257  0.0497 -0.4409 -0.0780
  476MOL0     C64185  10.597   2.556   8.332  0.6637  0.7607  1.1243
  476MOL0     C64186  10.472   2.539   8.239  0.6851  1.0864 -0.9190
  476MOL0     C64187  10.356   2.577   8.330 -0.0497 -0.0462 -0.0747
  476MOL0     C64188  10.226   2.584   8.264  0.0526 -0.1571 -0.7356
  476MOL0     C64189  10.122   2.612   8.214  0.2587  1.1518  0.6685
  476MOL0     C64190  10.830   2.620   7.910 -0.1699  0.3610  0.0219
  476MOL0     C64191  10.945   2.624   7.826  0.3970 -0.2685  0.1139
  476MOL0     C64192  10.928   2.668   7.684  0.2053  0.1791  1.2825
  476MOL0     H64193  11.538   2.581   7.887  2.5207  0.2301 -1.0331
  476MOL0     H64194  11.736   2.528   7.749 -0.9878  0.5880 -1.2976
  476MOL0     H64195  11.849   2.297   7.658  0.5936 -0.5497 -0.2305
  476MOL0     H64196  11.913   2.310   7.491 -2.1262 -0.7824 -1.3240
  476MOL0     H64197  11.892   2.569   7.635  1.8441  1.3152 -0.6120
  476MOL0     H64198  12.034   2.513   7.547 -1.4469  1.7461 -1.6016
  476MOL0     H64199  11.968   2.459   7.836 -0.1681  3.1858  0.8798
  476MOL0     H64200  12.066   2.565   7.775 -1.1414 -0.6245  1.9425
  476MOL0     H64201  12.104   2.264   7.740  1.3453  0.1779  1.4098
  476MOL0     H64202  12.190   2.370   7.635 -1.2129 -2.7619 -0.8984
  476MOL0     H64203  12.267   2.476   7.866 -1.6666  1.1907  1.2756
  476MOL0     H64204  12.180   2.333   7.937 -2.2883  2.6047 -1.1156
  476MOL0     H64205  12.300   2.175   7.799 -1.0339  0.7964 -0.2972
  476MOL0     H64206  12.394   2.312   7.722  1.0509  0.0758 -0.2376
  476MOL0     H64207  12.451   2.344   7.984  1.7801 -1.2227  1.5879
  476MOL0     H64208  12.544   2.216   7.901 -0.0136  2.5360 -0.4806
  476MOL0     H64209  12.453   2.158   8.128 -0.4869 -0.7034  0.3698
  476MOL0     H64210  12.296   2.179   8.072  1.0200  2.5263  1.6814
  476MOL0     H64211  12.367   1.883   8.173 -1.8787 -1.1344 -0.4829
  476MOL0     H64212  12.309   1.631   8.111  0.4187 -0.7070 -0.0283
  476MOL0     H64213  12.304   1.610   7.950 -0.9727  0.1227  2.0568
  476MOL0     H64214  12.593   1.621   8.070  1.9934 -3.5094  1.4252
  476MOL0     H64215  12.505   1.477   8.072  1.4528  0.9122  0.8396
  476MOL0     H64216  12.598   1.651   7.839  0.6917  0.5330  0.8284
  476MOL0     H64217  12.487   1.502   7.824  0.9891 -3.8187  1.4969
  476MOL0     H64218  12.731   1.476   7.761 -1.0844 -1.4941 -0.0456
  476MOL0     H64219  12.668   1.367   7.891 -1.3186  0.0783 -3.0705
  476MOL0     H64220  12.881   1.274   7.824 -0.6289  2.8976 -0.1959
  476MOL0     H64221  13.060   1.137   7.889  0.6999 -1.9951  3.0273
  476MOL0     H64222  13.545   1.209   8.260 -1.2764  0.9115 -1.1889
  476MOL0     H64223  13.673   1.050   8.394  0.3407 -1.5664  0.9887
  476MOL0     H64224  13.729   0.828   8.415  1.5087 -2.4755  0.5241
  476MOL0     H64225  13.757   0.907   8.569 -1.2162 -1.8092  2.8838
  476MOL0     H64226  13.653   0.626   8.567  2.0092 -0.6633 -3.2198
  476MOL0     H64227  13.808   0.649   8.500 -1.4595 -0.0367 -0.8648
  476MOL0     H64228  13.898   0.771   8.689 -0.2263  0.1468 -0.0251
  476MOL0     H64229  13.759   0.749   8.792  1.4873  0.4843  0.2564
  476MOL0     H64230  13.803   0.498   8.756 -1.6611  1.7018  2.3849
  476MOL0     H64231  13.918   0.590   8.853 -0.1597 -0.0922 -0.7969
  476MOL0     H64232  14.067   0.608   8.659  0.3409  0.4245  1.9673
  476MOL0     H64233  13.952   0.515   8.563  0.5927  0.6000 -1.0579
  476MOL0     H64234  14.049   0.379   8.816  0.6026 -1.9945  0.2659
  476MOL0     H64235  13.973   0.322   8.668  1.4261 -1.0491 -0.6260
  476MOL0     H64236  14.267   0.433   8.679 -0.5669  0.4302  0.1170
  476MOL0     H64237  14.166   0.397   8.533 -2.0206  1.5680  0.6909
  476MOL0     H64238  14.249   0.218   8.766 -3.2481  0.2293  0.9128
  476MOL0     H64239  14.142   0.165   8.633  1.0212 -0.5604 -0.4642
  476MOL0     H64240  13.316   0.837   8.487  0.9288 -0.1811 -0.0466
  476MOL0     H64241  13.183   0.999   8.358 -0.7257  2.7072 -2.3799
  476MOL0     H64242  13.149   1.419   8.205 -0.8425 -1.7230  0.2978
  476MOL0     H64243  13.010   1.575   8.096  2.0951 -0.2245  1.8637
  476MOL0     H64244  11.499   2.330   7.459  1.8795  0.6435 -0.4859
  476MOL0     H64245  11.291   2.380   7.590  1.7543 -0.7242 -2.0602
  476MOL0     H64246  11.153   2.457   8.033 -0.3131  0.0378  0.7516
  476MOL0     H64247  10.963   2.438   8.170  0.9803 -0.8384 -0.8961
  476MOL0     H64248  10.814   2.554   8.316 -2.0280  1.0974  2.4657
  476MOL0     H64249  10.731   2.418   8.238 -2.6581 -0.9539  1.7183
  476MOL0     H64250  10.587   2.660   8.366  0.9992  1.0906  0.2514
  476MOL0     H64251  10.612   2.489   8.417  2.6164  0.8815  0.9287
  476MOL0     H64252  10.461   2.435   8.206  1.7375  1.2271 -1.7602
  476MOL0     H64253  10.470   2.603   8.151  2.3170 -0.2192 -1.9693
  476MOL0     H64254  10.363   2.503   8.410  3.4115  1.5264  1.2819
  476MOL0     H64255  10.372   2.671   8.383 -1.4779  0.7376 -0.9620
  476MOL0     H64256  10.034   2.637   8.159  1.6790  3.1784 -0.8610
  476MOL0     H64257  10.733   2.659   7.882 -1.3336 -0.1141  3.0014
  476MOL0     H64258  10.821   2.677   7.659 -0.3801 -0.3958  3.3928
  476MOL0     H64259  10.976   2.762   7.655  0.5780 -0.1043  0.9898
  476MOL0     H64260  10.968   2.594   7.615 -0.7375  0.0333  0.8722
  477MOL0     O64261  10.157   8.844   8.262  1.1028 -0.1033 -0.1225
  477MOL0     C64262  10.112   8.918   8.181  0.5203 -0.0811  0.2645
  477MOL0     O64263  10.156   9.050   8.163 -0.0434  0.3481  0.9880
  477MOL0     C64264  10.270   9.091   8.226 -0.5529 -0.4383 -0.0687
  477MOL0     C64265  10.257   9.217   8.290  0.2628 -0.5724  0.3275
  477MOL0     C64266  10.361   9.266   8.368 -1.0725 -0.7570  0.2729
  477MOL0     C64267  10.477   9.189   8.393 -0.5584  0.7838  0.1708
  477MOL0     O64268  10.568   9.208   8.490  1.0441 -0.0604  0.0013
  477MOL0     C64269  10.592   9.342   8.536  0.0548  0.6483  0.2556
  477MOL0     C64270  10.721   9.354   8.613 -0.2163  0.4458 -0.1253
  477MOL0     C64271  10.850   9.324   8.525  0.2803  0.3330 -0.0625
  477MOL0     C64272  10.973   9.366   8.603  0.1047 -0.6751  0.5089
  477MOL0     C64273  11.100   9.344   8.517  0.0468  0.0324 -1.0322
  477MOL0     C64274  11.214   9.362   8.619 -0.4164 -1.1051  0.1414
  477MOL0     C64275  11.350   9.339   8.554  0.0238  0.1080  0.4536
  477MOL0     C64276  11.448   9.267   8.643 -0.1997  0.9383  0.6288
  477MOL0     N64277  11.592   9.304   8.623  0.0856  0.8235 -0.0960
  477MOL0     C64278  11.649   9.424   8.651  0.1675  0.2846 -0.2476
  477MOL0     C64279  11.770   9.424   8.598 -0.2407  0.2592  0.5907
  477MOL0     C64280  11.879   9.529   8.630 -0.6033  0.3358  0.5171
  477MOL0     C64281  11.936   9.485   8.768 -0.7356  0.3389  0.4422
  477MOL0     C64282  12.062   9.553   8.820 -0.0084 -0.3328  0.3219
  477MOL0     C64283  12.065   9.702   8.820  0.3526 -0.2511 -0.5835
  477MOL0     O64284  12.091   9.749   8.685  0.2824  0.0304  0.0078
  477MOL0     C64285  12.214   9.723   8.636  0.0677 -0.1595  1.0133
  477MOL0     C64286  12.332   9.758   8.692 -0.4693 -0.0737  0.0377
  477MOL0     C64287  12.450   9.750   8.621 -0.7251  0.6568 -0.1058
  477MOL0     C64288  12.455   9.692   8.493  0.7575 -0.3033 -0.1500
  477MOL0     C64289  12.579   9.665   8.415  0.5191 -0.2105 -0.3939
  477MOL0     O64290  12.697   9.645   8.482  0.8466 -0.0180  0.5168
  477MOL0     C64291  12.819   9.639   8.416 -0.1860  0.4857  0.1530
  477MOL0     C64292  12.929   9.708   8.461  0.9429 -0.8205 -0.0744
  477MOL0     C64293  13.054   9.702   8.390 -0.0162 -0.0805 -0.4164
  477MOL0     C64294  13.068   9.618   8.280 -0.6047 -0.2905 -0.0264
  477MOL0     O64295  13.179   9.591   8.209  0.2506 -0.2585 -0.2446
  477MOL0     C64296  13.302   9.629   8.269  0.3281  0.1300  1.1665
  477MOL0     C64297  13.403   9.558   8.175 -0.4087 -0.4401 -0.3958
  477MOL0     C64298  13.392   9.626   8.031  0.1150 -0.3985 -0.1596
  477MOL0     C64299  13.466   9.546   7.932  0.0076  0.2783 -0.3354
  477MOL0     C64300  13.612   9.537   7.965  0.5045 -0.2803 -0.7068
  477MOL0     C64301  13.697   9.509   7.837 -0.1326 -0.2335  0.5595
  477MOL0     C64302  13.845   9.518   7.856  0.1982  0.3364  0.4178
  477MOL0     C64303  13.915   9.406   7.763  0.3172 -0.3986 -0.3377
  477MOL0    Cl64304  14.085   9.402   7.800 -0.1292 -0.1315  0.3288
  477MOL0     C64305  12.964   9.542   8.244 -0.5754  0.3070 -0.6721
  477MOL0     C64306  12.837   9.550   8.313 -0.6946  0.1971  0.3557
  477MOL0     O64307  12.560   9.679   8.293 -0.4839 -0.6644 -0.1370
  477MOL0     C64308  12.326   9.656   8.433 -0.2216 -0.1137  0.0194
  477MOL0     C64309  12.212   9.669   8.505 -0.5859 -0.7864 -0.2316
  477MOL0     N64310  11.790   9.305   8.539 -0.9063 -0.6345  0.0802
  477MOL0     N64311  11.694   9.231   8.564  0.9214 -0.0513 -0.2323
  477MOL0     C64312  10.484   9.067   8.331 -0.1952  0.7406 -0.1433
  477MOL0     C64313  10.387   9.016   8.236  0.0257 -0.3666  0.4061
  477MOL0     C64314   9.972   8.897   8.132 -0.1556 -0.0054  0.3152
  477MOL0     C64315   9.878   8.851   8.222  0.4257  0.2908 -0.1974
  477MOL0     C64316   9.748   8.810   8.187 -0.2418  0.0029  0.0578
  477MOL0     C64317   9.707   8.829   8.049 -0.4464  0.2847 -0.3170
  477MOL0     O64318   9.587   8.776   8.025 -0.4396  0.4385  0.1258
  477MOL0     C64319   9.513   8.802   7.906 -0.0967 -0.6178  0.2822
  477MOL0     C64320   9.377   8.724   7.931  0.4521  0.6906 -0.7573
  477MOL0     C64321   9.297   8.751   8.054  0.4302  0.7638  0.2430
  477MOL0     C64322   9.272   8.904   8.080  0.5533  0.0362 -0.3094
  477MOL0     C64323   9.220   8.924   8.217 -0.3116 -0.8882  0.7935
  477MOL0     C64324   9.158   8.945   8.318  0.2904 -0.1682  0.2263
  477MOL0     C64325   9.799   8.899   7.959 -0.1096  0.4769  0.0955
  477MOL0     C64326   9.928   8.916   8.000 -0.1382 -0.0747  0.1288
  477MOL0     C64327  10.022   8.978   7.887  0.9872  0.0893 -0.1526
  477MOL0     H64328  10.172   9.277   8.261  1.4087  0.4520 -1.0730
  477MOL0     H64329  10.344   9.359   8.420  3.4307  0.9810 -0.8571
  477MOL0     H64330  10.602   9.408   8.449  0.1333 -1.8771 -1.7729
  477MOL0     H64331  10.514   9.378   8.603 -1.0400 -1.6627  0.3399
  477MOL0     H64332  10.717   9.289   8.701  1.8020 -2.3982 -1.9969
  477MOL0     H64333  10.731   9.457   8.650  1.5701  0.3920 -0.3699
  477MOL0     H64334  10.848   9.365   8.424 -1.2444  1.1550  0.2677
  477MOL0     H64335  10.861   9.215   8.523  3.0688  0.5534 -0.8988
  477MOL0     H64336  10.953   9.472   8.624 -2.8615 -0.7711 -1.2879
  477MOL0     H64337  10.982   9.317   8.701  1.7802  0.7851  1.1537
  477MOL0     H64338  11.093   9.236   8.506 -1.2357  0.0265 -0.3336
  477MOL0     H64339  11.105   9.395   8.420  1.7381  0.2246 -0.8752
  477MOL0     H64340  11.214   9.467   8.650  0.9935 -0.8155 -0.7313
  477MOL0     H64341  11.204   9.302   8.710  1.3125  0.5412  1.5022
  477MOL0     H64342  11.380   9.443   8.536  0.0843  0.3898  2.0622
  477MOL0     H64343  11.335   9.279   8.463 -0.6800 -0.5661  0.9979
  477MOL0     H64344  11.428   9.293   8.747  2.2354  3.5418  0.5710
  477MOL0     H64345  11.438   9.158   8.638 -3.7233  1.1011  1.6231
  477MOL0     H64346  11.608   9.504   8.712  0.6101  2.4695 -2.6822
  477MOL0     H64347  11.955   9.542   8.553  1.4793  0.3679  2.4810
  477MOL0     H64348  11.820   9.621   8.643  0.9004  1.4959 -0.5028
  477MOL0     H64349  11.853   9.503   8.838 -2.3116  2.2878 -1.7626
  477MOL0     H64350  11.947   9.377   8.765  0.8742  0.4908  0.1588
  477MOL0     H64351  12.145   9.520   8.757 -0.6160 -1.9493  0.3215
  477MOL0     H64352  12.080   9.506   8.918  3.5299  0.6471  0.2774
  477MOL0     H64353  12.140   9.738   8.891 -1.6437  1.3260  0.8238
  477MOL0     H64354  11.968   9.738   8.854  1.2095  1.8234 -0.1686
  477MOL0     H64355  12.327   9.801   8.792 -1.8207  2.7395 -1.1225
  477MOL0     H64356  12.540   9.792   8.665 -1.2929  0.6530  1.1057
  477MOL0     H64357  12.910   9.769   8.549 -1.3548 -0.0111 -1.0380
  477MOL0     H64358  13.136   9.763   8.426 -1.0331 -0.5445  3.0219
  477MOL0     H64359  13.310   9.738   8.265 -2.7195  0.3934 -1.3025
  477MOL0     H64360  13.309   9.581   8.367 -2.4891  0.2761  1.5385
  477MOL0     H64361  13.509   9.573   8.197  0.0387 -2.7640 -0.7060
  477MOL0     H64362  13.391   9.449   8.169  0.8094 -0.5558 -1.0801
  477MOL0     H64363  13.289   9.650   8.005  0.2395 -2.2590 -2.8112
  477MOL0     H64364  13.428   9.729   8.039 -1.5921  0.6539 -3.7695
  477MOL0     H64365  13.443   9.597   7.838  0.4043 -0.0089 -0.5900
  477MOL0     H64366  13.427   9.444   7.927 -1.2855  0.5811  2.1393
  477MOL0     H64367  13.627   9.450   8.029 -1.9610  1.5323  2.6684
  477MOL0     H64368  13.644   9.626   8.020 -0.0178  0.0378 -0.9057
  477MOL0     H64369  13.672   9.412   7.793 -1.7289  0.9148 -1.2231
  477MOL0     H64370  13.667   9.581   7.760  0.3596 -0.7019 -0.0841
  477MOL0     H64371  13.867   9.487   7.958  0.2105 -2.1631 -0.2810
  477MOL0     H64372  13.886   9.618   7.841 -3.1638  2.0640  1.6224
  477MOL0     H64373  13.870   9.306   7.770 -2.5369  0.8695  1.7908
  477MOL0     H64374  13.901   9.449   7.663  0.6079  0.7079  0.0804
  477MOL0     H64375  12.984   9.471   8.164 -0.1989  1.0894 -1.2880
  477MOL0     H64376  12.763   9.487   8.266  2.7694 -2.8536 -1.5251
  477MOL0     H64377  12.327   9.618   8.331  0.7527 -1.9686  0.6695
  477MOL0     H64378  12.113   9.652   8.463 -1.7093  5.8931 -1.4069
  477MOL0     H64379  10.567   9.003   8.356  0.4446  1.6697  0.1575
  477MOL0     H64380  10.391   8.915   8.197 -0.6704  0.0042 -0.6593
  477MOL0     H64381   9.903   8.832   8.326  0.2570 -0.7168 -0.3241
  477MOL0     H64382   9.681   8.780   8.267  2.5869 -1.0299  2.2134
  477MOL0     H64383   9.565   8.755   7.822 -0.8186  1.3665 -1.3750
  477MOL0     H64384   9.508   8.910   7.887  1.4848 -0.5879 -0.0332
  477MOL0     H64385   9.406   8.618   7.933  2.7961  1.2701  0.4044
  477MOL0     H64386   9.317   8.741   7.841 -0.8444  1.9595  0.2962
  477MOL0     H64387   9.352   8.714   8.141 -2.1557  0.4646  1.8565
  477MOL0     H64388   9.208   8.690   8.035  1.5549  0.0730 -3.6840
  477MOL0     H64389   9.365   8.961   8.068  0.5028  0.2814  0.4310
  477MOL0     H64390   9.202   8.947   8.008 -0.4731  0.0980  0.7209
  477MOL0     H64391   9.101   8.969   8.406  1.5318  2.1409  0.4846
  477MOL0     H64392   9.778   8.923   7.855  0.6984 -1.4397 -0.5692
  477MOL0     H64393  10.124   8.940   7.893  0.8346 -0.7751 -2.2971
  477MOL0     H64394   9.984   8.959   7.787  0.6283  0.1453 -0.0282
  477MOL0     H64395  10.033   9.085   7.908  0.8809 -0.1719  1.3819
  478MOL0     O64396   3.681   5.764   5.103 -0.5859 -0.6909  0.7596
  478MOL0     C64397   3.783   5.832   5.120  0.6322 -0.4915 -0.4550
  478MOL0     O64398   3.786   5.968   5.139  0.6061  0.2857 -0.2360
  478MOL0     C64399   3.706   6.043   5.057  0.1722 -0.3474  0.0897
  478MOL0     C64400   3.627   6.138   5.117  0.2776 -0.2022  1.2393
  478MOL0     C64401   3.537   6.215   5.046  0.3428  0.1133  0.3929
  478MOL0     C64402   3.528   6.216   4.899 -0.0996 -0.1890 -0.1672
  478MOL0     O64403   3.444   6.286   4.812  0.1034  0.2039 -0.2345
  478MOL0     C64404   3.320   6.215   4.787  0.0940 -0.3431  0.2147
  478MOL0     C64405   3.206   6.301   4.722  0.1325  0.6451  0.5329
  478MOL0     C64406   3.256   6.362   4.593  0.0588  1.1382 -0.3026
  478MOL0     C64407   3.125   6.424   4.531 -0.2920  0.5136  0.4632
  478MOL0     C64408   3.154   6.471   4.386  0.2975 -1.1070  0.4361
  478MOL0     C64409   3.227   6.606   4.399  0.0022  0.0734 -0.3161
  478MOL0     C64410   3.254   6.679   4.263  0.2246  0.4878 -0.4300
  478MOL0     C64411   3.339   6.602   4.165 -0.2155 -0.9605  1.0291
  478MOL0     N64412   3.402   6.675   4.054 -0.0228 -0.7444 -0.2840
  478MOL0     C64413   3.339   6.707   3.931  0.0219 -0.1567  0.7411
  478MOL0     C64414   3.453   6.747   3.861  1.1561  0.0452  0.6081
  478MOL0     C64415   3.443   6.811   3.719 -0.3965 -0.3693 -1.7221
  478MOL0     C64416   3.466   6.711   3.608  0.6039  0.4296  0.4660
  478MOL0     C64417   3.508   6.783   3.476 -0.2468 -0.4480 -0.0105
  478MOL0     C64418   3.660   6.767   3.465  0.0993 -0.0574  0.1027
  478MOL0     O64419   3.695   6.829   3.337 -0.1403  0.1177 -0.0829
  478MOL0     C64420   3.826   6.870   3.330  0.3290 -0.6920  0.4653
  478MOL0     C64421   3.924   6.792   3.382 -0.5473 -0.4490 -0.5790
  478MOL0     C64422   4.062   6.823   3.362 -0.9524 -0.3202  0.6461
  478MOL0     C64423   4.098   6.937   3.278 -0.4643 -0.0500 -0.2240
  478MOL0     C64424   4.240   6.957   3.231 -0.4295  0.4599  0.1360
  478MOL0     O64425   4.261   7.033   3.123  0.3788  0.4046  0.2330
  478MOL0     C64426   4.385   7.074   3.078  0.1641  0.5137  0.1403
  478MOL0     C64427   4.383   7.129   2.946  0.1757  0.2740 -0.8791
  478MOL0     C64428   4.513   7.169   2.891  0.4105  0.5054 -0.3119
  478MOL0     C64429   4.625   7.156   2.968 -0.7737 -0.0476  0.2099
  478MOL0     O64430   4.736   7.212   2.918  0.4690  0.3826  0.9530
  478MOL0     C64431   4.860   7.143   2.913  0.5243 -0.8258  0.2262
  478MOL0     C64432   4.959   7.210   2.812  0.7682 -0.6944  0.6755
  478MOL0     C64433   5.106   7.146   2.807  0.0948  0.9079 -1.3840
  478MOL0     C64434   5.214   7.211   2.725  0.0535 -0.8983 -0.4131
  478MOL0     C64435   5.325   7.110   2.676 -0.3921 -0.2863  0.0520
  478MOL0     C64436   5.441   7.197   2.603  0.3881  0.1273 -0.0423
  478MOL0     C64437   5.556   7.092   2.563 -0.1483 -0.0360  0.0072
  478MOL0     C64438   5.689   7.163   2.563 -0.9791  0.7382  0.2263
  478MOL0    Cl64439   5.724   7.268   2.424 -0.3526  0.0317 -0.0852
  478MOL0     C64440   4.620   7.113   3.101 -0.8701  0.2029 -0.0050
  478MOL0     C64441   4.498   7.063   3.153 -0.5762  0.3338 -0.1682
  478MOL0     O64442   4.315   6.871   3.278 -0.2846 -0.0961 -0.5434
  478MOL0     C64443   4.000   7.018   3.227  0.1191 -0.2683  0.0582
  478MOL0     C64444   3.865   6.976   3.240  0.5048  0.3594 -0.3673
  478MOL0     N64445   3.569   6.731   3.930  0.1696 -0.5014 -0.3704
  478MOL0     N64446   3.537   6.704   4.053  0.0042  0.5216 -0.2854
  478MOL0     C64447   3.619   6.119   4.839  0.3534 -0.3459  0.5703
  478MOL0     C64448   3.703   6.038   4.916 -0.4314  0.0488  0.2080
  478MOL0     C64449   3.919   5.771   5.137 -0.1436 -0.2660  0.1503
  478MOL0     C64450   4.014   5.838   5.216 -0.3887 -0.7902 -0.2940
  478MOL0     C64451   4.147   5.796   5.228  0.7060  0.0127 -0.0147
  478MOL0     C64452   4.191   5.687   5.155 -1.2057 -0.3257 -0.4936
  478MOL0     O64453   4.318   5.639   5.159 -0.2146 -0.5206 -0.1831
  478MOL0     C64454   4.418   5.729   5.187 -0.4732  0.2990  0.5884
  478MOL0     C64455   4.558   5.689   5.131  0.4607 -0.4035  0.8801
  478MOL0     C64456   4.557   5.709   4.975  0.0803 -0.1117 -0.8856
  478MOL0     C64457   4.690   5.697   4.901 -0.1696 -0.3256  0.5371
  478MOL0     C64458   4.796   5.766   4.971  0.2732 -0.2314  0.3986
  478MOL0     C64459   4.898   5.806   5.015 -0.5186 -0.3196 -0.3603
  478MOL0     C64460   4.101   5.617   5.074  0.3184 -0.3488  0.4468
  478MOL0     C64461   3.964   5.651   5.067  0.2492 -0.1948  0.3499
  478MOL0     C64462   3.875   5.557   4.990  0.3576 -0.2798  0.5187
  478MOL0     H64463   3.630   6.141   5.226  1.2457 -2.5659  1.3474
  478MOL0     H64464   3.463   6.280   5.092 -3.1910 -2.2215 -1.4477
  478MOL0     H64465   3.340   6.125   4.728  3.5103  1.3666 -1.5322
  478MOL0     H64466   3.275   6.176   4.879 -1.7448 -0.7725 -0.8124
  478MOL0     H64467   3.164   6.380   4.785 -1.9728  2.2326 -2.5979
  478MOL0     H64468   3.125   6.230   4.703  0.6187  0.6618 -1.8934
  478MOL0     H64469   3.297   6.285   4.527  0.6586  0.4087  0.8857
  478MOL0     H64470   3.337   6.432   4.611  0.1698  0.8288  0.4517
  478MOL0     H64471   3.046   6.348   4.530 -0.2999  0.4645  2.1310
  478MOL0     H64472   3.083   6.503   4.594 -0.8202 -0.1804  0.9964
  478MOL0     H64473   3.209   6.400   4.323  0.4673  1.4460 -2.5772
  478MOL0     H64474   3.067   6.495   4.325  2.3170  1.5403 -1.6900
  478MOL0     H64475   3.173   6.676   4.465  1.7856  0.6221  0.6399
  478MOL0     H64476   3.321   6.590   4.453  0.7062 -1.3646 -1.8889
  478MOL0     H64477   3.300   6.769   4.306 -3.4125  1.3560  2.0844
  478MOL0     H64478   3.159   6.697   4.213  0.1674 -2.3156 -1.5008
  478MOL0     H64479   3.419   6.545   4.213  2.5749  1.2348 -0.6605
  478MOL0     H64480   3.275   6.530   4.114 -2.3455  1.1618  0.5336
  478MOL0     H64481   3.233   6.712   3.908  0.0799  0.5244  0.5850
  478MOL0     H64482   3.345   6.862   3.719 -0.1335  0.1418 -1.7146
  478MOL0     H64483   3.521   6.887   3.712 -0.3367  0.6187  4.4655
  478MOL0     H64484   3.535   6.639   3.653  1.3067  1.5073  1.1690
  478MOL0     H64485   3.370   6.663   3.586  1.2042 -0.6552  0.1649
  478MOL0     H64486   3.485   6.889   3.469 -0.4169 -0.6082 -3.9825
  478MOL0     H64487   3.473   6.727   3.389  0.6565 -2.7384  0.9972
  478MOL0     H64488   3.688   6.661   3.472  2.0300  0.2933 -1.6091
  478MOL0     H64489   3.697   6.836   3.542  1.5310 -0.3171 -0.3261
  478MOL0     H64490   3.908   6.703   3.441 -1.5145 -0.4894 -0.8728
  478MOL0     H64491   4.139   6.764   3.410  0.6386  0.5792 -0.7025
  478MOL0     H64492   4.288   7.136   2.893 -1.3479  0.4102  1.6966
  478MOL0     H64493   4.511   7.209   2.790  1.1048 -0.3789 -0.6896
  478MOL0     H64494   4.905   7.127   3.012 -1.6890 -0.4197  1.3487
  478MOL0     H64495   4.845   7.049   2.859 -1.0117  0.8553 -2.4647
  478MOL0     H64496   4.912   7.211   2.713 -0.3893  0.0192  1.2169
  478MOL0     H64497   4.966   7.314   2.843 -1.0557 -0.3813  0.1446
  478MOL0     H64498   5.144   7.143   2.910 -1.9809  2.7510 -0.4838
  478MOL0     H64499   5.095   7.044   2.770  2.8449 -0.7110  1.6732
  478MOL0     H64500   5.267   7.289   2.779 -0.4293 -1.9689  1.7558
  478MOL0     H64501   5.162   7.263   2.644 -0.1686 -1.3985 -0.5963
  478MOL0     H64502   5.272   7.038   2.611  0.7325  1.0235 -2.4645
  478MOL0     H64503   5.363   7.055   2.762  1.4053  1.2079  0.2503
  478MOL0     H64504   5.394   7.234   2.512 -1.1714 -0.6803  0.3979
  478MOL0     H64505   5.479   7.277   2.667  0.5420  0.8578 -1.0180
  478MOL0     H64506   5.531   7.029   2.477  0.6518 -1.5457  0.8420
  478MOL0     H64507   5.567   7.029   2.652  1.1203  0.8752  0.5243
  478MOL0     H64508   5.705   7.221   2.655 -0.7328  1.0707 -0.0228
  478MOL0     H64509   5.769   7.090   2.573 -0.8065  0.7577 -0.8397
  478MOL0     H64510   4.716   7.122   3.152  0.8682  0.7864 -3.1185
  478MOL0     H64511   4.491   7.025   3.254 -0.8375  2.6952  0.7687
  478MOL0     H64512   4.028   7.108   3.173 -1.2843  0.2527  0.1606
  478MOL0     H64513   3.786   7.042   3.205  0.7490  1.3164  0.8324
  478MOL0     H64514   3.615   6.101   4.733 -1.5878 -1.2907  0.7658
  478MOL0     H64515   3.768   5.967   4.865  1.4644  1.5624  0.4048
  478MOL0     H64516   3.985   5.928   5.269 -1.2694 -0.2845 -1.5737
  478MOL0     H64517   4.208   5.864   5.287 -0.4759  1.9377 -0.8876
  478MOL0     H64518   4.418   5.754   5.293  0.3834 -1.0433  0.9345
  478MOL0     H64519   4.397   5.823   5.135 -2.2012 -1.6995 -2.7441
  478MOL0     H64520   4.579   5.584   5.154 -1.5545 -1.5654 -2.0475
  478MOL0     H64521   4.634   5.760   5.167  1.1729 -0.3402 -0.6462
  478MOL0     H64522   4.520   5.811   4.958  0.2769  0.1896  0.3892
  478MOL0     H64523   4.477   5.644   4.938 -1.2067 -0.5609  2.3344
  478MOL0     H64524   4.723   5.593   4.893  1.5453  0.2425 -0.2105
  478MOL0     H64525   4.689   5.740   4.800  2.2556  1.4072  1.1728
  478MOL0     H64526   4.992   5.840   5.054 -0.6370 -0.4542  0.0474
  478MOL0     H64527   4.147   5.545   5.007  1.7069  1.6976 -0.9077
  478MOL0     H64528   3.826   5.627   4.923  2.0764  0.4582 -0.0254
  478MOL0     H64529   3.924   5.492   4.918  3.1035  2.0657  0.0719
  478MOL0     H64530   3.795   5.510   5.047 -1.1477 -0.1112 -1.3718
  479MOL0     O64531   1.160   9.287   1.176  0.1393  0.0266 -0.2735
  479MOL0     C64532   1.120   9.179   1.130  0.4525 -0.6001 -0.4244
  479MOL0     O64533   1.194   9.077   1.091  0.1542  0.1098  0.6362
  479MOL0     C64534   1.325   9.097   1.077  0.1688  0.0490 -0.1914
  479MOL0     C64535   1.386   9.154   0.970 -0.2554  0.6491  0.2438
  479MOL0     C64536   1.532   9.172   0.954 -0.4031  0.1367 -0.2534
  479MOL0     C64537   1.611   9.128   1.059  0.4798  0.4773 -0.1544
  479MOL0     O64538   1.745   9.158   1.050 -0.2151 -0.1370  0.2071
  479MOL0     C64539   1.834   9.051   1.016 -0.2447 -0.2514 -0.3104
  479MOL0     C64540   1.906   8.985   1.146 -0.8805  0.1375  0.6707
  479MOL0     C64541   2.019   8.898   1.097 -0.7046 -0.0744 -0.2552
  479MOL0     C64542   2.017   8.761   1.165 -0.2243 -0.5631 -0.3450
  479MOL0     C64543   2.150   8.692   1.141 -0.1225 -0.4874  0.0616
  479MOL0     C64544   2.144   8.567   1.226  0.0384  0.1437 -0.1114
  479MOL0     C64545   2.277   8.495   1.193 -0.0960 -0.8600 -0.1968
  479MOL0     C64546   2.319   8.368   1.275 -0.3669 -1.2153  1.1652
  479MOL0     N64547   2.460   8.328   1.255 -0.5570  0.2409  0.2574
  479MOL0     C64548   2.510   8.278   1.136  0.4543 -0.3581 -0.3208
  479MOL0     C64549   2.625   8.211   1.171 -0.5748 -0.7507  0.0308
  479MOL0     C64550   2.727   8.146   1.077 -0.0702 -0.1658 -0.3187
  479MOL0     C64551   2.782   8.246   0.968  0.4953 -1.1631 -0.3206
  479MOL0     C64552   2.900   8.349   1.012  0.6752  0.4598  0.5411
  479MOL0     C64553   3.028   8.264   1.012  0.8275  1.1587  0.7737
  479MOL0     O64554   3.134   8.349   1.058 -0.0494 -0.2777 -0.1125
  479MOL0     C64555   3.257   8.292   1.081 -0.0350  0.7246 -0.1271
  479MOL0     C64556   3.292   8.153   1.061  0.0188  0.0566 -0.3624
  479MOL0     C64557   3.421   8.101   1.086  0.1585 -0.0525  0.2258
  479MOL0     C64558   3.523   8.189   1.134 -0.4590  0.6543  0.2635
  479MOL0     C64559   3.660   8.140   1.166 -0.1702  0.3087 -0.9153
  479MOL0     O64560   3.735   8.230   1.235 -0.4988  0.0205 -0.2900
  479MOL0     C64561   3.861   8.194   1.275 -0.9178 -0.2829  0.1416
  479MOL0     C64562   3.963   8.294   1.286  0.7070  0.2845 -0.1747
  479MOL0     C64563   4.089   8.268   1.339 -0.1967 -0.3336  0.3806
  479MOL0     C64564   4.124   8.140   1.378  0.6865  0.2401 -0.0643
  479MOL0     O64565   4.245   8.125   1.435 -0.5560 -0.1339 -0.8843
  479MOL0     C64566   4.296   7.996   1.404  0.5263 -0.7154  0.0718
  479MOL0     C64567   4.444   7.995   1.429  0.6314 -0.0030  0.3711
  479MOL0     C64568   4.515   8.125   1.466  0.4129  0.9666 -0.2450
  479MOL0     C64569   4.665   8.096   1.468 -0.0804 -0.2945 -1.2142
  479MOL0     C64570   4.743   8.224   1.464 -0.0484 -0.7256  0.8041
  479MOL0     C64571   4.894   8.187   1.481 -0.1747 -0.2045 -0.0055
  479MOL0     C64572   4.982   8.311   1.511 -0.5273 -0.7066 -0.5901
  479MOL0     C64573   5.006   8.393   1.381  0.0589 -0.7753  0.2120
  479MOL0    Cl64574   5.098   8.551   1.408 -0.0136  0.0405  0.1125
  479MOL0     C64575   4.019   8.034   1.377  0.3282 -0.2696 -0.0299
  479MOL0     C64576   3.887   8.067   1.327 -1.3877  0.3096 -0.1749
  479MOL0     O64577   3.691   8.022   1.141 -1.0949 -0.2858  0.6986
  479MOL0     C64578   3.482   8.325   1.160  0.1887 -0.6103  0.6489
  479MOL0     C64579   3.352   8.377   1.124 -0.2983  0.3653 -0.1604
  479MOL0     N64580   2.641   8.229   1.310 -0.3703  0.0721  0.2420
  479MOL0     N64581   2.543   8.293   1.363  0.0895 -0.2372  0.6747
  479MOL0     C64582   1.549   9.057   1.165  0.2316 -0.4047 -0.1059
  479MOL0     C64583   1.410   9.041   1.173 -0.6190 -0.5293 -0.2457
  479MOL0     C64584   0.976   9.137   1.132  0.7673  0.3724  0.6784
  479MOL0     C64585   0.936   9.007   1.066 -0.0809 -1.0516  0.2889
  479MOL0     C64586   0.803   8.979   1.046 -0.4466 -0.2585  0.1552
  479MOL0     C64587   0.703   9.058   1.117 -0.3206 -0.3387  0.0668
  479MOL0     O64588   0.571   9.017   1.113 -0.3963  0.1289  0.2891
  479MOL0     C64589   0.529   8.950   1.232  0.2834 -0.4027  0.4777
  479MOL0     C64590   0.376   8.976   1.255 -0.5792  0.1095  0.0038
  479MOL0     C64591   0.275   8.904   1.165 -0.7292  0.2083 -0.1622
  479MOL0     C64592   0.318   8.920   1.019 -0.3713 -0.1894  0.8099
  479MOL0     C64593   0.205   8.883   0.929  0.6584 -0.1191 -0.0049
  479MOL0     C64594   0.118   8.845   0.852  0.0608  0.7565  0.6514
  479MOL0     C64595   0.744   9.168   1.196  1.3596  1.2801  0.0111
  479MOL0     C64596   0.870   9.217   1.183 -0.1677 -0.0050 -0.2180
  479MOL0     C64597   0.882   9.359   1.236  0.3937 -0.6782  0.1624
  479MOL0     H64598   1.325   9.202   0.895 -0.5280  2.5301  1.5857
  479MOL0     H64599   1.571   9.231   0.872  2.0118 -1.3836 -0.3101
  479MOL0     H64600   1.786   8.974   0.955  2.3915  0.2193 -3.2767
  479MOL0     H64601   1.916   9.097   0.960 -1.9905  0.4713 -2.4655
  479MOL0     H64602   1.839   8.932   1.214  0.3975  0.3052  2.1188
  479MOL0     H64603   1.958   9.059   1.208  0.3336  3.0987 -3.4273
  479MOL0     H64604   2.113   8.947   1.125 -1.8741  0.6038  2.9377
  479MOL0     H64605   2.022   8.889   0.988 -0.9841  2.9568 -0.6049
  479MOL0     H64606   2.003   8.768   1.274  0.8291 -2.3759 -0.0449
  479MOL0     H64607   1.935   8.692   1.145  1.5103 -1.9788 -3.2619
  479MOL0     H64608   2.178   8.682   1.036  3.5657  4.0581  0.2891
  479MOL0     H64609   2.244   8.744   1.163  1.8904 -3.3173 -1.3433
  479MOL0     H64610   2.147   8.592   1.332  4.1264 -1.7846  0.4170
  479MOL0     H64611   2.049   8.520   1.199 -0.5983 -0.3465  2.6606
  479MOL0     H64612   2.353   8.567   1.226 -0.5367 -0.0041 -1.0068
  479MOL0     H64613   2.291   8.479   1.086 -1.4223 -1.1377 -0.3405
  479MOL0     H64614   2.292   8.378   1.380  1.6892 -3.3269  1.9751
  479MOL0     H64615   2.263   8.275   1.256  2.3455 -3.9432  5.1039
  479MOL0     H64616   2.483   8.301   1.033  0.4350 -1.0329 -0.4713
  479MOL0     H64617   2.809   8.120   1.146 -1.8217 -2.6982  1.0036
  479MOL0     H64618   2.683   8.058   1.030  0.0516 -0.6577  0.4735
  479MOL0     H64619   2.812   8.187   0.880 -2.3693 -0.5864 -1.7782
  479MOL0     H64620   2.701   8.308   0.930  1.6735  2.0261  1.9249
  479MOL0     H64621   2.869   8.393   1.106 -3.2185  1.3982 -1.0221
  479MOL0     H64622   2.917   8.434   0.946 -4.7023  1.6788  0.2950
  479MOL0     H64623   3.048   8.225   0.912 -0.8773  1.6023  0.2153
  479MOL0     H64624   3.008   8.170   1.065  0.0804 -1.2293 -3.2763
  479MOL0     H64625   3.217   8.083   1.027  1.4211 -1.6689 -0.0576
  479MOL0     H64626   3.434   7.994   1.072  2.3135  0.4452 -2.3668
  479MOL0     H64627   3.946   8.399   1.260  3.8393  0.8081 -0.4734
  479MOL0     H64628   4.173   8.337   1.344 -2.0242  2.1117 -0.6024
  479MOL0     H64629   4.250   7.919   1.465 -3.0217  2.9586  2.5663
  479MOL0     H64630   4.272   7.970   1.300 -2.9958  1.3231  0.2131
  479MOL0     H64631   4.454   7.922   1.510 -0.4096 -1.1088 -0.4625
  479MOL0     H64632   4.501   7.953   1.345 -0.1627 -0.1787 -0.0941
  479MOL0     H64633   4.504   8.208   1.395  1.5198  1.0842 -0.2966
  479MOL0     H64634   4.498   8.156   1.570  2.7213  0.3322  0.3757
  479MOL0     H64635   4.701   8.039   1.382  0.3362 -0.0843 -1.1810
  479MOL0     H64636   4.683   8.046   1.564 -0.3580 -0.9264 -1.4836
  479MOL0     H64637   4.713   8.290   1.545  1.3898  1.6316 -0.4672
  479MOL0     H64638   4.725   8.278   1.371 -1.7765 -0.2379  1.3930
  479MOL0     H64639   4.897   8.127   1.573  1.2865  2.4722  1.8142
  479MOL0     H64640   4.930   8.131   1.394 -0.1486 -0.3976  0.1294
  479MOL0     H64641   5.079   8.286   1.556 -1.0261 -3.7688 -1.0320
  479MOL0     H64642   4.930   8.365   1.591  0.0109 -1.8916  0.5885
  479MOL0     H64643   5.066   8.335   1.310 -1.2653 -0.2348 -1.4416
  479MOL0     H64644   4.913   8.406   1.325  2.2857  0.9159 -3.5096
  479MOL0     H64645   4.041   7.950   1.442  0.2629  0.3521  0.8271
  479MOL0     H64646   3.801   8.006   1.352 -0.1682 -1.9900 -1.2294
  479MOL0     H64647   3.556   8.394   1.198  0.7521 -0.0969 -1.2616
  479MOL0     H64648   3.338   8.484   1.133  0.8809  0.5423 -0.2513
  479MOL0     H64649   1.610   9.008   1.241 -0.9209 -0.6655  0.6664
  479MOL0     H64650   1.375   8.995   1.265 -1.3239 -0.5015 -0.4975
  479MOL0     H64651   1.006   8.943   1.014 -2.5534 -2.3609 -1.6166
  479MOL0     H64652   0.781   8.887   0.993  0.4843 -0.0565 -0.6152
  479MOL0     H64653   0.570   8.991   1.324  1.8357 -1.5133  0.3172
  479MOL0     H64654   0.564   8.847   1.242 -1.2901 -0.7385  5.5118
  479MOL0     H64655   0.349   9.082   1.250 -0.5084  0.1107 -0.4074
  479MOL0     H64656   0.354   8.945   1.357 -0.6159  1.7133  0.5197
  479MOL0     H64657   0.171   8.934   1.184 -1.2619 -0.4321 -1.9220
  479MOL0     H64658   0.272   8.799   1.194  0.0956  0.0267 -0.7103
  479MOL0     H64659   0.356   9.019   0.991  0.1713 -0.6417 -0.0745
  479MOL0     H64660   0.392   8.841   1.009 -0.4598 -0.2657  0.7668
  479MOL0     H64661   0.046   8.811   0.781  1.0966 -0.9998  0.3879
  479MOL0     H64662   0.663   9.229   1.235  1.2003  1.4140 -0.5191
  479MOL0     H64663   0.787   9.400   1.271  2.1308  2.5510  1.4735
  479MOL0     H64664   0.951   9.362   1.321 -3.0491  0.6980  3.1709
  479MOL0     H64665   0.921   9.424   1.157  0.4521 -0.4078  0.4131
  480MOL0     O64666   2.048   7.752   0.562  0.4107 -0.3173  0.4733
  480MOL0     C64667   1.950   7.730   0.635  0.4607 -0.6344 -0.2876
  480MOL0     O64668   1.896   7.612   0.664  0.8238  0.2893  0.2195
  480MOL0     C64669   1.938   7.492   0.612  0.2715 -0.2872  0.3977
  480MOL0     C64670   1.846   7.418   0.546  0.8581 -0.1436  0.0998
  480MOL0     C64671   1.867   7.286   0.504 -0.2030 -0.0808 -0.6527
  480MOL0     C64672   1.992   7.235   0.530  0.2268  0.5907  0.2311
  480MOL0     O64673   2.034   7.112   0.485 -0.0786 -0.2969 -0.0187
  480MOL0     C64674   1.985   7.059   0.363  0.0174  0.1939 -0.3812
  480MOL0     C64675   2.007   6.910   0.356  0.2790  0.5682 -0.3925
  480MOL0     C64676   2.151   6.885   0.385 -0.0058 -0.5103  0.1484
  480MOL0     C64677   2.190   6.754   0.336 -0.2396 -0.6777  0.7075
  480MOL0     C64678   2.326   6.707   0.383  0.6825 -0.5015  0.0069
  480MOL0     C64679   2.331   6.636   0.532 -0.0604 -0.6084 -0.0041
  480MOL0     C64680   2.461   6.568   0.566  0.0458  0.5462  1.2097
  480MOL0     C64681   2.475   6.527   0.711  0.4466  0.1368  0.2281
  480MOL0     N64682   2.604   6.465   0.739  0.0008  0.4035 -0.9301
  480MOL0     C64683   2.673   6.487   0.861 -0.3833 -0.1120  0.1080
  480MOL0     C64684   2.769   6.387   0.858 -0.0595 -0.5868 -0.2374
  480MOL0     C64685   2.870   6.354   0.966  0.1851  0.3305  0.6836
  480MOL0     C64686   3.005   6.342   0.904 -0.3841 -0.7610  0.2554
  480MOL0     C64687   3.065   6.477   0.857  0.0378 -0.1661  0.0301
  480MOL0     C64688   3.183   6.446   0.772 -0.7958  0.0612  0.6440
  480MOL0     O64689   3.276   6.355   0.835 -0.1020 -0.4087  0.5359
  480MOL0     C64690   3.384   6.403   0.892 -0.7736  0.7170 -0.5904
  480MOL0     C64691   3.412   6.540   0.926  0.1952  1.4492  0.4180
  480MOL0     C64692   3.535   6.569   0.982 -0.3197  0.3202 -0.0613
  480MOL0     C64693   3.639   6.465   1.008  0.8034 -0.5756  0.1664
  480MOL0     C64694   3.768   6.499   1.068 -0.6504 -0.8223  0.3088
  480MOL0     O64695   3.850   6.391   1.095  0.5491 -0.3003 -0.4306
  480MOL0     C64696   3.984   6.411   1.137  0.5356  0.2609 -0.4859
  480MOL0     C64697   4.076   6.484   1.065 -0.5669  0.0686  0.2196
  480MOL0     C64698   4.210   6.481   1.107 -0.2180  0.6164 -0.1237
  480MOL0     C64699   4.255   6.409   1.222  0.0696  0.9362 -0.1272
  480MOL0     O64700   4.381   6.436   1.258  0.5549  0.2165 -0.4977
  480MOL0     C64701   4.442   6.365   1.367  0.4659 -0.0364  1.0482
  480MOL0     C64702   4.580   6.425   1.402 -1.2586  0.3986  0.5549
  480MOL0     C64703   4.676   6.416   1.282  0.3189 -0.3980  0.1741
  480MOL0     C64704   4.795   6.492   1.322 -0.0125 -0.9582 -0.0204
  480MOL0     C64705   4.876   6.549   1.200 -1.0898 -0.2949  0.2638
  480MOL0     C64706   4.968   6.450   1.124 -0.1590 -0.2237  0.1152
  480MOL0     C64707   5.072   6.373   1.199  0.1771 -0.5650  0.1805
  480MOL0     C64708   5.134   6.261   1.101  0.4392 -0.3200 -0.4857
  480MOL0    Cl64709   5.262   6.166   1.179  0.1283  0.1914 -0.1190
  480MOL0     C64710   4.156   6.346   1.300 -1.0513 -0.1612 -0.4916
  480MOL0     C64711   4.028   6.342   1.257 -0.8600 -0.4837  0.9922
  480MOL0     O64712   3.803   6.613   1.055  0.0548  0.3277  0.0372
  480MOL0     C64713   3.594   6.333   0.995  0.1836  0.1936  0.6983
  480MOL0     C64714   3.471   6.299   0.934 -0.6289  0.1980 -0.1102
  480MOL0     N64715   2.771   6.327   0.735  0.3917 -0.0070 -0.0265
  480MOL0     N64716   2.673   6.376   0.664  0.7053  0.5357  0.9530
  480MOL0     C64717   2.088   7.297   0.605  0.0948 -1.0299  0.4333
  480MOL0     C64718   2.064   7.436   0.645 -0.5102  0.9918 -0.2255
  480MOL0     C64719   1.882   7.849   0.703 -0.1890  0.6061 -0.2887
  480MOL0     C64720   1.930   7.978   0.672  1.1906  0.8787 -0.3408
  480MOL0     C64721   1.881   8.088   0.721  0.1093 -0.0416 -0.1182
  480MOL0     C64722   1.765   8.086   0.802 -0.2861 -0.6039 -0.2055
  480MOL0     O64723   1.698   8.191   0.857 -0.2693  0.0115  0.0597
  480MOL0     C64724   1.714   8.323   0.795  0.1707  0.7669 -1.3713
  480MOL0     C64725   1.611   8.411   0.860  0.1482 -0.2427 -0.5223
  480MOL0     C64726   1.612   8.560   0.804 -0.5290  1.0336  0.9353
  480MOL0     C64727   1.687   8.670   0.885 -0.6421 -0.3009 -0.2344
  480MOL0     C64728   1.641   8.691   1.019  0.1836 -1.1937 -0.4842
  480MOL0     C64729   1.616   8.711   1.143 -0.4585  0.0316 -0.3903
  480MOL0     C64730   1.715   7.960   0.839  0.0140  0.6862  0.2529
  480MOL0     C64731   1.763   7.839   0.784  0.5377 -0.9211  0.1810
  480MOL0     C64732   1.683   7.717   0.822 -0.3805  0.7042 -0.6464
  480MOL0     H64733   1.742   7.449   0.549  0.1540 -2.3746  2.7006
  480MOL0     H64734   1.787   7.234   0.452  2.2094 -0.0882 -4.7824
  480MOL0     H64735   1.876   7.069   0.356  0.0843  1.6491  0.2386
  480MOL0     H64736   2.026   7.110   0.275 -3.2005  2.2801 -0.8414
  480MOL0     H64737   1.975   6.868   0.260 -0.0584 -0.8514  0.3201
  480MOL0     H64738   1.947   6.851   0.425 -1.3629 -1.4323 -3.3327
  480MOL0     H64739   2.166   6.878   0.493 -2.8570 -2.2274  0.5429
  480MOL0     H64740   2.206   6.968   0.340 -0.4590  0.7476  1.8412
  480MOL0     H64741   2.120   6.679   0.375 -0.9558 -0.7029 -0.5587
  480MOL0     H64742   2.186   6.743   0.227  0.2938  0.1643  0.5920
  480MOL0     H64743   2.361   6.640   0.304  0.5156  0.0831 -0.5774
  480MOL0     H64744   2.407   6.781   0.380 -0.7933  1.1511 -0.7026
  480MOL0     H64745   2.302   6.712   0.606 -1.6334 -0.5558 -0.6373
  480MOL0     H64746   2.249   6.564   0.535 -0.1706 -0.8675 -4.1380
  480MOL0     H64747   2.551   6.627   0.544 -0.5151  0.6763 -0.9898
  480MOL0     H64748   2.466   6.481   0.499  1.2875  1.6451 -0.2148
  480MOL0     H64749   2.459   6.617   0.771 -1.1562  0.9748 -1.3616
  480MOL0     H64750   2.396   6.454   0.732 -0.5700  1.7847  2.5939
  480MOL0     H64751   2.659   6.557   0.942  2.0739  0.0939  0.4507
  480MOL0     H64752   2.866   6.432   1.043 -0.8477  1.3503 -0.3472
  480MOL0     H64753   2.839   6.260   1.013 -2.0900  0.3888 -0.5431
  480MOL0     H64754   3.070   6.305   0.984  0.2750  0.2195  0.1846
  480MOL0     H64755   3.010   6.274   0.819 -2.2636 -0.9980  0.2768
  480MOL0     H64756   3.100   6.538   0.941 -0.1842 -2.9112  2.2599
  480MOL0     H64757   2.997   6.528   0.788 -0.0684 -0.1993  0.1084
  480MOL0     H64758   3.234   6.540   0.751 -1.5486  0.3608  0.1150
  480MOL0     H64759   3.156   6.411   0.672  0.9456  1.7761 -0.4903
  480MOL0     H64760   3.335   6.614   0.908 -2.4976 -1.5999 -1.8600
  480MOL0     H64761   3.552   6.674   1.002 -0.8602  0.4873 -0.4761
  480MOL0     H64762   4.050   6.529   0.970  2.4953  1.0067 -0.3142
  480MOL0     H64763   4.290   6.530   1.053  2.9660 -3.2226  0.6408
  480MOL0     H64764   4.379   6.368   1.457 -0.2168 -0.1113  0.5858
  480MOL0     H64765   4.443   6.257   1.347 -0.3541 -0.4754  3.1083
  480MOL0     H64766   4.572   6.530   1.433  0.1087  1.0774 -1.1810
  480MOL0     H64767   4.616   6.365   1.485 -0.1717  1.7885  1.1342
  480MOL0     H64768   4.692   6.316   1.239  2.0391  0.7066 -1.9562
  480MOL0     H64769   4.639   6.473   1.197  0.2510 -1.4328 -0.5183
  480MOL0     H64770   4.847   6.416   1.381 -0.2534 -2.5588 -1.7918
  480MOL0     H64771   4.768   6.578   1.384 -2.0522 -0.3690 -1.6596
  480MOL0     H64772   4.938   6.628   1.242 -4.2902  2.6067  0.0246
  480MOL0     H64773   4.810   6.600   1.129 -0.1936 -2.3031 -2.1437
  480MOL0     H64774   4.904   6.378   1.072  2.2901 -0.7902 -2.3665
  480MOL0     H64775   5.024   6.505   1.047  0.9097  0.1108  1.0989
  480MOL0     H64776   5.016   6.329   1.282 -1.1394 -1.0782 -0.9551
  480MOL0     H64777   5.156   6.439   1.224 -1.5507  1.4093  1.1208
  480MOL0     H64778   5.047   6.199   1.077  0.0054 -0.0634  0.3795
  480MOL0     H64779   5.172   6.301   1.007  1.2963  3.9942  1.4646
  480MOL0     H64780   4.191   6.302   1.393  2.8326  3.1758 -0.0393
  480MOL0     H64781   3.962   6.283   1.319  1.3387 -1.8265  2.1680
  480MOL0     H64782   3.657   6.252   1.029 -1.6315 -1.7687 -0.3532
  480MOL0     H64783   3.442   6.197   0.910 -2.4051  0.3650  1.1664
  480MOL0     H64784   2.176   7.239   0.630  0.4847 -1.6013 -2.0044
  480MOL0     H64785   2.136   7.489   0.706  1.7411 -1.3145 -0.7203
  480MOL0     H64786   2.011   7.978   0.600  0.6897 -1.9716 -1.0166
  480MOL0     H64787   1.931   8.178   0.686 -1.7456  0.4596 -1.7086
  480MOL0     H64788   1.694   8.322   0.687  3.6199  1.5646 -2.1410
  480MOL0     H64789   1.817   8.359   0.801  0.8329 -0.3393 -4.2136
  480MOL0     H64790   1.632   8.423   0.966  1.7000  2.9860 -1.0922
  480MOL0     H64791   1.522   8.349   0.843  0.6800 -2.2945  3.2479
  480MOL0     H64792   1.507   8.588   0.790 -1.3771 -1.0034  2.8013
  480MOL0     H64793   1.664   8.556   0.708  1.0943 -2.3591  1.8029
  480MOL0     H64794   1.787   8.625   0.886  0.4996  2.0675 -0.6832
  480MOL0     H64795   1.691   8.766   0.834  0.8236 -0.7010 -0.9322
  480MOL0     H64796   1.579   8.709   1.243 -1.2319 -2.0837 -0.6745
  480MOL0     H64797   1.625   7.951   0.900 -2.0134  0.1942 -2.6256
  480MOL0     H64798   1.655   7.655   0.736 -2.6104  0.4378  0.2196
  480MOL0     H64799   1.749   7.657   0.885 -1.6835 -0.8554 -0.7072
  480MOL0     H64800   1.602   7.738   0.892  1.1015 -0.4935  1.5526
  481MOL0     O64801   7.017   1.121   9.976  1.4419 -0.2979  0.0097
  481MOL0     C64802   7.088   1.204  10.018  0.1381  0.0984 -0.4312
  481MOL0     O64803   7.215   1.179  10.065 -0.8248  0.1283  0.0482
  481MOL0     C64804   7.248   1.045  10.086  0.0997 -0.3420  0.4478
  481MOL0     C64805   7.209   0.979  10.201  0.0246 -0.4257 -0.1314
  481MOL0     C64806   7.249   0.843  10.222 -0.8084  0.0483  0.0399
  481MOL0     C64807   7.335   0.774  10.140  0.0397  0.0239 -0.2287
  481MOL0     O64808   7.373   0.648  10.164 -0.8914 -0.2249 -0.7777
  481MOL0     C64809   7.483   0.598  10.090  0.9354  0.0214  0.1054
  481MOL0     C64810   7.537   0.490  10.171  0.3997  0.8619 -0.0041
  481MOL0     C64811   7.540   0.498  10.332  0.3427 -1.1095 -0.1517
  481MOL0     C64812   7.664   0.588  10.372  0.3179  1.1044  0.9491
  481MOL0     C64813   7.645   0.654  10.510 -0.0098 -0.8986 -0.4526
  481MOL0     C64814   7.552   0.780  10.507  1.1372  0.4209  0.3468
  481MOL0     C64815   7.615   0.892  10.413 -0.3390  0.7414  0.6209
  481MOL0     C64816   7.754   0.930  10.442 -0.0134  0.2162  0.0605
  481MOL0     N64817   7.775   0.978  10.580  0.0988  0.8180  0.4047
  481MOL0     C64818   7.715   1.088  10.629 -0.3148  0.0323 -0.3915
  481MOL0     C64819   7.745   1.094  10.759  0.3595 -0.0485  0.5774
  481MOL0     C64820   7.675   1.186  10.851  0.1002  0.5460  0.3115
  481MOL0     C64821   7.745   1.318  10.872 -0.8510 -0.4213  0.5815
  481MOL0     C64822   7.666   1.429  10.942  0.3596  0.4120  0.4448
  481MOL0     C64823   7.543   1.481  10.875  0.3845  0.2908  0.2022
  481MOL0     O64824   7.492   1.587  10.962 -0.1409  0.4525  0.0458
  481MOL0     C64825   7.369   1.641  10.931  0.6172  0.0519 -0.9364
  481MOL0     C64826   7.325   1.731  11.027 -0.1221  0.0783  0.1246
  481MOL0     C64827   7.214   1.801  11.001 -0.2944 -0.3691 -0.2648
  481MOL0     C64828   7.148   1.797  10.877 -0.0551  0.5457 -0.0715
  481MOL0     C64829   7.030   1.878  10.838  0.5618 -0.6279 -0.0881
  481MOL0     O64830   6.972   1.950  10.931 -1.3369  0.0390  0.0342
  481MOL0     C64831   6.846   1.984  10.917  0.4400 -0.6859 -0.2614
  481MOL0     C64832   6.763   1.920  11.003  0.5629  0.2267 -1.0088
  481MOL0     C64833   6.624   1.960  11.015  0.1422 -0.2831 -0.5351
  481MOL0     C64834   6.575   2.066  10.947 -0.0076 -1.2083  0.4869
  481MOL0     O64835   6.446   2.093  10.974  0.2877 -0.0592  1.2142
  481MOL0     C64836   6.383   2.216  10.923 -0.3144  0.0442  0.6365
  481MOL0     C64837   6.270   2.244  11.016  0.1598  0.2700 -0.3773
  481MOL0     C64838   6.306   2.287  11.156 -0.7675 -0.4559 -0.9128
  481MOL0     C64839   6.367   2.180  11.242  0.1866  1.0784 -0.4334
  481MOL0     C64840   6.394   2.225  11.385 -0.3543  0.2467  0.2056
  481MOL0     C64841   6.287   2.170  11.489 -0.5833 -0.8278 -0.2202
  481MOL0     C64842   6.314   2.217  11.629  0.2748 -0.4093 -0.4657
  481MOL0     C64843   6.304   2.367  11.642 -0.9437  0.7881 -0.5237
  481MOL0    Cl64844   6.356   2.414  11.799 -0.2043 -0.1272 -0.0144
  481MOL0     C64845   6.668   2.141  10.859 -0.3598  0.0874  0.0206
  481MOL0     C64846   6.802   2.103  10.858  0.3441  1.1508 -1.0285
  481MOL0     O64847   6.986   1.872  10.721  0.3208  0.3702  0.6644
  481MOL0     C64848   7.200   1.704  10.777  0.0429 -0.5987 -0.6397
  481MOL0     C64849   7.308   1.630  10.809  0.2354 -0.3703  1.2110
  481MOL0     N64850   7.815   0.984  10.787  0.1498 -0.2310  0.2030
  481MOL0     N64851   7.837   0.913  10.684 -0.1464  0.1240 -0.7319
  481MOL0     C64852   7.373   0.848  10.026  0.4361  0.4640  0.7409
  481MOL0     C64853   7.330   0.974   9.996  0.0843 -0.4128 -0.0821
  481MOL0     C64854   7.036   1.345  10.017 -0.5388 -0.8981 -0.2315
  481MOL0     C64855   7.130   1.443  10.062 -0.0368  0.1533 -0.3971
  481MOL0     C64856   7.104   1.577  10.039  0.2528 -0.0817  0.0643
  481MOL0     C64857   6.987   1.630   9.993  0.0670  0.6033 -0.5339
  481MOL0     O64858   6.981   1.766   9.957 -0.0547  0.4569 -0.9070
  481MOL0     C64859   6.890   1.805   9.855 -0.0265 -0.2923 -0.3115
  481MOL0     C64860   6.775   1.859   9.925  0.5015 -0.0502  0.9782
  481MOL0     C64861   6.661   1.890   9.819 -0.6697  0.2224  0.3037
  481MOL0     C64862   6.685   2.002   9.711 -0.3477  0.1568  0.6627
  481MOL0     C64863   6.566   2.030   9.632  0.0297 -0.7894 -0.0823
  481MOL0     C64864   6.461   2.068   9.582  0.2917 -0.4378 -0.2804
  481MOL0     C64865   6.887   1.529   9.956  0.5447 -0.9073  0.9124
  481MOL0     C64866   6.914   1.394   9.957 -0.0714 -0.4963  0.6266
  481MOL0     C64867   6.826   1.302   9.877  0.4863  0.3138 -0.4345
  481MOL0     H64868   7.145   1.038  10.265 -1.0086  0.4942 -1.9421
  481MOL0     H64869   7.217   0.793  10.313 -1.2187  0.9290  0.3999
  481MOL0     H64870   7.452   0.555   9.995 -3.0781  0.7775  0.9048
  481MOL0     H64871   7.559   0.675  10.077 -0.9712  2.0412  0.3727
  481MOL0     H64872   7.638   0.460  10.139 -1.2877 -2.8467 -2.5977
  481MOL0     H64873   7.486   0.400  10.137  3.8012 -0.7256 -1.4233
  481MOL0     H64874   7.546   0.405  10.388  1.0257 -0.3454  1.0869
  481MOL0     H64875   7.446   0.537  10.372  0.8322 -0.2236  0.1583
  481MOL0     H64876   7.752   0.524  10.360 -2.0216 -2.3839  0.9587
  481MOL0     H64877   7.672   0.665  10.295 -2.3969  0.1440 -0.4096
  481MOL0     H64878   7.599   0.584  10.581  0.3722  1.3007  2.1332
  481MOL0     H64879   7.743   0.679  10.552 -0.4818 -0.0122  0.1619
  481MOL0     H64880   7.454   0.749  10.468  1.1272 -0.1594  0.8210
  481MOL0     H64881   7.534   0.831  10.603  0.8261  0.4386  0.2819
  481MOL0     H64882   7.556   0.984  10.418 -1.5253 -0.0573  2.3013
  481MOL0     H64883   7.615   0.867  10.307  2.2721 -0.0976  0.7595
  481MOL0     H64884   7.830   0.852  10.432  0.2824  0.5896 -0.5869
  481MOL0     H64885   7.787   1.008  10.374 -0.3254 -0.0498 -0.4020
  481MOL0     H64886   7.655   1.162  10.577  0.7885  3.4776  2.8127
  481MOL0     H64887   7.577   1.206  10.807  1.3145  1.4211 -2.1983
  481MOL0     H64888   7.657   1.141  10.949  1.8445 -1.1374 -0.0824
  481MOL0     H64889   7.833   1.287  10.929 -0.6669  0.3914  0.7470
  481MOL0     H64890   7.781   1.354  10.775 -2.0334 -1.7240 -0.3805
  481MOL0     H64891   7.734   1.515  10.949 -0.8690  1.6531 -1.6171
  481MOL0     H64892   7.629   1.397  11.040 -2.7892  0.3467 -0.6545
  481MOL0     H64893   7.460   1.411  10.866  0.3292  0.0297  2.2922
  481MOL0     H64894   7.563   1.525  10.776  3.8988 -0.8573  0.2567
  481MOL0     H64895   7.387   1.740  11.116 -0.3959  1.4775  0.2017
  481MOL0     H64896   7.189   1.885  11.066  1.8088  2.5270 -2.8589
  481MOL0     H64897   6.801   1.836  11.061  1.6018  0.5406 -1.2239
  481MOL0     H64898   6.556   1.908  11.083 -0.6759  2.4043  0.8608
  481MOL0     H64899   6.456   2.299  10.924  0.6178 -0.7368 -0.2738
  481MOL0     H64900   6.341   2.212  10.822 -1.0448 -1.1752  0.9689
  481MOL0     H64901   6.199   2.318  10.978 -1.4920 -1.3790 -0.6500
  481MOL0     H64902   6.206   2.155  11.016 -0.2818  0.5763  0.1672
  481MOL0     H64903   6.382   2.366  11.165 -0.0442 -1.2920  0.7112
  481MOL0     H64904   6.215   2.321  11.207 -0.5497 -1.1236 -0.0489
  481MOL0     H64905   6.464   2.164  11.195  0.8953  3.1429  0.2275
  481MOL0     H64906   6.303   2.092  11.237 -0.2040  1.2626  0.8943
  481MOL0     H64907   6.392   2.334  11.382 -2.3936  0.2370 -0.5250
  481MOL0     H64908   6.496   2.192  11.407  0.0667  1.3774  0.0152
  481MOL0     H64909   6.185   2.195  11.460 -0.7595 -0.3667  0.7584
  481MOL0     H64910   6.298   2.062  11.475 -2.2789 -0.6016 -4.5974
  481MOL0     H64911   6.409   2.177  11.667 -0.6659 -0.4143  2.1083
  481MOL0     H64912   6.238   2.181  11.698  0.7217 -1.7758 -0.6632
  481MOL0     H64913   6.362   2.423  11.568 -1.0907  0.9633 -0.5049
  481MOL0     H64914   6.198   2.391  11.627 -1.1848 -1.6673 -4.3070
  481MOL0     H64915   6.644   2.218  10.786  2.0085  1.6002  0.7405
  481MOL0     H64916   6.878   2.153  10.799  0.7533  0.0233 -1.4805
  481MOL0     H64917   7.152   1.692  10.681 -3.4719 -0.7689  0.9616
  481MOL0     H64918   7.356   1.567  10.735  2.8018  1.7068  0.9469
  481MOL0     H64919   7.440   0.808   9.950 -0.7671  1.6925 -1.0764
  481MOL0     H64920   7.380   1.031   9.919  0.0119  2.4701  1.8355
  481MOL0     H64921   7.228   1.420  10.103 -0.2621 -0.1702 -0.0322
  481MOL0     H64922   7.187   1.647  10.040 -0.9852  1.4494  1.7689
  481MOL0     H64923   6.854   1.725   9.790  0.5252 -0.9475  0.1773
  481MOL0     H64924   6.931   1.889   9.797 -0.1764  1.4028  1.9016
  481MOL0     H64925   6.803   1.949   9.981  0.0665 -0.4810  1.9133
  481MOL0     H64926   6.752   1.778   9.995  1.8672 -0.0687  1.4362
  481MOL0     H64927   6.566   1.904   9.872 -2.1577  1.1145 -2.3944
  481MOL0     H64928   6.652   1.802   9.754  1.3058  0.3853 -0.2447
  481MOL0     H64929   6.721   2.091   9.764 -0.9849  1.6069 -1.2324
  481MOL0     H64930   6.763   1.961   9.646 -1.0092 -1.0694  0.6162
  481MOL0     H64931   6.371   2.107   9.539  0.2366 -0.9501 -0.6421
  481MOL0     H64932   6.785   1.545   9.923 -0.2975 -3.4376  2.0371
  481MOL0     H64933   6.758   1.245   9.942  1.0280  0.7373  0.5293
  481MOL0     H64934   6.752   1.356   9.818  0.0434  2.0600  1.5944
  481MOL0     H64935   6.878   1.227   9.817 -2.0987 -1.6495 -0.3926
  482MOL0     O64936   3.862   1.647   1.375 -0.6526  0.4064  0.1398
  482MOL0     C64937   3.763   1.638   1.302  0.1023  0.2570 -0.1738
  482MOL0     O64938   3.742   1.712   1.189  0.7438  0.0371 -1.0123
  482MOL0     C64939   3.836   1.803   1.159  0.7050  0.1709 -0.6429
  482MOL0     C64940   3.851   1.927   1.229  0.2274  0.0551  0.6202
  482MOL0     C64941   3.941   2.019   1.186 -0.0026  0.4320  0.0899
  482MOL0     C64942   4.018   1.996   1.066  1.6430  0.0816  0.5501
  482MOL0     O64943   4.091   2.107   1.029  0.3585 -0.5483 -0.4153
  482MOL0     C64944   4.192   2.095   0.932 -0.9818  0.8278 -0.0794
  482MOL0     C64945   4.233   2.234   0.895  0.0476  0.0810  0.7143
  482MOL0     C64946   4.355   2.233   0.808 -0.8979  0.0965 -0.2278
  482MOL0     C64947   4.416   2.370   0.772 -0.3422  0.4991 -0.1317
  482MOL0     C64948   4.558   2.339   0.719 -0.4658  0.1706  0.5979
  482MOL0     C64949   4.640   2.474   0.693 -0.1586  0.0832  0.0585
  482MOL0     C64950   4.779   2.452   0.640  0.1162  0.5698  0.6100
  482MOL0     C64951   4.868   2.569   0.669 -0.4489  0.4889  0.8323
  482MOL0     N64952   5.008   2.562   0.621 -0.4421 -0.1060 -0.3058
  482MOL0     C64953   5.085   2.454   0.623  0.0374  0.2529 -0.0526
  482MOL0     C64954   5.198   2.483   0.558  0.5742 -0.3400  0.2214
  482MOL0     C64955   5.325   2.412   0.520 -1.0970  0.7527 -0.0857
  482MOL0     C64956   5.438   2.426   0.617  0.6687  0.4897  0.3566
  482MOL0     C64957   5.498   2.569   0.625 -0.7048 -0.2399  0.0776
  482MOL0     C64958   5.626   2.568   0.714 -0.3892  0.4701  1.1706
  482MOL0     O64959   5.744   2.514   0.648 -0.5650 -0.0080  0.0669
  482MOL0     C64960   5.863   2.528   0.714 -0.0048 -0.1614 -0.1069
  482MOL0     C64961   5.875   2.570   0.855  0.4561 -0.1452  0.9180
  482MOL0     C64962   5.999   2.577   0.919  0.1498  0.0851 -0.2648
  482MOL0     C64963   6.112   2.541   0.842 -0.2635 -0.0258 -0.2838
  482MOL0     C64964   6.252   2.548   0.896  0.7832 -0.3454 -0.3427
  482MOL0     O64965   6.352   2.459   0.845  0.4829  0.1724  0.1013
  482MOL0     C64966   6.475   2.472   0.899 -0.5815  0.5120  0.9070
  482MOL0     C64967   6.541   2.382   0.987  0.1312 -0.4735  0.4252
  482MOL0     C64968   6.667   2.409   1.041  0.0677 -0.6204  0.1504
  482MOL0     C64969   6.735   2.528   1.013  0.3636  0.1163 -0.9644
  482MOL0     O64970   6.864   2.557   1.048  0.2473  0.3105  0.4501
  482MOL0     C64971   6.966   2.449   1.034  0.2933 -0.2036 -0.7267
  482MOL0     C64972   7.108   2.506   1.017 -0.1902  0.5079 -0.1869
  482MOL0     C64973   7.162   2.600   1.119 -0.3083  0.4610  0.2796
  482MOL0     C64974   7.240   2.732   1.069  0.5733  0.6799 -0.3833
  482MOL0     C64975   7.377   2.748   1.119 -0.0463 -0.1054  0.7234
  482MOL0     C64976   7.437   2.881   1.076  0.0787  0.6353 -0.6356
  482MOL0     C64977   7.588   2.901   1.088  0.3302  0.4949  0.3530
  482MOL0     C64978   7.628   3.037   1.065 -0.5712  0.4031  0.0493
  482MOL0    Cl64979   7.562   3.121   0.921 -0.1728  0.0729 -0.4693
  482MOL0     C64980   6.674   2.622   0.928  0.5456 -0.5907 -0.2516
  482MOL0     C64981   6.550   2.584   0.862 -0.4018  0.2123 -0.3797
  482MOL0     O64982   6.275   2.637   0.978 -0.2168  0.0021  0.5719
  482MOL0     C64983   6.093   2.484   0.720  0.2956  0.0487  0.3875
  482MOL0     C64984   5.975   2.475   0.651  0.2630  0.2679  0.0371
  482MOL0     N64985   5.182   2.618   0.523 -0.0037 -0.3411 -1.0526
  482MOL0     N64986   5.073   2.666   0.561  0.1482 -0.5570  0.5518
  482MOL0     C64987   3.989   1.879   0.988  0.5478 -0.3271  0.0478
  482MOL0     C64988   3.903   1.783   1.038 -0.6740 -0.7495  0.4673
  482MOL0     C64989   3.655   1.556   1.350 -0.6982 -0.1874  0.6970
  482MOL0     C64990   3.551   1.522   1.253 -0.3689 -0.7599 -0.3593
  482MOL0     C64991   3.454   1.427   1.268 -0.0200 -0.4993 -0.0622
  482MOL0     C64992   3.444   1.371   1.397 -0.0850 -0.7436 -0.2742
  482MOL0     O64993   3.366   1.266   1.440  0.6058  0.1962 -0.2505
  482MOL0     C64994   3.241   1.242   1.363 -0.0827 -0.6806 -0.4032
  482MOL0     C64995   3.123   1.254   1.458  0.9286  0.1156 -0.5011
  482MOL0     C64996   2.983   1.269   1.391  0.2253 -0.7032  0.5510
  482MOL0     C64997   2.910   1.139   1.375 -0.6414  0.1064  0.3332
  482MOL0     C64998   2.990   1.039   1.304  0.7397  0.4048  0.6072
  482MOL0     C64999   3.051   0.944   1.250  0.7565  0.7769 -0.4685
  482MOL0     C65000   3.535   1.401   1.496  0.1658 -0.0460  0.4058
  482MOL0     C65001   3.635   1.499   1.478 -0.3234  0.5269  0.0752
  482MOL0     C65002   3.722   1.522   1.593  0.1375  0.8706 -0.1922
  482MOL0     H65003   3.779   1.961   1.303  1.7529  0.1761  2.1182
  482MOL0     H65004   3.948   2.109   1.247 -0.8666 -0.4356  1.5244
  482MOL0     H65005   4.278   2.057   0.988 -0.4095 -0.1301 -1.5646
  482MOL0     H65006   4.165   2.034   0.846 -0.9445 -1.9919  1.8035
  482MOL0     H65007   4.245   2.296   0.984  0.2945  1.0421  0.0315
  482MOL0     H65008   4.157   2.279   0.831  0.1940 -1.2214 -0.4358
  482MOL0     H65009   4.340   2.175   0.716  1.5481 -1.0542  0.0215
  482MOL0     H65010   4.430   2.183   0.870  0.1261  0.0412 -1.4619
  482MOL0     H65011   4.353   2.415   0.694  0.2030  1.4566 -0.0288
  482MOL0     H65012   4.413   2.437   0.858 -1.1128  2.0494 -1.3093
  482MOL0     H65013   4.618   2.272   0.782  1.0657 -0.1945 -1.1737
  482MOL0     H65014   4.539   2.287   0.625  1.2517  1.5533 -0.5877
  482MOL0     H65015   4.598   2.531   0.610 -0.9885 -1.4753 -0.6398
  482MOL0     H65016   4.650   2.530   0.786 -0.2635  1.3575 -0.6696
  482MOL0     H65017   4.771   2.440   0.531 -1.4591  4.0676  0.1965
  482MOL0     H65018   4.833   2.372   0.691  1.9457  1.9901  1.0196
  482MOL0     H65019   4.823   2.659   0.627 -0.8370 -0.6931 -1.4346
  482MOL0     H65020   4.879   2.576   0.777  0.1338  0.5467  0.7730
  482MOL0     H65021   5.074   2.364   0.682  3.4413 -0.3162 -0.0618
  482MOL0     H65022   5.296   2.307   0.531 -1.9204  1.0524  0.8297
  482MOL0     H65023   5.368   2.431   0.422  1.4995 -1.4295  0.5028
  482MOL0     H65024   5.393   2.404   0.714  0.5853  0.4872  0.3171
  482MOL0     H65025   5.512   2.350   0.589  0.0185 -0.8646  2.1622
  482MOL0     H65026   5.434   2.640   0.677  0.4314 -0.8718  2.4932
  482MOL0     H65027   5.522   2.611   0.527 -0.1799  0.6056  0.5585
  482MOL0     H65028   5.610   2.502   0.799 -0.5481 -1.9281 -0.6297
  482MOL0     H65029   5.648   2.667   0.756  2.3159  0.6775 -0.4574
  482MOL0     H65030   5.792   2.605   0.916  0.6673  5.2314 -1.2955
  482MOL0     H65031   6.007   2.590   1.027 -1.4842 -3.0458  0.3440
  482MOL0     H65032   6.491   2.292   1.021 -1.5249 -0.0741 -0.8081
  482MOL0     H65033   6.717   2.329   1.095 -1.4715 -0.6549  1.6293
  482MOL0     H65034   6.965   2.386   1.123 -0.2840  0.5182 -0.2089
  482MOL0     H65035   6.955   2.384   0.947  0.8373  0.7268 -1.5066
  482MOL0     H65036   7.173   2.418   1.012 -0.9801 -0.0888 -0.2268
  482MOL0     H65037   7.116   2.555   0.919 -0.5200 -0.3707 -0.6669
  482MOL0     H65038   7.085   2.633   1.189 -1.2327 -0.8039 -0.0906
  482MOL0     H65039   7.235   2.553   1.185 -0.5608  0.7267  0.7478
  482MOL0     H65040   7.174   2.815   1.096  0.2341 -0.2898  2.0692
  482MOL0     H65041   7.243   2.721   0.960 -1.6369  0.4232 -0.4788
  482MOL0     H65042   7.437   2.668   1.076  2.5809 -0.1833  4.1157
  482MOL0     H65043   7.371   2.735   1.228  2.1166 -0.9962  0.7831
  482MOL0     H65044   7.392   2.882   0.976 -1.6893  1.7747  0.1207
  482MOL0     H65045   7.391   2.969   1.121 -0.4907 -0.1463  0.3294
  482MOL0     H65046   7.633   2.826   1.022  0.9958  0.2021  1.1126
  482MOL0     H65047   7.630   2.866   1.183  1.1120 -0.9403 -0.4801
  482MOL0     H65048   7.595   3.089   1.155 -0.3842 -2.0187  1.5961
  482MOL0     H65049   7.737   3.031   1.059 -0.7140 -1.4082 -2.0339
  482MOL0     H65050   6.724   2.715   0.904 -0.3102  0.0739  0.4932
  482MOL0     H65051   6.521   2.661   0.791  0.6938  0.6513 -0.3847
  482MOL0     H65052   6.175   2.435   0.668  0.2206 -1.0557  1.2888
  482MOL0     H65053   5.976   2.406   0.567  1.0259 -1.4623  1.3996
  482MOL0     H65054   4.033   1.867   0.889 -1.9259 -0.0236 -1.1729
  482MOL0     H65055   3.875   1.699   0.976  1.0821  0.4898 -2.2326
  482MOL0     H65056   3.554   1.565   1.154  1.5924  1.5559  0.5831
  482MOL0     H65057   3.393   1.393   1.185 -2.3138 -0.0132  1.3406
  482MOL0     H65058   3.252   1.148   1.308 -0.0510 -0.5489 -0.6235
  482MOL0     H65059   3.233   1.313   1.280  1.6981 -1.2133 -1.0776
  482MOL0     H65060   3.143   1.349   1.509  0.7693 -0.3047  0.3710
  482MOL0     H65061   3.119   1.174   1.533 -2.5928 -0.9835 -1.6465
  482MOL0     H65062   2.995   1.322   1.296 -0.9501  1.2355  1.4286
  482MOL0     H65063   2.920   1.336   1.450  1.2793  0.7059  0.1580
  482MOL0     H65064   2.912   1.093   1.474  0.6474  1.7259  1.1177
  482MOL0     H65065   2.809   1.148   1.333  0.3615  0.3333 -2.2200
  482MOL0     H65066   3.106   0.869   1.198  0.0885  0.1922 -0.3442
  482MOL0     H65067   3.540   1.360   1.596  2.8509 -0.2338  0.2838
  482MOL0     H65068   3.701   1.621   1.637 -0.0162  0.4265  0.7782
  482MOL0     H65069   3.711   1.442   1.667  1.6405  1.1911  0.4185
  482MOL0     H65070   3.828   1.517   1.569  0.2817 -1.6405  0.6695
  483MOL0     O65071  10.315   9.382   2.767 -0.9721 -0.0232 -0.7941
  483MOL0     C65072  10.288   9.501   2.754  0.3359  0.2142 -0.3238
  483MOL0     O65073  10.346   9.583   2.663  0.3615 -0.1292  0.1857
  483MOL0     C65074  10.457   9.553   2.593 -0.0995 -0.6702  0.4298
  483MOL0     C65075  10.473   9.421   2.526 -0.3477  0.0009  0.4868
  483MOL0     C65076  10.591   9.389   2.457  0.6878  0.5888 -0.5298
  483MOL0     C65077  10.696   9.475   2.447 -0.4159  0.8930 -0.5768
  483MOL0     O65078  10.805   9.423   2.382 -0.4713  0.8545  0.4726
  483MOL0     C65079  10.908   9.526   2.336 -0.1432 -0.1211 -0.3593
  483MOL0     C65080  11.025   9.472   2.251  0.7967 -0.0173 -0.1983
  483MOL0     C65081  11.141   9.578   2.262  0.1037  0.3313 -0.1677
  483MOL0     C65082  11.276   9.506   2.228  0.3651  0.0283 -1.4377
  483MOL0     C65083  11.387   9.606   2.173  0.2461 -0.8068 -1.2697
  483MOL0     C65084  11.512   9.534   2.123 -0.0825 -0.2339 -0.2273
  483MOL0     C65085  11.502   9.437   2.014 -0.1629 -0.3489  0.6683
  483MOL0     C65086  11.635   9.391   1.964 -0.6649  0.5891  1.2135
  483MOL0     N65087  11.709   9.468   1.873 -0.4130 -0.6810 -0.0050
  483MOL0     C65088  11.813   9.436   1.791 -0.2580 -0.3088 -0.1672
  483MOL0     C65089  11.831   9.541   1.705 -0.1695  0.3715 -0.4467
  483MOL0     C65090  11.936   9.549   1.596  0.5461 -0.1427  0.6906
  483MOL0     C65091  12.069   9.602   1.654 -0.1147 -0.0319  0.9356
  483MOL0     C65092  12.177   9.600   1.540  0.8172 -0.7419 -0.3432
  483MOL0     C65093  12.304   9.687   1.569  0.1675  0.1254 -0.1104
  483MOL0     O65094  12.393   9.661   1.465  0.2447  0.9309 -0.1596
  483MOL0     C65095  12.516   9.730   1.460  0.6982  0.2928 -0.3093
  483MOL0     C65096  12.560   9.832   1.538 -1.2077  0.1774  0.7976
  483MOL0     C65097  12.692   9.884   1.522  0.1750  0.9589  0.3267
  483MOL0     C65098  12.780   9.825   1.421  0.2057 -0.1242 -0.1341
  483MOL0     C65099  12.912   9.884   1.386 -0.9330 -0.4625 -0.7423
  483MOL0     O65100  13.003   9.788   1.344  0.1441 -0.1048 -0.0062
  483MOL0     C65101  13.119   9.828   1.285  0.2090  0.4606 -0.1032
  483MOL0     C65102  13.214   9.902   1.359 -0.4640  0.2771  0.3388
  483MOL0     C65103  13.348   9.921   1.309  0.1761  0.1880  0.1677
  483MOL0     C65104  13.386   9.869   1.180  0.4672 -0.4836 -0.0591
  483MOL0     O65105  13.499   9.882   1.117 -0.2891 -0.3692  0.4187
  483MOL0     C65106  13.622   9.905   1.190  0.8052  0.1376  0.3746
  483MOL0     C65107  13.708   9.996   1.111 -0.3749  0.7212  0.0410
  483MOL0     C65108  13.787   9.921   0.995  0.2643  0.2583 -0.2562
  483MOL0     C65109  13.916  10.000   0.973  0.2455 -0.6146 -0.1088
  483MOL0     C65110  14.007   9.948   0.864 -0.0020  0.8489  0.2987
  483MOL0     C65111  14.128  10.033   0.838 -0.0881  0.7118 -0.1940
  483MOL0     C65112  14.234   9.960   0.747  0.0689 -0.2378 -0.5191
  483MOL0     C65113  14.329  10.056   0.669 -0.3107 -0.4823 -0.3789
  483MOL0    Cl65114  14.422  10.153   0.784  0.4298 -0.0226  0.2868
  483MOL0     C65115  13.286   9.810   1.103  0.6950  0.2531 -0.3433
  483MOL0     C65116  13.153   9.785   1.154 -0.5078  0.2530  0.7837
  483MOL0     O65117  12.926  10.010   1.388 -0.2803  1.0429  0.4977
  483MOL0     C65118  12.734   9.711   1.354  0.2741  0.6812 -0.2880
  483MOL0     C65119  12.601   9.667   1.371 -0.8641  0.0321 -0.3626
  483MOL0     N65120  11.756   9.645   1.751 -0.5558 -0.1687 -0.2626
  483MOL0     N65121  11.682   9.602   1.845  0.5579  0.6365  0.4556
  483MOL0     C65122  10.669   9.610   2.488  0.3220 -0.5386  1.0215
  483MOL0     C65123  10.559   9.647   2.566 -0.0179  0.8005 -0.6147
  483MOL0     C65124  10.196   9.558   2.849 -0.0688 -0.6091  1.0491
  483MOL0     C65125  10.134   9.473   2.943  0.6322 -0.4384  0.2429
  483MOL0     C65126  10.024   9.508   3.016 -0.2071  0.1422 -0.1824
  483MOL0     C65127   9.977   9.633   3.011 -0.7708 -0.2643 -0.1834
  483MOL0     O65128   9.863   9.658   3.076 -0.2144  0.5902 -0.6220
  483MOL0     C65129   9.885   9.732   3.192  0.3821 -0.2146 -0.0546
  483MOL0     C65130   9.781   9.850   3.196  0.3935  0.2706  0.0473
  483MOL0     C65131   9.780   9.931   3.333  0.6916  0.5022  0.4019
  483MOL0     C65132   9.906  10.034   3.344 -0.2520  0.4804  0.3807
  483MOL0     C65133   9.926  10.122   3.233  0.7782  0.9999  0.1554
  483MOL0     C65134   9.945  10.194   3.137  0.5643 -0.8079 -0.8040
  483MOL0     C65135  10.041   9.730   2.931  0.2300  0.6590 -0.2164
  483MOL0     C65136  10.158   9.697   2.861  0.1493  0.3601 -0.5715
  483MOL0     C65137  10.244   9.806   2.805 -0.5957 -0.0211 -0.4116
  483MOL0     H65138  10.415   9.329   2.528  0.7434 -0.7710 -0.9524
  483MOL0     H65139  10.591   9.287   2.422  1.1508  0.4542 -0.1468
  483MOL0     H65140  10.865   9.610   2.282  1.5193 -0.7811 -2.9082
  483MOL0     H65141  10.945   9.560   2.434  0.4537 -2.4879  0.3118
  483MOL0     H65142  10.997   9.457   2.146 -1.4904  0.6976  0.2463
  483MOL0     H65143  11.058   9.376   2.291 -1.4755 -0.2403  1.3346
  483MOL0     H65144  11.137   9.623   2.362 -5.3809 -0.3335  0.2110
  483MOL0     H65145  11.127   9.655   2.185 -1.5631  0.5590  0.3257
  483MOL0     H65146  11.315   9.464   2.321 -2.4994 -0.4481 -0.3471
  483MOL0     H65147  11.266   9.428   2.152 -1.2066 -0.5655 -0.6597
  483MOL0     H65148  11.354   9.672   2.092  2.0343 -0.6245 -1.9017
  483MOL0     H65149  11.408   9.665   2.262 -2.4161  0.4616 -1.3859
  483MOL0     H65150  11.592   9.602   2.094 -0.4394 -0.4420 -1.7801
  483MOL0     H65151  11.560   9.486   2.209 -0.3100 -0.4875 -0.2394
  483MOL0     H65152  11.439   9.476   1.934  2.1612  0.6879 -0.7674
  483MOL0     H65153  11.458   9.345   2.053  2.8000 -1.4141  1.7725
  483MOL0     H65154  11.700   9.391   2.051 -0.8901  2.2568  1.4198
  483MOL0     H65155  11.607   9.292   1.927  0.6343 -0.9683  4.1266
  483MOL0     H65156  11.867   9.343   1.776 -1.3887 -1.5729  2.9346
  483MOL0     H65157  11.946   9.444   1.566 -0.1297 -0.0669  0.1626
  483MOL0     H65158  11.899   9.614   1.516  0.4995 -0.9494  0.0388
  483MOL0     H65159  12.059   9.705   1.691  1.8914  1.2507 -1.8141
  483MOL0     H65160  12.099   9.536   1.736  1.9305  3.0980  2.9398
  483MOL0     H65161  12.133   9.628   1.444  0.6724 -0.1925 -0.1233
  483MOL0     H65162  12.207   9.495   1.540  0.1306 -1.0232  2.3376
  483MOL0     H65163  12.349   9.667   1.667 -0.7632  0.2182  0.3394
  483MOL0     H65164  12.272   9.791   1.560 -0.2140  0.0630  0.4858
  483MOL0     H65165  12.492   9.888   1.602  0.0878  1.5624  1.0338
  483MOL0     H65166  12.724   9.974   1.575  3.9671 -0.1885  0.2879
  483MOL0     H65167  13.191   9.944   1.456  1.2429  4.2019 -0.7572
  483MOL0     H65168  13.415   9.963   1.384 -1.8298 -1.4126  3.1008
  483MOL0     H65169  13.607   9.947   1.290  3.5486  1.1114  0.4435
  483MOL0     H65170  13.675   9.810   1.196 -0.3894 -0.7001 -1.6433
  483MOL0     H65171  13.661  10.093   1.089 -0.3359  1.5147  2.9796
  483MOL0     H65172  13.784  10.020   1.186 -1.2644 -0.2478  1.3048
  483MOL0     H65173  13.813   9.818   1.021 -1.7880  0.1235  1.5830
  483MOL0     H65174  13.733   9.930   0.901 -1.1873  0.7711  0.5962
  483MOL0     H65175  13.980  10.010   1.061  0.0072 -0.1737  0.0183
  483MOL0     H65176  13.889  10.106   0.962  0.3409 -0.0269  3.7834
  483MOL0     H65177  13.948   9.935   0.773 -2.4656  1.8405  1.6351
  483MOL0     H65178  14.029   9.845   0.891 -1.4780  0.2855 -0.5155
  483MOL0     H65179  14.089  10.119   0.782 -2.1707 -0.4834 -0.6694
  483MOL0     H65180  14.173  10.064   0.933  0.4670 -1.9971  0.4950
  483MOL0     H65181  14.188   9.894   0.672 -0.0668  0.5042 -1.0935
  483MOL0     H65182  14.291   9.902   0.821  2.5021  2.1902 -0.3407
  483MOL0     H65183  14.397  10.002   0.602  0.5721  0.1647 -0.0303
  483MOL0     H65184  14.269  10.126   0.610  1.3382  1.0557 -0.3166
  483MOL0     H65185  13.321   9.789   1.002  1.6717 -1.4366  0.3014
  483MOL0     H65186  13.072   9.740   1.097 -0.6764  1.7342 -0.2282
  483MOL0     H65187  12.794   9.664   1.276 -0.7593 -1.6521  0.2445
  483MOL0     H65188  12.553   9.586   1.317  1.4614 -0.9205 -1.1137
  483MOL0     H65189  10.741   9.685   2.457 -1.4913  1.1503  0.6857
  483MOL0     H65190  10.541   9.747   2.607 -1.0389  0.8385 -1.1341
  483MOL0     H65191  10.155   9.367   2.947 -0.6031 -0.6813  0.9096
  483MOL0     H65192   9.968   9.427   3.063  0.9561 -1.1885 -0.9960
  483MOL0     H65193   9.981   9.784   3.206 -2.8020  6.7855  0.0925
  483MOL0     H65194   9.869   9.660   3.273 -1.9288 -2.0687 -2.0076
  483MOL0     H65195   9.691   9.789   3.186 -0.2438  0.8787  1.7144
  483MOL0     H65196   9.786   9.903   3.101 -2.5075 -1.7245 -1.3921
  483MOL0     H65197   9.768   9.863   3.418  0.0776 -1.0225 -0.8760
  483MOL0     H65198   9.686   9.987   3.324 -1.0968 -2.1073  1.5934
  483MOL0     H65199   9.904  10.086   3.440  4.2771 -0.7107  1.3950
  483MOL0     H65200   9.993   9.967   3.339  0.3371  1.3401 -2.2229
  483MOL0     H65201   9.968  10.264   3.059 -0.0215  0.3557  0.0232
  483MOL0     H65202  10.007   9.832   2.948  0.7691  0.2116  5.2236
  483MOL0     H65203  10.234   9.897   2.864  0.1500  1.0648 -1.9071
  483MOL0     H65204  10.350   9.789   2.826 -0.1989  0.7434 -1.7179
  483MOL0     H65205  10.236   9.830   2.699 -1.6185  0.3740 -0.2516
  484MOL0     O65206   8.126  11.022   2.667 -0.7511  0.0361  0.2398
  484MOL0     C65207   8.113  11.095   2.764  0.4089 -0.5412 -0.6777
  484MOL0     O65208   8.133  11.053   2.894 -0.1139 -0.1558  0.2948
  484MOL0     C65209   8.161  10.924   2.908 -0.4581  0.7452 -0.3975
  484MOL0     C65210   8.286  10.897   2.965 -0.0148  0.7013  0.7753
  484MOL0     C65211   8.328  10.763   2.984 -0.4639  0.7031  0.3669
  484MOL0     C65212   8.234  10.666   2.964 -0.9475 -0.0245 -0.3091
  484MOL0     O65213   8.289  10.541   2.990 -0.3867 -0.0660 -0.1075
  484MOL0     C65214   8.207  10.425   2.980  0.4902  0.0854 -0.2017
  484MOL0     C65215   8.124  10.431   3.117 -0.3350 -0.3455 -0.2230
  484MOL0     C65216   8.034  10.306   3.133  0.0566 -0.7679  0.2622
  484MOL0     C65217   7.912  10.287   3.030 -0.9357 -0.6659 -0.8230
  484MOL0     C65218   7.816  10.185   3.087 -0.1333  0.0156 -0.6260
  484MOL0     C65219   7.728  10.130   2.976 -0.5704 -0.5235  0.4554
  484MOL0     C65220   7.598  10.086   3.040 -0.4133 -0.7167 -0.2554
  484MOL0     C65221   7.523   9.998   2.940  0.4312 -0.2814  0.7668
  484MOL0     N65222   7.381   9.999   2.951 -0.0139  0.3951 -0.5490
  484MOL0     C65223   7.299  10.023   3.056 -0.1317  0.8966  0.0952
  484MOL0     C65224   7.167  10.022   3.014 -0.5299  0.3738  0.2124
  484MOL0     C65225   7.041  10.050   3.089 -0.7493 -0.5135 -0.4467
  484MOL0     C65226   6.931  10.121   3.005 -0.6959 -0.1264 -0.1045
  484MOL0     C65227   6.810  10.146   3.095  0.2744  0.5099 -0.3413
  484MOL0     C65228   6.698  10.220   3.015  0.6074  0.1295 -0.7635
  484MOL0     O65229   6.597  10.259   3.111 -0.0687  0.2721 -0.1920
  484MOL0     C65230   6.484  10.322   3.072 -0.4882  0.4781 -0.7111
  484MOL0     C65231   6.405  10.373   3.170  0.5387 -0.0053 -0.4355
  484MOL0     C65232   6.308  10.476   3.148 -0.7553  0.5433  0.4577
  484MOL0     C65233   6.278  10.507   3.017  0.4747 -0.0035 -0.3219
  484MOL0     C65234   6.162  10.590   2.981 -0.6021 -0.0358  0.2849
  484MOL0     O65235   6.075  10.623   3.087  0.9192 -0.1756 -0.3503
  484MOL0     C65236   5.952  10.670   3.045 -0.2431  1.0585  0.3733
  484MOL0     C65237   5.868  10.601   2.958 -0.2807 -0.3996  0.3309
  484MOL0     C65238   5.752  10.660   2.914  0.4891  0.2653 -0.2493
  484MOL0     C65239   5.706  10.786   2.942  0.0138  0.4345  0.7905
  484MOL0     O65240   5.578  10.824   2.905  0.9152 -0.9060 -0.9113
  484MOL0     C65241   5.522  10.945   2.973 -0.5466  0.0608 -0.8782
  484MOL0     C65242   5.378  10.950   2.943  0.3801 -0.9614  1.3327
  484MOL0     C65243   5.325  10.990   2.798 -0.1754 -0.0233 -0.4796
  484MOL0     C65244   5.183  10.945   2.790  0.7132  0.0030  1.0092
  484MOL0     C65245   5.147  10.930   2.638  0.6209  0.4487  0.2994
  484MOL0     C65246   5.001  10.913   2.608 -0.4560 -0.0055  0.0545
  484MOL0     C65247   4.945  11.056   2.600 -0.6717  0.4291  0.9503
  484MOL0     C65248   4.806  11.087   2.563 -0.5423  0.3716  0.6860
  484MOL0    Cl65249   4.792  11.100   2.387  0.3034  0.0985 -0.2488
  484MOL0     C65250   5.804  10.862   3.013 -0.3551 -1.1619  0.2625
  484MOL0     C65251   5.916  10.802   3.070 -0.2924  0.3135 -0.1605
  484MOL0     O65252   6.142  10.617   2.862  0.0077  0.0325  0.9850
  484MOL0     C65253   6.356  10.455   2.913  0.5276  0.1622 -0.0898
  484MOL0     C65254   6.462  10.364   2.941  0.6398  0.1138  0.2028
  484MOL0     N65255   7.173  10.002   2.871  0.2631 -0.4423 -0.6807
  484MOL0     N65256   7.301   9.989   2.843 -0.1933 -0.4465 -0.0569
  484MOL0     C65257   8.101  10.694   2.932 -0.4298 -0.4945  0.5266
  484MOL0     C65258   8.069  10.826   2.897  0.8622 -0.1914 -0.4414
  484MOL0     C65259   8.081  11.243   2.747 -0.4599 -0.2896  0.9694
  484MOL0     C65260   8.012  11.305   2.849 -0.0584  0.4584 -0.1382
  484MOL0     C65261   7.957  11.433   2.843 -0.0155  0.1631  0.4761
  484MOL0     C65262   7.977  11.524   2.733 -0.4631  0.9113  0.5599
  484MOL0     O65263   7.941  11.654   2.717 -0.7140  0.0134  0.3737
  484MOL0     C65264   7.873  11.718   2.823  0.1709 -0.3606 -0.0625
  484MOL0     C65265   7.722  11.685   2.822 -0.9249  0.8324  0.3451
  484MOL0     C65266   7.640  11.782   2.726 -1.1068  0.1152  0.1232
  484MOL0     C65267   7.485  11.757   2.745  0.3627 -0.7646  0.3124
  484MOL0     C65268   7.405  11.852   2.664 -0.8283  0.0835  0.9260
  484MOL0     C65269   7.339  11.924   2.586  0.9296 -0.1514 -0.0421
  484MOL0     C65270   8.063  11.460   2.635  0.4951 -0.1764 -0.6791
  484MOL0     C65271   8.109  11.330   2.637  0.3234 -0.5996  0.5488
  484MOL0     C65272   8.177  11.279   2.514  0.3055 -0.0062  0.3208
  484MOL0     H65273   8.354  10.978   2.989  0.0394  1.1059 -0.6679
  484MOL0     H65274   8.423  10.726   3.021 -0.7120  0.2986  0.6054
  484MOL0     H65275   8.147  10.433   2.889 -1.5360  0.0370  1.0847
  484MOL0     H65276   8.270  10.336   2.981 -0.1829 -0.4063  1.3721
  484MOL0     H65277   8.064  10.522   3.122  1.3050  0.7349  0.8124
  484MOL0     H65278   8.182  10.428   3.210 -1.9228 -2.9437  0.8038
  484MOL0     H65279   7.993  10.323   3.233  0.4440 -0.9574  0.4551
  484MOL0     H65280   8.099  10.218   3.126 -2.0759 -2.3274 -1.0416
  484MOL0     H65281   7.844  10.371   3.014 -1.5617 -1.4262 -2.4010
  484MOL0     H65282   7.946  10.241   2.936 -0.0014 -3.2724  0.7022
  484MOL0     H65283   7.869  10.108   3.144 -2.0288 -1.7053 -1.0628
  484MOL0     H65284   7.757  10.237   3.163 -0.8910  0.5455 -1.5436
  484MOL0     H65285   7.705  10.212   2.907  2.2911 -0.7313 -0.8627
  484MOL0     H65286   7.775  10.058   2.909  0.8812 -0.4130  1.3107
  484MOL0     H65287   7.538  10.177   3.044 -0.6529 -0.4966 -4.2018
  484MOL0     H65288   7.617  10.038   3.136 -0.2927 -0.1566  0.0046
  484MOL0     H65289   7.556  10.032   2.841 -0.1915 -0.1689  0.5963
  484MOL0     H65290   7.556   9.895   2.956 -1.0007 -0.6996  1.1267
  484MOL0     H65291   7.333  10.037   3.158 -1.9621  0.4598  0.8030
  484MOL0     H65292   7.011   9.950   3.120 -2.6614 -0.0732 -0.6911
  484MOL0     H65293   7.067  10.109   3.177  0.8178 -0.4299 -0.9347
  484MOL0     H65294   6.962  10.212   2.952 -2.6106  0.0971 -0.9090
  484MOL0     H65295   6.905  10.052   2.925  2.3169  0.5934 -1.8837
  484MOL0     H65296   6.843  10.209   3.178  1.9374  0.8099 -1.1773
  484MOL0     H65297   6.775  10.052   3.138 -0.3182  1.2457  0.8399
  484MOL0     H65298   6.662  10.157   2.933 -1.5455 -2.4094  1.9080
  484MOL0     H65299   6.728  10.312   2.964  1.7472 -0.8773 -2.0064
  484MOL0     H65300   6.421  10.346   3.274  3.9410 -0.4512 -0.9404
  484MOL0     H65301   6.252  10.514   3.233 -1.5144  1.2896 -0.3538
  484MOL0     H65302   5.898  10.500   2.933  0.1681 -0.1939  0.0282
  484MOL0     H65303   5.685  10.594   2.860  1.4850 -0.0381 -1.1578
  484MOL0     H65304   5.521  10.928   3.081  1.0211  1.6353 -0.5778
  484MOL0     H65305   5.572  11.040   2.951  0.4517 -0.9479 -3.3573
  484MOL0     H65306   5.334  10.854   2.970  1.0646 -1.3807  0.9918
  484MOL0     H65307   5.349  11.033   3.009 -3.3381 -1.9531  1.1452
  484MOL0     H65308   5.338  11.099   2.791  1.4381 -0.1153  0.5501
  484MOL0     H65309   5.375  10.942   2.714 -2.3727  1.0871 -2.5220
  484MOL0     H65310   5.112  11.007   2.846  0.1633  0.1473  0.1716
  484MOL0     H65311   5.169  10.848   2.838 -0.7261 -0.2298  0.2000
  484MOL0     H65312   5.202  10.845   2.599  3.5770  2.2125  0.3523
  484MOL0     H65313   5.189  11.018   2.588  0.4397  0.6999  0.5837
  484MOL0     H65314   5.008  10.858   2.513  1.7880  1.3008 -0.6168
  484MOL0     H65315   4.953  10.859   2.690 -0.0338  0.9819  0.9614
  484MOL0     H65316   4.999  11.124   2.534 -1.9205 -0.2773 -0.8802
  484MOL0     H65317   4.946  11.094   2.703 -2.3483 -0.0746  1.1865
  484MOL0     H65318   4.732  11.019   2.608 -3.2388  2.3383 -0.4935
  484MOL0     H65319   4.783  11.186   2.603 -0.7114  0.0055  1.5075
  484MOL0     H65320   5.789  10.969   3.024 -2.8507 -1.2773 -1.2728
  484MOL0     H65321   5.987  10.858   3.130  0.0556 -0.8291  0.5270
  484MOL0     H65322   6.327  10.483   2.812  0.1289  0.2122  0.0375
  484MOL0     H65323   6.516  10.309   2.865  0.8871 -2.2070  1.9372
  484MOL0     H65324   8.026  10.619   2.909 -1.2016 -0.0526  1.5284
  484MOL0     H65325   7.970  10.868   2.882  0.1380 -2.1060 -1.4304
  484MOL0     H65326   7.997  11.249   2.940 -0.9046 -2.0684 -1.7176
  484MOL0     H65327   7.890  11.479   2.915 -1.6333  3.1936 -2.6610
  484MOL0     H65328   7.883  11.826   2.808  1.3358 -0.5029 -0.4551
  484MOL0     H65329   7.918  11.701   2.921  1.8547 -0.3180 -0.7931
  484MOL0     H65330   7.682  11.703   2.923 -1.5302 -0.7004  0.3955
  484MOL0     H65331   7.696  11.580   2.809 -0.2771  0.7576 -0.3725
  484MOL0     H65332   7.677  11.763   2.625 -0.6838  1.6082 -0.0225
  484MOL0     H65333   7.666  11.884   2.754  1.0277 -0.6746  1.2393
  484MOL0     H65334   7.453  11.660   2.707 -0.2617  0.7726 -3.5611
  484MOL0     H65335   7.450  11.787   2.844 -0.0442 -0.4872  0.0822
  484MOL0     H65336   7.284  11.987   2.521  3.3842 -1.1156 -3.3328
  484MOL0     H65337   8.084  11.514   2.543 -0.4585  1.6677  0.1164
  484MOL0     H65338   8.141  11.316   2.418 -0.2481 -0.6607  0.2697
  484MOL0     H65339   8.283  11.305   2.519  0.6164 -0.6182 -2.1496
  484MOL0     H65340   8.182  11.171   2.503  3.1821  0.2908 -2.8243
  485MOL0     O65341  10.732   8.241   2.205 -0.5461 -0.0282  0.3836
  485MOL0     C65342  10.688   8.132   2.231  0.2087 -0.0845 -0.6603
  485MOL0     O65343  10.767   8.026   2.254 -0.4389  0.2283 -0.1923
  485MOL0     C65344  10.874   8.067   2.331  0.5078 -0.4854 -0.1849
  485MOL0     C65345  10.995   8.087   2.269 -0.4504 -0.0518 -0.5673
  485MOL0     C65346  11.108   8.094   2.346 -0.1243 -0.4091 -0.8124
  485MOL0     C65347  11.088   8.108   2.484 -0.1117  0.0167  0.6196
  485MOL0     O65348  11.198   8.122   2.564 -0.0179  0.2658  0.6352
  485MOL0     C65349  11.203   8.188   2.692 -1.0093 -0.5222 -0.0885
  485MOL0     C65350  11.350   8.163   2.746  1.0338  0.5114  0.0233
  485MOL0     C65351  11.369   8.207   2.889 -0.2463 -0.2460 -0.1924
  485MOL0     C65352  11.426   8.348   2.893 -0.0378 -0.6819 -0.1910
  485MOL0     C65353  11.462   8.385   3.043 -0.0816  0.5461 -0.4874
  485MOL0     C65354  11.546   8.514   3.047  0.1520  0.0475  0.8415
  485MOL0     C65355  11.475   8.635   2.988 -0.3375 -0.0040 -0.3387
  485MOL0     C65356  11.555   8.761   2.998  0.4223  0.4967 -1.0190
  485MOL0     N65357  11.597   8.796   3.136  0.3204  0.5678 -0.4890
  485MOL0     C65358  11.524   8.876   3.226 -0.8859 -0.0649  0.0140
  485MOL0     C65359  11.604   8.881   3.332  0.3202 -0.5275 -0.5551
  485MOL0     C65360  11.574   8.952   3.457 -0.7105  0.6893 -0.3832
  485MOL0     C65361  11.701   9.032   3.508 -0.4212  0.2971 -1.2349
  485MOL0     C65362  11.740   9.151   3.408  0.1080 -0.1546  0.0345
  485MOL0     C65363  11.867   9.129   3.336  0.2177 -0.7303 -0.4615
  485MOL0     O65364  11.924   9.255   3.292 -0.0030 -0.5006 -0.3077
  485MOL0     C65365  12.019   9.318   3.367 -1.2095 -0.5801 -0.2587
  485MOL0     C65366  12.106   9.414   3.310 -0.2276  0.0478  0.4044
  485MOL0     C65367  12.198   9.493   3.388  0.2294  0.3336  0.4983
  485MOL0     C65368  12.206   9.474   3.531  0.4558  0.5591  0.3768
  485MOL0     C65369  12.287   9.568   3.613 -0.1524  0.1151  0.6493
  485MOL0     O65370  12.310   9.538   3.741 -0.5542 -0.2191  0.1926
  485MOL0     C65371  12.388   9.608   3.832 -0.0462  0.1908  0.3114
  485MOL0     C65372  12.455   9.733   3.812  0.3648 -0.6669 -0.1290
  485MOL0     C65373  12.529   9.791   3.907  0.1340 -0.5398  0.1983
  485MOL0     C65374  12.562   9.719   4.022 -0.2486  0.4241  0.3875
  485MOL0     O65375  12.651   9.778   4.108 -0.4115 -0.2717  0.1891
  485MOL0     C65376  12.734   9.705   4.203 -0.5783 -0.0442  0.1732
  485MOL0     C65377  12.682   9.736   4.339  0.1387 -0.0611  0.0889
  485MOL0     C65378  12.776   9.685   4.453  0.3053 -0.4709  0.5672
  485MOL0     C65379  12.713   9.721   4.588  0.2523  0.6801  0.1291
  485MOL0     C65380  12.804   9.667   4.699 -0.1434  0.0560 -0.4707
  485MOL0     C65381  12.765   9.733   4.831  0.2203 -0.0246  0.3156
  485MOL0     C65382  12.836   9.670   4.948 -0.7269 -0.2796 -0.0253
  485MOL0     C65383  12.748   9.568   5.015 -0.3969  0.1307  0.2568
  485MOL0    Cl65384  12.603   9.613   5.109  0.4795 -0.3290  0.2771
  485MOL0     C65385  12.482   9.605   4.048 -0.1245  0.6616 -0.3933
  485MOL0     C65386  12.407   9.548   3.949 -0.8326 -0.0204  0.3700
  485MOL0     O65387  12.309   9.674   3.558  0.4133 -0.1356 -0.0358
  485MOL0     C65388  12.124   9.372   3.589 -1.3048  0.5915  0.6547
  485MOL0     C65389  12.038   9.300   3.513  0.0013 -0.3567 -0.0541
  485MOL0     N65390  11.722   8.824   3.309  0.0199 -0.0494 -0.2549
  485MOL0     N65391  11.724   8.781   3.187  0.7513 -0.1534 -0.4462
  485MOL0     C65392  10.966   8.087   2.546  0.4216 -0.5173 -0.0868
  485MOL0     C65393  10.861   8.054   2.469 -0.0473  0.0330  0.3847
  485MOL0     C65394  10.543   8.115   2.233  0.1998 -1.5839 -0.3013
  485MOL0     C65395  10.485   8.009   2.299 -0.3688 -0.0825  0.1671
  485MOL0     C65396  10.358   7.971   2.276  0.4423  0.1480  0.2217
  485MOL0     C65397  10.278   8.054   2.197  0.0503  0.1613 -0.6084
  485MOL0     O65398  10.150   8.017   2.176  0.7660  0.1508 -0.3611
  485MOL0     C65399  10.060   8.068   2.278 -0.0800  0.3195  0.2703
  485MOL0     C65400   9.931   8.112   2.211 -0.3685  0.5942 -0.6029
  485MOL0     C65401   9.809   8.116   2.298  0.0587  1.2214  0.4690
  485MOL0     C65402   9.795   8.247   2.370  0.0501  0.4273 -0.0610
  485MOL0     C65403   9.675   8.270   2.447  0.4900 -0.4379  0.7762
  485MOL0     C65404   9.570   8.293   2.496 -0.8899  0.0238 -0.0909
  485MOL0     C65405  10.329   8.173   2.142  0.0136  0.1620 -0.2105
  485MOL0     C65406  10.467   8.198   2.149  0.4781 -0.7052 -0.8077
  485MOL0     C65407  10.508   8.316   2.057 -0.1279 -0.5825 -0.0178
  485MOL0     H65408  11.001   8.089   2.161 -2.7074 -2.5359 -0.8469
  485MOL0     H65409  11.212   8.101   2.313  1.1440  2.6297  3.0546
  485MOL0     H65410  11.184   8.295   2.683  1.5392 -0.0546 -0.5719
  485MOL0     H65411  11.129   8.138   2.756 -0.1439 -1.9949 -0.1962
  485MOL0     H65412  11.417   8.214   2.676 -0.2578  2.1971 -0.0678
  485MOL0     H65413  11.374   8.057   2.747  0.3145  0.3384  2.0291
  485MOL0     H65414  11.442   8.145   2.940  0.7306  0.9830 -0.0480
  485MOL0     H65415  11.269   8.213   2.933 -0.7283 -0.0952 -1.2741
  485MOL0     H65416  11.519   8.349   2.835  1.8497  0.6290  2.6280
  485MOL0     H65417  11.354   8.418   2.851  2.8276  3.7344  1.5991
  485MOL0     H65418  11.366   8.402   3.094 -0.9489 -0.2830 -1.7853
  485MOL0     H65419  11.511   8.302   3.096 -0.4302  0.9226  0.4575
  485MOL0     H65420  11.550   8.534   3.155 -1.4882 -0.4895  1.0232
  485MOL0     H65421  11.637   8.506   2.987 -0.5724  4.1091 -1.1796
  485MOL0     H65422  11.369   8.649   3.011 -0.9057 -0.9384 -2.1807
  485MOL0     H65423  11.466   8.613   2.881  0.2593  2.2216 -0.9046
  485MOL0     H65424  11.648   8.759   2.940  2.7067  3.8410  2.0854
  485MOL0     H65425  11.504   8.850   2.960  0.0137  0.5925 -0.2659
  485MOL0     H65426  11.426   8.922   3.218 -0.3174  0.8381 -2.7685
  485MOL0     H65427  11.488   9.019   3.449 -1.9619 -0.6489  1.1470
  485MOL0     H65428  11.543   8.883   3.535  1.1891 -0.5007 -0.6166
  485MOL0     H65429  11.669   9.068   3.606 -1.9022 -0.4275 -1.4252
  485MOL0     H65430  11.782   8.959   3.516 -1.2296 -0.4913  0.3341
  485MOL0     H65431  11.750   9.230   3.483 -0.6594  1.9605 -1.9926
  485MOL0     H65432  11.655   9.166   3.341 -0.1021 -0.2950  0.2671
  485MOL0     H65433  11.841   9.061   3.255  0.3885 -0.8374 -0.4266
  485MOL0     H65434  11.935   9.081   3.407  0.4948  0.1736 -0.0964
  485MOL0     H65435  12.100   9.426   3.203  0.6647 -0.9298  0.2262
  485MOL0     H65436  12.245   9.577   3.338  0.8670 -0.3415 -0.0396
  485MOL0     H65437  12.441   9.781   3.716 -1.5758  0.5920  0.7181
  485MOL0     H65438  12.568   9.891   3.892 -1.0694 -0.4211 -2.8879
  485MOL0     H65439  12.733   9.598   4.180 -0.8565  0.1508 -0.7918
  485MOL0     H65440  12.841   9.722   4.192 -0.4125 -1.9961 -2.1777
  485MOL0     H65441  12.654   9.842   4.348 -2.5356 -0.7422  0.5009
  485MOL0     H65442  12.593   9.676   4.360 -0.0352  0.9142  2.4707
  485MOL0     H65443  12.780   9.576   4.439 -0.7445 -0.5181  0.5697
  485MOL0     H65444  12.870   9.737   4.431  1.1535 -2.1456 -0.0264
  485MOL0     H65445  12.611   9.684   4.601  0.6735 -0.5610 -0.0487
  485MOL0     H65446  12.695   9.829   4.596 -0.7368  0.5111  0.3305
  485MOL0     H65447  12.911   9.683   4.685 -0.2868 -0.4809 -2.4303
  485MOL0     H65448  12.794   9.558   4.709 -0.0975  0.0368 -0.6318
  485MOL0     H65449  12.796   9.837   4.830 -1.5474  0.5370  0.7796
  485MOL0     H65450  12.656   9.737   4.840  0.1697  3.6631 -0.4881
  485MOL0     H65451  12.867   9.745   5.020 -1.1750  0.1039 -0.2250
  485MOL0     H65452  12.926   9.613   4.922 -0.9176 -0.1700 -0.9678
  485MOL0     H65453  12.706   9.510   4.932 -2.0101  0.5075  0.7860
  485MOL0     H65454  12.807   9.503   5.081  0.6093  1.3041  0.5594
  485MOL0     H65455  12.501   9.552   4.142  1.1546  1.5278 -0.1283
  485MOL0     H65456  12.361   9.450   3.953 -1.8062  0.3294 -1.5137
  485MOL0     H65457  12.139   9.367   3.696 -0.1257  2.2797  0.6023
  485MOL0     H65458  11.984   9.217   3.557 -1.7638  0.9374  0.3258
  485MOL0     H65459  10.948   8.068   2.651  4.1319  1.7497  1.1470
  485MOL0     H65460  10.767   8.023   2.513  0.9424 -1.6524  1.4205
  485MOL0     H65461  10.550   7.948   2.361 -0.0882 -0.4250 -0.4425
  485MOL0     H65462  10.321   7.880   2.322  0.7766 -0.2589 -0.2978
  485MOL0     H65463  10.104   8.151   2.334  2.2700 -1.9207  1.9684
  485MOL0     H65464  10.048   7.981   2.343  2.7373 -2.3421 -2.4440
  485MOL0     H65465   9.914   8.036   2.134  0.4116  2.4235 -2.6618
  485MOL0     H65466   9.938   8.200   2.147  0.8066  2.1882  1.5860
  485MOL0     H65467   9.810   8.028   2.363  2.4640 -0.2514 -1.3915
  485MOL0     H65468   9.720   8.112   2.236 -1.5650  3.4105  2.4687
  485MOL0     H65469   9.878   8.244   2.441  3.3787  0.2218 -3.5628
  485MOL0     H65470   9.804   8.334   2.304 -1.2705 -0.4739 -1.5228
  485MOL0     H65471   9.468   8.299   2.527 -0.6551  0.8015  0.5548
  485MOL0     H65472  10.260   8.236   2.086 -3.0954  0.3926  3.4875
  485MOL0     H65473  10.544   8.399   2.119  0.4521 -1.7487  1.2696
  485MOL0     H65474  10.591   8.290   1.991  1.1620  1.4697  0.6885
  485MOL0     H65475  10.425   8.347   1.993  0.1157  1.4372  0.5698
  486MOL0     O65476   8.323  10.768  10.851  0.2668 -0.2114 -0.1789
  486MOL0     C65477   8.318  10.887  10.827 -0.5273 -0.1818  0.3397
  486MOL0     O65478   8.411  10.956  10.744 -0.3961 -0.2372  0.2260
  486MOL0     C65479   8.519  10.886  10.699 -0.2437 -0.5850 -0.7696
  486MOL0     C65480   8.629  10.851  10.790 -0.4717 -0.8667 -0.8053
  486MOL0     C65481   8.758  10.822  10.736  0.3359  0.0651  0.5085
  486MOL0     C65482   8.777  10.802  10.596  0.3902  0.2120 -0.7584
  486MOL0     O65483   8.902  10.777  10.550  1.4901 -0.0920  0.0777
  486MOL0     C65484   8.921  10.730  10.412 -0.9337  0.8292 -0.0099
  486MOL0     C65485   9.071  10.690  10.390  0.6187  0.7481 -0.3891
  486MOL0     C65486   9.122  10.582  10.492 -0.3924  0.5277  0.0727
  486MOL0     C65487   9.271  10.551  10.478 -1.1230  0.1755 -0.4745
  486MOL0     C65488   9.310  10.435  10.562  0.1773 -0.8436 -0.4534
  486MOL0     C65489   9.454  10.409  10.557  0.1768 -0.1435  0.0056
  486MOL0     C65490   9.538  10.489  10.662  0.7626  0.1951 -0.1098
  486MOL0     C65491   9.696  10.468  10.672  0.3617  0.2166 -0.9838
  486MOL0     N65492   9.763  10.541  10.566  0.2475  0.4189  0.8641
  486MOL0     C65493   9.818  10.659  10.584  0.4425 -0.5773  0.0586
  486MOL0     C65494   9.860  10.701  10.455  0.0439  0.8401 -0.3982
  486MOL0     C65495   9.944  10.819  10.414  0.7259  0.3602  0.2184
  486MOL0     C65496  10.077  10.789  10.349  0.1112 -0.4474  0.3603
  486MOL0     C65497  10.181  10.735  10.449 -0.5640 -0.2414 -0.6623
  486MOL0     C65498  10.311  10.681  10.375 -1.1606  0.5200  0.2872
  486MOL0     O65499  10.404  10.616  10.468  0.3644 -0.8377 -0.3828
  486MOL0     C65500  10.540  10.610  10.432 -0.6401 -0.6213 -0.0120
  486MOL0     C65501  10.627  10.528  10.506 -0.6203 -1.2713  0.1800
  486MOL0     C65502  10.759  10.502  10.468 -1.5173 -0.5721 -0.3682
  486MOL0     C65503  10.823  10.581  10.366 -0.3816  0.1636 -0.0905
  486MOL0     C65504  10.971  10.565  10.338 -0.7051  0.4840 -0.3705
  486MOL0     O65505  11.037  10.674  10.288 -0.1037  0.4290 -0.1657
  486MOL0     C65506  11.167  10.655  10.245  0.3830  0.0976 -0.4175
  486MOL0     C65507  11.272  10.657  10.342  0.5897 -0.4203 -0.0766
  486MOL0     C65508  11.406  10.650  10.292  0.6729 -0.4230 -0.1577
  486MOL0     C65509  11.441  10.649  10.161 -0.6339 -0.0980 -0.2738
  486MOL0     O65510  11.571  10.634  10.128 -0.9159  0.1099 -0.1989
  486MOL0     C65511  11.611  10.659   9.991  0.2607  0.2324  0.5551
  486MOL0     C65512  11.760  10.667  10.001 -0.2611 -0.7337  0.0272
  486MOL0     C65513  11.818  10.775  10.092 -0.7520 -0.8169  0.0857
  486MOL0     C65514  11.969  10.758  10.072  0.1925 -0.9017  0.5820
  486MOL0     C65515  12.052  10.870  10.130 -0.2601  0.9777 -0.2351
  486MOL0     C65516  12.206  10.839  10.112 -0.6999 -0.7657 -0.5293
  486MOL0     C65517  12.252  10.817   9.969 -0.3089  0.2443  0.4008
  486MOL0     C65518  12.410  10.828   9.948  0.6087 -0.0762 -0.2865
  486MOL0    Cl65519  12.483  10.691  10.011  0.2314 -0.0082  0.1413
  486MOL0     C65520  11.334  10.647  10.062  0.8449 -0.5205 -0.3204
  486MOL0     C65521  11.202  10.652  10.110 -0.4239 -1.3370  0.3672
  486MOL0     O65522  11.025  10.459  10.359  0.6967  0.1339 -0.6203
  486MOL0     C65523  10.739  10.665  10.296 -0.2329 -0.1684  0.2426
  486MOL0     C65524  10.599  10.678  10.324  0.9924 -0.3974 -0.0361
  486MOL0     N65525   9.806  10.607  10.367 -0.1592  0.4820  0.0515
  486MOL0     N65526   9.754  10.507  10.430  0.8395 -0.5376  0.4594
  486MOL0     C65527   8.668  10.826  10.517  0.7407 -0.1160 -0.6674
  486MOL0     C65528   8.541  10.860  10.568  0.1545 -0.7740 -0.3679
  486MOL0     C65529   8.201  10.969  10.860 -0.4081  0.9737 -0.5067
  486MOL0     C65530   8.172  11.079  10.771 -0.1073  0.9529 -0.9755
  486MOL0     C65531   8.065  11.154  10.796  0.2649 -0.0817 -0.6777
  486MOL0     C65532   7.981  11.133  10.908  0.3266  0.0533 -0.3614
  486MOL0     O65533   7.891  11.233  10.943 -0.6167  0.7251  0.2375
  486MOL0     C65534   7.816  11.230  11.060  0.0190 -0.1325  0.4012
  486MOL0     C65535   7.682  11.161  11.037  0.0197 -0.4467 -0.4087
  486MOL0     C65536   7.592  11.231  10.926 -0.0755  0.4923 -0.0838
  486MOL0     C65537   7.454  11.175  10.903  0.7524  0.6724 -0.1283
  486MOL0     C65538   7.463  11.031  10.867  0.7091 -0.3107 -0.7021
  486MOL0     C65539   7.481  10.911  10.844 -0.0525  0.5805  0.5526
  486MOL0     C65540   7.999  11.010  10.981 -0.2209 -1.2213  0.2845
  486MOL0     C65541   8.116  10.940  10.962 -0.1616  0.4607 -0.0851
  486MOL0     C65542   8.139  10.821  11.059  0.0791 -0.4200 -0.4368
  486MOL0     H65543   8.625  10.866  10.897  3.7969 -1.9585 -0.2906
  486MOL0     H65544   8.843  10.804  10.801  0.7913  0.8140  0.1257
  486MOL0     H65545   8.856  10.643  10.398  1.6874 -1.2374 -0.1158
  486MOL0     H65546   8.900  10.811  10.342  1.1858  2.3407  0.9837
  486MOL0     H65547   9.139  10.775  10.399  2.4491 -0.5857 -0.9916
  486MOL0     H65548   9.077  10.645  10.290 -0.1691 -2.3412  0.8690
  486MOL0     H65549   9.072  10.487  10.473  2.0118 -1.7035  3.7121
  486MOL0     H65550   9.105  10.631  10.588  0.3841  0.0135  0.4821
  486MOL0     H65551   9.299  10.548  10.373 -1.5493  0.5481 -0.6061
  486MOL0     H65552   9.320  10.635  10.528 -0.7192 -0.1459 -0.3274
  486MOL0     H65553   9.290  10.454  10.668  0.9451 -2.8027  0.0818
  486MOL0     H65554   9.253  10.349  10.525 -2.3960  1.2589 -1.6890
  486MOL0     H65555   9.477  10.306  10.585  0.3818  0.1429  0.9306
  486MOL0     H65556   9.502  10.420  10.460  0.4017 -0.5396  0.0702
  486MOL0     H65557   9.495  10.467  10.761 -1.1953  0.6402 -0.8160
  486MOL0     H65558   9.534  10.595  10.638  2.1396  1.2163  3.4542
  486MOL0     H65559   9.736  10.512  10.764 -3.2177  2.8242 -0.4676
  486MOL0     H65560   9.720  10.362  10.657  0.5751  0.3808 -1.8483
  486MOL0     H65561   9.847  10.690  10.684  2.8240 -2.2673  0.0024
  486MOL0     H65562   9.888  10.879  10.341 -2.9805 -2.4943  0.4601
  486MOL0     H65563   9.965  10.878  10.504  1.2372 -0.0364  0.3648
  486MOL0     H65564  10.052  10.720  10.268  3.7655 -0.3724 -1.0245
  486MOL0     H65565  10.112  10.885  10.309 -1.6848 -1.0785 -3.0433
  486MOL0     H65566  10.121  10.658  10.499  1.4843 -0.9421  0.8688
  486MOL0     H65567  10.207  10.809  10.526 -3.2748 -1.9437  2.1223
  486MOL0     H65568  10.352  10.767  10.322 -1.9472 -0.0226 -1.2700
  486MOL0     H65569  10.274  10.612  10.299 -1.3098  0.3988  0.4696
  486MOL0     H65570  10.567  10.483  10.585 -2.7870 -0.1478 -0.7527
  486MOL0     H65571  10.817  10.433  10.528 -0.4270  1.9407  1.6283
  486MOL0     H65572  11.240  10.673  10.444  1.9026  0.8859  0.1650
  486MOL0     H65573  11.473  10.623  10.372  0.1685 -0.5695  0.2219
  486MOL0     H65574  11.575  10.566   9.946 -0.3464  0.1457  1.2012
  486MOL0     H65575  11.562  10.750   9.956  2.9840  2.2235  1.5879
  486MOL0     H65576  11.788  10.572  10.046  0.4797 -1.1978 -1.3251
  486MOL0     H65577  11.793  10.676   9.897 -2.8896 -2.2215 -1.0239
  486MOL0     H65578  11.782  10.872  10.055  1.1079  0.2651  0.9759
  486MOL0     H65579  11.798  10.755  10.198  3.4727 -0.1133  1.2128
  486MOL0     H65580  11.994  10.743   9.967  1.0835  2.4377  0.1731
  486MOL0     H65581  12.001  10.660  10.109  1.7323 -1.2714 -1.5282
  486MOL0     H65582  12.028  10.879  10.237 -0.3609 -0.8994 -0.0635
  486MOL0     H65583  12.039  10.951  10.059  1.6535  0.6463 -1.0061
  486MOL0     H65584  12.262  10.927  10.145  0.8024 -2.3735  1.4469
  486MOL0     H65585  12.240  10.753  10.169  3.2919  1.9413  1.6469
  486MOL0     H65586  12.203  10.882   9.895 -2.3063 -3.0434 -1.4236
  486MOL0     H65587  12.221  10.717   9.935  1.8422  0.0163 -1.1156
  486MOL0     H65588  12.433  10.837   9.841 -1.7719 -1.3862 -0.9915
  486MOL0     H65589  12.460  10.910   9.999 -0.2119 -1.0050  2.1858
  486MOL0     H65590  11.350  10.647   9.955 -1.4366  1.1127 -0.7274
  486MOL0     H65591  11.133  10.664  10.027  0.8026  2.9279 -0.3227
  486MOL0     H65592  10.772  10.722  10.210  1.1975  1.9897  2.1063
  486MOL0     H65593  10.541  10.741  10.258 -0.0105  0.2530  1.4324
  486MOL0     H65594   8.675  10.814  10.410  0.6047  0.2132 -0.7144
  486MOL0     H65595   8.461  10.882  10.498 -0.1408  0.6319  0.3846
  486MOL0     H65596   8.225  11.080  10.676  1.0600 -0.4898 -0.3812
  486MOL0     H65597   8.045  11.236  10.728  0.9140 -1.0826 -2.1208
  486MOL0     H65598   7.794  11.334  11.088  2.0063 -0.5860  4.4367
  486MOL0     H65599   7.869  11.191  11.147  0.7462 -0.7318 -0.3024
  486MOL0     H65600   7.629  11.151  11.132  2.6124  3.1937  1.7015
  486MOL0     H65601   7.707  11.057  11.012 -0.3682 -0.7155  0.2963
  486MOL0     H65602   7.645  11.236  10.831  1.4858 -0.2913  0.7172
  486MOL0     H65603   7.574  11.334  10.958 -0.0716  0.8089 -1.0880
  486MOL0     H65604   7.389  11.174  10.990 -1.4151 -0.9528 -1.6643
  486MOL0     H65605   7.402  11.227  10.821 -1.2047  1.4406  1.5139
  486MOL0     H65606   7.515  10.814  10.812  1.0164  1.2897 -0.5603
  486MOL0     H65607   7.939  10.992  11.070 -1.7891  1.0239 -0.2448
  486MOL0     H65608   8.075  10.835  11.147  1.4616 -0.0662  0.5446
  486MOL0     H65609   8.102  10.728  11.016 -3.0322  0.2571  0.5102
  486MOL0     H65610   8.246  10.813  11.082  0.0200 -0.4177 -0.1539
  487MOL0     O65611   4.364   0.263   9.843  0.5363 -0.5668 -0.6585
  487MOL0     C65612   4.275   0.222   9.762  0.3417 -0.3284 -0.1508
  487MOL0     O65613   4.282   0.110   9.706  1.1004  0.0721 -0.7092
  487MOL0     C65614   4.399   0.038   9.683 -0.5170  0.0259  0.3040
  487MOL0     C65615   4.370  -0.097   9.649  0.0234  0.5229 -0.3773
  487MOL0     C65616   4.474  -0.179   9.618  0.1052 -0.0957 -0.6383
  487MOL0     C65617   4.603  -0.132   9.613 -0.3960  0.2291 -0.8322
  487MOL0     O65618   4.696  -0.233   9.584  0.5599 -0.7749  0.4636
  487MOL0     C65619   4.831  -0.205   9.541 -0.0429  0.1541  0.5969
  487MOL0     C65620   4.820  -0.152   9.400 -0.3690 -1.0063  0.5943
  487MOL0     C65621   4.960  -0.099   9.346  0.1909 -0.5157 -0.2011
  487MOL0     C65622   4.961  -0.044   9.206 -0.1200  0.0056 -0.0278
  487MOL0     C65623   5.106  -0.026   9.166 -0.0676 -0.8011 -0.0613
  487MOL0     C65624   5.169   0.110   9.214  0.2436  0.4602  0.5971
  487MOL0     C65625   5.320   0.120   9.202 -0.1646  0.0192  0.2029
  487MOL0     C65626   5.393   0.023   9.306  0.2277 -0.7009  0.2071
  487MOL0     N65627   5.347   0.033   9.441 -0.0305 -0.6223 -0.2792
  487MOL0     C65628   5.274  -0.064   9.505 -0.3289  0.4938  0.4647
  487MOL0     C65629   5.248  -0.010   9.624  0.7552  0.0843  0.1040
  487MOL0     C65630   5.174  -0.082   9.729 -0.3400 -0.3911 -0.4601
  487MOL0     C65631   5.143  -0.006   9.852  0.3667  0.7500  0.0334
  487MOL0     C65632   5.112  -0.109   9.965 -0.6480 -0.5422  0.5643
  487MOL0     C65633   5.235  -0.166  10.041 -0.0005 -0.0508 -0.3935
  487MOL0     O65634   5.198  -0.201  10.172  0.3076  0.4648  0.0386
  487MOL0     C65635   5.297  -0.229  10.265  0.1692 -0.2758 -0.4604
  487MOL0     C65636   5.264  -0.259  10.396  0.3029  0.1133  0.0372
  487MOL0     C65637   5.366  -0.274  10.499  0.3747  0.4146 -0.7547
  487MOL0     C65638   5.500  -0.284  10.450 -0.2811  0.0699 -1.2750
  487MOL0     C65639   5.618  -0.309  10.541  0.9516  0.0233 -0.1427
  487MOL0     O65640   5.732  -0.361  10.485  0.2709 -0.6961  0.1195
  487MOL0     C65641   5.845  -0.370  10.565 -1.1192  0.0049 -0.5711
  487MOL0     C65642   5.909  -0.497  10.579  0.9290 -0.8205  0.2093
  487MOL0     C65643   6.029  -0.507  10.653 -0.4807 -0.3934 -0.6983
  487MOL0     C65644   6.077  -0.394  10.725  1.1560  0.2005 -0.5231
  487MOL0     O65645   6.196  -0.400  10.800 -0.4198 -0.2996 -0.3759
  487MOL0     C65646   6.244  -0.525  10.831  0.4305 -0.5241 -0.1814
  487MOL0     C65647   6.360  -0.530  10.937  0.3979  0.3334 -0.4328
  487MOL0     C65648   6.339  -0.440  11.058 -0.5548  0.2300 -0.5605
  487MOL0     C65649   6.194  -0.456  11.112  0.3646 -0.3903 -0.0239
  487MOL0     C65650   6.188  -0.379  11.248  0.1134  0.0616  0.2756
  487MOL0     C65651   6.185  -0.220  11.232  0.3679 -0.0755 -0.4722
  487MOL0     C65652   6.114  -0.160  11.346  0.5111  0.1537 -0.2444
  487MOL0     C65653   6.096  -0.008  11.338  0.0086  0.1744 -0.3643
  487MOL0    Cl65654   5.997   0.053  11.205 -0.2100  0.1649 -0.0310
  487MOL0     C65655   6.008  -0.277  10.712  0.5595  0.3935  0.4325
  487MOL0     C65656   5.893  -0.261  10.633  0.9716  0.3767  0.3505
  487MOL0     O65657   5.600  -0.280  10.663 -0.6719  0.2696  0.1800
  487MOL0     C65658   5.526  -0.265  10.316 -0.4880 -1.4165  0.1232
  487MOL0     C65659   5.427  -0.236  10.222  0.2679 -0.3249  0.1927
  487MOL0     N65660   5.304   0.122   9.633 -0.2318  0.2996 -0.4183
  487MOL0     N65661   5.363   0.144   9.516  0.1428  0.4533  1.0011
  487MOL0     C65662   4.638   0.001   9.645 -0.4155  1.3981 -0.1567
  487MOL0     C65663   4.531   0.085   9.679  0.1290 -0.7707 -0.4298
  487MOL0     C65664   4.158   0.308   9.735  0.0757  0.7927 -0.0991
  487MOL0     C65665   4.065   0.271   9.637  0.6628 -0.8350 -0.0229
  487MOL0     C65666   3.945   0.346   9.613 -0.2232  0.0689  0.3294
  487MOL0     C65667   3.914   0.451   9.688 -0.2311 -0.6141 -0.4375
  487MOL0     O65668   3.804   0.521   9.655 -0.0469 -0.0719  0.3524
  487MOL0     C65669   3.772   0.643   9.722 -0.1036 -0.1115 -0.4487
  487MOL0     C65670   3.650   0.711   9.651  0.1531 -0.6037  1.0960
  487MOL0     C65671   3.504   0.659   9.651 -0.0243  0.2304 -0.2322
  487MOL0     C65672   3.406   0.718   9.556 -0.0361  0.2329  0.5953
  487MOL0     C65673   3.266   0.693   9.595  0.0242 -0.3858  0.0653
  487MOL0     C65674   3.151   0.688   9.636 -1.2761 -0.5021 -0.2314
  487MOL0     C65675   4.007   0.489   9.791 -0.0140 -0.2422 -0.3635
  487MOL0     C65676   4.124   0.417   9.822 -0.5594 -0.5740  0.4438
  487MOL0     C65677   4.200   0.484   9.936 -0.3481 -0.1168  0.5340
  487MOL0     H65678   4.270  -0.139   9.652  0.7011 -1.1433 -0.4653
  487MOL0     H65679   4.455  -0.284   9.599 -0.3037 -0.0074 -0.7347
  487MOL0     H65680   4.885  -0.137   9.608 -0.1841  1.1020 -0.2266
  487MOL0     H65681   4.884  -0.300   9.550  0.9050  0.6703  0.6235
  487MOL0     H65682   4.745  -0.073   9.395 -0.8611 -1.4864  0.3606
  487MOL0     H65683   4.789  -0.238   9.340  0.7165 -1.8447  1.1849
  487MOL0     H65684   5.027  -0.185   9.350 -0.7240 -1.2111  1.3019
  487MOL0     H65685   4.999  -0.028   9.419  0.5272 -0.5288 -0.3688
  487MOL0     H65686   4.911  -0.114   9.139 -0.0390 -0.2972  0.2257
  487MOL0     H65687   4.919   0.056   9.191 -1.2190 -0.4126  0.1954
  487MOL0     H65688   5.171  -0.109   9.197  0.8080  0.4357  1.5621
  487MOL0     H65689   5.108  -0.029   9.056 -0.6588 -0.0143 -0.1043
  487MOL0     H65690   5.131   0.192   9.153  1.4273 -0.5860 -1.6672
  487MOL0     H65691   5.138   0.130   9.317 -1.0035  0.9242  0.1600
  487MOL0     H65692   5.349   0.224   9.220 -2.3245  0.6071  0.5510
  487MOL0     H65693   5.354   0.100   9.100  0.7565  1.1863  0.2572
  487MOL0     H65694   5.378  -0.078   9.267 -2.3362  0.3345 -1.7981
  487MOL0     H65695   5.498   0.054   9.298 -0.4363  1.4999 -0.9020
  487MOL0     H65696   5.256  -0.164   9.467  0.1251  0.4588  0.3425
  487MOL0     H65697   5.083  -0.128   9.691 -1.0162  1.0609 -0.6533
  487MOL0     H65698   5.230  -0.173   9.753  2.0608  0.5829 -1.9850
  487MOL0     H65699   5.226   0.062   9.871  0.5593 -0.1405  2.7606
  487MOL0     H65700   5.054   0.052   9.825 -0.4145  0.2964  1.5128
  487MOL0     H65701   5.054  -0.191   9.922 -0.4133 -1.2316  1.5139
  487MOL0     H65702   5.049  -0.057  10.037  1.9435  1.3857  1.6052
  487MOL0     H65703   5.304  -0.080  10.043 -2.2796  1.9674 -2.0174
  487MOL0     H65704   5.279  -0.252   9.990  2.6991  1.0155 -0.0441
  487MOL0     H65705   5.165  -0.247  10.439 -0.2615  2.4677 -1.7170
  487MOL0     H65706   5.334  -0.291  10.601  0.8781 -0.4427 -0.7324
  487MOL0     H65707   5.870  -0.580  10.520 -0.0358  0.1204 -0.5035
  487MOL0     H65708   6.076  -0.604  10.662  2.3029  0.5755 -3.1170
  487MOL0     H65709   6.173  -0.574  10.898  1.7275  1.0719  2.5565
  487MOL0     H65710   6.266  -0.582  10.740 -0.3496 -0.8943 -0.1437
  487MOL0     H65711   6.380  -0.635  10.964  0.2068 -0.1277 -1.9936
  487MOL0     H65712   6.453  -0.503  10.886  0.5789 -1.6920 -1.2769
  487MOL0     H65713   6.402  -0.497  11.127 -0.8407  0.1904 -0.3333
  487MOL0     H65714   6.358  -0.334  11.041 -2.3123  0.3201 -2.2516
  487MOL0     H65715   6.172  -0.560  11.137 -3.6949  1.2915  5.2519
  487MOL0     H65716   6.114  -0.425  11.044 -1.0978 -2.7829  0.4995
  487MOL0     H65717   6.274  -0.408  11.308 -0.9799 -2.0198  0.9338
  487MOL0     H65718   6.096  -0.425  11.287 -0.8968 -1.0696 -3.0367
  487MOL0     H65719   6.290  -0.194  11.245  1.3584 -3.4161 -0.9072
  487MOL0     H65720   6.132  -0.193  11.141 -0.5796 -1.3900 -0.3495
  487MOL0     H65721   6.167  -0.180  11.439  0.0847 -0.7736 -0.1917
  487MOL0     H65722   6.013  -0.203  11.349  0.2930  0.0896 -3.7773
  487MOL0     H65723   6.048   0.018  11.433 -0.2492 -3.8883  0.7894
  487MOL0     H65724   6.197   0.034  11.328 -0.3094  0.9122 -0.5512
  487MOL0     H65725   6.073  -0.200  10.752  3.2856 -1.0197 -0.9540
  487MOL0     H65726   5.848  -0.164  10.619 -1.0363 -0.8755 -2.9359
  487MOL0     H65727   5.623  -0.269  10.268  0.6867  1.2625  2.0028
  487MOL0     H65728   5.456  -0.231  10.117  0.2365 -1.8188  0.0785
  487MOL0     H65729   4.737   0.041   9.624 -1.0268  2.0961 -1.9080
  487MOL0     H65730   4.545   0.187   9.713 -1.3975 -1.5181  2.8490
  487MOL0     H65731   4.086   0.184   9.575  1.6429  0.4044 -1.4803
  487MOL0     H65732   3.865   0.314   9.548 -1.6836 -1.4433  2.7350
  487MOL0     H65733   3.855   0.714   9.724 -0.6279  0.4953  0.3658
  487MOL0     H65734   3.753   0.623   9.827  3.4480 -0.8934  0.1762
  487MOL0     H65735   3.677   0.723   9.546 -0.0259  0.9760  1.1970
  487MOL0     H65736   3.643   0.811   9.696 -0.7619  0.7645 -1.8708
  487MOL0     H65737   3.461   0.665   9.751 -0.2381  3.7955 -0.4131
  487MOL0     H65738   3.515   0.556   9.617  1.3586 -0.1986  1.4089
  487MOL0     H65739   3.425   0.826   9.553  0.8221  0.0685 -1.1095
  487MOL0     H65740   3.416   0.674   9.456 -1.7119 -0.0704  0.5367
  487MOL0     H65741   3.050   0.670   9.666 -1.2066 -0.0385  0.2900
  487MOL0     H65742   3.987   0.579   9.849 -3.0473 -1.1233  0.1460
  487MOL0     H65743   4.131   0.530  10.007 -0.9266  1.1290 -0.7946
  487MOL0     H65744   4.269   0.411   9.979  2.1208 -0.3059 -3.2406
  487MOL0     H65745   4.267   0.558   9.892 -0.5439 -1.7730 -2.9856
  488MOL0     O65746   6.113   5.614   8.712 -0.3241 -0.2209 -0.1871
  488MOL0     C65747   6.061   5.650   8.821 -0.1497 -0.3761  0.8996
  488MOL0     O65748   6.124   5.650   8.935  0.5006 -0.4476  0.2331
  488MOL0     C65749   6.253   5.626   8.937  0.3483  0.9313 -0.7921
  488MOL0     C65750   6.340   5.709   8.996 -0.3068  1.0157 -0.6772
  488MOL0     C65751   6.478   5.682   8.997 -0.8939  0.1679 -0.7510
  488MOL0     C65752   6.533   5.559   8.947  0.1213 -0.2035  0.0251
  488MOL0     O65753   6.670   5.536   8.959  0.4210  0.0023 -0.3649
  488MOL0     C65754   6.719   5.432   8.874  1.0887  0.5280 -0.6064
  488MOL0     C65755   6.873   5.428   8.870 -0.4104 -0.3769 -0.3008
  488MOL0     C65756   6.929   5.572   8.841 -0.1224  0.2469 -0.1982
  488MOL0     C65757   7.070   5.585   8.881 -0.0177 -0.3580  0.3320
  488MOL0     C65758   7.129   5.723   8.844 -0.4489  0.0665  0.4280
  488MOL0     C65759   7.280   5.726   8.871  0.4834 -0.0525  0.0580
  488MOL0     C65760   7.320   5.716   9.014  0.3930 -0.1966 -0.0648
  488MOL0     C65761   7.459   5.774   9.030  0.4701 -0.3125 -0.6713
  488MOL0     N65762   7.548   5.702   8.940 -0.0252  0.6837 -0.1523
  488MOL0     C65763   7.628   5.766   8.852  0.7825  0.1290  0.9435
  488MOL0     C65764   7.692   5.662   8.783 -0.7178 -0.6041  0.1740
  488MOL0     C65765   7.789   5.682   8.675 -0.2634 -0.4855 -0.4628
  488MOL0     C65766   7.922   5.604   8.697 -0.4929 -0.0080  0.6604
  488MOL0     C65767   8.031   5.673   8.629  0.3504  0.3248  0.4937
  488MOL0     C65768   8.155   5.593   8.608  0.3396 -0.1128  0.2726
  488MOL0     O65769   8.180   5.515   8.722 -0.1551  0.5918  0.0644
  488MOL0     C65770   8.312   5.487   8.747  0.9972 -0.7268  0.1519
  488MOL0     C65771   8.399   5.430   8.650  0.3549  0.1705 -0.3770
  488MOL0     C65772   8.533   5.416   8.684 -0.9811  0.6152  0.4397
  488MOL0     C65773   8.582   5.442   8.810  0.4499 -1.5411 -0.3013
  488MOL0     C65774   8.731   5.446   8.835 -0.4508 -0.5377 -0.1342
  488MOL0     O65775   8.813   5.395   8.738  0.7849 -0.3902 -0.2350
  488MOL0     C65776   8.950   5.373   8.746 -0.3185 -0.3232  0.4377
  488MOL0     C65777   9.021   5.373   8.623  0.8406  0.8751 -0.0408
  488MOL0     C65778   9.158   5.344   8.624 -1.2197 -1.0935 -0.1916
  488MOL0     C65779   9.229   5.315   8.739  0.2229  0.4823 -0.9303
  488MOL0     O65780   9.364   5.287   8.751  0.0610  0.0865 -0.5441
  488MOL0     C65781   9.444   5.352   8.652 -0.1307  0.8581 -0.0613
  488MOL0     C65782   9.589   5.345   8.695 -1.1951  0.3515 -0.7028
  488MOL0     C65783   9.709   5.356   8.591  0.0266  1.3055 -0.0823
  488MOL0     C65784   9.834   5.412   8.655  0.1782 -0.5557  0.3140
  488MOL0     C65785   9.925   5.309   8.723  0.6991  0.3255  0.1630
  488MOL0     C65786  10.019   5.381   8.805  0.4267 -0.1277 -0.4022
  488MOL0     C65787  10.122   5.278   8.870 -0.2178 -0.5633  0.1015
  488MOL0     C65788  10.092   5.226   9.019 -1.7320  0.6851 -0.0527
  488MOL0    Cl65789  10.059   5.352   9.141 -0.2088 -0.0888 -0.5097
  488MOL0     C65790   9.160   5.315   8.855 -0.2800  0.0221 -0.7072
  488MOL0     C65791   9.023   5.342   8.864  0.3849 -0.2249 -0.5315
  488MOL0     O65792   8.773   5.498   8.942  0.3127  0.0603  0.1902
  488MOL0     C65793   8.497   5.496   8.911 -0.4344 -0.4676  0.4291
  488MOL0     C65794   8.363   5.511   8.877 -0.0772  0.7599  0.3781
  488MOL0     N65795   7.657   5.546   8.839 -0.1513  0.4895 -0.1743
  488MOL0     N65796   7.570   5.568   8.938 -0.3440  0.5312  0.1935
  488MOL0     C65797   6.437   5.469   8.910  0.4013 -0.1390  0.4383
  488MOL0     C65798   6.298   5.503   8.906  0.0362  0.2278  0.7984
  488MOL0     C65799   5.918   5.687   8.815 -0.1915 -0.2386  0.6334
  488MOL0     C65800   5.866   5.689   8.679 -0.9423 -0.3297 -0.4633
  488MOL0     C65801   5.728   5.711   8.661 -0.2112  0.7423  0.0500
  488MOL0     C65802   5.648   5.728   8.768  0.1337 -0.4147 -0.1169
  488MOL0     O65803   5.513   5.746   8.735  0.8286 -0.3563 -0.1218
  488MOL0     C65804   5.439   5.640   8.814  0.6699 -0.2638 -0.6370
  488MOL0     C65805   5.283   5.636   8.799 -0.4454 -0.0672 -0.3711
  488MOL0     C65806   5.211   5.755   8.856 -0.0003  0.9634 -0.0568
  488MOL0     C65807   5.193   5.720   9.006  0.1690  0.1357  0.6388
  488MOL0     C65808   5.301   5.734   9.110 -0.0118 -0.2982  0.4132
  488MOL0     C65809   5.390   5.746   9.188  0.8420  0.1390  0.1599
  488MOL0     C65810   5.699   5.735   8.896 -0.1508  0.3474  0.3140
  488MOL0     C65811   5.832   5.709   8.922  0.0961  1.0112  0.1756
  488MOL0     C65812   5.867   5.673   9.065 -0.1033  0.2346  0.4488
  488MOL0     H65813   6.309   5.802   9.042 -0.8606 -1.0038  3.4821
  488MOL0     H65814   6.545   5.739   9.061  0.1838 -1.9013  0.0663
  488MOL0     H65815   6.679   5.332   8.893  0.2462  0.9931  0.1126
  488MOL0     H65816   6.689   5.459   8.772 -1.6583 -1.2549 -0.3861
  488MOL0     H65817   6.917   5.354   8.802 -0.0032  0.3733 -0.8763
  488MOL0     H65818   6.912   5.402   8.969 -0.3183  2.4770  0.5167
  488MOL0     H65819   6.885   5.654   8.900  3.3006  1.1662  1.3001
  488MOL0     H65820   6.906   5.591   8.736  1.0190 -0.3746 -0.5700
  488MOL0     H65821   7.068   5.560   8.988  1.1544 -3.6901 -0.3088
  488MOL0     H65822   7.131   5.505   8.837  1.4796  0.5149  0.7811
  488MOL0     H65823   7.111   5.754   8.741 -2.4352 -0.1525  0.6812
  488MOL0     H65824   7.073   5.795   8.904 -1.4806  0.4787 -0.9851
  488MOL0     H65825   7.327   5.642   8.819 -1.3923 -1.5240  0.6545
  488MOL0     H65826   7.312   5.819   8.823 -2.2232  0.4142 -1.0357
  488MOL0     H65827   7.317   5.609   9.037  1.5042 -0.5128 -1.3223
  488MOL0     H65828   7.242   5.763   9.074 -0.9508  0.7381 -2.4438
  488MOL0     H65829   7.457   5.883   9.019 -0.7643 -0.3658 -1.1295
  488MOL0     H65830   7.495   5.749   9.130  2.3890  0.8948 -1.0079
  488MOL0     H65831   7.644   5.871   8.833 -2.1349  0.5331  0.2714
  488MOL0     H65832   7.741   5.634   8.589  0.5465 -2.0662 -0.0837
  488MOL0     H65833   7.800   5.786   8.643 -1.2707 -0.1126  0.3697
  488MOL0     H65834   7.944   5.591   8.804 -0.1626 -0.3881  0.5517
  488MOL0     H65835   7.907   5.503   8.656 -1.4184  0.2369  0.3873
  488MOL0     H65836   8.049   5.774   8.668  1.8500  1.6448 -3.1376
  488MOL0     H65837   8.003   5.699   8.526  0.1684 -1.3515  0.0945
  488MOL0     H65838   8.237   5.661   8.583 -0.2178  1.6606  2.9288
  488MOL0     H65839   8.136   5.528   8.522  3.0648 -0.0460 -0.4630
  488MOL0     H65840   8.371   5.416   8.546  1.4831  2.3210 -1.0208
  488MOL0     H65841   8.600   5.380   8.606 -1.1825  2.2215 -0.5156
  488MOL0     H65842   8.947   5.393   8.546 -2.7188  2.5027  3.4012
  488MOL0     H65843   9.207   5.347   8.526 -0.8063  2.6107 -0.0301
  488MOL0     H65844   9.440   5.298   8.556  0.0983  2.7552 -1.1964
  488MOL0     H65845   9.408   5.453   8.633 -0.0011  0.6623 -1.4986
  488MOL0     H65846   9.605   5.406   8.785 -0.4008  1.3168 -1.4776
  488MOL0     H65847   9.611   5.242   8.728  1.4122  1.8225  2.7939
  488MOL0     H65848   9.729   5.258   8.546 -0.9105 -0.4992  3.0615
  488MOL0     H65849   9.677   5.424   8.512 -3.6677 -2.2968 -2.0934
  488MOL0     H65850   9.799   5.482   8.732 -3.2057  1.2293 -2.5739
  488MOL0     H65851   9.885   5.473   8.580  2.4501 -1.0572  1.3472
  488MOL0     H65852   9.968   5.241   8.650 -1.0604  1.1023 -1.6959
  488MOL0     H65853   9.864   5.249   8.791  0.8808  2.5308  2.4571
  488MOL0     H65854  10.066   5.462   8.749  0.3108 -0.1067 -0.4664
  488MOL0     H65855   9.972   5.443   8.882 -1.1764 -2.0908  0.2916
  488MOL0     H65856  10.216   5.333   8.885 -0.3905 -0.5107  1.0367
  488MOL0     H65857  10.134   5.197   8.798 -2.3497 -0.4537 -0.4597
  488MOL0     H65858   9.999   5.169   9.012 -0.0294 -2.1028 -2.0319
  488MOL0     H65859  10.179   5.165   9.045 -1.5938  0.4457 -1.0014
  488MOL0     H65860   9.198   5.289   8.954 -3.0857  2.0281  1.0783
  488MOL0     H65861   8.964   5.342   8.955 -0.8437  0.8250 -1.3082
  488MOL0     H65862   8.540   5.532   9.004 -0.6945 -3.2204  1.7014
  488MOL0     H65863   8.300   5.564   8.947 -0.9918  1.0025 -0.5995
  488MOL0     H65864   6.446   5.367   8.872  0.4851  0.6946 -1.9443
  488MOL0     H65865   6.226   5.435   8.862  0.2395  0.0793  0.6978
  488MOL0     H65866   5.929   5.687   8.590 -3.3701  1.4861 -2.3959
  488MOL0     H65867   5.682   5.730   8.565  0.8832  3.6027 -0.0169
  488MOL0     H65868   5.463   5.638   8.920 -2.1805 -1.0812  0.0652
  488MOL0     H65869   5.474   5.547   8.768 -1.0070 -1.3166  0.0925
  488MOL0     H65870   5.252   5.541   8.843  0.8640 -0.1062  0.5205
  488MOL0     H65871   5.250   5.628   8.695  0.5626  0.1581 -0.7212
  488MOL0     H65872   5.113   5.769   8.809  0.1513 -0.1715 -0.7522
  488MOL0     H65873   5.273   5.845   8.855  1.3618  0.1025  1.7294
  488MOL0     H65874   5.117   5.793   9.037 -0.2689  0.6093 -1.4018
  488MOL0     H65875   5.144   5.622   9.013 -0.6137  0.6156  3.1081
  488MOL0     H65876   5.473   5.743   9.257 -0.7592  0.2734  2.1927
  488MOL0     H65877   5.631   5.749   8.979 -0.9825 -0.7735 -0.1507
  488MOL0     H65878   5.952   5.741   9.081 -0.1187  0.4295 -0.2687
  488MOL0     H65879   5.785   5.706   9.128 -0.9876 -0.9374 -0.0343
  488MOL0     H65880   5.887   5.566   9.082 -0.9547  0.1017  0.6494
  489MOL0     O65881   9.145   4.942   4.311 -0.4316  0.0781 -0.0112
  489MOL0     C65882   9.135   5.061   4.308 -1.2388  0.2450  0.0324
  489MOL0     O65883   9.225   5.148   4.368  0.1810  0.0255 -0.1851
  489MOL0     C65884   9.323   5.089   4.451  0.3829  0.2087 -0.9376
  489MOL0     C65885   9.423   5.003   4.404 -0.3327 -0.1204 -0.4289
  489MOL0     C65886   9.532   4.963   4.484  0.3826  0.1545  0.0025
  489MOL0     C65887   9.540   5.005   4.619  0.2996 -0.7712 -0.6934
  489MOL0     O65888   9.637   4.959   4.704  0.0046 -0.3701 -0.4284
  489MOL0     C65889   9.745   4.887   4.660  0.7754  0.8506  0.5234
  489MOL0     C65890   9.843   4.866   4.771 -0.2201  0.0851 -0.3573
  489MOL0     C65891   9.973   4.814   4.703 -0.7895  0.1116  0.3117
  489MOL0     C65892   9.971   4.663   4.679  0.5620  0.0922  0.4399
  489MOL0     C65893  10.105   4.609   4.624  0.5005 -0.3114  0.5722
  489MOL0     C65894  10.120   4.637   4.474  0.5700  0.0097 -0.5335
  489MOL0     C65895  10.248   4.591   4.410 -0.4153 -1.2894 -0.0561
  489MOL0     C65896  10.257   4.444   4.392 -0.2231 -0.1748 -0.0975
  489MOL0     N65897  10.389   4.408   4.342 -0.8463  0.4554 -0.8446
  489MOL0     C65898  10.431   4.447   4.216  0.4797  0.7331 -0.7308
  489MOL0     C65899  10.525   4.351   4.187 -0.7001  0.0143 -0.3371
  489MOL0     C65900  10.592   4.352   4.056  0.2654  0.0087  0.2205
  489MOL0     C65901  10.632   4.212   4.014  0.9152  0.2241  0.5382
  489MOL0     C65902  10.707   4.217   3.885 -0.4914  0.0087  0.9251
  489MOL0     C65903  10.846   4.274   3.893 -0.8654 -0.1603 -0.2520
  489MOL0     O65904  10.906   4.253   3.772  0.3783 -0.0405  0.5516
  489MOL0     C65905  11.042   4.258   3.772  0.2010 -0.4856 -0.4096
  489MOL0     C65906  11.118   4.371   3.791  0.2646  0.6169 -0.7988
  489MOL0     C65907  11.262   4.371   3.771  0.7980  0.1163 -1.1596
  489MOL0     C65908  11.323   4.246   3.744 -0.5110 -0.2480  0.6338
  489MOL0     C65909  11.474   4.233   3.717  0.2665  0.0700  0.2569
  489MOL0     O65910  11.524   4.113   3.745  0.1127 -0.7096 -0.3136
  489MOL0     C65911  11.660   4.094   3.745 -0.0388 -0.4943  0.1135
  489MOL0     C65912  11.692   3.960   3.758 -0.0196  0.3586  0.5875
  489MOL0     C65913  11.825   3.919   3.776 -0.4476  0.6460  0.2428
  489MOL0     C65914  11.928   4.009   3.780 -0.1085 -0.6342 -0.4625
  489MOL0     O65915  12.055   3.961   3.797  0.3152 -0.2777  0.5466
  489MOL0     C65916  12.164   4.044   3.828 -0.1445 -0.2065 -0.3624
  489MOL0     C65917  12.292   3.965   3.797 -0.1403 -0.4730 -0.7988
  489MOL0     C65918  12.418   4.044   3.838  0.8256  0.4208  0.4784
  489MOL0     C65919  12.514   3.948   3.914  0.8114  0.3804  0.4927
  489MOL0     C65920  12.633   4.025   3.981 -0.2266 -0.4232 -0.5735
  489MOL0     C65921  12.727   4.080   3.875  0.1017 -0.2016  0.8661
  489MOL0     C65922  12.727   4.237   3.891  0.1276  0.0019 -0.3647
  489MOL0     C65923  12.808   4.304   4.007  0.3087 -0.2616 -0.2691
  489MOL0    Cl65924  12.829   4.481   3.954 -0.1434 -0.4444 -0.0743
  489MOL0     C65925  11.898   4.140   3.738  0.0818  0.1009 -0.6595
  489MOL0     C65926  11.765   4.182   3.739  0.0656 -0.5704  0.6936
  489MOL0     O65927  11.533   4.322   3.658  0.5811  0.3040 -0.8285
  489MOL0     C65928  11.245   4.133   3.741 -0.2129 -0.0432  0.3887
  489MOL0     C65929  11.110   4.137   3.744  0.2060 -0.8334 -1.4870
  489MOL0     N65930  10.549   4.276   4.302 -0.0418 -0.4053  0.5032
  489MOL0     N65931  10.468   4.308   4.400  0.5301 -0.3795 -0.0154
  489MOL0     C65932   9.438   5.088   4.668  0.3120  0.5571 -1.0693
  489MOL0     C65933   9.330   5.136   4.586 -0.4067 -0.3309 -0.3996
  489MOL0     C65934   9.010   5.117   4.245  0.1801  0.6197  0.1882
  489MOL0     C65935   8.904   5.021   4.223 -0.6719 -0.9988  0.6409
  489MOL0     C65936   8.793   5.056   4.155  0.4412  0.2627  0.1445
  489MOL0     C65937   8.762   5.176   4.099 -0.4963  0.2875 -0.2100
  489MOL0     O65938   8.641   5.180   4.030 -0.4558 -0.4223 -0.5175
  489MOL0     C65939   8.624   5.288   3.931 -0.3504 -0.5867  0.0155
  489MOL0     C65940   8.703   5.256   3.805  0.5480 -0.4603 -0.7031
  489MOL0     C65941   8.691   5.366   3.696 -0.6440  0.3274  0.2674
  489MOL0     C65942   8.719   5.510   3.738 -0.2392 -0.4902  0.3865
  489MOL0     C65943   8.861   5.511   3.771  0.2977  0.2102  0.7502
  489MOL0     C65944   8.978   5.524   3.801 -0.1037  0.0779 -0.5363
  489MOL0     C65945   8.878   5.269   4.110  1.1776  0.4053 -0.3451
  489MOL0     C65946   9.000   5.237   4.178 -0.5646 -0.4928  0.1877
  489MOL0     C65947   9.119   5.332   4.167 -0.5843 -0.0914  0.1356
  489MOL0     H65948   9.410   4.975   4.300 -2.1034 -3.3495  0.5252
  489MOL0     H65949   9.605   4.900   4.435 -0.4830 -0.5737 -0.3730
  489MOL0     H65950   9.706   4.789   4.629  1.6124  1.1223 -1.6085
  489MOL0     H65951   9.792   4.929   4.570  0.7305 -1.7418 -0.8158
  489MOL0     H65952   9.798   4.794   4.840 -0.4409  0.4360 -0.1317
  489MOL0     H65953   9.865   4.962   4.818 -0.7517  0.5960 -1.1360
  489MOL0     H65954  10.060   4.840   4.764 -0.0016 -1.9283  0.1515
  489MOL0     H65955   9.982   4.860   4.604 -2.3678 -0.3484 -0.0712
  489MOL0     H65956   9.947   4.606   4.769 -0.5025 -0.6793 -0.3139
  489MOL0     H65957   9.891   4.634   4.610  1.7973  0.5293 -1.2550
  489MOL0     H65958  10.191   4.650   4.679  0.2063 -1.7295  2.1583
  489MOL0     H65959  10.095   4.501   4.636 -0.8804 -0.0349  2.3517
  489MOL0     H65960  10.028   4.621   4.419 -0.5091  0.0404  1.1897
  489MOL0     H65961  10.129   4.746   4.466 -1.6244  0.1485 -1.9354
  489MOL0     H65962  10.331   4.629   4.470 -0.2618 -0.2624 -0.8819
  489MOL0     H65963  10.257   4.642   4.314  1.9746  1.5183  1.4988
  489MOL0     H65964  10.255   4.396   4.490  1.1604  0.6061  0.3380
  489MOL0     H65965  10.184   4.399   4.323  0.6834 -0.1742 -1.0790
  489MOL0     H65966  10.380   4.511   4.145 -0.1692  0.6623 -0.3408
  489MOL0     H65967  10.523   4.392   3.980  0.3252 -0.1025  0.1059
  489MOL0     H65968  10.680   4.416   4.068  1.1365 -1.0221 -0.4364
  489MOL0     H65969  10.686   4.166   4.097  0.9342  0.2976  0.5664
  489MOL0     H65970  10.536   4.163   4.000  0.8125  1.1072 -2.5611
  489MOL0     H65971  10.639   4.264   3.814 -1.1661 -2.1987  0.0109
  489MOL0     H65972  10.721   4.114   3.849  0.7447  0.0113  1.3299
  489MOL0     H65973  10.911   4.224   3.966  0.6010  2.4942  0.3721
  489MOL0     H65974  10.860   4.379   3.920 -2.2650  0.8267 -3.0505
  489MOL0     H65975  11.068   4.465   3.814  1.1937  1.1861 -1.0418
  489MOL0     H65976  11.315   4.462   3.796 -0.2112  0.1276  1.1928
  489MOL0     H65977  11.610   3.889   3.755 -0.3641  0.6598  2.2860
  489MOL0     H65978  11.859   3.816   3.777  0.4799  0.9464  0.7707
  489MOL0     H65979  12.162   4.136   3.769  0.1742 -0.0086 -0.0692
  489MOL0     H65980  12.163   4.066   3.936  0.4825 -1.1419 -0.1602
  489MOL0     H65981  12.290   3.863   3.838  1.5550 -0.5932 -0.9633
  489MOL0     H65982  12.302   3.944   3.690 -2.0472 -1.8671 -0.7548
  489MOL0     H65983  12.473   4.092   3.757  0.7196 -0.6878 -0.2608
  489MOL0     H65984  12.379   4.125   3.901 -0.2453  0.4041 -0.1345
  489MOL0     H65985  12.549   3.880   3.835  1.1955  0.3475  0.6896
  489MOL0     H65986  12.470   3.879   3.987  1.6540 -1.0051 -0.2692
  489MOL0     H65987  12.697   3.948   4.025 -1.5536 -1.8952 -1.1166
  489MOL0     H65988  12.602   4.092   4.062  1.8327  0.2055 -0.2587
  489MOL0     H65989  12.826   4.042   3.900 -0.9559 -3.7477  0.2532
  489MOL0     H65990  12.702   4.051   3.773  0.5496  3.2183 -0.3169
  489MOL0     H65991  12.628   4.283   3.881  0.9331  1.9978  0.2721
  489MOL0     H65992  12.788   4.276   3.809  1.0347  0.4130  0.4848
  489MOL0     H65993  12.756   4.311   4.103  0.3052  0.5433 -0.3220
  489MOL0     H65994  12.897   4.244   4.026 -0.6635 -1.7285 -0.2285
  489MOL0     H65995  11.974   4.216   3.728  0.5850 -0.3934 -0.6687
  489MOL0     H65996  11.751   4.288   3.719  4.2904  0.1248  0.4773
  489MOL0     H65997  11.292   4.036   3.725  2.6108  0.8997  2.1948
  489MOL0     H65998  11.058   4.042   3.735  1.8903 -1.8923 -0.5912
  489MOL0     H65999   9.433   5.114   4.773  0.6801 -1.5534 -0.4933
  489MOL0     H66000   9.263   5.212   4.624 -0.6541 -0.6948 -0.1070
  489MOL0     H66001   8.915   4.916   4.245 -3.6981 -1.7146 -0.6738
  489MOL0     H66002   8.718   4.980   4.135 -0.9027  1.5884 -0.0602
  489MOL0     H66003   8.660   5.374   3.988 -1.1116 -0.2724  0.0343
  489MOL0     H66004   8.522   5.304   3.894  0.3870 -1.3228 -2.5782
  489MOL0     H66005   8.650   5.166   3.774 -3.4226  1.1354  0.8869
  489MOL0     H66006   8.809   5.241   3.828  0.6705  1.7846  0.4913
  489MOL0     H66007   8.587   5.362   3.661 -0.8358  1.4185  0.6802
  489MOL0     H66008   8.760   5.341   3.615 -0.6020  0.2062  0.3408
  489MOL0     H66009   8.697   5.572   3.650 -1.5283 -3.0023 -1.1890
  489MOL0     H66010   8.662   5.542   3.825 -0.7810 -2.8861  0.9881
  489MOL0     H66011   9.085   5.528   3.813 -0.1848 -1.6378  1.2773
  489MOL0     H66012   8.871   5.360   4.051  1.5892  0.8663  0.3135
  489MOL0     H66013   9.090   5.407   4.094 -3.3777 -1.9361 -0.7927
  489MOL0     H66014   9.145   5.383   4.261 -0.7797 -0.6193  0.4792
  489MOL0     H66015   9.209   5.284   4.126 -0.7353  0.6955 -1.1765
  490MOL0     O66016   8.632   0.526   1.278  0.8131 -0.0044 -0.2420
  490MOL0     C66017   8.595   0.408   1.261  0.2076  0.1306 -0.1843
  490MOL0     O66018   8.589   0.305   1.354  0.1174  0.2088  0.5901
  490MOL0     C66019   8.680   0.311   1.453 -0.1161  0.0969 -0.0489
  490MOL0     C66020   8.819   0.328   1.433  0.3143  0.6213 -1.1670
  490MOL0     C66021   8.901   0.336   1.543 -0.9250  0.3274  0.1437
  490MOL0     C66022   8.854   0.325   1.671 -0.0930  0.2448 -0.2112
  490MOL0     O66023   8.958   0.333   1.763 -0.7974  0.0562 -0.5723
  490MOL0     C66024   8.940   0.306   1.900 -0.2517  0.6073 -0.1754
  490MOL0     C66025   8.913   0.158   1.926 -0.2042 -0.1928  0.8809
  490MOL0     C66026   9.043   0.082   1.905 -0.8117 -0.1122  0.6455
  490MOL0     C66027   9.027  -0.069   1.940 -0.6634 -0.2003  0.7285
  490MOL0     C66028   9.168  -0.121   1.973 -0.2288  0.3088 -0.0608
  490MOL0     C66029   9.183  -0.271   1.951  0.2535  0.5085  0.4102
  490MOL0     C66030   9.324  -0.321   1.986 -0.5055  0.3254 -0.4412
  490MOL0     C66031   9.424  -0.277   1.890  0.5167  0.1873 -0.3521
  490MOL0     N66032   9.545  -0.356   1.897 -1.1056  0.4386 -0.0829
  490MOL0     C66033   9.562  -0.480   1.839  0.2221  0.1255  0.1278
  490MOL0     C66034   9.689  -0.519   1.870  0.1991  0.3041 -0.6542
  490MOL0     C66035   9.770  -0.624   1.805 -0.0756  0.0600  0.2596
  490MOL0     C66036   9.860  -0.562   1.693  0.0019  0.0353 -0.0090
  490MOL0     C66037   9.947  -0.670   1.636  0.1157 -0.0652 -0.6733
  490MOL0     C66038  10.061  -0.603   1.561 -0.0466  0.4080 -1.5359
  490MOL0     O66039  10.184  -0.611   1.629  0.2506  0.0696  0.2310
  490MOL0     C66040  10.294  -0.557   1.570 -0.3104  0.3395  0.3802
  490MOL0     C66041  10.310  -0.537   1.439 -0.3204  0.6880  0.2778
  490MOL0     C66042  10.430  -0.495   1.383 -0.2716 -0.0466  0.5084
  490MOL0     C66043  10.547  -0.489   1.456 -0.3339  0.6558  0.4378
  490MOL0     C66044  10.684  -0.468   1.403 -0.2349  0.1209  0.1112
  490MOL0     O66045  10.773  -0.417   1.490 -0.5128 -0.0215  0.2510
  490MOL0     C66046  10.907  -0.390   1.454  0.2638  0.1652  1.1431
  490MOL0     C66047  10.946  -0.345   1.331 -0.2144 -0.6891  0.5511
  490MOL0     C66048  11.076  -0.318   1.309 -0.9061  0.1115  0.3997
  490MOL0     C66049  11.169  -0.314   1.415 -0.4670 -0.3068 -0.2380
  490MOL0     O66050  11.307  -0.274   1.408  0.2118  0.2042  0.7290
  490MOL0     C66051  11.351  -0.197   1.294  0.2920  1.1823 -0.6628
  490MOL0     C66052  11.492  -0.159   1.320  0.1896 -0.1843  0.4669
  490MOL0     C66053  11.543  -0.074   1.203  0.0529  0.6745  0.0197
  490MOL0     C66054  11.681  -0.020   1.228 -0.2252  0.1108 -0.9479
  490MOL0     C66055  11.717   0.071   1.104  0.0416  0.2321  0.4474
  490MOL0     C66056  11.873   0.096   1.102 -0.4021  0.3536 -0.8680
  490MOL0     C66057  11.922   0.144   0.956 -1.2076 -0.4322 -0.5704
  490MOL0     C66058  12.071   0.142   0.947  0.0037  0.2429  0.7908
  490MOL0    Cl66059  12.152   0.269   1.045 -0.1926  0.1246 -0.6470
  490MOL0     C66060  11.127  -0.361   1.545 -1.2862 -1.2891 -0.0570
  490MOL0     C66061  11.005  -0.410   1.557  0.8609  1.1477 -0.5629
  490MOL0     O66062  10.715  -0.502   1.290 -0.2575 -1.0316 -0.1212
  490MOL0     C66063  10.530  -0.497   1.597  0.8170 -0.3506  0.6943
  490MOL0     C66064  10.405  -0.540   1.649 -0.3052 -0.2190 -0.0063
  490MOL0     N66065   9.745  -0.425   1.962  0.8601  0.2403  0.5552
  490MOL0     N66066   9.650  -0.336   1.974  0.2915  0.7738 -0.2828
  490MOL0     C66067   8.716   0.316   1.704  1.2138  0.5310  0.1962
  490MOL0     C66068   8.631   0.304   1.586 -0.5914  0.6213 -0.3405
  490MOL0     C66069   8.550   0.378   1.130  0.2791 -0.1039 -0.4752
  490MOL0     C66070   8.508   0.247   1.110  0.5884  0.2441 -0.4022
  490MOL0     C66071   8.452   0.211   0.985 -0.5586 -0.3558 -0.0739
  490MOL0     C66072   8.451   0.297   0.872  0.1617  0.3669  0.7766
  490MOL0     O66073   8.412   0.265   0.743 -0.6857  0.3531 -0.8984
  490MOL0     C66074   8.315   0.160   0.726  0.2028  0.2601 -0.4977
  490MOL0     C66075   8.177   0.198   0.764  0.1157 -0.2663 -0.9601
  490MOL0     C66076   8.152   0.353   0.762 -0.7504  0.8412 -0.6833
  490MOL0     C66077   8.006   0.397   0.738  0.5828 -0.2096 -0.4205
  490MOL0     C66078   7.909   0.389   0.854 -0.4716 -0.3247 -0.0711
  490MOL0     C66079   7.838   0.367   0.949 -0.0438  0.7468  0.9449
  490MOL0     C66080   8.509   0.425   0.891  0.7794  0.4518  0.5473
  490MOL0     C66081   8.564   0.467   1.018 -0.2258  0.1236 -0.7387
  490MOL0     C66082   8.648   0.587   1.015 -0.4631 -0.5494  0.1270
  490MOL0     H66083   8.869   0.335   1.337  1.1988 -1.1001 -0.8637
  490MOL0     H66084   9.009   0.341   1.527 -0.6435 -2.7599  0.4922
  490MOL0     H66085   9.022   0.340   1.964 -0.2488 -3.1864  2.1237
  490MOL0     H66086   8.855   0.368   1.928 -1.3802  0.0528 -2.1532
  490MOL0     H66087   8.832   0.133   1.857  0.8866  1.8676 -1.2396
  490MOL0     H66088   8.873   0.141   2.027 -1.7093 -2.2307  0.0306
  490MOL0     H66089   9.124   0.125   1.965  1.1189 -2.3792 -0.1680
  490MOL0     H66090   9.083   0.093   1.803 -0.2065  2.6678  1.0987
  490MOL0     H66091   8.960  -0.086   2.025 -0.5768  2.2080  1.3448
  490MOL0     H66092   8.981  -0.117   1.853 -0.9031  1.0230  0.1660
  490MOL0     H66093   9.240  -0.067   1.910  1.0724 -0.1811  0.9650
  490MOL0     H66094   9.191  -0.095   2.077  0.4267  2.6527 -0.7219
  490MOL0     H66095   9.115  -0.331   2.012 -1.1434  0.2660 -1.2903
  490MOL0     H66096   9.157  -0.292   1.847 -3.1297  0.8581  1.0636
  490MOL0     H66097   9.320  -0.431   1.989 -1.9393  0.3747  2.5367
  490MOL0     H66098   9.345  -0.290   2.089 -0.3133  0.1673 -0.4311
  490MOL0     H66099   9.388  -0.295   1.788  1.2486  0.3520 -0.6448
  490MOL0     H66100   9.445  -0.172   1.909 -1.7966  0.5555  0.5582
  490MOL0     H66101   9.495  -0.527   1.768  1.8279  2.2300 -2.9868
  490MOL0     H66102   9.831  -0.679   1.876  1.3973 -0.6912 -1.5026
  490MOL0     H66103   9.699  -0.694   1.761 -0.3261  0.8890 -0.7070
  490MOL0     H66104   9.804  -0.515   1.613  1.4102 -2.7158 -2.8152
  490MOL0     H66105   9.929  -0.488   1.736  2.3186 -0.3490 -2.7431
  490MOL0     H66106   9.895  -0.742   1.573  1.5022 -3.1056  1.3863
  490MOL0     H66107   9.987  -0.736   1.713  1.3398  1.6809  0.2773
  490MOL0     H66108  10.042  -0.498   1.535 -1.9566  0.8493  1.2474
  490MOL0     H66109  10.078  -0.653   1.465  1.1753  0.1308 -1.1987
  490MOL0     H66110  10.229  -0.556   1.369  0.7338 -1.7989 -0.3965
  490MOL0     H66111  10.441  -0.483   1.275  1.0577 -1.6246  0.4133
  490MOL0     H66112  10.874  -0.329   1.252 -0.6652  0.7103  1.2195
  490MOL0     H66113  11.113  -0.289   1.211 -3.5795  1.3439 -0.3410
  490MOL0     H66114  11.342  -0.259   1.204 -0.5585  0.3425 -0.0182
  490MOL0     H66115  11.293  -0.104   1.285 -3.4551 -0.5951  2.2846
  490MOL0     H66116  11.504  -0.110   1.418  1.4039 -0.3771  0.4277
  490MOL0     H66117  11.563  -0.242   1.317 -0.0252 -0.3398 -1.0116
  490MOL0     H66118  11.553  -0.141   1.118 -0.4431  2.1658 -1.2713
  490MOL0     H66119  11.477   0.011   1.180  2.0224  1.9105 -1.4259
  490MOL0     H66120  11.749  -0.106   1.228 -0.3626 -0.0845  1.8392
  490MOL0     H66121  11.696   0.033   1.323  0.4872  0.2325 -1.1235
  490MOL0     H66122  11.662   0.165   1.116  0.6137  0.3351  2.7918
  490MOL0     H66123  11.690   0.018   1.012 -1.2277 -2.1163  2.0552
  490MOL0     H66124  11.902   0.168   1.180  3.5815 -0.2033 -1.6398
  490MOL0     H66125  11.921  -0.000   1.119  1.3781  1.5498  1.4828
  490MOL0     H66126  11.885   0.247   0.954  1.1860  0.5623  1.4012
  490MOL0     H66127  11.880   0.086   0.873  1.1617 -3.0311 -0.1182
  490MOL0     H66128  12.105   0.045   0.986 -2.2271 -0.2819  1.5597
  490MOL0     H66129  12.104   0.151   0.843 -0.2503  4.4607  0.9031
  490MOL0     H66130  11.204  -0.372   1.621  0.1892 -2.1641 -1.5999
  490MOL0     H66131  10.989  -0.457   1.654  3.2449  1.8974  0.2655
  490MOL0     H66132  10.606  -0.474   1.672  1.9629  1.4021 -0.9371
  490MOL0     H66133  10.397  -0.554   1.757 -0.8582  0.3772  0.0352
  490MOL0     H66134   8.662   0.300   1.797 -3.1355 -0.4243 -2.2375
  490MOL0     H66135   8.524   0.299   1.600 -0.3761  0.3438  1.4957
  490MOL0     H66136   8.510   0.181   1.196  0.6943  2.4914  1.4287
  490MOL0     H66137   8.414   0.112   0.962  0.2068 -0.0997 -2.8620
  490MOL0     H66138   8.336   0.066   0.779  1.1667 -0.1791 -1.6169
  490MOL0     H66139   8.318   0.141   0.619  1.2239 -1.9529 -0.1350
  490MOL0     H66140   8.161   0.177   0.871 -0.8877  3.1114 -0.3520
  490MOL0     H66141   8.112   0.145   0.694  2.8705  0.0225 -3.9571
  490MOL0     H66142   8.205   0.397   0.678 -1.0124  0.9940 -0.7709
  490MOL0     H66143   8.206   0.403   0.842  2.4673 -0.2396 -2.0226
  490MOL0     H66144   8.018   0.504   0.719  3.0092  0.0369  1.8692
  490MOL0     H66145   7.966   0.353   0.646 -2.2552  0.1258  0.5477
  490MOL0     H66146   7.761   0.349   1.022 -1.3233  0.5971 -0.3912
  490MOL0     H66147   8.520   0.502   0.815  1.2344  1.2678  1.4158
  490MOL0     H66148   8.685   0.602   0.913 -0.7388  3.1199  0.4189
  490MOL0     H66149   8.596   0.681   1.034  0.6915  0.6560 -2.2189
  490MOL0     H66150   8.745   0.577   1.064 -0.3999  0.1626  0.1515
  491MOL0     O66151   4.606   7.107   3.903 -0.5103 -0.0092 -0.6893
  491MOL0     C66152   4.532   7.165   3.989 -0.2231 -0.3338 -0.0193
  491MOL0     O66153   4.557   7.272   4.055 -1.3747 -0.5561 -0.2242
  491MOL0     C66154   4.685   7.332   4.062  0.0830 -0.4407  0.6558
  491MOL0     C66155   4.728   7.379   4.190 -0.5654  0.1807 -0.2323
  491MOL0     C66156   4.855   7.442   4.197  0.3384 -0.0918 -0.7379
  491MOL0     C66157   4.932   7.462   4.085  0.0550  1.1747 -0.4585
  491MOL0     O66158   5.053   7.526   4.081 -0.3289 -0.2364 -0.1574
  491MOL0     C66159   5.097   7.628   4.181  0.4731  0.1359 -0.1956
  491MOL0     C66160   5.208   7.719   4.119  0.2689 -0.6602  0.2743
  491MOL0     C66161   5.350   7.665   4.097 -0.2434  0.0360 -0.3030
  491MOL0     C66162   5.435   7.757   3.998 -0.3422 -0.2939  0.0302
  491MOL0     C66163   5.562   7.693   3.943 -0.5813 -0.3076 -0.3513
  491MOL0     C66164   5.668   7.666   4.049  0.1487 -0.2572 -1.1747
  491MOL0     C66165   5.798   7.605   3.988  0.1903  0.2217  0.0426
  491MOL0     C66166   5.911   7.603   4.099  0.5734  0.2506  0.2186
  491MOL0     N66167   5.890   7.517   4.214  0.0977  0.0234  0.0289
  491MOL0     C66168   5.823   7.551   4.325 -0.3262 -0.8592 -0.4534
  491MOL0     C66169   5.829   7.449   4.411 -0.0447  0.6108 -0.7327
  491MOL0     C66170   5.765   7.450   4.548  0.2112 -0.2592 -0.8184
  491MOL0     C66171   5.626   7.396   4.567  0.1082  0.0239  0.0487
  491MOL0     C66172   5.524   7.447   4.465  0.0063  0.1272  0.1056
  491MOL0     C66173   5.387   7.384   4.464 -0.1458 -0.1193 -0.1244
  491MOL0     O66174   5.302   7.417   4.577 -0.3869  0.2659 -0.2821
  491MOL0     C66175   5.176   7.367   4.587  0.9671 -0.1434 -0.4445
  491MOL0     C66176   5.103   7.369   4.711 -0.4440  0.0505  0.9923
  491MOL0     C66177   4.971   7.328   4.716  0.0072  0.0600  0.3271
  491MOL0     C66178   4.907   7.289   4.605 -0.3945  0.3949 -0.5914
  491MOL0     C66179   4.762   7.241   4.621 -0.0508 -0.5499 -0.2469
  491MOL0     O66180   4.713   7.246   4.750  0.0842 -0.3577 -0.7807
  491MOL0     C66181   4.582   7.207   4.772  0.0280  0.7222 -0.1096
  491MOL0     C66182   4.553   7.164   4.905 -0.1871  0.1995  0.0170
  491MOL0     C66183   4.423   7.133   4.952 -0.2639 -0.5968  0.4558
  491MOL0     C66184   4.314   7.140   4.869 -0.6868  0.2600  0.5977
  491MOL0     O66185   4.182   7.122   4.911 -0.9073  0.4922  0.2702
  491MOL0     C66186   4.173   6.994   4.987 -1.0977 -0.2453 -0.0068
  491MOL0     C66187   4.125   7.010   5.130  0.4321 -0.3966 -0.7487
  491MOL0     C66188   3.979   7.064   5.132  0.2805 -1.2743 -0.3011
  491MOL0     C66189   3.867   6.951   5.104  0.8080  0.0348  0.2312
  491MOL0     C66190   3.725   6.986   5.130  0.2190  0.2590 -0.6245
  491MOL0     C66191   3.693   7.005   5.280  0.0990  0.3598 -0.2276
  491MOL0     C66192   3.550   7.072   5.292 -0.3901 -0.1799 -0.5594
  491MOL0     C66193   3.493   7.032   5.433  0.1692  0.0180  0.0121
  491MOL0    Cl66194   3.565   7.150   5.547  0.0796 -0.2457 -0.2873
  491MOL0     C66195   4.337   7.183   4.732  0.8755  0.2452 -0.2924
  491MOL0     C66196   4.464   7.206   4.685 -0.1397 -0.4183 -0.0444
  491MOL0     O66197   4.698   7.204   4.522  0.2066 -0.1060  0.2955
  491MOL0     C66198   4.975   7.278   4.480 -0.8169 -0.3206  0.8061
  491MOL0     C66199   5.106   7.312   4.472 -1.1768  0.0176  0.5994
  491MOL0     N66200   5.906   7.353   4.342  0.0892 -0.9406  0.5976
  491MOL0     N66201   5.942   7.397   4.223 -0.3698 -0.7002  0.6654
  491MOL0     C66202   4.887   7.421   3.961  0.1173  0.3343  0.5204
  491MOL0     C66203   4.763   7.359   3.949  0.2570  0.2793  0.2497
  491MOL0     C66204   4.401   7.109   4.030  0.8334  0.7602  0.3942
  491MOL0     C66205   4.343   7.031   3.931 -0.4703 -0.4002 -0.1832
  491MOL0     C66206   4.224   6.970   3.948  0.6633 -0.1850 -0.6979
  491MOL0     C66207   4.166   6.971   4.071  0.8482 -0.1108 -0.1110
  491MOL0     O66208   4.056   6.890   4.094 -1.0870 -0.2472  0.6341
  491MOL0     C66209   3.994   6.887   4.223  0.4017  0.2646  0.1017
  491MOL0     C66210   3.888   6.787   4.195 -0.2021 -0.5167 -0.0264
  491MOL0     C66211   3.786   6.752   4.312  0.1367  0.1916  0.3972
  491MOL0     C66212   3.697   6.864   4.346 -0.2713  0.3679 -0.0678
  491MOL0     C66213   3.621   6.833   4.472  0.4806 -0.5653  0.7126
  491MOL0     C66214   3.588   6.803   4.583  0.2371 -0.3678 -0.0242
  491MOL0     C66215   4.217   7.051   4.175  0.6234  1.1380  0.0124
  491MOL0     C66216   4.338   7.117   4.157  0.0089 -0.0916  0.2796
  491MOL0     C66217   4.389   7.184   4.287  0.3299 -0.0095  0.3116
  491MOL0     H66218   4.670   7.374   4.282  2.0199 -2.2562  1.3994
  491MOL0     H66219   4.889   7.489   4.290 -3.1159  0.3806  0.4255
  491MOL0     H66220   5.019   7.699   4.209  0.1504  0.1954 -1.1896
  491MOL0     H66221   5.139   7.574   4.266 -2.3019  0.1993  1.3250
  491MOL0     H66222   5.222   7.804   4.186  4.8091 -0.9415 -0.0103
  491MOL0     H66223   5.175   7.756   4.022 -0.9165 -1.6361  0.2776
  491MOL0     H66224   5.345   7.562   4.061  0.7523 -1.7019  3.8651
  491MOL0     H66225   5.405   7.659   4.192  2.1965 -0.9304 -1.6968
  491MOL0     H66226   5.360   7.780   3.921  0.7996 -0.5138 -1.1770
  491MOL0     H66227   5.467   7.854   4.036  3.9847 -0.8702 -1.5649
  491MOL0     H66228   5.548   7.591   3.906  1.5401 -0.3205 -1.2722
  491MOL0     H66229   5.596   7.752   3.857  0.0627 -1.8146 -1.1821
  491MOL0     H66230   5.689   7.759   4.103 -2.3882  1.4142 -2.8509
  491MOL0     H66231   5.631   7.603   4.130 -0.2739  1.3042 -0.1029
  491MOL0     H66232   5.828   7.650   3.893 -2.3275 -0.1678 -1.0167
  491MOL0     H66233   5.781   7.500   3.961 -0.7277  0.0275  1.2867
  491MOL0     H66234   5.998   7.565   4.044  0.0384 -0.1784 -0.3356
  491MOL0     H66235   5.931   7.703   4.138  0.8686 -0.3095  1.5596
  491MOL0     H66236   5.797   7.650   4.361  2.5081 -0.1374 -0.2247
  491MOL0     H66237   5.836   7.401   4.614  1.4271  3.1372  0.5989
  491MOL0     H66238   5.767   7.549   4.594  1.9799 -0.7766  0.2963
  491MOL0     H66239   5.621   7.288   4.550  1.1968  0.0319 -0.3846
  491MOL0     H66240   5.595   7.418   4.669 -1.0755  0.0009 -0.2871
  491MOL0     H66241   5.563   7.432   4.364  0.2001  0.9787  0.0472
  491MOL0     H66242   5.514   7.555   4.476 -0.4496 -0.1150  2.9748
  491MOL0     H66243   5.404   7.277   4.452 -0.9205 -0.1123 -1.5697
  491MOL0     H66244   5.337   7.419   4.373 -0.5935  0.1929  0.2345
  491MOL0     H66245   5.160   7.395   4.799  2.9791 -1.0855 -0.7111
  491MOL0     H66246   4.920   7.335   4.811 -0.0618 -1.0323  0.3837
  491MOL0     H66247   4.630   7.162   4.981 -0.9058  1.5004  0.8087
  491MOL0     H66248   4.411   7.098   5.054 -3.1666 -0.0867  0.3857
  491MOL0     H66249   4.105   6.923   4.939 -3.0840 -0.7300  3.2454
  491MOL0     H66250   4.270   6.945   4.999 -1.4884 -1.0267  0.0170
  491MOL0     H66251   4.122   6.913   5.180 -2.1745 -0.8188 -1.5825
  491MOL0     H66252   4.191   7.070   5.192 -0.0951 -1.7768  1.2459
  491MOL0     H66253   3.949   7.107   5.229  1.3559  0.3288 -0.6354
  491MOL0     H66254   3.974   7.148   5.063 -1.7872 -1.6529 -0.6619
  491MOL0     H66255   3.894   6.860   5.159 -0.8518 -0.9320 -0.4999
  491MOL0     H66256   3.876   6.925   4.998 -0.4581  1.7066 -0.3358
  491MOL0     H66257   3.666   6.903   5.090  0.9184 -1.1805  1.2134
  491MOL0     H66258   3.704   7.077   5.072  0.9800  1.7772  1.3747
  491MOL0     H66259   3.693   6.908   5.331 -1.6173 -0.2213 -1.2321
  491MOL0     H66260   3.772   7.070   5.319 -0.1755  2.4375 -2.8388
  491MOL0     H66261   3.485   7.030   5.214  2.6416 -1.3292 -2.6427
  491MOL0     H66262   3.544   7.179   5.274  0.3608  0.0525  0.5001
  491MOL0     H66263   3.384   7.036   5.439  0.1793 -1.5359  2.2424
  491MOL0     H66264   3.523   6.931   5.463  0.7312  0.1952  0.0636
  491MOL0     H66265   4.247   7.188   4.671  1.0211 -4.9921 -1.4291
  491MOL0     H66266   4.469   7.232   4.580  0.9787 -0.7622 -0.0946
  491MOL0     H66267   4.939   7.227   4.392  2.4592 -3.3499  1.0131
  491MOL0     H66268   5.148   7.306   4.372 -3.3393 -0.1583 -0.3348
  491MOL0     H66269   4.949   7.441   3.874  0.2792 -0.8003  0.3577
  491MOL0     H66270   4.713   7.332   3.857 -0.2289  1.3466  0.1968
  491MOL0     H66271   4.392   7.033   3.834  0.0173 -0.0384  0.0674
  491MOL0     H66272   4.169   6.904   3.882 -1.5679  0.4531  0.4187
  491MOL0     H66273   3.964   6.987   4.256  1.5815  0.0006  2.0957
  491MOL0     H66274   4.060   6.855   4.304 -0.9768 -1.4546  0.6251
  491MOL0     H66275   3.937   6.691   4.176 -0.0189 -0.3540 -0.3671
  491MOL0     H66276   3.832   6.820   4.107  2.3888 -0.4819 -1.7487
  491MOL0     H66277   3.843   6.721   4.399  0.7469  2.5076  0.9044
  491MOL0     H66278   3.723   6.668   4.282  1.4189 -0.9919  0.9263
  491MOL0     H66279   3.757   6.953   4.365  0.7675 -0.4062  0.3927
  491MOL0     H66280   3.636   6.879   4.256  0.4103 -0.7252 -0.7370
  491MOL0     H66281   3.560   6.785   4.685  2.9362 -1.4631  0.6087
  491MOL0     H66282   4.176   7.044   4.275  2.2555 -1.5632  0.6121
  491MOL0     H66283   4.333   7.148   4.375  0.0480  2.1095  1.0560
  491MOL0     H66284   4.496   7.168   4.297  0.5424  1.1100 -0.1486
  491MOL0     H66285   4.371   7.292   4.290  1.3047  0.3823 -3.1922
  492MOL0     O66286   1.638  10.468   2.462  0.1890  0.8965 -0.2822
  492MOL0     C66287   1.573  10.528   2.379 -0.0389  0.8740 -0.5246
  492MOL0     O66288   1.612  10.636   2.308  0.0112  0.0044  0.3418
  492MOL0     C66289   1.752  10.657   2.304 -0.3621  0.3197 -1.4197
  492MOL0     C66290   1.806  10.786   2.314 -0.3444 -0.2552  0.6529
  492MOL0     C66291   1.945  10.821   2.296  0.7259  0.4227 -0.0499
  492MOL0     C66292   2.035  10.715   2.292 -0.7756  0.4746 -0.1536
  492MOL0     O66293   2.170  10.723   2.281  0.8308 -0.3694 -0.0418
  492MOL0     C66294   2.234  10.847   2.303  0.7052  0.0058  0.5677
  492MOL0     C66295   2.240  10.932   2.171  0.7269 -0.0431 -0.3726
  492MOL0     C66296   2.338  10.892   2.068 -0.0308  0.6210  0.0731
  492MOL0     C66297   2.326  10.991   1.950 -0.0634 -0.6258 -0.0892
  492MOL0     C66298   2.409  10.945   1.834  0.3925  0.1183  0.0667
  492MOL0     C66299   2.358  10.809   1.781 -0.2005  0.3132 -0.7016
  492MOL0     C66300   2.409  10.784   1.638 -0.3288 -0.0079 -0.1246
  492MOL0     C66301   2.376  10.656   1.566  0.0696 -0.3293 -0.2849
  492MOL0     N66302   2.457  10.549   1.627  0.1896 -0.0333 -0.6298
  492MOL0     C66303   2.405  10.473   1.733  0.5934 -0.0401  0.2640
  492MOL0     C66304   2.489  10.366   1.735  0.1541  0.3342  0.7436
  492MOL0     C66305   2.480  10.245   1.830  0.2318 -0.3125  0.3952
  492MOL0     C66306   2.366  10.157   1.790 -0.1873  0.0872  0.7079
  492MOL0     C66307   2.385  10.102   1.649 -0.1879 -0.0111 -0.6009
  492MOL0     C66308   2.481   9.979   1.660  0.7009 -0.6403 -0.6646
  492MOL0     O66309   2.511   9.934   1.527 -0.2915  0.2086  0.2930
  492MOL0     C66310   2.627   9.984   1.462  1.0322 -0.4811 -0.0994
  492MOL0     C66311   2.697  10.096   1.500 -0.3242 -0.5438  0.1581
  492MOL0     C66312   2.822  10.131   1.447 -0.9405 -0.0675 -0.0724
  492MOL0     C66313   2.877  10.060   1.335  0.2804  0.2289  0.0027
  492MOL0     C66314   3.017  10.086   1.288  0.1275  0.6354  0.4518
  492MOL0     O66315   3.077  10.199   1.350 -0.0609  0.3984 -0.4873
  492MOL0     C66316   3.204  10.239   1.323  0.2857  0.0413 -1.1467
  492MOL0     C66317   3.250  10.256   1.192  0.0788  0.3309  0.4443
  492MOL0     C66318   3.382  10.285   1.161  0.2017  0.2338 -0.3191
  492MOL0     C66319   3.476  10.300   1.272 -0.8358 -0.4690  0.4579
  492MOL0     O66320   3.613  10.315   1.244  0.9927 -0.4506 -0.4042
  492MOL0     C66321   3.709  10.347   1.351  0.0041 -0.4629  0.5619
  492MOL0     C66322   3.853  10.388   1.287  0.4250  0.3169 -0.6178
  492MOL0     C66323   3.959  10.414   1.394  0.2648  0.4499 -0.4198
  492MOL0     C66324   4.083  10.499   1.342  0.0730  0.3654 -0.5052
  492MOL0     C66325   4.205  10.494   1.435  0.9954  0.3619 -0.6612
  492MOL0     C66326   4.328  10.575   1.385  0.1007  0.4744 -0.1520
  492MOL0     C66327   4.375  10.680   1.481 -0.2641  0.2725  0.4467
  492MOL0     C66328   4.478  10.768   1.414  0.0675  0.9846  0.4591
  492MOL0    Cl66329   4.601  10.659   1.330 -0.1795  0.1627  0.0688
  492MOL0     C66330   3.430  10.280   1.404  0.1235 -0.6171 -0.0993
  492MOL0     C66331   3.292  10.262   1.429  0.6077 -0.0031 -0.9573
  492MOL0     O66332   3.062  10.026   1.192 -0.3229  0.1029  0.3696
  492MOL0     C66333   2.807   9.952   1.290  0.0094 -0.0445  0.7158
  492MOL0     C66334   2.680   9.911   1.352  0.0108 -0.7487  0.1618
  492MOL0     N66335   2.595  10.384   1.640  0.1280  0.5055 -0.6630
  492MOL0     N66336   2.574  10.501   1.588 -0.4169 -0.2400 -0.5409
  492MOL0     C66337   1.984  10.584   2.293 -0.2183  0.3852  0.0004
  492MOL0     C66338   1.848  10.553   2.299  0.1725  0.5937  0.0195
  492MOL0     C66339   1.432  10.481   2.347 -0.0071  0.2345  0.1245
  492MOL0     C66340   1.339  10.560   2.276 -0.0021  0.2754 -0.2829
  492MOL0     C66341   1.215  10.512   2.231 -1.0749 -1.0501  0.0178
  492MOL0     C66342   1.178  10.386   2.265  0.6412  0.8678 -1.0832
  492MOL0     O66343   1.052  10.336   2.234  0.6129  0.0087 -0.2159
  492MOL0     C66344   1.035  10.312   2.098 -0.0833 -0.7283  0.5052
  492MOL0     C66345   0.921  10.222   2.069 -0.4265  0.4018 -0.2127
  492MOL0     C66346   0.787  10.281   2.112 -0.0769  0.6973  0.6064
  492MOL0     C66347   0.680  10.263   1.998 -0.3394 -0.5466 -1.0100
  492MOL0     C66348   0.564  10.333   2.037  0.1215 -0.0105  0.3772
  492MOL0     C66349   0.465  10.390   2.058 -0.2806 -0.7047 -0.7920
  492MOL0     C66350   1.263  10.301   2.335 -0.2949  0.1198  0.0549
  492MOL0     C66351   1.388  10.350   2.369 -0.8496  0.5506  0.1149
  492MOL0     C66352   1.472  10.240   2.424  0.6261  0.7201  0.0633
  492MOL0     H66353   1.731  10.865   2.309  0.7498  0.7318 -1.1307
  492MOL0     H66354   1.955  10.928   2.289 -2.0135  1.1440  3.7379
  492MOL0     H66355   2.191  10.896   2.391 -0.4166  2.7518 -1.3792
  492MOL0     H66356   2.338  10.817   2.321  0.5640 -2.9436 -2.5831
  492MOL0     H66357   2.253  11.038   2.193 -3.5634  0.5070  0.3193
  492MOL0     H66358   2.138  10.920   2.134  0.1739 -1.1135  1.3709
  492MOL0     H66359   2.317  10.789   2.038  1.4313  1.3574 -4.0404
  492MOL0     H66360   2.438  10.889   2.113 -0.2062 -1.4421  0.4095
  492MOL0     H66361   2.226  11.007   1.910  0.9983 -1.8926 -3.6309
  492MOL0     H66362   2.364  11.090   1.976 -0.4888 -0.7741  1.1587
  492MOL0     H66363   2.393  11.026   1.762 -2.8508  2.1251  2.7587
  492MOL0     H66364   2.512  10.940   1.870 -0.2939  2.8098  2.8119
  492MOL0     H66365   2.400  10.736   1.850  2.4324  2.4828  0.1619
  492MOL0     H66366   2.250  10.796   1.791 -0.2732  1.1419 -0.3571
  492MOL0     H66367   2.515  10.808   1.631 -0.1221 -0.5392  1.0938
  492MOL0     H66368   2.365  10.861   1.573  0.4818  0.6433  0.0855
  492MOL0     H66369   2.270  10.639   1.585  0.2446 -0.2062  0.8869
  492MOL0     H66370   2.392  10.668   1.458 -0.2007  2.1595 -0.1116
  492MOL0     H66371   2.308  10.483   1.779  0.7493 -0.2279  0.6372
  492MOL0     H66372   2.576  10.193   1.823  0.8409  0.8440 -0.2540
  492MOL0     H66373   2.464  10.273   1.935  1.9453  0.1638  0.5482
  492MOL0     H66374   2.344  10.072   1.856  1.2910 -0.6161  0.3439
  492MOL0     H66375   2.273  10.214   1.792 -0.7249 -0.7399 -0.0179
  492MOL0     H66376   2.415  10.182   1.581  3.1143  0.8008  1.5801
  492MOL0     H66377   2.283  10.073   1.620 -0.5043  0.9258 -0.4616
  492MOL0     H66378   2.411   9.911   1.709  0.6389  1.2581  2.1205
  492MOL0     H66379   2.568   9.983   1.725  1.0921 -0.6650 -1.1784
  492MOL0     H66380   2.659  10.159   1.580 -0.0237 -2.8141  2.2365
  492MOL0     H66381   2.875  10.216   1.488 -1.1307 -0.1569  0.3638
  492MOL0     H66382   3.183  10.231   1.111 -0.3103  4.8634 -0.9284
  492MOL0     H66383   3.412  10.298   1.058 -0.9557 -1.2728 -0.8758
  492MOL0     H66384   3.667  10.432   1.406  0.0602 -0.6539  0.9012
  492MOL0     H66385   3.726  10.263   1.418 -1.3739 -2.2764 -1.2354
  492MOL0     H66386   3.884  10.304   1.224  0.9123 -0.5774  0.7555
  492MOL0     H66387   3.838  10.479   1.229 -2.1443 -1.7939 -3.6627
  492MOL0     H66388   3.923  10.481   1.473  2.4432  2.0213 -0.6459
  492MOL0     H66389   3.993  10.318   1.434  0.7146 -0.3944 -2.7013
  492MOL0     H66390   4.053  10.602   1.325 -0.2766 -0.0486 -2.6386
  492MOL0     H66391   4.106  10.452   1.246 -1.6085  0.9445 -1.2391
  492MOL0     H66392   4.226  10.388   1.452 -0.0448  0.3095  0.4421
  492MOL0     H66393   4.172  10.535   1.531 -3.6156 -2.7471 -0.5812
  492MOL0     H66394   4.407  10.501   1.365 -1.4821 -1.6079  0.8563
  492MOL0     H66395   4.284  10.614   1.293 -1.9296  0.5685  0.8106
  492MOL0     H66396   4.426  10.645   1.572  0.6705  0.4883  0.0182
  492MOL0     H66397   4.289  10.744   1.502  0.1065  0.8588  0.1881
  492MOL0     H66398   4.445  10.847   1.346  2.4135 -0.2668 -2.3700
  492MOL0     H66399   4.541  10.820   1.487  0.0178  0.1670  1.0923
  492MOL0     H66400   3.510  10.288   1.478  0.2776  0.6769 -0.3788
  492MOL0     H66401   3.252  10.265   1.530 -1.5213  4.5315 -1.6504
  492MOL0     H66402   2.850   9.873   1.230 -0.1851  0.5662 -0.2562
  492MOL0     H66403   2.610   9.837   1.317 -2.2419  1.5850 -0.5915
  492MOL0     H66404   2.051  10.499   2.281 -3.9177 -3.0833  1.7398
  492MOL0     H66405   1.815  10.454   2.271  0.0965  0.4010  0.7758
  492MOL0     H66406   1.368  10.664   2.266  0.6910 -0.0818 -2.3753
  492MOL0     H66407   1.133  10.578   2.202 -0.1703 -0.0314 -0.2834
  492MOL0     H66408   1.127  10.267   2.059  0.7304  1.7353 -0.6296
  492MOL0     H66409   1.021  10.401   2.035  0.8756  0.3296  1.7328
  492MOL0     H66410   0.933  10.129   2.126 -1.9224  0.7970  0.8081
  492MOL0     H66411   0.925  10.193   1.964 -0.6984  0.1583 -0.1580
  492MOL0     H66412   0.788  10.388   2.134 -1.6431  0.8499  0.0828
  492MOL0     H66413   0.759  10.227   2.203  1.4532 -0.8378  0.2088
  492MOL0     H66414   0.732  10.289   1.905  5.0396 -0.1813  1.6996
  492MOL0     H66415   0.668  10.155   1.983  3.3461 -1.3161  0.4522
  492MOL0     H66416   0.367  10.433   2.059 -1.6941 -3.6076  1.9468
  492MOL0     H66417   1.227  10.199   2.342  0.3072 -0.2574 -1.7895
  492MOL0     H66418   1.427  10.144   2.395  0.5880  0.0797  2.0682
  492MOL0     H66419   1.572  10.241   2.381 -0.0605 -4.3794 -2.4734
  492MOL0     H66420   1.466  10.242   2.533 -1.6236 -3.7057  0.2911
  493MOL0     O66421  10.127  10.108   7.045 -0.0385  0.0728  0.2741
  493MOL0     C66422  10.057  10.142   6.943 -1.0323  0.5393  0.1670
  493MOL0     O66423  10.092  10.126   6.812  0.6318 -0.3326  0.0601
  493MOL0     C66424  10.221  10.078   6.783  0.2735  0.3968 -0.4531
  493MOL0     C66425  10.244   9.942   6.774 -0.5702 -0.3355  0.4396
  493MOL0     C66426  10.372   9.891   6.741  1.2963  0.2488 -0.6187
  493MOL0     C66427  10.482   9.975   6.709 -0.3850  0.6502 -0.0798
  493MOL0     O66428  10.602   9.925   6.669  0.5820 -0.1367 -0.1320
  493MOL0     C66429  10.603   9.878   6.540  0.4770 -0.0754  0.0339
  493MOL0     C66430  10.715   9.776   6.519  0.9145 -0.2568  0.7523
  493MOL0     C66431  10.855   9.840   6.497 -0.0522 -0.1603 -0.0254
  493MOL0     C66432  10.950   9.728   6.456 -0.2609  0.3373  0.4476
  493MOL0     C66433  11.073   9.779   6.394 -0.5119 -0.4448  0.3480
  493MOL0     C66434  11.156   9.678   6.317 -0.7524  1.4814  0.4347
  493MOL0     C66435  11.200   9.574   6.418  0.9265  0.8382  0.4174
  493MOL0     C66436  11.288   9.471   6.358  0.6273  0.7573  1.0426
  493MOL0     N66437  11.421   9.523   6.325 -0.7197  0.2603  0.4548
  493MOL0     C66438  11.491   9.508   6.207  0.5462 -0.1590  0.2864
  493MOL0     C66439  11.621   9.555   6.227  0.0995  0.7532 -0.2116
  493MOL0     C66440  11.746   9.558   6.134 -0.5242  0.0795 -0.1769
  493MOL0     C66441  11.757   9.678   6.043 -0.3174 -0.2633 -0.4339
  493MOL0     C66442  11.769   9.817   6.122 -0.7030 -0.5750  0.2074
  493MOL0     C66443  11.768   9.935   6.014 -0.2671 -0.3622 -0.7005
  493MOL0     O66444  11.867   9.924   5.914  0.4811 -0.6574  0.2131
  493MOL0     C66445  12.001   9.940   5.943 -0.3281  0.1618 -0.2626
  493MOL0     C66446  12.097   9.893   5.854  0.7637 -0.2173  0.4238
  493MOL0     C66447  12.229   9.914   5.875 -0.5427 -0.0732  0.4374
  493MOL0     C66448  12.281   9.985   5.987  0.5152  0.7519  0.4339
  493MOL0     C66449  12.425  10.013   6.019 -1.0314 -0.1275  0.9879
  493MOL0     O66450  12.522   9.915   5.977  0.4146 -0.4473  0.2869
  493MOL0     C66451  12.655   9.913   6.010 -0.5913  0.9815 -0.3795
  493MOL0     C66452  12.721  10.001   6.098 -0.3008 -0.4077  0.5041
  493MOL0     C66453  12.862   9.989   6.127  0.0015  0.1430  0.4990
  493MOL0     C66454  12.928   9.880   6.080 -0.1979 -0.0298 -0.1423
  493MOL0     O66455  13.057   9.850   6.123  0.4816  0.3013  0.2962
  493MOL0     C66456  13.084   9.865   6.264  0.6948  1.1581  0.7413
  493MOL0     C66457  13.195   9.767   6.289 -0.1850 -0.9701  0.1754
  493MOL0     C66458  13.264   9.796   6.415 -0.4620  0.1923  0.1322
  493MOL0     C66459  13.404   9.735   6.415 -0.1983  0.4636  0.4498
  493MOL0     C66460  13.499   9.829   6.348  0.6535  0.3266  0.3001
  493MOL0     C66461  13.651   9.783   6.367 -1.0296  0.0209  0.8638
  493MOL0     C66462  13.711   9.801   6.504 -0.0624 -0.5554 -1.5058
  493MOL0     C66463  13.858   9.742   6.511 -0.4088  0.4637  1.1456
  493MOL0    Cl66464  13.966   9.859   6.428 -0.2309 -0.1667 -0.1697
  493MOL0     C66465  12.871   9.806   5.979  0.5135 -0.8184  0.2602
  493MOL0     C66466  12.741   9.825   5.940  0.2931 -0.2418 -0.5801
  493MOL0     O66467  12.447  10.115   6.077 -0.1996  0.4836 -0.2993
  493MOL0     C66468  12.185  10.032   6.082  0.4553 -0.9176  0.4392
  493MOL0     C66469  12.045  10.007   6.059 -0.3387  0.1865  0.2090
  493MOL0     N66470  11.627   9.590   6.353 -0.2058 -0.0106  0.1549
  493MOL0     N66471  11.516   9.561   6.413 -0.4615 -0.4074  0.4731
  493MOL0     C66472  10.457  10.107   6.726 -0.0498  0.2354  1.6095
  493MOL0     C66473  10.330  10.155   6.758  0.0789  0.0476  0.5663
  493MOL0     C66474   9.923  10.207   6.976  0.3515 -0.3263  0.2332
  493MOL0     C66475   9.856  10.275   6.873 -0.6044  0.6420 -0.4883
  493MOL0     C66476   9.737  10.339   6.894  0.2118  0.8331  0.4490
  493MOL0     C66477   9.686  10.353   7.022  0.4135 -0.6532  0.0647
  493MOL0     O66478   9.570  10.420   7.047  0.0221  0.3139 -0.2289
  493MOL0     C66479   9.466  10.374   6.951 -0.3576 -0.3648 -0.6804
  493MOL0     C66480   9.336  10.368   7.018  0.9312  0.0385  0.9005
  493MOL0     C66481   9.342  10.250   7.122  0.0383  0.5641  0.5183
  493MOL0     C66482   9.218  10.251   7.217  0.6626  0.0729  0.3792
  493MOL0     C66483   9.093  10.269   7.141 -0.0460  0.1325  1.3530
  493MOL0     C66484   8.992  10.286   7.066 -0.5407  0.5036 -0.1984
  493MOL0     C66485   9.747  10.285   7.120 -0.5604  0.6738 -0.7148
  493MOL0     C66486   9.861  10.207   7.098 -0.7015  0.4438  0.4408
  493MOL0     C66487   9.912  10.124   7.212  0.4373  0.0446 -0.4088
  493MOL0     H66488  10.163   9.879   6.809 -0.8480  0.0358  0.4732
  493MOL0     H66489  10.383   9.783   6.734  2.4860  0.3457 -0.4970
  493MOL0     H66490  10.510   9.830   6.510 -0.2789  2.2157 -1.5719
  493MOL0     H66491  10.613   9.966   6.475 -0.9734 -0.4401 -0.6989
  493MOL0     H66492  10.687   9.716   6.432  2.8422 -2.5324  1.6231
  493MOL0     H66493  10.717   9.713   6.608 -3.0185  0.6532  1.6527
  493MOL0     H66494  10.893   9.879   6.592 -0.1253 -0.0955 -0.0238
  493MOL0     H66495  10.861   9.922   6.425 -0.5962 -0.3767 -0.3184
  493MOL0     H66496  10.973   9.663   6.540  0.6160  0.1620  0.0732
  493MOL0     H66497  10.906   9.663   6.380  0.7918 -0.3937  0.4406
  493MOL0     H66498  11.046   9.859   6.325  0.2721 -0.4566  0.0188
  493MOL0     H66499  11.136   9.830   6.468 -0.2899  0.2151 -0.2885
  493MOL0     H66500  11.093   9.636   6.239  0.8079  0.1156 -0.1399
  493MOL0     H66501  11.248   9.711   6.267 -0.3746 -1.8253 -1.2924
  493MOL0     H66502  11.105   9.536   6.454  0.3912  0.1654 -1.6026
  493MOL0     H66503  11.258   9.618   6.500 -1.1740 -0.9809  3.0312
  493MOL0     H66504  11.301   9.390   6.430 -0.1977  1.3615  1.9061
  493MOL0     H66505  11.243   9.440   6.264  1.7041  1.6291  0.2185
  493MOL0     H66506  11.459   9.466   6.112 -0.2882  0.0834  0.4573
  493MOL0     H66507  11.838   9.555   6.193 -0.4999  0.1264 -0.2125
  493MOL0     H66508  11.752   9.468   6.071 -0.3272  1.9148 -2.9255
  493MOL0     H66509  11.844   9.658   5.980 -1.3919 -0.2995 -1.9852
  493MOL0     H66510  11.665   9.685   5.983 -1.5410  2.3229  1.5193
  493MOL0     H66511  11.853   9.842   6.187 -0.2284  3.1141 -1.5694
  493MOL0     H66512  11.678   9.832   6.182 -0.9566  0.0762 -0.3184
  493MOL0     H66513  11.777  10.025   6.075 -0.8079  0.8998 -2.4098
  493MOL0     H66514  11.667   9.930   5.973 -1.9991 -1.8895  3.2431
  493MOL0     H66515  12.069   9.830   5.770 -1.8819  0.1264  0.9765
  493MOL0     H66516  12.299   9.884   5.798  0.4647 -1.8427  1.9747
  493MOL0     H66517  12.663  10.079   6.144 -0.7172 -1.0071  1.0155
  493MOL0     H66518  12.896  10.047   6.212  0.4708 -1.0312  1.1352
  493MOL0     H66519  13.128   9.964   6.277  1.9325  0.5251  1.5145
  493MOL0     H66520  13.003   9.851   6.337 -1.1373  2.3756 -0.9536
  493MOL0     H66521  13.158   9.664   6.296  0.3386 -1.0858  1.4824
  493MOL0     H66522  13.259   9.770   6.200 -1.5820  2.4641 -0.8612
  493MOL0     H66523  13.266   9.904   6.426 -1.3429  0.4924 -2.0958
  493MOL0     H66524  13.218   9.765   6.510  1.8623 -2.2479  0.6001
  493MOL0     H66525  13.393   9.642   6.360  0.9917  1.3651 -1.4160
  493MOL0     H66526  13.447   9.717   6.514  2.5211  1.3162 -0.4876
  493MOL0     H66527  13.484   9.930   6.386 -0.6955  1.0805 -2.0207
  493MOL0     H66528  13.501   9.827   6.239  2.2266 -0.7394  0.3118
  493MOL0     H66529  13.645   9.674   6.359 -1.1509  0.0218  0.9484
  493MOL0     H66530  13.718   9.830   6.295  0.2532 -1.5884  0.9317
  493MOL0     H66531  13.663   9.733   6.575  1.0331 -0.9538 -1.1235
  493MOL0     H66532  13.713   9.905   6.538  0.0114 -1.1328  0.3678
  493MOL0     H66533  13.877   9.723   6.618 -1.6198  0.2659  1.3357
  493MOL0     H66534  13.857   9.647   6.456 -0.5962  1.4049 -0.5372
  493MOL0     H66535  12.941   9.739   5.932  1.4185 -1.0864  1.9159
  493MOL0     H66536  12.695   9.771   5.857 -0.9074 -0.0373 -0.0704
  493MOL0     H66537  12.212  10.094   6.167  2.1089  0.3107 -0.9298
  493MOL0     H66538  11.965  10.050   6.120 -2.9800  2.6753 -4.4012
  493MOL0     H66539  10.524  10.190   6.706 -0.7430  0.6102  0.7599
  493MOL0     H66540  10.329  10.262   6.776  1.2449 -0.3034  3.4313
  493MOL0     H66541   9.885  10.249   6.772  0.8916 -3.2650  0.7660
  493MOL0     H66542   9.692  10.378   6.804 -0.7945 -3.8765 -1.3639
  493MOL0     H66543   9.480  10.285   6.891 -0.8538 -0.7659 -0.2178
  493MOL0     H66544   9.461  10.449   6.872  1.7821 -0.3476 -0.8587
  493MOL0     H66545   9.261  10.342   6.943  0.1297  2.6065  0.6944
  493MOL0     H66546   9.302  10.463   7.060  0.1836  0.0990  0.1966
  493MOL0     H66547   9.423  10.252   7.195 -0.4881 -1.0699  1.1940
  493MOL0     H66548   9.344  10.157   7.065 -2.8581 -1.0991  2.8258
  493MOL0     H66549   9.215  10.157   7.273  0.6814 -0.4586 -0.4928
  493MOL0     H66550   9.225  10.335   7.288  3.3925 -0.6045  1.0093
  493MOL0     H66551   8.904  10.303   7.006 -1.2757  0.7311  0.9225
  493MOL0     H66552   9.697  10.288   7.217  1.5047  2.3088  0.3754
  493MOL0     H66553  10.000  10.173   7.254 -0.6150  1.3377  0.3790
  493MOL0     H66554   9.832  10.119   7.287  0.8185  0.4965  0.0346
  493MOL0     H66555   9.930  10.018   7.192 -3.1915 -1.0381  1.1749
  494MOL0     O66556   4.506   2.000   3.378  0.0395  0.5346  0.1385
  494MOL0     C66557   4.504   1.875   3.402 -0.9711 -0.6163 -0.0988
  494MOL0     O66558   4.619   1.792   3.422  0.2641 -0.8882  0.4246
  494MOL0     C66559   4.733   1.863   3.432  0.2951 -0.2438  0.1365
  494MOL0     C66560   4.794   1.889   3.557 -0.3325  0.0175 -0.4799
  494MOL0     C66561   4.925   1.947   3.565  0.5957  0.1487  0.6501
  494MOL0     C66562   4.993   1.978   3.441 -0.2367  0.3672 -0.5444
  494MOL0     O66563   5.126   2.001   3.429 -0.2535  0.2254  0.4527
  494MOL0     C66564   5.190   2.047   3.554 -0.4919 -0.0992  0.3688
  494MOL0     C66565   5.334   2.071   3.527  0.3730  0.7614 -0.4041
  494MOL0     C66566   5.411   2.109   3.659  0.0609  0.6758 -0.7268
  494MOL0     C66567   5.563   2.135   3.637  0.2947  0.4605 -0.6565
  494MOL0     C66568   5.616   2.187   3.773 -0.4464  1.0535 -0.5009
  494MOL0     C66569   5.757   2.247   3.753  0.0417 -0.1981  0.2086
  494MOL0     C66570   5.866   2.146   3.745 -0.6788  0.1698  1.1256
  494MOL0     C66571   5.883   2.086   3.879  0.0308  0.2144  0.4400
  494MOL0     N66572   5.969   1.967   3.874 -0.0268  0.3927 -0.2547
  494MOL0     C66573   6.105   1.976   3.898  1.2162  0.6866  0.9928
  494MOL0     C66574   6.149   1.853   3.862 -0.1748 -0.4638  0.7683
  494MOL0     C66575   6.295   1.810   3.855  0.0450 -0.4279  0.6088
  494MOL0     C66576   6.363   1.765   3.985  0.5117  0.0856 -0.2461
  494MOL0     C66577   6.422   1.868   4.085  0.4367  0.6736 -0.2504
  494MOL0     C66578   6.432   1.815   4.224 -0.0040  0.3745  0.6110
  494MOL0     O66579   6.492   1.682   4.215 -0.9961 -0.3086 -0.0358
  494MOL0     C66580   6.625   1.663   4.207 -0.1576 -0.2232 -0.2036
  494MOL0     C66581   6.728   1.750   4.259 -0.0575  0.3277  0.4713
  494MOL0     C66582   6.860   1.714   4.254 -0.0478 -0.1982 -1.2133
  494MOL0     C66583   6.900   1.597   4.194 -0.3036  0.5255  0.7958
  494MOL0     C66584   7.044   1.560   4.187 -0.4804  0.2436  0.0130
  494MOL0     O66585   7.089   1.433   4.151 -0.2860  0.3075  0.4177
  494MOL0     C66586   7.221   1.412   4.117 -0.3282  0.0281 -0.7750
  494MOL0     C66587   7.302   1.311   4.181  0.6270 -0.4857 -0.0970
  494MOL0     C66588   7.426   1.281   4.143 -0.9115 -0.2140 -0.0548
  494MOL0     C66589   7.500   1.367   4.061 -0.3406 -0.7556  0.2227
  494MOL0     O66590   7.639   1.373   4.035 -0.0912  0.7806 -0.0427
  494MOL0     C66591   7.718   1.315   4.141  0.3296  0.6643 -0.2135
  494MOL0     C66592   7.872   1.329   4.121  0.2089  0.5225 -0.8689
  494MOL0     C66593   7.953   1.333   4.247 -0.1603 -0.2440 -0.1054
  494MOL0     C66594   7.941   1.461   4.330  0.7237  0.8853 -0.0829
  494MOL0     C66595   7.988   1.589   4.260 -0.9911  0.0963 -0.1199
  494MOL0     C66596   8.042   1.687   4.377  0.1222  0.7961  0.1062
  494MOL0     C66597   8.059   1.828   4.305 -0.3807  0.6730 -0.6456
  494MOL0     C66598   8.124   1.936   4.394 -0.7462  0.2096 -0.0261
  494MOL0    Cl66599   8.037   1.972   4.532 -0.1638  0.0074 -0.2551
  494MOL0     C66600   7.423   1.469   3.997 -0.1454 -0.4036 -0.3547
  494MOL0     C66601   7.288   1.495   4.024 -0.5749  0.4164  0.8679
  494MOL0     O66602   7.119   1.649   4.206  0.0516  0.1473  0.3301
  494MOL0     C66603   6.801   1.517   4.140  0.6157  0.1839 -0.3368
  494MOL0     C66604   6.668   1.548   4.143 -0.1824 -0.4150  0.3370
  494MOL0     N66605   6.041   1.778   3.806  0.6437  0.3553  0.2468
  494MOL0     N66606   5.933   1.841   3.817  0.6429 -0.5178 -0.3816
  494MOL0     C66607   4.928   1.949   3.318  0.5449 -0.4903  0.1779
  494MOL0     C66608   4.801   1.892   3.317 -0.7196  0.1788 -0.5661
  494MOL0     C66609   4.372   1.811   3.415  0.4574 -0.4366 -0.2772
  494MOL0     C66610   4.357   1.703   3.516  0.0987 -0.6538  0.0529
  494MOL0     C66611   4.231   1.662   3.550  1.0330 -0.0309  0.7138
  494MOL0     C66612   4.127   1.696   3.464  0.3939  1.3326 -0.5448
  494MOL0     O66613   4.006   1.641   3.499 -0.2749 -0.7392  0.2612
  494MOL0     C66614   3.878   1.689   3.455 -1.1589  0.4865  0.0710
  494MOL0     C66615   3.824   1.819   3.505 -0.5938 -1.0580  0.3031
  494MOL0     C66616   3.675   1.829   3.494 -0.1397 -0.2205  0.0428
  494MOL0     C66617   3.622   1.956   3.546  0.6117  0.2852 -0.2036
  494MOL0     C66618   3.475   1.959   3.551 -0.2655 -0.7069 -0.5853
  494MOL0     C66619   3.359   1.957   3.549  0.2436  0.1760 -0.5590
  494MOL0     C66620   4.152   1.776   3.352  1.0351  0.0601  0.5066
  494MOL0     C66621   4.265   1.845   3.333 -0.0077 -0.3601 -0.0650
  494MOL0     C66622   4.262   1.932   3.206  0.3151  0.0776 -0.9442
  494MOL0     H66623   4.744   1.879   3.653 -0.3240  2.0952 -0.2140
  494MOL0     H66624   4.976   1.967   3.659  0.3260  6.9625 -0.1850
  494MOL0     H66625   5.145   2.145   3.576  1.8977  1.7149 -2.2454
  494MOL0     H66626   5.174   1.976   3.636  0.0416  2.3576  2.7457
  494MOL0     H66627   5.344   2.152   3.454 -0.5576 -1.4698 -3.2179
  494MOL0     H66628   5.378   1.977   3.490  0.6500  1.7974 -2.9310
  494MOL0     H66629   5.393   2.036   3.738  0.6779  1.3490  0.0547
  494MOL0     H66630   5.361   2.199   3.697 -0.9425 -0.1663  0.0290
  494MOL0     H66631   5.613   2.042   3.609  0.6888  0.5456 -0.2424
  494MOL0     H66632   5.584   2.209   3.559 -0.3853  1.1897 -0.1671
  494MOL0     H66633   5.561   2.273   3.813  1.9784  1.9817  1.0900
  494MOL0     H66634   5.618   2.104   3.845 -1.1483  0.6798 -0.9031
  494MOL0     H66635   5.760   2.309   3.662 -1.4129 -1.1921 -0.5602
  494MOL0     H66636   5.771   2.316   3.837 -1.3776 -1.1185  1.2419
  494MOL0     H66637   5.956   2.199   3.711  0.3902  0.0091  3.5159
  494MOL0     H66638   5.843   2.063   3.677  2.1124  0.0043  0.2759
  494MOL0     H66639   5.926   2.157   3.951 -2.4916  1.9044  0.3877
  494MOL0     H66640   5.793   2.059   3.934  0.7595 -0.5030  1.3294
  494MOL0     H66641   6.159   2.063   3.935 -3.0448  4.9304 -1.5934
  494MOL0     H66642   6.312   1.724   3.791  0.8983 -0.2853  0.6357
  494MOL0     H66643   6.353   1.886   3.803  0.3111 -0.1923  1.2347
  494MOL0     H66644   6.283   1.710   4.037  0.1055  2.1426  1.4415
  494MOL0     H66645   6.434   1.687   3.958  2.4247  2.2478 -1.8699
  494MOL0     H66646   6.368   1.963   4.073 -2.4136 -1.1196 -3.2851
  494MOL0     H66647   6.523   1.893   4.051 -0.5185  4.2533 -0.9276
  494MOL0     H66648   6.331   1.800   4.264  1.2203 -1.1836  3.3391
  494MOL0     H66649   6.496   1.877   4.286  2.1718 -0.9428 -0.2122
  494MOL0     H66650   6.706   1.850   4.295 -0.9273  0.7648 -1.1718
  494MOL0     H66651   6.925   1.783   4.306 -0.0561  0.8094 -2.4834
  494MOL0     H66652   7.252   1.244   4.250  3.2619 -1.0495  1.3780
  494MOL0     H66653   7.472   1.198   4.196 -1.6403  0.0907  1.0870
  494MOL0     H66654   7.685   1.361   4.235  4.0173  0.7995  1.2197
  494MOL0     H66655   7.692   1.209   4.149  0.9335  0.3388 -2.1741
  494MOL0     H66656   7.914   1.241   4.071 -1.6963  0.0693 -1.7951
  494MOL0     H66657   7.903   1.412   4.057  0.3825  0.2604 -1.1256
  494MOL0     H66658   7.938   1.244   4.308 -0.3645 -0.2132 -0.1097
  494MOL0     H66659   8.059   1.323   4.223  0.5778 -2.2962  3.3174
  494MOL0     H66660   8.008   1.438   4.413  1.0889 -2.5367 -1.1663
  494MOL0     H66661   7.838   1.480   4.362  0.9173  2.4177 -0.3022
  494MOL0     H66662   7.910   1.625   4.192 -1.1064 -0.6304 -0.3919
  494MOL0     H66663   8.075   1.564   4.197 -0.0075  0.0726  1.2050
  494MOL0     H66664   7.966   1.691   4.456 -0.7350 -0.7765 -0.5833
  494MOL0     H66665   8.138   1.645   4.407 -0.3662 -1.7883 -1.5454
  494MOL0     H66666   7.961   1.857   4.266  0.0573  0.5758 -1.8619
  494MOL0     H66667   8.116   1.804   4.214  3.9768  2.3084  1.3415
  494MOL0     H66668   8.220   1.894   4.427 -0.9446  0.1375  0.4589
  494MOL0     H66669   8.131   2.030   4.340 -2.3034  0.4873  0.2190
  494MOL0     H66670   7.474   1.536   3.929  1.2857 -0.7514  0.3352
  494MOL0     H66671   7.233   1.566   3.962 -0.4836  0.8033  1.2286
  494MOL0     H66672   6.838   1.421   4.105 -0.5585 -0.6932  0.6997
  494MOL0     H66673   6.601   1.475   4.097  1.2774 -1.3966 -0.2900
  494MOL0     H66674   4.978   1.965   3.222 -2.7607 -0.3472 -1.6629
  494MOL0     H66675   4.765   1.864   3.219 -0.2522 -0.8151 -0.4642
  494MOL0     H66676   4.444   1.679   3.576  0.2873 -1.2536 -0.4547
  494MOL0     H66677   4.223   1.593   3.633  0.5604 -1.6005 -0.5771
  494MOL0     H66678   3.803   1.620   3.494  0.0018  0.2054  1.9305
  494MOL0     H66679   3.872   1.702   3.346  1.7902  0.2519 -0.1822
  494MOL0     H66680   3.879   1.898   3.452  1.0856 -1.2564  1.6566
  494MOL0     H66681   3.867   1.835   3.604  5.6339  0.7696 -2.1979
  494MOL0     H66682   3.616   1.753   3.546 -4.0876  2.1429 -0.5137
  494MOL0     H66683   3.638   1.825   3.391  0.4916  0.5061 -0.2237
  494MOL0     H66684   3.659   1.974   3.647  1.6318 -1.1538 -0.2900
  494MOL0     H66685   3.651   2.044   3.488 -0.8322  1.6064  0.9718
  494MOL0     H66686   3.252   1.964   3.536  0.1096 -1.6943 -0.6811
  494MOL0     H66687   4.079   1.766   3.272  2.2753  1.9412 -0.9460
  494MOL0     H66688   4.365   1.926   3.170  0.7100  2.9190 -0.4883
  494MOL0     H66689   4.186   1.895   3.137 -2.6576  4.2161 -0.2358
  494MOL0     H66690   4.239   2.035   3.234 -1.8634 -0.6905  0.3208
  495MOL0     O66691   9.408   4.369   1.400  0.7249  0.1357 -0.5406
  495MOL0     C66692   9.315   4.314   1.338 -0.5036  0.2071 -0.1919
  495MOL0     O66693   9.323   4.225   1.234  0.5599 -0.5580 -0.7240
  495MOL0     C66694   9.439   4.174   1.188 -0.0899 -0.2084 -0.0462
  495MOL0     C66695   9.569   4.212   1.212 -0.5055  0.4253  0.1048
  495MOL0     C66696   9.673   4.136   1.152 -0.4189  0.4587 -0.8196
  495MOL0     C66697   9.646   4.013   1.083  0.2683 -0.9783 -0.5829
  495MOL0     O66698   9.737   3.920   1.049 -0.4313  0.1439 -0.0207
  495MOL0     C66699   9.845   3.886   1.145  0.0057  0.1547 -0.1172
  495MOL0     C66700   9.893   3.748   1.119 -0.4713  0.1536  0.5915
  495MOL0     C66701   9.993   3.750   1.007  0.7881 -0.3983 -0.0589
  495MOL0     C66702  10.043   3.602   0.975 -0.2706  0.1178 -0.6272
  495MOL0     C66703  10.136   3.594   0.857  0.1665 -0.9199  0.7934
  495MOL0     C66704  10.160   3.448   0.817  0.1537  0.5730 -0.1915
  495MOL0     C66705  10.292   3.432   0.739  0.3187  0.2627  0.9819
  495MOL0     C66706  10.418   3.443   0.835 -0.3834  0.1433  0.1965
  495MOL0     N66707  10.396   3.372   0.963 -0.2322  0.0536 -0.4845
  495MOL0     C66708  10.401   3.232   0.982  0.1981  0.1240  0.1621
  495MOL0     C66709  10.390   3.224   1.121  0.1314  0.3890 -0.8947
  495MOL0     C66710  10.395   3.095   1.203 -0.2137  0.1037  0.7646
  495MOL0     C66711  10.529   3.082   1.252 -1.5770 -0.1063 -0.4794
  495MOL0     C66712  10.527   2.976   1.363  0.9870 -0.2369  0.8838
  495MOL0     C66713  10.661   2.974   1.435  1.1197  0.1758 -0.7185
  495MOL0     O66714  10.660   2.869   1.537 -0.1339 -0.3117 -0.0076
  495MOL0     C66715  10.780   2.825   1.593  0.2854 -0.4986 -0.1954
  495MOL0     C66716  10.772   2.704   1.676 -0.8307 -0.9046 -0.0930
  495MOL0     C66717  10.892   2.649   1.735 -0.1843  0.4734 -0.1429
  495MOL0     C66718  11.011   2.718   1.715  0.3941  0.0160  0.4462
  495MOL0     C66719  11.137   2.675   1.776  0.2597 -0.3231 -0.0701
  495MOL0     O66720  11.250   2.731   1.718  0.5512  0.0684  0.4287
  495MOL0     C66721  11.368   2.718   1.790 -0.0501 -0.1848 -0.7820
  495MOL0     C66722  11.482   2.708   1.708 -0.2452  0.9615  0.2668
  495MOL0     C66723  11.607   2.713   1.766  0.9572  0.5814 -1.1006
  495MOL0     C66724  11.627   2.724   1.913 -0.4350  0.6708  0.0905
  495MOL0     O66725  11.752   2.723   1.979  0.3865  0.3887 -0.0099
  495MOL0     C66726  11.855   2.810   1.907 -0.3918  1.0960 -0.7160
  495MOL0     C66727  11.977   2.835   2.002  0.0283  0.0911  0.4748
  495MOL0     C66728  12.035   2.967   1.945  0.6538 -0.3847 -0.3184
  495MOL0     C66729  12.159   3.009   2.015 -0.7519 -0.5717 -0.1569
  495MOL0     C66730  12.210   3.146   1.971 -0.0369  0.3270 -1.1094
  495MOL0     C66731  12.258   3.149   1.826 -0.1838  0.6780 -0.5700
  495MOL0     C66732  12.272   3.290   1.778  0.5093  0.6614 -0.1691
  495MOL0     C66733  12.340   3.315   1.646  0.1903  0.0288  0.1773
  495MOL0    Cl66734  12.366   3.480   1.617  0.6338 -0.8749  0.2054
  495MOL0     C66735  11.508   2.734   1.990  0.2742  0.7609  0.0404
  495MOL0     C66736  11.381   2.731   1.930 -0.0659  0.2469 -1.8829
  495MOL0     O66737  11.135   2.589   1.865  0.3511  0.2703  0.3768
  495MOL0     C66738  11.008   2.834   1.640  0.3232 -0.3628  0.4890
  495MOL0     C66739  10.898   2.894   1.584  0.4261  0.4768 -0.0931
  495MOL0     N66740  10.371   3.349   1.179 -0.1424  0.9624 -0.0375
  495MOL0     N66741  10.365   3.436   1.079  0.6114  0.5311 -0.5878
  495MOL0     C66742   9.510   3.984   1.059 -0.5567  0.0252 -0.3207
  495MOL0     C66743   9.412   4.065   1.112  0.0164 -0.0894 -0.5976
  495MOL0     C66744   9.179   4.347   1.384  0.5263  0.1635 -1.2267
  495MOL0     C66745   9.153   4.366   1.522 -0.3607 -0.0193 -0.2872
  495MOL0     C66746   9.032   4.389   1.574  0.8148  0.1020 -0.7976
  495MOL0     C66747   8.916   4.369   1.496  0.2556 -0.3435  0.0787
  495MOL0     O66748   8.798   4.374   1.567 -0.9583 -0.0282  0.0342
  495MOL0     C66749   8.678   4.325   1.506 -0.1793 -0.3990 -0.0443
  495MOL0     C66750   8.676   4.168   1.515 -0.2593 -0.1676  0.2849
  495MOL0     C66751   8.531   4.120   1.538  0.5443 -0.1428 -0.8127
  495MOL0     C66752   8.544   3.970   1.576 -0.3416  0.1994  0.0318
  495MOL0     C66753   8.422   3.915   1.633 -0.3885  1.5334 -0.2191
  495MOL0     C66754   8.319   3.878   1.675 -0.3479  0.1040 -0.8751
  495MOL0     C66755   8.935   4.337   1.356  0.7372  0.2814 -0.5059
  495MOL0     C66756   9.063   4.335   1.304 -0.5292  0.1319  1.4410
  495MOL0     C66757   9.070   4.303   1.152  0.1872  0.2232 -0.0881
  495MOL0     H66758   9.583   4.308   1.260 -2.8649  0.6798  0.4166
  495MOL0     H66759   9.776   4.167   1.137  0.2837 -1.6970 -0.7769
  495MOL0     H66760   9.926   3.958   1.135  0.6031 -0.7249 -1.8788
  495MOL0     H66761   9.810   3.889   1.249  1.1794 -5.7701  0.8315
  495MOL0     H66762   9.806   3.683   1.105 -0.6067 -0.1946  2.7757
  495MOL0     H66763   9.944   3.700   1.203 -2.0864 -0.7806  1.0803
  495MOL0     H66764  10.065   3.826   1.037  0.7195  0.7544 -2.5514
  495MOL0     H66765   9.945   3.793   0.919  0.5578 -3.2811 -1.4560
  495MOL0     H66766  10.097   3.557   1.059 -0.5551  0.6342 -0.1598
  495MOL0     H66767   9.949   3.549   0.956 -0.5067 -0.2927  1.4647
  495MOL0     H66768  10.097   3.657   0.777 -0.7631 -2.1256  0.2631
  495MOL0     H66769  10.227   3.641   0.896  0.1271 -2.7379  3.3426
  495MOL0     H66770  10.167   3.392   0.911  3.5427 -0.3983 -0.8872
  495MOL0     H66771  10.077   3.408   0.758  2.0416 -3.0675 -0.6337
  495MOL0     H66772  10.293   3.510   0.662 -3.1726  1.9000  2.3464
  495MOL0     H66773  10.301   3.331   0.698 -1.8325 -0.3574  1.8788
  495MOL0     H66774  10.505   3.411   0.776 -0.8890 -0.0185 -0.4707
  495MOL0     H66775  10.428   3.551   0.847 -1.2881  0.2675 -0.1179
  495MOL0     H66776  10.411   3.154   0.908 -1.1726 -1.4536  1.5332
  495MOL0     H66777  10.317   3.102   1.279 -0.6523  0.1373  0.3238
  495MOL0     H66778  10.357   3.010   1.145 -0.8808  1.7560 -1.3585
  495MOL0     H66779  10.598   3.042   1.177  0.2672  0.4813  0.8282
  495MOL0     H66780  10.570   3.171   1.301  0.0602 -0.6807 -0.7465
  495MOL0     H66781  10.504   2.878   1.320 -1.8730  1.2395 -1.2893
  495MOL0     H66782  10.446   2.993   1.434 -0.3953 -0.6190 -0.5450
  495MOL0     H66783  10.677   3.076   1.471  1.2618 -0.6316  1.7215
  495MOL0     H66784  10.731   2.945   1.357 -0.4181 -1.2512 -1.6205
  495MOL0     H66785  10.682   2.660   1.719 -0.6415  0.1114  1.4532
  495MOL0     H66786  10.884   2.561   1.798 -0.0981  1.2788  1.0063
  495MOL0     H66787  11.456   2.697   1.603 -4.6861 -0.7213  1.2972
  495MOL0     H66788  11.702   2.709   1.713  1.4652  1.2959 -0.2687
  495MOL0     H66789  11.882   2.765   1.811 -0.1210  0.0014 -0.1459
  495MOL0     H66790  11.807   2.906   1.885 -2.7968 -0.0286 -0.7061
  495MOL0     H66791  11.945   2.857   2.104 -1.2415  4.0561 -0.5715
  495MOL0     H66792  12.045   2.750   2.000  0.6899  0.5859  1.4747
  495MOL0     H66793  12.062   2.957   1.839  3.8063  3.0126 -0.0443
  495MOL0     H66794  11.959   3.046   1.945  1.4153  0.3668 -0.1750
  495MOL0     H66795  12.228   2.930   1.986 -0.8802 -1.1963  1.1556
  495MOL0     H66796  12.143   3.000   2.123 -1.7803  0.4211 -0.2024
  495MOL0     H66797  12.293   3.170   2.038 -0.4999  0.4465 -0.5671
  495MOL0     H66798  12.132   3.222   1.976  0.4698  0.9801 -2.4752
  495MOL0     H66799  12.353   3.096   1.822  0.0920  1.2019 -1.0315
  495MOL0     H66800  12.194   3.095   1.755  2.2123 -1.3886 -1.2954
  495MOL0     H66801  12.316   3.350   1.858 -3.5314  1.4083  1.7596
  495MOL0     H66802  12.172   3.332   1.762  0.8112  1.5406  0.1865
  495MOL0     H66803  12.433   3.260   1.662  0.9670  1.6391  1.4383
  495MOL0     H66804  12.282   3.278   1.561  0.0873  1.0127 -0.1873
  495MOL0     H66805  11.501   2.762   2.095  1.0717  1.4025 -0.0733
  495MOL0     H66806  11.295   2.721   1.996  0.5433  0.6590 -1.0186
  495MOL0     H66807  11.103   2.884   1.624  0.0171 -0.3097 -1.3906
  495MOL0     H66808  10.905   2.991   1.537  2.8306 -0.1401 -1.1502
  495MOL0     H66809   9.480   3.888   1.017 -1.4915  0.8109 -1.4769
  495MOL0     H66810   9.309   4.034   1.102 -0.1495  0.3676 -0.3372
  495MOL0     H66811   9.231   4.361   1.598 -0.3948 -0.3832 -0.2754
  495MOL0     H66812   9.026   4.407   1.680 -1.7652  3.4956 -1.3459
  495MOL0     H66813   8.665   4.353   1.401 -0.2135  0.4480  0.1820
  495MOL0     H66814   8.600   4.375   1.564 -1.8686 -1.4448 -1.3243
  495MOL0     H66815   8.742   4.150   1.601  2.6986  1.5659 -1.4716
  495MOL0     H66816   8.721   4.116   1.430 -1.8124 -2.0408  0.5323
  495MOL0     H66817   8.483   4.123   1.439  2.0439  0.5788 -1.5567
  495MOL0     H66818   8.487   4.186   1.613 -2.0990 -0.5758 -1.8959
  495MOL0     H66819   8.582   3.923   1.485  1.6180 -0.9792  1.3919
  495MOL0     H66820   8.620   3.948   1.652 -0.9008  1.0389  0.8567
  495MOL0     H66821   8.222   3.863   1.718  0.6424 -0.5762  1.3127
  495MOL0     H66822   8.854   4.330   1.285  0.0935  1.4647  0.0747
  495MOL0     H66823   8.979   4.339   1.102  0.0397  0.9052  0.6662
  495MOL0     H66824   9.165   4.331   1.106  2.3912 -1.5123  2.9784
  495MOL0     H66825   9.073   4.194   1.139  1.8196  0.2467 -0.0645
  496MOL0     O66826   1.033   8.551   9.634 -0.5231  0.5614 -0.2261
  496MOL0     C66827   1.060   8.550   9.750  0.0824 -0.2195  0.1175
  496MOL0     O66828   1.170   8.501   9.809  0.6217 -0.3657  0.4849
  496MOL0     C66829   1.287   8.488   9.739 -0.6856  0.9343 -0.0119
  496MOL0     C66830   1.324   8.536   9.612  0.1918 -0.0238 -0.4561
  496MOL0     C66831   1.453   8.531   9.565  0.9255 -0.8803 -0.5976
  496MOL0     C66832   1.564   8.480   9.635  0.2012  0.6970 -0.1715
  496MOL0     O66833   1.686   8.496   9.573  0.2080  0.2403 -0.1304
  496MOL0     C66834   1.810   8.468   9.650 -0.1773  0.2499 -0.0280
  496MOL0     C66835   1.921   8.510   9.551 -0.3741 -0.0380  0.0776
  496MOL0     C66836   1.954   8.418   9.430  0.4308  1.0411 -0.2523
  496MOL0     C66837   2.007   8.283   9.481  0.3616 -0.2540  0.0228
  496MOL0     C66838   2.074   8.211   9.361  0.1310  0.4947 -0.4385
  496MOL0     C66839   2.220   8.255   9.343 -0.0132  0.2077 -0.0466
  496MOL0     C66840   2.307   8.197   9.458  0.1435  0.6575  0.8285
  496MOL0     C66841   2.441   8.128   9.396  0.9003  0.4935  0.0159
  496MOL0     N66842   2.551   8.226   9.388 -0.0838 -0.3746 -0.5454
  496MOL0     C66843   2.587   8.293   9.269 -0.9669 -0.6790 -0.1541
  496MOL0     C66844   2.687   8.375   9.301  0.0667  0.2388 -0.7443
  496MOL0     C66845   2.766   8.469   9.217  0.0351 -0.3119  0.2918
  496MOL0     C66846   2.821   8.401   9.093 -0.4459 -0.7733  0.0023
  496MOL0     C66847   2.966   8.453   9.061 -0.2805  0.7710  0.2398
  496MOL0     C66848   3.009   8.403   8.922  0.7052 -0.3831 -0.2819
  496MOL0     O66849   3.149   8.406   8.893  0.2785 -0.5373  0.1261
  496MOL0     C66850   3.235   8.318   8.946 -0.2478 -0.3588 -0.0890
  496MOL0     C66851   3.361   8.323   8.884  0.0768 -0.3047  0.2479
  496MOL0     C66852   3.460   8.230   8.922  0.2662  0.0275  0.3170
  496MOL0     C66853   3.428   8.125   9.007 -0.2215  0.8965  0.5663
  496MOL0     C66854   3.527   8.024   9.040  0.1649 -0.3766  0.1095
  496MOL0     O66855   3.658   8.049   9.001 -0.1130  0.5932 -0.3077
  496MOL0     C66856   3.745   7.949   8.992  0.7486  1.0803  0.7188
  496MOL0     C66857   3.723   7.813   8.975  0.3840 -0.8765  0.4735
  496MOL0     C66858   3.824   7.736   8.943  0.3440  0.6551  0.0112
  496MOL0     C66859   3.955   7.774   8.940 -0.4846 -0.0421  0.2289
  496MOL0     O66860   4.050   7.672   8.928 -0.2594  0.3370 -0.0465
  496MOL0     C66861   4.189   7.703   8.907  0.6538  0.0884  0.7004
  496MOL0     C66862   4.231   7.590   8.809 -0.6640  0.5713  0.5569
  496MOL0     C66863   4.368   7.612   8.742  0.3933 -0.4350  0.0589
  496MOL0     C66864   4.490   7.597   8.837  1.0987 -0.5221  0.3231
  496MOL0     C66865   4.608   7.558   8.755  0.1796 -0.3710 -0.6169
  496MOL0     C66866   4.662   7.669   8.659  0.3282 -0.5567  0.1602
  496MOL0     C66867   4.796   7.624   8.602  0.2864 -0.0482 -0.3620
  496MOL0     C66868   4.851   7.728   8.504 -0.4755  0.0554 -0.6237
  496MOL0    Cl66869   4.999   7.666   8.418 -0.0260  0.2474  0.0151
  496MOL0     C66870   3.984   7.912   8.961 -1.1179 -0.3356  0.2299
  496MOL0     C66871   3.874   7.998   8.978 -0.4330  0.2650 -0.6134
  496MOL0     O66872   3.487   7.926   9.095 -0.3400  0.1010  0.0082
  496MOL0     C66873   3.300   8.120   9.066  0.7306 -0.1062  0.3772
  496MOL0     C66874   3.205   8.223   9.045 -0.5072  0.2893 -0.4971
  496MOL0     N66875   2.725   8.348   9.437  0.3572 -0.3201 -0.6398
  496MOL0     N66876   2.648   8.254   9.483  0.2077  0.1141 -0.1220
  496MOL0     C66877   1.531   8.435   9.765 -0.0671  0.1902 -0.0882
  496MOL0     C66878   1.397   8.433   9.818  0.5726  0.1215 -0.1661
  496MOL0     C66879   0.946   8.587   9.842  0.4108  0.2316  1.0370
  496MOL0     C66880   0.936   8.530   9.971  0.7538  0.2018 -0.1116
  496MOL0     C66881   0.825   8.563  10.054 -0.1263  0.2295 -0.7306
  496MOL0     C66882   0.726   8.647  10.010  0.3457 -0.1861  0.0219
  496MOL0     O66883   0.625   8.655  10.103 -0.8756 -0.1202 -0.2382
  496MOL0     C66884   0.503   8.710  10.056 -0.0566  0.7202  0.1127
  496MOL0     C66885   0.400   8.732  10.164  0.2698 -1.0339  0.3441
  496MOL0     C66886   0.261   8.774  10.102 -0.8356  0.8307  0.1074
  496MOL0     C66887   0.154   8.771  10.209  0.0513  0.7761 -0.0792
  496MOL0     C66888   0.020   8.770  10.146 -0.6970  0.1154  0.0910
  496MOL0     C66889  -0.091   8.761  10.101  0.0483  0.4231  0.3222
  496MOL0     C66890   0.736   8.700   9.886 -1.1862  0.1201  1.3253
  496MOL0     C66891   0.844   8.682   9.799 -0.6341 -0.1047 -0.1777
  496MOL0     C66892   0.848   8.768   9.672  0.4902  0.1404 -0.5929
  496MOL0     H66893   1.252   8.578   9.543 -2.2465 -0.0227  1.9071
  496MOL0     H66894   1.465   8.572   9.466 -0.9380  1.0477 -0.1004
  496MOL0     H66895   1.808   8.532   9.739 -1.3148 -0.9857  0.8790
  496MOL0     H66896   1.810   8.363   9.681  0.1700 -0.3090 -1.8333
  496MOL0     H66897   2.011   8.516   9.614 -1.2356 -2.2779  1.6378
  496MOL0     H66898   1.892   8.607   9.508 -1.2647  0.0292  0.8066
  496MOL0     H66899   2.026   8.469   9.365  1.1207 -0.1508 -0.4480
  496MOL0     H66900   1.867   8.391   9.369  0.5251  0.2681 -0.0575
  496MOL0     H66901   2.070   8.298   9.569 -0.3565  1.5605  0.2762
  496MOL0     H66902   1.926   8.220   9.519  1.7837 -1.7688  0.6663
  496MOL0     H66903   2.074   8.109   9.399 -1.0128  0.4296 -0.5710
  496MOL0     H66904   2.016   8.218   9.268  0.6007 -2.6023 -1.0594
  496MOL0     H66905   2.256   8.214   9.248  0.8737 -1.6490  1.0366
  496MOL0     H66906   2.228   8.363   9.332  0.2985  0.3807  1.5819
  496MOL0     H66907   2.251   8.122   9.514  1.1019  0.1746  1.1630
  496MOL0     H66908   2.330   8.281   9.524  0.8630  1.6405 -0.6122
  496MOL0     H66909   2.466   8.036   9.451  1.2319  0.1195 -0.7425
  496MOL0     H66910   2.429   8.093   9.293 -0.0015  0.5633  0.0860
  496MOL0     H66911   2.535   8.293   9.174  0.1823 -0.9410 -0.8025
  496MOL0     H66912   2.695   8.547   9.189 -0.9948 -1.5817 -0.7736
  496MOL0     H66913   2.849   8.514   9.272  0.6914  0.7944 -1.4873
  496MOL0     H66914   2.823   8.292   9.105  0.7953 -0.7724 -0.0203
  496MOL0     H66915   2.757   8.422   9.007 -1.2243  0.6469  0.8889
  496MOL0     H66916   3.039   8.413   9.132  0.2107  2.3488  0.6559
  496MOL0     H66917   2.972   8.562   9.074 -3.0603  1.0520 -0.3289
  496MOL0     H66918   2.961   8.470   8.851  2.3613 -0.8523 -1.8948
  496MOL0     H66919   2.984   8.299   8.899  2.3558 -0.6044 -1.2414
  496MOL0     H66920   3.385   8.390   8.801  0.8919  0.6161  1.1981
  496MOL0     H66921   3.551   8.228   8.864 -1.5217 -1.3072 -2.7128
  496MOL0     H66922   3.625   7.766   8.970 -0.9399  1.7370 -4.8640
  496MOL0     H66923   3.814   7.634   8.907  1.5428  0.4526  0.1928
  496MOL0     H66924   4.211   7.799   8.859  1.9796 -1.0214 -1.0098
  496MOL0     H66925   4.248   7.700   9.000  2.0607  0.7966 -0.1299
  496MOL0     H66926   4.248   7.503   8.873 -1.6111  0.4489  0.6553
  496MOL0     H66927   4.162   7.578   8.726 -0.3235  3.3341 -0.2146
  496MOL0     H66928   4.379   7.540   8.661  2.2012 -0.4612  0.2814
  496MOL0     H66929   4.367   7.711   8.696  1.9750 -0.1612  0.5667
  496MOL0     H66930   4.462   7.520   8.909 -1.7226 -1.7059 -1.8954
  496MOL0     H66931   4.497   7.692   8.892 -3.1065 -1.0216  2.1228
  496MOL0     H66932   4.586   7.465   8.702 -1.2501 -1.7262  2.1518
  496MOL0     H66933   4.692   7.525   8.816 -2.0864 -3.3776  1.1111
  496MOL0     H66934   4.594   7.685   8.574 -3.7453  1.6111  3.4196
  496MOL0     H66935   4.688   7.759   8.715  0.9363 -0.8119  0.3011
  496MOL0     H66936   4.789   7.522   8.563 -1.3882 -0.5304  1.0687
  496MOL0     H66937   4.858   7.620   8.692 -3.6126 -0.1433  2.5633
  496MOL0     H66938   4.765   7.746   8.440  0.1121  1.6978 -1.0028
  496MOL0     H66939   4.894   7.814   8.556  0.3421 -2.8367  4.0795
  496MOL0     H66940   4.086   7.950   8.959 -0.8694 -0.9054  1.2315
  496MOL0     H66941   3.890   8.105   8.988 -5.4741  1.1297  0.9847
  496MOL0     H66942   3.273   8.039   9.133  0.8742  0.0057  0.5748
  496MOL0     H66943   3.112   8.236   9.101  0.5028 -0.4539  1.4600
  496MOL0     H66944   1.614   8.400   9.826 -0.1754 -0.8378 -0.5142
  496MOL0     H66945   1.369   8.394   9.916  1.4848  1.0256  0.4639
  496MOL0     H66946   1.013   8.463  10.009 -1.1160 -1.2407  1.3404
  496MOL0     H66947   0.825   8.510  10.148  0.5531 -0.9693 -1.3807
  496MOL0     H66948   0.471   8.645   9.975  1.2277  0.5156 -0.2550
  496MOL0     H66949   0.514   8.810  10.012  0.2929  0.8864  0.5609
  496MOL0     H66950   0.437   8.807  10.235 -3.1789 -0.5390  1.7835
  496MOL0     H66951   0.390   8.641  10.225 -2.3738 -0.2360  1.2059
  496MOL0     H66952   0.232   8.713  10.016  1.3379  1.0704 -0.8451
  496MOL0     H66953   0.278   8.875  10.063  1.7409  0.0234 -1.1167
  496MOL0     H66954   0.158   8.686  10.277 -1.4100 -1.3335 -2.4236
  496MOL0     H66955   0.159   8.864  10.267 -0.2922  1.2020 -0.7147
  496MOL0     H66956  -0.181   8.752  10.044  0.1605  0.9993  0.0533
  496MOL0     H66957   0.655   8.759   9.844 -1.1004 -1.1112 -0.7463
  496MOL0     H66958   0.766   8.839   9.663 -0.6465 -1.2778 -2.2460
  496MOL0     H66959   0.942   8.823   9.662 -0.0519  1.2986  0.5311
  496MOL0     H66960   0.810   8.708   9.588  0.0468  1.1048 -1.0861
  497MOL0     O66961   1.157   9.737   0.775  0.6605  0.8107  0.6489
  497MOL0     C66962   1.120   9.635   0.830  0.7232 -0.4627  0.1218
  497MOL0     O66963   1.205   9.555   0.904 -0.9756 -0.9244  0.0696
  497MOL0     C66964   1.344   9.553   0.903  0.8947 -1.0169  0.4700
  497MOL0     C66965   1.409   9.584   0.785 -0.6353 -0.0454  0.3610
  497MOL0     C66966   1.546   9.592   0.779 -0.4696  1.0901 -0.6359
  497MOL0     C66967   1.626   9.577   0.889 -0.8397 -0.0311 -0.4431
  497MOL0     O66968   1.764   9.584   0.882 -0.6253 -1.2690 -0.3346
  497MOL0     C66969   1.842   9.471   0.872 -0.2552  0.1082  0.3373
  497MOL0     C66970   1.970   9.478   0.790  0.1322 -0.7458  0.4454
  497MOL0     C66971   2.025   9.333   0.774 -0.8753 -0.6150  0.1813
  497MOL0     C66972   2.168   9.340   0.706  0.5811 -0.2834  0.8612
  497MOL0     C66973   2.153   9.351   0.548 -0.8550 -0.0869  0.4078
  497MOL0     C66974   2.287   9.359   0.469 -0.7517  0.1485  0.6004
  497MOL0     C66975   2.380   9.489   0.476  0.2797  0.9269  0.4089
  497MOL0     C66976   2.505   9.476   0.386 -0.0879  0.0545 -0.6433
  497MOL0     N66977   2.590   9.590   0.413 -0.0024  0.4419 -0.6849
  497MOL0     C66978   2.688   9.629   0.326  0.6392  0.0484  0.5283
  497MOL0     C66979   2.739   9.748   0.369  0.4424  0.8692  0.1423
  497MOL0     C66980   2.827   9.844   0.294 -0.0310 -0.2329  0.4667
  497MOL0     C66981   2.805   9.977   0.354 -0.0674 -0.0824  0.0951
  497MOL0     C66982   2.866  10.093   0.271 -0.3454 -0.6141  0.7932
  497MOL0     C66983   2.782  10.117   0.140  0.0621 -1.0558 -0.1425
  497MOL0     O66984   2.842  10.075   0.014 -0.5675 -0.2532  0.2637
  497MOL0     C66985   2.966  10.107  -0.030  0.1429 -0.1219  0.6972
  497MOL0     C66986   3.023  10.232   0.009 -0.6351  0.0388 -0.0218
  497MOL0     C66987   3.155  10.263  -0.029  0.7374 -0.2144 -0.9896
  497MOL0     C66988   3.227  10.168  -0.103 -0.3983 -0.6462  0.0766
  497MOL0     C66989   3.366  10.187  -0.139  0.6284  0.1302 -0.2451
  497MOL0     O66990   3.413  10.305  -0.102 -0.1766  0.6250 -0.2311
  497MOL0     C66991   3.540  10.325  -0.056 -0.0865 -0.1871  0.1367
  497MOL0     C66992   3.583  10.461  -0.064  0.7533  0.3285  0.3336
  497MOL0     C66993   3.711  10.493  -0.008 -0.4619  0.2769 -0.4697
  497MOL0     C66994   3.790  10.394   0.051 -0.2389 -0.0535 -0.3645
  497MOL0     O66995   3.918  10.431   0.088  0.5540 -0.5425  0.5397
  497MOL0     C66996   3.955  10.409   0.229  0.1505  0.0968  0.5684
  497MOL0     C66997   3.894  10.521   0.317  0.3937 -0.4601  1.2208
  497MOL0     C66998   3.961  10.663   0.300  1.1658  0.9540 -0.4678
  497MOL0     C66999   4.115  10.658   0.292 -0.0404  1.2654  0.2893
  497MOL0     C67000   4.164  10.792   0.322 -0.1022 -0.4394 -0.2912
  497MOL0     C67001   4.117  10.904   0.229 -0.1572 -0.7425 -0.0007
  497MOL0     C67002   4.177  11.041   0.275  0.5624 -0.5015 -0.4584
  497MOL0     C67003   4.152  11.164   0.196  0.6128 -0.0131 -0.0525
  497MOL0    Cl67004   4.260  11.291   0.254  0.6626 -0.0352  0.2897
  497MOL0     C67005   3.742  10.265   0.059 -0.5636 -0.6398 -0.1083
  497MOL0     C67006   3.623  10.230   0.003 -0.1148  0.1600  0.3282
  497MOL0     O67007   3.420  10.099  -0.200  0.0067  0.3759  0.2192
  497MOL0     C67008   3.163  10.049  -0.146 -0.3100  0.4452 -0.0154
  497MOL0     C67009   3.033  10.019  -0.108 -1.0363  0.0909 -0.5557
  497MOL0     N67010   2.668   9.771   0.490 -0.2219  0.6507  0.1738
  497MOL0     N67011   2.578   9.682   0.508  0.1677  0.3735 -0.2621
  497MOL0     C67012   1.563   9.541   1.011  0.2288  0.0700  0.7629
  497MOL0     C67013   1.422   9.532   1.013 -0.4209  0.4821 -0.2248
  497MOL0     C67014   0.976   9.593   0.831 -0.0230  0.5264 -0.1204
  497MOL0     C67015   0.950   9.462   0.873  0.3325 -0.0984  1.2768
  497MOL0     C67016   0.819   9.415   0.858  0.1426 -0.3649  0.1435
  497MOL0     C67017   0.710   9.494   0.816 -0.2311  0.4504 -0.9063
  497MOL0     O67018   0.588   9.449   0.793  1.2618  0.1555  1.1215
  497MOL0     C67019   0.537   9.333   0.871 -0.0287 -0.2259  0.5861
  497MOL0     C67020   0.386   9.350   0.885  0.4147 -0.1155  0.4890
  497MOL0     C67021   0.312   9.257   0.786 -0.5597 -0.0281  1.0031
  497MOL0     C67022   0.324   9.329   0.641 -0.2762 -0.4799 -0.3509
  497MOL0     C67023   0.191   9.346   0.579  0.2956  0.0812 -0.3991
  497MOL0     C67024   0.082   9.377   0.535 -0.1069  0.7701 -0.3070
  497MOL0     C67025   0.736   9.625   0.781  0.6844 -0.0853 -0.2717
  497MOL0     C67026   0.868   9.680   0.787  0.8202 -0.5078 -0.0869
  497MOL0     C67027   0.879   9.826   0.751  0.2786  0.6628  0.3739
  497MOL0     H67028   1.352   9.608   0.696 -1.0174  0.4544  0.7320
  497MOL0     H67029   1.590   9.603   0.680 -1.5731  0.8068 -1.1778
  497MOL0     H67030   1.856   9.432   0.974  2.1057  1.8736  0.7696
  497MOL0     H67031   1.774   9.401   0.822 -0.4241 -0.7844  1.7507
  497MOL0     H67032   2.050   9.536   0.837 -0.1325 -0.1165  0.1310
  497MOL0     H67033   1.945   9.520   0.692  0.2349 -1.1474  0.2461
  497MOL0     H67034   1.957   9.271   0.714 -1.8036  0.6500 -0.1376
  497MOL0     H67035   2.053   9.286   0.868  1.2941 -2.3752 -1.2370
  497MOL0     H67036   2.237   9.422   0.731 -0.1115  0.4333  0.4730
  497MOL0     H67037   2.221   9.246   0.722  1.1230 -0.0092  0.7145
  497MOL0     H67038   2.098   9.266   0.507  0.9268 -0.6339 -0.9983
  497MOL0     H67039   2.097   9.444   0.535 -1.0169 -0.5147 -2.7571
  497MOL0     H67040   2.346   9.271   0.496  1.8749  1.7828  0.5134
  497MOL0     H67041   2.249   9.340   0.369 -2.4545 -0.7145  1.3672
  497MOL0     H67042   2.413   9.513   0.578  0.8200  2.3683 -0.0769
  497MOL0     H67043   2.322   9.580   0.460  1.6884  2.1268  1.7750
  497MOL0     H67044   2.552   9.381   0.412 -1.6371  0.1449  3.0332
  497MOL0     H67045   2.477   9.475   0.280  1.4680 -4.9404 -1.2541
  497MOL0     H67046   2.715   9.580   0.232  0.2156 -1.9742  1.3976
  497MOL0     H67047   2.932   9.814   0.291  0.2496  0.7192  0.4131
  497MOL0     H67048   2.783   9.857   0.195  0.4908  3.0156  0.5477
  497MOL0     H67049   2.697   9.994   0.360 -0.5325 -1.8987 -1.6566
  497MOL0     H67050   2.851   9.965   0.452 -2.6589 -1.0185  1.2941
  497MOL0     H67051   2.972  10.084   0.246  0.2432  3.4715  1.0752
  497MOL0     H67052   2.862  10.189   0.324  0.4730 -0.7280  1.0696
  497MOL0     H67053   2.777  10.227   0.142 -1.0010 -1.0939  0.1158
  497MOL0     H67054   2.681  10.075   0.147 -0.9487  0.9912 -1.3244
  497MOL0     H67055   2.976  10.312   0.065  0.1710  1.7447 -1.6745
  497MOL0     H67056   3.197  10.361  -0.005 -1.9882  1.5122 -2.7627
  497MOL0     H67057   3.531  10.542  -0.113  0.7227 -0.2030 -0.5371
  497MOL0     H67058   3.750  10.593  -0.020  1.0083 -0.4191 -1.9463
  497MOL0     H67059   3.938  10.305   0.257  0.9050 -0.3776 -0.6384
  497MOL0     H67060   4.061  10.425   0.251 -0.1271  1.3798  1.1036
  497MOL0     H67061   3.787  10.526   0.295  0.4976 -1.3229  0.4364
  497MOL0     H67062   3.907  10.496   0.422 -0.3080  1.9326  1.9515
  497MOL0     H67063   3.918  10.715   0.214  1.6848  1.9008 -0.1673
  497MOL0     H67064   3.933  10.728   0.384 -0.3217 -1.3200  0.9395
  497MOL0     H67065   4.142  10.626   0.190  0.9787  1.7389  0.3945
  497MOL0     H67066   4.164  10.585   0.357 -0.7526  0.2258 -0.3173
  497MOL0     H67067   4.273  10.790   0.323 -0.1093 -2.2013  0.2065
  497MOL0     H67068   4.137  10.816   0.425 -1.7363 -0.9269 -0.5858
  497MOL0     H67069   4.161  10.885   0.131  1.0588  0.5942  0.2661
  497MOL0     H67070   4.008  10.916   0.226 -0.1720  0.5885  2.9615
  497MOL0     H67071   4.286  11.037   0.284  0.6045  2.0804  1.8517
  497MOL0     H67072   4.144  11.052   0.379 -0.5680 -0.7114 -0.7876
  497MOL0     H67073   4.175  11.144   0.091  0.9017  2.8193 -0.6140
  497MOL0     H67074   4.046  11.189   0.192  0.9895  1.5489 -1.0764
  497MOL0     H67075   3.805  10.187   0.100  0.3189 -0.7834 -1.6328
  497MOL0     H67076   3.590  10.127   0.017  1.4216 -0.3356  0.4049
  497MOL0     H67077   3.204   9.970  -0.208  2.8324  0.4313  1.8946
  497MOL0     H67078   2.991   9.921  -0.129 -0.8268 -0.1857  0.2836
  497MOL0     H67079   1.616   9.540   1.106 -0.3681  3.6043  1.2784
  497MOL0     H67080   1.375   9.505   1.108  1.6143 -1.8163  0.2380
  497MOL0     H67081   1.023   9.390   0.909  0.1668 -1.6849 -1.2310
  497MOL0     H67082   0.799   9.314   0.894  0.3262  0.1494  1.7732
  497MOL0     H67083   0.597   9.333   0.963  0.1181  0.5725  0.5035
  497MOL0     H67084   0.567   9.237   0.828 -0.8663  0.2394 -1.1366
  497MOL0     H67085   0.346   9.452   0.882 -0.7977 -0.4092  3.2536
  497MOL0     H67086   0.370   9.311   0.986  2.0710 -0.4477  0.6482
  497MOL0     H67087   0.208   9.235   0.811 -0.8193 -0.7751 -0.5790
  497MOL0     H67088   0.361   9.160   0.787 -1.6691 -0.6675 -0.6383
  497MOL0     H67089   0.374   9.425   0.656 -0.4240 -0.7882  2.9176
  497MOL0     H67090   0.380   9.263   0.575  0.4658  0.0641 -0.2825
  497MOL0     H67091  -0.015   9.406   0.499 -1.2218 -0.1550  1.7200
  497MOL0     H67092   0.657   9.693   0.748  3.0343  3.2128  0.3555
  497MOL0     H67093   0.915   9.818   0.648 -1.5336 -3.2947 -0.1299
  497MOL0     H67094   0.781   9.874   0.756 -0.3010 -0.3937 -0.3931
  497MOL0     H67095   0.939   9.885   0.820 -1.4280 -0.5330  3.0442
  498MOL0     O67096   2.349   4.556   6.912  0.1664 -0.3642 -0.5759
  498MOL0     C67097   2.309   4.608   6.811 -0.1826 -0.5697 -0.1017
  498MOL0     O67098   2.248   4.532   6.711  0.1836 -0.2347 -0.7017
  498MOL0     C67099   2.235   4.395   6.733  0.1054  0.4224  0.1384
  498MOL0     C67100   2.313   4.303   6.662 -0.4873  0.0473  0.5108
  498MOL0     C67101   2.274   4.167   6.663  0.1847 -0.2813 -0.3080
  498MOL0     C67102   2.164   4.129   6.747 -0.6859  0.3408 -1.0671
  498MOL0     O67103   2.129   4.001   6.745  0.0019  0.0878 -0.2873
  498MOL0     C67104   2.139   3.939   6.872  0.6810  0.3867  0.7080
  498MOL0     C67105   2.113   3.785   6.854 -0.7482 -0.1198 -0.5503
  498MOL0     C67106   2.222   3.728   6.767 -0.2926 -0.1709  0.5684
  498MOL0     C67107   2.192   3.573   6.750 -0.3129 -0.3004  0.1276
  498MOL0     C67108   2.310   3.499   6.683 -0.1208 -0.8164  0.5561
  498MOL0     C67109   2.287   3.357   6.664  0.2564  0.4410  0.3233
  498MOL0     C67110   2.401   3.288   6.588 -0.5679  0.5274 -0.0991
  498MOL0     C67111   2.413   3.333   6.438  0.8443 -0.0682  0.2468
  498MOL0     N67112   2.547   3.378   6.396 -0.1727  0.3318 -0.4767
  498MOL0     C67113   2.658   3.286   6.404 -0.0954  0.2577 -0.3862
  498MOL0     C67114   2.773   3.356   6.388  0.4313  0.3021 -0.3384
  498MOL0     C67115   2.904   3.293   6.389  0.5196  0.2410 -0.2424
  498MOL0     C67116   3.015   3.397   6.366  1.0314 -1.2035 -0.0844
  498MOL0     C67117   3.142   3.322   6.328 -0.5111 -0.2997  0.4316
  498MOL0     C67118   3.269   3.396   6.297  0.4041 -0.6884  0.0859
  498MOL0     O67119   3.374   3.309   6.272 -0.2991 -0.0741 -0.1668
  498MOL0     C67120   3.498   3.375   6.288 -0.8125  0.0432  0.4801
  498MOL0     C67121   3.549   3.458   6.193 -0.0876 -0.1325 -0.5145
  498MOL0     C67122   3.665   3.534   6.221 -0.1115 -0.1720  0.3110
  498MOL0     C67123   3.740   3.514   6.340  0.3366 -0.5492  0.5089
  498MOL0     C67124   3.868   3.581   6.370  0.2241 -0.1198 -1.3228
  498MOL0     O67125   3.929   3.634   6.264 -0.0669  0.7917 -0.0541
  498MOL0     C67126   4.063   3.667   6.251 -0.2138 -0.1462  0.0209
  498MOL0     C67127   4.168   3.635   6.345 -0.1710  0.1566  0.5174
  498MOL0     C67128   4.304   3.653   6.309 -0.1632 -0.4098 -0.8481
  498MOL0     C67129   4.337   3.717   6.190 -0.0476  0.3675 -0.0996
  498MOL0     O67130   4.475   3.745   6.172  0.2588  0.2403  0.3224
  498MOL0     C67131   4.533   3.752   6.045 -0.1407  0.3770  0.2461
  498MOL0     C67132   4.684   3.772   6.072 -0.0987  0.1794  0.0841
  498MOL0     C67133   4.750   3.786   5.936 -0.0934  0.4119  0.9810
  498MOL0     C67134   4.905   3.820   5.954 -0.1868 -0.1037  0.0219
  498MOL0     C67135   4.979   3.863   5.830  0.2403  0.1684  0.3805
  498MOL0     C67136   4.918   3.995   5.773 -0.0097 -0.0982  0.3988
  498MOL0     C67137   4.986   4.039   5.639  0.4379  0.2379 -0.5792
  498MOL0     C67138   4.960   4.186   5.598  0.3245  0.6387  0.1393
  498MOL0    Cl67139   4.829   4.207   5.478 -0.2495 -0.0636 -0.3542
  498MOL0     C67140   4.237   3.757   6.102 -0.1777  0.6324  0.1576
  498MOL0     C67141   4.103   3.723   6.129 -0.1929 -1.7754  0.1127
  498MOL0     O67142   3.913   3.578   6.487 -0.2232 -0.8991  0.6371
  498MOL0     C67143   3.682   3.424   6.436 -0.5422 -0.1459  0.0900
  498MOL0     C67144   3.561   3.365   6.414 -0.1617 -0.8495 -0.0951
  498MOL0     N67145   2.727   3.489   6.385 -0.2538 -0.0376  0.2786
  498MOL0     N67146   2.597   3.502   6.397 -0.0296  0.5902  0.9188
  498MOL0     C67147   2.081   4.213   6.809  0.1916  0.1159 -0.0222
  498MOL0     C67148   2.117   4.352   6.806 -0.7742  0.1967  0.1426
  498MOL0     C67149   2.316   4.748   6.783 -0.3885  0.4357  0.0930
  498MOL0     C67150   2.205   4.808   6.734 -0.0900 -0.3937  0.3229
  498MOL0     C67151   2.194   4.944   6.719 -0.6436 -0.3886 -0.2212
  498MOL0     C67152   2.307   5.029   6.747  1.2663  0.7675  0.1940
  498MOL0     O67153   2.300   5.157   6.707  0.3477  0.1566  0.7184
  498MOL0     C67154   2.360   5.261   6.777 -0.3596  0.6642  0.2075
  498MOL0     C67155   2.278   5.303   6.890  0.8744 -0.3150  0.1922
  498MOL0     C67156   2.142   5.367   6.843  0.4538 -0.2848 -0.9514
  498MOL0     C67157   2.036   5.396   6.945 -0.6988 -0.3306  0.0478
  498MOL0     C67158   1.966   5.280   6.991  0.5654  0.4799  0.4944
  498MOL0     C67159   1.918   5.179   7.045  0.5129  0.0704  0.8120
  498MOL0     C67160   2.420   4.972   6.798  0.3938  0.8544 -0.5491
  498MOL0     C67161   2.428   4.831   6.816 -0.8814  0.6468 -0.1540
  498MOL0     C67162   2.555   4.769   6.875  0.1031 -0.5575 -0.5754
  498MOL0     H67163   2.390   4.339   6.595 -1.2913  1.8309  0.4957
  498MOL0     H67164   2.327   4.091   6.606  0.9764  0.2469 -0.3054
  498MOL0     H67165   2.229   3.957   6.931  2.5046  0.3971 -1.8767
  498MOL0     H67166   2.050   3.971   6.926  0.2255 -2.1875  1.6079
  498MOL0     H67167   2.019   3.769   6.802 -1.8188  0.2024  1.2101
  498MOL0     H67168   2.119   3.739   6.952 -0.2590 -0.3637 -0.6910
  498MOL0     H67169   2.312   3.730   6.829 -0.0455  1.1177  0.1897
  498MOL0     H67170   2.238   3.781   6.673  0.2536 -3.3750 -1.3052
  498MOL0     H67171   2.182   3.529   6.849 -1.0907  0.0240  0.2007
  498MOL0     H67172   2.100   3.558   6.694 -0.4796  0.8348  0.0626
  498MOL0     H67173   2.321   3.551   6.587 -0.4769  1.6191  1.7383
  498MOL0     H67174   2.398   3.524   6.743  0.0030 -4.8457  2.2931
  498MOL0     H67175   2.283   3.309   6.762  1.5770 -0.4812 -0.0475
  498MOL0     H67176   2.199   3.343   6.599 -0.9539  1.1336  1.7647
  498MOL0     H67177   2.372   3.182   6.587  2.2805 -0.3495 -1.7779
  498MOL0     H67178   2.497   3.295   6.640 -1.1680  0.4330  1.0565
  498MOL0     H67179   2.396   3.245   6.375  0.3448  0.0902  0.1507
  498MOL0     H67180   2.339   3.411   6.417  1.0894  0.2239  0.4656
  498MOL0     H67181   2.652   3.178   6.416 -0.8999  0.4414  1.1001
  498MOL0     H67182   2.931   3.243   6.483 -0.7583 -0.3192 -0.1515
  498MOL0     H67183   2.917   3.220   6.309  2.0648 -2.7206  2.4814
  498MOL0     H67184   2.997   3.478   6.294  0.8505 -2.5618 -1.6171
  498MOL0     H67185   3.013   3.450   6.462 -2.6159 -0.8388 -0.2271
  498MOL0     H67186   3.122   3.257   6.242  1.5039  1.3387 -1.3952
  498MOL0     H67187   3.170   3.267   6.418  0.0263  1.7641  1.5963
  498MOL0     H67188   3.292   3.460   6.382  0.9721 -1.0016  0.1734
  498MOL0     H67189   3.262   3.456   6.205 -2.4127 -1.5181 -0.3515
  498MOL0     H67190   3.497   3.483   6.101 -1.6160  2.8345  0.9895
  498MOL0     H67191   3.700   3.595   6.138 -0.0296  0.7498  1.0091
  498MOL0     H67192   4.145   3.598   6.444 -2.3537  2.1584  0.8707
  498MOL0     H67193   4.380   3.621   6.379 -0.9304 -0.9073 -0.2155
  498MOL0     H67194   4.512   3.658   5.993  0.0383  0.6262 -0.2735
  498MOL0     H67195   4.487   3.838   5.996 -2.7379 -1.3320 -0.4815
  498MOL0     H67196   4.703   3.866   6.124 -1.4089  0.7968 -0.5034
  498MOL0     H67197   4.720   3.686   6.129  0.2777  1.6888  2.2579
  498MOL0     H67198   4.737   3.687   5.892  1.3614 -0.7058  2.8931
  498MOL0     H67199   4.697   3.859   5.875 -1.0039  0.8514  2.2547
  498MOL0     H67200   4.949   3.731   5.999 -2.7356 -3.9646 -4.3537
  498MOL0     H67201   4.917   3.905   6.023  2.2310 -0.5259  0.2295
  498MOL0     H67202   4.973   3.777   5.761  0.5815 -2.2037  3.1184
  498MOL0     H67203   5.085   3.882   5.846  0.9909 -0.4883 -2.9128
  498MOL0     H67204   4.811   3.981   5.751 -0.1112  1.5089 -0.2788
  498MOL0     H67205   4.926   4.076   5.846 -2.1482 -1.4041  2.2343
  498MOL0     H67206   4.956   3.984   5.549  0.3052  2.4893 -1.9876
  498MOL0     H67207   5.094   4.028   5.642  0.3731 -0.0963  1.1195
  498MOL0     H67208   4.929   4.250   5.681  1.0532 -1.2280  1.9294
  498MOL0     H67209   5.051   4.238   5.567 -0.8759  1.5789 -2.1292
  498MOL0     H67210   4.264   3.818   6.017  1.0532  1.0882  0.8577
  498MOL0     H67211   4.033   3.737   6.047  1.6768  2.9378 -1.0066
  498MOL0     H67212   3.731   3.409   6.532  1.3995  1.0416 -0.6705
  498MOL0     H67213   3.508   3.298   6.482 -2.4114 -2.3855 -3.1031
  498MOL0     H67214   1.996   4.181   6.869  1.3463  1.0022  2.1512
  498MOL0     H67215   2.048   4.425   6.846 -2.4405 -1.0179 -0.3725
  498MOL0     H67216   2.123   4.744   6.703  0.5312 -1.0978  0.1149
  498MOL0     H67217   2.103   4.976   6.670 -0.9734 -1.5834 -0.4280
  498MOL0     H67218   2.375   5.345   6.708 -0.8738  0.0270 -0.6996
  498MOL0     H67219   2.460   5.225   6.803  0.4972 -0.2101 -3.7295
  498MOL0     H67220   2.324   5.377   6.956 -1.5883 -1.2220  3.1955
  498MOL0     H67221   2.253   5.213   6.946 -0.3726  0.1020  0.3374
  498MOL0     H67222   2.100   5.297   6.771 -2.4286  0.6494 -0.3052
  498MOL0     H67223   2.166   5.457   6.786  0.1043 -0.5302 -1.4898
  498MOL0     H67224   2.076   5.456   7.028  0.8347  2.0234 -2.2408
  498MOL0     H67225   1.959   5.465   6.909  0.0724  0.8592  0.6145
  498MOL0     H67226   1.870   5.096   7.093  0.6676  0.2873  1.3433
  498MOL0     H67227   2.502   5.043   6.806 -0.8606  2.4004 -0.9098
  498MOL0     H67228   2.632   4.844   6.858 -2.0451  2.1062  0.6925
  498MOL0     H67229   2.533   4.744   6.980 -1.1429 -0.3686 -0.7829
  498MOL0     H67230   2.588   4.678   6.823  3.8611 -1.5065  2.9412
  499MOL0     O67231   4.346   5.809   8.584 -0.1509 -0.0145  0.2978
  499MOL0     C67232   4.276   5.716   8.537 -0.8284  0.5519 -0.4920
  499MOL0     O67233   4.321   5.601   8.486  0.0330 -0.2794  0.1182
  499MOL0     C67234   4.455   5.576   8.503 -0.1366 -0.0333  0.5678
  499MOL0     C67235   4.494   5.462   8.567 -0.1613 -0.9590 -0.4181
  499MOL0     C67236   4.630   5.434   8.585 -0.7236 -0.4842 -0.9684
  499MOL0     C67237   4.733   5.520   8.524 -0.4390  0.5572  0.5990
  499MOL0     O67238   4.869   5.495   8.501  0.7260 -0.1841  0.0454
  499MOL0     C67239   4.930   5.382   8.567  0.1506 -0.1297  0.1111
  499MOL0     C67240   4.956   5.394   8.719  0.2369  0.0061  0.0460
  499MOL0     C67241   5.056   5.281   8.767  0.0428 -0.7114 -0.3491
  499MOL0     C67242   5.057   5.270   8.918 -0.6164  0.7137  0.0699
  499MOL0     C67243   5.160   5.155   8.948  0.1099  0.6699  0.1870
  499MOL0     C67244   5.214   5.158   9.091 -0.7214  0.0740  0.4792
  499MOL0     C67245   5.271   5.298   9.118 -0.5240  0.2692 -0.4238
  499MOL0     C67246   5.394   5.295   9.222  0.6634  1.1945  0.3127
  499MOL0     N67247   5.352   5.301   9.364 -0.3833 -0.0237 -0.7267
  499MOL0     C67248   5.285   5.418   9.419  0.1543 -0.7091  0.0654
  499MOL0     C67249   5.266   5.386   9.549 -0.0209  0.3297  0.0496
  499MOL0     C67250   5.197   5.467   9.661 -0.1010  0.2008  0.8789
  499MOL0     C67251   5.260   5.436   9.799 -0.0994 -0.8574  0.8245
  499MOL0     C67252   5.207   5.537   9.907 -0.3953  0.8518 -0.5140
  499MOL0     C67253   5.298   5.664   9.925 -0.8952  0.4880  0.4599
  499MOL0     O67254   5.433   5.628   9.949  0.3087 -0.3698  0.6007
  499MOL0     C67255   5.541   5.699   9.896  0.1441  0.1049  0.3716
  499MOL0     C67256   5.536   5.818   9.822 -0.6224 -0.1802  0.0715
  499MOL0     C67257   5.663   5.862   9.767  0.3205 -0.1231  0.2780
  499MOL0     C67258   5.785   5.802   9.800  0.6774 -0.5205 -0.3399
  499MOL0     C67259   5.910   5.863   9.758  0.3421 -0.2234  0.2185
  499MOL0     O67260   6.026   5.830   9.818 -0.5675 -0.0701  0.4104
  499MOL0     C67261   6.141   5.907   9.794 -0.8356 -0.8335 -0.6588
  499MOL0     C67262   6.251   5.845   9.728  0.6867  0.0551  0.3834
  499MOL0     C67263   6.377   5.902   9.714 -0.0397  0.0158  0.0070
  499MOL0     C67264   6.404   6.024   9.779 -0.6218  0.1077  0.5023
  499MOL0     O67265   6.533   6.070   9.777 -0.9388  0.6514 -0.8388
  499MOL0     C67266   6.563   6.207   9.807  0.5805  0.9586 -0.0876
  499MOL0     C67267   6.695   6.246   9.741  0.9483 -0.8819  0.1439
  499MOL0     C67268   6.806   6.134   9.766  0.2743 -0.2057 -0.3091
  499MOL0     C67269   6.943   6.171   9.712  0.2436 -0.0407 -0.9661
  499MOL0     C67270   6.992   6.292   9.793 -0.1354  0.3573  0.3881
  499MOL0     C67271   7.134   6.328   9.748 -0.0453  0.0095 -0.3906
  499MOL0     C67272   7.243   6.239   9.786  0.1179  0.5503 -0.5820
  499MOL0     C67273   7.362   6.316   9.815 -0.5835 -0.0327  0.6947
  499MOL0    Cl67274   7.361   6.403   9.974 -0.1297  0.4040 -0.2307
  499MOL0     C67275   6.292   6.096   9.839 -0.0888  0.0179 -0.0771
  499MOL0     C67276   6.166   6.032   9.851 -0.0876 -0.3688 -0.3319
  499MOL0     O67277   5.898   5.940   9.662 -1.1035  0.2625  0.1465
  499MOL0     C67278   5.782   5.688   9.884 -0.8019  0.5397  0.0590
  499MOL0     C67279   5.663   5.629   9.912  0.7152  0.5407  0.6763
  499MOL0     N67280   5.306   5.256   9.579 -0.3728 -0.5240 -0.5506
  499MOL0     N67281   5.358   5.207   9.468  0.2529 -0.3489  0.5442
  499MOL0     C67282   4.680   5.637   8.457  0.0827 -0.4728 -0.7592
  499MOL0     C67283   4.549   5.653   8.433  0.2262  0.5982  0.8017
  499MOL0     C67284   4.124   5.722   8.528 -0.9426  0.6105  0.6882
  499MOL0     C67285   4.051   5.643   8.438  0.3829 -1.6300  0.3227
  499MOL0     C67286   3.911   5.671   8.420 -0.4139  0.4125  0.3661
  499MOL0     C67287   3.835   5.763   8.485  0.4738 -0.3339  0.1818
  499MOL0     O67288   3.699   5.760   8.477 -0.1767 -0.1899 -0.3424
  499MOL0     C67289   3.637   5.882   8.424 -0.1459  0.7373  0.2228
  499MOL0     C67290   3.666   5.911   8.275 -0.4333 -0.4030 -0.6679
  499MOL0     C67291   3.808   5.951   8.244  0.6574 -0.2138 -1.2627
  499MOL0     C67292   3.822   6.025   8.115 -0.1736  0.2388  0.4411
  499MOL0     C67293   3.796   6.170   8.126 -0.3470 -0.5509 -0.2852
  499MOL0     C67294   3.755   6.290   8.123  0.3015 -0.7719  0.3742
  499MOL0     C67295   3.908   5.835   8.585 -0.1262 -0.4961 -0.6827
  499MOL0     C67296   4.052   5.820   8.604  0.6384  0.2043 -0.3969
  499MOL0     C67297   4.109   5.888   8.724 -0.4945 -0.1083 -0.8707
  499MOL0     H67298   4.415   5.402   8.610  1.2631 -2.0496  0.7637
  499MOL0     H67299   4.657   5.339   8.630 -1.0900 -0.2514 -0.2393
  499MOL0     H67300   4.870   5.293   8.542 -2.4360  1.0715  1.6169
  499MOL0     H67301   5.023   5.382   8.509 -1.1476 -0.0570 -2.1094
  499MOL0     H67302   4.861   5.389   8.773  0.3830 -0.6745  0.2485
  499MOL0     H67303   5.001   5.491   8.740  0.2203 -0.2044  1.0890
  499MOL0     H67304   5.157   5.304   8.732  1.6551 -3.0025  2.3538
  499MOL0     H67305   5.040   5.179   8.730  1.4330 -1.2513  0.4437
  499MOL0     H67306   5.081   5.362   8.972  1.9840 -0.0481  0.3104
  499MOL0     H67307   4.964   5.225   8.954  0.0111  0.4640  1.4333
  499MOL0     H67308   5.117   5.054   8.942 -0.3153  0.8728 -0.1839
  499MOL0     H67309   5.246   5.165   8.882 -0.8346 -0.3666 -1.2584
  499MOL0     H67310   5.135   5.142   9.165 -0.2751  0.1923  0.9894
  499MOL0     H67311   5.291   5.081   9.101 -1.8131 -1.2850 -0.9955
  499MOL0     H67312   5.192   5.363   9.157  0.2914  0.5575  0.8022
  499MOL0     H67313   5.311   5.339   9.025  0.3246  1.7679  0.5687
  499MOL0     H67314   5.456   5.207   9.208 -0.0262  0.7194  0.1638
  499MOL0     H67315   5.463   5.377   9.203  2.0977 -0.1854 -0.6708
  499MOL0     H67316   5.251   5.510   9.372  1.8488 -0.6111 -1.0817
  499MOL0     H67317   5.232   5.564   9.625  2.8575 -0.6760  1.1407
  499MOL0     H67318   5.088   5.469   9.665 -0.1045  0.1201  0.8319
  499MOL0     H67319   5.233   5.331   9.816 -2.2406 -1.0066 -2.5641
  499MOL0     H67320   5.369   5.430   9.790 -0.1402  0.1750 -0.6482
  499MOL0     H67321   5.211   5.486  10.004  1.3485  1.6301 -0.1387
  499MOL0     H67322   5.098   5.545   9.899 -0.5179  2.4543  1.7496
  499MOL0     H67323   5.266   5.730  10.006  1.6648  3.5320 -0.8051
  499MOL0     H67324   5.299   5.726   9.835  1.0634 -0.0209  0.0876
  499MOL0     H67325   5.441   5.869   9.807 -0.2688  0.4671 -0.0034
  499MOL0     H67326   5.654   5.957   9.715 -0.8864 -1.2856 -1.7659
  499MOL0     H67327   6.225   5.751   9.680 -2.3917  0.3714  1.2326
  499MOL0     H67328   6.454   5.858   9.653 -1.8969 -2.3518 -0.7754
  499MOL0     H67329   6.488   6.284   9.787 -0.5503 -0.5538 -1.9500
  499MOL0     H67330   6.589   6.205   9.914  0.2740  1.3559 -0.0043
  499MOL0     H67331   6.672   6.263   9.635 -0.7730  0.9766  0.7646
  499MOL0     H67332   6.720   6.341   9.787 -0.3271 -0.2959 -0.3265
  499MOL0     H67333   6.820   6.112   9.872  1.4948  1.5851 -0.0487
  499MOL0     H67334   6.783   6.049   9.701  1.5341  0.1070 -1.1998
  499MOL0     H67335   6.938   6.188   9.604 -0.6484  1.1109 -0.7636
  499MOL0     H67336   7.014   6.090   9.731 -0.1815 -0.3032 -0.4495
  499MOL0     H67337   7.005   6.273   9.900 -1.0474  1.4538  0.7172
  499MOL0     H67338   6.929   6.380   9.779  2.0881  2.0554  0.4758
  499MOL0     H67339   7.140   6.331   9.638  1.9086  1.7212 -0.2956
  499MOL0     H67340   7.148   6.432   9.778  0.6234  0.0600 -0.8497
  499MOL0     H67341   7.267   6.173   9.701 -0.1826  0.2301 -0.4241
  499MOL0     H67342   7.221   6.173   9.871 -1.3479  2.2799  0.4313
  499MOL0     H67343   7.454   6.258   9.804  0.8157  1.7638  2.2876
  499MOL0     H67344   7.373   6.389   9.734  3.3125 -0.8820  0.2599
  499MOL0     H67345   6.312   6.192   9.887  0.1648  0.5415 -1.1990
  499MOL0     H67346   6.077   6.079   9.892  0.8821  1.8800 -0.6288
  499MOL0     H67347   5.873   5.637   9.911 -0.1386 -0.1463 -3.0278
  499MOL0     H67348   5.658   5.536   9.967  0.4556  0.0904 -0.0966
  499MOL0     H67349   4.752   5.693   8.399  1.4139 -0.5812  0.6932
  499MOL0     H67350   4.515   5.723   8.357 -1.2123 -0.4203  0.4454
  499MOL0     H67351   4.110   5.582   8.370  2.5974  2.6974 -2.0590
  499MOL0     H67352   3.855   5.607   8.352 -0.6689 -0.1060  1.0582
  499MOL0     H67353   3.662   5.961   8.496  1.2192 -1.3577  2.1804
  499MOL0     H67354   3.529   5.875   8.436  0.1050  1.4195  3.9254
  499MOL0     H67355   3.596   5.995   8.261 -0.2128 -0.2285 -0.7351
  499MOL0     H67356   3.637   5.832   8.205 -0.9458  1.6771 -2.9544
  499MOL0     H67357   3.871   5.862   8.252  0.5334 -0.2239 -0.2784
  499MOL0     H67358   3.845   6.008   8.329 -1.5358  1.2388 -1.1729
  499MOL0     H67359   3.929   6.013   8.092  0.5020  0.0696  3.3134
  499MOL0     H67360   3.760   5.983   8.035 -0.2928 -0.7089  1.0220
  499MOL0     H67361   3.724   6.392   8.113  4.5558  0.7641  0.7830
  499MOL0     H67362   3.852   5.906   8.646  0.8838  0.7130 -1.1022
  499MOL0     H67363   4.148   5.988   8.702  0.2323  1.0865  4.5029
  499MOL0     H67364   4.031   5.901   8.801  1.6704 -0.1722  1.4469
  499MOL0     H67365   4.190   5.828   8.765  0.5055  1.1366 -0.9608
  500MOL0     O67366   6.509   3.413   4.092  0.2041  0.5686  0.4285
  500MOL0     C67367   6.471   3.468   4.188 -0.6983  0.1949  1.0933
  500MOL0     O67368   6.447   3.406   4.302  0.1822  0.3254  0.0829
  500MOL0     C67369   6.497   3.283   4.331 -0.3375  0.2036  1.1448
  500MOL0     C67370   6.617   3.261   4.389  0.3576 -0.1797  0.2289
  500MOL0     C67371   6.671   3.138   4.425  0.7167  0.8798  0.0633
  500MOL0     C67372   6.599   3.020   4.412 -0.1562  0.0979 -0.2433
  500MOL0     O67373   6.660   2.902   4.441  0.3338  0.3614  0.6183
  500MOL0     C67374   6.650   2.790   4.344 -0.6542 -0.7301 -0.9678
  500MOL0     C67375   6.724   2.673   4.396  0.0205  0.2725  0.1629
  500MOL0     C67376   6.880   2.690   4.410  0.6453 -0.1126 -0.5810
  500MOL0     C67377   6.935   2.564   4.473 -0.0764  0.8082 -0.0404
  500MOL0     C67378   7.086   2.567   4.455  0.0339  0.2084  0.4750
  500MOL0     C67379   7.154   2.529   4.323 -0.2403 -0.1208 -0.4876
  500MOL0     C67380   7.310   2.533   4.337 -0.0740  0.8350 -0.7621
  500MOL0     C67381   7.360   2.672   4.307 -0.7892 -0.0828  0.4077
  500MOL0     N67382   7.499   2.691   4.360 -0.6494 -0.2103 -0.8557
  500MOL0     C67383   7.552   2.815   4.366  0.0492  0.3889  0.1876
  500MOL0     C67384   7.682   2.808   4.374 -0.1171  1.2502 -0.2429
  500MOL0     C67385   7.779   2.918   4.419 -1.0266 -0.3358  0.2035
  500MOL0     C67386   7.809   3.038   4.334  0.4516 -0.3072 -0.1536
  500MOL0     C67387   7.827   2.997   4.193 -0.6981 -0.5807 -0.0716
  500MOL0     C67388   7.934   2.887   4.157  0.4629  0.2482  0.1211
  500MOL0     O67389   8.056   2.944   4.187 -0.2699  0.0696 -0.1564
  500MOL0     C67390   8.159   2.861   4.227  0.6793  0.1326  0.2801
  500MOL0     C67391   8.207   2.772   4.131  0.1372 -0.3927 -0.0131
  500MOL0     C67392   8.324   2.694   4.152 -0.1925 -0.1915 -0.0753
  500MOL0     C67393   8.397   2.709   4.270  0.3763 -0.6123 -0.7023
  500MOL0     C67394   8.527   2.643   4.293 -0.6008 -0.2097 -1.1675
  500MOL0     O67395   8.576   2.564   4.197  0.0998 -0.7336 -0.1046
  500MOL0     C67396   8.683   2.498   4.229  0.4129  0.0174  0.2218
  500MOL0     C67397   8.695   2.361   4.201  0.4969 -0.8570 -0.4134
  500MOL0     C67398   8.808   2.289   4.220  0.2634 -0.1339 -0.0944
  500MOL0     C67399   8.921   2.351   4.262 -0.4128 -0.4188 -0.2446
  500MOL0     O67400   9.033   2.275   4.278  0.4932 -0.8332 -0.0795
  500MOL0     C67401   9.080   2.227   4.150 -0.0272 -0.2965  0.0175
  500MOL0     C67402   9.208   2.153   4.163 -0.1222  0.3249 -0.8185
  500MOL0     C67403   9.280   2.123   4.026  1.1881 -0.6572  0.8731
  500MOL0     C67404   9.236   1.994   3.961 -0.1722  0.9264 -0.8210
  500MOL0     C67405   9.328   1.973   3.833  0.6643  0.9990 -0.3854
  500MOL0     C67406   9.482   1.955   3.853  0.3533  0.8415 -0.4596
  500MOL0     C67407   9.517   1.881   3.983  0.9608  0.2185  0.7894
  500MOL0     C67408   9.669   1.865   3.996 -0.2426  0.4087  0.0995
  500MOL0    Cl67409   9.708   1.777   4.148  0.0851  0.1390  0.0764
  500MOL0     C67410   8.918   2.490   4.283  0.0912 -0.1466 -0.4781
  500MOL0     C67411   8.804   2.560   4.257 -0.1300 -0.2522 -0.5810
  500MOL0     O67412   8.583   2.666   4.400 -0.3045  0.4344 -0.1068
  500MOL0     C67413   8.347   2.799   4.370 -0.4166 -0.0184  0.2714
  500MOL0     C67414   8.238   2.880   4.342 -0.0290  0.7170  0.6008
  500MOL0     N67415   7.713   2.670   4.368  0.5118 -1.5265 -0.5605
  500MOL0     N67416   7.609   2.604   4.363  0.2972 -0.2211  0.1355
  500MOL0     C67417   6.465   3.029   4.371  0.0702 -0.2533  0.0321
  500MOL0     C67418   6.419   3.164   4.327 -0.5077 -0.1293  0.3579
  500MOL0     C67419   6.481   3.615   4.193 -0.0053 -0.3956  0.5214
  500MOL0     C67420   6.565   3.685   4.101  0.5121  1.2192  0.8858
  500MOL0     C67421   6.571   3.827   4.083  0.3478 -0.0098 -0.6421
  500MOL0     C67422   6.492   3.903   4.167  0.0526 -0.5759  0.4392
  500MOL0     O67423   6.498   4.042   4.154 -0.1631  0.1713  0.7593
  500MOL0     C67424   6.370   4.103   4.127 -0.1246 -0.0435  0.1813
  500MOL0     C67425   6.375   4.214   4.022  0.1234 -0.1509  0.9897
  500MOL0     C67426   6.453   4.177   3.892 -0.9770 -0.3813  0.3585
  500MOL0     C67427   6.503   4.293   3.799 -0.0958  0.6706  0.0840
  500MOL0     C67428   6.380   4.357   3.761  0.6056  0.9247 -0.6783
  500MOL0     C67429   6.285   4.416   3.708  0.6755  0.2947  0.1278
  500MOL0     C67430   6.412   3.845   4.267 -0.1888 -0.4072  0.2450
  500MOL0     C67431   6.404   3.702   4.270  0.0686  0.2538 -0.2010
  500MOL0     C67432   6.302   3.658   4.372 -0.2234 -0.0513  0.3036
  500MOL0     H67433   6.679   3.347   4.414  2.8070 -1.6585 -0.4185
  500MOL0     H67434   6.771   3.130   4.466  0.4910 -0.2392  0.4190
  500MOL0     H67435   6.549   2.748   4.333 -0.7090 -1.6234  1.8462
  500MOL0     H67436   6.681   2.836   4.250  3.5008  0.8194  0.9191
  500MOL0     H67437   6.699   2.585   4.336 -1.5218  0.6559  0.2167
  500MOL0     H67438   6.689   2.655   4.498 -2.0572  2.7387 -0.0277
  500MOL0     H67439   6.905   2.771   4.480 -1.7565 -2.0646  2.8998
  500MOL0     H67440   6.916   2.709   4.309  1.9515  0.7599  0.0125
  500MOL0     H67441   6.913   2.560   4.580  0.6142 -0.2251  0.0741
  500MOL0     H67442   6.880   2.486   4.420  1.7560  2.2544 -4.6708
  500MOL0     H67443   7.104   2.674   4.472  0.5561 -0.1962  2.8233
  500MOL0     H67444   7.133   2.508   4.534  1.8427  0.1271 -0.6197
  500MOL0     H67445   7.121   2.429   4.293  0.0623 -0.1931 -0.5890
  500MOL0     H67446   7.118   2.602   4.250 -0.6902 -0.0811 -0.2298
  500MOL0     H67447   7.361   2.463   4.270  0.9876  0.1103  0.7318
  500MOL0     H67448   7.343   2.505   4.437 -0.1021 -1.1548 -1.2643
  500MOL0     H67449   7.387   2.679   4.201  3.0064  1.9533  1.3395
  500MOL0     H67450   7.298   2.757   4.339 -0.6972  0.1481 -0.0189
  500MOL0     H67451   7.490   2.903   4.379 -3.7947 -2.3033  2.4399
  500MOL0     H67452   7.738   2.969   4.507  1.9813  0.2681  1.3743
  500MOL0     H67453   7.870   2.871   4.456 -2.1716 -1.2142  2.0139
  500MOL0     H67454   7.735   3.117   4.343 -0.6727 -1.5333  2.2727
  500MOL0     H67455   7.903   3.080   4.373 -1.2546  1.6761  2.1216
  500MOL0     H67456   7.849   3.087   4.135  0.8679 -1.3263 -0.6774
  500MOL0     H67457   7.730   2.968   4.151 -0.1436 -0.2855 -1.6107
  500MOL0     H67458   7.936   2.867   4.050 -0.5040  0.4445  0.0591
  500MOL0     H67459   7.906   2.792   4.203 -2.4539  0.1656 -1.6172
  500MOL0     H67460   8.157   2.771   4.035 -0.8606 -0.0572  0.4852
  500MOL0     H67461   8.353   2.628   4.071 -1.2042  1.0076 -1.4457
  500MOL0     H67462   8.608   2.302   4.176 -1.0822  1.3859 -0.4233
  500MOL0     H67463   8.809   2.181   4.207 -2.8746 -0.1838 -0.8909
  500MOL0     H67464   9.002   2.168   4.102  0.5006 -3.0014  2.1964
  500MOL0     H67465   9.089   2.306   4.076  1.2925 -0.9036 -0.5075
  500MOL0     H67466   9.263   2.226   4.222  1.7814  1.4048 -3.6677
  500MOL0     H67467   9.200   2.060   4.220  0.2404  0.2546 -0.8769
  500MOL0     H67468   9.262   2.203   3.953 -2.4751 -0.1730  2.0778
  500MOL0     H67469   9.386   2.129   4.050  1.2464 -2.2945  1.1305
  500MOL0     H67470   9.130   1.997   3.936 -0.9026  3.0493  2.0620
  500MOL0     H67471   9.234   1.911   4.032  0.4215  2.7140  1.4305
  500MOL0     H67472   9.325   2.069   3.779  1.0048  0.2483 -1.7754
  500MOL0     H67473   9.277   1.896   3.774  1.0232  0.2044  0.3309
  500MOL0     H67474   9.517   1.910   3.760 -0.0674  1.6800 -1.0378
  500MOL0     H67475   9.529   2.054   3.854 -0.1718  1.0956  0.5025
  500MOL0     H67476   9.468   1.785   3.998  0.3428  0.5388  0.8356
  500MOL0     H67477   9.480   1.944   4.064  1.8953  1.3954  0.3504
  500MOL0     H67478   9.720   1.822   3.909 -0.4435  0.8629 -0.2505
  500MOL0     H67479   9.715   1.965   3.992  1.6784 -0.4523 -1.6096
  500MOL0     H67480   9.008   2.536   4.323  1.3399 -3.5569  1.0232
  500MOL0     H67481   8.813   2.668   4.249 -0.0038 -0.2234 -0.1134
  500MOL0     H67482   8.379   2.807   4.473 -0.5436  0.8538  0.2480
  500MOL0     H67483   8.199   2.953   4.411 -1.0918 -0.4764  1.3174
  500MOL0     H67484   6.409   2.940   4.341 -0.3011  0.4835 -1.5408
  500MOL0     H67485   6.320   3.178   4.287 -1.7224 -1.1001  2.7756
  500MOL0     H67486   6.629   3.627   4.034  0.8270 -1.5411  3.3689
  500MOL0     H67487   6.633   3.882   4.013  1.6722 -2.0703 -1.2071
  500MOL0     H67488   6.319   4.134   4.219  0.1076  0.7087  0.0653
  500MOL0     H67489   6.304   4.030   4.079  0.3648 -0.2136 -0.2395
  500MOL0     H67490   6.420   4.302   4.069  1.0014 -0.0989  0.0739
  500MOL0     H67491   6.268   4.235   4.012  0.5343  1.1603 -1.0249
  500MOL0     H67492   6.398   4.110   3.826  0.7122  1.0174 -2.6456
  500MOL0     H67493   6.539   4.113   3.912 -0.8050 -0.5806 -0.9316
  500MOL0     H67494   6.577   4.360   3.844  3.0528 -1.8933 -0.8503
  500MOL0     H67495   6.556   4.260   3.708 -1.3876  1.6984 -1.0748
  500MOL0     H67496   6.207   4.474   3.662  1.1954  0.7501 -0.1954
  500MOL0     H67497   6.341   3.908   4.321  0.3568 -0.1376  0.6508
  500MOL0     H67498   6.252   3.566   4.343  0.5772 -0.5006  0.3153
  500MOL0     H67499   6.353   3.638   4.467 -4.4780 -0.7952  2.6821
  500MOL0     H67500   6.227   3.733   4.398 -0.1940  0.2304 -0.4086
  501MOL0     O67501   0.118   9.329   7.560  0.2313 -0.5358  0.3853
  501MOL0     C67502   0.051   9.371   7.463 -0.6874 -0.4457 -0.1524
  501MOL0     O67503   0.103   9.466   7.371  0.1915  0.6875  0.0920
  501MOL0     C67504   0.234   9.493   7.379  0.4960  0.2159 -0.3992
  501MOL0     C67505   0.270   9.628   7.406  1.0667 -0.6845  0.0266
  501MOL0     C67506   0.409   9.657   7.421  0.3688 -0.4627 -0.1185
  501MOL0     C67507   0.505   9.556   7.401  0.2258  0.4572 -0.4235
  501MOL0     O67508   0.638   9.579   7.421  0.0570  0.3189 -0.8483
  501MOL0     C67509   0.704   9.616   7.290  0.2456  0.2413  0.4039
  501MOL0     C67510   0.832   9.691   7.316  0.5061  0.2662 -0.1354
  501MOL0     C67511   0.817   9.808   7.411 -0.5730  0.4245  0.6970
  501MOL0     C67512   0.954   9.869   7.454  0.0821 -0.4697  1.5595
  501MOL0     C67513   0.950   9.937   7.593  0.2231  0.9763 -0.0951
  501MOL0     C67514   0.863  10.059   7.588  0.3116 -0.4814  1.5577
  501MOL0     C67515   0.897  10.163   7.475 -0.0324 -1.1598  0.1596
  501MOL0     C67516   1.042  10.198   7.477  0.0018  0.6952  0.2508
  501MOL0     N67517   1.079  10.282   7.372 -0.2958 -0.9271  0.0094
  501MOL0     C67518   1.059  10.417   7.365  0.4134 -0.3780  0.0795
  501MOL0     C67519   1.123  10.461   7.258 -0.2769 -0.6766 -0.2550
  501MOL0     C67520   1.140  10.600   7.202  0.5814  0.3263  0.7017
  501MOL0     C67521   1.280  10.657   7.208 -0.1218  0.8428  0.3957
  501MOL0     C67522   1.293  10.806   7.212  0.2758  0.2688  0.2854
  501MOL0     C67523   1.433  10.860   7.219 -0.2984 -0.1727 -0.9414
  501MOL0     O67524   1.515  10.828   7.333  0.3051 -0.3972 -1.2834
  501MOL0     C67525   1.654  10.828   7.313  0.1473 -0.2424 -0.0377
  501MOL0     C67526   1.736  10.757   7.400  0.0140  0.4142 -0.2971
  501MOL0     C67527   1.874  10.749   7.385  0.2252  0.4749  0.1839
  501MOL0     C67528   1.938  10.826   7.291  0.0488 -0.3331 -0.4583
  501MOL0     C67529   2.086  10.820   7.291 -0.3703  0.3204 -0.6502
  501MOL0     O67530   2.141  10.717   7.362 -0.0612 -0.3414 -0.1876
  501MOL0     C67531   2.277  10.686   7.364 -1.0478 -0.2825  0.0222
  501MOL0     C67532   2.363  10.698   7.262 -0.1594  0.3665  0.0160
  501MOL0     C67533   2.501  10.653   7.267 -0.4239  0.4301 -0.4317
  501MOL0     C67534   2.549  10.599   7.378  0.1795 -0.6537 -0.3562
  501MOL0     O67535   2.678  10.553   7.374 -0.4280  0.6830  0.2211
  501MOL0     C67536   2.722  10.482   7.487  0.7723 -0.4860 -0.0785
  501MOL0     C67537   2.850  10.408   7.442  0.9770 -0.4966 -0.9759
  501MOL0     C67538   2.965  10.504   7.414  0.0389  0.2816 -0.0608
  501MOL0     C67539   3.067  10.433   7.321 -0.2453 -0.8531 -0.4589
  501MOL0     C67540   3.168  10.345   7.398 -0.2187 -0.2475  0.4956
  501MOL0     C67541   3.277  10.296   7.293  0.1028 -0.5711  0.0795
  501MOL0     C67542   3.393  10.212   7.361 -0.0833 -0.8417  0.3881
  501MOL0     C67543   3.499  10.179   7.251 -0.1924  0.6684 -0.2214
  501MOL0    Cl67544   3.601  10.048   7.312 -0.1980 -0.3343 -0.0646
  501MOL0     C67545   2.469  10.597   7.493 -0.1125  0.3874 -0.0704
  501MOL0     C67546   2.333  10.637   7.481 -0.4901 -0.6681 -0.5281
  501MOL0     O67547   2.147  10.898   7.221  0.5279  0.3612  0.0519
  501MOL0     C67548   1.859  10.908   7.206  0.2200 -0.3587  0.6393
  501MOL0     C67549   1.720  10.899   7.211  0.6157  0.0065 -0.2439
  501MOL0     N67550   1.157  10.354   7.197  0.5972 -0.2575 -0.3884
  501MOL0     N67551   1.145  10.246   7.258  0.1672 -0.3307 -0.2055
  501MOL0     C67552   0.463   9.419   7.358 -0.9580 -1.0211  0.3029
  501MOL0     C67553   0.327   9.391   7.344  0.4791 -0.1027 -0.2943
  501MOL0     C67554  -0.089   9.355   7.456  0.5436 -0.1255  0.1848
  501MOL0     C67555  -0.162   9.474   7.427  0.1922  0.2161 -0.0385
  501MOL0     C67556  -0.297   9.470   7.450 -0.3594 -0.2618  0.1162
  501MOL0     C67557  -0.367   9.350   7.485 -0.1664  0.2569 -0.1757
  501MOL0     O67558  -0.503   9.345   7.528  0.1901 -0.0752 -0.3278
  501MOL0     C67559  -0.580   9.280   7.436 -0.2662 -0.1502  0.2778
  501MOL0     C67560  -0.626   9.382   7.328 -0.3125  0.0412  0.4081
  501MOL0     C67561  -0.700   9.506   7.385 -0.5765  0.7415 -0.1359
  501MOL0     C67562  -0.832   9.475   7.452  0.3036 -0.3324  0.8797
  501MOL0     C67563  -0.931   9.408   7.363 -0.7259 -0.4532  0.3169
  501MOL0     C67564  -1.002   9.362   7.274  0.0107  0.5651 -0.6278
  501MOL0     C67565  -0.292   9.229   7.501 -1.2622 -0.5214  0.4520
  501MOL0     C67566  -0.153   9.228   7.486 -0.7080 -0.0512  0.6498
  501MOL0     C67567  -0.069   9.102   7.503 -0.6454 -0.2339 -0.4330
  501MOL0     H67568   0.199   9.708   7.427  1.8791  0.2962 -0.8073
  501MOL0     H67569   0.440   9.757   7.449  1.4312 -0.7474 -0.2275
  501MOL0     H67570   0.723   9.527   7.230 -1.0937 -1.1795  1.9926
  501MOL0     H67571   0.635   9.679   7.233  1.7060 -0.5079 -2.3590
  501MOL0     H67572   0.893   9.717   7.229 -0.7830  0.8594 -0.8966
  501MOL0     H67573   0.902   9.630   7.374  2.4968  2.8497  0.3682
  501MOL0     H67574   0.781   9.769   7.507  0.3958 -0.1737  0.8351
  501MOL0     H67575   0.744   9.883   7.380 -0.1088  1.3691  1.8095
  501MOL0     H67576   1.022   9.783   7.449  0.4499 -0.2277  2.3281
  501MOL0     H67577   0.984   9.930   7.369 -1.2263  1.4988  2.4377
  501MOL0     H67578   0.914   9.865   7.666  0.0830  1.1821  0.0399
  501MOL0     H67579   1.055   9.957   7.618 -0.0979  2.2103  0.3624
  501MOL0     H67580   0.760  10.025   7.571  1.4033 -3.9238  0.9923
  501MOL0     H67581   0.873  10.121   7.677 -3.4204  4.1620 -0.7557
  501MOL0     H67582   0.835  10.253   7.477  0.1106 -1.0468 -0.2987
  501MOL0     H67583   0.873  10.118   7.378  0.9240  0.3682 -0.8245
  501MOL0     H67584   1.073  10.238   7.574  2.0141 -3.7639  1.7126
  501MOL0     H67585   1.099  10.105   7.473  1.5536  1.5353  1.5961
  501MOL0     H67586   1.011  10.467   7.449 -1.9380  0.9585 -1.9256
  501MOL0     H67587   1.100  10.604   7.101 -0.5539 -0.6294  1.0882
  501MOL0     H67588   1.080  10.663   7.269 -0.8569  1.2509 -1.3724
  501MOL0     H67589   1.313  10.622   7.307 -0.7804  0.0146  0.3311
  501MOL0     H67590   1.345  10.619   7.128 -1.0856  1.4871 -0.7207
  501MOL0     H67591   1.228  10.850   7.288 -2.5725 -1.7228 -0.7939
  501MOL0     H67592   1.264  10.841   7.113  2.4132 -2.6496 -1.5465
  501MOL0     H67593   1.434  10.969   7.212  1.4542 -0.2482 -2.6333
  501MOL0     H67594   1.485  10.820   7.132 -0.2285 -3.9776  0.6791
  501MOL0     H67595   1.704  10.700   7.486 -3.0904  1.4680 -0.6224
  501MOL0     H67596   1.934  10.684   7.447 -0.0061  2.2650  2.4339
  501MOL0     H67597   2.322  10.736   7.169 -0.0248  2.2712  0.7031
  501MOL0     H67598   2.562  10.672   7.180 -0.9971  0.3952 -0.8465
  501MOL0     H67599   2.734  10.549   7.572 -3.1156 -1.2356  1.2516
  501MOL0     H67600   2.638  10.415   7.508 -0.2649  1.6766  3.6749
  501MOL0     H67601   2.886  10.345   7.524  0.4600  0.7330  0.2351
  501MOL0     H67602   2.823  10.353   7.352  2.6211 -1.6403 -0.8244
  501MOL0     H67603   2.938  10.598   7.364  0.4419 -0.9629 -2.7954
  501MOL0     H67604   3.022  10.519   7.506  1.0745 -0.2363 -0.6049
  501MOL0     H67605   3.115  10.513   7.263 -1.5479  0.1323 -0.2281
  501MOL0     H67606   3.024  10.370   7.244  1.2019  0.1491 -2.1676
  501MOL0     H67607   3.112  10.266   7.448 -0.9393 -0.8802 -1.2301
  501MOL0     H67608   3.217  10.403   7.477 -0.5902  1.0684 -0.1966
  501MOL0     H67609   3.234  10.245   7.206 -1.2411  0.5918  0.0112
  501MOL0     H67610   3.320  10.384   7.245  0.5382 -0.7368  0.1667
  501MOL0     H67611   3.361  10.118   7.407  2.7625 -3.8324 -3.1756
  501MOL0     H67612   3.435  10.273   7.441  0.6976 -3.7823  2.3873
  501MOL0     H67613   3.451  10.156   7.156 -1.0386  0.2314  0.2954
  501MOL0     H67614   3.551  10.273   7.230  0.9106 -0.3721 -2.3515
  501MOL0     H67615   2.505  10.551   7.584 -3.2285 -0.9610  0.6090
  501MOL0     H67616   2.263  10.622   7.563  2.2216 -3.5045  1.5404
  501MOL0     H67617   1.907  10.977   7.138  1.1707 -1.2087  0.4290
  501MOL0     H67618   1.663  10.967   7.149  1.2183  1.4305  0.7052
  501MOL0     H67619   0.542   9.345   7.348  0.5063  0.4573  0.2996
  501MOL0     H67620   0.287   9.294   7.315  0.9243 -0.3689 -0.0401
  501MOL0     H67621  -0.109   9.565   7.401  1.9268 -0.7752 -0.1043
  501MOL0     H67622  -0.354   9.562   7.440 -1.5052 -0.9743 -0.0996
  501MOL0     H67623  -0.668   9.238   7.485  0.2198  1.2724  2.5040
  501MOL0     H67624  -0.528   9.198   7.385 -2.3457 -1.1051 -0.4075
  501MOL0     H67625  -0.690   9.334   7.253 -0.1693 -1.4141  1.1781
  501MOL0     H67626  -0.538   9.416   7.272  1.8423  1.3091  4.1784
  501MOL0     H67627  -0.715   9.582   7.309 -2.0024  1.4772  0.8344
  501MOL0     H67628  -0.649   9.550   7.471 -1.0580 -2.6488  2.0887
  501MOL0     H67629  -0.828   9.422   7.548 -0.9149  0.9847  1.7025
  501MOL0     H67630  -0.872   9.571   7.485  0.0299 -0.8270  2.0271
  501MOL0     H67631  -1.070   9.336   7.195 -2.4356  3.8460  0.2247
  501MOL0     H67632  -0.340   9.143   7.545 -0.8115 -0.5304  0.9341
  501MOL0     H67633  -0.117   9.009   7.472 -0.3281 -0.1084 -1.3256
  501MOL0     H67634   0.019   9.116   7.440  2.2934  1.8361  3.6390
  501MOL0     H67635  -0.031   9.100   7.606  1.5835  2.8379 -1.0703
  502MOL0     O67636   5.995   3.755   8.209  0.1584 -0.4753 -0.0312
  502MOL0     C67637   5.923   3.798   8.300  0.8931  0.5918  0.0824
  502MOL0     O67638   5.811   3.878   8.278 -0.6488 -0.0978  0.1279
  502MOL0     C67639   5.749   3.891   8.164 -0.4234 -0.0537 -0.5220
  502MOL0     C67640   5.812   3.965   8.068  0.2994 -0.2940  0.4199
  502MOL0     C67641   5.747   3.982   7.944 -0.0799 -0.4920 -0.2045
  502MOL0     C67642   5.633   3.925   7.914  0.1354  0.1005  0.5075
  502MOL0     O67643   5.581   3.937   7.785 -0.1018  0.2485 -0.6160
  502MOL0     C67644   5.591   4.059   7.709 -0.1534 -0.6380  0.9539
  502MOL0     C67645   5.502   4.034   7.590 -0.5439 -0.2916  0.0582
  502MOL0     C67646   5.489   4.171   7.516  0.2792 -0.1079 -0.5294
  502MOL0     C67647   5.356   4.175   7.428  0.4652  0.5447  0.1011
  502MOL0     C67648   5.347   4.065   7.330  0.2296  0.1680  0.7049
  502MOL0     C67649   5.216   4.073   7.248 -0.1563 -0.9509 -0.1202
  502MOL0     C67650   5.203   3.963   7.144 -0.4096 -0.5253 -0.2001
  502MOL0     C67651   5.133   3.837   7.190 -0.0931  0.3097  0.7388
  502MOL0     N67652   4.997   3.868   7.201  1.4447  0.3319  1.3060
  502MOL0     C67653   4.914   3.915   7.094 -0.1610 -0.2876  0.4069
  502MOL0     C67654   4.789   3.905   7.139 -0.1763 -0.1957  0.1814
  502MOL0     C67655   4.655   3.932   7.072  0.1398  0.4897  0.1137
  502MOL0     C67656   4.533   3.866   7.139 -0.7333  1.4922  0.0722
  502MOL0     C67657   4.418   3.879   7.041  0.0851  0.6335 -0.1371
  502MOL0     C67658   4.287   3.814   7.104 -0.7936  0.0302 -0.6292
  502MOL0     O67659   4.250   3.885   7.231 -0.0371  0.1757  0.9873
  502MOL0     C67660   4.112   3.882   7.258 -1.2409 -0.1225 -0.8396
  502MOL0     C67661   4.099   3.898   7.393  0.7847  0.6279 -1.0033
  502MOL0     C67662   3.975   3.894   7.454  0.1340 -0.8897  0.5824
  502MOL0     C67663   3.856   3.878   7.371 -0.0935 -0.1154 -0.0503
  502MOL0     C67664   3.725   3.884   7.433  0.3174  0.1923  0.6871
  502MOL0     O67665   3.613   3.837   7.367  0.5607  0.2916 -0.2208
  502MOL0     C67666   3.498   3.829   7.442  1.2045 -0.0790  0.6592
  502MOL0     C67667   3.387   3.888   7.381  0.3921  0.0826  1.0049
  502MOL0     C67668   3.263   3.861   7.436  0.3639  0.0433 -0.7250
  502MOL0     C67669   3.241   3.791   7.563  0.0349  0.0263 -0.0970
  502MOL0     O67670   3.111   3.796   7.612  0.2797 -0.2616 -0.1647
  502MOL0     C67671   3.074   3.734   7.738  0.7418  0.1488 -0.4004
  502MOL0     C67672   3.071   3.580   7.733 -0.7625 -0.5776  0.2076
  502MOL0     C67673   3.047   3.516   7.859  0.1496  0.2199 -1.2124
  502MOL0     C67674   3.023   3.372   7.832  1.3591 -0.9323  0.8447
  502MOL0     C67675   3.016   3.303   7.967  0.1010  1.1692 -0.2415
  502MOL0     C67676   2.895   3.344   8.046  0.9761 -0.6372  0.2740
  502MOL0     C67677   2.863   3.259   8.167  0.0320  0.0940 -0.5885
  502MOL0     C67678   2.956   3.259   8.283  0.0612 -0.2717  0.2006
  502MOL0    Cl67679   2.870   3.234   8.447  0.1215 -0.0170  0.1864
  502MOL0     C67680   3.356   3.735   7.624 -0.0174  0.5934 -0.3662
  502MOL0     C67681   3.486   3.751   7.561 -0.3022 -0.6450  0.5055
  502MOL0     O67682   3.724   3.937   7.545  0.2712  0.6547  0.0588
  502MOL0     C67683   3.879   3.858   7.234 -0.1707  0.4267  0.4937
  502MOL0     C67684   4.010   3.853   7.177  0.1851  1.3021 -0.3633
  502MOL0     N67685   4.794   3.871   7.271 -0.0594 -0.0558  0.5179
  502MOL0     N67686   4.916   3.847   7.305  0.4735 -0.0645 -0.8899
  502MOL0     C67687   5.573   3.834   8.006  0.3544 -0.7423 -0.4431
  502MOL0     C67688   5.633   3.820   8.137 -0.3777  0.4766  1.1283
  502MOL0     C67689   5.955   3.771   8.444 -0.4938 -0.9903  0.0434
  502MOL0     C67690   5.875   3.827   8.548 -0.2343 -1.3370 -0.5782
  502MOL0     C67691   5.902   3.816   8.685 -0.5212  0.0966 -0.1966
  502MOL0     C67692   6.013   3.750   8.732 -0.2921 -0.9184  0.1853
  502MOL0     O67693   6.033   3.750   8.868  0.1579  0.1918 -0.3207
  502MOL0     C67694   6.136   3.659   8.914 -0.2418  0.3209 -0.2761
  502MOL0     C67695   6.084   3.513   8.888  0.0177  0.2275  0.2643
  502MOL0     C67696   6.170   3.414   8.965  0.0457  1.0063 -0.0480
  502MOL0     C67697   6.187   3.286   8.882  0.8166 -0.7514  0.1196
  502MOL0     C67698   6.234   3.174   8.962 -1.3894 -0.5502 -0.1519
  502MOL0     C67699   6.266   3.079   9.025 -0.9970 -0.6147  0.5358
  502MOL0     C67700   6.098   3.714   8.633 -0.7039 -0.5056  0.3443
  502MOL0     C67701   6.073   3.716   8.494  0.4103  0.0794  0.0898
  502MOL0     C67702   6.168   3.656   8.404 -1.3827 -0.2443  0.1805
  502MOL0     H67703   5.908   4.009   8.091  1.2276 -1.1278 -1.5803
  502MOL0     H67704   5.796   4.045   7.871 -0.8638  1.1286  0.6235
  502MOL0     H67705   5.562   4.142   7.775 -1.5327 -1.3663  1.3139
  502MOL0     H67706   5.687   4.091   7.667 -0.7483 -0.2270 -0.1409
  502MOL0     H67707   5.407   4.004   7.636  0.8699 -1.2859  2.5079
  502MOL0     H67708   5.531   3.948   7.530  0.8111  0.1211  0.0799
  502MOL0     H67709   5.577   4.180   7.451 -0.2368 -2.8081 -1.7581
  502MOL0     H67710   5.493   4.256   7.584 -0.1339  0.1309 -0.7988
  502MOL0     H67711   5.267   4.184   7.491 -0.9633  3.1570 -2.0571
  502MOL0     H67712   5.346   4.266   7.368  2.4440  0.6732 -0.1236
  502MOL0     H67713   5.433   4.068   7.263  0.1432  0.1652  0.5927
  502MOL0     H67714   5.348   3.971   7.386  0.5984  0.2019  0.7553
  502MOL0     H67715   5.126   4.071   7.310  1.5593 -1.2235  2.5170
  502MOL0     H67716   5.229   4.164   7.190  1.6854 -1.8165 -1.1856
  502MOL0     H67717   5.306   3.939   7.117  0.2722 -0.0145  1.7962
  502MOL0     H67718   5.157   4.006   7.055  1.0698 -2.2323 -1.8852
  502MOL0     H67719   5.149   3.758   7.116 -3.4683  0.7494 -0.6574
  502MOL0     H67720   5.176   3.795   7.281  2.1043  1.7419  0.4262
  502MOL0     H67721   4.941   3.937   6.992 -1.1845 -3.9480 -0.8113
  502MOL0     H67722   4.627   4.038   7.072 -0.9172  0.2266 -1.3673
  502MOL0     H67723   4.660   3.917   6.964 -3.0326 -3.3239  0.2858
  502MOL0     H67724   4.553   3.764   7.172 -0.1761  1.7545  0.5633
  502MOL0     H67725   4.499   3.923   7.226 -0.8673  2.5204 -0.6313
  502MOL0     H67726   4.439   3.832   6.945 -0.4272 -0.7632  0.4045
  502MOL0     H67727   4.392   3.982   7.016  2.0267  0.4336 -3.4560
  502MOL0     H67728   4.293   3.705   7.103 -1.0411 -0.0249  1.1701
  502MOL0     H67729   4.208   3.837   7.032 -1.2404 -1.1721 -0.5354
  502MOL0     H67730   4.181   3.907   7.463  0.0286 -4.6775  1.0879
  502MOL0     H67731   3.990   3.901   7.562  2.7969 -1.7938  0.3505
  502MOL0     H67732   3.392   3.940   7.286  0.0587 -1.1670  0.2976
  502MOL0     H67733   3.178   3.908   7.387 -1.2905 -2.6461 -0.6501
  502MOL0     H67734   3.146   3.750   7.818  0.7930  0.1461 -0.4460
  502MOL0     H67735   2.981   3.779   7.774  1.2013 -1.1266  2.6494
  502MOL0     H67736   3.002   3.557   7.651  2.3384 -2.8986 -2.0001
  502MOL0     H67737   3.167   3.546   7.691  0.4238  1.3256  1.2131
  502MOL0     H67738   3.135   3.531   7.922 -2.9336 -1.5923  4.1399
  502MOL0     H67739   2.961   3.553   7.914  1.7425  0.0501  1.5515
  502MOL0     H67740   3.094   3.337   7.756  0.4869  0.9694 -0.9669
  502MOL0     H67741   2.926   3.368   7.781  1.2017 -1.2017  1.1624
  502MOL0     H67742   3.109   3.331   8.018 -0.4789  3.1768 -0.2002
  502MOL0     H67743   3.023   3.194   7.960  2.0090  1.1692  0.9302
  502MOL0     H67744   2.916   3.444   8.085  2.5479 -1.3075  1.2632
  502MOL0     H67745   2.809   3.355   7.979  0.6693 -2.0564  0.3992
  502MOL0     H67746   2.846   3.159   8.128  2.4737 -0.7973  0.4461
  502MOL0     H67747   2.771   3.295   8.214  0.1291  0.4357 -0.6577
  502MOL0     H67748   3.036   3.188   8.266  0.4069 -0.0758  0.9517
  502MOL0     H67749   3.004   3.357   8.287 -1.7090  0.7129 -0.9955
  502MOL0     H67750   3.348   3.678   7.715 -3.0374 -3.2434 -2.7286
  502MOL0     H67751   3.572   3.701   7.606 -1.3081 -3.0718 -0.1092
  502MOL0     H67752   3.810   3.827   7.156  2.6789 -0.6224 -1.8276
  502MOL0     H67753   4.020   3.826   7.073 -0.8762 -1.1729  0.1008
  502MOL0     H67754   5.482   3.783   7.979  0.9351 -2.2959  0.4324
  502MOL0     H67755   5.577   3.761   8.209  0.6444 -0.1326  1.4438
  502MOL0     H67756   5.786   3.882   8.519 -0.8837 -3.4693 -3.0407
  502MOL0     H67757   5.831   3.861   8.754 -0.3346  2.5411 -1.4695
  502MOL0     H67758   6.150   3.669   9.022 -0.3200 -1.5209 -0.0638
  502MOL0     H67759   6.236   3.669   8.871 -0.7372 -2.1659 -2.2516
  502MOL0     H67760   6.071   3.493   8.781 -0.4703 -0.1435  0.3902
  502MOL0     H67761   5.978   3.511   8.915 -0.5381  2.0343 -1.6048
  502MOL0     H67762   6.137   3.393   9.067 -2.7715  4.4892 -0.0084
  502MOL0     H67763   6.271   3.454   8.973  0.3656  0.8239 -2.4138
  502MOL0     H67764   6.091   3.263   8.836  0.1443  0.4369  0.8877
  502MOL0     H67765   6.267   3.310   8.811  0.2825 -0.4583 -0.3830
  502MOL0     H67766   6.295   2.988   9.073 -2.0283 -1.8267 -1.0416
  502MOL0     H67767   6.194   3.672   8.662  0.4705  1.1258 -0.9719
  502MOL0     H67768   6.211   3.731   8.337  0.9867 -1.4067  0.2741
  502MOL0     H67769   6.256   3.624   8.461 -0.7045  3.9707  1.8522
  502MOL0     H67770   6.113   3.580   8.347  0.4436 -0.7367 -1.0413
  503MOL0     O67771   7.263   2.972   0.664 -0.0070  0.2651  0.1057
  503MOL0     C67772   7.161   2.923   0.708  0.4763  0.0381 -0.3605
  503MOL0     O67773   7.069   2.975   0.794  0.3734  0.3274  0.3473
  503MOL0     C67774   7.103   3.102   0.840  0.0520 -0.5671  0.6519
  503MOL0     C67775   7.010   3.201   0.821 -0.0065  0.3537 -0.2779
  503MOL0     C67776   7.030   3.331   0.857 -0.1437  0.5383  0.5079
  503MOL0     C67777   7.154   3.375   0.907  0.4581 -0.1136  0.0320
  503MOL0     O67778   7.195   3.506   0.924  0.3173 -0.5915  0.5848
  503MOL0     C67779   7.097   3.564   1.019  0.0453  0.7621  0.0909
  503MOL0     C67780   7.158   3.673   1.101 -0.3382 -0.2720  0.0800
  503MOL0     C67781   7.143   3.811   1.033 -0.1228  0.0531 -0.9287
  503MOL0     C67782   7.212   3.810   0.894  0.1292  0.3746 -0.3171
  503MOL0     C67783   7.260   3.950   0.847  0.3722 -0.4632  0.0551
  503MOL0     C67784   7.394   3.998   0.902  0.4919  1.3480  0.1386
  503MOL0     C67785   7.441   4.129   0.841 -0.9909 -0.9383  0.7615
  503MOL0     C67786   7.537   4.114   0.717 -1.0689  0.2424  0.6760
  503MOL0     N67787   7.670   4.076   0.751  0.8281 -0.6267  0.5283
  503MOL0     C67788   7.728   3.950   0.732  0.5132  0.2742 -0.1857
  503MOL0     C67789   7.842   3.954   0.804  0.1126  1.2693  0.2621
  503MOL0     C67790   7.932   3.827   0.827 -1.0511 -0.5238 -0.2878
  503MOL0     C67791   8.071   3.873   0.797 -0.3293  0.1913  0.8159
  503MOL0     C67792   8.164   3.756   0.819  0.9368  0.6305 -0.4012
  503MOL0     C67793   8.303   3.812   0.850 -0.8157 -0.1971  0.2647
  503MOL0     O67794   8.384   3.699   0.890 -0.3134  0.3220  0.5842
  503MOL0     C67795   8.524   3.714   0.862  0.2709  0.8534  0.4692
  503MOL0     C67796   8.592   3.838   0.848 -0.9238  0.2970  0.7905
  503MOL0     C67797   8.732   3.838   0.818 -0.5633  0.1894  0.3902
  503MOL0     C67798   8.801   3.717   0.783  0.1588  0.6611  0.5445
  503MOL0     C67799   8.942   3.701   0.740  0.4675  0.3217  0.1579
  503MOL0     O67800   8.992   3.580   0.702 -0.3321  0.6711 -0.0598
  503MOL0     C67801   9.123   3.536   0.718 -0.2105 -0.1049 -1.1639
  503MOL0     C67802   9.158   3.419   0.654 -0.1587  0.3787 -0.0863
  503MOL0     C67803   9.288   3.369   0.672 -0.0667  0.3356 -0.2109
  503MOL0     C67804   9.382   3.439   0.750  0.3775  0.9826 -0.2946
  503MOL0     O67805   9.505   3.391   0.750  0.3385  0.8279 -0.0442
  503MOL0     C67806   9.582   3.409   0.634 -0.5349  0.6864  0.1435
  503MOL0     C67807   9.724   3.438   0.688  0.3662 -0.0016  0.1352
  503MOL0     C67808   9.808   3.466   0.569 -0.8680  0.7372  0.0985
  503MOL0     C67809   9.827   3.351   0.474  0.6763  1.1583  0.3292
  503MOL0     C67810   9.940   3.361   0.370  0.4761 -0.1890 -0.3942
  503MOL0     C67811  10.082   3.403   0.424 -0.0473  0.1459  0.5832
  503MOL0     C67812  10.178   3.391   0.303  0.5050  0.2038 -0.2536
  503MOL0     C67813  10.323   3.429   0.349  0.2238  0.6557 -0.4224
  503MOL0    Cl67814  10.389   3.290   0.430 -0.6130 -0.8747  0.2694
  503MOL0     C67815   9.344   3.554   0.817 -0.1025 -0.5478  0.0896
  503MOL0     C67816   9.219   3.599   0.804  0.1432  0.0322 -0.7079
  503MOL0     O67817   9.011   3.796   0.764  0.0760 -0.9317 -0.3981
  503MOL0     C67818   8.727   3.595   0.789  0.4378 -0.2603  0.7879
  503MOL0     C67819   8.595   3.587   0.847  0.0529 -0.7545  0.6500
  503MOL0     N67820   7.858   4.080   0.863  0.4427  0.4494  0.8636
  503MOL0     N67821   7.760   4.150   0.824 -0.6873 -0.1534 -0.2829
  503MOL0     C67822   7.246   3.272   0.942 -0.8960  0.3470  0.4682
  503MOL0     C67823   7.217   3.138   0.904  0.0170 -0.2578  0.8971
  503MOL0     C67824   7.135   2.781   0.655 -0.6670 -0.1478  0.4197
  503MOL0     C67825   7.030   2.707   0.717  0.1498  0.7439 -0.5478
  503MOL0     C67826   6.995   2.582   0.674 -0.3351  0.2846 -0.0516
  503MOL0     C67827   7.060   2.514   0.564 -0.1058  0.4526 -0.0400
  503MOL0     O67828   7.028   2.393   0.512 -0.0158 -0.6625 -0.3579
  503MOL0     C67829   6.934   2.313   0.587 -0.2731  0.2230 -0.0610
  503MOL0     C67830   6.786   2.323   0.549  0.2716 -0.1868 -0.0726
  503MOL0     C67831   6.761   2.306   0.397  0.5671 -0.2391  0.4865
  503MOL0     C67832   6.764   2.160   0.357  0.3325  0.1458  0.5468
  503MOL0     C67833   6.761   2.142   0.210 -0.3553 -0.6901  0.5326
  503MOL0     C67834   6.753   2.123   0.087 -0.1464 -0.1614 -0.2052
  503MOL0     C67835   7.160   2.590   0.512  0.0944  0.5213 -0.0455
  503MOL0     C67836   7.200   2.721   0.547 -0.7238  1.1817 -0.2998
  503MOL0     C67837   7.314   2.785   0.467  0.1408  0.5234 -1.1206
  503MOL0     H67838   6.922   3.173   0.764  0.3828 -1.3191 -0.1184
  503MOL0     H67839   6.953   3.405   0.836 -2.6169 -2.6700 -2.8971
  503MOL0     H67840   7.005   3.590   0.966 -0.2527  1.1435  0.7838
  503MOL0     H67841   7.072   3.487   1.093  1.1683 -0.6289 -0.9223
  503MOL0     H67842   7.259   3.648   1.134  0.0739  3.5972  2.4523
  503MOL0     H67843   7.105   3.677   1.197  3.3003 -0.0266  2.2574
  503MOL0     H67844   7.203   3.869   1.104 -0.9457  3.0333 -2.4795
  503MOL0     H67845   7.040   3.847   1.024 -0.3800 -0.2028  0.6568
  503MOL0     H67846   7.301   3.747   0.899 -0.4186 -0.2961  2.7076
  503MOL0     H67847   7.145   3.770   0.817  0.3084 -2.0756  0.6990
  503MOL0     H67848   7.258   3.946   0.737 -0.2660 -0.0124  0.0439
  503MOL0     H67849   7.192   4.028   0.882 -2.7673 -2.6174 -0.7715
  503MOL0     H67850   7.380   4.011   1.009 -2.4267  0.1310  0.0055
  503MOL0     H67851   7.457   3.910   0.883 -3.2034 -1.9635  1.6812
  503MOL0     H67852   7.484   4.188   0.922 -1.4276 -1.8013  1.6452
  503MOL0     H67853   7.356   4.186   0.802 -0.2982 -0.3992  0.0136
  503MOL0     H67854   7.503   4.057   0.631  2.1365  3.4611 -3.1360
  503MOL0     H67855   7.549   4.220   0.690  1.8509  0.1463  1.2160
  503MOL0     H67856   7.694   3.856   0.690  1.1329  0.3096 -0.7850
  503MOL0     H67857   7.922   3.798   0.932  0.5310 -0.4946 -0.1152
  503MOL0     H67858   7.897   3.747   0.760 -0.4564  1.6585 -3.4042
  503MOL0     H67859   8.076   3.913   0.695 -1.7628 -1.6087 -0.0224
  503MOL0     H67860   8.082   3.962   0.859 -1.1066  1.6138 -0.9947
  503MOL0     H67861   8.165   3.690   0.732 -1.3768  2.6814 -2.1500
  503MOL0     H67862   8.126   3.704   0.907  2.4329  2.3163  1.3275
  503MOL0     H67863   8.310   3.871   0.942  0.9866  1.3882 -0.8247
  503MOL0     H67864   8.351   3.869   0.769  3.4541 -1.6275  1.5694
  503MOL0     H67865   8.552   3.938   0.860 -0.2976  0.4354  1.8857
  503MOL0     H67866   8.797   3.923   0.805 -0.7378  0.5277  1.6250
  503MOL0     H67867   9.087   3.379   0.584  0.4201 -0.5296 -0.1655
  503MOL0     H67868   9.319   3.276   0.625  0.5940  0.8555 -0.8166
  503MOL0     H67869   9.582   3.312   0.583  4.4934 -0.1142  1.1017
  503MOL0     H67870   9.544   3.485   0.565  0.0432 -0.1318 -1.1215
  503MOL0     H67871   9.715   3.520   0.761 -0.4527  1.0262 -1.0810
  503MOL0     H67872   9.758   3.350   0.744  0.4315 -1.0170 -1.4341
  503MOL0     H67873   9.758   3.539   0.504  3.7660  3.9450 -0.3220
  503MOL0     H67874   9.899   3.520   0.596 -1.8613  2.1283  0.8307
  503MOL0     H67875   9.739   3.349   0.409  1.4747  1.9708 -0.8242
  503MOL0     H67876   9.833   3.261   0.535 -0.7745  1.9467  1.7180
  503MOL0     H67877   9.907   3.436   0.296  4.3686  0.9634 -1.2189
  503MOL0     H67878   9.954   3.270   0.311  0.6784 -0.4874  0.1128
  503MOL0     H67879  10.079   3.506   0.459 -4.8576  0.0797  1.0360
  503MOL0     H67880  10.124   3.330   0.494  1.3805  1.0412  0.7042
  503MOL0     H67881  10.146   3.444   0.212 -0.5912 -1.3684 -0.8361
  503MOL0     H67882  10.172   3.289   0.265 -2.8123  1.1643 -2.8776
  503MOL0     H67883  10.384   3.456   0.262  0.3017 -0.0077 -0.5828
  503MOL0     H67884  10.333   3.503   0.429 -1.0958  1.7992 -1.2762
  503MOL0     H67885   9.414   3.607   0.880 -1.7588  0.8000  0.8884
  503MOL0     H67886   9.193   3.682   0.869  1.6272 -0.0567  0.0309
  503MOL0     H67887   8.791   3.509   0.768  2.8577  1.4202  0.8275
  503MOL0     H67888   8.541   3.495   0.867  0.6760 -0.5335  4.0918
  503MOL0     H67889   7.336   3.292   1.000 -1.2995 -1.7194  1.9032
  503MOL0     H67890   7.295   3.063   0.918 -0.0009 -0.3751  0.3983
  503MOL0     H67891   6.970   2.753   0.795 -0.9820 -3.0364  1.0311
  503MOL0     H67892   6.904   2.553   0.724 -0.3591  0.2033 -0.1422
  503MOL0     H67893   6.953   2.332   0.693 -1.3401 -1.7861  0.5452
  503MOL0     H67894   6.962   2.209   0.566 -1.2977  0.2522 -1.7898
  503MOL0     H67895   6.756   2.423   0.580  0.7874 -0.4123  1.1774
  503MOL0     H67896   6.734   2.252   0.614  0.1486  1.4845  1.7323
  503MOL0     H67897   6.835   2.356   0.334  0.0555  1.6112  1.2922
  503MOL0     H67898   6.664   2.352   0.375 -0.1458 -0.9473  2.0650
  503MOL0     H67899   6.853   2.111   0.399  0.0824 -0.4699  0.3712
  503MOL0     H67900   6.686   2.099   0.402  0.4388  0.2094  0.8206
  503MOL0     H67901   6.737   2.107  -0.017 -1.0478  1.8265 -0.3948
  503MOL0     H67902   7.216   2.530   0.441 -0.9318  0.2366 -0.6347
  503MOL0     H67903   7.290   2.873   0.408 -0.8813 -0.7719 -2.7345
  503MOL0     H67904   7.389   2.811   0.542 -3.0240  2.0570  1.7755
  503MOL0     H67905   7.362   2.724   0.390 -2.9787  0.2147 -2.9707
  504MOL0     O67906   2.324   5.736   7.380  0.1605  0.3616  0.0643
  504MOL0     C67907   2.312   5.621   7.412  0.0832  0.4639  0.7943
  504MOL0     O67908   2.414   5.542   7.464  0.1350 -0.2160  0.6201
  504MOL0     C67909   2.529   5.605   7.487  0.0942 -0.4172  0.2538
  504MOL0     C67910   2.546   5.704   7.585 -0.1296 -0.5426 -0.0471
  504MOL0     C67911   2.673   5.760   7.613 -1.4927  0.0539 -0.3291
  504MOL0     C67912   2.774   5.719   7.533  0.0154 -0.1509  0.1621
  504MOL0     O67913   2.899   5.781   7.536  0.3826 -0.5201 -0.0929
  504MOL0     C67914   2.998   5.703   7.597 -0.1570  0.8672 -0.0211
  504MOL0     C67915   3.091   5.799   7.665 -0.4753  0.0924 -0.7177
  504MOL0     C67916   3.235   5.748   7.690  0.8655  0.3608  0.7545
  504MOL0     C67917   3.248   5.704   7.837  0.4963 -0.1257  0.3854
  504MOL0     C67918   3.397   5.652   7.847  0.7018  0.3660  0.1678
  504MOL0     C67919   3.450   5.645   7.987 -1.0861 -0.1664  0.4547
  504MOL0     C67920   3.588   5.573   8.008  0.7304 -0.7155  0.4191
  504MOL0     C67921   3.702   5.654   7.943  0.2640 -0.2293 -1.1467
  504MOL0     N67922   3.827   5.611   8.003  0.3980 -0.8057  0.4134
  504MOL0     C67923   3.883   5.480   8.002 -0.2547 -0.3020  0.5621
  504MOL0     C67924   4.004   5.499   8.055 -0.9878  0.6009 -0.0666
  504MOL0     C67925   4.095   5.375   8.066  0.0053  0.4374 -0.1389
  504MOL0     C67926   4.239   5.407   8.021  0.1123 -0.7991  0.1964
  504MOL0     C67927   4.328   5.443   8.141  0.1367  0.0786  1.3225
  504MOL0     C67928   4.469   5.459   8.109  0.1562 -0.0072  0.8289
  504MOL0     O67929   4.490   5.542   7.992 -0.4542 -0.0919 -0.0664
  504MOL0     C67930   4.606   5.591   7.949 -0.9002  0.0050 -0.4573
  504MOL0     C67931   4.610   5.643   7.820 -0.3826 -0.1095 -0.1565
  504MOL0     C67932   4.715   5.710   7.765 -0.2470 -0.9495 -0.7891
  504MOL0     C67933   4.829   5.715   7.849  0.0456 -0.8415 -0.1387
  504MOL0     C67934   4.952   5.761   7.791 -0.8527 -0.0607  0.8156
  504MOL0     O67935   5.065   5.765   7.873 -0.0533  0.2866  0.0520
  504MOL0     C67936   5.196   5.792   7.830 -0.0069 -0.1087  0.4752
  504MOL0     C67937   5.292   5.751   7.911  0.3657 -0.3101  0.4044
  504MOL0     C67938   5.431   5.774   7.883 -0.0703  0.3641 -0.3559
  504MOL0     C67939   5.467   5.848   7.769  0.6111  0.0574  0.3565
  504MOL0     O67940   5.600   5.849   7.732 -0.3456 -0.5064 -0.6371
  504MOL0     C67941   5.700   5.892   7.823  0.5218 -0.4615 -0.1730
  504MOL0     C67942   5.832   5.865   7.755  0.3367  0.3219  0.0442
  504MOL0     C67943   5.899   5.988   7.691  0.8719 -0.3031 -0.7202
  504MOL0     C67944   6.049   5.958   7.668 -1.5967  0.4949 -0.1627
  504MOL0     C67945   6.132   6.084   7.644  0.6627  0.3862 -0.7672
  504MOL0     C67946   6.285   6.059   7.640  0.4996  0.4991 -0.3542
  504MOL0     C67947   6.375   6.179   7.637 -0.6107 -0.3565  0.9334
  504MOL0     C67948   6.528   6.146   7.640 -0.0390  0.1578  0.6631
  504MOL0    Cl67949   6.610   6.305   7.644 -0.0623  0.2814  0.3471
  504MOL0     C67950   5.366   5.887   7.688 -0.1572  0.1944  0.3174
  504MOL0     C67951   5.233   5.851   7.707  0.2660 -0.0492 -0.2283
  504MOL0     O67952   4.955   5.787   7.669 -0.1585 -0.2347 -0.7203
  504MOL0     C67953   4.830   5.649   7.977 -0.8423  0.3992 -0.3697
  504MOL0     C67954   4.717   5.589   8.028 -0.9819  0.1965 -0.7507
  504MOL0     N67955   4.024   5.629   8.085  0.4178  0.4775 -0.3847
  504MOL0     N67956   3.915   5.691   8.057  0.0174 -1.3311 -0.3984
  504MOL0     C67957   2.761   5.621   7.436  1.0346  0.0046 -0.1110
  504MOL0     C67958   2.636   5.567   7.409 -0.0017 -0.4287  0.5214
  504MOL0     C67959   2.188   5.561   7.387  0.5323  0.3775 -0.0336
  504MOL0     C67960   2.200   5.424   7.345  0.4422  0.1444  0.2562
  504MOL0     C67961   2.085   5.353   7.322  1.0417  0.4492 -0.6536
  504MOL0     C67962   1.957   5.410   7.335 -0.6379  0.4250  0.3414
  504MOL0     O67963   1.848   5.328   7.345 -0.4428  0.2536  0.4135
  504MOL0     C67964   1.711   5.372   7.368  0.7007  0.1192 -0.0693
  504MOL0     C67965   1.616   5.253   7.383 -0.1172  0.0369 -0.2804
  504MOL0     C67966   1.608   5.164   7.254 -0.6607  0.9781 -0.6696
  504MOL0     C67967   1.501   5.046   7.268 -0.4515  1.1673 -0.3175
  504MOL0     C67968   1.361   5.106   7.273  0.1531  0.3205 -0.5249
  504MOL0     C67969   1.260   5.174   7.265  0.1783 -0.2964  0.3421
  504MOL0     C67970   1.948   5.543   7.375 -0.0055 -0.3537 -0.2237
  504MOL0     C67971   2.061   5.622   7.401 -0.6191 -0.1507  1.0890
  504MOL0     C67972   2.039   5.769   7.445 -0.0404 -0.2966  0.4310
  504MOL0     H67973   2.459   5.740   7.639 -0.5249 -4.4384  2.3019
  504MOL0     H67974   2.688   5.836   7.689 -0.4151  2.1585 -2.5187
  504MOL0     H67975   2.951   5.634   7.667 -0.3081 -1.8877 -2.6305
  504MOL0     H67976   3.055   5.646   7.522  1.5618  4.3000 -1.5972
  504MOL0     H67977   3.044   5.838   7.755 -2.7207 -5.4566  0.9156
  504MOL0     H67978   3.104   5.888   7.603 -0.0797  2.0119  1.9573
  504MOL0     H67979   3.307   5.825   7.661  0.3217  0.8252  0.6074
  504MOL0     H67980   3.262   5.665   7.625 -0.2283 -1.1623  2.1784
  504MOL0     H67981   3.225   5.792   7.898  1.5479  0.7576 -0.4482
  504MOL0     H67982   3.182   5.620   7.862  2.0083 -2.9854 -3.9210
  504MOL0     H67983   3.406   5.557   7.793 -0.6272  0.0006  0.5334
  504MOL0     H67984   3.466   5.715   7.791  0.3746 -0.3673 -1.1247
  504MOL0     H67985   3.443   5.747   8.024  0.9850  1.2108 -2.5264
  504MOL0     H67986   3.376   5.587   8.042 -2.0613  0.3094 -0.3199
  504MOL0     H67987   3.588   5.476   7.958  4.6633 -0.3173 -0.6330
  504MOL0     H67988   3.605   5.560   8.115  1.5710  0.0995  0.3930
  504MOL0     H67989   3.697   5.638   7.835  1.7493 -2.7071 -0.9374
  504MOL0     H67990   3.681   5.757   7.972 -0.0832 -1.3443  3.3551
  504MOL0     H67991   3.850   5.382   7.970 -0.4213  0.7678 -2.9385
  504MOL0     H67992   4.087   5.338   8.168  0.2694 -1.2393 -0.7003
  504MOL0     H67993   4.045   5.297   8.008 -0.6672 -0.4525  1.5761
  504MOL0     H67994   4.282   5.320   7.971  2.2795 -1.9523  3.6688
  504MOL0     H67995   4.244   5.498   7.962 -2.5054 -1.2877 -0.9064
  504MOL0     H67996   4.322   5.373   8.225  2.0495  0.4155  1.7969
  504MOL0     H67997   4.288   5.530   8.194  0.4013 -0.8689  3.1734
  504MOL0     H67998   4.509   5.360   8.082  0.1480 -0.1481  1.3308
  504MOL0     H67999   4.524   5.498   8.195  1.0825  2.8927 -0.9444
  504MOL0     H68000   4.519   5.636   7.762 -0.8070  1.4867  0.2802
  504MOL0     H68001   4.707   5.762   7.670 -1.7163  0.2210 -0.0737
  504MOL0     H68002   5.257   5.714   8.007 -1.7211  3.2556  1.1872
  504MOL0     H68003   5.517   5.733   7.934  0.4254  1.8468  0.0416
  504MOL0     H68004   5.680   5.999   7.838 -3.0179 -1.0239  0.0638
  504MOL0     H68005   5.696   5.837   7.918 -1.1775  0.1016  0.1162
  504MOL0     H68006   5.897   5.818   7.829 -1.9846 -2.9916  0.1833
  504MOL0     H68007   5.820   5.777   7.691  0.5594 -1.9250  2.8831
  504MOL0     H68008   5.853   6.033   7.602  0.0955  0.8448  0.2254
  504MOL0     H68009   5.887   6.063   7.770  1.0603  0.2809 -1.2396
  504MOL0     H68010   6.068   5.903   7.576  2.6008  1.7312 -0.2440
  504MOL0     H68011   6.088   5.901   7.753 -1.8304  0.7505  0.1201
  504MOL0     H68012   6.112   6.150   7.729 -0.4410 -2.5490  1.4419
  504MOL0     H68013   6.092   6.123   7.550 -0.4022  0.9607 -0.1013
  504MOL0     H68014   6.312   6.005   7.732  1.1012  1.2273 -0.0947
  504MOL0     H68015   6.307   5.997   7.553  0.1116  1.4162 -1.1226
  504MOL0     H68016   6.353   6.241   7.724 -0.7523  0.6724  0.1745
  504MOL0     H68017   6.365   6.231   7.541 -1.4703  0.1040  1.2610
  504MOL0     H68018   6.556   6.091   7.730  1.7029  1.7262  1.1569
  504MOL0     H68019   6.559   6.095   7.548 -0.5876  2.3248 -0.8167
  504MOL0     H68020   5.403   5.957   7.614  0.6551  3.4070  3.4929
  504MOL0     H68021   5.152   5.902   7.657  0.5214  2.7917  1.9878
  504MOL0     H68022   4.923   5.645   8.033  1.0114  2.0578 -3.0747
  504MOL0     H68023   4.720   5.524   8.114 -3.1763 -1.7036 -1.9880
  504MOL0     H68024   2.842   5.599   7.368  0.8026 -1.9318  0.1936
  504MOL0     H68025   2.627   5.502   7.322  2.0682  0.8079 -0.6958
  504MOL0     H68026   2.299   5.381   7.341 -0.0739 -1.0758  0.3745
  504MOL0     H68027   2.093   5.247   7.301 -1.7258  0.5664 -2.7414
  504MOL0     H68028   1.680   5.440   7.288 -0.8229  0.4678  0.7779
  504MOL0     H68029   1.712   5.424   7.465 -1.5710 -2.9702  1.7855
  504MOL0     H68030   1.514   5.288   7.405 -0.4247 -1.3965  0.7358
  504MOL0     H68031   1.656   5.195   7.466 -1.8024 -2.2363 -0.9641
  504MOL0     H68032   1.704   5.112   7.249 -1.9675 -1.9615  1.8118
  504MOL0     H68033   1.593   5.227   7.166  4.1970  0.5266 -2.1119
  504MOL0     H68034   1.513   4.976   7.184  1.4874 -0.2683  1.0566
  504MOL0     H68035   1.516   4.990   7.361 -2.9107 -0.6826 -0.9521
  504MOL0     H68036   1.173   5.236   7.265  1.7982  2.1443  1.1978
  504MOL0     H68037   1.847   5.581   7.371 -0.7611 -2.2068 -3.7229
  504MOL0     H68038   2.047   5.824   7.351  2.9891 -5.5961 -2.9194
  504MOL0     H68039   1.937   5.792   7.478 -0.2968 -0.8763  0.0465
  504MOL0     H68040   2.110   5.810   7.517  0.5643 -1.1511  0.3362
  505MOL0     O68041   6.266  10.930   2.102  0.3249  0.3164 -0.7426
  505MOL0     C68042   6.202  10.842   2.051  0.4344  0.2849  0.7246
  505MOL0     O68043   6.234  10.712   2.049  0.1386  0.4304  0.1938
  505MOL0     C68044   6.349  10.674   2.093 -0.5289  0.1910 -0.1683
  505MOL0     C68045   6.414  10.695   2.211 -0.2818 -1.1141 -0.3496
  505MOL0     C68046   6.545  10.660   2.241  1.2144 -0.1366  0.4434
  505MOL0     C68047   6.612  10.585   2.147 -0.1014 -0.1584 -0.0154
  505MOL0     O68048   6.743  10.558   2.179 -0.4700 -0.1197 -0.3905
  505MOL0     C68049   6.747  10.415   2.213 -0.2125  0.0182 -0.1826
  505MOL0     C68050   6.885  10.373   2.266 -0.3818 -0.2174 -0.4139
  505MOL0     C68051   6.987  10.349   2.162  0.3904 -0.1159  0.7485
  505MOL0     C68052   7.118  10.335   2.231  0.5153 -0.0814  0.0833
  505MOL0     C68053   7.227  10.295   2.134  0.2070  0.2021 -0.4656
  505MOL0     C68054   7.368  10.328   2.195 -0.7850  0.8629  0.1498
  505MOL0     C68055   7.390  10.478   2.227 -0.1334 -0.7229  0.3878
  505MOL0     C68056   7.343  10.577   2.123  0.2308  0.0427  0.5769
  505MOL0     N68057   7.425  10.577   2.002  0.2349  0.5952 -0.6759
  505MOL0     C68058   7.550  10.625   2.007  0.1006 -0.3897  0.8527
  505MOL0     C68059   7.596  10.593   1.887  0.1059  0.1080  1.1335
  505MOL0     C68060   7.735  10.617   1.829 -0.4538 -0.5255  0.0236
  505MOL0     C68061   7.728  10.659   1.684  0.5623 -0.3289  0.4533
  505MOL0     C68062   7.860  10.736   1.649 -0.0866  0.1100 -1.1849
  505MOL0     C68063   7.982  10.636   1.643 -0.1733 -0.0166 -0.8680
  505MOL0     O68064   8.064  10.646   1.759  0.0615  0.0731  0.6630
  505MOL0     C68065   8.188  10.572   1.764 -0.8024  0.2261 -0.2939
  505MOL0     C68066   8.278  10.602   1.872 -0.9783  0.1170  0.3213
  505MOL0     C68067   8.408  10.550   1.872  0.3935 -0.0947  0.6668
  505MOL0     C68068   8.441  10.440   1.780 -0.7743  0.0003 -0.0434
  505MOL0     C68069   8.574  10.370   1.789 -0.4957 -0.1270  0.1890
  505MOL0     O68070   8.670  10.428   1.865  0.5812  0.2051 -0.2638
  505MOL0     C68071   8.791  10.359   1.893 -0.0473 -0.6084  0.1124
  505MOL0     C68072   8.842  10.357   2.016  0.7090  0.3976 -0.2950
  505MOL0     C68073   8.966  10.298   2.044  0.0116  0.3964 -0.8120
  505MOL0     C68074   9.051  10.236   1.947  0.6386  0.0510  0.1292
  505MOL0     O68075   9.177  10.195   1.981 -0.6004  0.1810  0.0663
  505MOL0     C68076   9.271  10.145   1.884  0.6678 -0.2104  0.1211
  505MOL0     C68077   9.388  10.100   1.973  0.3830 -0.1832 -0.2628
  505MOL0     C68078   9.442  10.233   2.048 -0.0761  0.3601  0.0471
  505MOL0     C68079   9.583  10.209   2.109 -0.0486 -0.5882  0.0965
  505MOL0     C68080   9.692  10.193   2.005 -0.5157  0.1087 -1.0667
  505MOL0     C68081   9.820  10.178   2.087  0.0409 -0.5189  0.0935
  505MOL0     C68082   9.942  10.157   1.991  0.7530 -0.0373 -0.4169
  505MOL0     C68083  10.076  10.168   2.076  0.9668 -0.4266  0.6646
  505MOL0    Cl68084  10.213  10.086   1.987  0.0872 -0.2334  0.3023
  505MOL0     C68085   8.992  10.221   1.818 -0.2172 -0.8531  0.1356
  505MOL0     C68086   8.868  10.290   1.790 -0.6894  0.5181 -0.8384
  505MOL0     O68087   8.586  10.261   1.732 -0.1788  0.2220  1.2156
  505MOL0     C68088   8.343  10.403   1.685 -0.1485  0.1169 -0.7939
  505MOL0     C68089   8.224  10.471   1.675 -0.3837  0.3789  1.1284
  505MOL0     N68090   7.497  10.543   1.804 -0.2650  0.5433 -0.2103
  505MOL0     N68091   7.394  10.523   1.879  0.3503 -0.2483 -0.2145
  505MOL0     C68092   6.547  10.546   2.026 -0.1902  0.5343  0.6033
  505MOL0     C68093   6.422  10.599   2.002  0.8151 -0.0489  0.0639
  505MOL0     C68094   6.079  10.884   1.982 -0.9685 -0.6202 -0.1411
  505MOL0     C68095   6.094  10.971   1.879 -0.5833  0.8596 -0.7642
  505MOL0     C68096   5.990  11.032   1.817  0.3197  0.2097  0.7814
  505MOL0     C68097   5.857  10.996   1.844 -0.5832  0.0827  0.4928
  505MOL0     O68098   5.757  11.072   1.782 -0.5347  0.1143 -0.2342
  505MOL0     C68099   5.630  11.011   1.754  0.1376 -0.3276  0.1741
  505MOL0     C68100   5.645  10.887   1.675  0.2488 -0.1746  0.0546
  505MOL0     C68101   5.583  10.894   1.539  0.4484 -0.6376  0.6671
  505MOL0     C68102   5.426  10.862   1.544  0.5136 -0.9805 -0.0209
  505MOL0     C68103   5.362  10.920   1.656  0.7317  1.0766 -0.7301
  505MOL0     C68104   5.294  10.954   1.745  0.3858  0.6760 -0.0624
  505MOL0     C68105   5.843  10.888   1.931  0.3560  0.4112  0.8213
  505MOL0     C68106   5.955  10.825   2.003 -0.0216  0.4105  0.2020
  505MOL0     C68107   5.926  10.712   2.097  0.5349 -0.8250  0.1947
  505MOL0     H68108   6.361  10.738   2.295 -0.3471 -1.1573 -0.3685
  505MOL0     H68109   6.579  10.687   2.341  0.1210  1.6199  0.3886
  505MOL0     H68110   6.671  10.392   2.287 -1.3873  2.5221 -0.4869
  505MOL0     H68111   6.723  10.360   2.121 -1.1803 -2.1657  1.2922
  505MOL0     H68112   6.870  10.288   2.333 -0.9867 -0.7976 -1.2612
  505MOL0     H68113   6.929  10.444   2.337  2.3746 -3.0913  0.9856
  505MOL0     H68114   6.975  10.432   2.093  0.9025  1.2452  2.2348
  505MOL0     H68115   6.959  10.251   2.122 -0.9208 -0.4126  2.2554
  505MOL0     H68116   7.144  10.426   2.286  3.8662 -0.4009 -0.7535
  505MOL0     H68117   7.104  10.268   2.316  0.0154  0.6336  0.5711
  505MOL0     H68118   7.203  10.188   2.125 -0.5384  0.0860  2.1944
  505MOL0     H68119   7.218  10.336   2.033  1.9781  0.6598 -0.4636
  505MOL0     H68120   7.375  10.278   2.292  0.6092  1.3481  0.3197
  505MOL0     H68121   7.445  10.283   2.132 -1.9594 -2.5626  0.9331
  505MOL0     H68122   7.494  10.498   2.255  0.4305  1.8917 -2.8645
  505MOL0     H68123   7.325  10.501   2.312  0.0441  1.0267  0.1002
  505MOL0     H68124   7.240  10.549   2.096  0.6418 -0.1501 -0.8717
  505MOL0     H68125   7.336  10.677   2.167  1.2211 -0.3792  1.7408
  505MOL0     H68126   7.607  10.663   2.092  3.3270 -1.0427 -0.8443
  505MOL0     H68127   7.791  10.695   1.882  0.2278 -1.7652  1.2129
  505MOL0     H68128   7.798  10.530   1.852 -1.2583 -0.8322  1.1678
  505MOL0     H68129   7.729  10.566   1.625 -1.9358  1.4088 -2.6910
  505MOL0     H68130   7.641  10.719   1.656  1.3533 -1.1604 -4.8901
  505MOL0     H68131   7.867  10.814   1.725  0.9714 -3.1501  2.3877
  505MOL0     H68132   7.855  10.780   1.549  1.2693 -1.3719 -1.9488
  505MOL0     H68133   8.047  10.639   1.555  1.5928 -2.0214  0.2841
  505MOL0     H68134   7.949  10.532   1.646 -1.9817  0.5490  0.6636
  505MOL0     H68135   8.254  10.675   1.948 -2.2462  0.0792 -0.0235
  505MOL0     H68136   8.479  10.585   1.948  2.3090 -3.0019  0.3572
  505MOL0     H68137   8.790  10.413   2.093  0.2330  2.0142 -1.7239
  505MOL0     H68138   9.010  10.305   2.143 -0.9569  3.3712 -0.4876
  505MOL0     H68139   9.238  10.057   1.827 -0.1970 -0.5369  1.0865
  505MOL0     H68140   9.293  10.225   1.814 -4.9354  1.2646 -0.4884
  505MOL0     H68141   9.348  10.031   2.047 -1.7220 -0.0717 -1.2251
  505MOL0     H68142   9.463  10.055   1.908  3.1348  0.7944  2.0390
  505MOL0     H68143   9.455  10.312   1.974 -0.3440 -0.9801 -1.4799
  505MOL0     H68144   9.375  10.270   2.125 -1.6595  2.2035 -2.0915
  505MOL0     H68145   9.585  10.114   2.163  1.1334 -1.5602 -1.5808
  505MOL0     H68146   9.599  10.299   2.170  0.3205 -1.8140  1.8681
  505MOL0     H68147   9.709  10.281   1.942 -0.7895  1.1904  0.3259
  505MOL0     H68148   9.669  10.105   1.944 -1.5498 -0.3885 -0.0102
  505MOL0     H68149   9.849  10.276   2.127  0.4600  0.5765 -2.7103
  505MOL0     H68150   9.814  10.104   2.168  1.8187  0.2624  1.0224
  505MOL0     H68151   9.952  10.212   1.897 -0.4782 -0.5646 -0.8862
  505MOL0     H68152   9.931  10.053   1.958  2.1830 -0.7370  1.1279
  505MOL0     H68153  10.091  10.271   2.108 -0.4878 -1.0418  3.6557
  505MOL0     H68154  10.058  10.116   2.170 -0.9357  0.2354  0.7127
  505MOL0     H68155   9.037  10.176   1.730  0.1501  1.0416 -0.7012
  505MOL0     H68156   8.827  10.320   1.694 -0.2365  2.0434 -0.5846
  505MOL0     H68157   8.357  10.326   1.609 -0.8768 -0.9412  0.1052
  505MOL0     H68158   8.153  10.437   1.600 -0.0853  2.3221 -0.1298
  505MOL0     H68159   6.609  10.506   1.947 -0.5156  0.6978  0.2579
  505MOL0     H68160   6.367  10.591   1.909 -0.6725 -0.1333  0.9071
  505MOL0     H68161   6.196  10.997   1.852  0.3715 -3.5292 -2.1907
  505MOL0     H68162   6.004  11.094   1.729 -1.0195 -2.9594 -1.8681
  505MOL0     H68163   5.570  11.091   1.711  0.4451 -0.2082 -0.0347
  505MOL0     H68164   5.583  10.990   1.851 -0.8315 -0.1207 -0.2344
  505MOL0     H68165   5.606  10.801   1.730 -3.1664 -0.6004 -2.6684
  505MOL0     H68166   5.750  10.862   1.661 -0.0281 -1.8049  0.6350
  505MOL0     H68167   5.640  10.826   1.475 -0.7950 -1.7222  0.6761
  505MOL0     H68168   5.593  10.997   1.502 -1.1301 -0.9956 -0.9014
  505MOL0     H68169   5.363  10.899   1.463 -1.1594 -0.6164  1.3937
  505MOL0     H68170   5.409  10.755   1.558 -3.0670 -0.5754 -0.3224
  505MOL0     H68171   5.233  10.988   1.825 -1.6321 -0.3402 -1.0815
  505MOL0     H68172   5.752  10.830   1.948  1.5115 -2.1181 -0.9411
  505MOL0     H68173   5.822  10.691   2.124  0.7502 -3.6478 -0.9261
  505MOL0     H68174   5.952  10.617   2.051 -0.0411 -0.4727 -0.8855
  505MOL0     H68175   5.985  10.738   2.186 -0.0541  3.2680 -0.4062
  506MOL0     O68176   3.092   6.633   9.566 -0.0700 -0.3116 -0.5852
  506MOL0     C68177   3.056   6.596   9.452 -0.5967  0.1156  0.6909
  506MOL0     O68178   3.136   6.544   9.356 -0.5026 -0.7646 -0.2734
  506MOL0     C68179   3.274   6.549   9.357  0.0442  0.3776 -0.4500
  506MOL0     C68180   3.363   6.533   9.459 -0.9621  1.0721  0.9483
  506MOL0     C68181   3.505   6.543   9.439 -0.2616  0.6720  0.3544
  506MOL0     C68182   3.556   6.570   9.309  0.0871 -0.2766 -0.5867
  506MOL0     O68183   3.690   6.601   9.301  0.5744 -0.6888 -0.1472
  506MOL0     C68184   3.763   6.548   9.193  0.7407  0.0480  0.6882
  506MOL0     C68185   3.870   6.442   9.229 -0.0293 -0.4513 -1.0320
  506MOL0     C68186   3.967   6.400   9.117  0.0873 -0.1709 -0.7106
  506MOL0     C68187   4.057   6.278   9.166 -0.1336 -0.0737  0.7951
  506MOL0     C68188   4.149   6.226   9.054 -0.9131 -0.1024 -0.1421
  506MOL0     C68189   4.214   6.088   9.103 -0.2800  1.1666 -0.3141
  506MOL0     C68190   4.333   6.036   9.016  0.0560 -0.2711  0.0668
  506MOL0     C68191   4.357   5.887   9.032  0.8658 -0.1173 -0.1159
  506MOL0     N68192   4.491   5.844   9.016 -0.7480 -0.1695  0.4342
  506MOL0     C68193   4.569   5.866   8.904 -0.4719  0.0993  0.4636
  506MOL0     C68194   4.691   5.809   8.935  1.0379 -0.2441  0.2556
  506MOL0     C68195   4.815   5.808   8.847  0.1270  0.0038  0.6852
  506MOL0     C68196   4.793   5.845   8.710 -0.0873  0.0805  0.4928
  506MOL0     C68197   4.786   5.994   8.674  0.0223  0.8162  0.1263
  506MOL0     C68198   4.909   6.072   8.719  0.2441  0.3164  0.0304
  506MOL0     O68199   5.028   6.025   8.660  0.0570  0.4073 -0.1209
  506MOL0     C68200   5.145   6.086   8.653 -0.3126 -0.4636 -1.2116
  506MOL0     C68201   5.161   6.223   8.684 -0.1507  0.2023 -0.8124
  506MOL0     C68202   5.285   6.291   8.684 -0.3849 -0.0109 -0.2805
  506MOL0     C68203   5.398   6.217   8.646  0.2574 -0.7905 -0.1447
  506MOL0     C68204   5.527   6.279   8.627 -0.1930 -0.1653 -0.4812
  506MOL0     O68205   5.639   6.200   8.621 -0.5730  0.8719  0.2279
  506MOL0     C68206   5.763   6.253   8.599 -0.0598 -0.6036  0.9848
  506MOL0     C68207   5.858   6.159   8.613  0.1066  0.3227 -0.2951
  506MOL0     C68208   5.991   6.199   8.600 -0.2030 -0.7810 -0.0458
  506MOL0     C68209   6.031   6.335   8.573  0.4394 -0.9730  0.6321
  506MOL0     O68210   6.157   6.387   8.541 -0.3595  0.0085  0.5907
  506MOL0     C68211   6.269   6.304   8.562 -0.0820  0.5414 -0.0946
  506MOL0     C68212   6.388   6.367   8.504 -0.0182  0.9968  0.2751
  506MOL0     C68213   6.518   6.275   8.511  0.1617 -0.1468  0.2330
  506MOL0     C68214   6.627   6.323   8.415 -0.3403  0.2858  0.1574
  506MOL0     C68215   6.755   6.244   8.413  0.0062  0.9823 -0.5132
  506MOL0     C68216   6.843   6.292   8.305 -0.7374 -0.6443 -0.1568
  506MOL0     C68217   6.985   6.243   8.334 -0.1471  0.3167 -0.2451
  506MOL0     C68218   7.073   6.249   8.207 -0.4888 -0.3590 -0.4211
  506MOL0    Cl68219   7.170   6.095   8.188 -0.4347  0.0724  0.0485
  506MOL0     C68220   5.926   6.421   8.538 -0.7445 -0.7820  0.1719
  506MOL0     C68221   5.797   6.381   8.548 -0.0274  0.1421  0.1245
  506MOL0     O68222   5.519   6.400   8.618 -0.3057 -0.2685 -0.4411
  506MOL0     C68223   5.380   6.078   8.625 -0.3800  0.4563  0.0367
  506MOL0     C68224   5.257   6.015   8.614  0.0082 -0.4391  0.2267
  506MOL0     N68225   4.688   5.759   9.063 -0.5380 -0.0907  0.4688
  506MOL0     N68226   4.572   5.791   9.109  0.3132 -0.4046  0.0613
  506MOL0     C68227   3.465   6.586   9.209 -0.3258  0.8045 -0.1437
  506MOL0     C68228   3.326   6.571   9.231  0.7638  0.5342 -0.1140
  506MOL0     C68229   2.913   6.616   9.413  0.3951 -0.2128  0.0961
  506MOL0     C68230   2.844   6.724   9.467 -0.1170 -0.5971  0.3860
  506MOL0     C68231   2.712   6.757   9.430 -0.0816  0.0938 -0.0266
  506MOL0     C68232   2.646   6.669   9.343 -0.0854  0.3547  0.1782
  506MOL0     O68233   2.515   6.702   9.296  0.4482  0.0500 -0.2633
  506MOL0     C68234   2.433   6.810   9.345 -0.1638 -0.9758  0.3478
  506MOL0     C68235   2.297   6.805   9.287  0.4844 -0.0051 -0.0059
  506MOL0     C68236   2.203   6.899   9.365 -0.5033  0.1402  0.0694
  506MOL0     C68237   2.056   6.863   9.349  0.7144 -0.2848 -0.4099
  506MOL0     C68238   1.991   6.949   9.251  0.8037 -0.0395 -0.4391
  506MOL0     C68239   1.959   7.030   9.169  0.2073  0.1059 -0.4812
  506MOL0     C68240   2.711   6.550   9.295 -0.6411  0.2969 -0.0851
  506MOL0     C68241   2.846   6.525   9.330  0.1154  0.6323 -0.4740
  506MOL0     C68242   2.912   6.398   9.274  0.2791 -0.0383  0.6959
  506MOL0     H68243   3.327   6.488   9.551  0.0517 -2.2355 -0.1319
  506MOL0     H68244   3.574   6.519   9.519 -1.4553  1.4815  1.6735
  506MOL0     H68245   3.700   6.489   9.125  0.5336  1.4098 -0.3550
  506MOL0     H68246   3.805   6.627   9.130  1.6750 -0.7347  0.3084
  506MOL0     H68247   3.820   6.356   9.274  0.7517 -0.2853  0.2097
  506MOL0     H68248   3.933   6.479   9.311 -1.8678  0.4424  0.0477
  506MOL0     H68249   4.033   6.479   9.082 -0.3171  1.6142  2.2307
  506MOL0     H68250   3.906   6.360   9.036 -2.0690  0.6795  0.4065
  506MOL0     H68251   4.121   6.304   9.251 -0.1674 -0.7587  1.0316
  506MOL0     H68252   3.997   6.194   9.202  1.1605 -1.7412 -0.8464
  506MOL0     H68253   4.092   6.201   8.964 -0.3274  1.5386 -1.0023
  506MOL0     H68254   4.226   6.300   9.035  1.9401 -2.5500  1.0515
  506MOL0     H68255   4.247   6.093   9.207  2.6286 -1.1473 -1.0039
  506MOL0     H68256   4.138   6.009   9.108 -0.6805  1.6386  1.3875
  506MOL0     H68257   4.427   6.085   9.042  0.8980  0.5929 -3.8599
  506MOL0     H68258   4.322   6.057   8.909 -0.2195  2.6180  0.5778
  506MOL0     H68259   4.326   5.858   9.133 -0.6765 -0.8722 -0.7695
  506MOL0     H68260   4.297   5.834   8.957 -1.0628  1.0470  0.5495
  506MOL0     H68261   4.534   5.905   8.810 -2.3414  1.3830  1.6322
  506MOL0     H68262   4.884   5.876   8.897 -1.2227  2.4405 -0.6139
  506MOL0     H68263   4.853   5.706   8.857  2.3548  0.7394  0.3137
  506MOL0     H68264   4.863   5.790   8.646 -1.1036  1.1851 -1.6586
  506MOL0     H68265   4.694   5.805   8.685 -1.5879  3.8639 -0.3087
  506MOL0     H68266   4.697   6.041   8.716 -1.1798 -0.3596 -1.0312
  506MOL0     H68267   4.766   5.999   8.567 -1.0968 -1.1403  0.2033
  506MOL0     H68268   4.917   6.087   8.827  2.8796  1.2738 -0.2241
  506MOL0     H68269   4.893   6.174   8.683  1.0105  0.2978 -0.3706
  506MOL0     H68270   5.079   6.289   8.713 -1.5290 -1.0381 -1.7626
  506MOL0     H68271   5.284   6.400   8.688 -0.0861 -0.0311  0.6570
  506MOL0     H68272   5.828   6.060   8.646  0.1818 -0.6432 -2.8921
  506MOL0     H68273   6.067   6.123   8.614 -0.3362 -0.7352  0.9476
  506MOL0     H68274   6.284   6.310   8.670 -2.1214 -1.3249  0.3658
  506MOL0     H68275   6.237   6.207   8.523 -1.0864  1.3006 -1.2702
  506MOL0     H68276   6.362   6.400   8.403  1.7969  2.3965  0.2043
  506MOL0     H68277   6.417   6.462   8.549 -0.2500  0.7590  0.9301
  506MOL0     H68278   6.549   6.261   8.615  0.3470 -0.8665  0.0882
  506MOL0     H68279   6.488   6.173   8.485  1.5894 -1.0234  1.7677
  506MOL0     H68280   6.651   6.426   8.439 -0.4243  0.8769 -2.1051
  506MOL0     H68281   6.586   6.322   8.314  0.4299  0.6736 -0.1596
  506MOL0     H68282   6.726   6.141   8.395 -0.5005  0.8863  0.7389
  506MOL0     H68283   6.809   6.256   8.508 -0.3684  0.7525 -0.2703
  506MOL0     H68284   6.808   6.280   8.202  2.1567 -0.1497 -1.2863
  506MOL0     H68285   6.848   6.401   8.315  0.1177 -0.5457 -1.4791
  506MOL0     H68286   6.989   6.150   8.392 -2.1296  0.6663  0.5442
  506MOL0     H68287   7.022   6.310   8.413 -2.6587  0.3981  0.9678
  506MOL0     H68288   7.016   6.265   8.115  0.7570 -0.3985 -1.2204
  506MOL0     H68289   7.140   6.335   8.205 -2.2716  1.2339  2.1525
  506MOL0     H68290   5.950   6.520   8.499 -1.9950 -0.9019 -0.9627
  506MOL0     H68291   5.720   6.452   8.519  1.6465  1.3937 -1.4575
  506MOL0     H68292   5.467   6.019   8.597  1.8339  2.3418  2.4587
  506MOL0     H68293   5.259   5.912   8.579  0.8606  0.1174 -1.4376
  506MOL0     H68294   3.498   6.619   9.112 -1.7151  1.1364 -0.5306
  506MOL0     H68295   3.256   6.591   9.151  0.0510 -1.6475 -0.0842
  506MOL0     H68296   2.899   6.780   9.542  0.7813 -0.5311 -0.3047
  506MOL0     H68297   2.659   6.840   9.475 -1.0696 -1.3905  1.7073
  506MOL0     H68298   2.477   6.904   9.311 -3.6650 -0.3544 -3.2642
  506MOL0     H68299   2.433   6.792   9.453 -2.1975 -0.9464  0.3846
  506MOL0     H68300   2.265   6.701   9.300  3.3919 -0.8147  1.7342
  506MOL0     H68301   2.297   6.836   9.182 -1.5076 -1.9413 -0.6319
  506MOL0     H68302   2.216   7.006   9.346 -0.6764  0.0883 -0.3489
  506MOL0     H68303   2.223   6.869   9.469 -2.6183  0.8524  0.7485
  506MOL0     H68304   2.046   6.756   9.326  0.2716  0.1727 -2.6454
  506MOL0     H68305   2.001   6.884   9.441  0.5572  0.3421 -0.6425
  506MOL0     H68306   1.923   7.103   9.099  0.3817 -1.2534 -2.0371
  506MOL0     H68307   2.649   6.485   9.236 -1.0435  0.2820  0.3494
  506MOL0     H68308   2.989   6.425   9.201 -1.5358 -0.3606 -1.4402
  506MOL0     H68309   2.956   6.329   9.347  1.8233 -3.5205 -3.0903
  506MOL0     H68310   2.838   6.351   9.208  0.9102 -0.6848  0.4337
  507MOL0     O68311   3.912   6.567   5.406  0.3070  0.1575 -0.0295
  507MOL0     C68312   3.866   6.470   5.474  0.2730 -0.3386 -1.0057
  507MOL0     O68313   3.907   6.346   5.465  0.0869  0.2597 -0.3641
  507MOL0     C68314   4.002   6.314   5.369  0.3899  0.2900 -0.0107
  507MOL0     C68315   3.972   6.230   5.263 -0.1667  0.3060  0.4622
  507MOL0     C68316   4.061   6.210   5.159 -0.2086  0.0218 -0.9212
  507MOL0     C68317   4.186   6.263   5.168 -0.4583 -0.1411  0.1920
  507MOL0     O68318   4.273   6.212   5.067  0.9328  0.4888 -0.1716
  507MOL0     C68319   4.416   6.249   5.068  0.7609  0.2478 -0.0109
  507MOL0     C68320   4.488   6.158   4.975  0.3725  0.2968 -0.2407
  507MOL0     C68321   4.641   6.174   4.973 -0.4418 -0.6862  0.6120
  507MOL0     C68322   4.713   6.087   4.864 -0.0984  0.6578 -0.1824
  507MOL0     C68323   4.867   6.122   4.868  0.4024 -0.2700 -0.0394
  507MOL0     C68324   4.968   6.055   4.778  0.8618 -0.1251 -0.1686
  507MOL0     C68325   5.107   6.134   4.788  0.1572 -0.1705  0.4663
  507MOL0     C68326   5.178   6.119   4.927  1.1151 -0.1679 -0.2836
  507MOL0     N68327   5.320   6.153   4.926 -0.0561 -0.8395  0.9008
  507MOL0     C68328   5.414   6.082   4.988 -0.3651  0.7051 -0.1080
  507MOL0     C68329   5.528   6.156   4.982 -1.1676 -0.2775  0.1742
  507MOL0     C68330   5.657   6.128   5.052  0.2017  0.0010  0.0163
  507MOL0     C68331   5.782   6.201   5.011  0.2786  0.3801 -0.2282
  507MOL0     C68332   5.911   6.143   5.073  0.8926 -0.2876  0.3536
  507MOL0     C68333   5.945   6.008   5.012  0.3419 -0.1673 -0.2187
  507MOL0     O68334   5.993   5.907   5.105  0.4039 -0.0708  0.0202
  507MOL0     C68335   6.130   5.899   5.112 -0.2306  0.8203 -0.0315
  507MOL0     C68336   6.190   5.789   5.047  0.6363 -0.3788  0.6735
  507MOL0     C68337   6.328   5.769   5.060 -0.3130  1.0293  0.5946
  507MOL0     C68338   6.404   5.857   5.136  0.2540 -0.0521 -0.7704
  507MOL0     C68339   6.558   5.848   5.145  0.1794  0.6614 -0.6548
  507MOL0     O68340   6.617   5.931   5.239 -0.3122 -0.0637  1.2823
  507MOL0     C68341   6.755   5.947   5.258 -0.2904  0.7565  0.6980
  507MOL0     C68342   6.848   5.899   5.173 -0.3817 -0.1575  0.9320
  507MOL0     C68343   6.980   5.889   5.217 -0.1869 -0.1103 -0.3311
  507MOL0     C68344   7.028   5.946   5.336 -0.3365 -0.1987 -0.3800
  507MOL0     O68345   7.164   5.943   5.360  0.2786 -0.6776  0.0283
  507MOL0     C68346   7.215   6.032   5.467 -0.3567 -0.1805 -0.1067
  507MOL0     C68347   7.374   6.059   5.487 -0.1753 -0.5107  0.1580
  507MOL0     C68348   7.441   5.924   5.449 -0.4325 -0.2632  0.3093
  507MOL0     C68349   7.578   5.917   5.523  0.1373 -0.2801 -0.0188
  507MOL0     C68350   7.582   5.915   5.683  0.6136 -0.6411 -0.9889
  507MOL0     C68351   7.737   5.900   5.719  0.9997  0.2371 -0.7168
  507MOL0     C68352   7.760   5.886   5.872  0.1752  0.2877  0.0441
  507MOL0     C68353   7.745   6.024   5.944  0.0909 -0.9074 -0.4630
  507MOL0    Cl68354   7.786   6.011   6.118  0.3123 -0.1967  0.2396
  507MOL0     C68355   6.931   6.013   5.416  0.7050 -0.2796  0.1718
  507MOL0     C68356   6.801   6.005   5.372  0.4024  0.0294  0.6843
  507MOL0     O68357   6.615   5.762   5.080  0.0410  0.3529 -0.1174
  507MOL0     C68358   6.348   5.966   5.199 -0.1423  0.1599  0.2725
  507MOL0     C68359   6.206   5.982   5.187  0.8727 -0.7317  0.8235
  507MOL0     N68360   5.496   6.265   4.896  0.2148  0.9040 -1.4075
  507MOL0     N68361   5.370   6.261   4.859  0.4596  0.6832  0.0984
  507MOL0     C68362   4.216   6.354   5.270 -1.3082 -0.7285  0.8013
  507MOL0     C68363   4.128   6.377   5.376  0.4744 -0.3347 -0.6444
  507MOL0     C68364   3.756   6.495   5.571 -0.0111  0.3621  0.3308
  507MOL0     C68365   3.757   6.613   5.647 -0.2227 -0.5159 -0.1761
  507MOL0     C68366   3.648   6.648   5.729 -0.9169 -0.3359 -0.5346
  507MOL0     C68367   3.534   6.573   5.735 -0.0529 -0.2810 -0.3310
  507MOL0     O68368   3.432   6.613   5.813  0.0164  0.8658 -0.3033
  507MOL0     C68369   3.337   6.511   5.853 -1.0684  0.1591 -0.4822
  507MOL0     C68370   3.248   6.580   5.959  0.4403 -1.5512 -0.2611
  507MOL0     C68371   3.119   6.511   5.960  0.0170 -0.5762  0.5046
  507MOL0     C68372   3.015   6.594   6.042  0.1523 -0.0119  0.5627
  507MOL0     C68373   2.960   6.704   5.954 -0.0085  0.4224 -0.1529
  507MOL0     C68374   2.892   6.772   5.877 -0.5541 -0.3990 -0.0055
  507MOL0     C68375   3.531   6.455   5.652 -0.1195 -0.6023 -0.4286
  507MOL0     C68376   3.637   6.409   5.582 -0.0348 -0.1728 -0.0184
  507MOL0     C68377   3.615   6.286   5.487  0.3785  0.1217 -0.2019
  507MOL0     H68378   3.873   6.189   5.275  0.5131 -1.4181  0.4810
  507MOL0     H68379   4.050   6.130   5.086  2.4903 -1.3757  0.0743
  507MOL0     H68380   4.435   6.356   5.054 -0.1319  0.4127 -0.0440
  507MOL0     H68381   4.446   6.217   5.169 -0.4050  0.0438  0.2863
  507MOL0     H68382   4.444   6.186   4.879  0.4949 -1.7399 -0.9455
  507MOL0     H68383   4.459   6.053   4.989 -1.0384  0.6752 -0.1676
  507MOL0     H68384   4.682   6.138   5.068  1.9278 -2.1965 -0.8833
  507MOL0     H68385   4.667   6.278   4.954 -0.8521 -0.2382  2.2936
  507MOL0     H68386   4.683   5.983   4.879 -1.4715  0.7691 -1.7320
  507MOL0     H68387   4.680   6.118   4.764  1.7978  1.7381 -0.5213
  507MOL0     H68388   4.859   6.228   4.842  0.6428 -0.2909 -0.2025
  507MOL0     H68389   4.909   6.098   4.966  2.5415 -1.5455 -1.2146
  507MOL0     H68390   4.983   5.951   4.810 -0.2260 -0.3216 -0.2763
  507MOL0     H68391   4.937   6.047   4.674  2.2252 -4.3756 -0.4137
  507MOL0     H68392   5.098   6.239   4.760 -2.0400  0.0058  1.5700
  507MOL0     H68393   5.179   6.080   4.726  0.5978  0.8244  0.1044
  507MOL0     H68394   5.135   6.179   5.008  1.3522  1.6428 -1.4527
  507MOL0     H68395   5.161   6.015   4.958 -0.5992 -0.4482 -1.9619
  507MOL0     H68396   5.395   5.998   5.055  1.8061  0.4087  0.2002
  507MOL0     H68397   5.640   6.144   5.159 -1.3732 -1.4318  0.0233
  507MOL0     H68398   5.668   6.022   5.024 -1.2954  0.0209 -0.6922
  507MOL0     H68399   5.790   6.210   4.902  0.4375 -0.3157 -0.2785
  507MOL0     H68400   5.763   6.306   5.036 -0.3333  0.0596  0.7090
  507MOL0     H68401   5.893   6.123   5.178  3.2649 -1.0945  0.6632
  507MOL0     H68402   5.993   6.211   5.048  0.6042 -0.4415 -1.1467
  507MOL0     H68403   6.022   6.024   4.936 -2.4841 -0.6696 -3.4404
  507MOL0     H68404   5.864   5.963   4.954 -0.3323  3.4064 -2.2758
  507MOL0     H68405   6.137   5.716   4.987 -1.1476  0.9193  0.5869
  507MOL0     H68406   6.364   5.682   5.006 -0.7924  0.8180  0.6113
  507MOL0     H68407   6.838   5.870   5.069  2.5807  0.2656  0.4531
  507MOL0     H68408   7.055   5.854   5.147  1.5863  3.2317 -0.2981
  507MOL0     H68409   7.181   6.135   5.452 -0.5161 -0.0903  0.7925
  507MOL0     H68410   7.178   5.990   5.561  0.6131  0.3759  0.5380
  507MOL0     H68411   7.407   6.151   5.438  2.5661 -0.5588  1.7240
  507MOL0     H68412   7.387   6.070   5.595  1.8713  0.3612 -0.1461
  507MOL0     H68413   7.384   5.845   5.500 -1.6358  0.5096  0.2011
  507MOL0     H68414   7.452   5.907   5.342 -0.1003 -0.8609  0.4289
  507MOL0     H68415   7.639   5.998   5.484 -1.7654  0.9236 -0.6333
  507MOL0     H68416   7.629   5.827   5.486  1.7714  0.8191 -0.5168
  507MOL0     H68417   7.524   5.829   5.716  1.4903 -0.9457 -0.2200
  507MOL0     H68418   7.546   6.003   5.738  3.0011  0.1050 -0.4801
  507MOL0     H68419   7.775   5.803   5.684  1.5387  0.2396 -0.1574
  507MOL0     H68420   7.798   5.980   5.678  1.3951 -0.2330 -1.0449
  507MOL0     H68421   7.858   5.844   5.899  0.6177  2.0972  1.5111
  507MOL0     H68422   7.687   5.812   5.905 -0.2118 -0.3733 -2.1741
  507MOL0     H68423   7.824   6.091   5.909  0.9171 -2.1372 -0.9811
  507MOL0     H68424   7.647   6.074   5.938  1.5301  2.9190  2.8440
  507MOL0     H68425   6.964   6.067   5.504  2.8554  0.0176 -0.7495
  507MOL0     H68426   6.730   6.041   5.446 -0.8446 -1.4059  0.2413
  507MOL0     H68427   6.403   6.039   5.257 -1.0198  0.8512  0.2638
  507MOL0     H68428   6.154   6.058   5.244  1.4137 -0.9616  1.6475
  507MOL0     H68429   4.317   6.393   5.262 -0.4862 -1.9916  3.6166
  507MOL0     H68430   4.155   6.451   5.451  0.9914 -0.2937 -0.8727
  507MOL0     H68431   3.838   6.685   5.654 -1.8413  1.5128 -0.9615
  507MOL0     H68432   3.668   6.742   5.780 -0.5205 -0.8760  0.3329
  507MOL0     H68433   3.395   6.437   5.910 -0.7510  1.9944  1.7404
  507MOL0     H68434   3.288   6.454   5.774  1.7772 -4.4302  0.6750
  507MOL0     H68435   3.227   6.684   5.930 -0.9229 -0.5596  3.6863
  507MOL0     H68436   3.292   6.578   6.059  1.6031 -0.5551 -0.7171
  507MOL0     H68437   3.122   6.411   6.005  0.1081  0.4104  2.8364
  507MOL0     H68438   3.084   6.497   5.858 -2.0840  1.9726  0.7736
  507MOL0     H68439   2.934   6.523   6.064  1.0375 -0.8170  1.2921
  507MOL0     H68440   3.046   6.651   6.130  1.6157 -1.2492  0.8905
  507MOL0     H68441   2.834   6.837   5.815 -1.8806 -1.1811  0.3851
  507MOL0     H68442   3.439   6.396   5.656 -2.1696  2.3938  0.6167
  507MOL0     H68443   3.652   6.293   5.384  1.9314 -2.2338  0.1205
  507MOL0     H68444   3.668   6.203   5.534 -2.5010 -0.8813  1.5574
  507MOL0     H68445   3.507   6.269   5.497  0.6132 -1.5935 -0.2423
  508MOL0     O68446   4.785   6.002   5.250 -0.0900  0.0193  0.6203
  508MOL0     C68447   4.771   5.973   5.369 -0.0552 -0.5859  0.1099
  508MOL0     O68448   4.859   5.918   5.444 -0.1358  0.2751  0.0553
  508MOL0     C68449   4.983   5.892   5.386 -0.0477 -0.3517 -0.4541
  508MOL0     C68450   5.082   5.991   5.352  0.0417 -0.9937 -0.2142
  508MOL0     C68451   5.204   5.950   5.290 -0.2073  0.0295  0.2138
  508MOL0     C68452   5.231   5.816   5.262  0.8000 -0.8786  0.2883
  508MOL0     O68453   5.338   5.782   5.183 -0.8343 -0.8747 -0.2128
  508MOL0     C68454   5.392   5.649   5.223 -0.3959 -0.7232  0.4422
  508MOL0     C68455   5.547   5.652   5.218 -0.2078 -0.4912 -0.4290
  508MOL0     C68456   5.613   5.661   5.361  0.2088 -0.3521  0.2364
  508MOL0     C68457   5.739   5.746   5.357  0.1908  0.1001  0.2192
  508MOL0     C68458   5.841   5.711   5.456 -0.7340  0.4017 -0.1717
  508MOL0     C68459   5.933   5.841   5.481  0.0437 -0.2067  0.1627
  508MOL0     C68460   6.069   5.795   5.540  0.1109 -1.1487 -0.5292
  508MOL0     C68461   6.145   5.683   5.479 -0.1522 -1.1024  0.2172
  508MOL0     N68462   6.277   5.688   5.536 -0.4390  0.6351  0.2645
  508MOL0     C68463   6.389   5.744   5.480  0.7100  0.0510  0.4085
  508MOL0     C68464   6.497   5.717   5.560  0.0957  0.5986  0.8044
  508MOL0     C68465   6.634   5.775   5.550  0.3166 -0.3442  0.5628
  508MOL0     C68466   6.728   5.702   5.643 -1.1381 -0.6698  0.1378
  508MOL0     C68467   6.860   5.784   5.648  0.3116 -0.7761 -0.5792
  508MOL0     C68468   6.936   5.740   5.767  0.0920 -0.2754  0.0276
  508MOL0     O68469   7.074   5.780   5.749  0.2398 -0.0027 -0.2603
  508MOL0     C68470   7.163   5.774   5.862 -0.6088 -0.6640  0.0348
  508MOL0     C68471   7.125   5.827   5.989 -0.2293  0.2033 -0.5005
  508MOL0     C68472   7.221   5.840   6.087  1.0063 -0.2570  0.3689
  508MOL0     C68473   7.349   5.787   6.063  0.2650  0.1506 -0.3451
  508MOL0     C68474   7.449   5.814   6.168  0.7557 -0.0971  0.2553
  508MOL0     O68475   7.413   5.816   6.294 -1.0133 -0.0286 -0.4590
  508MOL0     C68476   7.505   5.817   6.394  0.3518  0.0857 -0.0380
  508MOL0     C68477   7.498   5.907   6.493  0.5069 -0.8250 -0.1819
  508MOL0     C68478   7.597   5.915   6.591  0.1298  0.4365 -0.6824
  508MOL0     C68479   7.702   5.820   6.589  0.7126  0.1076  0.7549
  508MOL0     O68480   7.800   5.815   6.685  0.1549 -0.1962  0.1370
  508MOL0     C68481   7.802   5.908   6.791 -0.1738 -0.1061 -0.5179
  508MOL0     C68482   7.927   5.865   6.871 -0.0703 -0.0694 -0.2154
  508MOL0     C68483   7.945   5.943   6.993 -0.7908 -0.7126  0.8882
  508MOL0     C68484   8.065   5.887   7.075 -0.2762  0.1614  0.1581
  508MOL0     C68485   8.105   5.974   7.198  1.4703  0.5639  0.3817
  508MOL0     C68486   8.225   5.898   7.272  0.9715 -0.6703 -0.3105
  508MOL0     C68487   8.292   5.982   7.379 -0.3432 -0.0958  0.1653
  508MOL0     C68488   8.411   5.922   7.440 -1.1554 -0.1240 -0.0540
  508MOL0    Cl68489   8.549   5.931   7.329  0.1855 -0.0526  0.1494
  508MOL0     C68490   7.697   5.711   6.503 -0.8544  0.4253  0.2221
  508MOL0     C68491   7.600   5.710   6.407  0.3258  0.5560  0.5870
  508MOL0     O68492   7.565   5.830   6.134  0.1111 -0.1470  0.7212
  508MOL0     C68493   7.386   5.726   5.939 -0.1685  0.4436  0.1712
  508MOL0     C68494   7.295   5.722   5.838  0.2653 -0.1511 -0.6317
  508MOL0     N68495   6.447   5.639   5.662 -0.3657  0.7347 -0.4276
  508MOL0     N68496   6.320   5.618   5.643  0.1604 -0.8331  1.3474
  508MOL0     C68497   5.131   5.726   5.296  0.1864 -0.2650 -0.5935
  508MOL0     C68498   5.014   5.760   5.352 -0.5204  0.1517  0.2811
  508MOL0     C68499   4.644   6.019   5.440 -1.0300 -0.7550 -0.3940
  508MOL0     C68500   4.516   6.000   5.381  0.2064 -0.8257  0.3149
  508MOL0     C68501   4.401   6.014   5.465  1.0043  0.4264  0.1932
  508MOL0     C68502   4.404   6.053   5.595 -0.3274  0.0730  0.3788
  508MOL0     O68503   4.306   6.067   5.683  0.9376  0.1716 -0.1908
  508MOL0     C68504   4.168   6.051   5.641 -0.0503  0.1419 -0.2470
  508MOL0     C68505   4.080   6.073   5.763 -0.0919 -0.3820 -0.0589
  508MOL0     C68506   4.031   6.207   5.793  0.0710 -0.2257 -0.5293
  508MOL0     C68507   4.139   6.308   5.818 -0.5735 -0.9215 -0.2056
  508MOL0     C68508   4.081   6.442   5.845 -0.1457 -0.2147 -1.5895
  508MOL0     C68509   4.032   6.549   5.867 -0.0546 -0.2444 -0.1685
  508MOL0     C68510   4.534   6.090   5.633  1.1894  0.4003 -0.0782
  508MOL0     C68511   4.654   6.069   5.573  0.1085 -0.2380 -0.9257
  508MOL0     C68512   4.783   6.107   5.640 -0.3188  0.2527 -0.0943
  508MOL0     H68513   5.059   6.096   5.368 -0.8360 -1.2005 -0.0575
  508MOL0     H68514   5.283   6.022   5.270 -0.4004  0.4438  0.8944
  508MOL0     H68515   5.358   5.607   5.318  1.9683 -3.0108  0.3886
  508MOL0     H68516   5.359   5.587   5.140  0.9741  1.0832 -1.5763
  508MOL0     H68517   5.574   5.730   5.146 -2.2718  0.2719 -0.4370
  508MOL0     H68518   5.571   5.552   5.178 -5.1665 -1.9412 -0.4245
  508MOL0     H68519   5.645   5.558   5.384 -0.5256 -0.6365 -0.0157
  508MOL0     H68520   5.544   5.691   5.440  1.9265 -3.0251  2.9964
  508MOL0     H68521   5.785   5.749   5.258 -1.6211 -2.7181 -0.8430
  508MOL0     H68522   5.700   5.848   5.365 -1.7811 -0.6541  0.7949
  508MOL0     H68523   5.807   5.671   5.552  1.2002  0.4298  0.5714
  508MOL0     H68524   5.906   5.635   5.413 -1.3112  0.2586 -0.8117
  508MOL0     H68525   5.959   5.891   5.387  3.0875  1.0697  1.5324
  508MOL0     H68526   5.890   5.909   5.555  1.1934 -0.9886  1.6271
  508MOL0     H68527   6.076   5.778   5.648  2.9466 -1.6223 -0.6926
  508MOL0     H68528   6.136   5.880   5.521 -1.0600 -0.7744 -3.3925
  508MOL0     H68529   6.097   5.588   5.502 -1.7213 -0.5445 -0.6242
  508MOL0     H68530   6.135   5.696   5.371 -0.0124  0.0939  0.3291
  508MOL0     H68531   6.395   5.795   5.384  2.8245 -1.1073 -0.1239
  508MOL0     H68532   6.664   5.779   5.445 -1.4543  3.0552  0.0357
  508MOL0     H68533   6.624   5.880   5.579 -1.0011  1.1556 -4.4000
  508MOL0     H68534   6.680   5.696   5.742  0.4162 -0.3156  0.9495
  508MOL0     H68535   6.758   5.602   5.612  0.7050 -0.2012  0.2614
  508MOL0     H68536   6.831   5.889   5.649  1.6752 -0.3755 -0.9790
  508MOL0     H68537   6.925   5.773   5.561  3.8316  2.2609  1.4042
  508MOL0     H68538   6.931   5.632   5.779  1.6653 -0.3952 -0.1472
  508MOL0     H68539   6.892   5.791   5.853  2.4557 -1.3629  2.0011
  508MOL0     H68540   7.020   5.843   6.007 -0.5626 -1.2148 -1.0079
  508MOL0     H68541   7.206   5.904   6.173  0.4142 -0.0284  0.1016
  508MOL0     H68542   7.424   5.987   6.496  1.6133  0.1865  2.1178
  508MOL0     H68543   7.585   5.985   6.673  0.7498 -1.6797  1.3358
  508MOL0     H68544   7.801   6.011   6.754  2.0374  1.4624  3.2261
  508MOL0     H68545   7.707   5.898   6.846 -0.5667  2.3142 -0.6373
  508MOL0     H68546   7.918   5.759   6.897 -0.0773  0.0662  0.3329
  508MOL0     H68547   8.020   5.879   6.814  0.3225  1.2145  0.7103
  508MOL0     H68548   7.961   6.047   6.961 -1.4324 -0.9043 -0.0827
  508MOL0     H68549   7.850   5.931   7.047 -0.4697  0.3785  1.7425
  508MOL0     H68550   8.149   5.892   7.006  0.9729  0.0184  1.5995
  508MOL0     H68551   8.048   5.786   7.114 -1.0037  0.0169 -0.5205
  508MOL0     H68552   8.016   5.968   7.261 -1.7746  0.0824 -3.8496
  508MOL0     H68553   8.134   6.076   7.171 -0.7872  0.6439 -2.0708
  508MOL0     H68554   8.195   5.803   7.318  0.1332  0.5277  1.7868
  508MOL0     H68555   8.305   5.869   7.204  2.2726 -1.7911  1.6147
  508MOL0     H68556   8.219   6.018   7.452 -0.9354 -0.7943 -0.0599
  508MOL0     H68557   8.333   6.063   7.319 -1.1913  0.2159 -0.0156
  508MOL0     H68558   8.452   5.971   7.528 -3.7548  0.4987  0.8821
  508MOL0     H68559   8.387   5.817   7.458 -1.4559  0.2192  1.6158
  508MOL0     H68560   7.777   5.638   6.503  0.2933  1.5897  2.0745
  508MOL0     H68561   7.612   5.638   6.327  2.7145  1.9749 -0.4649
  508MOL0     H68562   7.483   5.680   5.923 -1.5860 -1.9633 -2.4771
  508MOL0     H68563   7.318   5.683   5.740  0.8978 -0.3915 -0.3898
  508MOL0     H68564   5.135   5.621   5.273  1.9134  0.2010 -2.7813
  508MOL0     H68565   4.936   5.692   5.385  0.6292 -1.1559  0.3923
  508MOL0     H68566   4.511   5.974   5.275 -1.0076 -2.5585  0.7521
  508MOL0     H68567   4.303   5.993   5.423  0.9361 -0.4493  0.7638
  508MOL0     H68568   4.154   5.948   5.606  0.6352 -0.9778  2.5341
  508MOL0     H68569   4.141   6.117   5.558 -0.4370 -1.6215 -1.5910
  508MOL0     H68570   4.134   6.027   5.846  2.6252 -1.6207 -2.3266
  508MOL0     H68571   3.984   6.022   5.750 -1.9254  2.7574  0.1460
  508MOL0     H68572   3.984   6.191   5.891 -0.2470 -0.2892 -0.6907
  508MOL0     H68573   3.965   6.234   5.710  0.6351  2.3989 -0.2213
  508MOL0     H68574   4.200   6.277   5.903 -1.1257  0.1900  0.6278
  508MOL0     H68575   4.195   6.325   5.726  1.1837  0.2883  1.0281
  508MOL0     H68576   3.990   6.647   5.880 -1.0167 -0.6276 -0.2955
  508MOL0     H68577   4.545   6.142   5.728  2.3575  0.1891 -0.0880
  508MOL0     H68578   4.838   6.025   5.687  0.6764  1.8536  1.6332
  508MOL0     H68579   4.851   6.155   5.568 -1.1411  0.5252 -0.7000
  508MOL0     H68580   4.765   6.173   5.725 -2.1970 -2.8531  2.1040
  509MOL0     O68581   4.969  10.543   2.780  0.4122 -0.0145 -0.6599
  509MOL0     C68582   4.949  10.583   2.665  0.1142  0.5247 -0.1457
  509MOL0     O68583   5.052  10.597   2.573  0.2580  0.7592 -0.2564
  509MOL0     C68584   5.180  10.545   2.587 -0.5043 -0.0992  0.9631
  509MOL0     C68585   5.263  10.562   2.706 -0.6685 -0.1787  0.2814
  509MOL0     C68586   5.380  10.490   2.720 -0.1528  0.1192  0.6798
  509MOL0     C68587   5.436  10.414   2.608  0.4213  0.0154 -0.4252
  509MOL0     O68588   5.549  10.345   2.631 -0.0885 -0.2552 -0.1913
  509MOL0     C68589   5.565  10.217   2.557 -0.9102 -0.7927 -0.2043
  509MOL0     C68590   5.668  10.125   2.632 -0.4490 -0.0519  0.7707
  509MOL0     C68591   5.811  10.181   2.604 -0.4660  0.0381 -0.3707
  509MOL0     C68592   5.919  10.125   2.693 -0.6402  0.1929 -0.3189
  509MOL0     C68593   6.050  10.161   2.634 -1.0275  0.9863 -0.8113
  509MOL0     C68594   6.162  10.115   2.723 -1.1233  0.1876  0.4683
  509MOL0     C68595   6.302  10.131   2.656 -0.4263  0.9126 -0.0881
  509MOL0     C68596   6.401  10.046   2.737 -0.7638  0.6188  0.0478
  509MOL0     N68597   6.547  10.063   2.697  0.1709 -0.4379 -0.5611
  509MOL0     C68598   6.641   9.965   2.694  0.0423 -0.5105 -0.2624
  509MOL0     C68599   6.754  10.031   2.649 -0.0489  0.1359  0.9161
  509MOL0     C68600   6.886   9.963   2.622 -0.2374 -0.0826  0.5095
  509MOL0     C68601   6.981  10.038   2.530  0.1298  0.3175  0.3505
  509MOL0     C68602   7.089   9.968   2.439 -0.1113  0.2850 -0.1217
  509MOL0     C68603   7.183   9.870   2.513 -0.1657  0.6181  0.5055
  509MOL0     O68604   7.293   9.856   2.417  0.3546  0.3106  0.1590
  509MOL0     C68605   7.413   9.874   2.484  0.3903  0.1863 -0.6681
  509MOL0     C68606   7.489   9.761   2.519 -0.0183  0.3323 -0.0725
  509MOL0     C68607   7.622   9.775   2.550 -0.1314 -0.2768 -0.7067
  509MOL0     C68608   7.673   9.905   2.570 -0.3615 -0.4660  0.3011
  509MOL0     C68609   7.806   9.931   2.619 -0.1384  0.2780  0.9492
  509MOL0     O68610   7.843  10.062   2.636  0.0288  0.5511 -0.3023
  509MOL0     C68611   7.978  10.086   2.663  0.2519 -0.5832 -0.0696
  509MOL0     C68612   8.035  10.049   2.784 -0.4905  0.6764  0.5317
  509MOL0     C68613   8.172  10.077   2.816 -0.4768  0.4483  0.5402
  509MOL0     C68614   8.251  10.144   2.727 -0.0977  0.8078 -0.6711
  509MOL0     O68615   8.381  10.174   2.765 -0.0343 -0.6021  0.2552
  509MOL0     C68616   8.468  10.245   2.675 -0.0583 -0.2992  0.5657
  509MOL0     C68617   8.607  10.280   2.738  1.0438 -0.2864  0.2697
  509MOL0     C68618   8.586  10.364   2.862 -0.3043 -0.0955 -0.0915
  509MOL0     C68619   8.715  10.374   2.945 -0.1236 -0.2180 -0.1182
  509MOL0     C68620   8.690  10.485   3.053 -0.1612  0.4065 -0.1046
  509MOL0     C68621   8.817  10.520   3.134  0.0846  0.9125 -0.1922
  509MOL0     C68622   8.864  10.407   3.228  0.7686  0.0936 -0.4614
  509MOL0     C68623   8.985  10.445   3.319 -0.4470  0.7225  0.0240
  509MOL0    Cl68624   9.129  10.497   3.212 -0.0052  0.0752  0.0516
  509MOL0     C68625   8.190  10.179   2.607  0.3159 -0.8279  0.2512
  509MOL0     C68626   8.057  10.145   2.571  0.1681  0.4047  0.5252
  509MOL0     O68627   7.875   9.834   2.635 -0.0992  0.2307 -0.4122
  509MOL0     C68628   7.591  10.024   2.546 -0.1784 -0.1656  0.0147
  509MOL0     C68629   7.457  10.004   2.501  0.0222 -0.0349 -0.8670
  509MOL0     N68630   6.730  10.164   2.631  0.3093 -0.0619 -0.2982
  509MOL0     N68631   6.602  10.181   2.647  0.3056  0.4896 -0.0777
  509MOL0     C68632   5.363  10.406   2.485 -0.5525 -0.7397 -0.3063
  509MOL0     C68633   5.238  10.470   2.478  0.4726 -0.5156 -0.0319
  509MOL0     C68634   4.815  10.621   2.623  0.3498 -0.4313  0.4520
  509MOL0     C68635   4.728  10.693   2.716  0.3436  0.4378 -0.0107
  509MOL0     C68636   4.601  10.728   2.672 -0.2110 -0.0112  0.0496
  509MOL0     C68637   4.541  10.698   2.551 -0.5683 -0.6671  0.0430
  509MOL0     O68638   4.414  10.726   2.507 -0.4827  0.5975  0.0534
  509MOL0     C68639   4.350  10.839   2.569  0.2180  0.3814  0.8452
  509MOL0     C68640   4.279  10.924   2.461 -0.4108  0.2799  0.0591
  509MOL0     C68641   4.378  10.970   2.353  0.2265  0.2095 -0.0285
  509MOL0     C68642   4.322  11.083   2.256 -0.7346 -1.0409 -0.3423
  509MOL0     C68643   4.408  11.096   2.141  0.2672  0.2865 -0.1372
  509MOL0     C68644   4.462  11.121   2.040 -0.0656 -0.7263  0.3681
  509MOL0     C68645   4.625  10.620   2.468  0.1388  0.0677  0.3519
  509MOL0     C68646   4.762  10.582   2.499  0.5845  0.3612 -0.2715
  509MOL0     C68647   4.847  10.502   2.400  0.2999  0.0505  0.2562
  509MOL0     H68648   5.230  10.622   2.790  0.6275 -0.2809  0.8819
  509MOL0     H68649   5.435  10.500   2.813  0.0840 -0.2617  0.5862
  509MOL0     H68650   5.468  10.168   2.548 -0.9022 -0.8361 -0.0657
  509MOL0     H68651   5.596  10.233   2.453 -6.5358 -1.5581 -2.3086
  509MOL0     H68652   5.671  10.027   2.584  2.5088  0.2349  0.1296
  509MOL0     H68653   5.663  10.116   2.741 -0.1794 -1.6714  0.6703
  509MOL0     H68654   5.802  10.286   2.634 -1.1184 -0.2119  0.3594
  509MOL0     H68655   5.838  10.167   2.499 -2.4143  0.2527 -0.9458
  509MOL0     H68656   5.911  10.155   2.798  3.0681 -0.4989  0.2809
  509MOL0     H68657   5.913  10.016   2.686 -0.6795 -0.0769  2.7845
  509MOL0     H68658   6.062  10.110   2.539  2.8049 -0.5331  0.2938
  509MOL0     H68659   6.055  10.271   2.631 -1.7707  1.1512  1.5867
  509MOL0     H68660   6.157  10.176   2.813  0.5121 -1.5709  1.8435
  509MOL0     H68661   6.146  10.010   2.748  0.8162  0.1401  1.7871
  509MOL0     H68662   6.332  10.236   2.662  1.1446  0.4098  2.9621
  509MOL0     H68663   6.296  10.090   2.555 -3.3959 -2.0088  1.0998
  509MOL0     H68664   6.399  10.076   2.843 -0.7003  2.6725 -0.4868
  509MOL0     H68665   6.371   9.942   2.725  0.9533 -0.1343  1.6236
  509MOL0     H68666   6.627   9.860   2.718  1.2876 -0.4658  0.7175
  509MOL0     H68667   6.940   9.949   2.716  0.2735 -2.6396 -0.0811
  509MOL0     H68668   6.876   9.862   2.580  1.8985  0.2578 -1.0095
  509MOL0     H68669   6.922  10.098   2.461 -0.5908 -0.4999  0.2491
  509MOL0     H68670   7.034  10.110   2.594 -0.7950  1.2016  0.1391
  509MOL0     H68671   7.159  10.042   2.396  0.8470 -0.1842  0.5874
  509MOL0     H68672   7.042   9.926   2.350 -4.5675  1.3560  1.4746
  509MOL0     H68673   7.126   9.777   2.529 -0.9863  1.3773  2.2490
  509MOL0     H68674   7.216   9.909   2.609 -3.0780  1.3366  1.3202
  509MOL0     H68675   7.441   9.664   2.512  0.9571 -0.0662 -2.1417
  509MOL0     H68676   7.687   9.689   2.556 -3.0976 -2.6737 -0.2649
  509MOL0     H68677   7.972   9.996   2.854  0.5294 -2.6817 -0.9009
  509MOL0     H68678   8.209  10.068   2.917 -0.5205 -1.4604  0.4274
  509MOL0     H68679   8.487  10.206   2.575 -1.7067  1.8759 -0.7026
  509MOL0     H68680   8.410  10.333   2.645 -0.2189 -1.0280 -1.3600
  509MOL0     H68681   8.661  10.186   2.752 -1.1054 -1.5054  0.7085
  509MOL0     H68682   8.671  10.336   2.669  0.3998  0.0213 -0.0789
  509MOL0     H68683   8.542  10.460   2.832 -0.2875  0.6310  2.0373
  509MOL0     H68684   8.515  10.314   2.927 -0.4367 -0.3502 -0.4308
  509MOL0     H68685   8.802  10.393   2.880 -1.1848 -3.0009 -2.5969
  509MOL0     H68686   8.744  10.280   2.994 -2.0151 -0.6106  0.3302
  509MOL0     H68687   8.613  10.442   3.118  1.2673  0.2158  1.5126
  509MOL0     H68688   8.652  10.579   3.011  1.8619  1.3513  0.1007
  509MOL0     H68689   8.896  10.550   3.065 -0.9779 -0.2449 -2.0028
  509MOL0     H68690   8.795  10.612   3.189 -1.0585  1.2661 -1.2077
  509MOL0     H68691   8.890  10.318   3.169 -3.1176 -2.5314  1.3670
  509MOL0     H68692   8.779  10.365   3.283  0.0868  0.0687 -1.5007
  509MOL0     H68693   8.951  10.515   3.396 -1.3335  1.6710 -1.1796
  509MOL0     H68694   9.015  10.360   3.381  1.6403 -0.0932 -1.9728
  509MOL0     H68695   8.252  10.236   2.538  0.1291  1.7886  2.0871
  509MOL0     H68696   8.033  10.181   2.471  0.6340 -0.5715  0.0464
  509MOL0     H68697   7.632  10.125   2.546 -2.3447  0.8050 -1.8421
  509MOL0     H68698   7.408  10.096   2.469  1.1307  0.5890 -0.8144
  509MOL0     H68699   5.382  10.337   2.403 -1.3479 -1.1381 -0.1664
  509MOL0     H68700   5.168  10.453   2.397  1.2697  0.8564 -1.0561
  509MOL0     H68701   4.771  10.712   2.814  3.4237  1.2789 -1.4032
  509MOL0     H68702   4.534  10.783   2.738  1.4057  0.7687  1.0880
  509MOL0     H68703   4.426  10.904   2.612  1.3080  0.8813 -1.6419
  509MOL0     H68704   4.277  10.807   2.644 -1.7584  1.8290 -0.3779
  509MOL0     H68705   4.242  11.010   2.519 -0.8116 -1.1349  2.0093
  509MOL0     H68706   4.191  10.879   2.415 -1.6704  1.7265  0.9501
  509MOL0     H68707   4.401  10.881   2.294  0.6084  0.6535 -0.5571
  509MOL0     H68708   4.471  10.993   2.405 -2.0564 -1.4616  5.5224
  509MOL0     H68709   4.227  11.058   2.208  0.1536 -1.7789 -1.8157
  509MOL0     H68710   4.321  11.175   2.315  0.2927 -0.9651 -0.4289
  509MOL0     H68711   4.507  11.137   1.944 -1.1402 -0.9647 -0.2043
  509MOL0     H68712   4.587  10.586   2.372 -1.0859 -0.1620  0.9135
  509MOL0     H68713   4.772  10.455   2.337  0.1328  0.9969 -0.2763
  509MOL0     H68714   4.918  10.569   2.349 -1.6632  1.6878 -0.4439
  509MOL0     H68715   4.906  10.417   2.436  0.6679  0.3844  0.4571
  510MOL0     O68716   2.279  10.500   7.769 -0.1935 -0.3542  0.1222
  510MOL0     C68717   2.213  10.423   7.713  0.6437  0.5580  0.9674
  510MOL0     O68718   2.253  10.312   7.651 -0.2983 -0.7383  0.3556
  510MOL0     C68719   2.385  10.263   7.662  0.2291  0.4848 -0.4912
  510MOL0     C68720   2.434  10.190   7.554  0.0230 -0.3959 -0.2266
  510MOL0     C68721   2.567  10.143   7.553  0.4632  0.7112 -0.1717
  510MOL0     C68722   2.648  10.163   7.662  0.1282 -0.1250 -1.2022
  510MOL0     O68723   2.777  10.115   7.655 -0.4440  0.0661  0.6058
  510MOL0     C68724   2.835  10.067   7.771 -0.3179  0.7598 -0.5591
  510MOL0     C68725   2.951   9.974   7.726 -0.0659  0.4434 -0.0956
  510MOL0     C68726   3.084  10.032   7.769 -0.1094  0.1231 -0.6888
  510MOL0     C68727   3.201   9.962   7.701 -0.3796  0.3131 -0.3047
  510MOL0     C68728   3.335  10.015   7.746  0.1649  0.5015  0.0361
  510MOL0     C68729   3.459   9.929   7.701  0.1764  1.1471 -0.8982
  510MOL0     C68730   3.587  10.011   7.731  0.4255  0.8998  0.2387
  510MOL0     C68731   3.703   9.913   7.719  1.1532 -0.5093  0.1385
  510MOL0     N68732   3.836   9.972   7.709 -0.1229 -0.0158 -0.5743
  510MOL0     C68733   3.880  10.093   7.762 -0.4150 -0.4920  0.8584
  510MOL0     C68734   4.013  10.087   7.759  0.0114  0.2305 -0.0906
  510MOL0     C68735   4.108  10.200   7.800  0.5494 -0.6833 -0.7201
  510MOL0     C68736   4.247  10.144   7.841  0.7868 -1.0904  0.2732
  510MOL0     C68737   4.341  10.248   7.895  0.6869 -0.3835 -0.4066
  510MOL0     C68738   4.398  10.349   7.798  0.2046 -0.8158  0.4170
  510MOL0     O68739   4.484  10.437   7.868  0.3674 -0.5960  0.3360
  510MOL0     C68740   4.615  10.406   7.885  0.1008 -0.6855 -0.2235
  510MOL0     C68741   4.696  10.308   7.819  0.5011  0.4921 -0.7546
  510MOL0     C68742   4.836  10.288   7.847 -0.5065 -1.0148  0.1084
  510MOL0     C68743   4.905  10.386   7.924  1.2470 -0.4873 -0.0429
  510MOL0     C68744   5.050  10.379   7.947 -0.3097  0.1324 -0.4807
  510MOL0     O68745   5.116  10.476   8.026  0.2850  0.2448  0.5189
  510MOL0     C68746   5.250  10.436   8.045  0.3207 -0.3318 -0.3398
  510MOL0     C68747   5.358  10.498   7.973  0.4396  0.1319 -0.1659
  510MOL0     C68748   5.489  10.457   8.003  0.5200 -0.1727 -0.3791
  510MOL0     C68749   5.515  10.372   8.115 -0.0768 -0.2788  0.8867
  510MOL0     O68750   5.642  10.351   8.158 -0.3218  0.4328 -0.5538
  510MOL0     C68751   5.671  10.235   8.243 -0.6382  0.6906  0.5443
  510MOL0     C68752   5.809  10.227   8.289 -0.5406  0.5880  0.3040
  510MOL0     C68753   5.869  10.361   8.318 -0.5492 -0.1875 -0.5761
  510MOL0     C68754   5.983  10.370   8.437 -0.7317  0.8434 -0.4686
  510MOL0     C68755   6.037  10.513   8.458  0.1407  0.8040  0.4958
  510MOL0     C68756   6.158  10.521   8.541 -0.0953 -0.4141 -0.1617
  510MOL0     C68757   6.138  10.483   8.693  0.0564  0.2798  0.1862
  510MOL0     C68758   6.023  10.575   8.742  0.0806 -0.4602 -0.3607
  510MOL0    Cl68759   5.858  10.515   8.741 -0.0423  0.0118  0.4136
  510MOL0     C68760   5.409  10.322   8.189  1.1156 -0.9125  0.4519
  510MOL0     C68761   5.277  10.353   8.153 -0.7344  0.1935 -0.9382
  510MOL0     O68762   5.105  10.283   7.885  0.6940 -0.8071 -0.4812
  510MOL0     C68763   4.826  10.492   7.984 -0.4208  0.4007 -0.2847
  510MOL0     C68764   4.685  10.500   7.969  0.5429 -1.0688 -0.1238
  510MOL0     N68765   4.046   9.953   7.726 -0.1817  0.0651  0.1552
  510MOL0     N68766   3.945   9.888   7.686 -0.1076 -0.0914 -1.2470
  510MOL0     C68767   2.590  10.225   7.776 -0.5639  0.3464  0.7673
  510MOL0     C68768   2.467  10.277   7.782  0.8517  0.6033 -0.8754
  510MOL0     C68769   2.066  10.454   7.705  0.5521  0.6686  0.1226
  510MOL0     C68770   1.987  10.374   7.621  0.8567 -0.4839 -0.6675
  510MOL0     C68771   1.857  10.400   7.601 -0.2545  0.0814  0.5962
  510MOL0     C68772   1.795  10.502   7.667 -0.6420  0.1351 -0.1175
  510MOL0     O68773   1.657  10.527   7.668 -0.6046 -0.6506  0.7364
  510MOL0     C68774   1.570  10.460   7.578  0.0166  0.3217 -0.2875
  510MOL0     C68775   1.441  10.540   7.577  0.0152  0.5514 -0.4217
  510MOL0     C68776   1.381  10.542   7.711  0.2173 -0.0344 -0.4701
  510MOL0     C68777   1.231  10.529   7.707 -0.3810 -0.9235 -0.3358
  510MOL0     C68778   1.170  10.652   7.654  0.1170 -0.3209 -0.1931
  510MOL0     C68779   1.139  10.758   7.611 -0.1079  0.0012  0.0901
  510MOL0     C68780   1.874  10.589   7.752 -0.2862  0.6037  0.1703
  510MOL0     C68781   2.007  10.562   7.783  0.4500 -0.9545 -0.1471
  510MOL0     C68782   2.078  10.656   7.877  0.5829 -0.5326 -0.1960
  510MOL0     H68783   2.373  10.180   7.465  2.1200 -2.7569 -1.5066
  510MOL0     H68784   2.617  10.078   7.482 -0.4000  0.5298 -0.6352
  510MOL0     H68785   2.872  10.151   7.832 -0.3909 -0.4355  1.2110
  510MOL0     H68786   2.765  10.005   7.827  0.8883 -0.6955 -0.6035
  510MOL0     H68787   2.954   9.933   7.624  0.4446 -1.8222  0.7662
  510MOL0     H68788   2.935   9.891   7.796 -5.5940  0.8324 -0.4287
  510MOL0     H68789   3.096  10.037   7.877  0.8612  1.2230 -0.8347
  510MOL0     H68790   3.091  10.129   7.718  1.5104 -0.8824 -2.5284
  510MOL0     H68791   3.205   9.856   7.725  3.1833  0.7464  1.7083
  510MOL0     H68792   3.191   9.960   7.592 -1.5174  0.4883 -0.2182
  510MOL0     H68793   3.339  10.115   7.701  1.8607  1.0895  1.3541
  510MOL0     H68794   3.334  10.030   7.855  1.4191  3.4751 -0.2630
  510MOL0     H68795   3.454   9.840   7.765 -1.5462  2.0611  0.3444
  510MOL0     H68796   3.455   9.907   7.594 -0.2612  2.0623 -1.0852
  510MOL0     H68797   3.593  10.062   7.827  1.4644  1.3423 -0.0398
  510MOL0     H68798   3.610  10.098   7.668  1.7925 -0.4068 -1.1682
  510MOL0     H68799   3.699   9.855   7.811  0.6465 -2.9674 -1.3295
  510MOL0     H68800   3.679   9.841   7.640 -1.6570 -0.8524  1.2197
  510MOL0     H68801   3.828  10.178   7.804 -1.7478 -1.0099  0.2994
  510MOL0     H68802   4.115  10.278   7.723 -1.6710  0.7842  0.4653
  510MOL0     H68803   4.060  10.245   7.887  0.2104  0.4051 -1.4415
  510MOL0     H68804   4.226  10.060   7.908 -0.6065 -2.1290 -1.3985
  510MOL0     H68805   4.295  10.109   7.749  0.1080  3.1359 -1.9447
  510MOL0     H68806   4.418  10.192   7.950 -0.2248 -0.3728  0.9417
  510MOL0     H68807   4.283  10.299   7.973  2.3353 -0.1510  0.7270
  510MOL0     H68808   4.315  10.408   7.757  1.6613  2.0805  1.3497
  510MOL0     H68809   4.453  10.305   7.715 -0.3546  3.0095 -2.2626
  510MOL0     H68810   4.645  10.243   7.748 -0.8587  2.3268 -1.5314
  510MOL0     H68811   4.896  10.215   7.794  0.0227  0.3678 -1.2521
  510MOL0     H68812   5.341  10.565   7.889 -1.3347 -3.4717 -2.9331
  510MOL0     H68813   5.569  10.484   7.935 -1.2002  2.0874 -1.6530
  510MOL0     H68814   5.611  10.229   8.334  2.5425 -0.3118  2.7478
  510MOL0     H68815   5.649  10.147   8.183 -0.0831 -1.1834  2.9651
  510MOL0     H68816   5.814  10.166   8.380 -1.9271 -1.1162 -0.7023
  510MOL0     H68817   5.868  10.179   8.211  2.8896 -0.6235  3.3551
  510MOL0     H68818   5.920  10.392   8.226  0.9377  1.1500  0.6212
  510MOL0     H68819   5.795  10.439   8.338  0.9079  0.5077  2.8857
  510MOL0     H68820   6.064  10.300   8.413  0.2197  1.3279  1.2311
  510MOL0     H68821   5.940  10.334   8.530 -2.9535  1.3451 -1.2253
  510MOL0     H68822   5.952  10.569   8.498  1.5216  2.5863  1.0896
  510MOL0     H68823   6.050  10.544   8.353 -1.1543  0.0855  0.0956
  510MOL0     H68824   6.236  10.454   8.504 -0.6221 -2.2961  1.9549
  510MOL0     H68825   6.198  10.623   8.544  1.9058 -1.1898  0.7327
  510MOL0     H68826   6.230  10.507   8.746  1.8460 -0.2599 -2.4500
  510MOL0     H68827   6.121  10.376   8.702  0.6492 -0.2369 -3.2519
  510MOL0     H68828   6.044  10.602   8.846 -2.5391  0.0590  0.0890
  510MOL0     H68829   6.032  10.668   8.685  0.9246 -1.0343 -1.2116
  510MOL0     H68830   5.414  10.254   8.273 -0.8225 -1.7248 -0.0222
  510MOL0     H68831   5.193  10.318   8.213  1.4184 -2.2435  0.8343
  510MOL0     H68832   4.870  10.555   8.061  0.0144 -1.9605  1.5117
  510MOL0     H68833   4.637  10.577   8.029 -2.5240 -1.0551 -2.3051
  510MOL0     H68834   2.656  10.245   7.860 -1.1869 -3.4953  2.3878
  510MOL0     H68835   2.420  10.324   7.867  0.9444  0.0054 -0.4853
  510MOL0     H68836   2.033  10.294   7.564 -0.8591 -1.7682 -0.3558
  510MOL0     H68837   1.800  10.342   7.529  0.6221  1.8589 -1.6402
  510MOL0     H68838   1.555  10.356   7.611  4.0855 -0.0093  1.0227
  510MOL0     H68839   1.607  10.457   7.476  0.9799 -0.9672  0.0648
  510MOL0     H68840   1.366  10.494   7.512 -2.0725  1.1774  1.4134
  510MOL0     H68841   1.464  10.643   7.549 -0.5636  0.2233 -2.2343
  510MOL0     H68842   1.405  10.628   7.774  0.6561 -0.6590  0.2282
  510MOL0     H68843   1.415  10.460   7.774  1.3514  1.6094  1.1470
  510MOL0     H68844   1.203  10.439   7.651  0.1276 -2.0833  1.2075
  510MOL0     H68845   1.196  10.500   7.806  0.6540 -4.6743 -0.9116
  510MOL0     H68846   1.111  10.855   7.574 -0.4957 -1.2756 -3.3515
  510MOL0     H68847   1.823  10.667   7.806 -0.1388  1.3806 -0.7746
  510MOL0     H68848   2.004  10.719   7.928 -0.2304 -2.1619  0.6971
  510MOL0     H68849   2.142  10.602   7.947 -0.9083 -1.2765  0.6336
  510MOL0     H68850   2.146  10.723   7.823  0.1008  0.8286  0.8334
  511MOL0     O68851   4.892   9.372   6.113  0.1742  0.1696 -0.1826
  511MOL0     C68852   4.788   9.304   6.133 -0.3301 -0.2759  0.0575
  511MOL0     O68853   4.762   9.255   6.256  0.1280 -0.3541 -0.0838
  511MOL0     C68854   4.856   9.249   6.356 -0.1469  0.9479 -0.0417
  511MOL0     C68855   4.998   9.226   6.336  0.5039  0.3005 -0.2390
  511MOL0     C68856   5.077   9.207   6.450 -0.5325 -0.0570 -1.2158
  511MOL0     C68857   5.022   9.198   6.578 -0.3554 -0.4801 -0.0949
  511MOL0     O68858   5.102   9.174   6.688 -0.1859  0.2245  0.1308
  511MOL0     C68859   5.072   9.253   6.805  1.4848  0.2365  0.0156
  511MOL0     C68860   5.198   9.269   6.879 -0.6458 -0.0545 -0.5533
  511MOL0     C68861   5.299   9.353   6.804  0.0437 -0.1538  0.3611
  511MOL0     C68862   5.434   9.384   6.886  0.2065 -0.1591  0.0910
  511MOL0     C68863   5.527   9.461   6.795  0.9636  0.0049 -0.2484
  511MOL0     C68864   5.475   9.597   6.732 -0.0496  0.5524 -0.5255
  511MOL0     C68865   5.595   9.698   6.704 -0.3431  0.3450 -0.5080
  511MOL0     C68866   5.551   9.814   6.618  0.5545 -0.0038 -0.8070
  511MOL0     N68867   5.559   9.791   6.473  0.7365 -0.3359  0.0892
  511MOL0     C68868   5.649   9.838   6.384  0.2025  0.1864 -0.8146
  511MOL0     C68869   5.601   9.817   6.261  0.1650 -0.0539 -0.3905
  511MOL0     C68870   5.645   9.860   6.121 -0.9605 -0.0287 -0.1312
  511MOL0     C68871   5.766   9.955   6.113 -0.3849 -0.3510  1.1364
  511MOL0     C68872   5.727  10.100   6.165  1.1607  0.2515  0.6549
  511MOL0     C68873   5.812  10.211   6.116 -0.5216  0.4386  0.6373
  511MOL0     O68874   5.764  10.232   5.976  0.0672  0.0283 -0.2836
  511MOL0     C68875   5.847  10.308   5.910 -1.1311 -0.2778  0.8854
  511MOL0     C68876   5.874  10.263   5.784  0.6667 -0.1058 -0.1774
  511MOL0     C68877   5.944  10.342   5.691  0.9120 -0.4895  0.7951
  511MOL0     C68878   5.997  10.469   5.733  0.0948 -1.1606  0.2281
  511MOL0     C68879   6.090  10.534   5.636 -0.3673 -1.1557  0.4525
  511MOL0     O68880   6.155  10.651   5.684 -0.0478 -0.2466  0.7357
  511MOL0     C68881   6.260  10.712   5.622 -0.4905 -0.9614  0.3710
  511MOL0     C68882   6.277  10.848   5.663 -0.5613 -0.0436 -0.8297
  511MOL0     C68883   6.391  10.916   5.616  0.3025  0.0762 -0.0994
  511MOL0     C68884   6.488  10.854   5.539 -0.6770 -0.2623 -0.6829
  511MOL0     O68885   6.586  10.941   5.498  0.3551  0.0135 -0.1633
  511MOL0     C68886   6.702  10.894   5.434 -0.5379  0.0933  0.5550
  511MOL0     C68887   6.803  11.008   5.409  0.2544 -0.1503 -0.1236
  511MOL0     C68888   6.946  10.951   5.381 -0.2768 -0.3788  0.2016
  511MOL0     C68889   7.043  11.062   5.351 -0.1258  0.2124  0.1312
  511MOL0     C68890   7.190  11.026   5.361 -0.9636 -0.5729 -0.7656
  511MOL0     C68891   7.276  11.145   5.373  0.2619 -0.0690 -0.1967
  511MOL0     C68892   7.423  11.104   5.375 -0.0257  0.5632 -0.8529
  511MOL0     C68893   7.530  11.218   5.369  0.5069 -0.1332 -0.4087
  511MOL0    Cl68894   7.491  11.320   5.224  0.0760 -0.0125 -0.6941
  511MOL0     C68895   6.471  10.720   5.503  0.0364  0.2810  0.4450
  511MOL0     C68896   6.356  10.648   5.546  0.6630 -1.1535 -0.1524
  511MOL0     O68897   6.110  10.485   5.529 -0.0938 -0.5511  0.3719
  511MOL0     C68898   5.979  10.516   5.865  0.7560 -0.2793  0.5534
  511MOL0     C68899   5.904  10.435   5.954  0.2316  0.3346  0.4322
  511MOL0     N68900   5.477   9.758   6.277 -0.0935 -0.2107  0.2892
  511MOL0     N68901   5.459   9.728   6.403  0.2327 -0.7307  0.2055
  511MOL0     C68902   4.882   9.208   6.595  0.0625  0.1942  0.4713
  511MOL0     C68903   4.798   9.247   6.481  0.9004 -0.4539 -0.0928
  511MOL0     C68904   4.669   9.292   6.045  0.5215  0.0640 -0.7926
  511MOL0     C68905   4.591   9.178   6.068 -0.0899  0.9272 -0.4334
  511MOL0     C68906   4.481   9.149   5.990  0.5593 -0.1339  0.8417
  511MOL0     C68907   4.436   9.243   5.896 -0.9523 -0.6366 -0.2886
  511MOL0     O68908   4.327   9.228   5.825  0.1227  0.2353  0.0295
  511MOL0     C68909   4.208   9.245   5.890  0.1064  0.0759 -0.4849
  511MOL0     C68910   4.093   9.160   5.820 -0.5697 -0.6246  0.1835
  511MOL0     C68911   4.123   9.006   5.832  0.1464 -0.6877  0.0943
  511MOL0     C68912   4.028   8.931   5.905  0.1720  0.5426 -0.3865
  511MOL0     C68913   4.078   8.792   5.914 -0.2338 -0.3793 -0.1343
  511MOL0     C68914   4.127   8.686   5.934 -0.1022 -0.1897 -0.1614
  511MOL0     C68915   4.518   9.358   5.866  0.3522 -0.7362 -0.4507
  511MOL0     C68916   4.635   9.378   5.941  0.3694  0.2687 -1.0935
  511MOL0     C68917   4.715   9.502   5.918  0.5762 -0.0888 -0.5329
  511MOL0     H68918   5.045   9.203   6.241 -0.1518  1.7147 -0.9263
  511MOL0     H68919   5.184   9.195   6.441 -0.4656  0.4440 -1.1133
  511MOL0     H68920   5.037   9.353   6.777  1.7699  0.0282 -1.1410
  511MOL0     H68921   4.993   9.202   6.861  0.5798  1.3689 -0.1868
  511MOL0     H68922   5.235   9.167   6.894 -2.6557 -0.8507 -0.7908
  511MOL0     H68923   5.176   9.312   6.976 -0.3251 -0.5218 -0.2684
  511MOL0     H68924   5.252   9.447   6.773  1.7048  0.3032 -1.0088
  511MOL0     H68925   5.325   9.310   6.707 -3.4249 -2.8508  0.4742
  511MOL0     H68926   5.404   9.448   6.970  0.8904  0.3986 -0.0771
  511MOL0     H68927   5.487   9.298   6.927  0.0061 -0.5855 -0.5183
  511MOL0     H68928   5.626   9.466   6.842  1.2548  0.1414 -0.8686
  511MOL0     H68929   5.547   9.396   6.709  1.8156  1.4157 -1.1579
  511MOL0     H68930   5.410   9.574   6.647  0.5920 -0.6724 -0.7111
  511MOL0     H68931   5.412   9.636   6.812 -2.4348 -0.0061 -2.0353
  511MOL0     H68932   5.679   9.650   6.653  0.0907 -1.1534  1.5052
  511MOL0     H68933   5.629   9.731   6.802 -2.2620  0.0713  0.2853
  511MOL0     H68934   5.447   9.826   6.649  0.9206 -0.6152  0.7097
  511MOL0     H68935   5.601   9.910   6.634 -0.6448  0.6561 -0.9301
  511MOL0     H68936   5.739   9.895   6.404 -0.5747  1.1451  0.0183
  511MOL0     H68937   5.668   9.767   6.068  1.3771  0.3019  0.2156
  511MOL0     H68938   5.562   9.900   6.062  0.5070  2.6423 -0.5554
  511MOL0     H68939   5.854   9.925   6.171  1.1623  4.4219  1.7083
  511MOL0     H68940   5.788   9.959   6.006  1.8795 -3.7608  1.3269
  511MOL0     H68941   5.722  10.099   6.274 -1.5791  1.7297  0.6299
  511MOL0     H68942   5.622  10.116   6.139  1.2402  1.5920  1.0932
  511MOL0     H68943   5.918  10.185   6.121 -1.0562 -1.8152  1.3862
  511MOL0     H68944   5.812  10.301   6.179  0.6985  1.6993 -1.0650
  511MOL0     H68945   5.835  10.170   5.745  0.2168  0.7831 -2.0085
  511MOL0     H68946   5.950  10.313   5.587  1.1237 -1.0758  0.9665
  511MOL0     H68947   6.217  10.914   5.725  0.3888  3.6342 -3.4773
  511MOL0     H68948   6.413  11.020   5.639 -2.1319  0.0310  3.2540
  511MOL0     H68949   6.750  10.817   5.496 -1.6924 -2.0202 -1.0434
  511MOL0     H68950   6.676  10.853   5.336 -1.7079  1.6730  0.1600
  511MOL0     H68951   6.756  11.054   5.322  0.8399  1.1765  0.2281
  511MOL0     H68952   6.817  11.079   5.491  0.2332  0.6860 -0.8371
  511MOL0     H68953   6.969  10.905   5.477 -0.8217  1.1055  1.0815
  511MOL0     H68954   6.945  10.872   5.306  0.4626 -2.2218  2.0270
  511MOL0     H68955   7.028  11.143   5.423  1.9386  1.2711 -0.5384
  511MOL0     H68956   7.021  11.091   5.247  3.7920  1.9682 -0.3661
  511MOL0     H68957   7.223  10.973   5.271 -0.8708 -0.0493 -1.0429
  511MOL0     H68958   7.207  10.975   5.457 -1.5405  1.3650  0.4095
  511MOL0     H68959   7.257  11.214   5.290 -0.4106 -1.2939 -1.0948
  511MOL0     H68960   7.249  11.182   5.472  3.5522  1.0430  0.4325
  511MOL0     H68961   7.440  11.055   5.279  0.7369  0.4423 -0.6645
  511MOL0     H68962   7.441  11.038   5.461  1.0606  2.5728  0.5418
  511MOL0     H68963   7.538  11.273   5.463  0.6426 -0.2934 -0.3256
  511MOL0     H68964   7.622  11.160   5.354 -0.3769 -0.8735 -3.9265
  511MOL0     H68965   6.541  10.667   5.439 -0.4293 -1.4541  1.3059
  511MOL0     H68966   6.353  10.543   5.518  0.3168 -1.0440 -0.5289
  511MOL0     H68967   6.024  10.603   5.912 -1.4885  0.6435  1.1440
  511MOL0     H68968   5.895  10.459   6.059  2.5609  1.9132  0.3464
  511MOL0     H68969   4.825   9.199   6.687 -4.0471  0.5636 -1.7933
  511MOL0     H68970   4.690   9.252   6.486  0.7997 -0.1007 -1.8426
  511MOL0     H68971   4.622   9.102   6.139 -1.7312 -3.0391 -3.5797
  511MOL0     H68972   4.421   9.061   6.013  1.3689 -1.3171 -1.2222
  511MOL0     H68973   4.191   9.353   5.897  1.5895  0.4027 -1.4415
  511MOL0     H68974   4.214   9.210   5.994  0.3023 -0.0681 -0.5443
  511MOL0     H68975   4.084   9.187   5.715  0.6663 -1.4903 -0.1599
  511MOL0     H68976   4.000   9.187   5.872  1.1243  0.8733  2.6445
  511MOL0     H68977   4.227   8.993   5.865 -0.1306 -2.3512  0.3844
  511MOL0     H68978   4.140   8.959   5.734  0.3743  1.7243 -1.1071
  511MOL0     H68979   4.031   8.977   6.005 -0.4202  1.5698 -0.8326
  511MOL0     H68980   3.927   8.923   5.864 -0.9329  3.6880  1.3584
  511MOL0     H68981   4.175   8.591   5.952  2.6528  1.5866  2.9460
  511MOL0     H68982   4.488   9.434   5.794  0.9701 -1.8570 -1.9383
  511MOL0     H68983   4.675   9.557   5.833 -1.3673  1.8347  1.4962
  511MOL0     H68984   4.713   9.560   6.010  0.1621 -0.4118 -0.3343
  511MOL0     H68985   4.817   9.481   5.883  0.8811 -0.3435  0.4802
  512MOL0     O68986   9.633   4.752   9.583  0.4577 -0.4760 -0.4442
  512MOL0     C68987   9.593   4.816   9.482 -0.6072  0.6310  0.3612
  512MOL0     O68988   9.668   4.906   9.412  0.4870 -0.1629  0.1898
  512MOL0     C68989   9.806   4.913   9.411 -0.2171 -0.3525 -0.3905
  512MOL0     C68990   9.888   4.800   9.402  1.1330  0.8935 -0.1758
  512MOL0     C68991  10.030   4.812   9.394  0.0424 -0.1913 -0.2520
  512MOL0     C68992  10.094   4.934   9.406 -0.2377 -0.2931 -0.3687
  512MOL0     O68993  10.232   4.931   9.387 -0.5019  0.2479  0.0895
  512MOL0     C68994  10.304   5.037   9.456 -0.0724  0.0287 -0.3227
  512MOL0     C68995  10.455   4.987   9.452  0.8096  0.2484 -0.4836
  512MOL0     C68996  10.500   4.957   9.309  0.0707 -0.8895 -0.4131
  512MOL0     C68997  10.652   4.936   9.305  0.4983  0.4065  0.9591
  512MOL0     C68998  10.735   5.060   9.300  0.1554  0.4402 -0.6124
  512MOL0     C68999  10.887   5.032   9.290 -0.7392 -0.6942 -0.2960
  512MOL0     C69000  10.957   5.166   9.281  0.9058  0.8589 -0.6577
  512MOL0     C69001  11.104   5.145   9.256  0.0232  0.4408  0.2414
  512MOL0     N69002  11.178   5.132   9.379 -0.8318  0.6535 -0.0480
  512MOL0     C69003  11.175   5.210   9.490 -0.8523 -0.6376 -0.4501
  512MOL0     C69004  11.220   5.143   9.595 -0.3105 -1.2667  0.0458
  512MOL0     C69005  11.228   5.209   9.729  0.0924 -0.6219 -0.0222
  512MOL0     C69006  11.114   5.151   9.809  0.8974 -0.0591  0.5457
  512MOL0     C69007  10.967   5.187   9.757  0.5173  1.0710 -0.8766
  512MOL0     C69008  10.909   5.088   9.656  0.0822 -0.9711  0.6459
  512MOL0     O69009  10.858   4.975   9.716  0.1746 -0.1535  0.3669
  512MOL0     C69010  10.719   4.951   9.738 -0.0581  0.2331 -0.5078
  512MOL0     C69011  10.638   5.053   9.800  0.0179  0.4313 -0.1066
  512MOL0     C69012  10.507   5.021   9.837 -0.9580 -0.4680 -0.4684
  512MOL0     C69013  10.450   4.898   9.797  0.2762  0.3063 -0.5370
  512MOL0     C69014  10.305   4.872   9.824 -0.0024  0.3713  0.1156
  512MOL0     O69015  10.257   4.744   9.798 -0.1054 -0.1333  0.0115
  512MOL0     C69016  10.122   4.729   9.832 -0.6887 -0.1451  0.1315
  512MOL0     C69017  10.092   4.639   9.936  0.1952  0.3682  0.2744
  512MOL0     C69018   9.967   4.601   9.977  0.1261 -0.6963  0.1026
  512MOL0     C69019   9.855   4.647   9.902 -0.6404 -0.1559  1.0085
  512MOL0     O69020   9.718   4.606   9.916 -0.3368 -0.3701  0.8854
  512MOL0     C69021   9.688   4.523  10.034  0.4236 -0.1177  0.5822
  512MOL0     C69022   9.532   4.520  10.040 -1.1886 -0.2133 -0.2995
  512MOL0     C69023   9.476   4.660  10.085 -0.2596  0.4118 -0.0108
  512MOL0     C69024   9.321   4.656  10.102  0.3360 -0.6169 -0.0993
  512MOL0     C69025   9.271   4.798  10.136  0.0937  0.0423 -0.1043
  512MOL0     C69026   9.129   4.806  10.095  0.2395  0.3578  0.4258
  512MOL0     C69027   9.073   4.944  10.132  0.4651 -0.1381 -0.1903
  512MOL0     C69028   8.923   4.963  10.093 -0.2824  0.5389 -0.4564
  512MOL0    Cl69029   8.824   4.887  10.221  0.5730  0.1504  0.4727
  512MOL0     C69030   9.880   4.740   9.799 -0.2693  0.8810 -0.2206
  512MOL0     C69031  10.017   4.774   9.762  0.2759  0.2065 -0.4721
  512MOL0     O69032  10.240   4.963   9.867 -0.2444  0.3484 -0.2734
  512MOL0     C69033  10.532   4.803   9.731  0.3313  0.6470 -0.4928
  512MOL0     C69034  10.665   4.830   9.706  0.6079  1.1102 -0.0261
  512MOL0     N69035  11.253   5.013   9.550  0.4206 -0.5275  0.7230
  512MOL0     N69036  11.219   5.008   9.425  0.0996  0.1011  0.5247
  512MOL0     C69037  10.011   5.052   9.414 -1.2464  0.8051  0.4752
  512MOL0     C69038   9.874   5.042   9.406  0.1045 -0.4808  0.6726
  512MOL0     C69039   9.464   4.789   9.429  0.4611  0.1550  0.4558
  512MOL0     C69040   9.373   4.889   9.412 -0.3521 -0.0304 -0.7649
  512MOL0     C69041   9.238   4.862   9.376  1.4463 -0.1432 -0.0810
  512MOL0     C69042   9.185   4.739   9.343 -0.5372  0.0665  0.0724
  512MOL0     O69043   9.056   4.732   9.302 -0.4180  0.2936 -0.4018
  512MOL0     C69044   9.004   4.609   9.279  0.5261  1.0022  0.0434
  512MOL0     C69045   8.857   4.615   9.254  0.2161 -0.7830 -0.5105
  512MOL0     C69046   8.776   4.657   9.379  0.3639 -0.4639  0.3319
  512MOL0     C69047   8.669   4.556   9.392 -0.7269 -0.0367 -0.3726
  512MOL0     C69048   8.571   4.583   9.490  0.8558 -0.1851 -0.6311
  512MOL0     C69049   8.481   4.595   9.570 -0.1211  0.9822 -0.0907
  512MOL0     C69050   9.281   4.631   9.364 -0.4548  0.0063  0.1455
  512MOL0     C69051   9.416   4.660   9.389 -0.6991 -0.1767  0.4175
  512MOL0     C69052   9.502   4.543   9.385  0.2854  0.5198  0.0846
  512MOL0     H69053   9.845   4.701   9.391 -0.5092  1.7910 -2.7580
  512MOL0     H69054  10.098   4.727   9.395  0.2350 -0.0932 -2.0996
  512MOL0     H69055  10.297   5.133   9.404  2.3128 -0.9368 -2.6644
  512MOL0     H69056  10.284   5.046   9.563  1.6679 -2.0995  0.2587
  512MOL0     H69057  10.453   4.896   9.513 -0.3227  0.8682  0.4533
  512MOL0     H69058  10.516   5.066   9.497  0.5020 -0.6580  1.6325
  512MOL0     H69059  10.472   5.039   9.243 -1.5804  0.5955  1.9989
  512MOL0     H69060  10.439   4.874   9.270 -3.2850  1.7141 -1.1552
  512MOL0     H69061  10.691   4.878   9.390  3.7777  2.5166  1.0310
  512MOL0     H69062  10.681   4.874   9.219  1.7985 -0.5116  2.0144
  512MOL0     H69063  10.721   5.116   9.207 -0.0658  0.5787 -0.4977
  512MOL0     H69064  10.709   5.122   9.386  0.3101  3.0107 -2.2885
  512MOL0     H69065  10.917   4.970   9.375 -4.2526 -0.7227  1.1056
  512MOL0     H69066  10.917   4.973   9.203  1.3158  1.4051 -1.1031
  512MOL0     H69067  10.949   5.223   9.375  0.8567 -0.4677  0.1656
  512MOL0     H69068  10.926   5.217   9.189  1.7593  0.1859 -1.3377
  512MOL0     H69069  11.120   5.051   9.203  1.4673 -0.2165  1.7629
  512MOL0     H69070  11.132   5.227   9.189  0.9271  0.7885  1.0299
  512MOL0     H69071  11.125   5.306   9.501  0.0162 -0.0419 -1.4616
  512MOL0     H69072  11.325   5.192   9.778 -1.5669 -0.7698  3.4939
  512MOL0     H69073  11.209   5.316   9.715  0.0044 -0.5977  0.2940
  512MOL0     H69074  11.125   5.043   9.823 -0.5142 -0.1059  1.6472
  512MOL0     H69075  11.126   5.192   9.910  0.7912 -1.0653  0.9729
  512MOL0     H69076  10.963   5.292   9.725 -0.4713  1.4336  0.3479
  512MOL0     H69077  10.892   5.170   9.835 -1.4741 -1.9285 -3.2103
  512MOL0     H69078  10.972   5.044   9.578 -2.2766 -1.3448 -1.1886
  512MOL0     H69079  10.829   5.135   9.597 -0.3017 -0.9761  1.1569
  512MOL0     H69080  10.683   5.148   9.824 -1.1920  1.2541 -0.9647
  512MOL0     H69081  10.449   5.099   9.887  2.0390  1.8384 -0.2795
  512MOL0     H69082  10.178   4.608   9.995  0.8655  0.8275 -0.4511
  512MOL0     H69083   9.956   4.525  10.054  0.6117 -0.7161  0.1553
  512MOL0     H69084   9.738   4.426  10.032  2.6700  0.9433  1.4567
  512MOL0     H69085   9.728   4.583  10.117 -0.3606 -0.1832  1.0175
  512MOL0     H69086   9.481   4.478   9.953 -1.4379 -3.1596  1.1443
  512MOL0     H69087   9.508   4.453  10.124 -2.3141  1.7127  1.0015
  512MOL0     H69088   9.521   4.686  10.181 -1.1173 -1.0153  0.8074
  512MOL0     H69089   9.492   4.729  10.002 -0.8223 -1.4400 -1.7364
  512MOL0     H69090   9.283   4.584  10.174  2.2847 -2.1889 -0.5532
  512MOL0     H69091   9.276   4.628  10.006  3.7770  2.6236 -3.0335
  512MOL0     H69092   9.336   4.865  10.080  1.4800  0.0068  1.3703
  512MOL0     H69093   9.287   4.811  10.244  1.1750 -0.7817 -0.1497
  512MOL0     H69094   9.112   4.791   9.988 -0.7837  1.7405  0.3661
  512MOL0     H69095   9.081   4.730  10.157 -1.6170  1.4992  0.4706
  512MOL0     H69096   9.145   5.017  10.093 -2.0812  1.8817 -1.3817
  512MOL0     H69097   9.086   4.954  10.240  3.1387 -2.0783 -0.2250
  512MOL0     H69098   8.895   5.068  10.104 -1.6244  0.1232  0.2675
  512MOL0     H69099   8.899   4.918   9.996 -2.7479 -2.3158  1.3051
  512MOL0     H69100   9.802   4.780   9.736 -0.7222 -0.6436 -0.6815
  512MOL0     H69101  10.029   4.845   9.681 -0.5702 -0.4317 -1.1737
  512MOL0     H69102  10.495   4.704   9.704 -0.3541  0.6147  0.4937
  512MOL0     H69103  10.734   4.759   9.660 -2.5211 -0.3213 -2.9540
  512MOL0     H69104  10.054   5.151   9.425 -1.7906  0.8414  2.6356
  512MOL0     H69105   9.816   5.134   9.408  1.9036  0.6982  2.4839
  512MOL0     H69106   9.399   4.985   9.455  0.0336 -1.9178  3.8142
  512MOL0     H69107   9.172   4.948   9.377  1.8981  0.2856  2.9684
  512MOL0     H69108   9.014   4.561   9.377  1.9075  2.1203  0.5007
  512MOL0     H69109   9.059   4.560   9.199 -2.5229 -0.7965 -1.1177
  512MOL0     H69110   8.830   4.518   9.212 -1.9444 -2.1111  3.4023
  512MOL0     H69111   8.844   4.697   9.183 -0.0679 -1.5090 -1.3115
  512MOL0     H69112   8.728   4.753   9.360 -2.0288 -1.5418  0.5713
  512MOL0     H69113   8.838   4.665   9.469 -0.4786 -0.4792  0.9220
  512MOL0     H69114   8.617   4.555   9.296 -0.0041 -0.3497 -0.7702
  512MOL0     H69115   8.711   4.460   9.426 -0.8269  0.0413 -0.0263
  512MOL0     H69116   8.387   4.606   9.620 -0.2710  1.5952 -0.4989
  512MOL0     H69117   9.252   4.526   9.363 -2.0520  0.3976  1.3067
  512MOL0     H69118   9.607   4.571   9.374  0.0494  0.7263 -1.9726
  512MOL0     H69119   9.489   4.492   9.481 -0.0185 -1.5612 -1.0093
  512MOL0     H69120   9.469   4.477   9.304  0.8645 -2.4661  2.0794
  513MOL0     O69121   6.964   5.170   7.532 -0.5428  0.1183 -0.2634
  513MOL0     C69122   6.858   5.167   7.595  0.3059 -0.3479  0.3036
  513MOL0     O69123   6.848   5.126   7.719  0.1741  0.3211 -0.4362
  513MOL0     C69124   6.964   5.133   7.793  0.0758  0.7383 -0.2825
  513MOL0     C69125   7.010   5.261   7.841 -0.0779  1.2027 -0.4114
  513MOL0     C69126   7.131   5.271   7.906 -0.0628 -0.5711  0.1987
  513MOL0     C69127   7.221   5.164   7.920 -0.2301 -0.8791  0.1712
  513MOL0     O69128   7.337   5.171   7.998 -0.6246  0.1247 -0.0322
  513MOL0     C69129   7.437   5.260   7.944  0.1616 -0.0925 -1.0836
  513MOL0     C69130   7.517   5.198   7.824  0.2973  0.0300  0.0068
  513MOL0     C69131   7.640   5.273   7.790  0.2278 -0.6052 -0.6151
  513MOL0     C69132   7.599   5.405   7.712  0.5023  0.6630  0.0046
  513MOL0     C69133   7.708   5.505   7.701 -0.1685  1.1538 -0.0316
  513MOL0     C69134   7.814   5.461   7.603  0.4073 -0.1956 -0.2486
  513MOL0     C69135   7.898   5.579   7.561 -0.2794 -0.7672  0.3547
  513MOL0     C69136   8.013   5.533   7.463  0.3516 -0.0638 -0.2073
  513MOL0     N69137   8.122   5.489   7.541 -0.0513  0.5868  1.0710
  513MOL0     C69138   8.144   5.372   7.606  0.7806 -0.0400 -0.3150
  513MOL0     C69139   8.277   5.381   7.646  0.8801 -0.2023 -0.5538
  513MOL0     C69140   8.353   5.296   7.741 -0.2335  0.4946  0.2837
  513MOL0     C69141   8.442   5.372   7.834  0.7163 -0.2915  0.3911
  513MOL0     C69142   8.500   5.270   7.933  0.5839  0.0855  0.0639
  513MOL0     C69143   8.596   5.349   8.033  0.1370  0.5759  0.3899
  513MOL0     O69144   8.719   5.397   7.977 -0.2043 -0.4779 -0.2266
  513MOL0     C69145   8.838   5.322   7.986 -0.5041 -0.4989 -0.2442
  513MOL0     C69146   8.954   5.398   8.006 -0.5343 -0.8727 -1.1445
  513MOL0     C69147   9.076   5.331   8.031 -0.1438 -0.0465 -0.1229
  513MOL0     C69148   9.086   5.185   8.032  0.7621  0.1616  0.1426
  513MOL0     C69149   9.212   5.115   8.052 -0.2957 -0.4222  0.3520
  513MOL0     O69150   9.222   4.985   8.020  0.6778 -0.3356  0.7093
  513MOL0     C69151   9.352   4.939   8.011 -0.1825  0.1044 -0.3134
  513MOL0     C69152   9.444   4.998   7.910 -0.1983  1.1552 -0.0578
  513MOL0     C69153   9.571   4.944   7.889 -0.0367  0.0346  0.5869
  513MOL0     C69154   9.626   4.845   7.972  0.0183 -0.2504 -0.9517
  513MOL0     O69155   9.760   4.802   7.981  0.5328  0.6815 -0.1041
  513MOL0     C69156   9.841   4.863   7.880 -0.1131 -0.0184 -0.0689
  513MOL0     C69157   9.986   4.809   7.889  0.0161 -1.3894  0.4936
  513MOL0     C69158  10.058   4.853   8.017 -0.2230  0.0166 -0.5208
  513MOL0     C69159  10.157   4.760   8.072 -0.8257 -0.0309  0.8421
  513MOL0     C69160  10.257   4.838   8.166 -0.4861 -1.2533 -0.0812
  513MOL0     C69161  10.372   4.751   8.205 -0.1336  0.2824  0.1658
  513MOL0     C69162  10.490   4.828   8.253 -0.1209  0.6257 -0.4665
  513MOL0     C69163  10.611   4.728   8.260  0.3130 -0.7992  0.2919
  513MOL0    Cl69164  10.759   4.828   8.284 -0.2839 -0.1418  0.2040
  513MOL0     C69165   9.540   4.798   8.079  1.0041 -0.1019  0.1408
  513MOL0     C69166   9.404   4.834   8.086  0.4290 -0.2875  1.0867
  513MOL0     O69167   9.299   5.187   8.099 -0.2536 -0.1090  0.2828
  513MOL0     C69168   8.973   5.120   7.994  0.0169 -0.6921 -0.7704
  513MOL0     C69169   8.851   5.185   7.975 -1.1392  0.7207  0.7740
  513MOL0     N69170   8.330   5.485   7.592 -0.1350 -0.3584 -0.0843
  513MOL0     N69171   8.242   5.556   7.529  0.7313 -1.1752  0.3695
  513MOL0     C69172   7.176   5.045   7.866  0.8326  0.0198  1.1378
  513MOL0     C69173   7.047   5.024   7.805 -0.5689  0.0209 -1.0638
  513MOL0     C69174   6.735   5.208   7.523 -0.0543 -0.2370 -0.2668
  513MOL0     C69175   6.609   5.181   7.576 -0.1521 -0.7724 -0.0864
  513MOL0     C69176   6.491   5.208   7.507 -0.1842  0.2016  0.4610
  513MOL0     C69177   6.497   5.260   7.381 -0.2116  0.8926 -0.6863
  513MOL0     O69178   6.389   5.290   7.297 -0.0318 -0.6414 -0.6112
  513MOL0     C69179   6.270   5.201   7.306  0.4751 -0.4695  0.1835
  513MOL0     C69180   6.285   5.056   7.260 -0.3092 -0.9860 -0.3612
  513MOL0     C69181   6.284   5.052   7.110 -0.8865  0.6613 -1.4859
  513MOL0     C69182   6.312   4.915   7.068 -1.1060 -0.6846 -0.1386
  513MOL0     C69183   6.287   4.911   6.921 -0.4203 -0.6298  0.1664
  513MOL0     C69184   6.265   4.900   6.805 -0.1450  0.8718 -0.2088
  513MOL0     C69185   6.621   5.292   7.330  0.5444 -0.3717  0.2818
  513MOL0     C69186   6.743   5.268   7.393 -0.0423 -0.6880 -0.2286
  513MOL0     C69187   6.870   5.295   7.313 -0.0938 -0.5070  0.1153
  513MOL0     H69188   6.954   5.350   7.818 -1.6289  0.3254 -0.1665
  513MOL0     H69189   7.165   5.357   7.962  1.6895 -2.2682  1.9315
  513MOL0     H69190   7.379   5.345   7.908 -2.9961 -0.1046  3.2191
  513MOL0     H69191   7.506   5.303   8.017  0.5589  0.7012 -1.9113
  513MOL0     H69192   7.463   5.184   7.730  1.8375 -0.5037 -0.8310
  513MOL0     H69193   7.550   5.095   7.843 -2.1615 -1.0591 -1.1951
  513MOL0     H69194   7.703   5.212   7.725  1.2161  2.0601 -2.3242
  513MOL0     H69195   7.691   5.284   7.886 -0.8029 -0.3232 -0.0820
  513MOL0     H69196   7.561   5.387   7.610 -0.6306 -1.3273  0.7056
  513MOL0     H69197   7.516   5.452   7.766  1.0662  2.7088 -0.8137
  513MOL0     H69198   7.657   5.595   7.664  1.0246  0.1773 -4.6653
  513MOL0     H69199   7.749   5.535   7.798 -0.0576  1.2802 -0.1152
  513MOL0     H69200   7.877   5.385   7.651 -3.0916 -2.5499  1.0055
  513MOL0     H69201   7.756   5.416   7.523 -0.0773 -0.1177  0.0565
  513MOL0     H69202   7.938   5.642   7.641 -1.1938 -0.9192  0.9478
  513MOL0     H69203   7.837   5.652   7.507  1.7649  1.0956  0.4158
  513MOL0     H69204   7.981   5.451   7.399 -2.3723 -0.5250  1.5352
  513MOL0     H69205   8.050   5.619   7.408 -1.0007  0.1457 -0.8451
  513MOL0     H69206   8.076   5.301   7.653  2.1541 -0.8498  0.4997
  513MOL0     H69207   8.282   5.236   7.799  0.8689  1.0640  2.2965
  513MOL0     H69208   8.414   5.221   7.690 -0.1017  2.1116 -2.0608
  513MOL0     H69209   8.531   5.413   7.786  1.7020  0.4749  2.7499
  513MOL0     H69210   8.374   5.449   7.872  1.5832  0.8704 -0.3462
  513MOL0     H69211   8.562   5.199   7.877  0.4143 -1.1382  1.3893
  513MOL0     H69212   8.428   5.215   7.992 -0.0032 -0.0881 -0.7928
  513MOL0     H69213   8.616   5.291   8.123 -0.1825 -0.4470 -0.1833
  513MOL0     H69214   8.537   5.433   8.070 -1.3735  0.2204 -1.0300
  513MOL0     H69215   8.946   5.506   8.005  0.8203 -0.6921  0.9927
  513MOL0     H69216   9.166   5.392   8.038 -0.3775  0.3260 -0.3505
  513MOL0     H69217   9.411   5.090   7.864 -3.1397  0.0506 -0.3537
  513MOL0     H69218   9.629   4.985   7.808  0.5771 -1.0968  0.4418
  513MOL0     H69219   9.799   4.838   7.781 -1.6734  0.4698  0.4430
  513MOL0     H69220   9.860   4.969   7.895 -0.4927 -0.0732  0.8799
  513MOL0     H69221   9.987   4.700   7.885  1.1337 -1.3607 -0.5572
  513MOL0     H69222  10.033   4.842   7.795  0.2702 -1.8754  0.4472
  513MOL0     H69223  10.107   4.949   7.999  0.0382 -0.3206 -1.6940
  513MOL0     H69224   9.988   4.871   8.099  0.2388  3.5644 -0.7424
  513MOL0     H69225  10.214   4.734   7.982 -1.3717  1.4531  0.0313
  513MOL0     H69226  10.128   4.663   8.112  0.8624 -0.5818  0.8284
  513MOL0     H69227  10.200   4.875   8.252 -2.8488  0.7351 -2.3478
  513MOL0     H69228  10.299   4.923   8.112 -0.9574 -1.4975 -0.8598
  513MOL0     H69229  10.337   4.686   8.286 -4.8913 -0.2086 -1.9577
  513MOL0     H69230  10.398   4.687   8.121 -0.2351  1.4285 -0.7554
  513MOL0     H69231  10.470   4.882   8.346  0.0670 -1.2830  0.7333
  513MOL0     H69232  10.511   4.905   8.178  0.6992  0.0601 -0.8368
  513MOL0     H69233  10.605   4.649   8.335 -1.2496  0.3942  1.4751
  513MOL0     H69234  10.626   4.685   8.160  1.4614 -0.3180  0.2381
  513MOL0     H69235   9.601   4.727   8.134  3.1482 -0.9176 -3.0145
  513MOL0     H69236   9.348   4.794   8.171 -1.0442  1.4873  1.0332
  513MOL0     H69237   8.968   5.011   7.990  0.5491 -0.9060  2.1992
  513MOL0     H69238   8.770   5.120   7.947 -1.8459  2.6408 -2.1306
  513MOL0     H69239   7.259   4.975   7.867  0.8340  0.0211  1.1250
  513MOL0     H69240   7.008   4.928   7.773 -0.4491 -0.6860  0.7863
  513MOL0     H69241   6.608   5.128   7.670 -1.6826 -1.4537 -0.4560
  513MOL0     H69242   6.397   5.177   7.553 -2.5340  3.4993 -1.6641
  513MOL0     H69243   6.193   5.253   7.248  0.1314  0.3755  1.3491
  513MOL0     H69244   6.220   5.202   7.403  1.2291 -2.0554  0.6194
  513MOL0     H69245   6.207   4.990   7.302  0.6290 -0.6517  2.0718
  513MOL0     H69246   6.380   5.023   7.302 -0.3793  0.1671  0.7708
  513MOL0     H69247   6.363   5.116   7.070  0.9504 -0.2683  0.4307
  513MOL0     H69248   6.188   5.090   7.074 -1.9801 -2.2286 -1.9260
  513MOL0     H69249   6.416   4.888   7.089 -0.9287  0.3623  0.4192
  513MOL0     H69250   6.249   4.844   7.123 -0.4631 -0.5678  0.7781
  513MOL0     H69251   6.222   4.890   6.708  0.0135 -1.0102 -0.1333
  513MOL0     H69252   6.615   5.332   7.229 -1.1062 -1.3933 -0.0726
  513MOL0     H69253   6.922   5.207   7.274 -0.9138 -1.1144  0.3587
  513MOL0     H69254   6.850   5.360   7.227 -0.0498 -0.9050 -0.1950
  513MOL0     H69255   6.940   5.353   7.374 -1.0777  0.1805  0.6224
  514MOL0     O69256   9.925   2.952   0.437 -0.2024  0.1721 -0.2942
  514MOL0     C69257   9.900   2.837   0.414 -0.1407  0.1279 -0.6198
  514MOL0     O69258   9.993   2.749   0.364  0.4590 -0.6186 -0.0519
  514MOL0     C69259  10.125   2.776   0.380  0.4343  0.4091 -0.4952
  514MOL0     C69260  10.181   2.898   0.341  0.7793 -0.0380  0.9156
  514MOL0     C69261  10.309   2.926   0.329  0.0382 -0.3627 -0.1955
  514MOL0     C69262  10.401   2.845   0.386 -0.4004 -0.3207 -0.0402
  514MOL0     O69263  10.536   2.868   0.383  0.7069  0.7143  0.8098
  514MOL0     C69264  10.625   2.765   0.433 -0.4333 -0.5151 -0.7980
  514MOL0     C69265  10.767   2.828   0.448  0.9366  0.0429  0.3767
  514MOL0     C69266  10.777   2.955   0.519  0.7017 -0.1313  0.2761
  514MOL0     C69267  10.699   2.969   0.646  0.4631  0.2584  0.5092
  514MOL0     C69268  10.731   3.103   0.711  0.4058  0.2696 -0.8190
  514MOL0     C69269  10.863   3.108   0.787  0.1410  0.6293  0.0900
  514MOL0     C69270  10.895   3.250   0.847 -0.5209  0.7827 -0.4628
  514MOL0     C69271  10.838   3.268   0.989  0.2952  0.6337 -0.3369
  514MOL0     N69272  10.904   3.177   1.093 -0.3775 -0.4399  0.4864
  514MOL0     C69273  11.037   3.138   1.078  0.3956  0.2677  1.5808
  514MOL0     C69274  11.052   3.058   1.184 -0.0539 -0.5826 -0.1706
  514MOL0     C69275  11.178   2.988   1.229 -0.4547  0.2514  0.2400
  514MOL0     C69276  11.169   2.852   1.146  0.4485 -0.4785 -0.3361
  514MOL0     C69277  11.246   2.732   1.205  0.0810 -0.3269  1.1952
  514MOL0     C69278  11.397   2.750   1.218  1.0495 -0.0399  0.5009
  514MOL0     O69279  11.441   2.828   1.332  0.8963 -0.0227  0.5203
  514MOL0     C69280  11.570   2.850   1.366  0.7666 -1.1324 -0.9035
  514MOL0     C69281  11.605   2.929   1.483 -0.1903 -0.0516 -0.3123
  514MOL0     C69282  11.743   2.963   1.501 -0.3098 -0.4354 -0.3647
  514MOL0     C69283  11.840   2.940   1.405 -0.2788 -0.2922 -0.5753
  514MOL0     C69284  11.974   2.988   1.443  0.1975 -0.5635  1.1361
  514MOL0     O69285  12.073   2.952   1.351  0.0692 -0.3091  0.4874
  514MOL0     C69286  12.198   2.980   1.387 -0.2563  0.3242 -0.4647
  514MOL0     C69287  12.260   2.923   1.494  1.3154 -0.3393 -0.8144
  514MOL0     C69288  12.383   2.967   1.535  0.2808  0.0180  0.3444
  514MOL0     C69289  12.452   3.070   1.468 -0.0406 -0.2397  0.0395
  514MOL0     O69290  12.579   3.114   1.496 -0.6082  0.5423 -0.1324
  514MOL0     C69291  12.660   3.049   1.597 -0.6566  0.1114  0.5267
  514MOL0     C69292  12.806   3.102   1.570  0.1680 -0.2380  0.2795
  514MOL0     C69293  12.868   3.080   1.431  0.4518 -0.5330 -0.5437
  514MOL0     C69294  13.001   3.148   1.422 -1.2787 -0.7474  0.2257
  514MOL0     C69295  13.111   3.103   1.512  0.3531 -0.0131  0.3192
  514MOL0     C69296  13.158   2.959   1.474  0.0615 -0.0824 -0.1095
  514MOL0     C69297  13.260   2.909   1.580  0.0400  0.5498  0.6487
  514MOL0     C69298  13.410   2.925   1.547  0.2569  0.1775  0.0669
  514MOL0    Cl69299  13.466   3.090   1.551  0.2991 -0.0256  0.0090
  514MOL0     C69300  12.387   3.131   1.366 -0.2951 -0.3779 -0.2356
  514MOL0     C69301  12.262   3.090   1.326 -0.1049 -0.5946 -0.2271
  514MOL0     O69302  11.995   3.050   1.546 -0.2822  0.5911 -0.0308
  514MOL0     C69303  11.811   2.863   1.293  0.4394 -1.0299 -0.2083
  514MOL0     C69304  11.675   2.819   1.274  0.8994  0.2615 -0.4860
  514MOL0     N69305  10.935   3.056   1.270  0.4949 -0.3305 -0.3667
  514MOL0     N69306  10.851   3.133   1.209 -0.4697  0.2590 -0.0846
  514MOL0     C69307  10.351   2.722   0.431  0.1994  0.5320  0.6112
  514MOL0     C69308  10.216   2.683   0.429 -0.2126  0.4314 -0.5220
  514MOL0     C69309   9.752   2.801   0.406 -0.1960 -1.1467 -0.5359
  514MOL0     C69310   9.724   2.689   0.329 -0.0819 -0.4677  0.0443
  514MOL0     C69311   9.595   2.651   0.296 -0.3655  0.3592 -0.5423
  514MOL0     C69312   9.489   2.726   0.338  0.9413  0.0763  0.1121
  514MOL0     O69313   9.366   2.696   0.290  0.8318 -0.7414 -0.3287
  514MOL0     C69314   9.294   2.804   0.225 -0.7247 -0.9188 -0.3575
  514MOL0     C69315   9.183   2.756   0.133  0.8756 -0.5804  0.5834
  514MOL0     C69316   9.156   2.860   0.020  0.1299 -1.0723  0.4842
  514MOL0     C69317   9.021   2.861  -0.055 -0.8635 -0.7725  0.0897
  514MOL0     C69318   8.987   2.997  -0.098 -0.2516 -0.3145  0.5912
  514MOL0     C69319   8.968   3.121  -0.118  0.0011 -0.0785 -0.2159
  514MOL0     C69320   9.511   2.834   0.418 -0.3309 -0.2648 -0.8914
  514MOL0     C69321   9.642   2.875   0.450 -0.5875  1.2160 -0.3760
  514MOL0     C69322   9.650   3.005   0.526 -0.5054 -1.0059  0.1137
  514MOL0     H69323  10.114   2.971   0.296  1.8264  0.9356  0.8883
  514MOL0     H69324  10.338   3.024   0.292 -0.5531 -0.4373 -0.8910
  514MOL0     H69325  10.599   2.744   0.537 -1.3843  1.6979 -0.5195
  514MOL0     H69326  10.620   2.679   0.366 -0.0327 -2.1737  1.1892
  514MOL0     H69327  10.802   2.849   0.347  1.7098  0.8275  0.7963
  514MOL0     H69328  10.844   2.763   0.490 -1.1036 -2.3171  0.6816
  514MOL0     H69329  10.737   3.030   0.450  0.6267  1.6640  2.1541
  514MOL0     H69330  10.877   2.980   0.555  1.0055 -1.4717  0.3997
  514MOL0     H69331  10.592   2.981   0.630  0.5894 -0.2463 -0.8510
  514MOL0     H69332  10.720   2.884   0.712 -2.2019 -0.6804  0.2448
  514MOL0     H69333  10.722   3.180   0.634  0.9554 -0.0059 -1.1624
  514MOL0     H69334  10.658   3.136   0.786  0.8735  1.0830 -0.7066
  514MOL0     H69335  10.852   3.036   0.869 -2.0187  0.3039 -0.4189
  514MOL0     H69336  10.943   3.076   0.719 -0.0670  1.9077 -0.7719
  514MOL0     H69337  10.858   3.330   0.782  1.6974  0.8184 -1.7891
  514MOL0     H69338  11.004   3.262   0.859 -0.3351  0.9465 -2.1650
  514MOL0     H69339  10.835   3.370   1.029 -2.6315 -0.1945  1.9333
  514MOL0     H69340  10.732   3.241   0.989  0.6592 -2.1537 -5.5984
  514MOL0     H69341  11.112   3.154   1.001 -1.7302  0.2597 -0.6317
  514MOL0     H69342  11.273   3.022   1.187 -1.2797  1.3728 -0.8341
  514MOL0     H69343  11.186   2.980   1.337  2.6110  1.6781  0.2341
  514MOL0     H69344  11.065   2.825   1.130 -0.0487  0.3652  1.3402
  514MOL0     H69345  11.216   2.866   1.048  2.8809 -1.3195  0.6210
  514MOL0     H69346  11.235   2.632   1.161  1.1169  0.6103 -1.3493
  514MOL0     H69347  11.209   2.721   1.308 -0.5461  1.1155  1.1520
  514MOL0     H69348  11.428   2.815   1.136  0.1779  0.0536  0.2314
  514MOL0     H69349  11.449   2.654   1.218 -2.5722 -2.1999  0.4959
  514MOL0     H69350  11.524   2.957   1.550 -0.0442 -2.6129  1.0914
  514MOL0     H69351  11.756   3.023   1.591 -1.9329 -1.1324  0.3715
  514MOL0     H69352  12.211   2.845   1.551  0.1172  2.2677  1.9626
  514MOL0     H69353  12.418   2.916   1.624 -0.5299 -2.1934 -0.5400
  514MOL0     H69354  12.624   3.082   1.695 -2.4375 -0.2719  0.0394
  514MOL0     H69355  12.661   2.941   1.585 -0.8572  0.1931 -0.3196
  514MOL0     H69356  12.802   3.211   1.584  0.6017 -0.3801  1.6367
  514MOL0     H69357  12.876   3.069   1.646  1.5661 -1.7955 -1.5701
  514MOL0     H69358  12.882   2.974   1.407  0.9360 -0.8904  1.1763
  514MOL0     H69359  12.800   3.131   1.362  1.5352  0.0080 -1.2381
  514MOL0     H69360  12.990   3.255   1.443  1.9017 -0.2107 -0.2618
  514MOL0     H69361  13.040   3.152   1.319  1.4858  1.9010  1.2153
  514MOL0     H69362  13.064   3.101   1.611 -1.8685  1.1908 -0.6370
  514MOL0     H69363  13.201   3.164   1.517  0.4478  0.2923 -3.0914
  514MOL0     H69364  13.077   2.886   1.478  0.4211 -0.4486  2.3830
  514MOL0     H69365  13.203   2.967   1.374  1.0199 -3.0138 -0.0197
  514MOL0     H69366  13.240   2.803   1.601 -2.0351  0.9163  0.7339
  514MOL0     H69367  13.236   2.953   1.677  0.3401  0.0618  0.9467
  514MOL0     H69368  13.460   2.867   1.625  0.9093  1.3210  0.5218
  514MOL0     H69369  13.439   2.877   1.453 -0.5690 -0.0754 -0.0754
  514MOL0     H69370  12.431   3.211   1.307  1.1064 -0.6781  0.3492
  514MOL0     H69371  12.208   3.148   1.252 -2.3550  0.0073  1.7477
  514MOL0     H69372  11.893   2.833   1.230  1.6100 -0.7508  1.1248
  514MOL0     H69373  11.661   2.765   1.181  0.8816 -0.1705 -0.2351
  514MOL0     H69374  10.414   2.638   0.460 -0.0039 -0.1879 -0.9006
  514MOL0     H69375  10.188   2.581   0.456 -3.8713  1.3572 -0.3725
  514MOL0     H69376   9.805   2.639   0.279  2.1607  3.0208 -0.1279
  514MOL0     H69377   9.577   2.559   0.241 -0.3272 -1.5651  2.4594
  514MOL0     H69378   9.375   2.848   0.165  0.3297 -3.3350 -0.8297
  514MOL0     H69379   9.263   2.877   0.299  0.5787  0.9375 -1.5473
  514MOL0     H69380   9.089   2.737   0.185  0.7554 -2.1216 -0.1225
  514MOL0     H69381   9.219   2.664   0.085 -0.6068 -2.5220  2.9480
  514MOL0     H69382   9.242   2.868  -0.046 -0.3273 -1.6482 -0.1975
  514MOL0     H69383   9.161   2.948   0.085 -1.6213 -0.4700 -0.1415
  514MOL0     H69384   9.033   2.807  -0.149  1.1032  2.4785 -1.6824
  514MOL0     H69385   8.937   2.823   0.004  0.9401  0.8809  4.0777
  514MOL0     H69386   8.934   3.222  -0.125  0.5132  0.1740  0.7223
  514MOL0     H69387   9.431   2.897   0.455 -0.3889 -0.8218 -0.0646
  514MOL0     H69388   9.716   2.984   0.611  0.8489  0.7103 -0.4693
  514MOL0     H69389   9.697   3.085   0.468  1.4747 -0.0511  2.8230
  514MOL0     H69390   9.550   3.034   0.559 -0.8029 -1.1878 -0.6170
  515MOL0     O69391  10.738   9.412   6.544  0.9436 -0.4434  0.2983
  515MOL0     C69392  10.734   9.427   6.665  0.1925 -0.3299 -0.3177
  515MOL0     O69393  10.829   9.399   6.756 -0.5383  0.4588  0.4184
  515MOL0     C69394  10.951   9.356   6.712  0.1882 -0.5717  0.0373
  515MOL0     C69395  11.072   9.437   6.728 -0.6288  0.2090  0.5643
  515MOL0     C69396  11.194   9.388   6.706 -0.1569  0.2824  0.1381
  515MOL0     C69397  11.200   9.252   6.670  0.5827 -1.1302  0.4337
  515MOL0     O69398  11.310   9.179   6.651 -0.6333  0.2188 -0.8480
  515MOL0     C69399  11.440   9.254   6.667 -0.1477  0.0753  0.0415
  515MOL0     C69400  11.556   9.159   6.653  0.6656  0.1058 -0.2951
  515MOL0     C69401  11.696   9.221   6.644  0.3351 -0.1360  0.6905
  515MOL0     C69402  11.810   9.113   6.656 -0.1558  0.7492  0.6826
  515MOL0     C69403  11.953   9.162   6.635 -0.0937 -0.0838 -0.4237
  515MOL0     C69404  12.046   9.040   6.649 -0.7755 -0.2033  0.1131
  515MOL0     C69405  12.065   8.991   6.801 -0.1107 -0.3113  0.8930
  515MOL0     C69406  12.117   8.849   6.793 -0.7187 -0.3348  0.2950
  515MOL0     N69407  12.029   8.745   6.727 -0.3556  0.0417 -0.4885
  515MOL0     C69408  11.909   8.721   6.795  0.2235  0.6346  1.0612
  515MOL0     C69409  11.872   8.603   6.747 -0.8823 -0.2051 -0.6651
  515MOL0     C69410  11.745   8.534   6.769 -0.3027  0.0772 -0.0305
  515MOL0     C69411  11.630   8.639   6.797 -1.0060  0.0439  0.0445
  515MOL0     C69412  11.498   8.570   6.827  0.3555  0.1633  0.8356
  515MOL0     C69413  11.380   8.670   6.821  0.8093 -0.6558 -0.0785
  515MOL0     O69414  11.253   8.609   6.852  0.2697 -0.0742  0.1155
  515MOL0     C69415  11.151   8.675   6.787 -0.0181  0.4464  0.1704
  515MOL0     C69416  11.092   8.793   6.837 -0.9975 -0.3743  0.3410
  515MOL0     C69417  10.981   8.843   6.776  0.1609 -0.0285 -1.1464
  515MOL0     C69418  10.910   8.773   6.683 -1.2746  0.0689  0.0343
  515MOL0     C69419  10.778   8.822   6.635 -0.5505 -0.1351  0.0290
  515MOL0     O69420  10.731   8.933   6.688  0.3176 -1.1126  0.0772
  515MOL0     C69421  10.619   8.986   6.634  0.6642 -0.0346 -0.2795
  515MOL0     C69422  10.499   8.993   6.714  0.2157  0.0754  0.8527
  515MOL0     C69423  10.382   9.043   6.647  0.1969  0.3985 -0.2661
  515MOL0     C69424  10.383   9.099   6.517  0.0913 -0.2741 -0.0746
  515MOL0     O69425  10.271   9.149   6.459  0.6345  0.0491  0.6953
  515MOL0     C69426  10.146   9.162   6.530  0.6794  0.1162  0.6706
  515MOL0     C69427  10.042   9.231   6.441 -0.1936  0.0104 -0.9259
  515MOL0     C69428   9.896   9.212   6.496  0.1218 -0.2592 -1.0920
  515MOL0     C69429   9.821   9.129   6.396  0.3165 -0.5626  0.3207
  515MOL0     C69430   9.667   9.145   6.412 -0.2246  0.1709  0.2364
  515MOL0     C69431   9.575   9.154   6.277  0.6751 -1.0948  0.4711
  515MOL0     C69432   9.580   9.025   6.190  0.6176  0.2115  0.3317
  515MOL0     C69433   9.521   9.047   6.048 -0.3992 -0.1314  0.5255
  515MOL0    Cl69434   9.631   9.149   5.933  0.0933 -0.0495 -0.0838
  515MOL0     C69435  10.505   9.085   6.443  0.3361  0.0902 -0.3893
  515MOL0     C69436  10.622   9.034   6.502 -0.2479  0.0917 -0.2168
  515MOL0     O69437  10.733   8.762   6.536  0.2874  0.3642 -0.7994
  515MOL0     C69438  10.973   8.655   6.636  0.5347 -0.4644 -0.1029
  515MOL0     C69439  11.094   8.609   6.686  0.2916 -0.1425 -0.2502
  515MOL0     N69440  11.955   8.564   6.643 -0.4632 -0.2975  0.4820
  515MOL0     N69441  12.052   8.646   6.634  0.0650 -0.4785 -1.1320
  515MOL0     C69442  11.079   9.168   6.652  0.0934 -0.0358  0.2748
  515MOL0     C69443  10.958   9.222   6.677  0.3149 -0.0560 -0.3861
  515MOL0     C69444  10.603   9.471   6.723 -0.0037  0.2316  0.5355
  515MOL0     C69445  10.491   9.463   6.651  0.3832 -0.9294  0.5629
  515MOL0     C69446  10.363   9.494   6.696 -0.0450  0.0669  0.1298
  515MOL0     C69447  10.342   9.540   6.830 -0.2168  0.6863 -0.2427
  515MOL0     O69448  10.210   9.533   6.883  0.4062 -0.0854 -0.7202
  515MOL0     C69449  10.189   9.589   7.021  0.1874  0.4349  0.3868
  515MOL0     C69450  10.059   9.535   7.071 -0.0563 -0.7119 -0.2915
  515MOL0     C69451   9.943   9.612   6.999 -0.0311 -0.2273 -0.4625
  515MOL0     C69452   9.921   9.753   7.060  1.0755  0.2149  0.1966
  515MOL0     C69453   9.796   9.818   7.033 -0.5516 -0.4207  0.1683
  515MOL0     C69454   9.690   9.864   7.006  0.0584  0.5588  0.0148
  515MOL0     C69455  10.456   9.558   6.900 -0.1025 -0.0402  0.0278
  515MOL0     C69456  10.583   9.523   6.855  0.2980  0.1694  0.2930
  515MOL0     C69457  10.688   9.548   6.955 -0.4096 -0.6214  0.4599
  515MOL0     H69458  11.065   9.538   6.766  1.0962  0.5310  0.1040
  515MOL0     H69459  11.283   9.444   6.732  0.7430 -1.4481  0.9967
  515MOL0     H69460  11.442   9.331   6.590 -2.0399  1.8683  1.6519
  515MOL0     H69461  11.464   9.309   6.759  2.0375  1.6969 -1.3862
  515MOL0     H69462  11.532   9.089   6.572 -2.2460 -2.8079  2.7659
  515MOL0     H69463  11.570   9.110   6.749  0.7780 -0.2695 -0.4995
  515MOL0     H69464  11.705   9.292   6.726 -0.1338  0.0136  0.6153
  515MOL0     H69465  11.698   9.284   6.554 -3.1033 -0.2595  0.3745
  515MOL0     H69466  11.802   9.064   6.753 -0.5373  0.8147  0.6863
  515MOL0     H69467  11.782   9.038   6.582 -2.1466  2.1711 -0.1080
  515MOL0     H69468  11.969   9.209   6.537  2.8158 -0.3120 -0.1480
  515MOL0     H69469  11.988   9.232   6.711 -0.9921 -0.7541  0.6347
  515MOL0     H69470  12.014   8.958   6.584  1.4977 -0.0391 -1.3154
  515MOL0     H69471  12.143   9.071   6.610 -0.8658 -1.3026 -1.0554
  515MOL0     H69472  11.983   9.000   6.873 -0.4894 -1.0885  0.5824
  515MOL0     H69473  12.149   9.043   6.847 -1.1895  0.7055  1.7701
  515MOL0     H69474  12.209   8.847   6.734  0.2638  2.4900  1.5674
  515MOL0     H69475  12.157   8.811   6.888  3.5834 -2.1018 -1.9579
  515MOL0     H69476  11.857   8.781   6.869 -1.4988  1.3904 -0.6502
  515MOL0     H69477  11.732   8.485   6.672  2.2928  1.0408 -0.9514
  515MOL0     H69478  11.753   8.459   6.849 -1.0774  1.4821  1.4228
  515MOL0     H69479  11.662   8.689   6.889 -0.2121 -3.8747  2.1515
  515MOL0     H69480  11.617   8.712   6.718  0.2258  0.0702 -0.1665
  515MOL0     H69481  11.510   8.510   6.917  4.6417 -2.8074 -1.3335
  515MOL0     H69482  11.485   8.490   6.753  0.0011  0.2028  0.8555
  515MOL0     H69483  11.373   8.715   6.721 -1.1482 -3.5750 -1.4070
  515MOL0     H69484  11.397   8.754   6.889 -0.4436  1.7878 -2.5587
  515MOL0     H69485  11.128   8.842   6.927 -3.0783  0.3324  0.8288
  515MOL0     H69486  10.936   8.934   6.816  2.3767  0.1853  1.0969
  515MOL0     H69487  10.491   8.971   6.819 -0.9698  0.6194  0.8968
  515MOL0     H69488  10.295   9.044   6.712  1.0917  2.5006  0.9975
  515MOL0     H69489  10.120   9.060   6.561  1.0217  0.5446  2.4585
  515MOL0     H69490  10.148   9.226   6.618  0.8463 -1.0321  1.5367
  515MOL0     H69491  10.075   9.335   6.446  1.0642 -0.4195  2.2722
  515MOL0     H69492  10.057   9.189   6.341 -2.2229 -2.5765 -0.2562
  515MOL0     H69493   9.903   9.164   6.594  0.1999 -1.4096 -1.6371
  515MOL0     H69494   9.847   9.308   6.512  1.5307  0.3062  0.1682
  515MOL0     H69495   9.852   9.024   6.389 -1.4185 -0.9935 -2.0681
  515MOL0     H69496   9.852   9.156   6.295  0.9713 -2.5652 -0.0677
  515MOL0     H69497   9.647   9.235   6.470  1.2158  1.3694 -1.0348
  515MOL0     H69498   9.635   9.066   6.481 -0.2502 -0.4379 -0.4654
  515MOL0     H69499   9.472   9.178   6.307  0.2421 -4.1126  1.7626
  515MOL0     H69500   9.614   9.237   6.218  0.4454  0.4108  2.3263
  515MOL0     H69501   9.510   8.958   6.240 -2.6580  0.9414 -2.8912
  515MOL0     H69502   9.684   8.991   6.188 -0.0940 -2.0659 -1.0405
  515MOL0     H69503   9.515   8.949   6.001  0.8187  1.0872 -2.4055
  515MOL0     H69504   9.419   9.082   6.065  0.0349  1.1158  0.6776
  515MOL0     H69505  10.509   9.109   6.337  1.4987 -1.4993 -0.7414
  515MOL0     H69506  10.710   9.024   6.439 -0.9706  1.3236 -1.4804
  515MOL0     H69507  10.946   8.600   6.547 -0.2791  0.5481 -0.5027
  515MOL0     H69508  11.131   8.519   6.637  1.2348  0.0442  0.0874
  515MOL0     H69509  11.094   9.063   6.631  1.3415  0.1859 -0.0454
  515MOL0     H69510  10.866   9.164   6.672  0.4232 -0.2211 -0.4594
  515MOL0     H69511  10.486   9.421   6.551 -1.0725 -0.5956  0.4678
  515MOL0     H69512  10.279   9.462   6.634 -1.0671 -0.6807  1.8421
  515MOL0     H69513  10.201   9.697   7.016  0.3813  0.3519 -2.3364
  515MOL0     H69514  10.264   9.541   7.084  0.8519 -1.8204 -1.9535
  515MOL0     H69515  10.037   9.544   7.178 -2.3381 -0.1647 -0.7564
  515MOL0     H69516  10.052   9.428   7.048 -0.1655 -0.3445 -2.1630
  515MOL0     H69517   9.857   9.544   6.992  0.7022 -1.0215 -4.1027
  515MOL0     H69518   9.957   9.633   6.892 -0.6989 -0.2249 -0.5542
  515MOL0     H69519   9.945   9.759   7.167 -0.0851  1.2542  0.4177
  515MOL0     H69520  10.003   9.812   7.020  1.5662  0.4569  1.4881
  515MOL0     H69521   9.593   9.906   6.985  0.6214  2.2748  0.6422
  515MOL0     H69522  10.442   9.592   7.002 -3.9122  0.8883 -0.6667
  515MOL0     H69523  10.724   9.449   6.981  2.1254 -0.6307 -2.5002
  515MOL0     H69524  10.767   9.600   6.899 -0.7731 -2.6551 -2.1121
  515MOL0     H69525  10.655   9.609   7.040 -1.0311  0.3981 -0.4889
  516MOL0     O69526   9.176   8.835   1.966  0.0270 -0.1664 -0.0485
  516MOL0     C69527   9.191   8.717   2.000 -0.3388 -0.0172 -0.4590
  516MOL0     O69528   9.306   8.663   2.024  0.0584 -0.1354 -0.2124
  516MOL0     C69529   9.426   8.739   2.026  0.2170 -0.6998 -0.5713
  516MOL0     C69530   9.540   8.692   1.961  0.8326 -0.5871  0.7540
  516MOL0     C69531   9.660   8.769   1.967 -0.9828  1.0907 -0.3390
  516MOL0     C69532   9.665   8.886   2.042  0.4862 -0.0706 -0.3876
  516MOL0     O69533   9.776   8.962   2.044  0.4286 -0.3773  0.8475
  516MOL0     C69534   9.889   8.912   2.116  0.2766 -0.2119  1.1010
  516MOL0     C69535  10.011   8.940   2.040 -0.1055 -0.1551  0.5728
  516MOL0     C69536  10.117   8.861   2.097 -0.4435  1.0357 -0.2789
  516MOL0     C69537  10.237   8.856   2.006  0.4416 -0.6630  0.5560
  516MOL0     C69538  10.363   8.770   2.063 -0.4721  0.1630  0.4346
  516MOL0     C69539  10.479   8.777   1.965 -0.3724  0.5495 -0.4570
  516MOL0     C69540  10.601   8.680   2.002 -0.4883 -0.0198 -0.4898
  516MOL0     C69541  10.669   8.717   2.135 -0.5249  0.2664 -0.3867
  516MOL0     N69542  10.807   8.666   2.135 -0.5297 -0.5676  0.0311
  516MOL0     C69543  10.840   8.545   2.183  0.3443  0.2629  0.5072
  516MOL0     C69544  10.974   8.552   2.194 -0.8907 -0.0128 -0.1762
  516MOL0     C69545  11.069   8.444   2.239 -0.7818 -0.6513  0.3139
  516MOL0     C69546  11.220   8.467   2.209 -0.6285 -0.8086 -0.2570
  516MOL0     C69547  11.311   8.388   2.295 -1.0973  0.3961 -0.8095
  516MOL0     C69548  11.316   8.430   2.447  0.4208  0.1324 -0.0221
  516MOL0     O69549  11.301   8.576   2.482  0.3380 -0.2187 -0.4054
  516MOL0     C69550  11.396   8.657   2.539  0.5141  0.7795  0.6005
  516MOL0     C69551  11.373   8.792   2.541  0.0534  0.3146 -0.5759
  516MOL0     C69552  11.461   8.880   2.597  0.3170  0.2830 -0.1488
  516MOL0     C69553  11.589   8.829   2.636 -0.0199 -0.3149 -0.7747
  516MOL0     C69554  11.691   8.915   2.687 -0.2665  0.1694  0.3611
  516MOL0     O69555  11.818   8.874   2.658 -0.7329 -0.0712 -0.1269
  516MOL0     C69556  11.920   8.960   2.677  0.0444 -0.3615 -0.1262
  516MOL0     C69557  11.961   8.995   2.803  0.1398 -0.1132  0.5209
  516MOL0     C69558  12.082   9.057   2.830 -0.5725 -0.5793 -1.3145
  516MOL0     C69559  12.166   9.088   2.727  0.1434 -0.7313  0.2818
  516MOL0     O69560  12.285   9.149   2.731  0.6495 -0.2736 -0.2381
  516MOL0     C69561  12.335   9.208   2.856 -0.1576 -0.7061 -0.5660
  516MOL0     C69562  12.462   9.297   2.820 -1.2884 -0.0501  1.2213
  516MOL0     C69563  12.434   9.409   2.717 -0.2405  0.5025  0.0279
  516MOL0     C69564  12.559   9.479   2.666 -1.1166  0.5525 -0.1670
  516MOL0     C69565  12.515   9.583   2.571 -0.7082 -0.7657  0.5021
  516MOL0     C69566  12.426   9.691   2.651  0.1071  0.2886  0.3086
  516MOL0     C69567  12.434   9.830   2.605  0.5328 -0.8346  0.1516
  516MOL0     C69568  12.405   9.844   2.456  1.4188 -1.1329  0.2191
  516MOL0    Cl69569  12.555   9.878   2.370  0.2184 -0.1767  0.3583
  516MOL0     C69570  12.128   9.052   2.594 -0.1761  0.5201  1.0042
  516MOL0     C69571  12.008   8.982   2.564  0.4025  0.0069 -0.4530
  516MOL0     O69572  11.661   9.024   2.738 -0.6263  0.0926  0.1212
  516MOL0     C69573  11.614   8.688   2.628 -0.8739 -0.7993 -0.5198
  516MOL0     C69574  11.520   8.606   2.583 -0.6799 -0.3308  0.8878
  516MOL0     N69575  11.011   8.676   2.145  0.3942  0.9744 -0.3251
  516MOL0     N69576  10.914   8.746   2.108  0.4140 -0.1222  0.2500
  516MOL0     C69577   9.559   8.923   2.123 -1.4221 -0.6777  0.4120
  516MOL0     C69578   9.436   8.856   2.112  0.2432 -0.6588 -0.0443
  516MOL0     C69579   9.078   8.622   2.024  0.0806  0.3968  0.4202
  516MOL0     C69580   9.112   8.494   2.078 -0.0513 -0.0688 -0.0096
  516MOL0     C69581   9.007   8.408   2.112  1.2445  0.3501  0.7247
  516MOL0     C69582   8.867   8.427   2.087 -0.2570  1.1555  0.1150
  516MOL0     O69583   8.779   8.326   2.128 -0.5541  1.1293 -0.2167
  516MOL0     C69584   8.639   8.335   2.098  0.1607 -0.1679 -0.1175
  516MOL0     C69585   8.561   8.234   2.179  0.7973  0.0836 -0.0573
  516MOL0     C69586   8.603   8.093   2.140 -0.1791  0.5107  0.0710
  516MOL0     C69587   8.564   7.991   2.243 -0.5568  0.5052 -0.1560
  516MOL0     C69588   8.421   8.002   2.280 -0.7755  0.7618 -0.0767
  516MOL0     C69589   8.312   8.025   2.318  0.6280 -0.0209 -0.1291
  516MOL0     C69590   8.847   8.548   2.018  0.2675  0.5221 -0.1395
  516MOL0     C69591   8.939   8.646   1.988 -1.0206 -0.6260  0.7276
  516MOL0     C69592   8.882   8.775   1.935 -0.3854  0.5505 -0.3743
  516MOL0     H69593   9.530   8.594   1.915 -1.3178  0.5116 -1.3409
  516MOL0     H69594   9.748   8.726   1.920 -1.3329 -0.3534  0.2766
  516MOL0     H69595   9.893   8.951   2.218 -1.0881 -1.4879  1.6897
  516MOL0     H69596   9.884   8.803   2.127 -4.1279 -0.6577 -2.3113
  516MOL0     H69597  10.027   9.048   2.041 -1.7707  0.1845 -1.1247
  516MOL0     H69598   9.999   8.916   1.933 -2.9349  1.2726  0.4787
  516MOL0     H69599  10.099   8.753   2.100  2.2371  0.5277 -0.0133
  516MOL0     H69600  10.148   8.891   2.197 -1.0068 -0.1711  0.2833
  516MOL0     H69601  10.208   8.811   1.911  0.3657 -0.3734  0.4416
  516MOL0     H69602  10.268   8.959   1.984 -1.9618  0.3064  1.4182
  516MOL0     H69603  10.370   8.818   2.162 -1.1643  0.1668  0.4826
  516MOL0     H69604  10.342   8.667   2.092 -1.5036  0.0677 -0.5958
  516MOL0     H69605  10.436   8.746   1.870 -1.4436 -1.4003  0.5997
  516MOL0     H69606  10.524   8.877   1.966  2.9153 -0.7163  2.3970
  516MOL0     H69607  10.679   8.679   1.926  0.6271 -4.1647  0.4349
  516MOL0     H69608  10.575   8.574   2.003 -0.5593 -0.0723 -2.8053
  516MOL0     H69609  10.676   8.825   2.123  0.4932  0.3884  1.0379
  516MOL0     H69610  10.613   8.691   2.225 -0.3285  2.1628  0.3170
  516MOL0     H69611  10.778   8.462   2.214  1.1301  0.4232  2.7061
  516MOL0     H69612  11.063   8.430   2.347  0.7467 -0.7172  0.4131
  516MOL0     H69613  11.035   8.357   2.182  0.9713 -0.5594 -0.9335
  516MOL0     H69614  11.238   8.432   2.107  0.3085 -0.5041 -0.2057
  516MOL0     H69615  11.238   8.575   2.216  0.8229 -1.0290 -0.1786
  516MOL0     H69616  11.412   8.393   2.254 -0.4836 -4.2254 -0.3843
  516MOL0     H69617  11.279   8.284   2.298  0.4965 -0.2377 -3.2200
  516MOL0     H69618  11.408   8.394   2.493  0.0948  2.2108  2.4280
  516MOL0     H69619  11.229   8.373   2.482 -0.7874 -1.1558 -4.4250
  516MOL0     H69620  11.284   8.830   2.493  1.1454  2.5505 -0.9507
  516MOL0     H69621  11.441   8.986   2.588  1.6730  0.7246  1.4185
  516MOL0     H69622  11.894   8.972   2.885 -2.0772  0.5271 -1.0044
  516MOL0     H69623  12.120   9.070   2.931  0.8912 -0.9621 -1.7853
  516MOL0     H69624  12.262   9.280   2.893  0.7664  0.1972 -0.4629
  516MOL0     H69625  12.361   9.130   2.929 -3.1551 -1.2673  0.0489
  516MOL0     H69626  12.491   9.347   2.912  1.4798  0.7390  0.0161
  516MOL0     H69627  12.549   9.242   2.783 -1.9861 -0.3898  0.0201
  516MOL0     H69628  12.376   9.363   2.637 -0.9033 -1.3311  1.4721
  516MOL0     H69629  12.367   9.469   2.779  1.1891  0.3818  1.8083
  516MOL0     H69630  12.631   9.407   2.625  0.1648  2.1876 -0.9331
  516MOL0     H69631  12.607   9.512   2.758 -4.3513 -2.3670  2.8775
  516MOL0     H69632  12.455   9.536   2.492 -2.3700 -0.3666  1.4615
  516MOL0     H69633  12.606   9.627   2.530 -1.0555 -0.0029  0.5312
  516MOL0     H69634  12.323   9.655   2.647 -0.5807  2.0937  0.8482
  516MOL0     H69635  12.454   9.695   2.756 -3.6584  2.3686  1.4130
  516MOL0     H69636  12.527   9.881   2.632 -0.7201  1.4458  0.3962
  516MOL0     H69637  12.355   9.886   2.656  1.4645 -0.4234  1.1675
  516MOL0     H69638  12.348   9.759   2.420 -1.4198  0.2993  1.0339
  516MOL0     H69639  12.348   9.936   2.442  2.5202 -0.5469 -0.5843
  516MOL0     H69640  12.196   9.086   2.516  0.9070 -4.1366 -0.3718
  516MOL0     H69641  11.982   8.937   2.468  0.7907  1.3455 -1.2102
  516MOL0     H69642  11.702   8.646   2.676 -0.0199  2.6614  1.2693
  516MOL0     H69643  11.538   8.501   2.564 -2.6419 -0.4264 -0.8178
  516MOL0     H69644   9.576   9.005   2.192 -2.2269 -0.1346 -0.0198
  516MOL0     H69645   9.355   8.895   2.173 -1.5563 -3.2764 -0.6048
  516MOL0     H69646   9.215   8.476   2.108  0.0502  0.7256  0.1218
  516MOL0     H69647   9.016   8.312   2.163 -0.6013  0.8617  2.1612
  516MOL0     H69648   8.635   8.322   1.990 -1.5533  1.3861 -0.3065
  516MOL0     H69649   8.604   8.435   2.126 -2.1213 -0.6263 -1.1206
  516MOL0     H69650   8.454   8.241   2.156  0.2424 -1.9969  1.5685
  516MOL0     H69651   8.561   8.252   2.287 -0.2164 -0.4594  0.0486
  516MOL0     H69652   8.710   8.078   2.125 -0.7318 -0.2932 -4.3469
  516MOL0     H69653   8.557   8.073   2.043  0.4869  0.3788 -0.2218
  516MOL0     H69654   8.582   7.895   2.194 -1.3585  1.2986 -2.0988
  516MOL0     H69655   8.636   8.006   2.323  0.3367 -1.4296 -0.5427
  516MOL0     H69656   8.209   8.043   2.342  0.8480  1.2523 -0.0694
  516MOL0     H69657   8.745   8.575   1.993 -0.6824 -0.6307  2.1818
  516MOL0     H69658   8.776   8.771   1.912 -0.1252 -0.5061 -1.5189
  516MOL0     H69659   8.901   8.859   2.003 -1.5077  0.5619 -0.0588
  516MOL0     H69660   8.930   8.788   1.837 -1.2995  0.7058 -0.8059
  517MOL0     O69661  10.773   5.450   9.506 -0.0004 -0.2095  0.4668
  517MOL0     C69662  10.723   5.458   9.618 -0.7466 -0.6163 -0.0722
  517MOL0     O69663  10.785   5.501   9.730 -0.2429 -0.8292 -0.0015
  517MOL0     C69664  10.915   5.546   9.723 -0.4360  0.2404 -0.2069
  517MOL0     C69665  10.974   5.618   9.612  0.2331  0.8674 -0.2170
  517MOL0     C69666  11.101   5.671   9.623  0.3069  0.6014 -0.2916
  517MOL0     C69667  11.179   5.659   9.741  0.4665 -0.5181 -0.3366
  517MOL0     O69668  11.299   5.731   9.743 -0.1455 -0.5845 -0.0606
  517MOL0     C69669  11.409   5.661   9.802 -0.4569 -0.2025  0.3939
  517MOL0     C69670  11.483   5.583   9.699 -0.7964  0.4084  0.0695
  517MOL0     C69671  11.627   5.557   9.747  0.3769  0.0755 -0.1689
  517MOL0     C69672  11.643   5.431   9.839  0.0185 -0.2469  0.3463
  517MOL0     C69673  11.788   5.405   9.900 -0.2061 -0.5999  0.4227
  517MOL0     C69674  11.816   5.265   9.958 -0.4211  0.6735 -0.4098
  517MOL0     C69675  11.948   5.255  10.032 -0.0547 -0.8865  0.4633
  517MOL0     C69676  12.065   5.309   9.948 -0.2382 -0.1860  0.2910
  517MOL0     N69677  12.192   5.282  10.024  0.0217  0.4740  0.1208
  517MOL0     C69678  12.246   5.157  10.051 -0.0464  0.1922  0.0803
  517MOL0     C69679  12.351   5.176  10.138 -0.4534 -1.5993 -0.4327
  517MOL0     C69680  12.453   5.079  10.191 -0.1305  0.5538  0.2828
  517MOL0     C69681  12.566   5.058  10.086  0.3056 -0.1977  0.0835
  517MOL0     C69682  12.660   5.184  10.082 -0.4682 -0.4965  0.2284
  517MOL0     C69683  12.774   5.176   9.976  0.7815 -0.2152  0.1412
  517MOL0     O69684  12.844   5.056   9.998 -0.6310  0.4942 -0.4584
  517MOL0     C69685  12.970   5.032   9.959 -0.1790 -0.0198 -0.4378
  517MOL0     C69686  13.025   4.910  10.004  1.3610  0.3148 -0.9727
  517MOL0     C69687  13.160   4.877   9.996  0.2281  0.1316  0.3320
  517MOL0     C69688  13.242   4.959   9.914  0.3193 -0.0707  0.2507
  517MOL0     C69689  13.385   4.931   9.906  0.1057 -0.1985  0.2033
  517MOL0     O69690  13.430   4.810   9.953  0.4052 -0.3743  0.5741
  517MOL0     C69691  13.555   4.765   9.939  0.5112  0.0977  0.2017
  517MOL0     C69692  13.618   4.789   9.817 -0.1219  0.7059  0.5001
  517MOL0     C69693  13.761   4.771   9.806  1.0595 -0.4394  0.6157
  517MOL0     C69694  13.834   4.717   9.909 -0.2706  0.6610 -0.5522
  517MOL0     O69695  13.963   4.676   9.917 -0.0595 -0.0867 -0.0712
  517MOL0     C69696  14.021   4.614   9.797 -0.8627 -0.2478 -0.3093
  517MOL0     C69697  14.174   4.614   9.813  0.6002 -0.4033  1.2026
  517MOL0     C69698  14.254   4.540   9.703 -0.2137 -0.3294  0.7189
  517MOL0     C69699  14.382   4.470   9.757  0.3540 -0.2143 -0.3845
  517MOL0     C69700  14.446   4.405   9.643  0.4691 -0.2571 -0.0256
  517MOL0     C69701  14.589   4.377   9.692  0.5963 -0.7727  0.1796
  517MOL0     C69702  14.646   4.273   9.607 -0.4998 -0.3883  0.0781
  517MOL0     C69703  14.799   4.298   9.586 -0.8577 -0.0676 -0.4170
  517MOL0    Cl69704  14.832   4.169   9.472 -0.2728  0.1058  0.4448
  517MOL0     C69705  13.769   4.693  10.034  0.3992  0.2025  0.5188
  517MOL0     C69706  13.632   4.722  10.046  0.2563 -0.4377  0.5206
  517MOL0     O69707  13.458   5.022   9.870  0.1412 -0.1677 -0.5874
  517MOL0     C69708  13.191   5.081   9.866  0.2288 -0.1440 -0.1471
  517MOL0     C69709  13.053   5.115   9.882  1.4394  0.5636  0.0088
  517MOL0     N69710  12.339   5.319  10.168  0.4832  0.0259  0.2445
  517MOL0     N69711  12.265   5.378  10.089 -0.6612  0.0717 -1.2793
  517MOL0     C69712  11.121   5.604   9.851  1.1072 -0.2900 -0.9305
  517MOL0     C69713  11.001   5.528   9.833  0.0334 -0.3851  0.2972
  517MOL0     C69714  10.583   5.420   9.636  0.1748  0.6876 -0.6333
  517MOL0     C69715  10.531   5.394   9.772  0.3466  0.4174 -0.1661
  517MOL0     C69716  10.396   5.366   9.793  0.9819 -0.6131 -0.8048
  517MOL0     C69717  10.318   5.336   9.684 -0.0368 -0.1272  0.8322
  517MOL0     O69718  10.184   5.307   9.686  0.0689 -0.3811 -0.0328
  517MOL0     C69719  10.125   5.262   9.809  0.0309 -0.6157  0.3849
  517MOL0     C69720   9.999   5.190   9.767  0.6192 -0.3213  0.0917
  517MOL0     C69721   9.909   5.288   9.699  0.0154  0.9372 -0.0998
  517MOL0     C69722   9.768   5.298   9.757  0.7848 -0.5323 -0.4802
  517MOL0     C69723   9.683   5.178   9.749 -0.9025 -0.5550 -0.9653
  517MOL0     C69724   9.609   5.088   9.732 -0.1717  0.8190  0.0281
  517MOL0     C69725  10.362   5.357   9.553  0.1502 -0.0261  0.2937
  517MOL0     C69726  10.491   5.397   9.532 -1.1047 -0.1561  0.4987
  517MOL0     C69727  10.531   5.399   9.386 -0.4343  0.0039  0.1930
  517MOL0     H69728  10.921   5.651   9.523  0.1061  1.6299  0.1348
  517MOL0     H69729  11.140   5.723   9.536 -1.9624 -1.3676 -2.6586
  517MOL0     H69730  11.480   5.734   9.842 -0.1478  0.7876 -1.8349
  517MOL0     H69731  11.378   5.601   9.888 -0.1354 -2.2020 -0.8211
  517MOL0     H69732  11.486   5.638   9.605  0.1948 -1.0275 -0.7720
  517MOL0     H69733  11.428   5.492   9.678 -0.9675 -0.6391  4.2250
  517MOL0     H69734  11.664   5.647   9.796  0.7903 -1.1475  1.8665
  517MOL0     H69735  11.686   5.534   9.658  1.5148 -1.2027  0.8684
  517MOL0     H69736  11.564   5.427   9.915  0.0711 -0.8444  0.3787
  517MOL0     H69737  11.624   5.345   9.775  4.2659 -0.9060 -0.3266
  517MOL0     H69738  11.857   5.426   9.817 -2.3909  0.1017 -1.2951
  517MOL0     H69739  11.822   5.486   9.965  1.8301  0.3989 -1.7281
  517MOL0     H69740  11.732   5.247  10.025  0.4474  3.3057  1.5685
  517MOL0     H69741  11.816   5.203   9.868 -0.4807 -0.1866  0.1730
  517MOL0     H69742  11.975   5.153  10.062 -0.6721 -1.1771  0.0569
  517MOL0     H69743  11.940   5.311  10.126  1.0956 -0.5393  0.3601
  517MOL0     H69744  12.072   5.265   9.848 -1.5803  3.1151 -1.4230
  517MOL0     H69745  12.050   5.413   9.920 -0.9189 -0.5258 -0.6653
  517MOL0     H69746  12.213   5.064  10.007  0.3448  0.1126 -0.0542
  517MOL0     H69747  12.501   5.118  10.281 -1.4265 -0.1770  1.3353
  517MOL0     H69748  12.401   4.984  10.210  1.9411 -0.2292  2.5423
  517MOL0     H69749  12.622   4.966  10.107  0.8997  0.4140  1.3116
  517MOL0     H69750  12.522   5.049   9.987  0.4334  0.8400 -0.0848
  517MOL0     H69751  12.703   5.210  10.179  2.3946 -0.8192 -0.8423
  517MOL0     H69752  12.600   5.264  10.039 -0.3785  1.2591  3.1621
  517MOL0     H69753  12.837   5.263   9.998 -0.3385  0.6972 -0.1727
  517MOL0     H69754  12.741   5.174   9.872  1.5199  1.8385 -0.1855
  517MOL0     H69755  12.946   4.850  10.046 -1.1805  2.8005 -1.8939
  517MOL0     H69756  13.197   4.787  10.042 -0.0155 -0.3942 -0.4899
  517MOL0     H69757  13.565   4.835   9.734  2.2131  0.6363 -1.1176
  517MOL0     H69758  13.804   4.796   9.709 -1.5328  3.2167  0.2202
  517MOL0     H69759  13.993   4.508   9.806 -0.1021 -0.4316 -0.0085
  517MOL0     H69760  13.996   4.651   9.697  0.4591 -1.1695 -1.0204
  517MOL0     H69761  14.200   4.720   9.814  1.8336 -0.5582 -2.2906
  517MOL0     H69762  14.184   4.555   9.904  0.8836 -0.2467  1.2737
  517MOL0     H69763  14.186   4.471   9.651 -2.7672  0.9652  2.1517
  517MOL0     H69764  14.284   4.611   9.626  0.3228 -0.0446  1.1901
  517MOL0     H69765  14.363   4.398   9.837  1.8863 -1.2639 -0.9400
  517MOL0     H69766  14.441   4.546   9.807 -0.2014 -0.9257  1.4364
  517MOL0     H69767  14.432   4.453   9.546 -1.6345 -2.2048 -0.8051
  517MOL0     H69768  14.390   4.311   9.637 -0.1018  0.0579  0.2320
  517MOL0     H69769  14.647   4.468   9.680 -0.1092 -0.5381 -1.9754
  517MOL0     H69770  14.591   4.341   9.795 -4.0751 -0.4785  0.6040
  517MOL0     H69771  14.597   4.284   9.510 -0.8347  3.5002  0.4979
  517MOL0     H69772  14.626   4.175   9.652  1.2127  0.1201  2.1159
  517MOL0     H69773  14.827   4.400   9.558 -1.3799  0.4565  0.8320
  517MOL0     H69774  14.856   4.267   9.674  0.6905  0.2575 -1.2676
  517MOL0     H69775  13.816   4.655  10.124  0.6021  0.7877  0.6632
  517MOL0     H69776  13.579   4.702  10.139 -0.9212  0.6492  0.1139
  517MOL0     H69777  13.261   5.145   9.814  0.9298 -1.2579 -0.6019
  517MOL0     H69778  13.004   5.200   9.836  0.4157  1.3676  2.4484
  517MOL0     H69779  11.168   5.621   9.947 -0.5326  0.5626 -0.2572
  517MOL0     H69780  10.953   5.486   9.921  0.0753 -0.4074  0.3093
  517MOL0     H69781  10.591   5.421   9.858 -2.0418  1.6942  1.1987
  517MOL0     H69782  10.360   5.352   9.895 -0.4615  1.9490 -0.8795
  517MOL0     H69783  10.107   5.348   9.874  2.1528  0.6088 -0.5670
  517MOL0     H69784  10.197   5.199   9.861 -0.0644 -1.1787 -0.1516
  517MOL0     H69785   9.946   5.126   9.838 -0.0919  0.4174  0.2492
  517MOL0     H69786  10.038   5.112   9.701  0.3946 -1.3740  1.1729
  517MOL0     H69787   9.902   5.255   9.595 -0.1829 -3.3068  1.0545
  517MOL0     H69788   9.957   5.386   9.701  0.9569  0.5111  2.4243
  517MOL0     H69789   9.778   5.327   9.861  0.3247  3.6294 -1.4195
  517MOL0     H69790   9.712   5.377   9.707  0.0304 -0.6738  0.1262
  517MOL0     H69791   9.552   4.998   9.722 -1.8899  1.9279 -0.5147
  517MOL0     H69792  10.293   5.326   9.475  0.0576 -0.1130  0.4104
  517MOL0     H69793  10.559   5.499   9.351  2.1097 -0.3855  0.9388
  517MOL0     H69794  10.613   5.329   9.369  0.7559  1.4181 -0.0431
  517MOL0     H69795  10.449   5.364   9.321  1.8257 -1.8481 -1.8469
  518MOL0     O69796   0.221   4.694  10.809 -0.7768 -0.2537 -0.1338
  518MOL0     C69797   0.249   4.733  10.927  0.7031  1.2678 -0.4383
  518MOL0     O69798   0.377   4.730  10.979 -0.4747 -0.5623  0.1043
  518MOL0     C69799   0.484   4.687  10.900 -0.2964 -0.9306  0.2633
  518MOL0     C69800   0.580   4.776  10.863  0.0597  0.2177  0.6828
  518MOL0     C69801   0.698   4.737  10.796  0.5588 -0.3801 -0.0359
  518MOL0     C69802   0.716   4.600  10.778 -0.4088  0.1113 -0.5726
  518MOL0     O69803   0.847   4.571  10.732  0.0138  0.1150  0.4591
  518MOL0     C69804   0.934   4.541  10.832  0.2034 -0.5363  0.3204
  518MOL0     C69805   1.053   4.633  10.813 -0.4939  0.5506 -0.6579
  518MOL0     C69806   1.155   4.586  10.919  0.4310  0.0438  0.0530
  518MOL0     C69807   1.291   4.657  10.874 -0.0573  0.3079  0.5369
  518MOL0     C69808   1.409   4.599  10.954  0.0760 -0.2338  0.6422
  518MOL0     C69809   1.545   4.667  10.899  0.3163 -0.0440  0.0044
  518MOL0     C69810   1.673   4.608  10.937  0.0833 -0.1296 -1.0841
  518MOL0     C69811   1.706   4.491  10.835  0.7920 -0.0956 -0.4904
  518MOL0     N69812   1.840   4.457  10.869 -0.7561 -0.0326  0.4798
  518MOL0     C69813   1.884   4.400  10.987  0.6630 -0.8035 -0.0335
  518MOL0     C69814   2.017   4.386  10.979 -0.3040 -0.8947  0.0368
  518MOL0     C69815   2.103   4.309  11.067  0.2011  1.7620 -0.5067
  518MOL0     C69816   2.256   4.331  11.070  0.5454 -0.3437 -0.5185
  518MOL0     C69817   2.273   4.457  11.133 -1.0328 -0.0447  0.1202
  518MOL0     C69818   2.429   4.454  11.149  0.3946 -0.6778  0.8202
  518MOL0     O69819   2.470   4.554  11.236  0.7697  0.7546 -0.2281
  518MOL0     C69820   2.597   4.606  11.230 -0.0380 -0.2908 -0.4256
  518MOL0     C69821   2.643   4.717  11.303  0.0756 -0.4152  0.7082
  518MOL0     C69822   2.772   4.763  11.316 -0.5924  0.0346 -0.0461
  518MOL0     C69823   2.874   4.689  11.248  0.5506 -0.2497 -0.7866
  518MOL0     C69824   3.008   4.732  11.257 -0.3140  0.1469  0.2243
  518MOL0     O69825   3.105   4.658  11.189 -0.5037  0.4563 -0.3184
  518MOL0     C69826   3.238   4.695  11.182  0.3309  0.2800  0.7413
  518MOL0     C69827   3.328   4.610  11.246  0.2921  0.0822  0.2569
  518MOL0     C69828   3.468   4.635  11.231 -0.4585 -0.5059  0.5658
  518MOL0     C69829   3.519   4.741  11.157  0.9321 -0.4433  0.2238
  518MOL0     O69830   3.656   4.743  11.130  0.5942  0.2802 -0.1601
  518MOL0     C69831   3.702   4.845  11.041  0.2552  0.0471  0.0138
  518MOL0     C69832   3.850   4.829  11.008 -0.9690 -0.8340 -1.0583
  518MOL0     C69833   3.952   4.845  11.120  0.5730 -0.8523 -0.7516
  518MOL0     C69834   4.095   4.808  11.078  0.7430  0.3797  0.3515
  518MOL0     C69835   4.122   4.660  11.107 -0.1432 -0.0797  0.6307
  518MOL0     C69836   4.242   4.624  11.018  0.3034 -0.0496 -0.4269
  518MOL0     C69837   4.369   4.673  11.081 -0.1484  0.4892  0.4151
  518MOL0     C69838   4.501   4.623  11.004  0.1440 -0.7843  0.3172
  518MOL0    Cl69839   4.502   4.690  10.839 -0.0227  0.0239  0.2325
  518MOL0     C69840   3.425   4.822  11.093  1.0395 -0.3621  0.1043
  518MOL0     C69841   3.286   4.795  11.102  0.1952 -0.5604  0.3790
  518MOL0     O69842   3.031   4.813  11.345 -0.0163 -1.0367  0.5558
  518MOL0     C69843   2.835   4.572  11.176  0.5526 -0.4352  0.3525
  518MOL0     C69844   2.701   4.537  11.175  0.0213  0.0775 -0.5125
  518MOL0     N69845   2.052   4.439  10.849  0.2744 -0.2143 -0.1946
  518MOL0     N69846   1.950   4.467  10.786 -0.0473  0.3687  0.5672
  518MOL0     C69847   0.615   4.508  10.806  0.9567  0.3968  0.6025
  518MOL0     C69848   0.498   4.554  10.867  0.2250  0.5231  0.3590
  518MOL0     C69849   0.132   4.766  11.013 -0.6174 -0.3667 -0.1617
  518MOL0     C69850   0.003   4.727  10.975 -0.0156 -0.4500  0.3906
  518MOL0     C69851  -0.108   4.740  11.064  0.0669  0.0671 -0.4950
  518MOL0     C69852  -0.093   4.785  11.195  0.3657 -1.0695  0.4121
  518MOL0     O69853  -0.186   4.769  11.295  0.4477 -0.8910 -0.1562
  518MOL0     C69854  -0.326   4.788  11.260  0.3711  0.2521 -0.8155
  518MOL0     C69855  -0.409   4.770  11.390  0.0422 -0.0209  0.3990
  518MOL0     C69856  -0.557   4.767  11.342  1.1014 -0.1509 -0.1621
  518MOL0     C69857  -0.647   4.703  11.447 -0.0485  0.6272  0.1375
  518MOL0     C69858  -0.782   4.668  11.397 -0.0996  0.2068 -0.9748
  518MOL0     C69859  -0.887   4.631  11.357 -0.1090  0.9363  0.6569
  518MOL0     C69860   0.028   4.849  11.221  0.0026 -0.4707 -0.3758
  518MOL0     C69861   0.143   4.838  11.141 -0.2163  0.2411  0.4266
  518MOL0     C69862   0.270   4.897  11.199 -0.6155 -0.1178 -0.4004
  518MOL0     H69863   0.568   4.879  10.894  2.9912  0.6477  0.6711
  518MOL0     H69864   0.783   4.799  10.771  0.2061  0.0043 -0.2982
  518MOL0     H69865   0.885   4.563  10.928 -3.0814 -1.6810 -0.9351
  518MOL0     H69866   0.973   4.439  10.823  2.0001  0.1251  0.2701
  518MOL0     H69867   1.028   4.738  10.829  0.8962  0.8056  0.0428
  518MOL0     H69868   1.095   4.601  10.717  0.7687 -2.3979  0.7364
  518MOL0     H69869   1.150   4.478  10.906 -0.3033  0.0029  0.5692
  518MOL0     H69870   1.149   4.611  11.025  1.2576  2.1969 -0.3650
  518MOL0     H69871   1.301   4.627  10.770 -2.0483  1.2016  0.0382
  518MOL0     H69872   1.287   4.765  10.891  0.5064  0.7167 -1.6456
  518MOL0     H69873   1.405   4.631  11.059  0.3826 -0.3740  0.6960
  518MOL0     H69874   1.401   4.490  10.950 -0.4865 -0.3117  2.7577
  518MOL0     H69875   1.528   4.668  10.791  0.1615  0.2341  0.0297
  518MOL0     H69876   1.538   4.770  10.936 -2.9791  0.5340 -1.8037
  518MOL0     H69877   1.659   4.584  11.042  1.5197 -0.3159 -0.9135
  518MOL0     H69878   1.749   4.687  10.932  0.0807  0.0466  0.9276
  518MOL0     H69879   1.648   4.402  10.861 -1.8032  1.6359  0.0005
  518MOL0     H69880   1.688   4.522  10.732 -1.1967 -0.0713 -0.1789
  518MOL0     H69881   1.833   4.387  11.082  0.1264 -0.4280 -0.2632
  518MOL0     H69882   2.052   4.313  11.164 -0.1157  2.9188 -0.7091
  518MOL0     H69883   2.088   4.203  11.043 -0.8452  1.7485  0.1142
  518MOL0     H69884   2.299   4.254  11.135  0.1772 -0.3682 -0.3050
  518MOL0     H69885   2.304   4.343  10.972  1.0947  0.6152 -0.1529
  518MOL0     H69886   2.218   4.462  11.228 -1.2732  2.3006 -0.0780
  518MOL0     H69887   2.238   4.543  11.075 -0.6913  1.1031  1.5585
  518MOL0     H69888   2.480   4.467  11.054 -1.2047 -0.9007 -0.0970
  518MOL0     H69889   2.459   4.362  11.199  0.7156 -1.3095 -0.5030
  518MOL0     H69890   2.563   4.762  11.361  0.0297  0.2445  0.1368
  518MOL0     H69891   2.784   4.854  11.374 -0.7304  0.5060 -0.7402
  518MOL0     H69892   3.298   4.516  11.290  0.6525 -0.1104  0.1007
  518MOL0     H69893   3.535   4.564  11.279 -1.4150 -0.8932  1.3463
  518MOL0     H69894   3.655   4.846  10.942 -3.0977  0.7199  1.4456
  518MOL0     H69895   3.675   4.943  11.083 -1.8407 -0.5449  0.1698
  518MOL0     H69896   3.856   4.728  10.967  1.9486 -1.4429  0.6135
  518MOL0     H69897   3.878   4.912  10.941 -1.2943  3.0714  3.1632
  518MOL0     H69898   3.944   4.944  11.164  0.2133 -0.9574 -0.5770
  518MOL0     H69899   3.925   4.782  11.206  0.4667  0.1049 -0.0717
  518MOL0     H69900   4.160   4.866  11.145  2.4144  0.0228 -0.8963
  518MOL0     H69901   4.113   4.836  10.974  0.3042  3.0330  0.9065
  518MOL0     H69902   4.040   4.595  11.076  0.7892 -0.2689 -1.7332
  518MOL0     H69903   4.129   4.652  11.215 -2.0267  1.0301  0.8741
  518MOL0     H69904   4.244   4.515  11.028 -3.0527 -0.1282  0.4592
  518MOL0     H69905   4.239   4.657  10.914 -0.1517  1.8792  0.1623
  518MOL0     H69906   4.368   4.644  11.187 -0.5098  1.1961  0.6142
  518MOL0     H69907   4.373   4.782  11.079  0.5866  0.4971  1.3145
  518MOL0     H69908   4.587   4.659  11.062 -0.6786  2.2283 -0.1602
  518MOL0     H69909   4.504   4.514  11.001  2.6027 -0.7563 -1.0955
  518MOL0     H69910   3.455   4.907  11.033  0.5170  1.0397  1.7623
  518MOL0     H69911   3.215   4.861  11.054  0.3715  0.3629  1.3422
  518MOL0     H69912   2.914   4.508  11.140  1.2415 -0.4461  1.8164
  518MOL0     H69913   2.681   4.443  11.126  1.4263 -2.4592  3.2983
  518MOL0     H69914   0.633   4.402  10.792  0.4858  0.2413  1.1122
  518MOL0     H69915   0.414   4.489  10.887 -1.1939  2.7182  2.0085
  518MOL0     H69916  -0.029   4.664  10.893 -3.9053  1.1010  0.5165
  518MOL0     H69917  -0.203   4.689  11.048 -0.7315  0.4971  2.2655
  518MOL0     H69918  -0.359   4.700  11.204  1.3762  0.2088 -1.3726
  518MOL0     H69919  -0.349   4.879  11.204 -1.4799  0.1282 -0.3145
  518MOL0     H69920  -0.396   4.858  11.454 -0.7768  1.0349 -0.8373
  518MOL0     H69921  -0.373   4.681  11.443  1.3709  0.0243 -0.4004
  518MOL0     H69922  -0.560   4.715  11.246  0.7118  0.8481 -0.7099
  518MOL0     H69923  -0.594   4.868  11.322  1.2751 -0.0863 -0.1552
  518MOL0     H69924  -0.603   4.615  11.496 -1.7054 -0.2207  0.1492
  518MOL0     H69925  -0.638   4.769  11.534  1.7886 -1.9887  2.1067
  518MOL0     H69926  -0.968   4.571  11.322 -1.1274  2.8280 -0.3415
  518MOL0     H69927   0.040   4.900  11.316  2.3164  0.1796 -0.9553
  518MOL0     H69928   0.236   4.946  11.290  1.1689  1.0724 -0.3093
  518MOL0     H69929   0.340   4.817  11.227 -2.2169 -1.2466  0.5047
  518MOL0     H69930   0.313   4.972  11.132  0.0515  0.9121  1.1200
  519MOL0     O69931  10.490   3.553   7.197  0.1298 -0.7426 -0.2102
  519MOL0     C69932  10.410   3.634   7.252 -0.3187 -0.0737  0.1172
  519MOL0     O69933  10.445   3.749   7.323 -0.2391 -0.9999  0.6433
  519MOL0     C69934  10.572   3.805   7.294  0.3653 -1.1669  0.4103
  519MOL0     C69935  10.600   3.842   7.157  0.7253  0.2535  0.1988
  519MOL0     C69936  10.722   3.893   7.122 -0.0185  0.3420  0.0726
  519MOL0     C69937  10.824   3.910   7.219  0.2245  0.6992  0.7704
  519MOL0     O69938  10.951   3.961   7.196 -0.6990 -0.1749 -0.0446
  519MOL0     C69939  10.994   3.974   7.065  0.9115  0.0463 -0.8819
  519MOL0     C69940  11.148   3.983   7.063 -0.6152 -0.4298 -0.4451
  519MOL0     C69941  11.228   3.862   7.117 -0.3244 -0.3390  0.2261
  519MOL0     C69942  11.378   3.878   7.081 -0.9162  0.7585  0.4500
  519MOL0     C69943  11.471   3.762   7.138  0.2648  0.1731 -0.9378
  519MOL0     C69944  11.620   3.794   7.137 -0.4148  0.1469 -0.7404
  519MOL0     C69945  11.693   3.695   7.217 -0.1152  0.2752  0.5489
  519MOL0     C69946  11.768   3.592   7.134 -0.0834  0.4209 -0.0390
  519MOL0     N69947  11.816   3.491   7.227 -0.0150 -0.1449  0.5693
  519MOL0     C69948  11.916   3.509   7.309  0.6315  0.0658  0.5044
  519MOL0     C69949  11.936   3.392   7.363 -0.1619  0.8188  0.0442
  519MOL0     C69950  12.041   3.353   7.467  0.1660 -0.4222  0.0448
  519MOL0     C69951  11.984   3.316   7.605 -0.4118  0.6437  0.3158
  519MOL0     C69952  11.946   3.168   7.615  0.2383  0.1396 -0.3654
  519MOL0     C69953  12.051   3.061   7.592 -0.2290 -0.1773 -0.1506
  519MOL0     O69954  12.166   3.103   7.670  0.1344  0.0393  1.1329
  519MOL0     C69955  12.246   3.002   7.731 -0.6126 -1.1308  0.6281
  519MOL0     C69956  12.309   3.028   7.857  0.2015 -0.0129  0.3815
  519MOL0     C69957  12.406   2.949   7.913 -0.6181  0.0867  0.2194
  519MOL0     C69958  12.431   2.826   7.850 -0.0861  0.5636 -0.1121
  519MOL0     C69959  12.530   2.737   7.903  0.2500  0.6401  0.1156
  519MOL0     O69960  12.625   2.776   7.997  0.4883 -0.3914  0.2372
  519MOL0     C69961  12.714   2.690   8.060  0.1416  0.4346  0.4700
  519MOL0     C69962  12.790   2.600   7.983  0.7436  0.1007 -0.0984
  519MOL0     C69963  12.882   2.518   8.048 -0.2565 -0.5922  0.5197
  519MOL0     C69964  12.900   2.520   8.187 -0.2169 -0.8243  0.1515
  519MOL0     O69965  12.978   2.430   8.251 -0.2465  0.3014  0.1186
  519MOL0     C69966  13.060   2.340   8.169  0.2345  0.2753  0.1872
  519MOL0     C69967  13.132   2.251   8.266 -0.2153  0.8170 -0.1997
  519MOL0     C69968  13.245   2.313   8.350 -0.1241 -0.0388  0.9496
  519MOL0     C69969  13.352   2.395   8.268 -0.2459 -0.0301 -0.3341
  519MOL0     C69970  13.483   2.410   8.351 -0.2860 -0.5056  0.2926
  519MOL0     C69971  13.589   2.486   8.278 -0.2829 -0.6852  0.0311
  519MOL0     C69972  13.720   2.503   8.365 -0.0847 -0.3813  0.3974
  519MOL0     C69973  13.798   2.374   8.404  0.3175 -0.7504  0.5507
  519MOL0    Cl69974  13.944   2.427   8.497  0.1862 -0.1918  0.2385
  519MOL0     C69975  12.821   2.611   8.259  0.2407 -0.1852 -0.4142
  519MOL0     C69976  12.733   2.703   8.194 -0.5139 -0.0177  0.0750
  519MOL0     O69977  12.519   2.618   7.866 -0.1574  0.5455 -0.1008
  519MOL0     C69978  12.374   2.796   7.725 -0.4550  0.1993  0.4048
  519MOL0     C69979  12.269   2.877   7.672  0.1357 -1.1243 -0.1759
  519MOL0     N69980  11.854   3.299   7.296  0.3563 -0.6678 -0.0615
  519MOL0     N69981  11.785   3.359   7.217 -1.0397 -0.0957  0.0481
  519MOL0     C69982  10.796   3.879   7.349  0.1861  0.1847 -0.2019
  519MOL0     C69983  10.673   3.832   7.391  0.1019 -0.0307  0.5017
  519MOL0     C69984  10.283   3.577   7.277 -0.0483 -0.8704  0.2048
  519MOL0     C69985  10.267   3.473   7.371  0.8862  0.9745 -0.1509
  519MOL0     C69986  10.136   3.437   7.415  0.2802  0.6500  0.7541
  519MOL0     C69987  10.027   3.500   7.372 -0.6697  1.4428  0.0197
  519MOL0     O69988   9.892   3.473   7.398 -0.1319  0.2552  0.5618
  519MOL0     C69989   9.859   3.497   7.539 -0.0393  0.2541  0.7644
  519MOL0     C69990   9.716   3.496   7.552 -0.0664  0.5582 -0.6270
  519MOL0     C69991   9.663   3.536   7.691 -0.3407  0.2579  0.6535
  519MOL0     C69992   9.511   3.504   7.683  0.8244  0.6103 -0.1295
  519MOL0     C69993   9.441   3.508   7.807  0.0841  0.4851 -0.0855
  519MOL0     C69994   9.381   3.515   7.909  1.0390  0.2213 -0.2460
  519MOL0     C69995  10.042   3.601   7.269  0.3435  0.2546  0.3909
  519MOL0     C69996  10.164   3.644   7.227 -0.3187 -0.1148  0.0077
  519MOL0     C69997  10.183   3.763   7.139 -0.0671 -0.2639 -1.0651
  519MOL0     H69998  10.520   3.830   7.085  0.7384 -0.9870  0.3746
  519MOL0     H69999  10.743   3.917   7.019 -0.5931  1.0937  0.1257
  519MOL0     H70000  10.962   3.882   7.015  1.7650 -0.5560 -0.3444
  519MOL0     H70001  10.947   4.067   7.034  1.0232 -0.2601 -1.9890
  519MOL0     H70002  11.184   4.067   7.123 -2.7755 -0.4453  1.0091
  519MOL0     H70003  11.175   4.005   6.960  0.7444  0.2492  0.0427
  519MOL0     H70004  11.186   3.769   7.079  0.0057 -0.3443 -0.1351
  519MOL0     H70005  11.237   3.861   7.226  5.4815 -0.6344  0.0788
  519MOL0     H70006  11.404   3.885   6.975  3.9834 -0.4247  1.3273
  519MOL0     H70007  11.416   3.968   7.132 -0.0978 -0.0799  1.3515
  519MOL0     H70008  11.433   3.754   7.241 -0.4214 -0.0119 -1.2003
  519MOL0     H70009  11.461   3.668   7.084  2.5217  0.2581 -1.5911
  519MOL0     H70010  11.637   3.794   7.029 -2.3596  0.3776 -1.0874
  519MOL0     H70011  11.642   3.893   7.177 -0.9402 -0.4911  1.2040
  519MOL0     H70012  11.622   3.647   7.284 -0.2472 -0.7839 -0.3158
  519MOL0     H70013  11.771   3.744   7.276 -1.2814  2.2019  0.5601
  519MOL0     H70014  11.700   3.546   7.061 -0.5888 -1.9418  1.7836
  519MOL0     H70015  11.857   3.635   7.087  0.0380 -1.3166 -1.5364
  519MOL0     H70016  11.962   3.603   7.338 -1.7408  0.9341  1.7865
  519MOL0     H70017  12.104   3.275   7.423  1.2892  0.1764  0.5604
  519MOL0     H70018  12.112   3.435   7.483  0.1322 -0.2246 -0.7853
  519MOL0     H70019  12.064   3.339   7.675  1.6822  1.0646 -2.0646
  519MOL0     H70020  11.899   3.379   7.632 -0.5612  0.3523  0.5328
  519MOL0     H70021  11.854   3.157   7.558 -1.1818 -1.0761  1.9987
  519MOL0     H70022  11.922   3.164   7.722  2.8438 -2.0483  0.2768
  519MOL0     H70023  12.081   3.052   7.488  2.8610 -1.9714  0.7647
  519MOL0     H70024  12.009   2.965   7.624 -0.3961 -0.5556 -1.4433
  519MOL0     H70025  12.284   3.113   7.919  2.1855  2.6714 -2.2007
  519MOL0     H70026  12.462   2.977   8.001  0.5370 -2.5461  0.4233
  519MOL0     H70027  12.774   2.605   7.876 -2.3225 -1.0868  0.1897
  519MOL0     H70028  12.949   2.468   7.979  2.0173  0.9555  1.4917
  519MOL0     H70029  12.996   2.272   8.113  1.9077 -0.1259 -1.3029
  519MOL0     H70030  13.133   2.396   8.111 -1.5244  1.6770 -0.7907
  519MOL0     H70031  13.058   2.204   8.332  0.6047 -0.4158 -0.1182
  519MOL0     H70032  13.178   2.166   8.216  0.0948 -0.7900  2.6312
  519MOL0     H70033  13.203   2.386   8.420 -0.3159  0.7237  0.0526
  519MOL0     H70034  13.283   2.237   8.420 -1.0427 -2.9450 -1.5115
  519MOL0     H70035  13.311   2.495   8.252  2.0361  1.0238 -0.0085
  519MOL0     H70036  13.360   2.339   8.174 -1.0424 -0.8181  0.0453
  519MOL0     H70037  13.525   2.315   8.386 -1.2861 -0.1886  2.5799
  519MOL0     H70038  13.470   2.462   8.447  0.1317 -2.0707  1.2207
  519MOL0     H70039  13.611   2.431   8.185  1.4355 -1.5670  0.9059
  519MOL0     H70040  13.552   2.585   8.249  0.1459 -0.8712 -1.2499
  519MOL0     H70041  13.696   2.544   8.463 -2.3088 -1.9410  0.5922
  519MOL0     H70042  13.784   2.570   8.306  2.2016 -3.0707 -0.3694
  519MOL0     H70043  13.740   2.302   8.462  2.9949 -2.1348  1.7087
  519MOL0     H70044  13.822   2.326   8.308 -0.3743 -1.2086  0.6029
  519MOL0     H70045  12.846   2.615   8.364  0.5164  0.8860 -0.5066
  519MOL0     H70046  12.678   2.785   8.241 -3.2025  0.6967 -3.7466
  519MOL0     H70047  12.408   2.716   7.660  0.8328  0.8372  0.2618
  519MOL0     H70048  12.226   2.844   7.578  0.6460 -4.4378  0.6006
  519MOL0     H70049  10.879   3.903   7.415  1.8681  2.0577 -2.8003
  519MOL0     H70050  10.664   3.796   7.493 -1.3663  0.3572  0.5322
  519MOL0     H70051  10.351   3.417   7.410  0.4013  0.2439 -0.1150
  519MOL0     H70052  10.124   3.361   7.492  1.4224 -0.2138  0.0991
  519MOL0     H70053   9.899   3.595   7.566 -1.3617  1.3655 -1.0794
  519MOL0     H70054   9.902   3.421   7.606 -0.2246 -0.9563 -0.4427
  519MOL0     H70055   9.701   3.389   7.538  3.0998 -0.3036  1.6751
  519MOL0     H70056   9.679   3.560   7.471  0.6883  0.7414 -0.8387
  519MOL0     H70057   9.672   3.642   7.720  2.6760  0.7297 -1.4906
  519MOL0     H70058   9.712   3.475   7.767 -2.2089 -3.1889 -0.7156
  519MOL0     H70059   9.473   3.586   7.622  1.0764 -0.6384 -2.0818
  519MOL0     H70060   9.482   3.415   7.625 -1.3094  2.3167 -1.8831
  519MOL0     H70061   9.338   3.525   8.006  0.0560 -0.9367 -0.5352
  519MOL0     H70062   9.952   3.640   7.223 -0.6415 -0.4336  1.6820
  519MOL0     H70063  10.094   3.773   7.077  0.5272  2.0216 -1.6372
  519MOL0     H70064  10.195   3.854   7.198  3.3786 -0.6544 -0.9386
  519MOL0     H70065  10.274   3.749   7.080  0.9174 -3.0368  0.8694
  520MOL0     O70066   2.547   4.680   7.916 -0.7226 -0.0422  0.4960
  520MOL0     C70067   2.546   4.561   7.887  0.0985 -0.1014  0.9945
  520MOL0     O70068   2.608   4.506   7.776  0.7271 -0.4813  0.6094
  520MOL0     C70069   2.711   4.585   7.731 -0.3333 -0.4799 -0.4973
  520MOL0     C70070   2.832   4.592   7.805  0.2103  0.0244 -0.2441
  520MOL0     C70071   2.931   4.676   7.754 -0.0759  0.5661  0.3643
  520MOL0     C70072   2.924   4.746   7.638 -0.6700 -0.0264  0.6189
  520MOL0     O70073   3.035   4.820   7.597 -0.3600  0.1087  0.2265
  520MOL0     C70074   3.018   4.916   7.494  0.2059  0.0417 -0.3889
  520MOL0     C70075   3.129   5.012   7.474  0.3099 -0.4479 -0.0368
  520MOL0     C70076   3.249   4.944   7.407  0.3879  1.0452 -0.1855
  520MOL0     C70077   3.366   5.040   7.385  0.2433  0.5798  1.7519
  520MOL0     C70078   3.481   4.972   7.312 -0.2890 -0.0724 -0.7264
  520MOL0     C70079   3.590   5.073   7.281  0.5915  0.7481 -0.1904
  520MOL0     C70080   3.701   5.021   7.183  0.5704  0.4606  0.0708
  520MOL0     C70081   3.772   5.140   7.119  0.4064 -0.8251  0.7387
  520MOL0     N70082   3.876   5.187   7.206 -0.2598  0.1209  0.0445
  520MOL0     C70083   4.010   5.152   7.197  0.3085  0.6558  0.8432
  520MOL0     C70084   4.067   5.219   7.298 -0.1981 -0.4614 -0.1995
  520MOL0     C70085   4.218   5.236   7.320  0.4371  0.3726 -0.2693
  520MOL0     C70086   4.276   5.368   7.260  0.6859 -1.6409  0.1063
  520MOL0     C70087   4.400   5.415   7.317 -0.7593  0.2137 -0.0187
  520MOL0     C70088   4.514   5.314   7.359 -0.2884 -0.9231  0.6022
  520MOL0     O70089   4.608   5.386   7.445  0.4474  0.3837  1.0553
  520MOL0     C70090   4.743   5.369   7.421  0.0769 -0.4253 -0.0707
  520MOL0     C70091   4.796   5.291   7.322  0.4837 -0.5890  0.1410
  520MOL0     C70092   4.937   5.277   7.318 -0.1800  0.7705  0.7065
  520MOL0     C70093   5.023   5.341   7.401  0.2328  0.4706  0.2681
  520MOL0     C70094   5.175   5.334   7.383 -0.1287 -0.5494  0.6477
  520MOL0     O70095   5.248   5.426   7.456 -0.3543 -0.6129  0.3361
  520MOL0     C70096   5.388   5.440   7.446 -0.0613  0.1184  0.1665
  520MOL0     C70097   5.432   5.528   7.526 -0.0218 -1.0254 -0.2548
  520MOL0     C70098   5.567   5.568   7.523 -0.0495  0.5766  0.3403
  520MOL0     C70099   5.659   5.505   7.444 -0.0510  0.0759  0.5208
  520MOL0     O70100   5.788   5.549   7.458 -0.0313 -0.4886 -0.5077
  520MOL0     C70101   5.891   5.451   7.432  1.7200 -0.7395  0.6869
  520MOL0     C70102   6.024   5.495   7.479 -0.2903  0.5615  0.3379
  520MOL0     C70103   6.093   5.581   7.372  0.1360 -0.5556 -0.0703
  520MOL0     C70104   6.214   5.664   7.418  0.1537 -0.6792 -0.5224
  520MOL0     C70105   6.357   5.604   7.423  0.3525 -0.2914  0.1109
  520MOL0     C70106   6.459   5.710   7.473 -0.3160 -0.8752 -0.5584
  520MOL0     C70107   6.587   5.641   7.511  0.2544 -0.0241  0.5117
  520MOL0     C70108   6.696   5.719   7.600  0.9396 -0.2004  0.2629
  520MOL0    Cl70109   6.748   5.870   7.522  0.0847 -0.2063 -0.5064
  520MOL0     C70110   5.616   5.396   7.375 -0.3550  1.0806  0.1828
  520MOL0     C70111   5.482   5.355   7.373  0.2643  0.3988 -0.0282
  520MOL0     O70112   5.221   5.258   7.297  0.6657  0.2206  0.2566
  520MOL0     C70113   4.958   5.431   7.497 -0.7551 -0.5377  0.1862
  520MOL0     C70114   4.827   5.440   7.509 -0.4305 -0.6053  0.0179
  520MOL0     N70115   3.968   5.290   7.365 -0.2200  0.3556  0.2758
  520MOL0     N70116   3.855   5.276   7.305  0.4989 -0.1098 -0.5820
  520MOL0     C70117   2.805   4.738   7.561 -0.4587  0.9986 -0.0012
  520MOL0     C70118   2.704   4.649   7.607 -0.7342  0.4151  0.9613
  520MOL0     C70119   2.444   4.481   7.959  0.5864 -0.7501  0.3062
  520MOL0     C70120   2.367   4.392   7.882  0.5626  0.1496  0.5369
  520MOL0     C70121   2.256   4.330   7.930 -0.5916  0.4941 -0.0946
  520MOL0     C70122   2.210   4.354   8.058 -0.2255  0.4487 -0.0488
  520MOL0     O70123   2.096   4.303   8.099 -0.4032  0.1868 -0.1818
  520MOL0     C70124   2.035   4.194   8.034  0.4516  0.4895 -0.2050
  520MOL0     C70125   1.901   4.152   8.102  0.2578 -0.8826  0.4735
  520MOL0     C70126   1.831   4.046   8.025  0.1591 -0.3611 -0.5714
  520MOL0     C70127   1.698   4.016   8.091  0.0388  0.0811  0.3864
  520MOL0     C70128   1.598   4.114   8.051  0.0631 -0.3712  0.1044
  520MOL0     C70129   1.502   4.182   8.021 -1.0626 -0.8173 -0.0650
  520MOL0     C70130   2.287   4.431   8.139 -0.6070 -0.1533 -0.7578
  520MOL0     C70131   2.406   4.491   8.097 -0.0596  0.7510 -0.8947
  520MOL0     C70132   2.483   4.575   8.199 -0.1912 -0.5577 -0.4487
  520MOL0     H70133   2.844   4.549   7.904  0.3035  0.0348 -0.2506
  520MOL0     H70134   3.019   4.688   7.817 -1.0411  0.7492  1.7300
  520MOL0     H70135   3.000   4.860   7.401 -1.5650 -1.7312  0.9325
  520MOL0     H70136   2.928   4.971   7.521  0.3342  0.4739 -0.8313
  520MOL0     H70137   3.159   5.057   7.569 -1.2274 -1.4397  0.9515
  520MOL0     H70138   3.086   5.094   7.416 -1.5560  1.3915  3.6654
  520MOL0     H70139   3.222   4.904   7.309 -1.5609  4.1058 -1.0599
  520MOL0     H70140   3.276   4.856   7.465  0.8774  0.9915 -0.4864
  520MOL0     H70141   3.332   5.129   7.330 -0.6445 -0.7683  0.0071
  520MOL0     H70142   3.415   5.075   7.476  0.0376  1.1892  1.6326
  520MOL0     H70143   3.514   4.887   7.373 -2.2269 -0.0098  0.4911
  520MOL0     H70144   3.432   4.919   7.231  0.6478 -0.6249 -0.9423
  520MOL0     H70145   3.537   5.159   7.240 -3.1200 -1.1701  0.1528
  520MOL0     H70146   3.637   5.106   7.375  1.4968  2.7583 -1.2800
  520MOL0     H70147   3.666   4.955   7.103  2.5242 -1.0930  0.4278
  520MOL0     H70148   3.770   4.960   7.241  0.3856  0.2116  0.0316
  520MOL0     H70149   3.817   5.113   7.023 -4.2025 -3.5711 -0.9751
  520MOL0     H70150   3.699   5.221   7.105 -1.5683 -2.4292  1.2001
  520MOL0     H70151   4.055   5.091   7.119 -1.9484  0.8972 -0.7440
  520MOL0     H70152   4.221   5.246   7.429 -1.2537 -1.2095 -0.0287
  520MOL0     H70153   4.279   5.146   7.304  1.9621  1.4957 -0.9995
  520MOL0     H70154   4.287   5.355   7.152  1.5832  0.6317 -0.1168
  520MOL0     H70155   4.201   5.447   7.254  1.5696 -0.8778 -1.1743
  520MOL0     H70156   4.373   5.463   7.412  0.8784  0.6259  0.2604
  520MOL0     H70157   4.454   5.486   7.254 -0.6075  0.3540  0.2652
  520MOL0     H70158   4.554   5.281   7.263 -1.4736  2.7128 -1.3511
  520MOL0     H70159   4.475   5.226   7.410 -0.3947  0.9663  4.1408
  520MOL0     H70160   4.743   5.230   7.249  1.4583 -0.0053 -1.0799
  520MOL0     H70161   4.968   5.224   7.229 -1.5611  0.0774  0.6013
  520MOL0     H70162   5.353   5.570   7.587  0.3805 -0.8000  0.1195
  520MOL0     H70163   5.615   5.650   7.576  1.1151  0.7181 -0.8561
  520MOL0     H70164   5.862   5.355   7.476 -0.1251 -1.4583 -1.8706
  520MOL0     H70165   5.899   5.441   7.323 -4.1089 -0.5133 -0.0504
  520MOL0     H70166   6.017   5.554   7.570  1.6174  2.2741 -0.5445
  520MOL0     H70167   6.086   5.406   7.495 -1.4959 -0.2182  0.8150
  520MOL0     H70168   6.119   5.528   7.280  0.9965  2.1999 -1.5366
  520MOL0     H70169   6.016   5.648   7.333 -2.0494 -3.6531 -1.4178
  520MOL0     H70170   6.189   5.716   7.511  0.1255  1.5111 -1.6715
  520MOL0     H70171   6.211   5.755   7.357 -0.3904  0.1663  0.7234
  520MOL0     H70172   6.391   5.565   7.327 -2.6277  1.2945 -1.7503
  520MOL0     H70173   6.339   5.530   7.501 -2.3545  0.5930  0.4512
  520MOL0     H70174   6.483   5.781   7.393  1.9899 -1.1839 -0.2161
  520MOL0     H70175   6.408   5.763   7.554  0.0305  1.3878 -1.7336
  520MOL0     H70176   6.644   5.599   7.428 -1.6946  0.2438 -1.0137
  520MOL0     H70177   6.560   5.550   7.565  3.7631 -2.2560 -1.1535
  520MOL0     H70178   6.645   5.750   7.691 -0.8165 -1.3411 -0.2693
  520MOL0     H70179   6.789   5.663   7.616  1.6622  1.1568  0.8873
  520MOL0     H70180   5.683   5.346   7.306 -0.9527 -1.7440  1.5025
  520MOL0     H70181   5.454   5.280   7.300  1.5318 -0.1784  0.0628
  520MOL0     H70182   5.031   5.483   7.557 -1.3425  0.2684  0.2158
  520MOL0     H70183   4.793   5.501   7.592  1.8230  2.9372 -1.4373
  520MOL0     H70184   2.791   4.777   7.461  0.4010 -2.4392 -1.6222
  520MOL0     H70185   2.608   4.651   7.556 -0.0040  2.6067 -0.4651
  520MOL0     H70186   2.382   4.377   7.776 -1.1628 -1.8829  0.5023
  520MOL0     H70187   2.199   4.284   7.849  2.6965 -0.4837 -2.0414
  520MOL0     H70188   2.106   4.112   8.023  0.5122  0.7684 -2.2965
  520MOL0     H70189   2.012   4.217   7.929 -2.8562 -0.0596  0.2967
  520MOL0     H70190   1.839   4.239   8.121  2.3969  0.8210  0.1059
  520MOL0     H70191   1.933   4.106   8.197  2.3084  1.2712  0.9292
  520MOL0     H70192   1.889   3.953   8.018 -1.6972 -1.6615  0.3761
  520MOL0     H70193   1.821   4.080   7.922  0.8292 -0.5637 -0.7093
  520MOL0     H70194   1.673   3.920   8.044  0.8277  0.1453 -0.1873
  520MOL0     H70195   1.703   3.997   8.199 -0.5721  2.0079  0.7939
  520MOL0     H70196   1.430   4.256   7.992  1.0410  1.2618 -0.2981
  520MOL0     H70197   2.246   4.431   8.240 -1.0342 -0.8247 -0.9211
  520MOL0     H70198   2.479   4.679   8.166  2.0241 -0.0269  0.8149
  520MOL0     H70199   2.431   4.569   8.295 -0.7751 -0.1909 -0.7359
  520MOL0     H70200   2.586   4.544   8.217 -0.4361 -0.9638  0.2999
  521MOL0     O70201   6.814   9.162   6.833  0.6529  0.1002 -0.1085
  521MOL0     C70202   6.793   9.283   6.841 -0.0198 -0.1407 -0.0594
  521MOL0     O70203   6.894   9.376   6.820 -0.1569 -0.4192  0.0056
  521MOL0     C70204   7.005   9.326   6.759  0.0623  0.1833 -0.4499
  521MOL0     C70205   7.023   9.344   6.625 -0.7644 -0.6157 -0.7363
  521MOL0     C70206   7.134   9.277   6.569  0.8153  0.2725  0.4228
  521MOL0     C70207   7.231   9.204   6.646 -0.3469  0.1137  0.7064
  521MOL0     O70208   7.339   9.141   6.591 -0.2829  0.1499 -0.1197
  521MOL0     C70209   7.381   9.158   6.458 -0.8943 -0.7254 -0.1576
  521MOL0     C70210   7.495   9.067   6.423 -0.5284 -0.2424 -0.0502
  521MOL0     C70211   7.638   9.099   6.475  0.1678 -0.6380 -0.5091
  521MOL0     C70212   7.753   9.013   6.416 -0.6118  0.1291  0.7202
  521MOL0     C70213   7.898   9.068   6.436  0.3188  1.1116  0.3013
  521MOL0     C70214   8.010   8.981   6.366 -0.8261  0.0453  0.1503
  521MOL0     C70215   7.997   8.962   6.219  0.2467 -0.4511  0.6400
  521MOL0     C70216   8.083   8.846   6.165  0.5141  0.2541  0.2585
  521MOL0     N70217   8.231   8.877   6.175 -0.0594  1.0227  0.6884
  521MOL0     C70218   8.289   8.990   6.122 -0.2806 -0.2449  0.0072
  521MOL0     C70219   8.418   8.993   6.163  0.8161 -0.0395 -0.2636
  521MOL0     C70220   8.509   9.099   6.114 -1.1687  0.3399  0.3277
  521MOL0     C70221   8.582   9.058   5.982  0.4043  0.4185 -0.4110
  521MOL0     C70222   8.727   8.999   6.002  0.1944 -0.2350  0.5482
  521MOL0     C70223   8.790   8.968   5.871  0.2345  0.6369 -0.3226
  521MOL0     O70224   8.715   8.874   5.798 -0.7785  0.5559 -0.0685
  521MOL0     C70225   8.774   8.815   5.685  0.7589 -0.6677  0.4683
  521MOL0     C70226   8.874   8.874   5.604  0.9431  0.3192 -0.8557
  521MOL0     C70227   8.928   8.798   5.497 -0.0880  0.2380 -0.4936
  521MOL0     C70228   8.883   8.669   5.468  0.0268  0.0473  0.2828
  521MOL0     C70229   8.935   8.591   5.359 -0.3990  0.5626  0.5212
  521MOL0     O70230   8.852   8.496   5.305 -0.2851 -0.3128 -0.2478
  521MOL0     C70231   8.894   8.435   5.191  0.6636 -0.9513 -0.7270
  521MOL0     C70232   8.920   8.299   5.183  0.1880 -0.5577 -0.9681
  521MOL0     C70233   8.967   8.240   5.062  0.3633 -0.0218 -0.0491
  521MOL0     C70234   8.995   8.312   4.948  0.6558  0.4253  0.8152
  521MOL0     O70235   9.032   8.252   4.833 -0.0270 -0.5459  0.3597
  521MOL0     C70236   9.125   8.328   4.746  0.2560  0.6441 -0.0320
  521MOL0     C70237   9.193   8.222   4.647  0.3294 -0.0004 -0.3388
  521MOL0     C70238   9.103   8.135   4.559 -0.0057  0.1035  1.4317
  521MOL0     C70239   9.187   8.050   4.452 -0.0462 -0.2106 -0.6619
  521MOL0     C70240   9.093   7.984   4.349 -0.0846  0.1719  0.4513
  521MOL0     C70241   9.051   7.848   4.405  0.1525 -0.7345 -0.6606
  521MOL0     C70242   8.953   7.769   4.317  0.5361  0.2859  0.2070
  521MOL0     C70243   8.804   7.816   4.305 -0.2259  0.0609 -0.2270
  521MOL0    Cl70244   8.718   7.700   4.191 -0.1254 -0.2491  0.0201
  521MOL0     C70245   8.968   8.451   4.955  0.1959 -0.5690 -0.9060
  521MOL0     C70246   8.920   8.510   5.074  0.0020  0.3795  0.0762
  521MOL0     O70247   9.044   8.626   5.306 -0.8904  1.3625 -0.8650
  521MOL0     C70248   8.775   8.622   5.545 -0.1536  0.8279  0.4104
  521MOL0     C70249   8.720   8.696   5.652  0.0336  0.1077 -0.6403
  521MOL0     N70250   8.439   8.877   6.240 -0.1122  0.1960 -0.2742
  521MOL0     N70251   8.330   8.813   6.253  0.5187 -0.4273  0.5657
  521MOL0     C70252   7.207   9.199   6.782 -0.1145  0.0122 -0.3345
  521MOL0     C70253   7.092   9.258   6.841  0.8851  0.1464 -0.2919
  521MOL0     C70254   6.654   9.330   6.879 -0.0387 -0.1499  0.0108
  521MOL0     C70255   6.643   9.443   6.956  0.1334 -0.0497  0.4784
  521MOL0     C70256   6.520   9.488   7.001 -0.6306  0.3298  0.1029
  521MOL0     C70257   6.404   9.415   6.970  0.3549 -0.0140  0.4035
  521MOL0     O70258   6.271   9.450   6.993 -0.0599  0.5594 -0.1943
  521MOL0     C70259   6.230   9.566   7.070 -0.6618 -0.0854  0.6163
  521MOL0     C70260   6.263   9.547   7.225  0.3694 -0.0863 -0.0051
  521MOL0     C70261   6.197   9.430   7.293  0.1087 -0.2530 -0.0518
  521MOL0     C70262   6.235   9.406   7.441 -0.0902  0.7388 -0.3982
  521MOL0     C70263   6.153   9.300   7.500  0.1871 -0.1791 -0.2308
  521MOL0     C70264   6.061   9.237   7.554  0.1362 -0.2846 -0.6532
  521MOL0     C70265   6.416   9.299   6.899 -0.9368  0.2011 -0.4176
  521MOL0     C70266   6.537   9.250   6.852  0.2100 -0.1001  0.2659
  521MOL0     C70267   6.527   9.118   6.787 -0.2779 -0.1825  0.4428
  521MOL0     H70268   6.947   9.385   6.560  0.5981  2.6696 -0.4451
  521MOL0     H70269   7.146   9.272   6.461  2.4983 -1.6011  0.6371
  521MOL0     H70270   7.305   9.132   6.383 -2.7148 -0.7457  1.6190
  521MOL0     H70271   7.402   9.264   6.446 -0.5590 -0.9524 -1.9453
  521MOL0     H70272   7.516   9.067   6.315  2.4449 -3.2022  0.3656
  521MOL0     H70273   7.470   8.963   6.448 -1.0387  0.1436  1.0881
  521MOL0     H70274   7.632   9.082   6.583 -1.6690 -0.7172 -0.5955
  521MOL0     H70275   7.650   9.205   6.448  1.4413 -0.5989  0.1344
  521MOL0     H70276   7.743   8.911   6.453  0.9206 -0.5450 -0.6124
  521MOL0     H70277   7.736   9.004   6.308 -1.2975  0.9616  0.7458
  521MOL0     H70278   7.890   9.159   6.377  1.7392  0.6372 -0.6730
  521MOL0     H70279   7.924   9.105   6.536  1.6570  0.4407  0.2253
  521MOL0     H70280   8.105   9.033   6.379 -1.0622  0.7597 -0.9189
  521MOL0     H70281   8.012   8.888   6.424 -0.6129  0.5173  0.9117
  521MOL0     H70282   8.035   9.057   6.179  1.8166 -0.8899  1.0293
  521MOL0     H70283   7.897   8.931   6.189  0.1515 -2.9040  3.1434
  521MOL0     H70284   8.053   8.749   6.206 -0.0219  0.4086  0.2425
  521MOL0     H70285   8.058   8.812   6.064 -0.1550 -1.2439  0.8898
  521MOL0     H70286   8.244   9.072   6.066 -0.7342 -1.5312 -1.5966
  521MOL0     H70287   8.459   9.189   6.078  0.0362  1.8124  2.1577
  521MOL0     H70288   8.578   9.124   6.195 -0.3435 -1.7662  0.3535
  521MOL0     H70289   8.527   8.985   5.921  0.4997 -0.0605  0.0676
  521MOL0     H70290   8.587   9.148   5.921  0.3528 -0.7475 -2.2284
  521MOL0     H70291   8.720   8.905   6.059 -0.5981  0.0880  1.0064
  521MOL0     H70292   8.782   9.070   6.065  2.1400 -1.4769  0.3218
  521MOL0     H70293   8.889   8.926   5.891 -1.1017 -2.7427 -0.1737
  521MOL0     H70294   8.791   9.063   5.818  1.6131  1.1484  0.5544
  521MOL0     H70295   8.919   8.967   5.637  3.7013 -1.4508  0.7494
  521MOL0     H70296   9.012   8.831   5.437  0.8883 -0.6651  0.3260
  521MOL0     H70297   8.879   8.242   5.266 -1.5408  4.1465  1.8488
  521MOL0     H70298   8.979   8.132   5.063 -2.1778 -0.4468  3.4236
  521MOL0     H70299   9.066   8.396   4.684 -0.5089 -1.5065 -1.8007
  521MOL0     H70300   9.202   8.383   4.800  1.4249  0.3291 -1.3170
  521MOL0     H70301   9.248   8.287   4.578 -0.1805 -0.1132 -0.8530
  521MOL0     H70302   9.267   8.165   4.705 -0.7806 -0.1837  0.9423
  521MOL0     H70303   9.056   8.066   4.630  1.9761 -3.2076 -0.2441
  521MOL0     H70304   9.027   8.199   4.512  0.3130  1.6373  2.8789
  521MOL0     H70305   9.251   7.976   4.500  1.3984  0.1806 -1.9013
  521MOL0     H70306   9.240   8.125   4.394  0.0629  0.0908 -0.1736
  521MOL0     H70307   9.160   7.975   4.263 -0.2876  2.5864 -0.0271
  521MOL0     H70308   9.009   8.043   4.311 -0.5861 -1.2741 -0.8281
  521MOL0     H70309   9.139   7.787   4.424  0.2824  0.1454  2.0114
  521MOL0     H70310   8.988   7.863   4.494  0.3990  1.8064 -0.8381
  521MOL0     H70311   8.955   7.667   4.357  0.5577  0.9288  1.9660
  521MOL0     H70312   8.972   7.758   4.210  0.8206 -0.1121  0.2961
  521MOL0     H70313   8.757   7.819   4.404 -0.4985  0.1955 -0.3586
  521MOL0     H70314   8.791   7.920   4.273 -2.9519  0.8111  2.8016
  521MOL0     H70315   8.970   8.523   4.874  0.6143  2.1866  1.4112
  521MOL0     H70316   8.895   8.615   5.069  1.0589  0.5852 -1.9927
  521MOL0     H70317   8.728   8.528   5.517  0.9987  0.8129 -1.7360
  521MOL0     H70318   8.667   8.647   5.733  0.2462 -0.3957 -0.8013
  521MOL0     H70319   7.282   9.144   6.837 -1.3704  0.9952  2.5637
  521MOL0     H70320   7.067   9.241   6.945  0.3197 -1.3783 -0.6557
  521MOL0     H70321   6.735   9.491   6.987 -1.5564  2.6517  1.7674
  521MOL0     H70322   6.513   9.570   7.071  0.3855 -1.5561  2.5897
  521MOL0     H70323   6.123   9.583   7.051 -0.8867 -0.2648  1.6453
  521MOL0     H70324   6.273   9.661   7.038 -1.5304 -0.0044 -0.3684
  521MOL0     H70325   6.236   9.637   7.281  1.1339  0.0064  0.2289
  521MOL0     H70326   6.370   9.523   7.227 -0.1463 -2.8642 -0.5950
  521MOL0     H70327   6.214   9.337   7.237 -0.0533 -0.0197 -0.4919
  521MOL0     H70328   6.089   9.441   7.281  0.3920  0.6394 -2.0234
  521MOL0     H70329   6.341   9.382   7.439 -0.3610 -0.5160 -2.3023
  521MOL0     H70330   6.225   9.495   7.504  2.8275  2.0735 -1.6327
  521MOL0     H70331   5.984   9.194   7.616  0.9584  0.3438  0.8554
  521MOL0     H70332   6.324   9.250   6.870  0.5915 -1.9940 -1.8276
  521MOL0     H70333   6.458   9.119   6.702  1.0023 -0.1807 -0.6313
  521MOL0     H70334   6.619   9.074   6.747 -1.4702 -2.2321 -0.2059
  521MOL0     H70335   6.504   9.046   6.866 -0.5873  0.8794  1.3422
  522MOL0     O70336   0.483   3.661  10.828  0.1649 -0.1182 -0.1751
  522MOL0     C70337   0.557   3.665  10.733 -0.6610  0.2487 -0.2219
  522MOL0     O70338   0.515   3.696  10.609  0.3358  0.3694  0.5229
  522MOL0     C70339   0.376   3.714  10.592 -0.1415 -0.6041  0.1421
  522MOL0     C70340   0.291   3.619  10.553 -0.5431  0.6120  0.1210
  522MOL0     C70341   0.159   3.638  10.549  0.2358  0.2291 -0.3177
  522MOL0     C70342   0.103   3.763  10.590  0.1271 -0.0576 -0.1864
  522MOL0     O70343  -0.030   3.793  10.589  0.2804  0.2651 -0.2301
  522MOL0     C70344  -0.112   3.676  10.589  0.9271 -0.0041  1.2338
  522MOL0     C70345  -0.255   3.725  10.581 -1.1091 -0.6434  0.6555
  522MOL0     C70346  -0.351   3.616  10.537  0.0307 -0.6236 -0.1923
  522MOL0     C70347  -0.487   3.673  10.491  0.1151  0.5243  0.3731
  522MOL0     C70348  -0.567   3.560  10.423 -0.0553  0.0067 -0.4141
  522MOL0     C70349  -0.697   3.620  10.379  0.7983  0.2206  1.0658
  522MOL0     C70350  -0.753   3.533  10.269 -0.5761  0.1743 -0.5082
  522MOL0     C70351  -0.899   3.552  10.258 -0.1552 -0.8357  0.4643
  522MOL0     N70352  -0.969   3.497  10.148 -0.1289 -0.7126  0.0015
  522MOL0     C70353  -1.092   3.440  10.174  0.2313  0.3113  0.3312
  522MOL0     C70354  -1.124   3.390  10.051 -0.0485  0.3947 -0.5603
  522MOL0     C70355  -1.242   3.305  10.026 -0.5902 -0.0697 -0.4338
  522MOL0     C70356  -1.195   3.153  10.022  0.1890 -1.3294 -0.3291
  522MOL0     C70357  -1.131   3.112  10.154  0.6376 -0.7846  0.0606
  522MOL0     C70358  -1.084   2.960  10.143  0.6283 -0.4042  0.2602
  522MOL0     O70359  -0.986   2.939  10.243 -0.4648 -0.1071 -0.9842
  522MOL0     C70360  -0.890   2.848  10.215 -0.0023  0.4378 -0.1026
  522MOL0     C70361  -0.778   2.859  10.293 -0.9334 -0.0197  0.3066
  522MOL0     C70362  -0.672   2.761  10.284 -0.0084 -0.3378 -1.1061
  522MOL0     C70363  -0.675   2.665  10.183 -0.5791  0.1953  0.7547
  522MOL0     C70364  -0.558   2.571  10.176  0.6881  0.5368  0.8140
  522MOL0     O70365  -0.451   2.602  10.251 -0.0057  0.2445 -0.0386
  522MOL0     C70366  -0.338   2.516  10.252  0.6188 -0.0167 -0.0954
  522MOL0     C70367  -0.221   2.575  10.271  0.1994 -0.5083  0.9284
  522MOL0     C70368  -0.098   2.504  10.279 -0.9935 -0.9584 -0.1296
  522MOL0     C70369  -0.093   2.367  10.266  0.6236  0.4160 -0.4568
  522MOL0     O70370   0.031   2.310  10.268  0.1159  0.0997 -0.1086
  522MOL0     C70371   0.046   2.194  10.179  0.2204  0.2698  0.3430
  522MOL0     C70372   0.199   2.180  10.189 -0.2227 -0.1140  0.3105
  522MOL0     C70373   0.290   2.251  10.088 -0.2204 -0.6320  0.4199
  522MOL0     C70374   0.274   2.209   9.937  0.3573 -0.6946  0.4848
  522MOL0     C70375   0.349   2.298   9.843 -0.1410  0.1761  0.9175
  522MOL0     C70376   0.504   2.279   9.879 -0.0342 -0.1460  0.0204
  522MOL0     C70377   0.586   2.365   9.786  0.2574 -0.9775  1.1374
  522MOL0     C70378   0.727   2.347   9.809 -0.2163  0.2937  0.1496
  522MOL0    Cl70379   0.805   2.395   9.643  0.2316 -0.2879  0.9376
  522MOL0     C70380  -0.216   2.301  10.253  0.1313 -0.4721 -0.2720
  522MOL0     C70381  -0.336   2.377  10.239 -1.0961 -0.7723 -0.2888
  522MOL0     O70382  -0.572   2.466  10.116 -0.5232  0.7022 -0.0999
  522MOL0     C70383  -0.791   2.659  10.104  0.1878  0.8275 -0.1522
  522MOL0     C70384  -0.900   2.745  10.122 -0.0622 -0.5131 -0.0346
  522MOL0     N70385  -1.029   3.428   9.958 -0.7434  0.4326  0.1665
  522MOL0     N70386  -0.935   3.494  10.019 -0.1537 -0.5206 -0.0901
  522MOL0     C70387   0.195   3.859  10.642 -0.5134 -0.2575 -0.9303
  522MOL0     C70388   0.333   3.837  10.635 -0.4151 -0.0200 -0.6524
  522MOL0     C70389   0.708   3.655  10.761  0.3616 -0.3379  0.0268
  522MOL0     C70390   0.798   3.673  10.658 -0.7543 -0.1957  0.0424
  522MOL0     C70391   0.939   3.664  10.678 -0.0138 -0.1099  0.6675
  522MOL0     C70392   0.991   3.670  10.810  0.4108 -0.4822  0.0515
  522MOL0     O70393   1.128   3.683  10.828 -0.1342  0.5819  0.2952
  522MOL0     C70394   1.188   3.709  10.957 -0.1429 -0.3270  0.1602
  522MOL0     C70395   1.338   3.729  10.923 -0.5421  0.1213  0.0542
  522MOL0     C70396   1.436   3.756  11.044  0.7338  0.7852 -0.3266
  522MOL0     C70397   1.555   3.836  10.989 -0.1942 -0.3582 -0.2461
  522MOL0     C70398   1.625   3.764  10.883 -0.9208 -0.1981 -0.0679
  522MOL0     C70399   1.688   3.704  10.797  0.6723 -0.1808  0.7663
  522MOL0     C70400   0.901   3.650  10.919 -0.1928  0.5435 -0.1820
  522MOL0     C70401   0.765   3.633  10.898  1.5288 -0.2138  0.3255
  522MOL0     C70402   0.679   3.612  11.031 -0.2052 -0.5143  0.1925
  522MOL0     H70403   0.337   3.524  10.526  1.5258  2.3704 -3.2123
  522MOL0     H70404   0.099   3.555  10.514  0.7900 -0.7671  1.0168
  522MOL0     H70405  -0.098   3.630  10.490 -0.1459  1.1406  0.5142
  522MOL0     H70406  -0.097   3.596  10.662  1.2791 -1.2671 -0.1585
  522MOL0     H70407  -0.263   3.798  10.499 -0.3577 -1.5764 -0.2769
  522MOL0     H70408  -0.286   3.768  10.677 -0.5228  1.6346 -0.1076
  522MOL0     H70409  -0.363   3.539  10.614 -1.2636 -1.6925 -1.4004
  522MOL0     H70410  -0.302   3.565  10.453 -0.8122 -0.9979 -0.4671
  522MOL0     H70411  -0.540   3.711  10.578  1.2095  0.4955  1.0637
  522MOL0     H70412  -0.484   3.757  10.421 -1.7527 -1.6052 -2.5134
  522MOL0     H70413  -0.512   3.517  10.339 -0.5148 -1.6504  0.1024
  522MOL0     H70414  -0.591   3.480  10.494 -1.5805 -0.0421 -0.9444
  522MOL0     H70415  -0.762   3.616  10.467 -0.2537 -1.7828  0.2617
  522MOL0     H70416  -0.689   3.720  10.334 -0.7021 -1.1258 -2.5879
  522MOL0     H70417  -0.730   3.428  10.289  1.3352  0.4927 -0.8742
  522MOL0     H70418  -0.707   3.554  10.172 -0.9595  2.2456 -0.2885
  522MOL0     H70419  -0.941   3.524  10.355  2.6890  1.7943  2.6100
  522MOL0     H70420  -0.917   3.659  10.249 -1.2304 -0.8704  1.8660
  522MOL0     H70421  -1.150   3.421  10.264  0.2505  0.6341  0.4153
  522MOL0     H70422  -1.313   3.309  10.108 -1.0949  0.8238 -0.8985
  522MOL0     H70423  -1.292   3.334   9.933  1.0609  2.1753 -0.7150
  522MOL0     H70424  -1.283   3.092   9.999 -0.5628 -0.3417 -0.1113
  522MOL0     H70425  -1.124   3.146   9.939  1.4854  1.4206  0.4317
  522MOL0     H70426  -1.210   3.116  10.230  0.2174 -0.9628 -0.3566
  522MOL0     H70427  -1.054   3.181  10.189  1.3864 -1.7535  0.3542
  522MOL0     H70428  -1.040   2.947  10.044 -1.1828 -0.4566 -0.5809
  522MOL0     H70429  -1.176   2.903  10.159  0.4869 -0.6012 -1.1307
  522MOL0     H70430  -0.774   2.934  10.371  0.5796 -0.5940  0.8131
  522MOL0     H70431  -0.587   2.773  10.350  0.0856  1.2793 -1.4856
  522MOL0     H70432  -0.219   2.683  10.279  1.8107 -0.5176  0.9270
  522MOL0     H70433   0.000   2.550  10.290 -1.2486  0.2840 -2.5192
  522MOL0     H70434   0.009   2.104  10.229  1.5358 -0.5160 -0.0659
  522MOL0     H70435   0.009   2.213  10.078 -1.4087 -1.0597  0.6474
  522MOL0     H70436   0.234   2.200  10.291 -4.1990  0.1356  1.7836
  522MOL0     H70437   0.232   2.078  10.166  1.5702  0.3730  0.5297
  522MOL0     H70438   0.274   2.359  10.098  1.6044  0.1065 -2.9792
  522MOL0     H70439   0.394   2.227  10.113 -0.4384 -1.2927  0.7161
  522MOL0     H70440   0.168   2.218   9.908  0.2870  1.8901  1.2312
  522MOL0     H70441   0.305   2.105   9.934 -1.0561 -1.1444  0.4587
  522MOL0     H70442   0.321   2.403   9.829  2.9320  1.0398  0.4480
  522MOL0     H70443   0.333   2.250   9.746 -2.9272  2.9700 -0.1709
  522MOL0     H70444   0.538   2.311   9.978  2.6946  4.0386 -1.9699
  522MOL0     H70445   0.522   2.172   9.865 -1.7467 -0.6349  1.2833
  522MOL0     H70446   0.554   2.467   9.808 -1.8790 -1.4615  0.5849
  522MOL0     H70447   0.560   2.331   9.685 -1.3056  1.1883  0.7241
  522MOL0     H70448   0.764   2.392   9.901  1.0576 -0.3439 -0.0244
  522MOL0     H70449   0.743   2.241   9.831  2.8899  1.1587  2.8016
  522MOL0     H70450  -0.228   2.193  10.248 -0.6251 -0.5819  2.3344
  522MOL0     H70451  -0.425   2.318  10.218 -1.7293  0.6696 -1.8798
  522MOL0     H70452  -0.786   2.597  10.015 -0.7012  4.7597 -3.1642
  522MOL0     H70453  -0.982   2.743  10.050 -0.7948  2.1057  0.5953
  522MOL0     H70454   0.145   3.949  10.677 -0.8381 -0.8174  0.0823
  522MOL0     H70455   0.406   3.912  10.664  2.3102 -2.2265 -1.3467
  522MOL0     H70456   0.762   3.682  10.556 -2.1101 -0.9598  0.4363
  522MOL0     H70457   1.008   3.680  10.596  0.3095 -2.6322  0.3460
  522MOL0     H70458   1.182   3.627  11.030  1.3102  1.5686  2.5482
  522MOL0     H70459   1.144   3.791  11.013 -0.5522 -1.1133  1.0242
  522MOL0     H70460   1.334   3.822  10.866  0.6897  1.0104  1.3842
  522MOL0     H70461   1.378   3.648  10.861 -2.0430 -0.8201  0.2688
  522MOL0     H70462   1.474   3.658  11.072 -1.3199  0.6174  2.3300
  522MOL0     H70463   1.392   3.810  11.128  0.9099  1.7779 -0.8530
  522MOL0     H70464   1.527   3.935  10.955  5.1233  2.4259  2.2001
  522MOL0     H70465   1.628   3.855  11.068 -0.1476 -0.6863 -0.2083
  522MOL0     H70466   1.757   3.671  10.721 -1.1363  2.0202 -2.0149
  522MOL0     H70467   0.944   3.645  11.018  1.2385 -1.6908 -0.8385
  522MOL0     H70468   0.616   3.700  11.050 -0.7736 -0.7681 -0.5034
  522MOL0     H70469   0.620   3.521  11.017  0.4017 -0.6873 -1.3544
  522MOL0     H70470   0.742   3.591  11.118  0.2069 -0.7893 -0.1706
  523MOL0     O70471   3.104   3.252   3.990  0.1855 -0.2674 -0.1932
  523MOL0     C70472   3.036   3.357   4.020  0.1386  0.4124 -0.3263
  523MOL0     O70473   3.090   3.473   4.051  0.5478 -0.2239 -0.7734
  523MOL0     C70474   3.221   3.469   4.094  0.4325  0.1076 -0.0251
  523MOL0     C70475   3.260   3.418   4.221 -0.7588  0.4485  0.0595
  523MOL0     C70476   3.398   3.434   4.264  0.9429  0.5194 -0.4759
  523MOL0     C70477   3.491   3.498   4.190  0.3231 -0.2588  0.0854
  523MOL0     O70478   3.612   3.509   4.248 -0.1558 -1.0613 -0.0958
  523MOL0     C70479   3.719   3.497   4.164 -0.2935  0.5236  0.5268
  523MOL0     C70480   3.846   3.496   4.252  0.6145 -0.4293 -0.8878
  523MOL0     C70481   3.965   3.574   4.181 -0.4163 -0.0877  0.0008
  523MOL0     C70482   4.094   3.561   4.252  0.0726  0.0876 -0.2663
  523MOL0     C70483   4.216   3.632   4.174  0.0180 -1.0344  0.1245
  523MOL0     C70484   4.342   3.632   4.250  0.3854 -0.2406  0.3075
  523MOL0     C70485   4.456   3.636   4.144  0.2379  0.1335 -0.3446
  523MOL0     C70486   4.583   3.653   4.221 -0.3752 -0.2150 -0.5120
  523MOL0     N70487   4.626   3.791   4.263 -0.6919 -0.3056 -0.3716
  523MOL0     C70488   4.702   3.875   4.182  0.3080  0.1197  0.7349
  523MOL0     C70489   4.757   3.962   4.264 -1.3665  0.3516 -1.0293
  523MOL0     C70490   4.858   4.069   4.229  0.3338 -0.9097  0.4880
  523MOL0     C70491   4.993   4.046   4.284 -0.6910  1.0429 -0.4893
  523MOL0     C70492   5.069   3.928   4.220  0.0156 -0.1669  0.4366
  523MOL0     C70493   5.213   3.927   4.266  0.2772  0.4076  0.1286
  523MOL0     O70494   5.265   3.798   4.241 -0.3767 -0.2525 -0.4728
  523MOL0     C70495   5.390   3.779   4.287 -0.0985  0.2417 -0.5632
  523MOL0     C70496   5.420   3.646   4.326 -0.1016  0.0674  0.0634
  523MOL0     C70497   5.542   3.617   4.387 -0.0191  0.1147 -0.2120
  523MOL0     C70498   5.642   3.713   4.400 -0.0034  0.6341 -0.0095
  523MOL0     C70499   5.774   3.676   4.458  0.3118  0.0526 -1.0672
  523MOL0     O70500   5.816   3.548   4.487  0.1953 -0.5455  0.2610
  523MOL0     C70501   5.931   3.530   4.555  1.1709  0.6575 -0.5054
  523MOL0     C70502   6.010   3.425   4.516 -0.8735 -0.1253 -0.3052
  523MOL0     C70503   6.129   3.397   4.581 -1.1689 -0.3472 -0.0986
  523MOL0     C70504   6.159   3.453   4.704 -0.3748  0.3276  0.2452
  523MOL0     O70505   6.271   3.435   4.783 -0.0390  0.4617 -0.0935
  523MOL0     C70506   6.369   3.346   4.724  1.1117 -0.3153 -0.4785
  523MOL0     C70507   6.503   3.348   4.807 -1.1713 -0.4589  0.9882
  523MOL0     C70508   6.573   3.484   4.793 -0.2631  0.5813 -0.7052
  523MOL0     C70509   6.714   3.472   4.860 -0.5855  0.9651  0.5862
  523MOL0     C70510   6.812   3.564   4.804  0.2558 -0.0898 -0.5841
  523MOL0     C70511   6.943   3.585   4.894 -0.8239  0.2459 -0.3760
  523MOL0     C70512   7.020   3.462   4.939 -0.6702  0.4566  0.4631
  523MOL0     C70513   7.169   3.490   4.911  0.3948 -0.1710  0.4835
  523MOL0    Cl70514   7.188   3.512   4.729  0.2358  0.5509 -0.1789
  523MOL0     C70515   6.070   3.541   4.754 -0.2615  0.6547 -0.0964
  523MOL0     C70516   5.953   3.586   4.682 -0.2631  0.4013 -0.3541
  523MOL0     O70517   5.834   3.776   4.500 -0.3969 -0.2034 -0.3561
  523MOL0     C70518   5.617   3.837   4.350 -0.5301  0.4813  0.7130
  523MOL0     C70519   5.496   3.875   4.288  0.9070  0.0092 -0.9020
  523MOL0     N70520   4.719   3.928   4.394  0.5500 -0.2523  0.0298
  523MOL0     N70521   4.634   3.832   4.390  0.1851 -0.3796  1.3582
  523MOL0     C70522   3.447   3.542   4.061  0.0940 -0.3952 -0.5359
  523MOL0     C70523   3.314   3.527   4.017  0.3214 -0.1698 -0.1798
  523MOL0     C70524   2.891   3.357   3.975  0.1912  0.6169 -0.7230
  523MOL0     C70525   2.839   3.481   3.939  0.4144 -0.3220  0.7371
  523MOL0     C70526   2.706   3.491   3.899  0.2450 -0.0124 -0.1420
  523MOL0     C70527   2.619   3.376   3.893 -1.0728 -0.4586  0.2848
  523MOL0     O70528   2.488   3.384   3.860  0.3782 -0.0592 -0.5692
  523MOL0     C70529   2.391   3.334   3.954  0.1355 -0.2908  0.3508
  523MOL0     C70530   2.255   3.399   3.950 -0.6444 -0.7528  0.3400
  523MOL0     C70531   2.205   3.417   3.808  0.5116 -0.3184  0.3437
  523MOL0     C70532   2.075   3.499   3.806 -0.7671  0.6316  0.6203
  523MOL0     C70533   2.017   3.481   3.672  0.0276  0.3351 -0.6402
  523MOL0     C70534   1.968   3.457   3.564 -0.3584 -0.5035  0.5531
  523MOL0     C70535   2.676   3.253   3.925 -0.5098  0.3183  0.1909
  523MOL0     C70536   2.809   3.239   3.964 -0.1111  0.8824  0.8080
  523MOL0     C70537   2.858   3.101   3.993 -0.1021 -0.6043 -0.1341
  523MOL0     H70538   3.188   3.361   4.280  2.0539 -3.8571 -0.1632
  523MOL0     H70539   3.433   3.393   4.359  1.9183 -2.2097 -1.8955
  523MOL0     H70540   3.701   3.399   4.119  0.8820 -0.0366  1.2456
  523MOL0     H70541   3.720   3.579   4.092  0.8467 -0.2196 -0.3306
  523MOL0     H70542   3.873   3.395   4.284  1.8112 -0.2556 -1.3007
  523MOL0     H70543   3.824   3.551   4.344  3.1270  0.0834 -0.5184
  523MOL0     H70544   3.940   3.680   4.174 -0.1570  0.0223  0.6733
  523MOL0     H70545   3.988   3.535   4.082 -1.7063 -0.7420 -0.0593
  523MOL0     H70546   4.090   3.608   4.351  2.2907  0.2001 -0.1914
  523MOL0     H70547   4.125   3.456   4.260 -0.2857 -0.3127 -3.0171
  523MOL0     H70548   4.222   3.581   4.077 -2.1100 -0.5715 -0.2971
  523MOL0     H70549   4.190   3.737   4.159  0.8793 -0.9898 -1.3280
  523MOL0     H70550   4.343   3.718   4.318  0.0220  1.4584 -1.7407
  523MOL0     H70551   4.343   3.545   4.317 -1.6878 -0.5865 -0.0594
  523MOL0     H70552   4.449   3.724   4.080  1.5569  0.0806 -0.5880
  523MOL0     H70553   4.459   3.548   4.079 -0.9034 -0.2055  0.0217
  523MOL0     H70554   4.594   3.589   4.309  1.2350  1.0179  0.2328
  523MOL0     H70555   4.660   3.612   4.156  3.1133  1.4557  2.2324
  523MOL0     H70556   4.723   3.863   4.076  1.7902 -2.8775  1.2691
  523MOL0     H70557   4.849   4.084   4.121 -3.3218  0.4208  0.8312
  523MOL0     H70558   4.818   4.162   4.271  2.1903 -0.5215  1.5045
  523MOL0     H70559   5.057   4.134   4.270  2.8576 -1.3724 -0.6954
  523MOL0     H70560   4.987   4.035   4.393 -2.4660 -1.8851 -0.7675
  523MOL0     H70561   5.066   3.930   4.111 -2.3839 -3.1600  0.3164
  523MOL0     H70562   5.022   3.835   4.254 -0.0069 -0.0529  0.7191
  523MOL0     H70563   5.214   3.940   4.374  0.0748 -0.0817  0.1915
  523MOL0     H70564   5.265   4.010   4.217 -1.3790  0.0638 -2.4488
  523MOL0     H70565   5.340   3.573   4.325  1.4651 -1.7010 -0.5027
  523MOL0     H70566   5.566   3.519   4.425 -1.2507  0.6461  2.1135
  523MOL0     H70567   5.976   3.375   4.426 -1.2748 -3.5171  1.5495
  523MOL0     H70568   6.185   3.322   4.527 -0.5417  0.9607 -1.3213
  523MOL0     H70569   6.332   3.243   4.724 -0.7398  0.2917  1.0151
  523MOL0     H70570   6.397   3.379   4.623 -0.1425  2.8538  0.1001
  523MOL0     H70571   6.482   3.309   4.907  2.1356 -0.6305  1.7108
  523MOL0     H70572   6.563   3.277   4.750 -0.4334  1.3124 -0.5065
  523MOL0     H70573   6.595   3.498   4.687 -0.3036  0.7714 -0.6895
  523MOL0     H70574   6.510   3.569   4.822 -3.5115 -1.6599 -0.6590
  523MOL0     H70575   6.744   3.367   4.853 -1.2887  0.7754  0.3355
  523MOL0     H70576   6.704   3.477   4.969  2.6127  0.0335  1.0405
  523MOL0     H70577   6.762   3.661   4.798 -0.2133 -0.1599  1.3481
  523MOL0     H70578   6.837   3.523   4.706  1.8775 -1.3006  0.3018
  523MOL0     H70579   7.005   3.651   4.833  0.1257 -0.9502 -0.7355
  523MOL0     H70580   6.920   3.640   4.986 -3.3699  1.3887 -1.5780
  523MOL0     H70581   6.999   3.381   4.868 -0.0094 -2.5612  3.4423
  523MOL0     H70582   6.998   3.416   5.036 -0.9852  0.6427  0.4831
  523MOL0     H70583   7.204   3.582   4.959 -0.4915  0.4110  0.0252
  523MOL0     H70584   7.235   3.411   4.950  0.9312 -0.4714 -0.9858
  523MOL0     H70585   6.099   3.578   4.852 -1.0943 -2.2222  1.3541
  523MOL0     H70586   5.889   3.662   4.725  0.8222  1.1055  0.0651
  523MOL0     H70587   5.690   3.918   4.349  0.3594 -0.1986 -2.7605
  523MOL0     H70588   5.477   3.975   4.251 -0.9927 -0.5648 -1.6027
  523MOL0     H70589   3.520   3.605   4.011 -0.5890  0.1591 -0.8519
  523MOL0     H70590   3.283   3.563   3.920  0.8811  2.0367  0.4068
  523MOL0     H70591   2.894   3.574   3.940  1.8410 -1.0998 -0.1744
  523MOL0     H70592   2.665   3.591   3.888 -0.3215  0.3578  3.9463
  523MOL0     H70593   2.423   3.339   4.058 -0.0942  0.3450  0.3928
  523MOL0     H70594   2.390   3.225   3.941  1.0568 -0.3196  0.4485
  523MOL0     H70595   2.274   3.493   4.003  3.6583 -0.8396 -0.6749
  523MOL0     H70596   2.185   3.334   4.003 -1.7894 -0.7408 -1.0797
  523MOL0     H70597   2.190   3.319   3.763 -3.2215 -0.1604  0.9174
  523MOL0     H70598   2.275   3.476   3.749 -2.1231  2.4934 -0.2400
  523MOL0     H70599   2.010   3.459   3.885  2.2091 -0.1032  2.8776
  523MOL0     H70600   2.086   3.604   3.834 -4.1086  1.8688 -2.0050
  523MOL0     H70601   1.938   3.433   3.464  2.4075  2.1208 -1.0618
  523MOL0     H70602   2.614   3.164   3.926  1.1647 -0.8796  0.9701
  523MOL0     H70603   2.917   3.097   4.085  0.0504  0.8949 -0.1416
  523MOL0     H70604   2.775   3.030   4.002  0.9447 -1.7502  0.9195
  523MOL0     H70605   2.917   3.059   3.911  0.9641 -1.2915  0.9495
  524MOL0     O70606   1.179   1.967   4.373  0.0007 -0.3354 -0.7994
  524MOL0     C70607   1.188   2.049   4.465 -0.6830 -1.2612 -0.2228
  524MOL0     O70608   1.312   2.092   4.525 -1.1032  0.2420  0.7894
  524MOL0     C70609   1.426   2.021   4.512  0.0597 -0.2132 -0.4930
  524MOL0     C70610   1.470   1.971   4.386 -1.0675 -0.2687 -0.2614
  524MOL0     C70611   1.598   1.908   4.383  0.9365 -0.3717  0.0844
  524MOL0     C70612   1.684   1.902   4.491 -1.2368 -0.1777 -0.3512
  524MOL0     O70613   1.803   1.843   4.491  0.4960 -0.3077 -0.8191
  524MOL0     C70614   1.873   1.836   4.368  0.5910  0.1700  0.3448
  524MOL0     C70615   2.013   1.825   4.410  0.2441  0.4452 -1.1488
  524MOL0     C70616   2.040   1.696   4.493 -0.5119  0.6656 -1.0318
  524MOL0     C70617   2.193   1.683   4.494 -0.3274  0.4895 -0.8228
  524MOL0     C70618   2.273   1.800   4.560  1.1584 -0.4086 -0.2538
  524MOL0     C70619   2.429   1.773   4.562  0.1497  0.2942 -0.1698
  524MOL0     C70620   2.465   1.667   4.672  0.1152  0.2363  1.0861
  524MOL0     C70621   2.608   1.642   4.668  0.0637  0.0680  0.1741
  524MOL0     N70622   2.655   1.537   4.762  0.1337 -0.8797 -0.4547
  524MOL0     C70623   2.671   1.557   4.896  0.3513 -0.5737 -0.3594
  524MOL0     C70624   2.744   1.442   4.929  0.2580  0.5723  0.2785
  524MOL0     C70625   2.815   1.408   5.059  0.4039  0.3185  0.4536
  524MOL0     C70626   2.968   1.454   5.049 -0.8140 -0.4616  0.2338
  524MOL0     C70627   3.023   1.475   5.188  0.5346 -0.2776  0.8239
  524MOL0     C70628   3.165   1.503   5.183  0.6613 -1.0198 -0.0054
  524MOL0     O70629   3.234   1.404   5.116  0.0583  0.4012 -0.1669
  524MOL0     C70630   3.374   1.417   5.101  1.1194 -0.7773 -0.4882
  524MOL0     C70631   3.441   1.315   5.045 -0.7162  0.1798  0.1767
  524MOL0     C70632   3.577   1.310   5.018  0.2828 -0.8310  0.2935
  524MOL0     C70633   3.656   1.424   5.055 -0.4488  0.2451 -0.0603
  524MOL0     C70634   3.804   1.417   5.045  0.1721  0.0538  0.4036
  524MOL0     O70635   3.866   1.306   4.985 -0.0546  0.3867  0.1612
  524MOL0     C70636   3.991   1.264   5.034 -0.2312  0.0538  0.4502
  524MOL0     C70637   4.048   1.157   4.956 -0.9142 -0.1035  0.3890
  524MOL0     C70638   4.176   1.107   4.988  0.3144 -0.8380  0.7743
  524MOL0     C70639   4.244   1.155   5.100  0.2938 -0.5936  0.3648
  524MOL0     O70640   4.376   1.116   5.111  0.3814  0.1308 -0.0758
  524MOL0     C70641   4.454   1.159   5.224  0.4716  1.1029 -0.1689
  524MOL0     C70642   4.598   1.116   5.214 -0.8622 -0.6059 -0.0377
  524MOL0     C70643   4.676   1.146   5.347  0.2435 -0.3380 -0.5112
  524MOL0     C70644   4.827   1.150   5.312 -0.0554  0.2587 -0.2181
  524MOL0     C70645   4.919   1.160   5.437  0.2671 -1.5278 -0.2746
  524MOL0     C70646   5.063   1.142   5.408  0.6920  0.8797 -0.5042
  524MOL0     C70647   5.164   1.176   5.526 -0.3121  0.7365  0.9021
  524MOL0     C70648   5.171   1.325   5.555 -0.2663  0.2279  0.2041
  524MOL0    Cl70649   5.296   1.346   5.681  0.0598 -0.6689  0.0223
  524MOL0     C70650   4.181   1.244   5.184  0.5853 -0.5843 -0.1211
  524MOL0     C70651   4.059   1.301   5.153 -0.7842 -0.2097 -0.2005
  524MOL0     O70652   3.863   1.513   5.094  1.0771  0.0377  0.2000
  524MOL0     C70653   3.586   1.534   5.109  1.7258 -1.1793  0.1087
  524MOL0     C70654   3.449   1.529   5.132 -0.4082 -0.2226  0.3253
  524MOL0     N70655   2.756   1.352   4.821  0.2191 -0.0767 -0.1259
  524MOL0     N70656   2.707   1.417   4.723  0.2784 -0.3591  0.0493
  524MOL0     C70657   1.638   1.962   4.612  0.1145  0.9634  0.2325
  524MOL0     C70658   1.516   2.023   4.615 -0.3067 -0.0138  0.0733
  524MOL0     C70659   1.068   2.101   4.522  0.6377 -1.1069  0.0678
  524MOL0     C70660   1.063   2.137   4.663 -0.2209 -0.3923 -0.6494
  524MOL0     C70661   0.945   2.192   4.721  0.3668  0.3684  0.9746
  524MOL0     C70662   0.836   2.211   4.642  0.0779  0.8730 -0.5246
  524MOL0     O70663   0.728   2.264   4.707 -0.3779  0.7997  0.0193
  524MOL0     C70664   0.600   2.207   4.668 -0.2622  0.4390  0.1225
  524MOL0     C70665   0.499   2.285   4.571  0.0461  0.4570  0.0405
  524MOL0     C70666   0.452   2.418   4.620 -0.1373  0.1164  0.3170
  524MOL0     C70667   0.335   2.474   4.533  0.3424 -0.8401 -0.1153
  524MOL0     C70668   0.208   2.398   4.535  0.3945 -0.5373  0.6494
  524MOL0     C70669   0.102   2.335   4.528  0.3913 -0.4813 -0.3637
  524MOL0     C70670   0.837   2.179   4.508 -0.7086 -0.4509  0.2265
  524MOL0     C70671   0.944   2.117   4.442  0.1837 -0.1378 -0.2611
  524MOL0     C70672   0.912   2.064   4.312 -0.3464 -0.8584  0.1166
  524MOL0     H70673   1.410   1.955   4.297 -0.6595 -0.5679 -0.4882
  524MOL0     H70674   1.615   1.850   4.292 -0.6426 -2.7181  1.1846
  524MOL0     H70675   1.849   1.748   4.308 -1.0842  0.0867  1.0808
  524MOL0     H70676   1.856   1.928   4.310  1.8965 -1.4285 -2.8210
  524MOL0     H70677   2.035   1.910   4.474  1.4161 -0.0121 -0.9166
  524MOL0     H70678   2.075   1.830   4.320 -1.3510  0.6435 -2.2953
  524MOL0     H70679   1.998   1.604   4.453  0.4707  0.2758 -1.1929
  524MOL0     H70680   2.016   1.696   4.600  0.4159 -1.3916 -0.7648
  524MOL0     H70681   2.229   1.595   4.548  1.2258  1.5546 -0.0579
  524MOL0     H70682   2.225   1.663   4.391 -2.1888 -2.3878 -0.9744
  524MOL0     H70683   2.269   1.886   4.493  1.9486 -0.3592 -0.2491
  524MOL0     H70684   2.235   1.819   4.660 -0.6562 -2.3508 -0.4999
  524MOL0     H70685   2.459   1.745   4.461  0.5587  0.9347 -0.2297
  524MOL0     H70686   2.476   1.871   4.573 -0.0383  0.4647 -0.8397
  524MOL0     H70687   2.413   1.572   4.654 -0.6679  0.4043  2.3046
  524MOL0     H70688   2.443   1.696   4.775 -0.0318 -0.0216  1.1274
  524MOL0     H70689   2.621   1.613   4.563  1.0166 -0.2209  0.3527
  524MOL0     H70690   2.660   1.735   4.690  1.3444 -0.4247 -0.5777
  524MOL0     H70691   2.648   1.649   4.949  0.4712 -0.5727 -0.3083
  524MOL0     H70692   2.763   1.461   5.139  1.0483  0.2661  0.9182
  524MOL0     H70693   2.806   1.301   5.077 -0.6515  0.3336  0.0520
  524MOL0     H70694   3.029   1.384   4.991 -0.6179  0.5124 -0.7701
  524MOL0     H70695   2.975   1.551   4.999  0.2631  0.0323  1.3134
  524MOL0     H70696   3.008   1.379   5.237 -1.0038 -0.2405  0.4693
  524MOL0     H70697   2.963   1.551   5.239 -1.6653 -2.0103  0.9548
  524MOL0     H70698   3.194   1.508   5.288 -0.8925 -1.9272  0.5006
  524MOL0     H70699   3.168   1.601   5.135  2.0130 -0.7957  0.4974
  524MOL0     H70700   3.383   1.225   5.027  0.1096 -0.2702 -0.2896
  524MOL0     H70701   3.626   1.223   4.976  0.8135 -0.3413 -0.1171
  524MOL0     H70702   3.994   1.113   4.873 -0.2093 -0.9694  0.3797
  524MOL0     H70703   4.213   1.031   4.919  2.0328 -0.8049  1.5944
  524MOL0     H70704   4.448   1.267   5.241  1.4036  1.5955 -2.4913
  524MOL0     H70705   4.414   1.108   5.311  1.1888  0.6431 -0.1011
  524MOL0     H70706   4.615   1.010   5.192 -0.7689 -0.4011 -1.0017
  524MOL0     H70707   4.641   1.175   5.133  0.2573  0.3737  1.2258
  524MOL0     H70708   4.659   1.247   5.384  2.6509 -0.3016  0.6652
  524MOL0     H70709   4.652   1.077   5.428  1.1622 -1.0757 -0.8552
  524MOL0     H70710   4.857   1.232   5.247  4.0779  2.1465  3.5185
  524MOL0     H70711   4.846   1.051   5.270 -0.2756 -0.8267  2.0428
  524MOL0     H70712   4.887   1.082   5.506  0.3625 -0.3446  1.1525
  524MOL0     H70713   4.895   1.253   5.490 -0.7717 -2.8868  1.7644
  524MOL0     H70714   5.073   1.038   5.374  0.8207 -0.1902  2.5680
  524MOL0     H70715   5.094   1.199   5.319  0.0858  1.2534 -0.4847
  524MOL0     H70716   5.264   1.151   5.490  0.2377  3.1488  0.5759
  524MOL0     H70717   5.144   1.129   5.622 -2.1812  0.5585  0.4773
  524MOL0     H70718   5.187   1.391   5.470 -3.6832 -0.1864 -0.9167
  524MOL0     H70719   5.072   1.362   5.582  0.5946  2.7715  0.1315
  524MOL0     H70720   4.220   1.268   5.282  0.2819 -1.2158  0.1638
  524MOL0     H70721   4.021   1.376   5.222 -1.8366  1.6044 -2.6327
  524MOL0     H70722   3.633   1.629   5.132  0.9929  0.4245 -4.0948
  524MOL0     H70723   3.404   1.616   5.177  2.2821  0.1197  2.6406
  524MOL0     H70724   1.703   1.965   4.699  3.2827  2.0763 -1.9737
  524MOL0     H70725   1.490   2.079   4.704 -2.1211 -1.1232  0.2814
  524MOL0     H70726   1.143   2.119   4.734  0.2468 -1.1695 -1.3545
  524MOL0     H70727   0.944   2.217   4.826  2.4345  1.5468  0.7644
  524MOL0     H70728   0.556   2.187   4.766 -0.2556 -0.8699 -0.1200
  524MOL0     H70729   0.620   2.109   4.625  0.8212 -0.0437  1.6625
  524MOL0     H70730   0.404   2.230   4.566  0.0476  0.5821 -2.3661
  524MOL0     H70731   0.536   2.291   4.468 -0.8551 -2.0868 -0.4943
  524MOL0     H70732   0.537   2.484   4.601 -0.3233 -0.2929 -2.3211
  524MOL0     H70733   0.414   2.419   4.723 -1.0872  3.9343  0.0536
  524MOL0     H70734   0.317   2.574   4.574  0.1496  0.0006 -2.1093
  524MOL0     H70735   0.362   2.489   4.428  0.4197 -1.4007 -0.1783
  524MOL0     H70736   0.013   2.278   4.509 -0.7274  1.0443  0.1320
  524MOL0     H70737   0.751   2.195   4.444  0.4883  2.6338 -0.7977
  524MOL0     H70738   0.854   2.135   4.252 -0.6893 -0.9579  0.3256
  524MOL0     H70739   0.999   2.037   4.251 -1.2673 -3.5279 -0.1521
  524MOL0     H70740   0.855   1.973   4.333 -2.5384  0.3276 -0.3308
  525MOL0     O70741   3.351   5.950   1.574  0.1864  0.6258  0.4425
  525MOL0     C70742   3.358   5.848   1.646  0.6411  0.6099 -0.0826
  525MOL0     O70743   3.456   5.754   1.643  0.4866 -0.0948  0.3405
  525MOL0     C70744   3.571   5.776   1.563 -0.2501  0.3143 -0.9486
  525MOL0     C70745   3.585   5.833   1.434  0.5551  1.5272 -0.3870
  525MOL0     C70746   3.703   5.841   1.363 -0.4486 -0.1017 -0.4048
  525MOL0     C70747   3.824   5.798   1.433 -0.6015 -0.9317  0.2020
  525MOL0     O70748   3.956   5.834   1.398  0.7356 -0.7083  0.4209
  525MOL0     C70749   3.991   5.911   1.282  0.1439 -0.0135 -0.2239
  525MOL0     C70750   4.119   5.986   1.314 -0.1967  0.1526 -0.3400
  525MOL0     C70751   4.243   5.901   1.353 -0.4568  0.3008 -0.3435
  525MOL0     C70752   4.366   5.987   1.376  0.5790  0.3618  0.9150
  525MOL0     C70753   4.480   5.923   1.453 -0.3080  0.3024 -0.5709
  525MOL0     C70754   4.522   5.784   1.408 -0.2340  0.7626 -0.2128
  525MOL0     C70755   4.621   5.709   1.492  0.4589  0.5497 -1.1419
  525MOL0     C70756   4.655   5.574   1.429 -0.4322 -0.3357 -0.5357
  525MOL0     N70757   4.759   5.499   1.499 -0.2978  0.4444 -0.2948
  525MOL0     C70758   4.886   5.522   1.479 -0.5950 -0.6630 -0.0461
  525MOL0     C70759   4.947   5.438   1.569  0.2998 -0.6280 -0.6094
  525MOL0     C70760   5.094   5.397   1.588 -0.5523  0.0985  0.3612
  525MOL0     C70761   5.185   5.520   1.579  0.6691 -0.8645  0.3119
  525MOL0     C70762   5.336   5.485   1.563 -0.0554 -0.1093 -1.0055
  525MOL0     C70763   5.402   5.609   1.510 -0.4117  0.2220  0.3347
  525MOL0     O70764   5.374   5.627   1.372 -0.0358  0.0483  0.5496
  525MOL0     C70765   5.423   5.736   1.303  0.1459  0.6949  0.3867
  525MOL0     C70766   5.527   5.812   1.355  0.0471 -0.6281  0.5689
  525MOL0     C70767   5.597   5.904   1.277 -0.2187  1.1493 -0.2709
  525MOL0     C70768   5.548   5.942   1.155 -0.7716  0.0792  0.1027
  525MOL0     C70769   5.614   6.044   1.066 -0.3176 -0.0695 -0.3398
  525MOL0     O70770   5.645   5.995   0.939 -0.3619 -1.0755  0.5207
  525MOL0     C70771   5.757   6.043   0.882  0.0259  1.3286  0.7261
  525MOL0     C70772   5.772   6.129   0.774 -0.1431  0.2064 -0.3857
  525MOL0     C70773   5.899   6.147   0.710  0.2110 -0.4000 -0.4376
  525MOL0     C70774   6.017   6.094   0.764 -0.5581  0.4490 -0.4245
  525MOL0     O70775   6.148   6.114   0.721 -0.9083  0.7209  0.3255
  525MOL0     C70776   6.153   6.127   0.576 -0.1230  0.0227 -0.1311
  525MOL0     C70777   6.290   6.182   0.524  0.2843  0.0497  0.1603
  525MOL0     C70778   6.408   6.099   0.580  0.6136  0.0600  0.3199
  525MOL0     C70779   6.541   6.159   0.532  0.3711  0.8908  0.2807
  525MOL0     C70780   6.654   6.086   0.597 -0.7610 -0.4056  0.3490
  525MOL0     C70781   6.793   6.144   0.579  0.2889 -0.1127 -0.3007
  525MOL0     C70782   6.819   6.246   0.695  0.0997  0.6559  0.8374
  525MOL0     C70783   6.937   6.342   0.679 -0.8375 -0.4858  0.2452
  525MOL0    Cl70784   7.092   6.260   0.676  0.0643  0.3744  0.0538
  525MOL0     C70785   6.005   6.019   0.884 -0.2363 -0.7055 -0.1738
  525MOL0     C70786   5.875   5.993   0.934 -0.2832  0.4000 -0.3982
  525MOL0     O70787   5.662   6.139   1.118 -0.2682 -1.1006  0.0479
  525MOL0     C70788   5.447   5.859   1.093  1.3687  0.0763 -0.0709
  525MOL0     C70789   5.393   5.755   1.167  0.9710 -0.1748  0.9967
  525MOL0     N70790   4.851   5.375   1.641 -0.1747  0.0730  0.6566
  525MOL0     N70791   4.736   5.414   1.595 -0.0828  0.6646  0.2329
  525MOL0     C70792   3.818   5.737   1.567  0.4006 -1.0017 -0.0515
  525MOL0     C70793   3.689   5.732   1.624 -0.5229 -0.1506  0.3297
  525MOL0     C70794   3.245   5.833   1.743 -0.0596 -0.0678  0.3023
  525MOL0     C70795   3.258   5.722   1.828  0.0142  0.3158  0.7571
  525MOL0     C70796   3.159   5.688   1.916 -0.2641  0.2037  0.2718
  525MOL0     C70797   3.061   5.778   1.946 -0.0346  0.3932 -0.0684
  525MOL0     O70798   2.976   5.733   2.051 -0.4931  0.0616 -0.7618
  525MOL0     C70799   2.835   5.714   2.018  0.5159  0.2512 -0.1960
  525MOL0     C70800   2.741   5.657   2.132 -0.4230  0.2030  0.0045
  525MOL0     C70801   2.782   5.519   2.190 -0.2413  0.0005 -0.1224
  525MOL0     C70802   2.671   5.471   2.285  0.4985  0.8407 -0.5766
  525MOL0     C70803   2.714   5.341   2.337  0.1419 -0.2566 -0.4737
  525MOL0     C70804   2.761   5.247   2.389  0.0442  0.8326  0.4535
  525MOL0     C70805   3.041   5.890   1.866  0.3379  0.2299  0.4182
  525MOL0     C70806   3.128   5.911   1.749  0.2044  0.2334  0.5838
  525MOL0     C70807   3.088   6.009   1.634  0.2880 -0.1223 -0.7770
  525MOL0     H70808   3.494   5.863   1.383 -0.2529 -2.5974 -1.8203
  525MOL0     H70809   3.698   5.888   1.265 -1.5656 -0.9904 -0.7997
  525MOL0     H70810   3.998   5.837   1.203  1.2215  1.4162 -1.5361
  525MOL0     H70811   3.916   5.987   1.256  1.1301  1.3967  0.8418
  525MOL0     H70812   4.091   6.066   1.384 -2.0095 -0.8900  0.1873
  525MOL0     H70813   4.149   6.037   1.221 -2.1897  3.6600  0.7509
  525MOL0     H70814   4.268   5.819   1.285  4.2704 -0.7278  2.1939
  525MOL0     H70815   4.220   5.842   1.442  0.1408 -1.8204 -1.5432
  525MOL0     H70816   4.405   6.018   1.279 -1.6463  0.4075 -0.0418
  525MOL0     H70817   4.336   6.077   1.430  1.6880  2.8409 -2.3442
  525MOL0     H70818   4.567   5.989   1.452  2.1748 -2.6675  1.3332
  525MOL0     H70819   4.446   5.920   1.558  0.8178  1.4425 -0.1499
  525MOL0     H70820   4.428   5.728   1.411 -0.2826  0.4333 -3.5299
  525MOL0     H70821   4.544   5.777   1.301 -1.0307 -1.9797 -0.2808
  525MOL0     H70822   4.577   5.701   1.592  1.5392  2.8063 -0.4262
  525MOL0     H70823   4.713   5.766   1.507  1.4183 -0.8066 -1.6928
  525MOL0     H70824   4.569   5.509   1.414 -0.9240 -0.0676  0.9298
  525MOL0     H70825   4.674   5.589   1.322 -3.2712  2.3088 -0.7979
  525MOL0     H70826   4.924   5.585   1.399 -1.9414  1.8538  1.1790
  525MOL0     H70827   5.108   5.348   1.685  0.0160  0.2557  0.3571
  525MOL0     H70828   5.141   5.323   1.523  1.7190  1.0032  0.8942
  525MOL0     H70829   5.148   5.590   1.504 -1.4025 -0.0904  1.9425
  525MOL0     H70830   5.177   5.569   1.677 -2.0321 -1.6154  0.5449
  525MOL0     H70831   5.359   5.396   1.505 -0.7797  0.1008 -1.6241
  525MOL0     H70832   5.377   5.471   1.664  3.3408  2.1000 -1.8887
  525MOL0     H70833   5.510   5.596   1.520 -0.7469 -1.8544  2.2736
  525MOL0     H70834   5.375   5.692   1.576  0.4322  0.3917  0.4793
  525MOL0     H70835   5.559   5.808   1.459 -3.5339  2.1929  1.9976
  525MOL0     H70836   5.676   5.957   1.329 -1.5768  2.7553  0.2340
  525MOL0     H70837   5.686   6.186   0.741  0.8004  2.1827  0.4034
  525MOL0     H70838   5.912   6.221   0.632 -0.0518  1.9939  1.6571
  525MOL0     H70839   6.131   6.030   0.531  2.0782 -0.6956  0.1995
  525MOL0     H70840   6.086   6.202   0.533  0.4220  0.4346 -0.2781
  525MOL0     H70841   6.278   6.185   0.415 -1.0481  1.4045  0.3245
  525MOL0     H70842   6.297   6.283   0.563 -0.3746 -0.1433  0.8123
  525MOL0     H70843   6.403   6.096   0.690  0.8634 -1.3281  0.3210
  525MOL0     H70844   6.400   5.995   0.547  1.6598  0.0317  0.1230
  525MOL0     H70845   6.545   6.265   0.558 -0.4991  1.5325 -1.9932
  525MOL0     H70846   6.546   6.140   0.424  3.3215 -0.0702  0.4891
  525MOL0     H70847   6.660   5.982   0.562  0.5040  0.0079 -0.7565
  525MOL0     H70848   6.639   6.085   0.705  1.0124 -3.5928  0.6826
  525MOL0     H70849   6.868   6.067   0.598  0.2486  0.7710  5.3747
  525MOL0     H70850   6.810   6.192   0.482 -0.7360  3.7447  1.2369
  525MOL0     H70851   6.838   6.175   0.776 -0.5563 -2.2547 -1.3789
  525MOL0     H70852   6.728   6.302   0.718 -1.9239 -2.5662  1.2821
  525MOL0     H70853   6.933   6.403   0.588  1.4201  1.9432  1.6278
  525MOL0     H70854   6.941   6.409   0.765  3.0998 -0.1556 -0.0206
  525MOL0     H70855   6.089   5.975   0.936  1.7120  1.9346 -0.8740
  525MOL0     H70856   5.881   5.926   1.019 -0.0833 -2.7506 -2.7220
  525MOL0     H70857   5.411   5.875   0.992 -0.5127  2.7216  0.9295
  525MOL0     H70858   5.307   5.695   1.137  0.4209  1.2601 -0.4424
  525MOL0     H70859   3.909   5.695   1.608  1.8881  1.4743 -0.6200
  525MOL0     H70860   3.684   5.674   1.715 -0.8488 -0.2724  0.2372
  525MOL0     H70861   3.342   5.654   1.815 -0.9700 -0.3677 -3.2354
  525MOL0     H70862   3.153   5.591   1.964 -1.7061 -0.7951 -1.7566
  525MOL0     H70863   2.835   5.640   1.937 -3.1092  2.1036 -2.1077
  525MOL0     H70864   2.793   5.810   1.987 -1.3849  0.4129  2.6049
  525MOL0     H70865   2.639   5.646   2.097  0.2064  0.6580 -2.1250
  525MOL0     H70866   2.734   5.734   2.210 -1.8858 -1.4760  1.5963
  525MOL0     H70867   2.880   5.526   2.238 -0.9762 -0.1752  1.4445
  525MOL0     H70868   2.791   5.459   2.098  4.0333  0.0496  0.0564
  525MOL0     H70869   2.644   5.540   2.365  1.7692  1.5431 -0.7168
  525MOL0     H70870   2.582   5.448   2.225  0.3793 -1.7973  0.5038
  525MOL0     H70871   2.806   5.162   2.436  0.0778  0.6300  0.0579
  525MOL0     H70872   2.950   5.945   1.887 -1.1965 -0.2985 -3.8321
  525MOL0     H70873   3.106   5.963   1.536  5.1478 -2.5295  0.9515
  525MOL0     H70874   2.982   6.034   1.651  0.9614  0.5920  3.6705
  525MOL0     H70875   3.146   6.101   1.636 -1.2297  0.9417 -2.3411
  526MOL0     O70876   9.275   8.168  10.342 -0.3121  0.2621  0.8610
  526MOL0     C70877   9.242   8.246  10.252 -0.8947  0.0359  0.1133
  526MOL0     O70878   9.327   8.312  10.168  0.0077  0.4978 -0.0874
  526MOL0     C70879   9.467   8.298  10.171 -0.0137 -1.1408 -0.4623
  526MOL0     C70880   9.538   8.274  10.293  0.7347 -0.4212 -0.4697
  526MOL0     C70881   9.676   8.268  10.292 -1.0116 -0.6032  0.1355
  526MOL0     C70882   9.740   8.270  10.173  0.1499  0.0503 -1.2241
  526MOL0     O70883   9.875   8.247  10.168 -0.1104  0.7983 -0.2908
  526MOL0     C70884   9.957   8.341  10.236 -0.1382 -0.0756  0.1747
  526MOL0     C70885  10.091   8.334  10.160  0.2103 -0.2387 -1.0367
  526MOL0     C70886  10.174   8.216  10.193  0.1181  0.2785 -0.0344
  526MOL0     C70887  10.320   8.257  10.220  0.2110  0.2327  0.2488
  526MOL0     C70888  10.408   8.131  10.232  0.2920 -0.0733 -0.4018
  526MOL0     C70889  10.552   8.158  10.225  0.0094 -0.4824 -0.3693
  526MOL0     C70890  10.601   8.166  10.077 -0.4324  0.7738  0.1213
  526MOL0     C70891  10.756   8.199  10.073  0.2513  0.0489  0.0816
  526MOL0     N70892  10.833   8.119  10.168  0.2008  0.1206 -0.1512
  526MOL0     C70893  10.891   7.998  10.139 -0.0986  0.6685  0.0975
  526MOL0     C70894  10.965   7.974  10.244  0.5832  0.1639 -0.1670
  526MOL0     C70895  11.042   7.848  10.281 -0.5680 -0.3329  0.4538
  526MOL0     C70896  11.187   7.836  10.235  0.5165 -1.2099 -0.2669
  526MOL0     C70897  11.273   7.948  10.302  0.4234  0.2537 -0.1442
  526MOL0     C70898  11.409   7.938  10.260 -0.0445 -0.4016  0.7196
  526MOL0     O70899  11.464   7.822  10.313 -0.2221  0.1063  0.1101
  526MOL0     C70900  11.604   7.816  10.311  0.3977 -0.4380  1.2080
  526MOL0     C70901  11.689   7.906  10.248  0.0243  0.1080 -0.1122
  526MOL0     C70902  11.823   7.905  10.267 -0.3258 -0.3545  0.3273
  526MOL0     C70903  11.873   7.796  10.338  1.0413 -0.4465 -0.6264
  526MOL0     C70904  12.019   7.778  10.347  0.2760 -0.5020 -0.9617
  526MOL0     O70905  12.099   7.897  10.318 -0.3084 -0.1251  0.1442
  526MOL0     C70906  12.239   7.886  10.310  0.1632 -1.0901  0.0174
  526MOL0     C70907  12.303   7.949  10.201 -0.6812  0.5162 -0.0692
  526MOL0     C70908  12.440   7.969  10.207  0.9189 -0.2040  0.4149
  526MOL0     C70909  12.514   7.908  10.300 -0.6125  0.4344 -0.6505
  526MOL0     O70910  12.649   7.911  10.277  0.2961  0.2007 -1.0358
  526MOL0     C70911  12.722   7.907  10.406  0.8910  0.8580 -0.1845
  526MOL0     C70912  12.872   7.906  10.364 -0.0017  0.6088 -0.6315
  526MOL0     C70913  12.978   7.903  10.478  1.2246  0.4281  0.6428
  526MOL0     C70914  13.124   7.884  10.412  0.4361  0.1690  0.6262
  526MOL0     C70915  13.180   8.018  10.370 -0.7630  0.5518 -1.0798
  526MOL0     C70916  13.330   8.023  10.343  0.2584  0.1822 -0.3817
  526MOL0     C70917  13.360   8.174  10.314 -0.3972 -0.0327  0.4442
  526MOL0     C70918  13.497   8.201  10.262  0.4618 -0.6797 -0.1351
  526MOL0    Cl70919  13.597   8.206  10.407 -0.2958 -0.6683 -0.7801
  526MOL0     C70920  12.449   7.833  10.407  1.0724 -0.4386  1.2468
  526MOL0     C70921  12.311   7.815  10.412  0.1942  0.0992 -0.2112
  526MOL0     O70922  12.068   7.670  10.388 -0.1234  0.3418  0.5159
  526MOL0     C70923  11.791   7.708  10.411 -0.5181  0.4161  0.9242
  526MOL0     C70924  11.659   7.715  10.392 -0.1357  0.0314  0.4373
  526MOL0     N70925  10.949   8.071  10.335  0.0021 -0.0663 -0.2361
  526MOL0     N70926  10.870   8.157  10.292  0.4188  0.4038  0.2321
  526MOL0     C70927   9.664   8.285  10.051 -0.3675 -0.1330  0.1755
  526MOL0     C70928   9.534   8.308  10.054  0.4413  0.5067 -0.6288
  526MOL0     C70929   9.099   8.265  10.229 -0.3788  0.3712 -1.0159
  526MOL0     C70930   9.007   8.179  10.304  0.6527  0.4915 -0.7804
  526MOL0     C70931   8.876   8.186  10.276  1.0851  0.2475  0.8848
  526MOL0     C70932   8.827   8.277  10.191  0.4519 -0.7990  0.7836
  526MOL0     O70933   8.692   8.280  10.181  0.5942 -0.2882  0.1620
  526MOL0     C70934   8.620   8.322  10.068  0.2033  0.6750  0.8759
  526MOL0     C70935   8.649   8.210   9.967 -0.5039 -0.0320 -0.2936
  526MOL0     C70936   8.577   8.086  10.006 -0.1907 -0.5346 -1.0490
  526MOL0     C70937   8.608   7.975   9.904 -0.4816 -0.9368  0.4286
  526MOL0     C70938   8.573   7.844   9.951  0.0663 -0.3937  0.2280
  526MOL0     C70939   8.509   7.751   9.995  0.2951  0.3459  0.5764
  526MOL0     C70940   8.914   8.370  10.123  0.4679  1.0663 -0.0251
  526MOL0     C70941   9.048   8.366  10.143 -0.2367 -0.0184  0.4408
  526MOL0     C70942   9.120   8.492  10.099 -0.5544  0.1464  0.2615
  526MOL0     H70943   9.491   8.264  10.391  2.0164 -0.7386  0.1290
  526MOL0     H70944   9.729   8.238  10.382  1.2544  1.2737 -0.4788
  526MOL0     H70945   9.919   8.443  10.228 -0.3555 -0.1467  0.2854
  526MOL0     H70946   9.967   8.321  10.343  1.6802  1.5034  0.3583
  526MOL0     H70947  10.137   8.429  10.188  1.1768 -1.5654  2.5508
  526MOL0     H70948  10.077   8.341  10.052  2.0885 -3.4048 -1.6106
  526MOL0     H70949  10.169   8.146  10.109 -0.9297  0.8161 -0.4257
  526MOL0     H70950  10.141   8.159  10.280  0.7681 -0.2530 -0.1241
  526MOL0     H70951  10.354   8.329  10.146 -0.0942  0.3832  0.2532
  526MOL0     H70952  10.336   8.294  10.322 -1.0893  0.0470  0.5333
  526MOL0     H70953  10.376   8.065  10.313 -2.3871  0.0759 -1.2550
  526MOL0     H70954  10.392   8.076  10.138 -0.0250  1.0328 -1.0121
  526MOL0     H70955  10.573   8.253  10.275  1.2548  0.1107 -1.9473
  526MOL0     H70956  10.604   8.077  10.277 -1.0835 -0.8255  0.2240
  526MOL0     H70957  10.551   8.241  10.015 -0.6172 -0.2260 -1.0020
  526MOL0     H70958  10.583   8.062  10.045  2.1842  0.1131  0.5827
  526MOL0     H70959  10.798   8.200   9.972  0.3970  0.7328  0.1489
  526MOL0     H70960  10.762   8.302  10.107  4.6245 -0.5222  1.6034
  526MOL0     H70961  10.874   7.924  10.060  4.7799 -2.6485  1.6526
  526MOL0     H70962  11.036   7.823  10.387  2.4830  0.4079  0.8823
  526MOL0     H70963  10.995   7.760  10.235 -1.2199  0.4340 -0.3691
  526MOL0     H70964  11.228   7.741  10.271 -1.9012 -1.4605  2.0977
  526MOL0     H70965  11.202   7.841  10.126  0.3956 -0.9871 -0.2735
  526MOL0     H70966  11.259   7.944  10.411  1.2403 -0.9352 -0.0676
  526MOL0     H70967  11.248   8.044  10.256 -0.0767 -1.1036 -2.9133
  526MOL0     H70968  11.456   8.029  10.298  0.6078 -0.3030 -0.2688
  526MOL0     H70969  11.414   7.941  10.151 -1.9481  2.2728  0.6013
  526MOL0     H70970  11.647   7.976  10.176  2.0081 -0.5000 -1.9619
  526MOL0     H70971  11.886   7.974  10.212  1.2159 -0.8874  1.3641
  526MOL0     H70972  12.249   7.992  10.117 -1.1922  0.4368  0.2187
  526MOL0     H70973  12.481   8.029  10.127 -0.7188  2.3443  1.3487
  526MOL0     H70974  12.695   7.988  10.474 -4.2656  1.1817 -2.1651
  526MOL0     H70975  12.706   7.813  10.460 -1.8868  2.1227  1.3961
  526MOL0     H70976  12.901   7.814  10.312 -1.5279 -0.6864  0.6891
  526MOL0     H70977  12.894   7.995  10.304 -0.2121  0.5568 -0.7898
  526MOL0     H70978  12.983   7.996  10.535  2.0188  0.7632  0.0465
  526MOL0     H70979  12.955   7.820  10.546  1.1490 -1.7508 -1.8732
  526MOL0     H70980  13.120   7.828  10.318  2.9622  0.3302  0.3453
  526MOL0     H70981  13.179   7.838  10.495  1.8883  2.5706  1.0954
  526MOL0     H70982  13.145   8.089  10.445 -2.3438  0.7574 -1.9642
  526MOL0     H70983  13.134   8.060  10.280 -0.3540  1.9755 -0.6588
  526MOL0     H70984  13.386   7.980  10.427 -3.0120 -0.3103  1.7217
  526MOL0     H70985  13.351   7.959  10.257  0.7696  2.2308 -1.8639
  526MOL0     H70986  13.363   8.227  10.410 -0.5063 -0.6967  0.8288
  526MOL0     H70987  13.291   8.201  10.235 -0.1773  0.1857  0.3250
  526MOL0     H70988  13.533   8.122  10.195 -2.8194 -0.9342 -1.8129
  526MOL0     H70989  13.515   8.298  10.215  1.1947  0.0999  1.6786
  526MOL0     H70990  12.509   7.777  10.478  3.0167  0.1467  0.1313
  526MOL0     H70991  12.267   7.767  10.500  0.4136 -0.8206 -0.5969
  526MOL0     H70992  11.839   7.643  10.484  0.5999 -0.9694 -0.9599
  526MOL0     H70993  11.594   7.649  10.448 -1.9246  1.4568  0.1383
  526MOL0     H70994   9.723   8.281   9.960 -1.1474 -0.4526 -0.3173
  526MOL0     H70995   9.483   8.315   9.959  1.9771  2.2254 -1.4065
  526MOL0     H70996   9.040   8.110  10.380 -0.5791 -1.3129 -1.8134
  526MOL0     H70997   8.802   8.123  10.325 -1.3715  2.3445  0.0842
  526MOL0     H70998   8.635   8.425  10.032 -1.2592  0.9552  1.0120
  526MOL0     H70999   8.513   8.324  10.089  0.6290  1.6265  3.3778
  526MOL0     H71000   8.758   8.198   9.966  0.1569  4.0267  1.3870
  526MOL0     H71001   8.610   8.236   9.868 -0.7808 -0.9891 -0.4390
  526MOL0     H71002   8.470   8.111  10.000 -0.2026 -0.6035 -1.1337
  526MOL0     H71003   8.619   8.052  10.101  2.7693 -1.4428 -2.5600
  526MOL0     H71004   8.555   7.998   9.812  0.3427 -2.3221 -0.4210
  526MOL0     H71005   8.712   7.972   9.870 -1.1308 -1.0945 -1.6709
  526MOL0     H71006   8.447   7.672  10.031  1.1294  0.5637  2.5876
  526MOL0     H71007   8.867   8.454  10.072 -0.3172  2.2150  2.4495
  526MOL0     H71008   9.047   8.550  10.042  0.4006 -0.9551 -2.2158
  526MOL0     H71009   9.160   8.550  10.183 -1.2318  2.9908 -1.2562
  526MOL0     H71010   9.206   8.468  10.035 -0.0294  1.0508  0.6220
  527MOL0     O71011   9.058   1.536   6.899  0.5348  0.1383 -0.1299
  527MOL0     C71012   8.950   1.479   6.901  0.5272 -0.7034  0.2999
  527MOL0     O71013   8.927   1.354   6.945  0.3356 -0.8822 -0.8141
  527MOL0     C71014   9.036   1.302   7.019  0.1533 -0.4034  0.7545
  527MOL0     C71015   9.130   1.223   6.948  0.5486 -0.2138 -0.2960
  527MOL0     C71016   9.229   1.153   7.022 -0.7196 -0.0888  0.1656
  527MOL0     C71017   9.249   1.162   7.157  0.5817  0.1605 -0.2106
  527MOL0     O71018   9.359   1.098   7.202  0.2196  0.4548  0.2552
  527MOL0     C71019   9.391   1.110   7.335  0.0444 -0.7378  0.8331
  527MOL0     C71020   9.528   1.040   7.356  0.0121 -0.1110 -0.0274
  527MOL0     C71021   9.654   1.122   7.302 -0.1374  0.4643  0.6442
  527MOL0     C71022   9.785   1.078   7.353  0.3433  0.3088  0.0270
  527MOL0     C71023   9.899   1.131   7.265 -0.8097  0.1081 -0.7465
  527MOL0     C71024  10.033   1.095   7.318  0.3097 -0.4927  0.1690
  527MOL0     C71025  10.140   1.106   7.206 -0.1352 -0.3598 -0.3471
  527MOL0     C71026  10.212   1.249   7.200  0.5501  0.3193  0.2843
  527MOL0     N71027  10.275   1.296   7.324  0.3559  0.1675 -0.3542
  527MOL0     C71028  10.357   1.221   7.391 -0.5135  0.1817  0.4664
  527MOL0     C71029  10.381   1.283   7.504 -0.0416  0.2979 -0.7954
  527MOL0     C71030  10.479   1.242   7.613  0.2807  0.5496  0.2107
  527MOL0     C71031  10.635   1.256   7.584  0.9970 -0.1706 -0.1820
  527MOL0     C71032  10.710   1.248   7.718 -0.2935  0.3446 -0.4937
  527MOL0     C71033  10.855   1.288   7.686  0.0853 -0.2131  0.0689
  527MOL0     O71034  10.908   1.165   7.617 -0.0099 -0.4941 -0.1666
  527MOL0     C71035  11.042   1.174   7.601 -0.7367 -0.1481 -0.0713
  527MOL0     C71036  11.102   1.283   7.543 -1.0761  0.2506 -0.1713
  527MOL0     C71037  11.236   1.280   7.522 -0.4293  0.7337  0.6502
  527MOL0     C71038  11.313   1.161   7.555 -0.1285 -0.1969 -0.5612
  527MOL0     C71039  11.452   1.145   7.515 -1.4144  0.0342 -0.1086
  527MOL0     O71040  11.521   1.090   7.621  0.1205  0.2978 -0.3104
  527MOL0     C71041  11.657   1.079   7.611 -0.3853 -0.9223  0.6076
  527MOL0     C71042  11.745   1.173   7.681  0.5944 -1.3543 -0.2561
  527MOL0     C71043  11.882   1.158   7.677  0.0444 -0.4305 -0.0812
  527MOL0     C71044  11.948   1.054   7.606  0.6376  0.1677  0.2705
  527MOL0     O71045  12.083   1.035   7.622  0.2642 -0.1990 -0.1314
  527MOL0     C71046  12.121   1.007   7.760 -0.1148  0.1466 -0.3956
  527MOL0     C71047  12.236   0.917   7.746 -0.2097  0.0161 -0.4369
  527MOL0     C71048  12.261   0.843   7.873 -0.5976  1.0110 -0.9166
  527MOL0     C71049  12.324   0.926   7.981 -0.4883  0.5083 -0.0627
  527MOL0     C71050  12.395   0.846   8.087  0.8294 -0.8865 -0.1210
  527MOL0     C71051  12.289   0.766   8.170  0.0856  0.3165  0.0889
  527MOL0     C71052  12.205   0.867   8.243 -0.2910  0.1291  0.0117
  527MOL0     C71053  12.101   0.796   8.334 -0.4498 -0.8241  0.0169
  527MOL0    Cl71054  11.978   0.683   8.251  0.1383 -0.2431  0.2935
  527MOL0     C71055  11.863   0.975   7.531 -0.8054  0.5985 -0.2173
  527MOL0     C71056  11.724   0.987   7.536  1.2194 -0.1347  0.5001
  527MOL0     O71057  11.500   1.195   7.411 -0.1767 -0.1614  0.1710
  527MOL0     C71058  11.248   1.051   7.598  0.4399  0.5184 -0.2752
  527MOL0     C71059  11.112   1.056   7.634 -1.0463  0.0862 -0.1877
  527MOL0     N71060  10.279   1.379   7.514 -0.5672  0.7292 -0.5333
  527MOL0     N71061  10.218   1.388   7.405 -0.5710 -0.4952 -0.6495
  527MOL0     C71062   9.157   1.247   7.227  1.1275  0.7803  0.8937
  527MOL0     C71063   9.051   1.309   7.160  0.0522  0.6524 -0.2920
  527MOL0     C71064   8.834   1.547   6.831 -0.5122 -0.2741 -0.9823
  527MOL0     C71065   8.862   1.658   6.754 -0.3211 -0.4744 -0.0575
  527MOL0     C71066   8.762   1.739   6.696  0.1710  0.4836 -0.3160
  527MOL0     C71067   8.629   1.703   6.701  0.8275 -0.6740 -0.6808
  527MOL0     O71068   8.541   1.775   6.624 -1.0429 -0.3774  0.2355
  527MOL0     C71069   8.405   1.746   6.619  0.7750  0.0086 -0.2821
  527MOL0     C71070   8.374   1.629   6.520 -0.2601 -0.7189 -0.0517
  527MOL0     C71071   8.227   1.605   6.513 -0.2699  0.0779  0.5938
  527MOL0     C71072   8.211   1.475   6.441 -0.4136  0.1302  1.0082
  527MOL0     C71073   8.067   1.448   6.403  0.5205  0.3032  0.5527
  527MOL0     C71074   7.944   1.446   6.375 -0.1571 -0.0099  0.2684
  527MOL0     C71075   8.596   1.588   6.779  0.3576 -0.4093 -0.5430
  527MOL0     C71076   8.697   1.505   6.838 -0.3714 -0.6538  0.7431
  527MOL0     C71077   8.657   1.403   6.939  0.2646  0.0220 -0.5829
  527MOL0     H71078   9.122   1.205   6.841 -0.8841 -1.0044 -0.0815
  527MOL0     H71079   9.302   1.094   6.968 -0.8649 -0.5688  0.4856
  527MOL0     H71080   9.411   1.214   7.363 -3.6153  0.2626  0.1877
  527MOL0     H71081   9.320   1.060   7.403 -2.9640  0.7137 -1.0282
  527MOL0     H71082   9.517   0.943   7.307 -0.2594 -0.5965  0.9668
  527MOL0     H71083   9.543   1.012   7.461  2.1753  1.4906  0.1864
  527MOL0     H71084   9.641   1.228   7.324 -2.0656  0.0509  1.7445
  527MOL0     H71085   9.648   1.115   7.193 -1.9256  4.4880  0.2856
  527MOL0     H71086   9.788   1.128   7.450 -2.2332 -2.1928  1.5125
  527MOL0     H71087   9.792   0.973   7.383  2.1107  0.6540  0.9767
  527MOL0     H71088   9.898   1.094   7.162  1.5919 -0.4342 -0.6379
  527MOL0     H71089   9.886   1.239   7.260 -1.9383 -0.0313 -1.2347
  527MOL0     H71090  10.054   1.150   7.410 -0.9933  4.3765 -2.1369
  527MOL0     H71091  10.025   0.988   7.342 -3.0287 -0.3935  0.0386
  527MOL0     H71092  10.093   1.071   7.113 -0.9520  0.3427 -0.2133
  527MOL0     H71093  10.218   1.035   7.233  0.0205  0.1909  0.7153
  527MOL0     H71094  10.295   1.241   7.130  1.4778 -0.2838  1.4277
  527MOL0     H71095  10.146   1.327   7.162 -0.0485  0.1770  1.0108
  527MOL0     H71096  10.420   1.147   7.344 -3.4071 -2.0941 -0.1346
  527MOL0     H71097  10.451   1.297   7.704 -0.1001 -2.6210  2.1478
  527MOL0     H71098  10.459   1.136   7.631 -0.9244  0.7945  0.3724
  527MOL0     H71099  10.656   1.179   7.509 -2.6422 -2.5579  0.9351
  527MOL0     H71100  10.656   1.354   7.542  0.8957 -0.6132 -1.3100
  527MOL0     H71101  10.706   1.145   7.756  0.7699  1.5005  3.0985
  527MOL0     H71102  10.674   1.310   7.800 -0.0438  0.7512 -0.6873
  527MOL0     H71103  10.910   1.309   7.777  1.5323 -2.3370 -0.2412
  527MOL0     H71104  10.848   1.377   7.623  2.0039  0.2964  0.5265
  527MOL0     H71105  11.047   1.368   7.504 -0.9955  0.8540  1.0115
  527MOL0     H71106  11.285   1.365   7.477 -1.8148  1.0008 -0.4379
  527MOL0     H71107  11.710   1.245   7.754  3.1530  0.1674 -0.4141
  527MOL0     H71108  11.944   1.232   7.726  2.7866 -2.4340 -0.3207
  527MOL0     H71109  12.146   1.092   7.823  0.6473 -1.7281  2.0047
  527MOL0     H71110  12.050   0.957   7.827 -0.8811  1.7341  0.0092
  527MOL0     H71111  12.215   0.852   7.660  1.7381 -0.3004 -0.7264
  527MOL0     H71112  12.323   0.979   7.719  0.9725 -0.6126  1.7098
  527MOL0     H71113  12.164   0.802   7.903 -1.4232  2.7656 -1.0746
  527MOL0     H71114  12.325   0.760   7.840 -1.2381  0.9512 -2.0449
  527MOL0     H71115  12.254   1.006   8.008 -0.4818  0.1568  1.0268
  527MOL0     H71116  12.400   0.987   7.930 -2.3720  0.5520 -3.0680
  527MOL0     H71117  12.453   0.912   8.152 -0.4289  0.3453 -0.1946
  527MOL0     H71118  12.463   0.775   8.038  0.1072 -0.4453 -1.8373
  527MOL0     H71119  12.232   0.698   8.106  1.8490 -1.1833  0.0330
  527MOL0     H71120  12.348   0.694   8.228 -0.5981 -0.7081 -0.4425
  527MOL0     H71121  12.153   0.933   8.173  0.5154 -0.0892 -0.8158
  527MOL0     H71122  12.268   0.940   8.294  1.0761 -1.3926  0.5874
  527MOL0     H71123  12.151   0.733   8.408  1.1350  1.1474  0.7194
  527MOL0     H71124  12.044   0.871   8.389  1.7002  1.1218 -0.1962
  527MOL0     H71125  11.910   0.896   7.472  1.3811  2.7465 -1.5364
  527MOL0     H71126  11.658   0.923   7.478 -2.0389  0.8629  2.7878
  527MOL0     H71127  11.293   0.952   7.608 -0.7978 -0.0735 -0.3244
  527MOL0     H71128  11.059   0.967   7.665  1.4599 -0.9882  1.3572
  527MOL0     H71129   9.162   1.262   7.335 -2.3045  3.1137  0.8720
  527MOL0     H71130   8.985   1.377   7.212  2.7129  2.0463  1.4665
  527MOL0     H71131   8.961   1.694   6.729 -0.6970  1.1891  0.6939
  527MOL0     H71132   8.789   1.827   6.639 -0.2908  0.0460 -1.2383
  527MOL0     H71133   8.339   1.829   6.596 -0.6316 -0.9352  0.2024
  527MOL0     H71134   8.370   1.712   6.717 -2.5729 -0.1267 -1.4153
  527MOL0     H71135   8.429   1.536   6.538  0.4136 -0.3868 -0.3354
  527MOL0     H71136   8.400   1.663   6.419  0.9893  3.4663  1.4728
  527MOL0     H71137   8.178   1.690   6.464  2.4135  0.5800 -1.5048
  527MOL0     H71138   8.182   1.600   6.612 -1.1039 -0.4826  0.1993
  527MOL0     H71139   8.270   1.467   6.349 -0.8227 -4.1376  0.9453
  527MOL0     H71140   8.242   1.393   6.505 -2.5588 -2.1881 -0.7267
  527MOL0     H71141   7.842   1.447   6.340 -0.0471  1.3034 -0.0455
  527MOL0     H71142   8.494   1.554   6.793  0.7643 -1.1894  0.7131
  527MOL0     H71143   8.705   1.420   7.035  0.6124  0.0996 -0.7682
  527MOL0     H71144   8.550   1.409   6.962  0.7464  1.5272  1.5152
  527MOL0     H71145   8.678   1.305   6.897 -1.5204 -0.4561 -0.4612
  528MOL0     O71146   0.357   4.878  10.050 -0.2034 -0.4046 -0.0506
  528MOL0     C71147   0.279   4.851  10.144 -0.3557  0.0344 -0.2497
  528MOL0     O71148   0.320   4.828  10.276 -0.2497 -0.5121 -0.4627
  528MOL0     C71149   0.438   4.856  10.322  0.2086  0.1692 -0.0487
  528MOL0     C71150   0.501   4.971  10.286  0.2640  0.3653 -0.1775
  528MOL0     C71151   0.624   5.011  10.339  1.3443  0.7966 -0.4146
  528MOL0     C71152   0.692   4.910  10.415  1.0889 -0.2519  0.1031
  528MOL0     O71153   0.820   4.945  10.459 -0.2645  0.1776 -0.1504
  528MOL0     C71154   0.929   4.858  10.441  0.3193  0.2351 -0.1639
  528MOL0     C71155   1.045   4.924  10.507  0.6991  0.2928 -1.1906
  528MOL0     C71156   1.172   4.833  10.507  0.4241  0.6125  0.5260
  528MOL0     C71157   1.271   4.887  10.607  0.6896 -0.4211 -0.1654
  528MOL0     C71158   1.341   5.009  10.547  0.2336  0.2058 -0.7779
  528MOL0     C71159   1.483   5.045  10.596 -0.8855  0.4171 -0.0428
  528MOL0     C71160   1.474   5.078  10.745  0.0242 -0.1857 -0.3093
  528MOL0     C71161   1.581   5.172  10.798 -0.3259 -0.3124 -0.3791
  528MOL0     N71162   1.701   5.108  10.839 -0.8608 -0.8703 -0.3848
  528MOL0     C71163   1.788   5.038  10.761  0.1153 -0.1147  0.0194
  528MOL0     C71164   1.901   5.026  10.821 -1.3096 -0.2914 -0.9842
  528MOL0     C71165   2.029   4.974  10.771  0.1927  0.4977  0.3906
  528MOL0     C71166   2.033   4.824  10.782  0.3941 -0.3593  0.7393
  528MOL0     C71167   2.034   4.791  10.927  0.4273  0.1544 -0.3730
  528MOL0     C71168   2.153   4.836  11.008 -0.7930  0.2635 -0.2246
  528MOL0     O71169   2.284   4.803  10.947  0.1057  0.2435 -0.7930
  528MOL0     C71170   2.391   4.895  10.943  0.8483  0.5019 -0.6647
  528MOL0     C71171   2.481   4.881  11.045 -0.0083 -0.0769 -0.3485
  528MOL0     C71172   2.593   4.961  11.057 -0.1492  0.2856  0.4676
  528MOL0     C71173   2.624   5.059  10.959  0.6588 -0.0991  0.7082
  528MOL0     C71174   2.749   5.140  10.976  0.8277 -0.0023 -1.1413
  528MOL0     O71175   2.833   5.101  11.073 -0.2684  0.0799 -0.7465
  528MOL0     C71176   2.944   5.173  11.113  0.2562 -0.4079  0.8397
  528MOL0     C71177   3.039   5.113  11.188  0.5404  0.1662  0.7894
  528MOL0     C71178   3.152   5.174  11.240 -0.2282 -0.2710 -0.2814
  528MOL0     C71179   3.177   5.306  11.202 -0.0199  0.9493  0.3936
  528MOL0     O71180   3.287   5.376  11.229  0.4865 -0.3404  0.2884
  528MOL0     C71181   3.397   5.310  11.279 -0.9261  0.4806  0.3184
  528MOL0     C71182   3.516   5.405  11.275 -0.5006  0.6973 -0.5416
  528MOL0     C71183   3.650   5.325  11.292  1.0864 -0.4318 -0.3309
  528MOL0     C71184   3.777   5.410  11.257  0.2178 -0.2347  0.1145
  528MOL0     C71185   3.912   5.336  11.271 -0.4624 -0.5967 -0.1543
  528MOL0     C71186   4.011   5.429  11.218 -0.2127  0.1195  0.3872
  528MOL0     C71187   4.157   5.382  11.233 -0.1371  0.2508  0.2300
  528MOL0     C71188   4.204   5.290  11.121  0.5591 -0.9441  0.0477
  528MOL0    Cl71189   4.191   5.119  11.183  0.1929 -0.0147  0.0646
  528MOL0     C71190   3.073   5.381  11.138  0.1009  0.1511  0.0897
  528MOL0     C71191   2.959   5.317  11.097 -0.2368  0.4784 -0.1820
  528MOL0     O71192   2.777   5.214  10.884  0.1747 -0.2495  0.4086
  528MOL0     C71193   2.522   5.082  10.859 -0.5008  0.0668 -1.0658
  528MOL0     C71194   2.410   4.996  10.852  0.8481 -1.0308  0.2206
  528MOL0     N71195   1.889   5.076  10.953  0.3872  0.2220 -0.5335
  528MOL0     N71196   1.768   5.127  10.962 -0.0692 -0.3059  0.7395
  528MOL0     C71197   0.628   4.789  10.449  0.5034  0.6787 -0.5068
  528MOL0     C71198   0.504   4.764  10.405 -0.2061  0.4570 -0.1347
  528MOL0     C71199   0.130   4.817  10.121  0.0085 -0.2247  0.1101
  528MOL0     C71200   0.062   4.747  10.219 -0.1319  0.0708  0.3062
  528MOL0     C71201  -0.074   4.708  10.196 -0.3162 -0.5075  0.5816
  528MOL0     C71202  -0.146   4.732  10.076  0.2819 -0.6927  0.9423
  528MOL0     O71203  -0.278   4.681  10.076  0.3259 -0.2587  0.5777
  528MOL0     C71204  -0.355   4.684   9.949  0.1796  0.3020  0.2572
  528MOL0     C71205  -0.486   4.602   9.978  0.3185 -0.5902  0.6358
  528MOL0     C71206  -0.563   4.689  10.084 -0.0392  0.3876  0.2413
  528MOL0     C71207  -0.709   4.650  10.089  0.5310 -0.3060 -1.0086
  528MOL0     C71208  -0.806   4.766  10.116 -0.8120 -0.5308 -0.2426
  528MOL0     C71209  -0.882   4.856  10.133  1.1698  0.2638 -0.9791
  528MOL0     C71210  -0.074   4.802   9.974  0.7634  0.0141  0.3120
  528MOL0     C71211   0.058   4.844   9.997 -0.0637 -0.2434  0.5700
  528MOL0     C71212   0.125   4.923   9.883 -0.2516 -0.2152 -0.3297
  528MOL0     H71213   0.447   5.037  10.219 -2.5369 -4.7075 -3.6669
  528MOL0     H71214   0.663   5.104  10.300 -0.1695  1.9361  0.6725
  528MOL0     H71215   0.909   4.770  10.503  1.0801 -0.2437 -0.5878
  528MOL0     H71216   0.953   4.824  10.340  0.2176 -1.5374  0.3831
  528MOL0     H71217   1.027   4.940  10.614  1.7964 -1.4449 -0.7052
  528MOL0     H71218   1.071   5.018  10.458  2.5565 -1.0201 -2.8809
  528MOL0     H71219   1.219   4.823  10.409  0.5956 -0.0502  0.6729
  528MOL0     H71220   1.135   4.731  10.525  0.4465  0.8307  1.8452
  528MOL0     H71221   1.223   4.912  10.702  0.9845  0.6081 -0.2810
  528MOL0     H71222   1.331   4.798  10.626 -1.6442 -1.8905  0.8255
  528MOL0     H71223   1.342   4.996  10.438 -3.0983  0.4237 -0.9514
  528MOL0     H71224   1.274   5.094  10.568  2.8866  1.6199  3.0694
  528MOL0     H71225   1.553   4.962  10.580 -1.5671 -0.1850  0.0517
  528MOL0     H71226   1.523   5.131  10.541 -0.0382 -1.0709 -1.8591
  528MOL0     H71227   1.480   4.990  10.809 -0.3621  1.7752  2.6366
  528MOL0     H71228   1.374   5.114  10.769  0.8690  2.0522  0.1020
  528MOL0     H71229   1.599   5.258  10.733  2.7697  0.5612  1.3945
  528MOL0     H71230   1.544   5.216  10.892 -1.0444  1.0482 -1.2700
  528MOL0     H71231   1.770   5.001  10.661  3.6500 -2.4388  0.0689
  528MOL0     H71232   2.035   4.989  10.663 -1.4414 -2.4116 -0.2050
  528MOL0     H71233   2.117   5.027  10.807  3.0065 -2.0222 -2.1643
  528MOL0     H71234   1.939   4.779  10.748  1.5930 -1.5812 -1.1332
  528MOL0     H71235   2.117   4.779  10.728 -0.6342 -1.9198  0.3686
  528MOL0     H71236   2.030   4.681  10.931 -0.7992  0.1702 -0.9216
  528MOL0     H71237   1.948   4.822  10.986  0.6405 -1.3259  0.7761
  528MOL0     H71238   2.137   4.798  11.110 -1.6653  0.1250 -0.4029
  528MOL0     H71239   2.149   4.945  11.019  1.9979  0.4401 -0.2362
  528MOL0     H71240   2.465   4.798  11.113  1.4565 -0.2774 -0.2319
  528MOL0     H71241   2.663   4.945  11.138  2.6337  2.4446 -1.3633
  528MOL0     H71242   3.034   5.005  11.195 -1.2305  0.3215  3.1757
  528MOL0     H71243   3.225   5.106  11.284  0.2734 -0.4195 -1.3009
  528MOL0     H71244   3.374   5.284  11.383 -1.1777 -0.5690  0.0109
  528MOL0     H71245   3.412   5.214  11.229  2.0565  1.4282 -0.7856
  528MOL0     H71246   3.517   5.468  11.186  2.0412  0.9288 -0.4246
  528MOL0     H71247   3.491   5.465  11.363  0.1207 -1.8828  1.5139
  528MOL0     H71248   3.650   5.288  11.394 -1.7642 -3.4084 -1.2513
  528MOL0     H71249   3.659   5.235  11.230  1.0940  0.0511 -1.0555
  528MOL0     H71250   3.780   5.499  11.320 -0.1689 -0.8587  1.0232
  528MOL0     H71251   3.748   5.433  11.154  3.2218 -1.1259 -1.0690
  528MOL0     H71252   3.917   5.245  11.210  4.1698  1.1362 -2.8767
  528MOL0     H71253   3.937   5.307  11.373 -1.1276 -1.8412 -0.3165
  528MOL0     H71254   3.985   5.439  11.112  0.3868  1.0159  0.3150
  528MOL0     H71255   3.993   5.524  11.269  0.4161  0.8131 -0.6500
  528MOL0     H71256   4.155   5.312  11.318 -0.4877 -0.6235 -0.4848
  528MOL0     H71257   4.224   5.467  11.247 -2.5202  2.2380  0.1603
  528MOL0     H71258   4.143   5.305  11.031  0.0376  2.4468  0.8351
  528MOL0     H71259   4.308   5.299  11.089  0.6016  0.4588  0.5398
  528MOL0     H71260   3.088   5.484  11.107  1.7274 -0.0536  0.0757
  528MOL0     H71261   2.891   5.369  11.030  0.0630  0.6572 -0.3491
  528MOL0     H71262   2.552   5.147  10.777  2.2525  1.2180  0.7075
  528MOL0     H71263   2.331   5.012  10.779  1.6932 -0.0384 -0.4977
  528MOL0     H71264   0.686   4.728  10.518 -2.6220  1.5006  3.1907
  528MOL0     H71265   0.452   4.672  10.431 -2.6079  0.8858 -2.9064
  528MOL0     H71266   0.115   4.743  10.313  0.8449 -0.1247 -0.2407
  528MOL0     H71267  -0.118   4.653  10.279 -2.6685 -1.5061 -1.2128
  528MOL0     H71268  -0.309   4.630   9.866 -0.3046 -1.3546  1.0274
  528MOL0     H71269  -0.371   4.787   9.915  1.5554  1.5184  2.9618
  528MOL0     H71270  -0.458   4.501  10.010 -0.2104 -0.7830  0.5096
  528MOL0     H71271  -0.551   4.597   9.889 -0.2102  0.4803  0.9444
  528MOL0     H71272  -0.557   4.796  10.064  0.4516  0.2551 -0.3407
  528MOL0     H71273  -0.514   4.669  10.180 -2.7107  1.8767  2.0391
  528MOL0     H71274  -0.737   4.606   9.993  0.8579 -0.4162 -1.0522
  528MOL0     H71275  -0.722   4.570  10.163  1.3647 -2.7655 -3.3591
  528MOL0     H71276  -0.954   4.935  10.135 -0.1144 -0.8067 -2.2996
  528MOL0     H71277  -0.124   4.820   9.880  0.8120 -0.0025  0.2837
  528MOL0     H71278   0.185   4.854   9.824 -1.3353 -2.1173  0.6815
  528MOL0     H71279   0.046   4.962   9.819 -0.1839 -2.1211 -1.6504
  528MOL0     H71280   0.178   5.012   9.919  0.2016  1.2461 -4.1802
  529MOL0     O71281   5.791   4.675   3.579  0.0635  0.3479  0.7524
  529MOL0     C71282   5.685   4.679   3.632  0.9731 -0.4791 -0.4155
  529MOL0     O71283   5.666   4.675   3.768  0.0581 -0.1464 -0.0420
  529MOL0     C71284   5.769   4.657   3.860 -0.0180  0.4230  0.7932
  529MOL0     C71285   5.867   4.561   3.845 -0.1993  0.1393 -0.7145
  529MOL0     C71286   5.961   4.523   3.951  0.7406  0.3624  1.0050
  529MOL0     C71287   5.952   4.594   4.074  0.9508  0.3311 -0.0772
  529MOL0     O71288   6.048   4.562   4.167 -0.1342 -1.2508  0.0722
  529MOL0     C71289   6.049   4.622   4.296  0.1953 -0.5813  0.1124
  529MOL0     C71290   6.106   4.771   4.277 -0.1433  0.3035 -0.0473
  529MOL0     C71291   6.094   4.826   4.415  0.9018  1.1045  0.7984
  529MOL0     C71292   6.192   4.943   4.432  0.3770 -0.1783 -0.3174
  529MOL0     C71293   6.181   5.022   4.567 -0.2242  0.0316  1.2694
  529MOL0     C71294   6.044   5.087   4.600 -0.3569  0.1267  0.6260
  529MOL0     C71295   5.997   5.193   4.502 -0.4187 -0.2650 -0.1192
  529MOL0     C71296   5.857   5.238   4.549  0.5204 -0.1209  1.0435
  529MOL0     N71297   5.811   5.363   4.485  0.2690  0.1363  0.1243
  529MOL0     C71298   5.884   5.475   4.483 -0.5038  0.3877  0.6872
  529MOL0     C71299   5.828   5.568   4.403 -1.0987  0.1730  1.0606
  529MOL0     C71300   5.863   5.721   4.389 -0.2367  0.0758 -0.0851
  529MOL0     C71301   5.854   5.767   4.239  0.2612  0.5543 -0.4485
  529MOL0     C71302   5.978   5.846   4.208 -0.6356  0.3051 -0.2329
  529MOL0     C71303   6.113   5.763   4.196 -0.4231  0.3220 -0.4979
  529MOL0     O71304   6.222   5.854   4.164 -0.0397  0.2908  0.2817
  529MOL0     C71305   6.348   5.792   4.181  0.3724  0.2417  0.7844
  529MOL0     C71306   6.455   5.833   4.099  0.4238  0.1416 -0.3572
  529MOL0     C71307   6.583   5.775   4.114 -0.0011  0.2620  0.0485
  529MOL0     C71308   6.614   5.680   4.217  0.0930  0.2682  0.5941
  529MOL0     C71309   6.750   5.631   4.242  0.7190 -0.6924 -0.6406
  529MOL0     O71310   6.843   5.676   4.161  0.5155 -0.6489 -0.2577
  529MOL0     C71311   6.976   5.654   4.179  0.2664  0.2102  0.3944
  529MOL0     C71312   7.053   5.742   4.110  0.3220  0.4539  0.0997
  529MOL0     C71313   7.190   5.730   4.117 -0.3137 -0.4239  0.3705
  529MOL0     C71314   7.256   5.642   4.199 -0.5138 -1.0464 -0.7605
  529MOL0     O71315   7.392   5.649   4.209 -1.0801  0.2573 -0.0144
  529MOL0     C71316   7.453   5.571   4.318 -0.3567  0.3818 -0.4723
  529MOL0     C71317   7.603   5.592   4.308  0.9092  0.3201 -0.2839
  529MOL0     C71318   7.689   5.519   4.409  0.1508  0.9385 -0.6186
  529MOL0     C71319   7.838   5.559   4.395  1.2797  0.2945  0.2964
  529MOL0     C71320   7.931   5.458   4.459  0.4602  0.5932  0.5790
  529MOL0     C71321   8.073   5.498   4.445 -1.0047  0.4078 -0.4105
  529MOL0     C71322   8.140   5.424   4.559 -0.8068 -0.4373  0.0646
  529MOL0     C71323   8.292   5.444   4.553 -0.2106 -0.5659 -0.2499
  529MOL0    Cl71324   8.349   5.601   4.606  0.0547  0.2638  0.2342
  529MOL0     C71325   7.178   5.560   4.273 -0.0298  0.0810 -0.0505
  529MOL0     C71326   7.040   5.568   4.264 -0.2087 -0.7537 -0.0306
  529MOL0     O71327   6.762   5.550   4.329  0.1010 -0.2087 -0.8795
  529MOL0     C71328   6.513   5.638   4.301 -0.2374 -0.3323 -0.0671
  529MOL0     C71329   6.382   5.700   4.288 -0.0598 -0.8907  0.7317
  529MOL0     N71330   5.715   5.501   4.353 -0.8594 -0.6529  0.3458
  529MOL0     N71331   5.709   5.383   4.404  0.3093  0.2512 -0.3277
  529MOL0     C71332   5.848   4.685   4.084  0.7219  0.6410 -0.4811
  529MOL0     C71333   5.759   4.716   3.981  0.3716 -0.6415 -0.1180
  529MOL0     C71334   5.561   4.707   3.554 -0.8625  0.2620  0.0025
  529MOL0     C71335   5.473   4.806   3.605  0.4417 -0.2388 -0.4855
  529MOL0     C71336   5.364   4.850   3.529 -0.5343  0.6788  0.6111
  529MOL0     C71337   5.343   4.800   3.399  0.0335 -0.0342  0.0055
  529MOL0     O71338   5.249   4.842   3.305 -0.1679 -0.4565  0.4587
  529MOL0     C71339   5.157   4.940   3.338 -0.6193 -0.0043 -0.2478
  529MOL0     C71340   5.054   4.937   3.228 -0.0110 -0.1766 -0.1969
  529MOL0     C71341   4.976   5.071   3.248  0.6200  0.4137 -0.1244
  529MOL0     C71342   4.862   5.097   3.151 -0.2092 -0.2451  0.7027
  529MOL0     C71343   4.768   4.989   3.128  0.4862  0.3183 -0.1686
  529MOL0     C71344   4.694   4.886   3.132 -0.7370  0.2455 -0.1106
  529MOL0     C71345   5.436   4.697   3.353  0.1782 -0.1874  0.2889
  529MOL0     C71346   5.544   4.650   3.430  0.5985 -0.1216 -0.5366
  529MOL0     C71347   5.631   4.546   3.381  0.3813  0.1130  0.0454
  529MOL0     H71348   5.854   4.500   3.756 -3.2243 -0.8814  0.3165
  529MOL0     H71349   6.027   4.441   3.928  0.2104  0.2982 -0.3809
  529MOL0     H71350   5.947   4.617   4.335 -0.0030  4.0860  0.7833
  529MOL0     H71351   6.116   4.569   4.364  1.0551 -0.1127 -0.3610
  529MOL0     H71352   6.059   4.838   4.204  0.5668  2.7471  1.6308
  529MOL0     H71353   6.209   4.768   4.238 -0.3644  1.7878 -0.7989
  529MOL0     H71354   6.101   4.759   4.501 -0.0990  1.0813  0.8747
  529MOL0     H71355   6.000   4.878   4.432  0.9672  1.6434 -0.3663
  529MOL0     H71356   6.296   4.910   4.429  0.2331 -0.6733 -0.0283
  529MOL0     H71357   6.167   5.011   4.350 -2.3280  0.2048  0.7431
  529MOL0     H71358   6.197   4.945   4.642  0.1451 -3.6658 -2.2579
  529MOL0     H71359   6.260   5.098   4.570 -2.0645  2.0224  2.8482
  529MOL0     H71360   5.972   5.005   4.605  0.6543 -0.7536  1.1751
  529MOL0     H71361   6.050   5.127   4.702  3.8398 -2.9295  1.8625
  529MOL0     H71362   5.985   5.155   4.400  1.1342 -0.6433 -0.1790
  529MOL0     H71363   6.075   5.268   4.518  2.1860 -3.4013  3.9788
  529MOL0     H71364   5.784   5.159   4.528  0.1762  0.4861 -0.1464
  529MOL0     H71365   5.858   5.244   4.659 -2.8064 -2.7558  1.3913
  529MOL0     H71366   5.973   5.497   4.542  0.5571  0.3453 -0.8246
  529MOL0     H71367   5.781   5.763   4.448  0.5616 -0.5817  1.5519
  529MOL0     H71368   5.962   5.752   4.425  1.2166  0.7318 -4.0621
  529MOL0     H71369   5.856   5.676   4.178  1.7492  1.1760 -1.3988
  529MOL0     H71370   5.768   5.833   4.221 -0.0349  0.0625 -0.8564
  529MOL0     H71371   5.984   5.927   4.282 -1.3970 -0.3725  0.5803
  529MOL0     H71372   5.963   5.894   4.110  2.9669  2.0760 -0.0954
  529MOL0     H71373   6.093   5.683   4.124 -0.9660  0.2189 -0.2399
  529MOL0     H71374   6.139   5.713   4.289  0.5076  1.0338 -0.3587
  529MOL0     H71375   6.443   5.908   4.021 -1.3331  0.4209  0.1336
  529MOL0     H71376   6.669   5.807   4.055  0.0908  0.8718  0.5005
  529MOL0     H71377   7.017   5.825   4.050  1.1214 -0.9782 -2.5143
  529MOL0     H71378   7.248   5.806   4.066 -0.2684 -0.1931  0.7566
  529MOL0     H71379   7.423   5.606   4.417  1.8335  2.6298 -0.4990
  529MOL0     H71380   7.432   5.464   4.308  1.6095  0.0708 -1.8010
  529MOL0     H71381   7.636   5.547   4.213  1.1400 -0.2461  0.0622
  529MOL0     H71382   7.629   5.697   4.297 -1.3970  1.0392  0.7393
  529MOL0     H71383   7.662   5.540   4.513 -0.6900 -1.0985 -0.3823
  529MOL0     H71384   7.686   5.410   4.397  0.3843  0.8857 -0.1905
  529MOL0     H71385   7.857   5.659   4.436  0.0969  1.2648 -1.4019
  529MOL0     H71386   7.851   5.564   4.287  0.3005 -0.4009  0.1326
  529MOL0     H71387   7.921   5.362   4.407 -0.5262  1.5818 -1.1506
  529MOL0     H71388   7.893   5.460   4.561 -0.7147 -0.4320  0.1827
  529MOL0     H71389   8.121   5.472   4.350 -1.1547 -3.8426  0.4905
  529MOL0     H71390   8.088   5.604   4.468  0.1401  0.1018  0.3440
  529MOL0     H71391   8.124   5.319   4.531  1.9028 -0.8259 -0.3523
  529MOL0     H71392   8.093   5.454   4.653 -1.5520 -2.5708  0.4340
  529MOL0     H71393   8.332   5.358   4.609 -2.8122 -3.5043 -2.5518
  529MOL0     H71394   8.330   5.433   4.450 -2.2154 -1.5370 -0.9379
  529MOL0     H71395   7.214   5.480   4.338  1.4566  1.7962  1.3597
  529MOL0     H71396   6.975   5.499   4.316 -0.7880  1.9311  3.1751
  529MOL0     H71397   6.548   5.580   4.386 -4.0664 -3.0656 -0.1007
  529MOL0     H71398   6.314   5.676   4.368  1.0699 -2.3891  1.2803
  529MOL0     H71399   5.838   4.737   4.178  0.8976 -2.4297  1.3687
  529MOL0     H71400   5.678   4.785   4.002  1.2006 -0.6267  3.7194
  529MOL0     H71401   5.502   4.859   3.695 -0.0213  0.2742 -0.6293
  529MOL0     H71402   5.309   4.939   3.560  3.7236  2.7075  3.4575
  529MOL0     H71403   5.196   5.042   3.331  3.0439 -1.2994 -0.8528
  529MOL0     H71404   5.117   4.914   3.436  1.8251  1.7236  1.3130
  529MOL0     H71405   4.981   4.857   3.247 -0.2530  0.1633  0.3305
  529MOL0     H71406   5.108   4.935   3.133  0.7342 -1.4002  0.2233
  529MOL0     H71407   5.046   5.154   3.248  3.1261 -1.5583 -1.8804
  529MOL0     H71408   4.937   5.070   3.350  1.3864 -1.7815  0.2003
  529MOL0     H71409   4.810   5.187   3.185 -1.4446 -1.1956  1.3744
  529MOL0     H71410   4.900   5.126   3.052 -1.0664  2.0407  0.9879
  529MOL0     H71411   4.610   4.820   3.133 -1.4883  1.1303  1.9174
  529MOL0     H71412   5.417   4.647   3.258 -2.1829  1.8491 -0.4078
  529MOL0     H71413   5.611   4.520   3.277 -3.8375  0.5680  0.5654
  529MOL0     H71414   5.733   4.587   3.372  0.3159 -0.1078 -2.2767
  529MOL0     H71415   5.630   4.454   3.440 -1.2355  0.1790  0.1544
  530MOL0     O71416   2.440   6.213   1.257  0.6532 -0.9891  0.5103
  530MOL0     C71417   2.441   6.327   1.209 -0.1162 -0.1595  0.6299
  530MOL0     O71418   2.548   6.424   1.223 -0.1536  0.0736  0.7150
  530MOL0     C71419   2.661   6.395   1.289 -0.1898 -0.1445  0.1228
  530MOL0     C71420   2.718   6.266   1.288  0.8186  0.0974 -0.6279
  530MOL0     C71421   2.851   6.240   1.329 -0.4438  0.3357 -0.1282
  530MOL0     C71422   2.924   6.346   1.384 -1.0112  0.5308 -1.0007
  530MOL0     O71423   3.056   6.313   1.407  0.5037 -0.4892  0.1148
  530MOL0     C71424   3.155   6.419   1.381  0.2564  0.1602 -0.2202
  530MOL0     C71425   3.251   6.365   1.263  0.0932 -0.6536 -0.3610
  530MOL0     C71426   3.355   6.257   1.322  0.1935 -0.1779  0.6416
  530MOL0     C71427   3.459   6.307   1.418  0.3652  0.0392  0.0255
  530MOL0     C71428   3.563   6.205   1.432 -0.2089 -0.1714 -0.3629
  530MOL0     C71429   3.654   6.241   1.558 -0.0407  0.0787  0.3782
  530MOL0     C71430   3.751   6.120   1.587 -0.0404 -0.1516 -0.2884
  530MOL0     C71431   3.820   6.126   1.725 -0.1260 -0.5000  0.3815
  530MOL0     N71432   3.935   6.216   1.709  0.4324 -0.1535  0.1027
  530MOL0     C71433   3.953   6.325   1.783 -0.1374  1.5457  0.3952
  530MOL0     C71434   4.081   6.364   1.765  0.2374 -0.3041  0.5506
  530MOL0     C71435   4.145   6.489   1.818 -0.1639 -0.1292  0.7437
  530MOL0     C71436   4.298   6.477   1.800 -0.4903 -0.7558 -0.0677
  530MOL0     C71437   4.361   6.603   1.863 -0.3878 -0.0877 -0.2903
  530MOL0     C71438   4.517   6.615   1.830  0.8278 -0.5324 -0.4175
  530MOL0     O71439   4.590   6.523   1.911 -0.5642 -0.7388  0.2130
  530MOL0     C71440   4.717   6.479   1.888 -0.6287  0.2263  0.3453
  530MOL0     C71441   4.782   6.517   1.772  0.8550  0.1895 -0.0764
  530MOL0     C71442   4.917   6.506   1.762  0.2215 -0.2455  0.6758
  530MOL0     C71443   4.983   6.416   1.849 -0.4051 -0.4858  0.2024
  530MOL0     C71444   5.117   6.376   1.819  0.2084  0.2366  0.1320
  530MOL0     O71445   5.179   6.432   1.716 -0.8470  0.1394  0.5717
  530MOL0     C71446   5.313   6.414   1.699  0.9608  0.4813  0.8375
  530MOL0     C71447   5.355   6.308   1.611 -0.5725 -1.2500 -0.6626
  530MOL0     C71448   5.487   6.281   1.590  0.5425  0.5727  0.2364
  530MOL0     C71449   5.588   6.364   1.648 -1.0187 -0.4192 -0.8987
  530MOL0     O71450   5.721   6.333   1.637 -0.1037  1.2633 -1.1215
  530MOL0     C71451   5.763   6.262   1.519  0.8028  0.3510 -0.4626
  530MOL0     C71452   5.911   6.290   1.488 -0.8586 -0.9889 -0.8471
  530MOL0     C71453   5.948   6.220   1.363  0.4668  1.1746  0.2284
  530MOL0     C71454   6.100   6.230   1.334  0.2127 -0.8965  0.1560
  530MOL0     C71455   6.151   6.124   1.239 -1.1420  0.0139  0.7296
  530MOL0     C71456   6.290   6.155   1.173 -0.0684 -0.0154  0.6750
  530MOL0     C71457   6.333   6.060   1.056  0.8280  0.0812  0.4535
  530MOL0     C71458   6.475   6.063   1.022 -0.3470 -0.7423  0.0347
  530MOL0    Cl71459   6.508   6.240   0.986 -0.2401 -0.4884  0.3995
  530MOL0     C71460   5.544   6.458   1.753 -0.4498  0.2652  1.0175
  530MOL0     C71461   5.412   6.491   1.765  0.8065  0.0961 -0.3964
  530MOL0     O71462   5.175   6.318   1.911  0.2539  0.3548  0.1214
  530MOL0     C71463   4.911   6.359   1.954 -0.2762  0.7867  0.9502
  530MOL0     C71464   4.788   6.410   1.981  0.6931  0.0850 -0.8491
  530MOL0     N71465   4.142   6.281   1.665  0.0425 -0.4567 -0.3014
  530MOL0     N71466   4.049   6.187   1.646  0.6593  0.4408  0.0109
  530MOL0     C71467   2.868   6.474   1.386  0.0188  0.2989 -0.2860
  530MOL0     C71468   2.736   6.502   1.347  0.4556  0.1749  0.2517
  530MOL0     C71469   2.349   6.360   1.100 -0.7722  0.4521 -0.9481
  530MOL0     C71470   2.288   6.264   1.023 -0.1285 -0.3668 -0.3015
  530MOL0     C71471   2.204   6.296   0.911  0.0138 -0.0221 -0.3761
  530MOL0     C71472   2.194   6.427   0.869  0.0209 -0.7223 -0.3121
  530MOL0     O71473   2.120   6.474   0.772 -0.5164 -0.1451 -0.0101
  530MOL0     C71474   2.002   6.404   0.731 -0.0432 -0.1556 -1.3832
  530MOL0     C71475   1.934   6.466   0.614 -0.5300 -0.4710  0.2587
  530MOL0     C71476   1.909   6.619   0.633  0.0170  0.2398 -0.2848
  530MOL0     C71477   1.769   6.644   0.711 -0.5926 -0.2490  0.4640
  530MOL0     C71478   1.748   6.784   0.732 -0.3826  0.6590 -0.6757
  530MOL0     C71479   1.734   6.905   0.736  0.7255  0.1710  0.3873
  530MOL0     C71480   2.242   6.525   0.959  0.2149  0.0797  0.6366
  530MOL0     C71481   2.317   6.493   1.077 -0.2762  0.1991  0.7059
  530MOL0     C71482   2.344   6.601   1.172 -1.0777 -0.3513 -0.4394
  530MOL0     H71483   2.662   6.178   1.258  1.9664 -0.0038 -2.5930
  530MOL0     H71484   2.906   6.147   1.314  1.4412  1.4638 -0.5867
  530MOL0     H71485   3.115   6.513   1.343  0.9105  0.7774  0.5674
  530MOL0     H71486   3.220   6.439   1.468  1.2664 -1.7859 -0.4576
  530MOL0     H71487   3.312   6.450   1.230 -2.7011  1.2827 -0.9009
  530MOL0     H71488   3.202   6.331   1.172  2.5356 -1.6529 -1.3706
  530MOL0     H71489   3.418   6.240   1.235 -0.2553 -1.6248  0.5800
  530MOL0     H71490   3.297   6.169   1.353  1.9142 -2.2414 -1.6806
  530MOL0     H71491   3.491   6.404   1.380  1.2951 -0.6550 -0.9949
  530MOL0     H71492   3.416   6.324   1.518  0.3049  0.9906 -0.1536
  530MOL0     H71493   3.514   6.108   1.440 -1.3692  0.4621  0.3692
  530MOL0     H71494   3.633   6.203   1.347 -0.6906 -2.5589 -0.7624
  530MOL0     H71495   3.717   6.328   1.536  0.5382 -0.2494  0.7234
  530MOL0     H71496   3.596   6.266   1.647 -0.4511  4.0702 -0.8144
  530MOL0     H71497   3.824   6.123   1.505  1.7279 -0.3198  1.2206
  530MOL0     H71498   3.707   6.021   1.570  2.3174 -1.2597 -0.3694
  530MOL0     H71499   3.752   6.156   1.805  0.1859  1.8172 -0.1516
  530MOL0     H71500   3.850   6.021   1.735 -0.2708 -0.5106  0.7080
  530MOL0     H71501   3.880   6.365   1.852 -0.3636  2.5165 -0.3887
  530MOL0     H71502   4.103   6.578   1.770 -0.5742 -0.0416  1.2571
  530MOL0     H71503   4.120   6.495   1.924 -2.8195  2.3639  0.1131
  530MOL0     H71504   4.326   6.393   1.864 -0.4770 -0.7480 -0.0634
  530MOL0     H71505   4.334   6.460   1.698  0.5254  0.0174  0.1458
  530MOL0     H71506   4.343   6.599   1.970  0.7766  0.0861 -0.0696
  530MOL0     H71507   4.317   6.689   1.811  0.7337  0.3106 -0.6247
  530MOL0     H71508   4.551   6.718   1.843 -4.7474  1.5826  0.1434
  530MOL0     H71509   4.529   6.593   1.724  0.7327 -2.6939 -0.0221
  530MOL0     H71510   4.740   6.576   1.690  2.2490  0.4155 -0.6620
  530MOL0     H71511   4.981   6.544   1.683 -1.7065 -1.8973 -1.8643
  530MOL0     H71512   5.283   6.244   1.561  0.7251 -3.9844  0.7241
  530MOL0     H71513   5.524   6.204   1.522  0.1721 -0.1946  0.8774
  530MOL0     H71514   5.749   6.154   1.528  1.5169  0.0625 -2.3274
  530MOL0     H71515   5.704   6.294   1.433 -0.5630 -1.6831 -0.3542
  530MOL0     H71516   5.948   6.392   1.469  2.5048 -1.7690  0.7954
  530MOL0     H71517   5.973   6.241   1.564 -1.1453 -1.1217 -0.6991
  530MOL0     H71518   5.924   6.113   1.360  3.5805  0.4076 -1.0481
  530MOL0     H71519   5.894   6.256   1.274 -1.2028 -1.6838 -0.0486
  530MOL0     H71520   6.145   6.218   1.432 -2.5043 -0.8694  1.5130
  530MOL0     H71521   6.118   6.330   1.295 -0.1017 -0.7683  0.3315
  530MOL0     H71522   6.076   6.110   1.160 -1.5638  2.4437  0.6257
  530MOL0     H71523   6.152   6.027   1.289  2.5974  0.3526  1.6326
  530MOL0     H71524   6.293   6.257   1.135 -0.4582 -0.4590 -0.6153
  530MOL0     H71525   6.367   6.143   1.251 -0.9695 -1.9098  1.3334
  530MOL0     H71526   6.281   6.107   0.971  0.8989  2.4855  1.6574
  530MOL0     H71527   6.296   5.958   1.072  1.1339  0.0124  0.7336
  530MOL0     H71528   6.536   6.030   1.106  1.7275 -0.6327 -1.3389
  530MOL0     H71529   6.494   5.998   0.936  1.3810 -0.1695 -0.0661
  530MOL0     H71530   5.619   6.525   1.795  1.9087 -2.4283  1.3710
  530MOL0     H71531   5.388   6.572   1.833 -0.8239 -2.0153  1.6938
  530MOL0     H71532   4.952   6.296   2.032 -1.1278  1.0982  1.6585
  530MOL0     H71533   4.740   6.379   2.073  0.3990  1.3415 -0.5588
  530MOL0     H71534   2.926   6.559   1.421 -2.4712  1.3655  1.4866
  530MOL0     H71535   2.688   6.598   1.355 -1.4401 -0.8630  2.9750
  530MOL0     H71536   2.306   6.164   1.062  0.4136  0.1439  0.8108
  530MOL0     H71537   2.156   6.219   0.852  1.6283  0.5038 -2.4902
  530MOL0     H71538   1.936   6.390   0.817  0.2517 -0.5336 -1.2184
  530MOL0     H71539   2.022   6.303   0.695  1.0335  0.0046 -1.2732
  530MOL0     H71540   1.845   6.410   0.585  1.3160 -2.8707 -1.1999
  530MOL0     H71541   1.998   6.452   0.526 -1.6881 -0.9707 -0.5318
  530MOL0     H71542   1.899   6.669   0.536 -1.3701  1.2775  0.3507
  530MOL0     H71543   1.996   6.660   0.685  0.5942 -1.0837 -0.1741
  530MOL0     H71544   1.677   6.614   0.660  1.1518  3.6268 -6.2458
  530MOL0     H71545   1.770   6.600   0.811 -1.9432  0.8518  0.9852
  530MOL0     H71546   1.739   7.011   0.741  2.1196  0.1119  0.6664
  530MOL0     H71547   2.214   6.627   0.935 -0.7212 -0.3307 -0.0974
  530MOL0     H71548   2.322   6.553   1.268 -1.6782  1.1515  0.2059
  530MOL0     H71549   2.446   6.640   1.168 -0.5477 -1.2477  2.2585
  530MOL0     H71550   2.270   6.681   1.161  0.1563  0.5361 -3.1748
  531MOL0     O71551   3.314   5.449   7.450  0.4409  0.7724  0.5924
  531MOL0     C71552   3.263   5.500   7.357 -0.3871  0.0341  0.1361
  531MOL0     O71553   3.325   5.606   7.286  0.5896  0.0160  0.0968
  531MOL0     C71554   3.456   5.632   7.327  0.4685  0.2488 -0.5756
  531MOL0     C71555   3.560   5.535   7.324 -0.3734  0.0388  0.6334
  531MOL0     C71556   3.681   5.572   7.374 -0.2739 -0.0923 -0.0261
  531MOL0     C71557   3.700   5.705   7.426 -0.4630  0.1701 -0.0319
  531MOL0     O71558   3.817   5.747   7.500  0.2490 -0.0317  0.0702
  531MOL0     C71559   3.838   5.660   7.612  0.3179  0.6633 -0.0977
  531MOL0     C71560   3.984   5.598   7.602 -0.0126 -0.5603  0.2683
  531MOL0     C71561   4.101   5.663   7.674  0.3222 -0.3478 -0.3406
  531MOL0     C71562   4.099   5.811   7.652  0.1688  0.7108 -1.0578
  531MOL0     C71563   4.241   5.870   7.690  0.1511  0.6484  0.1187
  531MOL0     C71564   4.298   5.828   7.832  0.0393  0.4567 -0.2165
  531MOL0     C71565   4.224   5.889   7.953 -1.0205 -0.2045 -0.4233
  531MOL0     C71566   4.304   5.872   8.074 -0.1692 -0.0367  0.1524
  531MOL0     N71567   4.402   5.988   8.074 -0.1376  0.0558 -0.1108
  531MOL0     C71568   4.532   5.980   8.040 -0.5671 -0.1621 -0.8989
  531MOL0     C71569   4.580   6.106   8.077  0.8176 -0.0015 -0.3814
  531MOL0     C71570   4.720   6.151   8.061  0.3277  0.1540 -1.1397
  531MOL0     C71571   4.829   6.045   8.109  0.4869 -0.2718 -0.7722
  531MOL0     C71572   4.819   6.015   8.260 -0.9873  0.5503  0.3363
  531MOL0     C71573   4.947   5.942   8.317  0.4697  0.2542  0.2331
  531MOL0     O71574   4.949   5.804   8.261 -0.7076 -0.0343  0.8860
  531MOL0     C71575   5.075   5.736   8.272 -0.2885  0.4378  0.4577
  531MOL0     C71576   5.198   5.788   8.302  0.2155  0.3153 -0.7134
  531MOL0     C71577   5.310   5.707   8.305 -0.1567 -0.1789  0.3853
  531MOL0     C71578   5.300   5.567   8.285  0.2133  0.1907 -0.4468
  531MOL0     C71579   5.421   5.492   8.296  0.5483  0.1165 -0.3748
  531MOL0     O71580   5.506   5.560   8.378  0.3053 -0.6447 -0.1309
  531MOL0     C71581   5.628   5.513   8.384 -0.2403  0.1377 -0.2482
  531MOL0     C71582   5.728   5.588   8.317 -0.2233  0.4118  0.2326
  531MOL0     C71583   5.861   5.552   8.314 -0.3695  0.2875 -0.1233
  531MOL0     C71584   5.907   5.441   8.383  0.4622 -0.2643 -0.5183
  531MOL0     O71585   6.030   5.395   8.349 -0.4152 -0.3005 -0.2413
  531MOL0     C71586   6.092   5.287   8.427  0.3325  0.9385  0.0242
  531MOL0     C71587   6.235   5.267   8.386 -0.4670 -0.7751  0.5284
  531MOL0     C71588   6.320   5.388   8.432  0.5899 -0.0208  0.6929
  531MOL0     C71589   6.466   5.375   8.387  0.1322 -0.3155 -0.0041
  531MOL0     C71590   6.510   5.415   8.242  0.4343  0.5942 -0.4640
  531MOL0     C71591   6.645   5.347   8.206 -0.2135 -0.9491  0.3391
  531MOL0     C71592   6.694   5.371   8.065  0.2070 -1.3306 -0.7430
  531MOL0     C71593   6.724   5.520   8.045 -0.1720 -0.5910  0.1808
  531MOL0    Cl71594   6.770   5.568   7.879 -0.3745  0.0720 -0.0206
  531MOL0     C71595   5.808   5.370   8.458  0.1812  0.6058  1.2324
  531MOL0     C71596   5.667   5.404   8.453 -0.8631  0.7272  0.7638
  531MOL0     O71597   5.446   5.389   8.234  0.2555  0.1790 -0.5724
  531MOL0     C71598   5.178   5.515   8.251 -0.4521  0.0123 -0.4682
  531MOL0     C71599   5.073   5.606   8.241  0.0014 -0.2580  0.4108
  531MOL0     N71600   4.472   6.191   8.105 -0.4718  0.0164  0.3977
  531MOL0     N71601   4.365   6.122   8.113  0.1438  0.2570  0.2484
  531MOL0     C71602   3.591   5.798   7.431  0.6971  0.0881  0.6858
  531MOL0     C71603   3.470   5.753   7.384 -0.4871  0.4430 -0.0923
  531MOL0     C71604   3.135   5.452   7.307 -0.1981  0.4708  0.6924
  531MOL0     C71605   3.109   5.472   7.168  0.3418  0.3544  0.1752
  531MOL0     C71606   2.995   5.408   7.110 -0.2249 -0.2442 -0.3684
  531MOL0     C71607   2.902   5.344   7.190  0.7226 -0.3401  0.6955
  531MOL0     O71608   2.780   5.305   7.141  0.2188  0.1989 -0.2723
  531MOL0     C71609   2.778   5.235   7.020 -0.3063  0.8850  0.3991
  531MOL0     C71610   2.841   5.096   7.042 -0.5526 -0.2328  0.0465
  531MOL0     C71611   2.750   4.991   7.098  0.5275 -0.6876 -0.0057
  531MOL0     C71612   2.819   4.857   7.117  0.6936 -0.6428 -0.1287
  531MOL0     C71613   2.856   4.781   6.992  0.0697  0.0594  0.0222
  531MOL0     C71614   2.895   4.740   6.886 -0.7144 -0.3399  0.2975
  531MOL0     C71615   2.926   5.333   7.329 -0.1637  0.2823  0.0539
  531MOL0     C71616   3.044   5.385   7.384  0.1738  0.5258 -0.7868
  531MOL0     C71617   3.063   5.360   7.534  0.5672 -0.6549  0.0933
  531MOL0     H71618   3.550   5.443   7.267  1.4543 -0.6749  1.3674
  531MOL0     H71619   3.760   5.497   7.369 -1.7110 -1.6396 -0.5329
  531MOL0     H71620   3.827   5.716   7.705  1.1498  0.6459  0.0147
  531MOL0     H71621   3.762   5.582   7.626  1.8539 -0.5761  1.8294
  531MOL0     H71622   4.013   5.573   7.499  1.8714 -1.8229  1.0525
  531MOL0     H71623   3.972   5.504   7.656 -0.6440 -0.2285  0.7135
  531MOL0     H71624   4.196   5.620   7.641 -0.8581 -3.2958 -0.1747
  531MOL0     H71625   4.094   5.643   7.781 -1.3263 -0.1587 -0.3854
  531MOL0     H71626   4.082   5.835   7.547  1.3744  1.3612 -1.1237
  531MOL0     H71627   4.026   5.851   7.723  0.5016 -0.3201 -0.0972
  531MOL0     H71628   4.312   5.834   7.614 -1.3083  1.8113 -1.8965
  531MOL0     H71629   4.236   5.979   7.689 -0.9774  0.6679  2.3684
  531MOL0     H71630   4.311   5.719   7.839 -1.3930  0.3602  2.0085
  531MOL0     H71631   4.401   5.864   7.832  0.2016  0.0494 -1.6160
  531MOL0     H71632   4.127   5.838   7.960 -0.7365 -0.4780  4.0301
  531MOL0     H71633   4.198   5.996   7.948 -0.1740  0.2165  2.2972
  531MOL0     H71634   4.226   5.882   8.150  0.5298 -2.1329  1.2320
  531MOL0     H71635   4.347   5.771   8.072 -0.5992 -0.2176 -0.1751
  531MOL0     H71636   4.586   5.897   7.996  0.8472 -0.3248  1.0086
  531MOL0     H71637   4.740   6.170   7.955  2.4940 -1.1725 -1.0262
  531MOL0     H71638   4.728   6.239   8.126 -0.3864 -2.7525  3.3131
  531MOL0     H71639   4.820   5.947   8.060 -0.6519 -1.7816  2.1809
  531MOL0     H71640   4.922   6.096   8.081 -0.4232  1.9720  0.0614
  531MOL0     H71641   4.731   5.952   8.273 -0.5581 -0.2789 -0.7081
  531MOL0     H71642   4.823   6.108   8.318  1.1813  0.1982  0.8184
  531MOL0     H71643   4.941   5.933   8.426  1.8457  2.2256  0.5262
  531MOL0     H71644   5.032   6.007   8.291  0.9445 -0.6865 -0.6279
  531MOL0     H71645   5.214   5.890   8.334 -2.4643  0.3013  1.0699
  531MOL0     H71646   5.398   5.758   8.340 -1.8365  0.9670  3.2286
  531MOL0     H71647   5.710   5.681   8.266  0.3747 -0.1775 -1.0857
  531MOL0     H71648   5.937   5.616   8.270 -0.6424  0.6464 -0.0764
  531MOL0     H71649   6.085   5.320   8.531  0.9372 -0.8338  0.6757
  531MOL0     H71650   6.045   5.189   8.436 -1.1563  1.5223 -1.0425
  531MOL0     H71651   6.271   5.181   8.444  2.6902  1.0709  1.5818
  531MOL0     H71652   6.250   5.255   8.279 -4.7937 -0.0329 -0.3320
  531MOL0     H71653   6.275   5.474   8.381 -0.6158 -2.2138 -2.2498
  531MOL0     H71654   6.315   5.403   8.540 -0.3755 -0.3874  0.7087
  531MOL0     H71655   6.500   5.271   8.397 -0.0497 -0.2632  1.5398
  531MOL0     H71656   6.532   5.431   8.454 -0.0989 -0.8921  0.7208
  531MOL0     H71657   6.506   5.524   8.227  1.1449  0.7823  0.5687
  531MOL0     H71658   6.448   5.366   8.167  0.9569  1.2570 -1.3393
  531MOL0     H71659   6.718   5.370   8.285  0.0005 -2.7169  0.6990
  531MOL0     H71660   6.628   5.239   8.212 -0.6441 -0.8988  0.0168
  531MOL0     H71661   6.617   5.335   7.996 -0.7178  0.2303 -0.5742
  531MOL0     H71662   6.781   5.310   8.039  0.4362 -2.1864  1.7650
  531MOL0     H71663   6.634   5.575   8.075  0.1627 -0.2347  0.5438
  531MOL0     H71664   6.801   5.548   8.117  0.3180  1.0025 -0.9040
  531MOL0     H71665   5.843   5.279   8.505 -0.2063 -0.3970 -0.3432
  531MOL0     H71666   5.584   5.348   8.495 -2.2890  2.6847  0.6962
  531MOL0     H71667   5.158   5.409   8.240  2.1292 -0.2602 -5.1540
  531MOL0     H71668   4.974   5.564   8.224  1.2970 -2.8344 -1.5279
  531MOL0     H71669   3.607   5.891   7.486  0.2631  1.0186 -0.7180
  531MOL0     H71670   3.381   5.815   7.384 -0.5956  0.2934  0.2944
  531MOL0     H71671   3.170   5.527   7.098  0.1153  0.5647  0.1391
  531MOL0     H71672   2.981   5.430   7.005  3.8181 -2.0667 -1.4970
  531MOL0     H71673   2.837   5.276   6.937  0.7931 -0.8789  0.2592
  531MOL0     H71674   2.678   5.211   6.981  0.9606 -2.9143 -0.9993
  531MOL0     H71675   2.926   5.104   7.110 -0.1663  1.3784 -0.5932
  531MOL0     H71676   2.878   5.070   6.942 -3.9611 -2.1255 -0.8837
  531MOL0     H71677   2.658   4.981   7.039  1.2892  0.5702 -1.5013
  531MOL0     H71678   2.711   5.021   7.196 -2.4696 -1.9675 -0.6833
  531MOL0     H71679   2.901   4.879   7.186 -2.0559  0.5298  2.9826
  531MOL0     H71680   2.750   4.789   7.168 -0.4002  0.1915 -0.4542
  531MOL0     H71681   2.900   4.729   6.780  0.3577  0.7617  0.2074
  531MOL0     H71682   2.863   5.289   7.406  1.9336 -0.3550  1.4948
  531MOL0     H71683   3.104   5.436   7.602 -2.8557 -0.4349  2.1218
  531MOL0     H71684   2.968   5.327   7.576  1.3358 -3.5433 -0.2406
  531MOL0     H71685   3.123   5.269   7.542  1.5618 -0.2405 -1.8531
  532MOL0     O71686   7.648   8.454   2.553  0.2439 -0.4203  0.1633
  532MOL0     C71687   7.545   8.502   2.496 -0.3839  0.4730 -0.1519
  532MOL0     O71688   7.544   8.611   2.412  0.0584 -0.2857 -0.0146
  532MOL0     C71689   7.666   8.680   2.422  0.2887  0.5437 -0.1620
  532MOL0     C71690   7.778   8.646   2.347 -0.0009 -0.8213  0.7396
  532MOL0     C71691   7.895   8.713   2.352 -0.5115 -0.3092  0.1757
  532MOL0     C71692   7.914   8.810   2.450 -0.9322  0.6521  1.0056
  532MOL0     O71693   8.037   8.868   2.450  0.2183  0.0369  0.0993
  532MOL0     C71694   8.073   8.940   2.561 -0.4926  0.0788  0.6618
  532MOL0     C71695   8.217   8.987   2.529 -0.0434 -0.0045 -0.2305
  532MOL0     C71696   8.263   9.077   2.645 -0.3231 -0.6894 -0.9972
  532MOL0     C71697   8.317   9.211   2.590  0.0191 -0.7860 -0.5416
  532MOL0     C71698   8.470   9.192   2.555  0.6574  0.7739 -0.1841
  532MOL0     C71699   8.530   9.312   2.494  0.9739  0.5749 -0.2863
  532MOL0     C71700   8.477   9.347   2.346 -0.0092  0.4939  0.4990
  532MOL0     C71701   8.550   9.472   2.305  0.6589  0.1950 -0.0876
  532MOL0     N71702   8.697   9.457   2.288  0.0213  0.4047 -0.2249
  532MOL0     C71703   8.766   9.403   2.177  0.0452 -0.2032 -0.2605
  532MOL0     C71704   8.888   9.379   2.219  0.3453  0.1844  0.1776
  532MOL0     C71705   8.990   9.286   2.158  0.3386  0.3572 -0.3217
  532MOL0     C71706   9.136   9.336   2.152 -0.2865 -0.5090  0.4095
  532MOL0     C71707   9.221   9.217   2.100  0.0201 -0.0446 -0.1291
  532MOL0     C71708   9.371   9.240   2.113  0.4490 -0.9998 -0.1315
  532MOL0     O71709   9.408   9.361   2.043  0.3899  0.2711  0.4561
  532MOL0     C71710   9.540   9.381   2.024 -0.1029  0.7081 -0.5850
  532MOL0     C71711   9.650   9.299   2.069 -0.1503 -0.8869 -0.2127
  532MOL0     C71712   9.782   9.327   2.025 -0.5969  0.8054  0.6793
  532MOL0     C71713   9.804   9.424   1.932 -0.3837  0.1649  0.2252
  532MOL0     C71714   9.943   9.440   1.882 -0.6204  0.3861  0.6135
  532MOL0     O71715  10.023   9.332   1.889 -0.0735 -0.1125  0.6601
  532MOL0     C71716  10.153   9.333   1.836  0.6904 -0.1802 -0.7774
  532MOL0     C71717  10.194   9.399   1.718 -0.2761 -0.1607 -0.4246
  532MOL0     C71718  10.324   9.365   1.663  0.2855  0.5301 -0.1269
  532MOL0     C71719  10.413   9.273   1.730  0.2809 -0.5671  0.3369
  532MOL0     O71720  10.533   9.233   1.683  0.5650 -0.1220  0.7610
  532MOL0     C71721  10.580   9.270   1.546 -0.0296  0.0940 -0.2894
  532MOL0     C71722  10.721   9.210   1.532  0.5110  0.5084  0.4795
  532MOL0     C71723  10.737   9.062   1.575  0.5302  0.6399 -0.0418
  532MOL0     C71724  10.852   9.009   1.496  0.2685  0.3379  0.1263
  532MOL0     C71725  10.855   8.858   1.485 -0.0093 -0.1826  0.7693
  532MOL0     C71726  10.870   8.775   1.614  0.2307 -0.0804  0.4707
  532MOL0     C71727  10.997   8.804   1.698 -0.4342  0.4345 -0.1774
  532MOL0     C71728  11.044   8.668   1.774 -0.5562 -0.1162 -0.1304
  532MOL0    Cl71729  11.113   8.575   1.635 -0.3212 -0.4819 -0.0149
  532MOL0     C71730  10.369   9.223   1.849 -1.2237 -0.7750 -0.1950
  532MOL0     C71731  10.241   9.249   1.899 -0.0238  0.6002 -0.6193
  532MOL0     O71732   9.973   9.549   1.836  0.1574 -0.1008 -0.2780
  532MOL0     C71733   9.700   9.505   1.885  0.8676 -0.6271 -0.5297
  532MOL0     C71734   9.570   9.488   1.940 -0.3901 -0.2264 -0.7122
  532MOL0     N71735   8.902   9.429   2.348 -0.1849 -0.3948  0.3354
  532MOL0     N71736   8.788   9.476   2.386 -0.0961  0.3062  0.4142
  532MOL0     C71737   7.807   8.845   2.535  0.7370 -0.0547  0.1279
  532MOL0     C71738   7.681   8.775   2.524 -0.1977 -0.4910 -0.6144
  532MOL0     C71739   7.416   8.433   2.513 -1.1990  0.0113 -0.5333
  532MOL0     C71740   7.305   8.484   2.448 -0.1000  0.3266  0.5466
  532MOL0     C71741   7.172   8.442   2.471  0.0371 -0.8056  0.0197
  532MOL0     C71742   7.155   8.338   2.553  0.1449 -0.4123 -1.0591
  532MOL0     O71743   7.028   8.281   2.574 -1.3638 -0.1813  0.0489
  532MOL0     C71744   7.012   8.154   2.645  0.1452 -0.9115  0.1816
  532MOL0     C71745   6.857   8.134   2.664 -0.0040  1.1796  0.0253
  532MOL0     C71746   6.778   8.161   2.534 -0.0718 -0.4301  0.4094
  532MOL0     C71747   6.830   8.087   2.414  0.1471 -0.2717 -0.7131
  532MOL0     C71748   6.863   7.946   2.441 -1.6326  0.3415  0.3853
  532MOL0     C71749   6.902   7.836   2.463 -0.8994  0.4689 -0.0467
  532MOL0     C71750   7.266   8.280   2.612 -0.2982  0.4377  0.4247
  532MOL0     C71751   7.399   8.321   2.585 -0.1438  0.3244 -0.9084
  532MOL0     C71752   7.510   8.245   2.672 -0.1228  0.3869 -0.1486
  532MOL0     H71753   7.769   8.569   2.272 -4.1030  1.5399 -1.5988
  532MOL0     H71754   7.986   8.695   2.295 -0.1845  1.9185 -0.1006
  532MOL0     H71755   8.013   9.031   2.558  1.5584  1.4983 -2.5457
  532MOL0     H71756   8.060   8.878   2.650 -2.4378 -2.4409 -1.2156
  532MOL0     H71757   8.226   9.033   2.431  1.3996 -0.4278 -0.3148
  532MOL0     H71758   8.275   8.894   2.524 -1.4683 -1.1105  1.9034
  532MOL0     H71759   8.355   9.034   2.685 -0.1449 -0.5031 -1.2080
  532MOL0     H71760   8.185   9.088   2.721  0.3313 -1.0528 -0.2551
  532MOL0     H71761   8.276   9.247   2.495  2.0072  1.6236 -0.5871
  532MOL0     H71762   8.308   9.297   2.656 -1.0184  0.7931 -2.6254
  532MOL0     H71763   8.523   9.163   2.646 -1.1456 -1.2885  0.2819
  532MOL0     H71764   8.486   9.107   2.489  0.7637  0.2285  0.5308
  532MOL0     H71765   8.493   9.395   2.554  2.4054  0.4914  0.7513
  532MOL0     H71766   8.638   9.315   2.508  0.8011  2.0466  0.9467
  532MOL0     H71767   8.369   9.355   2.339  0.0495  0.2345 -1.4023
  532MOL0     H71768   8.502   9.260   2.284  1.6607  1.7580 -0.6860
  532MOL0     H71769   8.505   9.515   2.215 -3.4628  1.0155  2.1246
  532MOL0     H71770   8.523   9.550   2.378 -1.1921 -0.4433 -0.0556
  532MOL0     H71771   8.734   9.374   2.077  3.0801  2.0702 -2.0700
  532MOL0     H71772   8.977   9.189   2.208  1.5533 -0.6978 -1.9444
  532MOL0     H71773   8.962   9.280   2.052 -0.2415  1.0137 -0.2114
  532MOL0     H71774   9.144   9.413   2.074 -1.9538  0.4217  1.0886
  532MOL0     H71775   9.177   9.372   2.246 -1.1275  0.6449  0.3607
  532MOL0     H71776   9.189   9.179   2.003  0.1318 -2.3714  0.6881
  532MOL0     H71777   9.215   9.140   2.177  1.9085 -0.7126 -0.5848
  532MOL0     H71778   9.419   9.152   2.069 -1.1126 -0.6846 -2.6735
  532MOL0     H71779   9.402   9.251   2.217 -0.5723  3.3515 -0.0972
  532MOL0     H71780   9.614   9.222   2.137  0.3062  0.8641  2.1467
  532MOL0     H71781   9.860   9.261   2.061 -1.7707 -0.1941  1.4942
  532MOL0     H71782  10.129   9.467   1.664  0.5298  1.7163  0.8543
  532MOL0     H71783  10.343   9.404   1.563  0.2643 -0.3570 -0.4860
  532MOL0     H71784  10.519   9.222   1.469  1.3254 -3.7812  0.8357
  532MOL0     H71785  10.585   9.378   1.532  2.2884  0.4398  2.3170
  532MOL0     H71786  10.758   9.230   1.431 -0.9606  2.0660  0.2132
  532MOL0     H71787  10.796   9.263   1.592  1.5079  2.4915 -2.3049
  532MOL0     H71788  10.737   9.057   1.684 -2.2302  1.5085  0.0926
  532MOL0     H71789  10.646   9.010   1.543 -0.1516  1.0948  1.1025
  532MOL0     H71790  10.953   9.044   1.521  0.6259 -0.0935 -0.6675
  532MOL0     H71791  10.845   9.043   1.392  1.6333  0.4126  0.0322
  532MOL0     H71792  10.944   8.834   1.426 -0.4491  2.2529 -1.0650
  532MOL0     H71793  10.769   8.830   1.423  0.4974  2.2436 -1.2109
  532MOL0     H71794  10.791   8.791   1.687  1.1636  0.8889  1.2957
  532MOL0     H71795  10.872   8.669   1.585 -2.5047 -0.4969  1.4897
  532MOL0     H71796  10.974   8.877   1.776  1.9537 -3.1797  4.4530
  532MOL0     H71797  11.076   8.841   1.632 -1.0057 -0.2800 -1.2886
  532MOL0     H71798  11.126   8.692   1.842 -1.2417 -1.3171  1.1632
  532MOL0     H71799  10.963   8.606   1.815 -1.5144 -0.5110 -2.4797
  532MOL0     H71800  10.431   9.151   1.901  0.6024  0.2498 -0.8594
  532MOL0     H71801  10.202   9.193   1.984 -0.5664  2.2178  0.2213
  532MOL0     H71802   9.717   9.590   1.819 -2.1014  0.4603 -0.0701
  532MOL0     H71803   9.485   9.550   1.910 -0.0655  1.1557  1.0995
  532MOL0     H71804   7.820   8.920   2.612  2.8736 -1.8980  1.7111
  532MOL0     H71805   7.593   8.787   2.587 -1.2882  1.1816 -2.3350
  532MOL0     H71806   7.314   8.569   2.381 -3.8227  0.4524  0.0134
  532MOL0     H71807   7.096   8.503   2.423  0.3503  0.2944  0.8686
  532MOL0     H71808   7.062   8.151   2.742  0.0773 -1.5434  0.2022
  532MOL0     H71809   7.051   8.072   2.583  2.7322 -0.1221  0.6694
  532MOL0     H71810   6.820   8.194   2.748  0.4069  0.0412  1.0658
  532MOL0     H71811   6.851   8.028   2.694 -1.4802  0.9532 -1.0134
  532MOL0     H71812   6.784   8.267   2.509 -2.4978 -0.1782  0.6642
  532MOL0     H71813   6.672   8.136   2.546 -0.7262  0.9244 -2.1090
  532MOL0     H71814   6.758   8.095   2.332  2.5074  0.1911 -2.8563
  532MOL0     H71815   6.922   8.131   2.374  0.9920  1.0136  2.3497
  532MOL0     H71816   6.937   7.735   2.476 -0.4811  0.5956 -0.1859
  532MOL0     H71817   7.248   8.200   2.682 -0.6771  1.2257  1.2450
  532MOL0     H71818   7.474   8.170   2.743 -0.1033  1.5504  1.1115
  532MOL0     H71819   7.591   8.202   2.611 -1.2636 -1.2461 -0.5970
  532MOL0     H71820   7.564   8.311   2.740  0.4574 -1.7646  1.6015
  533MOL0     O71821   2.116  10.960   8.889 -0.2515  0.2716 -0.5504
  533MOL0     C71822   2.135  11.081   8.873 -0.4920  0.4616 -0.7430
  533MOL0     O71823   2.246  11.139   8.822  0.1966 -0.0572 -0.2181
  533MOL0     C71824   2.362  11.077   8.840  0.2584  0.2809 -0.2945
  533MOL0     C71825   2.414  11.052   8.971  0.5355 -0.5829 -0.3628
  533MOL0     C71826   2.550  11.009   8.988 -0.6723 -0.0320  0.0784
  533MOL0     C71827   2.620  10.958   8.880  0.3320  0.4461 -0.2818
  533MOL0     O71828   2.740  10.890   8.895  0.2720  0.1128  0.5543
  533MOL0     C71829   2.866  10.964   8.899 -0.6601  0.0723 -0.3027
  533MOL0     C71830   2.986  10.891   8.861  0.3911  0.2935 -1.0252
  533MOL0     C71831   3.119  10.966   8.860 -0.2313 -0.2091 -0.8260
  533MOL0     C71832   3.246  10.881   8.824  0.2692  0.1719 -0.1921
  533MOL0     C71833   3.372  10.961   8.864  0.6236 -0.0753  0.9239
  533MOL0     C71834   3.491  10.877   8.896 -0.1254 -0.3880  0.0145
  533MOL0     C71835   3.616  10.961   8.945  1.3059  0.3239  0.5147
  533MOL0     C71836   3.670  11.052   8.832  0.9828  0.9931 -1.0193
  533MOL0     N71837   3.739  10.976   8.727  0.2586  0.5548 -0.7624
  533MOL0     C71838   3.833  10.874   8.759  0.2513  0.2997  0.6154
  533MOL0     C71839   3.879  10.843   8.632  0.3477 -0.2111 -0.4900
  533MOL0     C71840   3.998  10.754   8.615  0.0470 -0.0627  1.2628
  533MOL0     C71841   4.123  10.826   8.655 -0.2345  0.2580  0.2889
  533MOL0     C71842   4.248  10.729   8.690  0.1989  0.4648  0.4962
  533MOL0     C71843   4.366  10.797   8.747 -0.1077 -0.9721 -0.4115
  533MOL0     O71844   4.469  10.708   8.794 -0.4424 -0.1581  0.0113
  533MOL0     C71845   4.584  10.761   8.844  0.0830 -0.6113 -0.3110
  533MOL0     C71846   4.618  10.899   8.841  0.2476  0.7428 -0.9809
  533MOL0     C71847   4.745  10.939   8.900 -0.0736  0.8817  0.5643
  533MOL0     C71848   4.839  10.847   8.942 -0.7504  0.5448 -0.2052
  533MOL0     C71849   4.976  10.880   8.995  1.4836 -0.3199 -0.4580
  533MOL0     O71850   5.050  10.779   9.053  0.1728  0.3371  0.6366
  533MOL0     C71851   5.155  10.831   9.126  0.3280  0.1147 -0.0170
  533MOL0     C71852   5.138  10.857   9.257  0.2145  0.4893 -0.0649
  533MOL0     C71853   5.237  10.907   9.341 -0.4547  0.6833  0.8323
  533MOL0     C71854   5.361  10.939   9.280 -0.0445 -0.4035  0.0447
  533MOL0     O71855   5.435  11.024   9.357 -0.9874  0.0270  0.4153
  533MOL0     C71856   5.576  10.985   9.385  0.4403 -0.5300  0.0392
  533MOL0     C71857   5.632  11.065   9.511  0.5343 -0.1222  0.7075
  533MOL0     C71858   5.550  11.034   9.631 -0.7698  0.3687  0.0051
  533MOL0     C71859   5.612  11.094   9.754  0.4891  0.6081  0.7544
  533MOL0     C71860   5.719  10.991   9.809  0.4198  0.7180 -0.6169
  533MOL0     C71861   5.792  11.042   9.941  0.5655 -0.1168  0.6513
  533MOL0     C71862   5.924  10.966   9.975  1.0839 -0.6569  0.6394
  533MOL0     C71863   5.985  11.031  10.099  0.1388 -0.0858  0.5367
  533MOL0    Cl71864   6.093  10.911  10.178  0.2691  0.0239  0.2294
  533MOL0     C71865   5.394  10.901   9.145 -0.0492 -0.9634 -0.3765
  533MOL0     C71866   5.282  10.857   9.076  0.4472  0.5551  0.4437
  533MOL0     O71867   5.004  10.999   9.000  0.5717 -0.5154 -0.3479
  533MOL0     C71868   4.807  10.712   8.924 -0.4070 -0.1622 -0.4529
  533MOL0     C71869   4.685  10.667   8.880 -0.0904  0.1995  0.1482
  533MOL0     N71870   3.813  10.918   8.532 -0.4974 -0.2927 -0.0707
  533MOL0     N71871   3.716  10.988   8.590 -0.3289  0.6510  0.4008
  533MOL0     C71872   2.561  10.964   8.754  0.4356  0.2739 -0.0565
  533MOL0     C71873   2.434  11.032   8.732 -0.5836 -0.6129  0.9683
  533MOL0     C71874   2.014  11.172   8.874  0.3535  0.4464 -0.0247
  533MOL0     C71875   2.010  11.283   8.794  0.1174 -0.1339  0.4994
  533MOL0     C71876   1.890  11.344   8.758 -0.0950  1.0360  0.8322
  533MOL0     C71877   1.776  11.296   8.822 -0.0670  0.3009 -0.1064
  533MOL0     O71878   1.658  11.355   8.792 -0.6928  0.1773  0.3008
  533MOL0     C71879   1.547  11.273   8.762  0.5023 -0.5568  0.3475
  533MOL0     C71880   1.444  11.357   8.676 -0.1468 -0.3424  0.5843
  533MOL0     C71881   1.321  11.275   8.630  0.3951 -0.6449 -0.4290
  533MOL0     C71882   1.213  11.367   8.553 -0.0555 -0.0004 -0.0146
  533MOL0     C71883   1.164  11.489   8.609  0.4221  0.1763 -0.5474
  533MOL0     C71884   1.104  11.595   8.631 -1.0465 -0.4883  0.2397
  533MOL0     C71885   1.777  11.202   8.924 -0.0322  0.6969  1.0945
  533MOL0     C71886   1.898  11.132   8.944  0.1760 -0.5751 -0.5705
  533MOL0     C71887   1.886  11.022   9.044  0.0851 -0.8000 -1.2980
  533MOL0     H71888   2.354  11.074   9.059 -1.2027 -0.4696 -1.5173
  533MOL0     H71889   2.601  11.019   9.083  4.0329 -1.2396 -2.0531
  533MOL0     H71890   2.859  11.034   8.814  2.7581  0.2130 -0.6008
  533MOL0     H71891   2.866  11.027   8.988  0.3952 -0.1432 -0.1375
  533MOL0     H71892   2.960  10.844   8.765 -0.5293  1.0694 -1.1765
  533MOL0     H71893   3.004  10.809   8.930  0.5012  1.3622  0.2503
  533MOL0     H71894   3.129  11.019   8.955 -2.3836  0.7548 -1.0724
  533MOL0     H71895   3.116  11.044   8.783  0.6933 -0.4941 -1.1605
  533MOL0     H71896   3.243  10.787   8.879  0.5895 -0.7454 -1.6823
  533MOL0     H71897   3.246  10.855   8.717  1.9379 -0.4036 -0.0845
  533MOL0     H71898   3.404  11.018   8.777  0.7523 -0.0886  0.9647
  533MOL0     H71899   3.348  11.017   8.956 -3.7535 -0.5184  0.2934
  533MOL0     H71900   3.462  10.824   8.987  0.3123 -1.3463 -0.3950
  533MOL0     H71901   3.510  10.800   8.821 -2.2557  0.1776 -1.2048
  533MOL0     H71902   3.696  10.899   8.989 -0.5710 -2.8155 -0.1915
  533MOL0     H71903   3.586  11.031   9.023  1.0847 -0.7252  1.4088
  533MOL0     H71904   3.586  11.113   8.796 -1.0557 -0.0479  1.6038
  533MOL0     H71905   3.743  11.122   8.873  0.2772  0.3618  1.5048
  533MOL0     H71906   3.866  10.836   8.855  2.0093 -2.9454 -1.1167
  533MOL0     H71907   3.993  10.669   8.683  2.4773 -1.2612  0.0902
  533MOL0     H71908   4.009  10.723   8.511  2.2308 -0.6248  1.5942
  533MOL0     H71909   4.161  10.881   8.568  1.0340  2.2284  2.0075
  533MOL0     H71910   4.093  10.892   8.736  0.4127 -2.1784  2.6391
  533MOL0     H71911   4.275  10.685   8.593 -1.7278 -0.7184  0.4285
  533MOL0     H71912   4.208  10.650   8.754  0.8755 -0.4491 -0.1837
  533MOL0     H71913   4.327  10.862   8.827 -1.4606 -0.2746 -1.5846
  533MOL0     H71914   4.399  10.863   8.667 -1.6021 -0.1146 -0.3808
  533MOL0     H71915   4.550  10.974   8.802 -0.1135 -0.3166 -2.4841
  533MOL0     H71916   4.768  11.045   8.903  2.8857  0.3160  1.0924
  533MOL0     H71917   5.042  10.832   9.300  0.4443  0.6038  0.5115
  533MOL0     H71918   5.217  10.934   9.444 -2.7528 -0.6552  0.8158
  533MOL0     H71919   5.583  10.877   9.396  0.8690 -0.5195 -0.0785
  533MOL0     H71920   5.647  11.010   9.305  0.1926 -0.2010 -0.0803
  533MOL0     H71921   5.735  11.029   9.518  0.6649  0.2562  0.7403
  533MOL0     H71922   5.618  11.173   9.496  0.2604  0.2410  3.1590
  533MOL0     H71923   5.451  11.080   9.630 -0.1975  1.8422  2.4038
  533MOL0     H71924   5.542  10.926   9.644  1.5817 -0.3990 -3.5195
  533MOL0     H71925   5.536  11.094   9.832 -0.7108 -2.8086 -0.2637
  533MOL0     H71926   5.652  11.196   9.747 -2.3617  1.8179  0.6064
  533MOL0     H71927   5.802  10.970   9.742  1.6216  0.0582  1.0226
  533MOL0     H71928   5.665  10.897   9.828 -0.3328  1.2792  0.1056
  533MOL0     H71929   5.823  11.146   9.923 -1.5227  0.4256 -0.0700
  533MOL0     H71930   5.716  11.035  10.019 -0.3879  0.6577 -0.1640
  533MOL0     H71931   5.992  10.980   9.890 -0.9795 -1.5528 -1.2599
  533MOL0     H71932   5.908  10.859   9.993  1.0649 -0.5957  1.0042
  533MOL0     H71933   6.038  11.120  10.064  2.8252 -1.2240  1.4759
  533MOL0     H71934   5.905  11.061  10.167 -0.9468 -0.0326 -0.7154
  533MOL0     H71935   5.483  10.932   9.091 -0.3014  2.2186  0.8338
  533MOL0     H71936   5.300  10.840   8.971 -0.2229  0.2116  0.3809
  533MOL0     H71937   4.877  10.634   8.950  0.0773  0.4702  0.1815
  533MOL0     H71938   4.663  10.561   8.873  0.3981  0.2047 -2.3195
  533MOL0     H71939   2.612  10.923   8.667 -2.1190 -1.5354 -0.8263
  533MOL0     H71940   2.381  11.056   8.641 -3.6616  1.0114  3.0181
  533MOL0     H71941   2.108  11.323   8.768 -0.2436 -0.0416 -0.7790
  533MOL0     H71942   1.886  11.422   8.683  0.6040 -0.4506 -0.8017
  533MOL0     H71943   1.495  11.233   8.850 -2.4333 -1.0606 -1.4966
  533MOL0     H71944   1.579  11.190   8.698 -0.4587  0.1808 -1.1497
  533MOL0     H71945   1.494  11.405   8.591 -1.2712 -1.4381 -0.7621
  533MOL0     H71946   1.409  11.436   8.743 -1.2163 -0.8368  0.6236
  533MOL0     H71947   1.280  11.221   8.717  0.8592  0.2019  0.3306
  533MOL0     H71948   1.354  11.195   8.563  0.8941 -0.3797 -0.5037
  533MOL0     H71949   1.243  11.398   8.452 -0.0537 -0.5296 -0.1796
  533MOL0     H71950   1.127  11.304   8.528 -0.8814  2.1351 -3.1962
  533MOL0     H71951   1.057  11.691   8.640  0.3546  0.0685  2.5058
  533MOL0     H71952   1.692  11.184   8.990 -0.7423  3.5268  1.1138
  533MOL0     H71953   1.869  10.924   8.998 -0.8997 -0.5258 -1.5466
  533MOL0     H71954   1.976  11.013   9.105  1.2217 -0.2321 -2.8465
  533MOL0     H71955   1.804  11.036   9.116  1.7502  0.4713  0.4568
  534MOL0     O71956   3.688   3.418   2.858 -0.0274 -0.2357  0.6845
  534MOL0     C71957   3.671   3.312   2.914 -0.0400 -0.6712  1.5112
  534MOL0     O71958   3.768   3.225   2.962  0.0210 -0.1173 -0.3052
  534MOL0     C71959   3.895   3.247   2.953 -0.9298  0.1396  0.5196
  534MOL0     C71960   3.974   3.226   3.066 -0.0543 -0.2975 -0.4011
  534MOL0     C71961   4.113   3.248   3.064 -1.2010 -0.1017  0.5337
  534MOL0     C71962   4.175   3.287   2.940 -0.2013 -0.3592  0.2866
  534MOL0     O71963   4.312   3.300   2.933  0.4992  0.2176 -0.0771
  534MOL0     C71964   4.371   3.252   2.811  0.1084  0.4077  0.0510
  534MOL0     C71965   4.522   3.230   2.831 -0.0561  0.5025  0.5632
  534MOL0     C71966   4.587   3.162   2.713  0.3939 -0.0765 -0.4277
  534MOL0     C71967   4.739   3.165   2.730 -0.9110  0.3330  0.2520
  534MOL0     C71968   4.811   3.111   2.604  0.3390 -0.0355  0.0677
  534MOL0     C71969   4.959   3.119   2.634  0.1059  0.5198  0.0557
  534MOL0     C71970   5.044   3.029   2.529 -0.5748 -0.3458  0.0661
  534MOL0     C71971   5.179   3.093   2.502 -1.1919 -1.1391  0.2036
  534MOL0     N71972   5.262   3.106   2.628 -0.0190  0.6960  0.2349
  534MOL0     C71973   5.262   3.017   2.739 -0.4893  0.4090 -0.0181
  534MOL0     C71974   5.375   3.050   2.805  0.0439  0.9678 -0.2233
  534MOL0     C71975   5.416   2.983   2.931 -0.1103  0.4861  0.1440
  534MOL0     C71976   5.417   2.828   2.931  0.0686  0.6918  0.7180
  534MOL0     C71977   5.501   2.761   2.816 -1.0727 -0.1388 -0.0339
  534MOL0     C71978   5.645   2.819   2.818  0.6654 -0.5027 -0.2188
  534MOL0     O71979   5.691   2.785   2.945  0.0804  0.1386  0.1840
  534MOL0     C71980   5.822   2.817   2.989  0.5268 -0.4970 -1.0893
  534MOL0     C71981   5.922   2.864   2.904  0.4056  0.1535 -0.3788
  534MOL0     C71982   6.054   2.889   2.954 -0.4504 -1.0150  0.5783
  534MOL0     C71983   6.090   2.873   3.092 -0.9756  0.2125  0.5226
  534MOL0     C71984   6.232   2.897   3.132  0.1214  0.3002 -0.1244
  534MOL0     O71985   6.270   2.833   3.237  0.0898 -0.4705 -0.8289
  534MOL0     C71986   6.398   2.845   3.282  0.2553 -0.2714 -0.7252
  534MOL0     C71987   6.503   2.752   3.244 -0.9535 -0.1978 -0.2545
  534MOL0     C71988   6.630   2.749   3.311 -0.3941  0.0064  0.4732
  534MOL0     C71989   6.664   2.854   3.398  0.4989 -0.5312  0.8489
  534MOL0     O71990   6.793   2.871   3.452  0.5589 -0.1812  0.0461
  534MOL0     C71991   6.902   2.851   3.353  0.0330 -0.2698 -0.4612
  534MOL0     C71992   7.029   2.854   3.445  0.5445 -0.9374  0.4276
  534MOL0     C71993   7.148   2.793   3.371 -0.0358  0.4663 -0.4570
  534MOL0     C71994   7.264   2.779   3.480 -0.1835  0.7813  0.2798
  534MOL0     C71995   7.403   2.748   3.414  0.3226 -0.4191  0.0302
  534MOL0     C71996   7.505   2.732   3.525 -0.2784 -0.5323  0.1353
  534MOL0     C71997   7.642   2.699   3.467 -1.0119 -0.0798  0.2000
  534MOL0     C71998   7.739   2.675   3.578 -0.5679  0.0434  0.1555
  534MOL0    Cl71999   7.908   2.720   3.537  0.1512 -0.2242  0.4653
  534MOL0     C72000   6.565   2.958   3.417  0.5822  0.4314 -0.4971
  534MOL0     C72001   6.432   2.946   3.373 -0.7697  0.2197  0.6878
  534MOL0     O72002   6.304   2.957   3.055  0.3982 -0.5869  0.2866
  534MOL0     C72003   5.990   2.814   3.174 -0.1464  0.3188  0.0577
  534MOL0     C72004   5.863   2.789   3.125 -1.2079  0.3859  0.7398
  534MOL0     N72005   5.440   3.156   2.742  0.1890  0.3089 -0.0110
  534MOL0     N72006   5.370   3.182   2.634 -0.5120  0.5049 -0.6279
  534MOL0     C72007   4.092   3.302   2.832 -0.1041  0.9110  1.0471
  534MOL0     C72008   3.961   3.270   2.829  0.4521 -0.2823 -0.0250
  534MOL0     C72009   3.536   3.263   2.941 -0.5980 -0.2988 -0.1577
  534MOL0     C72010   3.516   3.150   3.025 -0.4513  0.0996 -0.0022
  534MOL0     C72011   3.396   3.089   3.062  0.1711 -0.5820 -1.0304
  534MOL0     C72012   3.280   3.140   3.003  0.6868 -0.6371  0.2149
  534MOL0     O72013   3.170   3.070   3.037 -0.9216  0.0118 -0.2311
  534MOL0     C72014   3.051   3.105   2.989  0.2934 -0.8458 -0.8082
  534MOL0     C72015   2.933   3.043   3.076 -0.7590  0.3390  0.2677
  534MOL0     C72016   2.920   2.888   3.077  0.1843  0.0572 -0.2034
  534MOL0     C72017   2.800   2.832   3.154  0.1598 -0.6655 -0.6362
  534MOL0     C72018   2.798   2.684   3.176  0.1590  0.2833 -0.9629
  534MOL0     C72019   2.768   2.568   3.207 -0.3611 -0.1547  0.4583
  534MOL0     C72020   3.292   3.249   2.924 -0.7481 -0.6806 -0.3974
  534MOL0     C72021   3.415   3.315   2.894  0.3950  0.2262 -0.9271
  534MOL0     C72022   3.407   3.419   2.789  0.0993 -0.1619  0.9814
  534MOL0     H72023   3.928   3.193   3.159  2.6551 -0.3801  1.0061
  534MOL0     H72024   4.170   3.226   3.154 -0.5706 -0.0114  0.1629
  534MOL0     H72025   4.326   3.158   2.777 -0.1169  0.3063  0.6285
  534MOL0     H72026   4.359   3.325   2.730  3.7499  0.7245 -0.4147
  534MOL0     H72027   4.538   3.165   2.918  0.1076 -1.5110 -0.9081
  534MOL0     H72028   4.560   3.324   2.871 -1.5048  0.5114  2.0335
  534MOL0     H72029   4.555   3.211   2.621 -1.6898  2.2156  1.3750
  534MOL0     H72030   4.540   3.065   2.696 -3.7055  1.7092 -0.5868
  534MOL0     H72031   4.775   3.262   2.767 -0.6773 -0.1491  1.3243
  534MOL0     H72032   4.768   3.101   2.814 -2.6522  1.0859  1.4922
  534MOL0     H72033   4.775   3.007   2.599 -0.2903  0.0354  2.0370
  534MOL0     H72034   4.789   3.163   2.511 -1.3996 -0.6425  0.0987
  534MOL0     H72035   4.992   3.221   2.612  3.0789 -0.5557 -1.0316
  534MOL0     H72036   5.003   3.102   2.733  3.3305  0.3118 -1.2902
  534MOL0     H72037   4.989   3.011   2.435 -1.7353 -2.1094  1.0177
  534MOL0     H72038   5.061   2.933   2.580  0.8302 -1.3698 -2.1741
  534MOL0     H72039   5.242   3.040   2.430  2.5495  0.2430  2.1448
  534MOL0     H72040   5.162   3.194   2.464 -2.9510 -0.1038  3.3482
  534MOL0     H72041   5.199   2.936   2.773  0.5725 -0.6234 -0.4550
  534MOL0     H72042   5.516   3.022   2.955 -0.0759  1.5768 -1.5561
  534MOL0     H72043   5.346   3.009   3.010 -2.0398 -0.7038 -1.1056
  534MOL0     H72044   5.454   2.803   3.031 -2.7073  2.0869  2.2322
  534MOL0     H72045   5.314   2.791   2.932 -0.1594  1.2853  0.2980
  534MOL0     H72046   5.446   2.789   2.726 -1.7005  1.3487  0.7745
  534MOL0     H72047   5.497   2.652   2.829 -0.5985 -0.1145  0.3456
  534MOL0     H72048   5.655   2.927   2.806  1.3147 -0.2346  2.1175
  534MOL0     H72049   5.711   2.760   2.753  0.8890 -3.6205  2.5714
  534MOL0     H72050   5.899   2.892   2.802 -0.5113 -1.1394 -0.5495
  534MOL0     H72051   6.130   2.936   2.892  1.7262 -0.2343  3.5953
  534MOL0     H72052   6.489   2.661   3.186  1.9142 -0.0283 -1.3589
  534MOL0     H72053   6.705   2.673   3.295 -2.0732 -1.4703 -0.8001
  534MOL0     H72054   6.904   2.754   3.301  1.8708  0.5428 -2.0002
  534MOL0     H72055   6.895   2.933   3.281  0.0543 -0.7026 -0.9620
  534MOL0     H72056   7.049   2.960   3.464  2.1952 -0.8961 -1.1958
  534MOL0     H72057   7.009   2.792   3.533 -0.3860 -2.4363 -0.7823
  534MOL0     H72058   7.122   2.689   3.349 -0.1481 -0.4680  3.4630
  534MOL0     H72059   7.189   2.862   3.296 -1.6569  0.2877 -1.5487
  534MOL0     H72060   7.239   2.691   3.541 -0.5268 -0.1184 -1.1249
  534MOL0     H72061   7.278   2.868   3.542  0.1906 -0.1973  1.6602
  534MOL0     H72062   7.434   2.818   3.336  3.0541 -1.5768 -0.0267
  534MOL0     H72063   7.393   2.651   3.365 -0.5787 -1.6978  2.5618
  534MOL0     H72064   7.513   2.828   3.576 -2.0096 -0.5594  0.5237
  534MOL0     H72065   7.472   2.650   3.589  1.1893  0.5749  2.4284
  534MOL0     H72066   7.681   2.780   3.404  0.7462 -0.2214  1.0298
  534MOL0     H72067   7.643   2.622   3.390 -1.6348 -0.0996  0.2131
  534MOL0     H72068   7.713   2.736   3.665  0.8497  2.6835 -1.1349
  534MOL0     H72069   7.732   2.569   3.603 -0.1851 -0.5659 -2.0428
  534MOL0     H72070   6.591   3.038   3.486  1.8082  0.8897 -1.4477
  534MOL0     H72071   6.363   3.025   3.400 -1.1629  0.1506 -0.0800
  534MOL0     H72072   6.020   2.781   3.273 -0.5498 -1.1076 -0.2675
  534MOL0     H72073   5.798   2.735   3.193 -1.0449 -0.0515  0.5507
  534MOL0     H72074   4.129   3.335   2.735 -2.1288  0.5878  0.1088
  534MOL0     H72075   3.901   3.276   2.739  1.2764  1.6267 -0.5004
  534MOL0     H72076   3.601   3.106   3.076 -0.2806 -0.7392 -0.9942
  534MOL0     H72077   3.390   3.013   3.139 -2.2102  1.1404  0.6118
  534MOL0     H72078   3.037   3.084   2.882  0.4330 -2.9273 -0.4527
  534MOL0     H72079   3.030   3.211   3.006  2.2163 -0.6317  0.4931
  534MOL0     H72080   2.834   3.086   3.058 -0.8466 -0.1531 -0.4516
  534MOL0     H72081   2.962   3.068   3.179  2.6328  2.6349 -1.0339
  534MOL0     H72082   3.004   2.844   3.132 -1.4434  1.9623  4.2225
  534MOL0     H72083   2.916   2.852   2.973  2.2225  1.3308 -0.7662
  534MOL0     H72084   2.801   2.874   3.255  3.7281 -1.5686 -0.1889
  534MOL0     H72085   2.707   2.856   3.100 -0.2457  0.8648  0.6573
  534MOL0     H72086   2.737   2.470   3.238 -0.6591 -0.6120 -1.2249
  534MOL0     H72087   3.202   3.284   2.873 -0.1111 -0.1097 -1.1497
  534MOL0     H72088   3.482   3.495   2.815  2.1053 -1.3261 -1.0489
  534MOL0     H72089   3.429   3.380   2.689 -1.3411  1.4692 -0.0376
  534MOL0     H72090   3.315   3.479   2.797 -0.0226 -0.0392 -0.7534
  535MOL0     O72091   4.194   6.045   0.460 -0.4212  0.4656  0.5167
  535MOL0     C72092   4.160   6.158   0.477 -0.1904 -1.0475  0.2007
  535MOL0     O72093   4.236   6.252   0.543  0.0735 -0.2742 -0.1983
  535MOL0     C72094   4.368   6.245   0.582 -0.0903 -0.6311 -0.3166
  535MOL0     C72095   4.458   6.158   0.525 -0.5292 -0.1813  0.6064
  535MOL0     C72096   4.592   6.148   0.567  0.0634 -0.2422 -0.8847
  535MOL0     C72097   4.640   6.237   0.657 -0.8933 -0.0698 -0.0067
  535MOL0     O72098   4.776   6.222   0.696  0.1976  0.5514  0.2514
  535MOL0     C72099   4.850   6.333   0.743  0.1781  0.4150  0.4963
  535MOL0     C72100   4.989   6.330   0.685 -0.0005  0.4263  0.5036
  535MOL0     C72101   5.066   6.462   0.668  0.6349 -0.2660  0.9126
  535MOL0     C72102   5.210   6.433   0.669 -0.7563 -0.1977 -0.4536
  535MOL0     C72103   5.290   6.558   0.642 -0.4048  0.5136  0.3018
  535MOL0     C72104   5.434   6.536   0.644  0.9188  0.3549 -0.2968
  535MOL0     C72105   5.496   6.444   0.535 -0.1514 -0.5976 -0.8052
  535MOL0     C72106   5.648   6.456   0.556  0.4185  0.0078 -0.4468
  535MOL0     N72107   5.706   6.580   0.498  0.3747  0.3163  0.0728
  535MOL0     C72108   5.712   6.610   0.366  0.2262  0.0822 -0.5507
  535MOL0     C72109   5.792   6.724   0.354 -0.1064  0.3884 -0.1898
  535MOL0     C72110   5.844   6.793   0.234 -0.4896  0.0712 -0.3546
  535MOL0     C72111   5.973   6.728   0.195  0.4727  0.1848  0.4854
  535MOL0     C72112   6.048   6.813   0.091 -0.0787  0.7967 -0.3751
  535MOL0     C72113   6.204   6.785   0.096  1.3686 -1.5880  0.9834
  535MOL0     O72114   6.265   6.873  -0.003 -0.4263 -1.1158 -0.3624
  535MOL0     C72115   6.401   6.852  -0.038 -0.1200  0.4136  0.4238
  535MOL0     C72116   6.453   6.945  -0.129  0.4086 -0.3905  0.0619
  535MOL0     C72117   6.587   6.946  -0.167 -0.1653  0.3642  0.1065
  535MOL0     C72118   6.673   6.849  -0.100 -0.0680  0.2747  0.2618
  535MOL0     C72119   6.818   6.845  -0.117 -0.1513 -0.0166 -0.4194
  535MOL0     O72120   6.880   6.963  -0.146  0.3884  0.3354  0.3614
  535MOL0     C72121   7.017   6.956  -0.157  0.3144 -0.1924  0.5098
  535MOL0     C72122   7.090   7.042  -0.083  0.2932  0.3990 -0.3692
  535MOL0     C72123   7.229   7.046  -0.088  0.1938  0.2344  1.0091
  535MOL0     C72124   7.286   6.959  -0.188  0.1062 -0.4960  0.6728
  535MOL0     O72125   7.423   6.965  -0.225  0.2515  0.0055 -0.5779
  535MOL0     C72126   7.517   6.924  -0.118 -0.2754  0.3872 -0.1215
  535MOL0     C72127   7.641   7.011  -0.125  0.3199  0.2634 -0.2987
  535MOL0     C72128   7.748   6.962  -0.235  0.3167  0.0606  0.1014
  535MOL0     C72129   7.855   7.065  -0.268 -0.8131 -0.1915 -0.4353
  535MOL0     C72130   7.959   7.011  -0.371  0.4183 -0.2321 -0.7001
  535MOL0     C72131   8.072   7.108  -0.389 -0.3867 -0.3224  0.3325
  535MOL0     C72132   8.022   7.248  -0.421 -0.2105 -0.4571  0.2172
  535MOL0     C72133   8.132   7.343  -0.481  0.4356 -0.4091 -0.2244
  535MOL0    Cl72134   8.158   7.289  -0.652 -0.1734  0.0352  0.0294
  535MOL0     C72135   7.211   6.875  -0.267 -0.4588  0.9007  0.3469
  535MOL0     C72136   7.078   6.860  -0.241  1.0449 -0.0074 -0.2814
  535MOL0     O72137   6.872   6.741  -0.084 -0.7185  0.2504 -0.7230
  535MOL0     C72138   6.618   6.754  -0.012  0.4881  0.6785  1.3218
  535MOL0     C72139   6.484   6.758   0.021 -0.1821 -0.2496 -0.4303
  535MOL0     N72140   5.820   6.769   0.486  0.8896  0.7161 -0.0660
  535MOL0     N72141   5.777   6.675   0.566  0.6577  0.2369  0.1432
  535MOL0     C72142   4.555   6.336   0.716 -0.0221  0.0282 -0.1039
  535MOL0     C72143   4.413   6.343   0.677 -0.5120 -0.1786 -0.1927
  535MOL0     C72144   4.049   6.206   0.390  0.3108 -0.4470 -0.1713
  535MOL0     C72145   4.032   6.348   0.380 -0.3907 -0.2057  0.0328
  535MOL0     C72146   3.926   6.399   0.302  0.0745  0.1372 -0.3199
  535MOL0     C72147   3.833   6.320   0.230 -0.2603 -0.2329 -0.3531
  535MOL0     O72148   3.730   6.355   0.151  0.2752  0.2130  0.0019
  535MOL0     C72149   3.712   6.498   0.120 -0.3939 -0.3110 -0.6463
  535MOL0     C72150   3.626   6.549   0.242 -0.2949  0.5583  0.5093
  535MOL0     C72151   3.469   6.517   0.225  0.2655  0.6156  0.2553
  535MOL0     C72152   3.390   6.619   0.132  0.2040  0.2456 -0.1245
  535MOL0     C72153   3.407   6.591  -0.006 -0.3022 -0.2168  0.0058
  535MOL0     C72154   3.427   6.584  -0.119  0.4518  0.6260 -0.2192
  535MOL0     C72155   3.853   6.186   0.246 -0.2101 -0.6873  0.0645
  535MOL0     C72156   3.954   6.126   0.322  0.3408 -0.6170 -0.7625
  535MOL0     C72157   3.945   5.979   0.332  0.2307  0.3096  0.5979
  535MOL0     H72158   4.429   6.074   0.463  1.6731 -1.0106  0.6259
  535MOL0     H72159   4.656   6.069   0.530  3.2165 -1.0514  5.0057
  535MOL0     H72160   4.814   6.427   0.702  1.1604  0.4509 -0.3353
  535MOL0     H72161   4.845   6.337   0.852  1.7753 -1.9174  0.7416
  535MOL0     H72162   4.986   6.277   0.589  2.0812 -1.9681  1.6211
  535MOL0     H72163   5.046   6.263   0.751  0.3131  0.9644  0.7866
  535MOL0     H72164   5.047   6.540   0.743 -1.0130  0.5278 -0.2666
  535MOL0     H72165   5.044   6.518   0.576  0.7751 -2.4586 -0.5270
  535MOL0     H72166   5.229   6.392   0.769  1.4781  1.3549 -0.1714
  535MOL0     H72167   5.240   6.354   0.600  3.3968  2.2511 -1.7769
  535MOL0     H72168   5.274   6.605   0.544  3.6502  0.3225 -0.6569
  535MOL0     H72169   5.261   6.632   0.716  1.2172  1.5372 -0.0330
  535MOL0     H72170   5.481   6.634   0.649  3.7814 -1.0058  2.5858
  535MOL0     H72171   5.458   6.492   0.741 -2.3064  1.1467  1.0229
  535MOL0     H72172   5.459   6.463   0.434  2.9114 -1.2327 -2.1508
  535MOL0     H72173   5.472   6.340   0.560 -1.1967 -0.6419 -1.9441
  535MOL0     H72174   5.678   6.444   0.661  0.4903 -0.4198 -0.5153
  535MOL0     H72175   5.697   6.373   0.504 -0.7436 -3.3654  3.3552
  535MOL0     H72176   5.670   6.562   0.278  0.0134  1.6027 -1.3094
  535MOL0     H72177   5.776   6.780   0.149 -1.5585 -0.8378  0.6092
  535MOL0     H72178   5.864   6.892   0.275  5.6501 -1.5775  1.5987
  535MOL0     H72179   6.024   6.726   0.292 -1.6937  1.6541  1.7420
  535MOL0     H72180   5.970   6.629   0.147  0.9354  0.9260 -1.1349
  535MOL0     H72181   6.029   6.918   0.117  2.3311  0.6478  2.6906
  535MOL0     H72182   6.014   6.800  -0.012 -2.5569  1.6997  0.2623
  535MOL0     H72183   6.223   6.677   0.092  0.1619 -1.9616  3.3052
  535MOL0     H72184   6.229   6.815   0.199  0.5156  1.7065  0.3436
  535MOL0     H72185   6.397   7.031  -0.164  2.1227 -0.0274 -1.9951
  535MOL0     H72186   6.631   7.025  -0.227  1.2511 -0.4355  0.0462
  535MOL0     H72187   7.039   7.111  -0.016 -1.9248 -0.6068 -0.9201
  535MOL0     H72188   7.289   7.126  -0.044  0.2211  0.7951 -0.0294
  535MOL0     H72189   7.475   6.906  -0.019 -0.4434 -3.6886 -0.7834
  535MOL0     H72190   7.556   6.825  -0.143 -2.3109 -0.2280 -1.0106
  535MOL0     H72191   7.611   7.113  -0.150  1.9350 -0.0157 -3.9680
  535MOL0     H72192   7.697   7.024  -0.032  1.3285  0.9039 -0.9729
  535MOL0     H72193   7.801   6.867  -0.221  0.2242 -0.0673 -0.4017
  535MOL0     H72194   7.693   6.949  -0.329 -1.9884  1.6175  1.1516
  535MOL0     H72195   7.908   7.084  -0.174  2.1170 -0.1973 -1.9632
  535MOL0     H72196   7.800   7.152  -0.305 -1.1644 -0.8728 -1.5461
  535MOL0     H72197   7.915   7.011  -0.470  0.1542 -0.4983 -0.5838
  535MOL0     H72198   8.001   6.919  -0.329  0.1257 -0.8727 -1.7792
  535MOL0     H72199   8.134   7.100  -0.299 -1.8647 -2.2072  1.2457
  535MOL0     H72200   8.126   7.072  -0.477  1.7423  3.1991  0.0103
  535MOL0     H72201   7.988   7.302  -0.332 -1.8966  1.9444 -1.7239
  535MOL0     H72202   7.941   7.234  -0.493 -1.8799 -0.7789  2.0851
  535MOL0     H72203   8.095   7.446  -0.479 -0.7636 -0.8122  2.2808
  535MOL0     H72204   8.225   7.342  -0.423  0.8631  2.1609 -0.7565
  535MOL0     H72205   7.250   6.812  -0.347  1.5144  0.6299  1.4626
  535MOL0     H72206   7.030   6.779  -0.296 -1.5955  0.0877  1.6874
  535MOL0     H72207   6.678   6.681   0.042 -1.5237  0.1577  2.9796
  535MOL0     H72208   6.454   6.680   0.091  4.0031 -1.0480  0.7711
  535MOL0     H72209   4.581   6.392   0.805  0.1680 -0.5231  0.1889
  535MOL0     H72210   4.349   6.418   0.723 -0.1710 -0.9963  1.7073
  535MOL0     H72211   4.098   6.418   0.431  2.1813 -0.4738 -2.6680
  535MOL0     H72212   3.931   6.508   0.299  1.5202  0.1035 -0.0305
  535MOL0     H72213   3.650   6.510   0.031 -0.9665  2.2301  0.0143
  535MOL0     H72214   3.807   6.548   0.103  0.5760 -1.8640 -0.0112
  535MOL0     H72215   3.633   6.658   0.242  0.4407  0.5485 -1.5798
  535MOL0     H72216   3.676   6.514   0.333 -0.5983 -0.5960  0.2429
  535MOL0     H72217   3.425   6.519   0.325  0.6438  1.8683  0.4077
  535MOL0     H72218   3.459   6.417   0.181  0.9821 -1.4708  4.3377
  535MOL0     H72219   3.284   6.616   0.157  0.7572 -0.0376  2.5234
  535MOL0     H72220   3.431   6.720   0.137 -1.2283  0.8449 -0.0182
  535MOL0     H72221   3.444   6.577  -0.224 -0.8064  0.8148 -0.4551
  535MOL0     H72222   3.778   6.126   0.195 -1.5568  0.3937  0.7301
  535MOL0     H72223   4.015   5.939   0.258  1.5056 -2.4132  3.0339
  535MOL0     H72224   3.968   5.942   0.433 -2.1269  0.9673  1.4521
  535MOL0     H72225   3.844   5.946   0.307  1.1170 -1.1292 -1.3017
  536MOL0     O72226   4.432   7.433   3.794 -0.5569 -0.5304  0.3165
  536MOL0     C72227   4.381   7.495   3.696  0.4275  0.5922 -0.2749
  536MOL0     O72228   4.459   7.555   3.597 -0.1340  0.0192  0.5537
  536MOL0     C72229   4.596   7.552   3.604 -0.7056 -0.4833 -0.2594
  536MOL0     C72230   4.671   7.496   3.500 -0.7031  0.2168 -0.5378
  536MOL0     C72231   4.813   7.497   3.509  0.2047  0.5503 -0.6491
  536MOL0     C72232   4.877   7.562   3.614 -0.2653 -0.7060 -0.2118
  536MOL0     O72233   5.014   7.554   3.622 -0.5557  0.1135 -0.3860
  536MOL0     C72234   5.092   7.665   3.672 -0.5526 -0.2180  0.3983
  536MOL0     C72235   5.241   7.632   3.662 -0.5085  0.4323 -0.3701
  536MOL0     C72236   5.277   7.495   3.735 -0.2531 -0.6241  0.1921
  536MOL0     C72237   5.412   7.453   3.686 -0.2931  0.3338 -0.3702
  536MOL0     C72238   5.445   7.311   3.728  0.4050  0.4787  0.6541
  536MOL0     C72239   5.591   7.274   3.704  0.2656  0.1385 -0.3329
  536MOL0     C72240   5.648   7.275   3.558 -0.4235 -0.2800 -0.0433
  536MOL0     C72241   5.780   7.200   3.542 -0.3134  0.2282  0.5514
  536MOL0     N72242   5.901   7.281   3.557 -0.4251 -0.0842 -0.0478
  536MOL0     C72243   5.974   7.311   3.674  0.5807 -0.1101  0.0934
  536MOL0     C72244   6.022   7.431   3.655  0.5691  0.3602 -0.3888
  536MOL0     C72245   6.095   7.511   3.765  0.9450 -0.5083 -0.4523
  536MOL0     C72246   6.219   7.575   3.716  0.1101  0.0373 -1.0347
  536MOL0     C72247   6.276   7.696   3.797 -0.5648  0.1122 -0.2079
  536MOL0     C72248   6.414   7.711   3.748 -0.0491  0.4440 -0.7836
  536MOL0     O72249   6.434   7.697   3.605 -0.0497  0.2253  0.5053
  536MOL0     C72250   6.554   7.731   3.554 -0.9103  0.1496  0.0721
  536MOL0     C72251   6.564   7.745   3.415  0.9462 -0.0207 -0.5720
  536MOL0     C72252   6.682   7.789   3.361  0.4797 -0.1430  0.6154
  536MOL0     C72253   6.795   7.824   3.443  0.3121 -0.3983  0.7977
  536MOL0     C72254   6.912   7.882   3.383 -0.3537 -0.6429 -0.1551
  536MOL0     O72255   7.003   7.947   3.463 -0.3579 -0.4155 -0.0290
  536MOL0     C72256   7.132   7.952   3.418  0.1946 -0.0371 -0.1274
  536MOL0     C72257   7.195   8.073   3.445  0.2428  0.0525  0.8714
  536MOL0     C72258   7.329   8.099   3.410  0.7015 -0.6005 -0.4150
  536MOL0     C72259   7.399   7.983   3.367 -0.4666 -0.5269 -0.1145
  536MOL0     O72260   7.540   8.000   3.334  0.6245 -0.5938 -0.0017
  536MOL0     C72261   7.562   8.105   3.236 -0.2882 -0.2380 -0.0117
  536MOL0     C72262   7.694   8.095   3.160 -0.4066  1.6823 -0.3172
  536MOL0     C72263   7.696   8.176   3.026 -0.4305  0.3773  0.4872
  536MOL0     C72264   7.830   8.164   2.947 -0.2539  0.1077  1.2471
  536MOL0     C72265   7.927   8.264   3.006  0.0324  0.4072  0.5352
  536MOL0     C72266   8.068   8.201   3.006  0.3884  0.8280 -0.2647
  536MOL0     C72267   8.163   8.317   3.025 -0.3731  0.3423  0.4417
  536MOL0     C72268   8.310   8.284   3.001  0.3990 -0.8172 -0.0413
  536MOL0    Cl72269   8.422   8.418   3.041 -0.0792 -0.4158 -0.3430
  536MOL0     C72270   7.342   7.853   3.353  0.2600  0.2532 -0.1853
  536MOL0     C72271   7.203   7.840   3.378 -0.2769 -0.1118  0.9239
  536MOL0     O72272   6.933   7.858   3.266 -0.2946  0.4568 -0.8056
  536MOL0     C72273   6.788   7.794   3.581  0.2650 -0.2353  0.9094
  536MOL0     C72274   6.667   7.753   3.637  0.7872 -0.6734  0.2206
  536MOL0     N72275   5.989   7.476   3.527 -1.0151  0.6089  0.5903
  536MOL0     N72276   5.931   7.376   3.467 -0.7196 -0.5904 -0.3814
  536MOL0     C72277   4.795   7.632   3.706  0.0552 -0.3086 -0.1041
  536MOL0     C72278   4.656   7.621   3.712 -0.8423 -0.3557 -0.6891
  536MOL0     C72279   4.235   7.518   3.700  0.1782 -0.0632  0.2913
  536MOL0     C72280   4.192   7.629   3.623  0.1431  0.1024 -0.5837
  536MOL0     C72281   4.054   7.671   3.626  0.2438  0.3048 -1.5012
  536MOL0     C72282   3.955   7.597   3.695  0.0943  0.5855  0.3201
  536MOL0     O72283   3.829   7.636   3.676  0.1489 -0.5933 -0.1905
  536MOL0     C72284   3.715   7.565   3.720  0.1688  1.4054  0.3472
  536MOL0     C72285   3.668   7.607   3.862 -0.1321  0.1814 -0.6084
  536MOL0     C72286   3.522   7.556   3.873 -0.7913 -0.4579 -0.0448
  536MOL0     C72287   3.443   7.647   3.961  0.2223  0.1662 -0.3432
  536MOL0     C72288   3.327   7.591   4.037  0.2921 -0.0417 -0.0672
  536MOL0     C72289   3.225   7.559   4.098  0.2966  0.8570 -0.3731
  536MOL0     C72290   3.996   7.487   3.769  0.3252  0.0018  0.3885
  536MOL0     C72291   4.134   7.446   3.777  0.0777 -1.1831  0.1698
  536MOL0     C72292   4.176   7.333   3.873  0.8273  0.7432  0.3912
  536MOL0     H72293   4.620   7.445   3.419 -0.5222  0.1561 -0.6166
  536MOL0     H72294   4.868   7.441   3.434 -0.8926 -1.6399  0.0936
  536MOL0     H72295   5.080   7.754   3.610 -0.2114 -1.9817 -2.3481
  536MOL0     H72296   5.064   7.682   3.777 -1.0992  0.0446  0.2135
  536MOL0     H72297   5.300   7.705   3.719  2.2218 -0.9570 -1.2243
  536MOL0     H72298   5.266   7.633   3.556  0.2877 -0.0931 -0.2055
  536MOL0     H72299   5.200   7.421   3.714 -0.7365  0.0380 -0.4221
  536MOL0     H72300   5.279   7.513   3.843 -1.5483  3.2608 -0.2503
  536MOL0     H72301   5.424   7.478   3.580  0.6916  0.7744 -0.1742
  536MOL0     H72302   5.480   7.521   3.739  0.9083 -1.6048  0.7232
  536MOL0     H72303   5.417   7.304   3.833 -1.7437  0.2076  0.1027
  536MOL0     H72304   5.375   7.243   3.678  0.3879  0.1291  1.1525
  536MOL0     H72305   5.643   7.345   3.770 -0.0559 -0.3855  0.5115
  536MOL0     H72306   5.603   7.171   3.738 -0.4595  0.7412  2.0145
  536MOL0     H72307   5.649   7.373   3.509  2.1564 -0.4986 -0.5533
  536MOL0     H72308   5.570   7.228   3.498 -1.1745 -1.2305  1.6184
  536MOL0     H72309   5.780   7.122   3.619 -0.0611  1.0383  1.3829
  536MOL0     H72310   5.774   7.136   3.452 -0.0115  1.0909 -0.0935
  536MOL0     H72311   5.972   7.255   3.767  0.1045 -0.3480 -0.0547
  536MOL0     H72312   6.021   7.585   3.796  0.5568 -0.5202 -1.3094
  536MOL0     H72313   6.115   7.436   3.842  2.7219 -1.6815 -1.9835
  536MOL0     H72314   6.291   7.494   3.696 -0.7623 -0.6939 -1.3146
  536MOL0     H72315   6.194   7.627   3.623  0.0075  0.2383 -0.8938
  536MOL0     H72316   6.276   7.673   3.904  0.0006  0.7122 -0.0690
  536MOL0     H72317   6.219   7.788   3.779  2.7721  2.3205 -0.3526
  536MOL0     H72318   6.465   7.631   3.802  0.0378  1.5280  0.8084
  536MOL0     H72319   6.454   7.807   3.781  1.1839  0.1964 -1.4597
  536MOL0     H72320   6.468   7.739   3.366 -1.4645 -0.1850  3.7110
  536MOL0     H72321   6.692   7.805   3.254  1.9550  2.3541  1.0366
  536MOL0     H72322   7.133   8.152   3.488 -0.2428  0.7588 -1.0351
  536MOL0     H72323   7.378   8.195   3.416  0.9788 -0.7668  0.0008
  536MOL0     H72324   7.477   8.102   3.167  1.1425  1.4307 -1.9738
  536MOL0     H72325   7.558   8.206   3.278 -0.7692 -0.6020  0.8457
  536MOL0     H72326   7.780   8.132   3.217  1.4577 -0.8348 -1.3060
  536MOL0     H72327   7.717   7.992   3.132 -0.8979  2.1565 -2.6422
  536MOL0     H72328   7.615   8.148   2.958  2.1106 -2.8482 -1.5472
  536MOL0     H72329   7.681   8.284   3.037  2.2180  1.1876 -2.2457
  536MOL0     H72330   7.823   8.188   2.840 -1.4717  2.6059  1.8335
  536MOL0     H72331   7.858   8.058   2.952 -0.2657 -0.2703 -3.0422
  536MOL0     H72332   7.899   8.306   3.103  4.1597  2.6475  0.9408
  536MOL0     H72333   7.934   8.344   2.932  3.2690  0.5122  0.8097
  536MOL0     H72334   8.084   8.133   3.090  1.3847  1.0315 -0.2728
  536MOL0     H72335   8.081   8.140   2.916 -0.7484  1.1835 -0.6763
  536MOL0     H72336   8.156   8.358   3.126  0.8569  0.4092  0.5148
  536MOL0     H72337   8.143   8.402   2.959 -0.0477  1.9674  2.3229
  536MOL0     H72338   8.339   8.193   3.056 -1.9664 -0.7119  1.5294
  536MOL0     H72339   8.318   8.260   2.895 -2.3882 -0.0844 -0.4978
  536MOL0     H72340   7.399   7.770   3.310 -2.7978 -1.8681 -0.4689
  536MOL0     H72341   7.145   7.751   3.357  0.4468 -0.2976 -0.4168
  536MOL0     H72342   6.875   7.798   3.646  1.8682 -0.9999 -1.1237
  536MOL0     H72343   6.653   7.736   3.743  1.3936 -0.9590  0.2588
  536MOL0     H72344   4.840   7.686   3.789  1.2672 -1.4267 -0.0185
  536MOL0     H72345   4.598   7.666   3.792 -0.1326  0.2277 -0.4953
  536MOL0     H72346   4.255   7.693   3.562 -2.8168  1.4163 -2.5156
  536MOL0     H72347   4.022   7.764   3.580 -2.2796  0.8488  1.0587
  536MOL0     H72348   3.731   7.457   3.719 -2.2423  1.0106  0.1357
  536MOL0     H72349   3.637   7.591   3.649  2.2482  2.3949 -1.7134
  536MOL0     H72350   3.684   7.715   3.864 -0.6363  0.2501  0.4207
  536MOL0     H72351   3.731   7.554   3.934  0.5617  0.3309 -1.0998
  536MOL0     H72352   3.518   7.462   3.929 -0.9452 -0.9593 -0.8671
  536MOL0     H72353   3.452   7.559   3.788 -1.3040  0.4404  0.3956
  536MOL0     H72354   3.515   7.687   4.033  1.5612 -0.3890 -1.3266
  536MOL0     H72355   3.387   7.729   3.914 -0.2711  0.4803  0.7585
  536MOL0     H72356   3.132   7.543   4.147  1.7796  0.5223  2.5542
  536MOL0     H72357   3.925   7.424   3.821 -0.3235 -1.7650 -2.4354
  536MOL0     H72358   4.240   7.379   3.949 -1.0276  3.7947  0.2639
  536MOL0     H72359   4.085   7.298   3.923 -0.1195  2.0144 -0.4031
  536MOL0     H72360   4.214   7.251   3.812 -2.2694  1.2158 -2.4719
  537MOL0     O72361   9.165   6.548   3.753  0.9114 -0.3085 -0.6432
  537MOL0     C72362   9.125   6.486   3.852  0.3300  0.7385  0.8895
  537MOL0     O72363   9.192   6.382   3.901 -0.5998  0.4114 -0.3768
  537MOL0     C72364   9.329   6.380   3.898  1.1285 -0.3172  0.2384
  537MOL0     C72365   9.405   6.491   3.924  0.4444 -0.3350  0.5837
  537MOL0     C72366   9.539   6.488   3.922 -0.2486  0.2432 -0.3086
  537MOL0     C72367   9.602   6.366   3.880 -1.2842  0.3041  0.6947
  537MOL0     O72368   9.739   6.353   3.863  0.2527  0.0649  0.4956
  537MOL0     C72369   9.817   6.473   3.843  0.2275 -0.0069 -0.3100
  537MOL0     C72370   9.958   6.412   3.850 -0.3912  0.5373  0.7493
  537MOL0     C72371  10.025   6.434   3.980 -0.3772  0.2171  0.1709
  537MOL0     C72372  10.163   6.370   3.965 -0.2550 -0.1886 -0.0894
  537MOL0     C72373  10.239   6.396   4.086 -1.2089 -0.5829  1.1724
  537MOL0     C72374  10.198   6.326   4.214 -0.5271  0.4902  0.8925
  537MOL0     C72375  10.304   6.355   4.322  0.2655  1.0816  0.2237
  537MOL0     C72376  10.259   6.285   4.448  0.0926  0.7238  0.3335
  537MOL0     N72377  10.356   6.301   4.560 -0.0109 -0.1870 -0.0556
  537MOL0     C72378  10.482   6.250   4.570 -0.2000  0.5473  0.0583
  537MOL0     C72379  10.529   6.293   4.690 -0.8175  0.9039 -0.0728
  537MOL0     C72380  10.682   6.289   4.716  0.1749  0.3332  0.8661
  537MOL0     C72381  10.733   6.379   4.837 -0.1392 -0.5672  0.5293
  537MOL0     C72382  10.885   6.379   4.846 -0.8374 -0.5803 -0.5395
  537MOL0     C72383  10.938   6.423   4.986  0.7216  0.4631  0.7784
  537MOL0     O72384  11.050   6.503   4.951 -0.3932 -0.1340  0.3610
  537MOL0     C72385  11.167   6.497   5.028 -0.9488 -0.2623 -0.6336
  537MOL0     C72386  11.176   6.469   5.165 -0.1274 -0.3934 -0.2807
  537MOL0     C72387  11.290   6.447   5.229 -0.0669 -0.0986 -0.7855
  537MOL0     C72388  11.403   6.467   5.161  0.1495 -0.0736  0.3027
  537MOL0     C72389  11.535   6.442   5.227  0.0731 -0.3021 -0.7650
  537MOL0     O72390  11.543   6.399   5.359  0.4818 -0.2269  0.7585
  537MOL0     C72391  11.673   6.404   5.413  0.1787  0.5518  0.2307
  537MOL0     C72392  11.706   6.514   5.486  0.5194 -0.3284  0.4438
  537MOL0     C72393  11.827   6.517   5.555  0.3853  0.1328 -0.0268
  537MOL0     C72394  11.907   6.406   5.568 -0.9598 -0.4775  0.2342
  537MOL0     O72395  12.032   6.406   5.632  0.3430 -0.2525  0.3338
  537MOL0     C72396  12.085   6.530   5.687 -0.2028 -0.0461  0.5609
  537MOL0     C72397  12.143   6.498   5.823  0.5585 -0.1825 -0.2653
  537MOL0     C72398  12.162   6.621   5.902  0.3190 -0.5656 -0.7549
  537MOL0     C72399  12.259   6.607   6.019  0.0301  0.0289 -0.0410
  537MOL0     C72400  12.339   6.734   6.038 -0.1645 -0.1795  0.8187
  537MOL0     C72401  12.441   6.726   6.154  0.0197 -0.6398 -0.3855
  537MOL0     C72402  12.531   6.847   6.152  0.4954  0.4663  0.2163
  537MOL0     C72403  12.641   6.828   6.253 -0.1421  0.4710 -0.3982
  537MOL0    Cl72404  12.758   6.956   6.256 -0.3303 -0.1587 -0.0071
  537MOL0     C72405  11.870   6.296   5.499  0.5811 -0.7523 -0.6012
  537MOL0     C72406  11.758   6.297   5.416 -0.2908  0.1892 -0.3373
  537MOL0     O72407  11.633   6.466   5.154  0.3380  1.1877 -0.2579
  537MOL0     C72408  11.402   6.496   5.021  0.4382  0.0685  0.5557
  537MOL0     C72409  11.283   6.516   4.955  0.0933 -0.5012  0.4491
  537MOL0     N72410  10.427   6.353   4.759 -0.5244 -0.3897 -0.9622
  537MOL0     N72411  10.327   6.356   4.683 -0.5133  0.7094 -0.1031
  537MOL0     C72412   9.522   6.262   3.846  0.4698 -0.1178 -0.1169
  537MOL0     C72413   9.386   6.260   3.863  0.4756  1.0343 -0.3898
  537MOL0     C72414   8.976   6.489   3.884  0.0275  0.6658  0.1754
  537MOL0     C72415   8.887   6.463   3.778  0.5069  0.5639  0.3081
  537MOL0     C72416   8.752   6.458   3.789 -0.3385  0.1991 -1.1007
  537MOL0     C72417   8.696   6.477   3.919  0.0056 -0.0619 -0.8282
  537MOL0     O72418   8.561   6.470   3.939  0.6604 -0.3335 -0.0603
  537MOL0     C72419   8.458   6.452   3.846 -0.2286 -0.5890 -0.1167
  537MOL0     C72420   8.321   6.489   3.902  1.2295 -0.1068 -0.0627
  537MOL0     C72421   8.211   6.461   3.796  1.1436  0.5231  0.0996
  537MOL0     C72422   8.066   6.502   3.842 -0.2122  0.0812 -0.1106
  537MOL0     C72423   8.026   6.438   3.965  0.0874 -0.3739  0.6583
  537MOL0     C72424   8.013   6.370   4.064  0.0009  0.1200  0.1169
  537MOL0     C72425   8.782   6.512   4.025  0.2212 -0.5144 -0.1066
  537MOL0     C72426   8.926   6.512   4.009  0.0155 -0.0718  0.3268
  537MOL0     C72427   9.014   6.541   4.129 -0.2457 -0.1010  0.1240
  537MOL0     H72428   9.340   6.576   3.939 -0.0757 -0.6137 -0.0145
  537MOL0     H72429   9.596   6.579   3.938 -0.9095  0.5500  0.3647
  537MOL0     H72430   9.810   6.512   3.741  1.2506  0.0770 -0.3633
  537MOL0     H72431   9.810   6.545   3.924 -1.1781 -1.9593  1.4233
  537MOL0     H72432  10.013   6.461   3.768 -0.5231 -0.3209  0.1367
  537MOL0     H72433   9.954   6.305   3.829 -0.1619  0.5339  0.7128
  537MOL0     H72434   9.972   6.390   4.065 -0.0608  2.0783  1.3814
  537MOL0     H72435  10.027   6.540   4.003  0.6284 -0.1514  1.9390
  537MOL0     H72436  10.154   6.263   3.947 -0.6400 -0.0798 -0.6021
  537MOL0     H72437  10.217   6.413   3.880 -1.4893 -1.3339 -1.5305
  537MOL0     H72438  10.341   6.360   4.066 -0.6160  1.1915  0.7694
  537MOL0     H72439  10.242   6.505   4.088  1.4855 -0.5841  1.6915
  537MOL0     H72440  10.102   6.359   4.253 -0.6062 -1.1744  2.2194
  537MOL0     H72441  10.193   6.219   4.195  0.5677  0.2179  2.0376
  537MOL0     H72442  10.312   6.462   4.344 -3.8847  1.2551  1.8397
  537MOL0     H72443  10.401   6.315   4.291 -1.9228 -2.1025 -3.4262
  537MOL0     H72444  10.165   6.324   4.489  0.2645  1.5212 -0.0207
  537MOL0     H72445  10.255   6.177   4.433  0.6210  0.4581  1.8528
  537MOL0     H72446  10.549   6.201   4.500 -1.8203 -0.4078 -0.8863
  537MOL0     H72447  10.715   6.185   4.719  2.2797  0.7908 -1.9229
  537MOL0     H72448  10.733   6.334   4.630 -0.3641 -0.6445  0.0149
  537MOL0     H72449  10.698   6.480   4.813 -1.9916 -1.5679 -1.3895
  537MOL0     H72450  10.688   6.357   4.934 -2.7432 -0.7114 -0.6119
  537MOL0     H72451  10.925   6.447   4.770  2.2869 -2.0493 -0.4056
  537MOL0     H72452  10.925   6.279   4.827  3.4382  1.0884 -1.4686
  537MOL0     H72453  10.967   6.334   5.043 -0.8273 -1.5357 -1.3531
  537MOL0     H72454  10.864   6.487   5.035 -1.3077 -0.8348 -0.4611
  537MOL0     H72455  11.089   6.445   5.225  1.9520 -3.0360  1.9684
  537MOL0     H72456  11.290   6.427   5.335 -0.9155  2.2286 -0.2924
  537MOL0     H72457  11.632   6.594   5.484 -0.3635 -1.1017  1.1592
  537MOL0     H72458  11.849   6.614   5.600  3.2507 -0.0251 -0.8964
  537MOL0     H72459  12.163   6.567   5.620 -0.2172  0.1080  0.6301
  537MOL0     H72460  12.019   6.616   5.702  2.0714  2.1560 -1.2093
  537MOL0     H72461  12.069   6.431   5.869  0.4902 -0.3732 -0.6462
  537MOL0     H72462  12.232   6.435   5.824 -0.7289 -2.2048  2.5254
  537MOL0     H72463  12.207   6.701   5.842  0.1299 -0.4830 -0.7891
  537MOL0     H72464  12.067   6.652   5.948  1.0887  0.6853  0.0633
  537MOL0     H72465  12.326   6.521   6.016  2.7255  1.8460  2.3067
  537MOL0     H72466  12.201   6.588   6.110 -1.2337  0.0594 -0.8150
  537MOL0     H72467  12.267   6.812   6.064  1.2500  1.5049 -0.0328
  537MOL0     H72468  12.396   6.758   5.947  0.0062  0.8922  1.1871
  537MOL0     H72469  12.395   6.704   6.250  0.2700 -0.2891 -0.1855
  537MOL0     H72470  12.503   6.638   6.130  2.0230  0.6036 -0.0409
  537MOL0     H72471  12.475   6.936   6.182 -2.1219 -0.7641 -0.7152
  537MOL0     H72472  12.563   6.863   6.049 -0.2528 -0.4153 -0.1663
  537MOL0     H72473  12.601   6.827   6.355 -1.9971 -1.6268 -1.0767
  537MOL0     H72474  12.701   6.739   6.237  0.7203  0.8987  0.3527
  537MOL0     H72475  11.933   6.207   5.491  0.8144 -0.5234 -1.4592
  537MOL0     H72476  11.731   6.207   5.361  0.5276 -0.2973  0.0408
  537MOL0     H72477  11.482   6.510   4.950 -0.7402  0.4566 -0.7376
  537MOL0     H72478  11.282   6.542   4.850  1.2379  1.2890  0.8400
  537MOL0     H72479   9.571   6.167   3.827  0.9512 -0.3797  2.1389
  537MOL0     H72480   9.339   6.163   3.849  1.8993  0.0062  1.4672
  537MOL0     H72481   8.915   6.426   3.680  3.2374 -0.5503  1.4311
  537MOL0     H72482   8.678   6.424   3.718 -1.8242 -0.9523  0.8876
  537MOL0     H72483   8.461   6.348   3.810 -1.1061 -1.2579  1.6085
  537MOL0     H72484   8.482   6.517   3.761  2.1311  0.4987  1.2950
  537MOL0     H72485   8.318   6.592   3.941 -1.0970 -0.2702  0.2843
  537MOL0     H72486   8.306   6.422   3.987  0.8307  0.6267  0.4629
  537MOL0     H72487   8.190   6.361   3.757  1.8087  0.4687 -0.1331
  537MOL0     H72488   8.224   6.532   3.714 -0.5071  1.6319  0.7432
  537MOL0     H72489   8.061   6.610   3.861  0.1544 -0.1333  1.3412
  537MOL0     H72490   7.995   6.478   3.762  1.7940 -1.1847 -1.6011
  537MOL0     H72491   8.000   6.307   4.150  0.3434 -1.4414 -0.9333
  537MOL0     H72492   8.744   6.528   4.125 -0.5440 -5.0023  0.5236
  537MOL0     H72493   8.948   6.533   4.216 -0.8585 -1.5028 -0.4330
  537MOL0     H72494   9.094   6.467   4.136 -0.5719 -0.3517  1.3435
  537MOL0     H72495   9.056   6.642   4.117 -1.4909  0.3087 -1.0646
  538MOL0     O72496   6.937   3.647   9.399 -0.1738  0.9917 -0.3138
  538MOL0     C72497   6.995   3.702   9.489 -0.4635 -0.1428  0.3686
  538MOL0     O72498   7.125   3.673   9.526 -0.4598  0.3211  0.6803
  538MOL0     C72499   7.207   3.588   9.459 -0.2238 -0.9012  0.4833
  538MOL0     C72500   7.210   3.587   9.317  0.3222 -0.2307 -0.2445
  538MOL0     C72501   7.297   3.510   9.238  0.2012 -0.0581 -0.2655
  538MOL0     C72502   7.383   3.424   9.303 -0.1247  0.0690  0.3950
  538MOL0     O72503   7.464   3.337   9.234  0.3348 -0.7481 -0.3798
  538MOL0     C72504   7.575   3.397   9.168 -0.4580  0.2867  0.2448
  538MOL0     C72505   7.695   3.297   9.187 -0.2879 -0.1861  0.5752
  538MOL0     C72506   7.814   3.361   9.110  0.9396 -0.1024 -0.8934
  538MOL0     C72507   7.936   3.273   9.091 -0.1993 -1.0675  0.2442
  538MOL0     C72508   8.060   3.329   9.015  0.2191 -0.0217  0.3177
  538MOL0     C72509   8.173   3.225   8.999  0.4047  0.3205  0.3522
  538MOL0     C72510   8.266   3.235   9.123  0.3101 -0.7995 -0.1171
  538MOL0     C72511   8.385   3.138   9.090  0.0413 -0.2069  0.2974
  538MOL0     N72512   8.480   3.122   9.200 -0.7473 -0.5228 -0.1823
  538MOL0     C72513   8.557   3.228   9.248 -0.2518  0.1636 -0.2302
  538MOL0     C72514   8.622   3.171   9.360  0.3497  0.0299  0.6260
  538MOL0     C72515   8.716   3.257   9.438 -0.0125  0.6195 -0.6482
  538MOL0     C72516   8.859   3.245   9.393 -0.1766 -0.0675  0.4955
  538MOL0     C72517   8.960   3.319   9.474  0.5543 -0.5775 -0.2469
  538MOL0     C72518   9.106   3.285   9.433  0.3713  1.0580  0.0297
  538MOL0     O72519   9.199   3.338   9.526  0.0976 -0.1371 -0.0256
  538MOL0     C72520   9.327   3.364   9.471  0.0406  1.1891  0.1234
  538MOL0     C72521   9.376   3.331   9.345 -0.3969 -0.1120  0.3169
  538MOL0     C72522   9.507   3.360   9.304  0.0956  0.2274  0.2463
  538MOL0     C72523   9.595   3.425   9.386 -1.3856  0.5029  0.2263
  538MOL0     C72524   9.736   3.446   9.348  0.5246 -0.0505  0.0499
  538MOL0     O72525   9.786   3.383   9.243  0.6416  0.6740  0.9384
  538MOL0     C72526   9.924   3.394   9.211  0.5324  0.1508 -0.5817
  538MOL0     C72527   9.989   3.281   9.251 -0.9022 -0.5439 -0.0061
  538MOL0     C72528  10.121   3.275   9.209 -0.8347 -0.9914 -0.5182
  538MOL0     C72529  10.184   3.382   9.137  0.8980 -0.4545 -0.5270
  538MOL0     O72530  10.323   3.385   9.109 -0.3701  0.1420  0.8190
  538MOL0     C72531  10.396   3.271   9.084  0.4725  0.4902 -0.3214
  538MOL0     C72532  10.551   3.302   9.055  0.1563 -0.2880  0.0637
  538MOL0     C72533  10.634   3.321   9.178 -0.0568  0.0291 -0.4181
  538MOL0     C72534  10.695   3.195   9.231  0.7942  0.0954 -0.2583
  538MOL0     C72535  10.758   3.212   9.375 -0.0121 -1.0511 -0.1084
  538MOL0     C72536  10.777   3.076   9.442 -0.5224  0.1698 -0.3522
  538MOL0     C72537  10.851   3.096   9.571  0.0429 -0.6183 -1.0122
  538MOL0     C72538  10.922   2.974   9.624 -1.2097  0.9754 -0.3751
  538MOL0    Cl72539  11.105   3.001   9.627 -0.0194 -0.2811  0.1392
  538MOL0     C72540  10.100   3.480   9.081  0.3910  0.4324  1.1432
  538MOL0     C72541   9.970   3.489   9.115  0.2839 -0.0804 -0.3464
  538MOL0     O72542   9.802   3.521   9.420 -0.2948  0.1233  0.8266
  538MOL0     C72543   9.549   3.460   9.514  0.1253  0.5699  0.8521
  538MOL0     C72544   9.418   3.421   9.557  0.4473 -0.2437  0.3709
  538MOL0     N72545   8.578   3.040   9.369 -0.0881 -1.1362 -0.5418
  538MOL0     N72546   8.496   3.010   9.274 -0.1662 -1.1071 -0.0538
  538MOL0     C72547   7.382   3.427   9.446  0.9114  0.0581 -0.7316
  538MOL0     C72548   7.301   3.511   9.524 -0.2455  1.0952  0.0073
  538MOL0     C72549   6.917   3.801   9.562 -0.2828  0.3149  0.4774
  538MOL0     C72550   6.990   3.865   9.661  0.2489  0.8134  0.2473
  538MOL0     C72551   6.938   3.979   9.724 -0.1361 -0.1152  0.0581
  538MOL0     C72552   6.804   4.016   9.696  0.4107 -0.5490  0.7225
  538MOL0     O72553   6.757   4.131   9.757 -0.1155 -0.2787 -0.3877
  538MOL0     C72554   6.621   4.162   9.790  0.0396 -0.2829 -0.3400
  538MOL0     C72555   6.627   4.218   9.934  0.0069 -0.9333 -0.0288
  538MOL0     C72556   6.677   4.361   9.953  0.7377  0.5915  0.0714
  538MOL0     C72557   6.662   4.424  10.098 -0.2290 -0.3347 -0.2820
  538MOL0     C72558   6.700   4.567  10.089  0.5197  0.6402 -0.0299
  538MOL0     C72559   6.742   4.683  10.102 -0.4792 -0.2909 -0.3273
  538MOL0     C72560   6.726   3.942   9.606 -0.2154 -0.1188 -0.2168
  538MOL0     C72561   6.781   3.841   9.531 -0.3293 -0.1351 -0.2480
  538MOL0     C72562   6.690   3.773   9.428 -0.6419 -0.6372  0.9787
  538MOL0     H72563   7.142   3.643   9.253  0.5076 -0.6560 -0.8248
  538MOL0     H72564   7.288   3.498   9.130 -2.1518  1.7748 -0.3771
  538MOL0     H72565   7.566   3.416   9.061  3.5405 -0.1965 -0.3305
  538MOL0     H72566   7.604   3.489   9.220 -0.9528  0.2321  0.6206
  538MOL0     H72567   7.664   3.200   9.148 -1.1823 -0.0092  0.8194
  538MOL0     H72568   7.738   3.287   9.288 -0.1405 -1.0757  0.4303
  538MOL0     H72569   7.830   3.455   9.164  2.7495 -0.8231 -0.0711
  538MOL0     H72570   7.788   3.398   9.011 -2.0256  1.9207  0.4998
  538MOL0     H72571   7.970   3.244   9.191 -0.8826 -0.6592  0.6007
  538MOL0     H72572   7.916   3.182   9.034  0.4544 -0.4301 -1.0467
  538MOL0     H72573   8.054   3.380   8.918  3.9202 -0.6051 -0.3748
  538MOL0     H72574   8.095   3.413   9.077 -1.6114  1.6518 -0.7836
  538MOL0     H72575   8.130   3.124   8.994 -0.4608  0.5902  1.7183
  538MOL0     H72576   8.242   3.242   8.915 -2.1532 -2.3891 -2.5580
  538MOL0     H72577   8.215   3.202   9.214  1.2075 -2.2876 -0.1029
  538MOL0     H72578   8.300   3.338   9.136  0.0436 -0.6617 -0.4979
  538MOL0     H72579   8.353   3.038   9.062 -0.8812  0.2838 -0.4606
  538MOL0     H72580   8.435   3.167   8.998 -0.5088  1.5815  0.5221
  538MOL0     H72581   8.556   3.332   9.216 -0.5054  1.7071  4.1146
  538MOL0     H72582   8.683   3.359   9.416  1.1501  1.1326 -0.0963
  538MOL0     H72583   8.700   3.237   9.544  1.8886  1.4763 -0.1573
  538MOL0     H72584   8.881   3.140   9.415  1.8440  0.4252  1.0364
  538MOL0     H72585   8.880   3.256   9.286 -0.0487 -1.9798  0.2889
  538MOL0     H72586   8.957   3.286   9.578  0.1699  0.7372  0.1774
  538MOL0     H72587   8.963   3.428   9.466  1.5095 -0.2868  2.7826
  538MOL0     H72588   9.114   3.315   9.328  1.7998 -1.6690 -0.7307
  538MOL0     H72589   9.095   3.176   9.442  0.2515  1.1088  0.5440
  538MOL0     H72590   9.311   3.281   9.274 -2.3155 -0.9404  2.5192
  538MOL0     H72591   9.541   3.334   9.205  0.6198 -1.0062  0.7297
  538MOL0     H72592   9.939   3.199   9.301  1.3293 -1.2149  1.2416
  538MOL0     H72593  10.179   3.196   9.255  0.2846  1.0965  1.8696
  538MOL0     H72594  10.391   3.199   9.166 -1.0602  1.5398  0.5582
  538MOL0     H72595  10.360   3.231   8.988  2.1244  2.4913 -1.8487
  538MOL0     H72596  10.596   3.229   8.988 -1.8709 -2.0256  0.4851
  538MOL0     H72597  10.566   3.395   9.000 -0.8489 -0.0893  0.0915
  538MOL0     H72598  10.723   3.370   9.138 -0.9934  1.1971 -1.1266
  538MOL0     H72599  10.582   3.381   9.254 -0.7097  0.0858 -0.8986
  538MOL0     H72600  10.771   3.171   9.156  0.8400  0.9188 -0.4914
  538MOL0     H72601  10.612   3.125   9.244  0.3116  0.3213 -1.8446
  538MOL0     H72602  10.705   3.277   9.445  2.5515  0.1667  0.8596
  538MOL0     H72603  10.851   3.265   9.351 -0.5968 -0.1040 -0.3338
  538MOL0     H72604  10.676   3.040   9.462 -0.2922  0.6727  2.0422
  538MOL0     H72605  10.828   3.002   9.380 -0.5818 -0.3514  0.2075
  538MOL0     H72606  10.774   3.120   9.645 -0.2630  0.8118 -1.7673
  538MOL0     H72607  10.916   3.183   9.559 -1.7345  1.5413  3.1023
  538MOL0     H72608  10.896   2.922   9.717 -0.7706  0.7842 -0.3535
  538MOL0     H72609  10.896   2.898   9.550  0.0931  1.5184 -1.4300
  538MOL0     H72610  10.140   3.538   8.998 -0.8497 -1.6191 -0.9840
  538MOL0     H72611   9.893   3.553   9.073 -0.0154 -0.3695 -0.2461
  538MOL0     H72612   9.614   3.511   9.585  0.6073  0.6537  0.3588
  538MOL0     H72613   9.393   3.467   9.652  0.0003  2.1423 -0.8020
  538MOL0     H72614   7.446   3.354   9.495 -0.3317 -0.4848  0.1073
  538MOL0     H72615   7.326   3.507   9.629  0.0032  4.1063  0.1555
  538MOL0     H72616   7.088   3.835   9.697 -0.1850  0.8611  1.5276
  538MOL0     H72617   7.005   4.026   9.795  0.6042 -0.9861 -0.0541
  538MOL0     H72618   6.564   4.070   9.802  3.2003 -2.1551  2.3964
  538MOL0     H72619   6.589   4.231   9.712  2.2424  1.0910 -0.1275
  538MOL0     H72620   6.682   4.149   9.999  0.7128 -0.1535  0.2209
  538MOL0     H72621   6.526   4.224   9.976  0.8945  0.2271  2.1081
  538MOL0     H72622   6.615   4.421   9.887  4.2074  1.1671 -2.9435
  538MOL0     H72623   6.773   4.379   9.905  0.9130  0.1189  0.2354
  538MOL0     H72624   6.558   4.427  10.132 -0.2403 -1.8587 -0.1278
  538MOL0     H72625   6.725   4.372  10.171  0.9600  0.5789 -0.6183
  538MOL0     H72626   6.768   4.786  10.115  3.4739 -1.2020 -0.0227
  538MOL0     H72627   6.621   3.965   9.590  0.2575  2.5672  0.1518
  538MOL0     H72628   6.737   3.783   9.330  0.3169 -4.1046  0.9623
  538MOL0     H72629   6.683   3.667   9.453  0.9338 -1.6982 -2.4779
  538MOL0     H72630   6.589   3.817   9.424  0.1884  1.2880 -0.3639
  539MOL0     O72631   4.322   1.549   2.376  1.2811 -0.2161 -0.2111
  539MOL0     C72632   4.229   1.617   2.343 -0.1838  0.8600  0.3088
  539MOL0     O72633   4.213   1.668   2.224  0.1217 -0.3909  0.2624
  539MOL0     C72634   4.321   1.694   2.139  0.4606 -0.9565 -0.0732
  539MOL0     C72635   4.458   1.683   2.166  0.4711 -0.7653  0.4401
  539MOL0     C72636   4.551   1.703   2.060 -0.0771 -0.6814 -0.1055
  539MOL0     C72637   4.510   1.748   1.932  0.8153  0.9190 -1.4430
  539MOL0     O72638   4.607   1.777   1.841  1.6314 -0.4418  0.2752
  539MOL0     C72639   4.582   1.717   1.714 -0.4350  0.5702 -0.3402
  539MOL0     C72640   4.714   1.722   1.640 -0.0130 -0.1272 -0.4665
  539MOL0     C72641   4.742   1.865   1.588 -0.0120 -0.3433  1.2655
  539MOL0     C72642   4.882   1.890   1.548  0.2755 -0.5670  0.5397
  539MOL0     C72643   4.888   2.046   1.537  0.4051 -0.3471 -0.1854
  539MOL0     C72644   5.016   2.097   1.482  0.2902  0.2750  0.4573
  539MOL0     C72645   5.141   2.052   1.555  0.8152  0.8600 -0.8174
  539MOL0     C72646   5.256   2.149   1.538  0.4237 -0.7675  0.3442
  539MOL0     N72647   5.384   2.094   1.579 -0.6304  0.8696 -0.1819
  539MOL0     C72648   5.497   2.078   1.504 -0.7223  0.3942 -0.0161
  539MOL0     C72649   5.595   2.061   1.601  0.6369  0.0949  0.0940
  539MOL0     C72650   5.747   2.038   1.584  0.0687  0.1540 -0.3801
  539MOL0     C72651   5.784   1.896   1.542 -0.2471 -0.3953  0.0260
  539MOL0     C72652   5.903   1.838   1.610 -0.1715 -0.1745  0.4622
  539MOL0     C72653   6.030   1.917   1.583  0.5685  0.7577 -0.0241
  539MOL0     O72654   6.134   1.830   1.626 -0.7873 -0.4510  0.1483
  539MOL0     C72655   6.256   1.885   1.654  0.1044  0.3329 -0.9755
  539MOL0     C72656   6.369   1.805   1.632 -0.6591  0.2183 -0.3760
  539MOL0     C72657   6.501   1.843   1.671  0.4856  0.2498 -0.6261
  539MOL0     C72658   6.525   1.963   1.731  0.1443  0.3873 -0.0865
  539MOL0     C72659   6.662   1.992   1.785  1.4649 -0.2881  0.3404
  539MOL0     O72660   6.762   1.915   1.742  0.1705 -0.5464 -0.6203
  539MOL0     C72661   6.888   1.933   1.799 -0.6340 -0.3709  0.3844
  539MOL0     C72662   6.909   1.929   1.939 -0.0034 -0.1101  0.1827
  539MOL0     C72663   7.031   1.961   1.991 -0.6853  0.2003  0.4548
  539MOL0     C72664   7.148   1.982   1.914 -0.3310  0.0069 -0.1719
  539MOL0     O72665   7.264   2.014   1.976 -0.6813 -0.2276 -0.3662
  539MOL0     C72666   7.386   1.966   1.903  0.5051  0.2931 -0.5484
  539MOL0     C72667   7.504   1.965   2.003  1.0180 -0.1775  0.0941
  539MOL0     C72668   7.639   1.940   1.929  0.6655  0.0703  0.5521
  539MOL0     C72669   7.777   1.977   1.990 -0.2499 -0.1990 -0.8482
  539MOL0     C72670   7.892   1.948   1.901 -0.0249  0.1123 -0.1189
  539MOL0     C72671   8.022   1.935   1.982  0.0415 -1.1053  0.0754
  539MOL0     C72672   8.146   1.909   1.897  0.0567 -0.5873  0.3536
  539MOL0     C72673   8.269   1.911   1.979  0.2419  0.9330 -0.5276
  539MOL0    Cl72674   8.278   1.757   2.068 -0.0276 -0.0013  0.2275
  539MOL0     C72675   7.133   1.986   1.778  0.8243 -0.0535 -0.0267
  539MOL0     C72676   7.007   1.947   1.720  0.9226  0.1860  0.2454
  539MOL0     O72677   6.669   2.098   1.841 -0.7423  0.7832 -0.3696
  539MOL0     C72678   6.416   2.051   1.751 -0.2895 -0.2694 -0.9219
  539MOL0     C72679   6.280   2.016   1.710 -0.1187 -0.4016  0.1252
  539MOL0     N72680   5.532   2.048   1.722  0.5011 -0.2764  0.7138
  539MOL0     N72681   5.409   2.068   1.706  0.3914 -0.0157  0.7207
  539MOL0     C72682   4.370   1.757   1.911 -0.8543 -0.0677  0.0404
  539MOL0     C72683   4.281   1.741   2.014  0.1635  0.0335 -0.4130
  539MOL0     C72684   4.116   1.647   2.448 -0.5765 -0.3759  0.0993
  539MOL0     C72685   3.984   1.641   2.409 -0.0100  0.3812 -0.7185
  539MOL0     C72686   3.886   1.668   2.498  0.4939 -0.0111 -0.5987
  539MOL0     C72687   3.907   1.686   2.633  0.5299 -0.4812 -0.2382
  539MOL0     O72688   3.792   1.685   2.716 -0.4997 -0.4233 -0.6858
  539MOL0     C72689   3.813   1.775   2.829 -0.6162  0.2606  0.1270
  539MOL0     C72690   3.687   1.852   2.859  0.3187  0.5171  0.1631
  539MOL0     C72691   3.577   1.754   2.903  0.1522 -0.4614 -0.2942
  539MOL0     C72692   3.446   1.825   2.951 -0.0702  0.3673 -0.0135
  539MOL0     C72693   3.455   1.890   3.082  0.1605  0.2540 -0.2213
  539MOL0     C72694   3.457   1.928   3.194 -0.8255 -0.5848 -0.8746
  539MOL0     C72695   4.045   1.697   2.670 -0.3629 -0.1466  0.4257
  539MOL0     C72696   4.148   1.680   2.578 -0.0174  0.2173 -1.1715
  539MOL0     C72697   4.286   1.707   2.640 -1.1194  0.3412  0.2958
  539MOL0     H72698   4.501   1.670   2.265  0.5169  2.8840  1.0300
  539MOL0     H72699   4.653   1.683   2.090 -0.2501 -1.4531 -0.0171
  539MOL0     H72700   4.552   1.611   1.717  0.6128  0.2671 -0.1563
  539MOL0     H72701   4.506   1.771   1.657 -1.2107 -2.9899 -3.1122
  539MOL0     H72702   4.714   1.653   1.555 -0.8324  1.6272 -1.9698
  539MOL0     H72703   4.802   1.684   1.692  0.0229 -0.1455 -0.5408
  539MOL0     H72704   4.719   1.934   1.669  1.6996 -0.5825  2.0103
  539MOL0     H72705   4.681   1.873   1.498  0.9875 -0.4631  0.5559
  539MOL0     H72706   4.955   1.843   1.614  2.1481  0.9954 -0.3316
  539MOL0     H72707   4.910   1.840   1.455 -0.2126  1.3113 -0.6862
  539MOL0     H72708   4.812   2.087   1.470  0.6621 -2.0193 -1.5569
  539MOL0     H72709   4.870   2.091   1.635  0.4341 -1.1943  0.2168
  539MOL0     H72710   5.017   2.069   1.377 -0.5852  1.7074  0.0309
  539MOL0     H72711   5.001   2.206   1.484 -0.7451  0.1421  1.2248
  539MOL0     H72712   5.184   1.958   1.517  0.1968  0.4409 -0.4910
  539MOL0     H72713   5.121   2.037   1.662 -1.7302  4.0053 -0.7290
  539MOL0     H72714   5.265   2.178   1.432  1.0799 -0.8458  0.3702
  539MOL0     H72715   5.243   2.239   1.598  0.7422 -1.1739  1.0389
  539MOL0     H72716   5.507   2.082   1.396  0.5003 -4.6437 -0.3666
  539MOL0     H72717   5.788   2.113   1.515  3.4186  0.2839  1.5195
  539MOL0     H72718   5.805   2.055   1.675 -2.6661  0.6072  1.3780
  539MOL0     H72719   5.696   1.834   1.560 -0.9636  1.0683  2.0555
  539MOL0     H72720   5.792   1.896   1.433 -0.6006  0.0384 -0.0041
  539MOL0     H72721   5.919   1.738   1.568  0.7362  0.9205 -2.0541
  539MOL0     H72722   5.893   1.824   1.718 -0.6095 -1.1378  0.3037
  539MOL0     H72723   6.040   2.013   1.633  3.9000 -0.1259  1.2529
  539MOL0     H72724   6.041   1.942   1.477 -0.8539  0.2616 -0.3073
  539MOL0     H72725   6.346   1.710   1.586 -2.6837  0.6656 -0.3819
  539MOL0     H72726   6.572   1.762   1.658  1.5171  0.6524  1.9931
  539MOL0     H72727   6.829   1.906   2.009  0.3376 -2.9135 -0.2012
  539MOL0     H72728   7.048   1.968   2.098  0.6261 -1.6792  0.4113
  539MOL0     H72729   7.374   1.869   1.853  0.9998  0.5074 -1.0992
  539MOL0     H72730   7.408   2.036   1.822 -2.3244  0.9518 -0.8384
  539MOL0     H72731   7.503   2.060   2.058 -0.2543 -0.0028 -0.2080
  539MOL0     H72732   7.485   1.881   2.071 -0.3674 -0.4010 -0.5446
  539MOL0     H72733   7.635   1.833   1.907  0.7200  0.2092 -0.1617
  539MOL0     H72734   7.629   1.990   1.832  1.1286 -0.8185  0.0346
  539MOL0     H72735   7.784   1.912   2.077 -2.0672 -0.7410 -1.0667
  539MOL0     H72736   7.774   2.076   2.036  0.8425 -0.8891  0.7762
  539MOL0     H72737   7.904   2.015   1.815  2.1329 -2.0176 -1.6187
  539MOL0     H72738   7.865   1.855   1.852  1.3674 -1.5279  2.0390
  539MOL0     H72739   8.027   2.029   2.040  0.6667 -0.6455 -0.7049
  539MOL0     H72740   8.020   1.856   2.057 -0.8007  1.1803  2.6510
  539MOL0     H72741   8.166   1.983   1.820  0.8339  0.9153  1.9448
  539MOL0     H72742   8.142   1.807   1.856  2.7964 -1.7683  2.6859
  539MOL0     H72743   8.357   1.907   1.914 -1.5247 -0.1660 -3.0025
  539MOL0     H72744   8.274   2.002   2.039  0.0039  1.4392 -1.2579
  539MOL0     H72745   7.210   2.012   1.705  0.5718  3.9902  0.8826
  539MOL0     H72746   6.995   1.950   1.612  1.5097  2.0899  0.1904
  539MOL0     H72747   6.439   2.143   1.803  0.1198 -0.7672 -0.2068
  539MOL0     H72748   6.195   2.075   1.742 -0.6069 -0.7430 -0.5208
  539MOL0     H72749   4.330   1.791   1.816 -0.8474  0.1235  0.1061
  539MOL0     H72750   4.173   1.741   2.000 -0.0626  2.5974  0.7794
  539MOL0     H72751   3.952   1.612   2.309  3.0332 -0.4978 -1.5621
  539MOL0     H72752   3.784   1.651   2.464  0.5423 -2.6045  0.3108
  539MOL0     H72753   3.885   1.853   2.804 -0.5787 -0.6518 -3.1133
  539MOL0     H72754   3.847   1.726   2.921 -0.0965  4.1035  2.1755
  539MOL0     H72755   3.666   1.906   2.766 -0.5203 -2.9739 -1.8839
  539MOL0     H72756   3.711   1.917   2.943  3.0718 -0.0235 -0.1263
  539MOL0     H72757   3.608   1.716   3.001  2.1080  3.8053  0.9889
  539MOL0     H72758   3.562   1.685   2.819 -2.5726  0.4680 -0.6627
  539MOL0     H72759   3.399   1.895   2.881 -0.2729  1.3700  1.0885
  539MOL0     H72760   3.380   1.738   2.958  3.1464 -2.2198  0.8607
  539MOL0     H72761   3.447   1.964   3.294 -0.0261 -1.1672 -0.5758
  539MOL0     H72762   4.065   1.695   2.776  0.1394 -1.5951  0.3253
  539MOL0     H72763   4.355   1.752   2.568  0.0154  0.8882  1.7011
  539MOL0     H72764   4.279   1.782   2.719  2.3526  0.0943  0.9929
  539MOL0     H72765   4.334   1.618   2.681 -0.4889  0.0076 -1.1038
  540MOL0     O72766   4.345   0.171   8.007 -0.4188  0.1690 -0.4071
  540MOL0     C72767   4.376   0.282   7.954 -0.4197 -0.0620 -0.3231
  540MOL0     O72768   4.287   0.379   7.930  0.5893  0.0597 -0.5917
  540MOL0     C72769   4.162   0.374   7.984 -0.2356  0.4945  0.2859
  540MOL0     C72770   4.114   0.294   8.088 -0.0970  0.2643 -0.2881
  540MOL0     C72771   3.980   0.304   8.138 -0.3856 -0.2980 -0.0832
  540MOL0     C72772   3.893   0.391   8.073  0.2959  0.4096  0.5179
  540MOL0     O72773   3.768   0.382   8.131 -0.8485 -1.0844  0.7178
  540MOL0     C72774   3.707   0.512   8.114  0.9398 -0.7318 -0.0769
  540MOL0     C72775   3.592   0.523   8.216  0.0825  0.6867 -0.3894
  540MOL0     C72776   3.475   0.435   8.182  0.7144  0.3327 -0.0634
  540MOL0     C72777   3.365   0.431   8.294  0.3204  0.2479  0.1529
  540MOL0     C72778   3.288   0.572   8.310 -0.9011  0.8822  0.1269
  540MOL0     C72779   3.177   0.558   8.412  0.5613 -0.1848  0.7134
  540MOL0     C72780   3.114   0.700   8.446 -0.2313  0.8367  0.0515
  540MOL0     C72781   2.978   0.693   8.508 -0.1295 -0.5727 -0.3445
  540MOL0     N72782   2.929   0.822   8.544 -0.0345  0.2142 -0.2123
  540MOL0     C72783   2.938   0.884   8.663 -1.1745  1.1678  0.1677
  540MOL0     C72784   2.849   0.992   8.660 -0.0863 -0.2211  0.5244
  540MOL0     C72785   2.831   1.090   8.769 -0.1493  0.2542 -0.0118
  540MOL0     C72786   2.737   1.036   8.886  0.7461  0.4445 -0.0619
  540MOL0     C72787   2.764   1.093   9.028 -0.5300  0.5075  1.0064
  540MOL0     C72788   2.907   1.109   9.070 -0.2183 -0.6917 -0.7410
  540MOL0     O72789   2.918   1.150   9.206 -0.1355  0.2175 -0.2126
  540MOL0     C72790   3.043   1.147   9.251  0.4162 -0.6449  0.4221
  540MOL0     C72791   3.163   1.107   9.180  0.4113  0.2986 -0.6284
  540MOL0     C72792   3.285   1.100   9.249  0.3113 -0.4473  0.6242
  540MOL0     C72793   3.299   1.130   9.385 -0.1923  0.8000 -0.9736
  540MOL0     C72794   3.423   1.091   9.457 -0.1181  0.9053 -0.4212
  540MOL0     O72795   3.531   1.034   9.392  0.1299 -0.1354  0.1964
  540MOL0     C72796   3.651   1.009   9.447  0.4330  1.3640 -0.5800
  540MOL0     C72797   3.710   1.068   9.555  0.1458 -0.2220 -0.4110
  540MOL0     C72798   3.838   1.046   9.588  0.3489 -0.8796 -0.3336
  540MOL0     C72799   3.917   0.962   9.514  0.2190 -0.0047  0.4561
  540MOL0     O72800   4.046   0.943   9.554 -0.4876  0.6478  0.5581
  540MOL0     C72801   4.102   0.809   9.534 -1.3070 -0.8071 -0.9949
  540MOL0     C72802   4.252   0.813   9.564  0.2913 -0.2883 -0.0061
  540MOL0     C72803   4.320   0.675   9.536  0.5349  0.2720 -0.2758
  540MOL0     C72804   4.462   0.681   9.585  0.1728  0.1504  0.0277
  540MOL0     C72805   4.527   0.542   9.540 -0.0114  0.0439 -0.0004
  540MOL0     C72806   4.689   0.532   9.551  0.0131  0.2486 -0.7614
  540MOL0     C72807   4.754   0.438   9.445 -0.0836  0.8726  0.0276
  540MOL0     C72808   4.724   0.291   9.490 -0.6602 -0.5996  0.2754
  540MOL0    Cl72809   4.764   0.203   9.348 -0.2025  0.4983 -0.5783
  540MOL0     C72810   3.861   0.897   9.403  0.4663 -0.9895 -0.0293
  540MOL0     C72811   3.735   0.920   9.374  0.9971  0.1980 -0.4319
  540MOL0     O72812   3.412   1.096   9.579 -0.2946  0.1647  0.1129
  540MOL0     C72813   3.181   1.179   9.454 -0.2200 -0.4325  0.1608
  540MOL0     C72814   3.063   1.184   9.385 -0.0534  0.0813  1.1790
  540MOL0     N72815   2.789   0.987   8.536  0.1255 -0.0375  0.1193
  540MOL0     N72816   2.832   0.885   8.468 -0.2925  0.2541  0.6189
  540MOL0     C72817   3.935   0.471   7.968  0.3014  0.5142  0.6065
  540MOL0     C72818   4.070   0.465   7.927  1.0912 -0.6307 -0.0033
  540MOL0     C72819   4.510   0.289   7.894  0.1556  0.2710  0.4799
  540MOL0     C72820   4.623   0.231   7.962 -0.7431  0.3653  0.7596
  540MOL0     C72821   4.757   0.253   7.931 -0.4330 -0.4347  0.1199
  540MOL0     C72822   4.791   0.321   7.812  0.2003 -0.1557  0.3397
  540MOL0     O72823   4.920   0.338   7.769  0.4607  0.3693 -1.3625
  540MOL0     C72824   5.025   0.277   7.855  0.0049 -0.0196 -0.0948
  540MOL0     C72825   5.157   0.363   7.831  0.5564 -0.1624 -0.1309
  540MOL0     C72826   5.284   0.290   7.877  0.2513  0.8512  0.7656
  540MOL0     C72827   5.409   0.352   7.821  0.0133 -0.1695 -0.8830
  540MOL0     C72828   5.527   0.257   7.837 -0.5146  0.3570 -0.1961
  540MOL0     C72829   5.624   0.184   7.860  0.2487  0.3566  0.2965
  540MOL0     C72830   4.682   0.371   7.740  0.0307  0.2992 -0.1297
  540MOL0     C72831   4.547   0.355   7.778 -0.9875  0.5961 -0.2192
  540MOL0     C72832   4.438   0.409   7.692  0.8322  0.4658  0.2708
  540MOL0     H72833   4.179   0.230   8.146 -1.6758 -0.3048  0.9061
  540MOL0     H72834   3.942   0.225   8.201  0.1096 -1.0250 -0.6769
  540MOL0     H72835   3.779   0.593   8.131  0.3629 -0.3355  0.5444
  540MOL0     H72836   3.676   0.537   8.012  1.1502 -0.0820  0.0141
  540MOL0     H72837   3.552   0.622   8.241  0.3239  0.7414 -0.2135
  540MOL0     H72838   3.632   0.488   8.311 -0.7393  1.7501  0.3706
  540MOL0     H72839   3.515   0.337   8.155 -1.7248 -0.5041 -0.8561
  540MOL0     H72840   3.441   0.476   8.086  1.0199  0.8023  0.0268
  540MOL0     H72841   3.300   0.351   8.258  1.8413 -0.5018 -1.0591
  540MOL0     H72842   3.399   0.400   8.394  0.6660  2.6484  0.8350
  540MOL0     H72843   3.350   0.657   8.341 -0.7516  0.1339  2.0279
  540MOL0     H72844   3.238   0.591   8.215 -2.0292 -0.4142  0.4246
  540MOL0     H72845   3.119   0.470   8.382  1.7966 -0.8922  0.3314
  540MOL0     H72846   3.229   0.522   8.501 -0.9064  0.7539  2.0006
  540MOL0     H72847   3.112   0.763   8.357  3.4999  1.2890  0.1420
  540MOL0     H72848   3.185   0.763   8.500  1.9774 -0.3313 -1.3472
  540MOL0     H72849   2.904   0.650   8.440  0.2471 -0.2201 -0.9831
  540MOL0     H72850   2.988   0.633   8.599 -1.5341 -1.9099 -1.0371
  540MOL0     H72851   2.999   0.861   8.750  0.6068 -0.2031 -1.3794
  540MOL0     H72852   2.935   1.102   8.800 -0.5776  1.9491  0.8578
  540MOL0     H72853   2.789   1.185   8.736 -0.4369  0.1241 -0.0306
  540MOL0     H72854   2.637   1.072   8.860  0.2186 -0.9467  0.0017
  540MOL0     H72855   2.728   0.928   8.881 -2.7509  0.6569 -0.7443
  540MOL0     H72856   2.704   1.031   9.095 -2.1512  1.5390  0.5672
  540MOL0     H72857   2.715   1.191   9.031  1.9775  1.9502 -0.9354
  540MOL0     H72858   2.961   1.184   9.010 -0.7750 -0.7803 -1.3650
  540MOL0     H72859   2.963   1.016   9.055  2.1508  0.4811  0.2595
  540MOL0     H72860   3.168   1.093   9.072  0.1658  0.3975 -0.6530
  540MOL0     H72861   3.374   1.063   9.198  0.6831  3.5188 -2.0107
  540MOL0     H72862   3.651   1.146   9.602  2.3649  1.0351  0.4574
  540MOL0     H72863   3.877   1.100   9.674 -1.5898 -0.7448  0.5178
  540MOL0     H72864   4.049   0.736   9.595 -1.6218 -2.6883 -3.3700
  540MOL0     H72865   4.087   0.777   9.431  0.7279 -0.9341 -1.2791
  540MOL0     H72866   4.305   0.890   9.505  0.8310  0.7538  1.7676
  540MOL0     H72867   4.264   0.831   9.671 -0.5378 -0.3958  0.1057
  540MOL0     H72868   4.273   0.597   9.597  1.4092  1.4265  1.9653
  540MOL0     H72869   4.317   0.649   9.429  2.4269 -1.1820 -0.0319
  540MOL0     H72870   4.469   0.698   9.693 -1.7377  2.3673 -0.1226
  540MOL0     H72871   4.516   0.760   9.531  1.6168 -2.7528 -3.2397
  540MOL0     H72872   4.494   0.511   9.441  0.2758 -1.5252  0.3625
  540MOL0     H72873   4.482   0.469   9.608 -1.2169 -0.7896 -1.6260
  540MOL0     H72874   4.735   0.631   9.537 -3.2279  1.7317 -1.6916
  540MOL0     H72875   4.718   0.500   9.652 -0.3170  0.8399 -0.4731
  540MOL0     H72876   4.862   0.452   9.448  0.2130 -1.2952  0.7036
  540MOL0     H72877   4.713   0.462   9.346  0.4740 -0.5077 -0.5616
  540MOL0     H72878   4.788   0.264   9.575  0.4527 -0.4922 -0.5089
  540MOL0     H72879   4.623   0.271   9.526 -1.1368 -1.2478 -1.3598
  540MOL0     H72880   3.919   0.834   9.337  1.5828 -0.1634  0.1377
  540MOL0     H72881   3.683   0.871   9.293  0.2708 -1.4161  0.9411
  540MOL0     H72882   3.181   1.190   9.562 -2.1905 -1.0961  0.2663
  540MOL0     H72883   2.970   1.205   9.436 -0.9503 -0.3820 -0.1896
  540MOL0     H72884   3.863   0.533   7.916 -4.3204 -1.2154  4.2432
  540MOL0     H72885   4.096   0.533   7.846 -0.4511 -3.5319 -3.2059
  540MOL0     H72886   4.610   0.178   8.056  2.4721  0.2133  1.2452
  540MOL0     H72887   4.813   0.184   7.992 -3.6808 -2.1534  1.4230
  540MOL0     H72888   5.040   0.171   7.832  2.6065 -0.3375  2.5274
  540MOL0     H72889   4.995   0.287   7.959 -0.3386  0.4975 -0.2399
  540MOL0     H72890   5.143   0.453   7.891  3.3822  0.4028 -0.1815
  540MOL0     H72891   5.176   0.400   7.730  0.1258  1.4179  0.3328
  540MOL0     H72892   5.291   0.184   7.851  1.3229  1.0189  0.3038
  540MOL0     H72893   5.294   0.287   7.986  2.2239 -1.2205  0.6171
  540MOL0     H72894   5.382   0.371   7.716 -1.9469 -0.6369 -0.5032
  540MOL0     H72895   5.421   0.444   7.878  0.1888 -1.0857  0.6114
  540MOL0     H72896   5.698   0.110   7.887  0.1381  0.6156  1.3392
  540MOL0     H72897   4.700   0.421   7.645 -1.6558  1.4949  0.1326
  540MOL0     H72898   4.477   0.431   7.592  1.5772 -1.6502  0.0394
  540MOL0     H72899   4.356   0.338   7.696  4.1330 -3.7551 -0.0989
  540MOL0     H72900   4.406   0.506   7.733  3.7042  1.7408 -0.2086
  541MOL0     O72901  10.784   8.906   1.106 -0.2214  0.1994 -0.3348
  541MOL0     C72902  10.683   8.834   1.121 -0.1876  0.4396  0.0549
  541MOL0     O72903  10.686   8.700   1.131  0.3554  0.3975 -0.1180
  541MOL0     C72904  10.805   8.647   1.162  0.0019  0.2739  0.4103
  541MOL0     C72905  10.906   8.643   1.063  0.3415 -0.3415 -0.4783
  541MOL0     C72906  11.034   8.595   1.087  0.4434  0.0342 -0.7795
  541MOL0     C72907  11.068   8.563   1.223 -0.8649  0.3013  1.4541
  541MOL0     O72908  11.186   8.517   1.271 -0.3960  0.0939 -0.4103
  541MOL0     C72909  11.304   8.516   1.194 -0.5037 -0.4233  0.8169
  541MOL0     C72910  11.418   8.471   1.283 -1.0737  0.3762  0.0917
  541MOL0     C72911  11.540   8.463   1.201  0.0131 -0.0518 -0.3716
  541MOL0     C72912  11.657   8.395   1.262 -0.1308 -0.4726  0.0149
  541MOL0     C72913  11.792   8.482   1.241 -0.3046  0.4824  0.1630
  541MOL0     C72914  11.862   8.477   1.109  0.7818  0.4542  0.0742
  541MOL0     C72915  11.977   8.579   1.093 -0.0833 -0.8097  0.3794
  541MOL0     C72916  12.070   8.570   1.201  0.2637  0.2245 -0.0468
  541MOL0     N72917  12.202   8.639   1.184 -0.3474  0.0809 -0.2585
  541MOL0     C72918  12.304   8.599   1.108  0.4849  0.2399 -0.0618
  541MOL0     C72919  12.413   8.671   1.153  0.5104  0.6767  0.1859
  541MOL0     C72920  12.554   8.660   1.110 -0.9690  0.2089  0.2408
  541MOL0     C72921  12.595   8.519   1.040  0.3059  0.1646 -0.2168
  541MOL0     C72922  12.573   8.397   1.136 -1.1553 -0.4062 -0.1212
  541MOL0     C72923  12.686   8.407   1.244  0.3744 -0.4203  0.1773
  541MOL0     O72924  12.811   8.376   1.195  0.6456 -0.5650 -0.0493
  541MOL0     C72925  12.909   8.346   1.290 -0.7148  0.3915 -0.4022
  541MOL0     C72926  13.042   8.351   1.252 -0.2812  0.8509  0.9789
  541MOL0     C72927  13.156   8.325   1.332  0.2699 -0.8181 -0.3050
  541MOL0     C72928  13.132   8.306   1.472  0.2458 -0.5860  1.1554
  541MOL0     C72929  13.242   8.293   1.566  0.3643  0.4319 -0.1229
  541MOL0     O72930  13.204   8.311   1.699  0.0013 -0.2948  0.1935
  541MOL0     C72931  13.298   8.287   1.801  0.2496 -0.5411 -0.3412
  541MOL0     C72932  13.416   8.351   1.815 -0.8510  0.0383 -0.3906
  541MOL0     C72933  13.510   8.329   1.920 -0.3851  0.5309  0.2293
  541MOL0     C72934  13.463   8.244   2.023  0.4800  0.9631  0.7737
  541MOL0     O72935  13.551   8.231   2.126  0.3847 -0.3780  0.1328
  541MOL0     C72936  13.519   8.164   2.248  0.1298 -0.3501 -1.7368
  541MOL0     C72937  13.622   8.196   2.357 -0.5204 -0.3486  0.9205
  541MOL0     C72938  13.768   8.186   2.316 -0.5891  0.0501 -0.7556
  541MOL0     C72939  13.868   8.214   2.427  0.1120 -0.5208 -0.3872
  541MOL0     C72940  14.008   8.205   2.374  0.3449 -0.8176 -0.1894
  541MOL0     C72941  14.110   8.217   2.496 -0.2136 -0.2448  0.2357
  541MOL0     C72942  14.254   8.184   2.454 -0.2879 -0.4045  0.0256
  541MOL0     C72943  14.354   8.202   2.561 -0.0908  0.2019  0.4822
  541MOL0    Cl72944  14.373   8.375   2.604  0.2535 -0.5548  0.0193
  541MOL0     C72945  13.331   8.191   2.019  0.5052  0.2645 -0.8391
  541MOL0     C72946  13.243   8.220   1.913  1.2999 -0.2946 -0.0092
  541MOL0     O72947  13.357   8.264   1.532  0.6816 -0.6954 -0.1215
  541MOL0     C72948  12.997   8.287   1.513 -0.1941 -0.2942 -0.2848
  541MOL0     C72949  12.893   8.312   1.426  0.0483  0.3070 -0.5680
  541MOL0     N72950  12.369   8.756   1.247 -0.1282 -0.5453  0.7593
  541MOL0     N72951  12.246   8.742   1.264 -0.1492  0.8558  0.1419
  541MOL0     C72952  10.965   8.559   1.312 -0.6803  0.7717 -0.3041
  541MOL0     C72953  10.844   8.610   1.288  0.0428  0.6514  0.0834
  541MOL0     C72954  10.543   8.893   1.118 -0.0487  0.0459 -0.0571
  541MOL0     C72955  10.446   8.811   1.079  0.7141  0.4832  0.6509
  541MOL0     C72956  10.308   8.854   1.065  0.1866 -0.2783  0.0921
  541MOL0     C72957  10.280   8.990   1.087 -0.1892 -0.3403  0.3622
  541MOL0     O72958  10.157   9.042   1.092  0.7126  0.1429  0.2436
  541MOL0     C72959  10.100   9.069   0.966 -0.1624 -0.0933 -0.6459
  541MOL0     C72960  10.027   8.953   0.899  0.2921  0.3141 -0.3069
  541MOL0     C72961   9.959   8.983   0.771  0.2581 -0.1830 -1.1043
  541MOL0     C72962   9.815   9.042   0.778 -0.1585  0.0160 -0.1793
  541MOL0     C72963   9.821   9.182   0.799 -0.7951  0.0089  0.8445
  541MOL0     C72964   9.834   9.295   0.829 -0.1758  0.0745  1.5582
  541MOL0     C72965  10.389   9.077   1.120  0.3918  0.5962  0.0048
  541MOL0     C72966  10.514   9.030   1.128  0.2523  0.1815  0.0337
  541MOL0     C72967  10.623   9.127   1.177  0.0183  0.1429 -0.0230
  541MOL0     H72968  10.893   8.673   0.959 -0.1651 -0.2905 -0.4068
  541MOL0     H72969  11.105   8.586   1.005 -0.1833 -3.8987 -1.0990
  541MOL0     H72970  11.300   8.450   1.107 -2.3261 -1.5490  1.7014
  541MOL0     H72971  11.333   8.618   1.165 -1.9437 -0.5321 -1.2456
  541MOL0     H72972  11.377   8.376   1.318 -1.6998  0.4220 -0.4945
  541MOL0     H72973  11.434   8.534   1.371  0.3657  3.0061 -1.9113
  541MOL0     H72974  11.574   8.565   1.178 -0.7187  0.3944  0.4751
  541MOL0     H72975  11.516   8.404   1.112  1.2472  0.1132 -0.8296
  541MOL0     H72976  11.633   8.389   1.368  1.8526  0.2851  0.5416
  541MOL0     H72977  11.663   8.293   1.223 -2.9675 -0.9669  0.6194
  541MOL0     H72978  11.783   8.588   1.263  1.7190  0.3667  1.8877
  541MOL0     H72979  11.868   8.441   1.308  0.7891 -0.6046 -1.6488
  541MOL0     H72980  11.890   8.372   1.091 -0.1162  0.8077 -4.6846
  541MOL0     H72981  11.788   8.499   1.031  0.7009  2.7269  0.7211
  541MOL0     H72982  11.944   8.683   1.082  3.7936  0.2819 -4.6008
  541MOL0     H72983  12.025   8.564   0.996 -1.5284  3.0791 -1.1111
  541MOL0     H72984  12.030   8.613   1.293  1.3479 -0.6714  0.8757
  541MOL0     H72985  12.093   8.464   1.215  0.9916  0.6673  2.9015
  541MOL0     H72986  12.301   8.521   1.032  0.5657  0.9302 -0.7810
  541MOL0     H72987  12.587   8.738   1.041  1.9304 -1.1726 -0.0830
  541MOL0     H72988  12.614   8.681   1.200 -0.7745  1.2787 -0.1257
  541MOL0     H72989  12.547   8.512   0.942 -0.4776 -2.8836  0.2776
  541MOL0     H72990  12.702   8.533   1.023  0.9209 -2.2104  1.1294
  541MOL0     H72991  12.586   8.291   1.112 -1.1065 -0.4301  0.0103
  541MOL0     H72992  12.474   8.415   1.177 -1.0150  0.9719 -0.3481
  541MOL0     H72993  12.651   8.334   1.318  0.0606 -1.5681 -1.0601
  541MOL0     H72994  12.691   8.505   1.292 -3.3791  1.8601 -3.4175
  541MOL0     H72995  13.055   8.380   1.148  0.3489  0.7261  1.0223
  541MOL0     H72996  13.262   8.331   1.313 -0.0024 -1.0202 -2.0243
  541MOL0     H72997  13.457   8.417   1.740  1.6547  1.2410  1.8750
  541MOL0     H72998  13.611   8.369   1.923 -0.9202  2.2750 -2.1459
  541MOL0     H72999  13.414   8.181   2.276  0.1598 -1.9500 -0.4875
  541MOL0     H73000  13.523   8.056   2.228  2.0400 -0.4030 -1.2655
  541MOL0     H73001  13.605   8.298   2.394  0.9769 -0.1185  1.0158
  541MOL0     H73002  13.602   8.123   2.435 -1.0466 -0.0986  1.0260
  541MOL0     H73003  13.792   8.085   2.281  1.3351 -0.3485  1.4749
  541MOL0     H73004  13.788   8.258   2.236 -1.5753 -0.7461 -1.7619
  541MOL0     H73005  13.856   8.144   2.510 -3.2115  1.4261  1.0009
  541MOL0     H73006  13.851   8.316   2.463 -1.0987 -0.7973 -0.1254
  541MOL0     H73007  14.022   8.280   2.295 -0.4274 -1.8995 -1.3891
  541MOL0     H73008  14.023   8.108   2.326  1.6191 -0.4000 -0.6697
  541MOL0     H73009  14.105   8.322   2.528  1.8787  0.3299 -1.1192
  541MOL0     H73010  14.084   8.150   2.578  1.7666 -1.2877  0.0716
  541MOL0     H73011  14.289   8.239   2.366 -1.6870 -0.4891 -0.6100
  541MOL0     H73012  14.243   8.078   2.429 -2.6970 -0.1074 -0.3526
  541MOL0     H73013  14.322   8.152   2.652 -2.5854 -0.6946 -0.7884
  541MOL0     H73014  14.454   8.170   2.531  0.2190  2.0996 -0.7504
  541MOL0     H73015  13.293   8.146   2.109 -0.0119  0.4659 -0.9543
  541MOL0     H73016  13.140   8.186   1.910  0.2442  2.6612 -1.2389
  541MOL0     H73017  12.972   8.249   1.612 -1.2240  1.7889  0.3062
  541MOL0     H73018  12.790   8.296   1.458  0.0111 -1.0161 -1.2953
  541MOL0     H73019  10.982   8.524   1.413 -0.3274 -1.6776 -1.1223
  541MOL0     H73020  10.782   8.610   1.377  1.7239  0.8098  1.2997
  541MOL0     H73021  10.474   8.707   1.076  0.7077  0.4989 -0.0353
  541MOL0     H73022  10.219   8.792   1.055 -0.1427 -0.3931  2.8271
  541MOL0     H73023  10.183   9.107   0.906  0.2157 -1.3544 -0.9551
  541MOL0     H73024  10.021   9.143   0.984 -1.7425 -1.5977 -1.0458
  541MOL0     H73025   9.953   8.911   0.968 -0.4718  0.1486 -1.2019
  541MOL0     H73026  10.095   8.868   0.899 -1.6504 -1.3092  0.1432
  541MOL0     H73027   9.960   8.891   0.712 -1.3757 -1.3233  0.5631
  541MOL0     H73028  10.020   9.051   0.710  1.9038  0.5739  1.2379
  541MOL0     H73029   9.767   9.023   0.681 -3.7269 -1.7608  1.7203
  541MOL0     H73030   9.755   8.995   0.857  1.8646 -1.5126  0.5196
  541MOL0     H73031   9.834   9.394   0.871  0.6302  1.8669 -2.1950
  541MOL0     H73032  10.365   9.175   1.160  3.0669  1.0161  0.8040
  541MOL0     H73033  10.675   9.088   1.265 -0.5803 -0.3227  0.1343
  541MOL0     H73034  10.692   9.156   1.098  0.4702 -2.0451 -0.5115
  541MOL0     H73035  10.576   9.224   1.197 -0.9919 -0.5945  1.3875
  542MOL0     O73036   3.342   2.872   9.932 -1.3461 -0.1778 -0.4993
  542MOL0     C73037   3.307   2.892   9.815 -0.3730  0.7708 -0.2424
  542MOL0     O73038   3.360   2.838   9.699  0.2306  0.9160  0.8541
  542MOL0     C73039   3.467   2.752   9.708  0.2239  0.3036 -0.8976
  542MOL0     C73040   3.472   2.632   9.784 -0.6156  0.4739  0.6629
  542MOL0     C73041   3.590   2.550   9.776 -0.8178  0.9769  0.7263
  542MOL0     C73042   3.703   2.587   9.699  0.3334 -0.1120 -0.1270
  542MOL0     O73043   3.817   2.510   9.695  0.3813 -0.1928 -0.7860
  542MOL0     C73044   3.918   2.542   9.601 -0.8443 -0.4145  0.0183
  542MOL0     C73045   4.025   2.438   9.609 -0.0592 -0.1534 -0.4287
  542MOL0     C73046   3.947   2.300   9.579 -0.1296  0.3605 -0.1211
  542MOL0     C73047   4.044   2.183   9.570  0.0592 -0.1926  0.2676
  542MOL0     C73048   4.009   2.071   9.671 -0.0657 -0.1015 -0.2853
  542MOL0     C73049   4.118   1.966   9.691  0.0272  0.6894  0.3814
  542MOL0     C73050   4.053   1.822   9.687 -0.8036 -0.7939 -0.2247
  542MOL0     C73051   4.148   1.710   9.642  0.0100  0.0063  0.0948
  542MOL0     N73052   4.243   1.683   9.751 -0.1347 -0.6806 -0.6264
  542MOL0     C73053   4.228   1.588   9.849  0.8892  0.1541  0.2004
  542MOL0     C73054   4.343   1.580   9.910 -0.8081  0.1696  0.5951
  542MOL0     C73055   4.392   1.486  10.018 -1.0676 -0.4243  1.3198
  542MOL0     C73056   4.292   1.417  10.101  0.8581  0.3340 -0.4042
  542MOL0     C73057   4.350   1.350  10.224 -0.7852 -0.7149 -0.4032
  542MOL0     C73058   4.436   1.227  10.181  0.6683 -0.6486 -0.3340
  542MOL0     O73059   4.468   1.158  10.300  0.1637  0.7286 -0.0645
  542MOL0     C73060   4.572   1.201  10.376 -0.7921  0.2685 -0.3955
  542MOL0     C73061   4.656   1.318  10.350 -0.5961  0.0256 -0.1173
  542MOL0     C73062   4.767   1.359  10.427  0.0969  0.3653 -0.8771
  542MOL0     C73063   4.814   1.268  10.528 -0.4425 -0.1353  0.4818
  542MOL0     C73064   4.933   1.295  10.605 -0.2060  0.8280 -0.7554
  542MOL0     O73065   4.976   1.190  10.684  0.0902 -0.0252  0.5219
  542MOL0     C73066   5.087   1.194  10.765  0.5158  0.0796  0.4404
  542MOL0     C73067   5.165   1.308  10.808 -0.0968  0.7271 -0.3517
  542MOL0     C73068   5.254   1.300  10.919  0.0677  0.0266  0.1721
  542MOL0     C73069   5.254   1.184  10.995 -0.3719  0.2465  0.6406
  542MOL0     O73070   5.342   1.173  11.108 -1.3397  0.4906  0.1013
  542MOL0     C73071   5.367   1.047  11.168  0.1228  0.3361  0.1839
  542MOL0     C73072   5.502   1.053  11.235 -0.1577  0.2259 -0.3686
  542MOL0     C73073   5.607   1.140  11.166 -0.8226 -0.1240  0.7794
  542MOL0     C73074   5.744   1.102  11.230 -0.6368 -1.0139  1.0776
  542MOL0     C73075   5.858   1.193  11.181  0.9181  0.1026 -0.5991
  542MOL0     C73076   5.879   1.194  11.033  0.1277 -0.0549 -0.7775
  542MOL0     C73077   6.010   1.259  10.989 -0.2923 -0.0267  0.1152
  542MOL0     C73078   5.989   1.369  10.879  0.0327  0.5494  0.3045
  542MOL0    Cl73079   6.158   1.428  10.816  0.0199 -0.7487  0.2624
  542MOL0     C73080   5.181   1.072  10.952  0.6077 -0.0040 -0.4418
  542MOL0     C73081   5.098   1.078  10.837 -0.2278 -0.4663 -0.9571
  542MOL0     O73082   4.984   1.408  10.597  0.4354 -0.1163 -0.1932
  542MOL0     C73083   4.729   1.162  10.565  1.1380  0.3518 -0.3697
  542MOL0     C73084   4.603   1.130  10.495 -1.0254  0.6400  1.0102
  542MOL0     N73085   4.430   1.667   9.842  0.4093 -0.2603 -0.4035
  542MOL0     N73086   4.371   1.729   9.760 -0.0546  0.0285  0.2473
  542MOL0     C73087   3.680   2.701   9.614 -0.3862  0.5482 -0.1255
  542MOL0     C73088   3.568   2.781   9.626 -0.2018 -0.1090  0.5707
  542MOL0     C73089   3.193   2.975   9.815  0.2668 -0.0290  0.1664
  542MOL0     C73090   3.074   2.922   9.873 -0.0864  0.1077  1.1883
  542MOL0     C73091   2.956   2.992   9.884 -0.2583 -0.0618  0.6098
  542MOL0     C73092   2.956   3.124   9.826 -0.7612  0.2475 -0.1926
  542MOL0     O73093   2.844   3.203   9.838  0.2729 -0.2060 -0.3771
  542MOL0     C73094   2.728   3.151   9.774 -1.2295 -0.2750 -0.4811
  542MOL0     C73095   2.617   3.225   9.855 -0.1118 -0.6040  0.3213
  542MOL0     C73096   2.600   3.182   9.999  0.8080  0.6999 -0.0020
  542MOL0     C73097   2.495   3.264  10.081  0.2993 -0.0810 -0.7314
  542MOL0     C73098   2.541   3.398  10.100  0.0174  0.2702 -0.8377
  542MOL0     C73099   2.588   3.509  10.124  0.3046 -0.0224  0.1436
  542MOL0     C73100   3.071   3.176   9.770 -0.6381  0.0093  0.7350
  542MOL0     C73101   3.191   3.100   9.752  0.9954 -0.8090 -0.4536
  542MOL0     C73102   3.313   3.161   9.690 -0.2392 -0.1607  0.2358
  542MOL0     H73103   3.397   2.604   9.856  1.6233 -2.3324  2.1015
  542MOL0     H73104   3.608   2.475   9.853  0.0059  0.1740 -0.2202
  542MOL0     H73105   3.878   2.535   9.499  0.3357 -0.9120 -0.4317
  542MOL0     H73106   3.967   2.640   9.612  1.8485 -0.9813 -4.3597
  542MOL0     H73107   4.063   2.445   9.711 -2.7352  1.5061  0.5749
  542MOL0     H73108   4.100   2.461   9.533 -1.0092 -0.1831 -1.4019
  542MOL0     H73109   3.887   2.299   9.488  0.5342  1.4310 -0.5887
  542MOL0     H73110   3.876   2.293   9.662 -0.1927  1.2910 -0.0819
  542MOL0     H73111   4.056   2.148   9.467  3.9202  0.4665  0.3422
  542MOL0     H73112   4.136   2.229   9.607  0.0289  0.4306 -0.4083
  542MOL0     H73113   3.983   2.122   9.764 -1.3683 -1.4471  0.1179
  542MOL0     H73114   3.910   2.034   9.645  0.0903  1.2194 -3.1169
  542MOL0     H73115   4.185   1.971   9.605  2.3799  2.4354  2.1702
  542MOL0     H73116   4.168   1.987   9.786  0.7937 -0.9143  0.3550
  542MOL0     H73117   3.969   1.820   9.617 -1.4758  1.2132  0.4411
  542MOL0     H73118   4.016   1.804   9.788  0.9857  3.2964  1.3951
  542MOL0     H73119   4.092   1.619   9.618 -0.4937  0.5470 -0.8526
  542MOL0     H73120   4.191   1.741   9.546 -0.4181 -1.4576 -0.5961
  542MOL0     H73121   4.135   1.534   9.860  0.5037  0.0933 -2.5609
  542MOL0     H73122   4.451   1.403   9.978 -0.1388 -0.4275  2.6215
  542MOL0     H73123   4.452   1.543  10.090  0.7719 -0.7186  0.1013
  542MOL0     H73124   4.231   1.496  10.147  1.5254  1.1399 -0.8777
  542MOL0     H73125   4.245   1.345  10.033  4.1333 -0.8129 -1.6260
  542MOL0     H73126   4.269   1.321  10.292 -0.4012  0.2911  0.5288
  542MOL0     H73127   4.403   1.427  10.281  0.1209  0.8254 -3.1323
  542MOL0     H73128   4.527   1.245  10.124  0.0972 -2.7396 -2.0278
  542MOL0     H73129   4.380   1.167  10.109 -1.3988  0.9968 -0.2122
  542MOL0     H73130   4.647   1.380  10.261 -0.4513  0.8691  0.4515
  542MOL0     H73131   4.823   1.446  10.395  1.0828  1.2515  2.7855
  542MOL0     H73132   5.162   1.403  10.757 -0.6466  0.9273  0.0481
  542MOL0     H73133   5.300   1.394  10.945 -0.8380  0.9171 -1.3040
  542MOL0     H73134   5.286   1.018  11.236 -1.6300 -1.8513 -2.6116
  542MOL0     H73135   5.374   0.975  11.086 -0.0111 -2.4479  2.4664
  542MOL0     H73136   5.495   1.098  11.334 -2.3021  2.3915 -1.4101
  542MOL0     H73137   5.531   0.949  11.250 -1.8857  0.0705  2.6994
  542MOL0     H73138   5.614   1.117  11.059  0.3778 -0.6605  0.9513
  542MOL0     H73139   5.581   1.245  11.183 -2.0769 -0.4237  0.7770
  542MOL0     H73140   5.773   0.998  11.210 -0.0790 -0.4994 -1.0110
  542MOL0     H73141   5.726   1.119  11.336  2.3944  1.4109  1.3468
  542MOL0     H73142   5.951   1.167  11.233  1.0790 -0.3743 -1.1205
  542MOL0     H73143   5.838   1.293  11.221  2.3869 -1.1717  3.9494
  542MOL0     H73144   5.864   1.092  10.998  1.7790 -0.0522 -1.5548
  542MOL0     H73145   5.794   1.258  11.006  1.2776  0.8965 -2.2593
  542MOL0     H73146   6.076   1.181  10.952  1.0928  1.2462 -0.1940
  542MOL0     H73147   6.064   1.308  11.071  0.5705 -1.8076  0.6419
  542MOL0     H73148   5.932   1.331  10.794  0.1892 -0.1180  0.4901
  542MOL0     H73149   5.934   1.448  10.932  0.9684  1.7939 -0.5348
  542MOL0     H73150   5.179   0.982  11.012 -1.9801  1.2026  1.4279
  542MOL0     H73151   5.043   0.988  10.809 -1.3777 -0.3794  0.8881
  542MOL0     H73152   4.751   1.095  10.647 -1.3763 -0.2797 -0.1577
  542MOL0     H73153   4.551   1.036  10.508 -1.2046  0.3898 -1.1223
  542MOL0     H73154   3.765   2.730   9.553 -0.5185 -0.8360 -1.0254
  542MOL0     H73155   3.565   2.870   9.564  2.1761  0.9530  1.8651
  542MOL0     H73156   3.078   2.819   9.909 -1.0594 -0.9095 -1.3414
  542MOL0     H73157   2.869   2.948   9.931  0.7152 -0.1972  2.3680
  542MOL0     H73158   2.723   3.043   9.786 -0.9890 -0.1940  0.4124
  542MOL0     H73159   2.715   3.187   9.671 -2.5515 -0.0834 -0.2639
  542MOL0     H73160   2.521   3.208   9.805 -0.8850 -2.7401  2.3736
  542MOL0     H73161   2.633   3.333   9.849 -0.4293 -0.5608  0.2270
  542MOL0     H73162   2.694   3.196  10.052  0.2277 -1.8633  1.8846
  542MOL0     H73163   2.582   3.074  10.008  0.5916  0.7839  0.6215
  542MOL0     H73164   2.399   3.265  10.028  0.3103 -0.2397 -0.7542
  542MOL0     H73165   2.478   3.220  10.180 -1.6757  4.6889  1.3328
  542MOL0     H73166   2.615   3.610  10.148  1.1888 -0.2509  0.1471
  542MOL0     H73167   3.075   3.276   9.727  2.1015 -0.4258 -0.2225
  542MOL0     H73168   3.270   3.237   9.625 -0.2311 -0.7515 -0.4751
  542MOL0     H73169   3.388   3.209   9.752  0.9966 -0.6094 -0.8567
  542MOL0     H73170   3.370   3.096   9.622  0.6373  3.0636 -2.3870
  543MOL0     O73171   3.599   4.100   6.475  0.2757 -0.3118 -0.0789
  543MOL0     C73172   3.590   4.045   6.366  0.6888 -0.6802 -0.5509
  543MOL0     O73173   3.694   4.003   6.287 -0.1428  0.6227 -0.0008
  543MOL0     C73174   3.829   4.043   6.304  0.3882  0.9306 -1.0766
  543MOL0     C73175   3.878   4.156   6.235  0.5073  0.0382 -0.1571
  543MOL0     C73176   4.009   4.205   6.257 -1.0602 -1.1650 -0.3081
  543MOL0     C73177   4.090   4.127   6.337 -1.0439  0.2280  0.0776
  543MOL0     O73178   4.216   4.182   6.365 -0.1479  0.2146 -0.4335
  543MOL0     C73179   4.325   4.103   6.311  0.3545  0.0416  0.5135
  543MOL0     C73180   4.459   4.176   6.344  0.0602  1.1429  0.7447
  543MOL0     C73181   4.594   4.101   6.310 -0.1004 -0.6067  0.8432
  543MOL0     C73182   4.700   4.200   6.239 -0.0410 -0.0197  0.1319
  543MOL0     C73183   4.840   4.144   6.245 -0.2089 -0.1960  0.4312
  543MOL0     C73184   4.935   4.226   6.151 -0.2751 -0.0789  0.0016
  543MOL0     C73185   5.078   4.179   6.163 -0.6561  1.0241 -0.0576
  543MOL0     C73186   5.174   4.264   6.082 -0.1875  0.1141 -0.1685
  543MOL0     N73187   5.311   4.222   6.120 -0.4115 -0.5115 -0.1637
  543MOL0     C73188   5.372   4.123   6.063  0.9397 -0.5115 -0.6668
  543MOL0     C73189   5.497   4.130   6.113  0.0264 -0.2929  0.3956
  543MOL0     C73190   5.602   4.025   6.080  0.2653  0.6797  1.0361
  543MOL0     C73191   5.742   4.063   6.112  0.6397 -0.4813 -0.2323
  543MOL0     C73192   5.834   3.972   6.025 -0.2406 -0.1881  0.4550
  543MOL0     C73193   5.826   3.822   6.058 -0.2042  1.2734 -0.5804
  543MOL0     O73194   5.897   3.738   5.969  0.0774 -0.0296 -0.4022
  543MOL0     C73195   6.032   3.710   5.980  0.4443 -1.0322 -0.0636
  543MOL0     C73196   6.111   3.783   6.076 -0.1347 -0.5903  0.1802
  543MOL0     C73197   6.252   3.764   6.078  0.4429  0.5510 -0.0501
  543MOL0     C73198   6.312   3.672   5.987 -0.7162  0.7511  0.5183
  543MOL0     C73199   6.462   3.659   5.983 -0.2277 -0.5692 -0.3118
  543MOL0     O73200   6.539   3.729   6.083 -0.2670 -0.4341  1.3704
  543MOL0     C73201   6.674   3.712   6.083 -0.1005  0.2848  0.1693
  543MOL0     C73202   6.741   3.592   6.053 -0.2215 -0.3442  0.3245
  543MOL0     C73203   6.881   3.577   6.069 -0.2210  0.1876  0.5765
  543MOL0     C73204   6.964   3.679   6.114  0.2784 -0.2781  0.2946
  543MOL0     O73205   7.088   3.647   6.160 -0.8973  0.3073  0.0495
  543MOL0     C73206   7.194   3.750   6.180 -1.0908  0.1097 -0.4989
  543MOL0     C73207   7.232   3.802   6.038  0.2269  0.3037  1.0658
  543MOL0     C73208   7.361   3.889   6.040  0.1061  0.3433  0.1309
  543MOL0     C73209   7.477   3.801   6.011  0.4354  0.6335 -0.4577
  543MOL0     C73210   7.603   3.884   6.013  0.7301  1.0568  0.0127
  543MOL0     C73211   7.731   3.802   5.993  0.2684  0.4609  0.2299
  543MOL0     C73212   7.858   3.890   6.000 -0.4122 -0.0448  0.1158
  543MOL0     C73213   7.982   3.795   5.997  0.0435 -0.3578 -0.0825
  543MOL0    Cl73214   8.125   3.896   5.993 -0.1866 -0.0075 -0.1999
  543MOL0     C73215   6.896   3.799   6.146  1.0198 -0.2928 -0.4441
  543MOL0     C73216   6.754   3.819   6.115  0.4605  0.5753  0.5422
  543MOL0     O73217   6.499   3.569   5.906 -0.5202 -0.3740 -0.3875
  543MOL0     C73218   6.226   3.587   5.915  0.1825 -0.0168  0.0110
  543MOL0     C73219   6.086   3.602   5.915  0.3034 -1.0657  0.0401
  543MOL0     N73220   5.518   4.235   6.192 -0.3330  0.1385 -0.1732
  543MOL0     N73221   5.398   4.292   6.198  0.1561  0.2820 -0.4384
  543MOL0     C73222   4.057   4.002   6.388  0.9515 -0.6126 -0.7870
  543MOL0     C73223   3.922   3.968   6.375 -0.2791 -0.1053  0.8116
  543MOL0     C73224   3.453   4.023   6.309  0.2326  0.4047 -0.1256
  543MOL0     C73225   3.423   3.900   6.253  0.2385  0.0657 -0.6257
  543MOL0     C73226   3.294   3.860   6.206 -0.5292  0.9800 -0.0384
  543MOL0     C73227   3.191   3.951   6.213 -0.1185  0.0036  0.4743
  543MOL0     O73228   3.071   3.913   6.158 -0.3073 -0.0818 -0.5525
  543MOL0     C73229   2.958   4.003   6.169  0.6541 -0.6742  0.8561
  543MOL0     C73230   2.823   3.919   6.169  0.4715  0.2134 -1.1889
  543MOL0     C73231   2.820   3.809   6.277 -0.2364 -0.1003  0.0677
  543MOL0     C73232   2.779   3.844   6.417 -0.2003  0.7246 -0.3879
  543MOL0     C73233   2.644   3.907   6.413 -0.3663  0.2731  0.2705
  543MOL0     C73234   2.543   3.976   6.403 -0.3891 -0.2226 -0.0236
  543MOL0     C73235   3.219   4.074   6.265 -0.4453  0.1467 -0.6582
  543MOL0     C73236   3.344   4.112   6.316 -0.1502  0.3960  0.4177
  543MOL0     C73237   3.373   4.251   6.359 -0.2836  0.1283 -0.9475
  543MOL0     H73238   3.802   4.216   6.186  1.2869  2.6658  1.6400
  543MOL0     H73239   4.042   4.291   6.199  2.6513 -2.7535 -0.8262
  543MOL0     H73240   4.322   4.000   6.349  0.5901  0.1093  0.7145
  543MOL0     H73241   4.318   4.094   6.202  1.6820 -0.6086  0.4605
  543MOL0     H73242   4.460   4.177   6.453 -0.1191 -3.1054  0.9515
  543MOL0     H73243   4.470   4.270   6.289 -2.2524 -0.7405 -3.4826
  543MOL0     H73244   4.569   4.021   6.240  1.0259 -1.6839  1.6224
  543MOL0     H73245   4.641   4.047   6.393 -3.4654 -1.4182  2.3593
  543MOL0     H73246   4.658   4.222   6.140 -1.3164  0.8315  0.8442
  543MOL0     H73247   4.705   4.298   6.286  2.1177 -1.7629  3.9605
  543MOL0     H73248   4.859   4.127   6.352 -4.0803 -0.8992  1.1301
  543MOL0     H73249   4.843   4.044   6.200 -0.7968  0.4315 -1.0645
  543MOL0     H73250   4.906   4.218   6.046 -1.6247  1.3424  0.2457
  543MOL0     H73251   4.939   4.332   6.177  1.5348  0.0058 -0.4967
  543MOL0     H73252   5.087   4.073   6.135  2.4313  0.4949  2.3517
  543MOL0     H73253   5.107   4.200   6.266  0.7000  2.2252 -0.6518
  543MOL0     H73254   5.166   4.244   5.975  0.5510 -3.1181  0.2676
  543MOL0     H73255   5.157   4.368   6.109  1.4552  0.6190 -0.9432
  543MOL0     H73256   5.346   4.051   5.986  2.6701  0.1316 -1.9084
  543MOL0     H73257   5.587   3.944   6.151 -0.9556  0.9253  1.0756
  543MOL0     H73258   5.586   3.987   5.978  0.0796  2.0283  0.5387
  543MOL0     H73259   5.754   4.169   6.088  0.9103 -0.3732  0.3688
  543MOL0     H73260   5.760   4.055   6.219  1.9924 -0.7973 -0.4716
  543MOL0     H73261   5.932   4.020   6.024 -0.3243  0.0015  0.8903
  543MOL0     H73262   5.797   3.978   5.922  1.8671 -3.2133 -0.5779
  543MOL0     H73263   5.722   3.788   6.058  0.0717  0.3940 -1.7116
  543MOL0     H73264   5.864   3.801   6.158  0.0812  0.8151 -0.7818
  543MOL0     H73265   6.072   3.854   6.148 -0.7971  0.0686 -0.7910
  543MOL0     H73266   6.314   3.815   6.151  0.6111 -0.4882  0.5537
  543MOL0     H73267   6.686   3.500   6.034 -1.4636  0.5153 -0.4054
  543MOL0     H73268   6.934   3.483   6.062 -0.6514 -0.0602  0.5847
  543MOL0     H73269   7.161   3.830   6.247 -1.2971  1.1971 -1.8741
  543MOL0     H73270   7.275   3.693   6.226 -0.9480  1.8096  1.5371
  543MOL0     H73271   7.251   3.719   5.969 -1.3116  0.6592  0.1728
  543MOL0     H73272   7.148   3.864   6.009 -1.8193 -1.2067  3.3317
  543MOL0     H73273   7.363   3.962   5.959 -1.4921 -0.1057 -0.3574
  543MOL0     H73274   7.367   3.943   6.136  2.4626 -0.4782  0.5087
  543MOL0     H73275   7.456   3.755   5.915 -1.0240  1.1653 -0.4310
  543MOL0     H73276   7.474   3.739   6.101  1.6696  0.5413 -0.4665
  543MOL0     H73277   7.608   3.930   6.112 -0.1396 -0.4278  0.7870
  543MOL0     H73278   7.598   3.965   5.940  2.2719 -0.4013 -1.8213
  543MOL0     H73279   7.743   3.722   6.067 -0.5777 -0.5187 -0.6582
  543MOL0     H73280   7.736   3.759   5.893  3.1261 -1.2923  0.9910
  543MOL0     H73281   7.865   3.942   6.096  2.9482  2.0018 -1.0807
  543MOL0     H73282   7.878   3.967   5.925  0.7887 -2.1932 -1.8918
  543MOL0     H73283   7.979   3.727   6.083 -1.7501 -0.3222 -0.0843
  543MOL0     H73284   7.972   3.742   5.902  1.2507  2.6683 -2.0759
  543MOL0     H73285   6.944   3.886   6.189  3.8547 -1.4635 -1.0393
  543MOL0     H73286   6.712   3.920   6.118 -2.3269 -0.5268  1.8861
  543MOL0     H73287   6.260   3.510   5.846  1.4511 -0.9939  1.6181
  543MOL0     H73288   6.010   3.537   5.872  0.3838 -1.0604 -0.1120
  543MOL0     H73289   4.130   3.950   6.448 -1.1253 -0.3693  2.1826
  543MOL0     H73290   3.898   3.872   6.421  1.6058 -0.3215  1.4644
  543MOL0     H73291   3.494   3.818   6.247  1.8568  1.5083 -2.2868
  543MOL0     H73292   3.284   3.762   6.160  1.9200  1.0111 -0.7499
  543MOL0     H73293   2.959   4.076   6.088  0.3782 -1.7719 -0.1760
  543MOL0     H73294   2.948   4.063   6.259 -2.5117  0.8166 -0.3436
  543MOL0     H73295   2.788   3.879   6.073 -2.6947  1.8960 -0.8731
  543MOL0     H73296   2.736   3.984   6.184  0.7624  0.0309  1.9340
  543MOL0     H73297   2.919   3.763   6.281 -0.7533 -1.2174  0.7612
  543MOL0     H73298   2.756   3.730   6.236 -0.8278  0.2928  0.2252
  543MOL0     H73299   2.767   3.754   6.477  0.9826 -0.2599 -1.5585
  543MOL0     H73300   2.841   3.918   6.468 -1.1661  1.4872 -0.2833
  543MOL0     H73301   2.449   4.026   6.392  0.6521  1.7983 -0.0041
  543MOL0     H73302   3.150   4.158   6.257  1.3317  1.7795  0.3901
  543MOL0     H73303   3.414   4.243   6.460  0.3201 -2.1829 -1.3204
  543MOL0     H73304   3.453   4.289   6.296  3.9641 -2.7415  2.1321
  543MOL0     H73305   3.281   4.309   6.369 -2.1038 -2.5778 -0.7591
  544MOL0     O73306   8.159   4.978   4.072  0.3042  0.4704  0.0842
  544MOL0     C73307   8.082   5.033   4.145 -0.6686 -0.3481 -0.2895
  544MOL0     O73308   8.114   5.068   4.269  0.5995  0.5777  0.2802
  544MOL0     C73309   8.247   5.057   4.312  0.1483  0.3280  0.0612
  544MOL0     C73310   8.289   4.967   4.415 -0.2153  0.8451  0.1869
  544MOL0     C73311   8.428   4.961   4.447 -0.5359 -1.0856 -0.1107
  544MOL0     C73312   8.524   5.051   4.395  0.8458  0.1067 -0.7705
  544MOL0     O73313   8.658   5.067   4.429  0.4570 -0.9781 -0.4888
  544MOL0     C73314   8.704   5.065   4.564  0.5499 -1.4775 -0.6032
  544MOL0     C73315   8.840   5.131   4.574  0.3774 -0.7932  1.0217
  544MOL0     C73316   8.827   5.277   4.529 -0.3436 -0.0343 -0.0179
  544MOL0     C73317   8.958   5.355   4.540 -0.1775 -0.4557 -0.4967
  544MOL0     C73318   8.948   5.498   4.499  0.2764 -1.1502  0.0212
  544MOL0     C73319   9.051   5.589   4.575  0.9670 -0.0318  0.2421
  544MOL0     C73320   9.193   5.548   4.537 -0.2309 -0.0500 -0.2217
  544MOL0     C73321   9.294   5.632   4.622  0.0355  0.6063 -0.6957
  544MOL0     N73322   9.428   5.583   4.603 -0.3501  0.4895  0.3693
  544MOL0     C73323   9.482   5.475   4.672 -0.4390  0.5633  0.2925
  544MOL0     C73324   9.615   5.476   4.630  0.4291  1.0515 -0.6001
  544MOL0     C73325   9.700   5.362   4.669  0.9426  0.1396 -0.1737
  544MOL0     C73326   9.790   5.397   4.797  0.1092 -0.4547 -0.6635
  544MOL0     C73327   9.862   5.273   4.854  0.5405 -1.0623  0.9318
  544MOL0     C73328   9.970   5.221   4.761 -0.9183  0.2107  0.6195
  544MOL0     O73329  10.092   5.185   4.828  0.1507  0.6292 -0.2306
  544MOL0     C73330  10.183   5.116   4.757  0.6689  0.0173 -0.5662
  544MOL0     C73331  10.199   5.139   4.621 -0.4550 -0.6402  0.0540
  544MOL0     C73332  10.290   5.074   4.544 -1.1779  0.1892  0.2416
  544MOL0     C73333  10.377   4.974   4.598 -0.5793  0.5948 -0.4650
  544MOL0     C73334  10.473   4.907   4.514  0.1634  0.3502 -0.0944
  544MOL0     O73335  10.572   4.835   4.573 -0.5307 -0.7312 -0.0846
  544MOL0     C73336  10.665   4.766   4.503  0.1904  0.3717 -0.3059
  544MOL0     C73337  10.636   4.632   4.467 -0.4488 -0.6011 -0.6388
  544MOL0     C73338  10.736   4.561   4.401  0.3056  0.1652 -0.3353
  544MOL0     C73339  10.853   4.615   4.348 -0.5171 -0.2651 -0.2208
  544MOL0     O73340  10.950   4.540   4.281  0.0358 -0.2326  0.1164
  544MOL0     C73341  10.944   4.400   4.283 -0.1171 -0.1473 -0.4423
  544MOL0     C73342  11.072   4.341   4.229 -1.3091  0.5127  1.3383
  544MOL0     C73343  11.169   4.308   4.339 -0.5698  0.4665 -0.0548
  544MOL0     C73344  11.314   4.294   4.277 -1.7309 -0.9805  0.9669
  544MOL0     C73345  11.401   4.420   4.321  0.2076  1.0201  0.4418
  544MOL0     C73346  11.537   4.426   4.254  0.2477 -0.1437  0.1291
  544MOL0     C73347  11.540   4.454   4.104 -0.0724 -0.4001  0.6361
  544MOL0     C73348  11.637   4.379   4.030 -0.7490 -0.7984  0.5001
  544MOL0    Cl73349  11.797   4.443   4.100  0.3143  0.0072 -0.0027
  544MOL0     C73350  10.871   4.755   4.380 -0.3643  0.0817  0.1228
  544MOL0     C73351  10.789   4.826   4.466  0.2390  0.1122  0.1761
  544MOL0     O73352  10.453   4.895   4.394 -0.5447  0.2320  0.1538
  544MOL0     C73353  10.365   4.958   4.738 -0.2207  0.1461 -0.4111
  544MOL0     C73354  10.259   5.016   4.815 -0.1288  0.8219  0.0400
  544MOL0     N73355   9.637   5.588   4.550 -0.9830  0.7218 -0.0536
  544MOL0     N73356   9.524   5.644   4.527 -0.6293 -0.1710 -0.1628
  544MOL0     C73357   8.474   5.133   4.298  0.6134 -0.1146  0.0229
  544MOL0     C73358   8.348   5.139   4.252  1.1733  0.2208 -0.2629
  544MOL0     C73359   7.943   5.085   4.110 -0.4842  0.5913  0.7460
  544MOL0     C73360   7.859   5.145   4.210  0.3956 -0.3220 -0.7629
  544MOL0     C73361   7.733   5.190   4.173 -0.4516  0.0564 -0.1881
  544MOL0     C73362   7.686   5.178   4.047  0.1316  0.2482  0.7155
  544MOL0     O73363   7.562   5.199   3.994 -0.2248  0.4711  0.0845
  544MOL0     C73364   7.469   5.209   4.098  0.7204 -0.3055  0.3126
  544MOL0     C73365   7.330   5.190   4.031 -0.0872 -0.1236  0.5080
  544MOL0     C73366   7.221   5.278   4.097  0.6054 -0.0723 -0.4469
  544MOL0     C73367   7.084   5.281   4.021  1.1588 -0.1122 -0.0867
  544MOL0     C73368   7.021   5.141   4.026  0.2701 -0.4266  0.2827
  544MOL0     C73369   6.962   5.030   4.030  0.1453 -0.6252 -0.1613
  544MOL0     C73370   7.767   5.122   3.953  0.2022 -0.3604  0.8152
  544MOL0     C73371   7.900   5.080   3.979 -0.2272  1.1224 -0.2455
  544MOL0     C73372   7.984   5.035   3.859 -0.5409  0.4852 -0.4505
  544MOL0     H73373   8.212   4.904   4.458 -1.5358  0.5583 -2.3937
  544MOL0     H73374   8.465   4.887   4.517 -0.3607 -2.7028 -1.8288
  544MOL0     H73375   8.637   5.120   4.631  2.3528 -1.8794  1.6572
  544MOL0     H73376   8.714   4.961   4.598  0.4729 -2.1462 -2.5005
  544MOL0     H73377   8.910   5.081   4.506 -0.0655  2.3021 -1.9757
  544MOL0     H73378   8.883   5.142   4.674  0.0139  3.5171  0.8916
  544MOL0     H73379   8.759   5.321   4.603  1.4029 -0.0262  1.6723
  544MOL0     H73380   8.798   5.289   4.425  4.1363 -2.2682 -1.7856
  544MOL0     H73381   9.005   5.345   4.638  2.5228  0.0576 -1.6446
  544MOL0     H73382   9.032   5.308   4.475  0.2465 -1.7971  0.8897
  544MOL0     H73383   8.959   5.513   4.392 -2.4048  1.6746 -0.0205
  544MOL0     H73384   8.848   5.539   4.518  0.6386  1.1164 -2.4244
  544MOL0     H73385   9.029   5.691   4.542  0.4997 -0.3907 -0.5589
  544MOL0     H73386   9.039   5.590   4.684  1.6100  1.0577  0.3230
  544MOL0     H73387   9.204   5.568   4.430  1.0174 -0.5404 -0.2029
  544MOL0     H73388   9.224   5.446   4.561  0.8372  0.8525  2.6625
  544MOL0     H73389   9.292   5.737   4.590  1.6551  0.4724 -1.3003
  544MOL0     H73390   9.268   5.619   4.728 -3.2907  0.6035 -1.3949
  544MOL0     H73391   9.426   5.406   4.735  1.0809 -0.3978  0.6630
  544MOL0     H73392   9.628   5.284   4.697 -1.7766  2.7955  0.6691
  544MOL0     H73393   9.765   5.332   4.586 -1.7017 -2.5719 -1.4444
  544MOL0     H73394   9.865   5.473   4.772 -0.2171  1.3684  3.2315
  544MOL0     H73395   9.733   5.432   4.883  0.8647  0.6702 -0.5966
  544MOL0     H73396   9.800   5.184   4.865 -0.4848 -1.1922 -3.9010
  544MOL0     H73397   9.913   5.298   4.948  0.4051 -0.3179  0.8152
  544MOL0     H73398   9.996   5.303   4.693 -2.4564 -2.4903 -3.6081
  544MOL0     H73399   9.937   5.139   4.696  0.2143  0.4391 -0.2810
  544MOL0     H73400  10.131   5.202   4.563 -0.8924 -1.0276  0.1369
  544MOL0     H73401  10.298   5.078   4.435 -0.2947 -1.1071  0.2388
  544MOL0     H73402  10.547   4.577   4.498  1.2607 -2.6291  0.9606
  544MOL0     H73403  10.717   4.459   4.368 -1.8518  0.3197  0.3111
  544MOL0     H73404  10.925   4.370   4.386  3.0329  1.3078  0.6849
  544MOL0     H73405  10.862   4.362   4.220 -1.2036  0.2165  0.7196
  544MOL0     H73406  11.075   4.249   4.170  4.3462  1.5968 -0.6782
  544MOL0     H73407  11.121   4.420   4.171 -0.6330  1.1791  2.7675
  544MOL0     H73408  11.168   4.391   4.410  1.6688 -0.2911  0.9614
  544MOL0     H73409  11.125   4.220   4.386  0.4825 -1.1841 -2.0004
  544MOL0     H73410  11.332   4.291   4.169  2.1654  1.8354  1.3392
  544MOL0     H73411  11.369   4.207   4.313 -0.5407 -0.9199 -0.5799
  544MOL0     H73412  11.421   4.411   4.429  2.9005  3.1717  0.2240
  544MOL0     H73413  11.348   4.510   4.289 -1.4527  1.1625  3.1950
  544MOL0     H73414  11.606   4.497   4.300  1.1160 -1.5889  1.1564
  544MOL0     H73415  11.582   4.328   4.270 -2.9733 -1.6967  0.4028
  544MOL0     H73416  11.566   4.558   4.080 -0.1191 -0.9931 -2.4376
  544MOL0     H73417  11.436   4.441   4.071 -0.3161  0.1778  1.1437
  544MOL0     H73418  11.618   4.272   4.045 -1.8645 -0.6004  0.5564
  544MOL0     H73419  11.639   4.409   3.925  3.4672 -1.4248  0.2145
  544MOL0     H73420  10.958   4.806   4.340  2.5624 -3.2052  1.7854
  544MOL0     H73421  10.802   4.934   4.475 -0.8515  0.4470 -1.6311
  544MOL0     H73422  10.419   4.880   4.790  0.3310  0.5352 -0.3878
  544MOL0     H73423  10.239   4.996   4.920  0.4664 -0.3244 -0.0491
  544MOL0     H73424   8.541   5.207   4.256  0.2694 -0.7225 -1.7022
  544MOL0     H73425   8.326   5.213   4.176  3.6871  0.0951 -1.2180
  544MOL0     H73426   7.894   5.153   4.312 -1.7392  0.8105 -0.0620
  544MOL0     H73427   7.677   5.228   4.258 -2.1963 -4.0785  0.7455
  544MOL0     H73428   7.463   5.312   4.134  0.4977 -0.6064  1.1530
  544MOL0     H73429   7.478   5.158   4.194 -1.7425  0.4435  1.0290
  544MOL0     H73430   7.299   5.085   4.041 -0.5534  0.2098  3.3827
  544MOL0     H73431   7.338   5.226   3.928  2.4005  0.5407  0.8716
  544MOL0     H73432   7.246   5.385   4.094 -1.1827  0.3799 -0.9584
  544MOL0     H73433   7.213   5.252   4.203  0.2265 -0.2421 -0.5130
  544MOL0     H73434   7.016   5.354   4.066 -2.0334 -4.7407  3.6291
  544MOL0     H73435   7.096   5.303   3.915 -1.4896 -3.0300 -1.1281
  544MOL0     H73436   6.913   4.936   4.046 -0.8213  0.2473  2.6632
  544MOL0     H73437   7.736   5.110   3.850  2.8479  3.3253 -0.6178
  544MOL0     H73438   8.017   4.931   3.868  0.1083  0.4538 -2.6218
  544MOL0     H73439   7.922   5.049   3.769 -1.2018 -1.5384 -0.3607
  544MOL0     H73440   8.075   5.094   3.850 -0.5070  0.2522 -1.8366
  545MOL0     O73441   4.204   3.722  10.674 -0.2971  0.5178 -0.4841
  545MOL0     C73442   4.133   3.715  10.771  0.6963 -0.3570 -0.6407
  545MOL0     O73443   4.167   3.739  10.902 -0.4119  0.5479 -0.8579
  545MOL0     C73444   4.298   3.776  10.927  0.3984 -0.2048 -0.5866
  545MOL0     C73445   4.372   3.858  10.852 -0.7262 -0.6829  0.5135
  545MOL0     C73446   4.504   3.891  10.868 -0.5140  0.5249  0.0597
  545MOL0     C73447   4.570   3.855  10.980 -0.1688 -0.5273  0.0477
  545MOL0     O73448   4.699   3.904  10.995  0.2425  0.3232 -0.4159
  545MOL0     C73449   4.780   3.836  11.086  0.5090 -0.3161  0.0489
  545MOL0     C73450   4.927   3.866  11.048  0.0609  0.4350  0.0703
  545MOL0     C73451   4.951   4.021  11.043  0.0295  0.5197 -0.5782
  545MOL0     C73452   5.099   4.058  11.019 -0.4293  0.0527 -0.0585
  545MOL0     C73453   5.180   4.024  11.141 -0.0686 -0.1727 -0.0504
  545MOL0     C73454   5.323   4.078  11.144  0.0046 -0.3745  0.2070
  545MOL0     C73455   5.410   4.025  11.025  0.7472 -0.4914 -0.2956
  545MOL0     C73456   5.413   3.866  11.023  0.4267 -0.7456  0.2362
  545MOL0     N73457   5.534   3.834  10.952 -0.4543  0.9346 -0.7673
  545MOL0     C73458   5.618   3.736  11.010  0.6037 -0.2222 -0.0619
  545MOL0     C73459   5.739   3.746  10.945 -0.1865  0.1866 -0.2679
  545MOL0     C73460   5.856   3.667  10.952 -0.1661  0.7358 -0.2543
  545MOL0     C73461   5.928   3.668  11.085  0.3479 -0.7242 -0.5170
  545MOL0     C73462   6.076   3.632  11.081 -0.3075  0.9476 -0.1373
  545MOL0     C73463   6.133   3.626  11.212 -1.1638 -0.4589  0.8213
  545MOL0     O73464   6.217   3.515  11.216  0.0222  0.5106  0.4588
  545MOL0     C73465   6.351   3.534  11.173 -0.0394  0.3573 -0.5140
  545MOL0     C73466   6.420   3.411  11.161 -0.4197 -0.3940  0.7769
  545MOL0     C73467   6.554   3.415  11.112 -0.1132  0.0481  0.3806
  545MOL0     C73468   6.613   3.538  11.063  0.6134 -0.4271 -0.2911
  545MOL0     C73469   6.747   3.537  11.009  1.1669 -0.3061  0.0646
  545MOL0     O73470   6.823   3.421  11.038 -0.2199  0.2228 -0.9620
  545MOL0     C73471   6.954   3.405  11.012 -0.3552 -0.4264  0.0440
  545MOL0     C73472   7.026   3.468  10.903 -0.4373 -0.0470  0.3921
  545MOL0     C73473   7.156   3.442  10.874  0.3145 -0.3970 -0.8092
  545MOL0     C73474   7.223   3.345  10.952 -0.4884 -0.7736  0.9582
  545MOL0     O73475   7.357   3.309  10.935 -0.2127  0.2224 -0.3918
  545MOL0     C73476   7.446   3.386  10.855 -0.1924 -0.3497  0.4551
  545MOL0     C73477   7.543   3.292  10.790 -0.5449  0.5715 -0.0117
  545MOL0     C73478   7.623   3.219  10.898 -0.5953  0.2165 -0.4077
  545MOL0     C73479   7.728   3.131  10.840 -0.3175  0.2953  1.0987
  545MOL0     C73480   7.808   3.069  10.957 -0.0481 -0.4093  1.1072
  545MOL0     C73481   7.931   2.990  10.915  0.0054  0.2894 -0.2087
  545MOL0     C73482   8.044   3.064  10.834  0.4140  0.7364  0.1096
  545MOL0     C73483   8.160   2.978  10.795  0.1767  0.2149 -0.0607
  545MOL0    Cl73484   8.260   3.069  10.685 -0.0794 -0.0694  0.0652
  545MOL0     C73485   7.148   3.266  11.040 -0.0434  0.6041  0.7296
  545MOL0     C73486   7.020   3.305  11.075 -0.0169  0.0445  0.5366
  545MOL0     O73487   6.792   3.636  10.962 -0.3963 -0.4320  0.4307
  545MOL0     C73488   6.534   3.656  11.079 -0.0324  0.3315  0.1223
  545MOL0     C73489   6.403   3.655  11.128  0.0693  0.3089 -0.1139
  545MOL0     N73490   5.717   3.850  10.848  0.1573  0.5817  0.0749
  545MOL0     N73491   5.594   3.896  10.853 -0.3267 -0.8934  0.4699
  545MOL0     C73492   4.500   3.766  11.073 -0.0655 -0.0817 -0.2217
  545MOL0     C73493   4.362   3.729  11.046 -0.1747 -0.1987  1.3935
  545MOL0     C73494   3.984   3.679  10.751 -0.8477 -0.5825  0.2772
  545MOL0     C73495   3.894   3.714  10.851 -0.0743 -1.2245  0.6282
  545MOL0     C73496   3.753   3.703  10.835  0.7229 -0.7765  0.1288
  545MOL0     C73497   3.709   3.667  10.710 -0.0454 -0.3822  0.1612
  545MOL0     O73498   3.577   3.651  10.680  0.1404 -0.9206  0.4082
  545MOL0     C73499   3.482   3.619  10.780 -0.3334 -0.6536 -1.0034
  545MOL0     C73500   3.342   3.584  10.735 -0.2608  0.3132 -0.1045
  545MOL0     C73501   3.343   3.479  10.625 -0.5230 -0.1717 -0.6506
  545MOL0     C73502   3.201   3.454  10.574 -0.4481 -0.2117  0.3000
  545MOL0     C73503   3.185   3.335  10.489  0.0839  0.3840  0.3718
  545MOL0     C73504   3.149   3.257  10.402 -0.4240  0.0790  0.5914
  545MOL0     C73505   3.796   3.638  10.612  0.0041  0.1905 -0.3272
  545MOL0     C73506   3.932   3.645  10.627 -0.0617 -0.5433  0.2681
  545MOL0     C73507   4.022   3.628  10.503  0.7586  0.0533 -0.0691
  545MOL0     H73508   4.326   3.911  10.769 -0.5667 -0.5307  0.5217
  545MOL0     H73509   4.545   3.939  10.780 -1.2629  1.3837  0.1652
  545MOL0     H73510   4.764   3.876  11.186  0.0518 -0.2912 -0.0298
  545MOL0     H73511   4.766   3.728  11.094 -0.4769 -0.0397  3.6253
  545MOL0     H73512   4.964   3.810  10.962 -1.9919 -1.5161  0.3506
  545MOL0     H73513   4.982   3.829  11.135 -0.2140  1.0873  0.5254
  545MOL0     H73514   4.902   4.067  11.129 -1.1234 -0.7199 -0.5375
  545MOL0     H73515   4.897   4.053  10.953 -1.5529  2.2067  0.9147
  545MOL0     H73516   5.126   3.999  10.931 -1.5968  0.1108 -0.4815
  545MOL0     H73517   5.099   4.166  11.004 -1.0016 -0.0755 -1.1243
  545MOL0     H73518   5.131   4.069  11.228 -0.0584  2.2657 -1.2557
  545MOL0     H73519   5.191   3.915  11.149 -1.1858 -0.3895 -1.1627
  545MOL0     H73520   5.322   4.187  11.144  1.6125 -0.2952 -1.8640
  545MOL0     H73521   5.358   4.063  11.246 -1.0646  2.4317  1.0560
  545MOL0     H73522   5.511   4.062  11.044  1.1372 -2.0518  0.8173
  545MOL0     H73523   5.369   4.048  10.927 -3.2408  0.1893  1.3346
  545MOL0     H73524   5.414   3.823  11.124  0.5057  0.8891  0.9822
  545MOL0     H73525   5.327   3.821  10.973 -2.7697 -0.5587  4.8577
  545MOL0     H73526   5.596   3.674  11.096  3.3582  1.4615  2.0272
  545MOL0     H73527   5.836   3.564  10.922  0.3347  0.6863 -0.4399
  545MOL0     H73528   5.930   3.709  10.883  2.3142 -2.8410 -0.0387
  545MOL0     H73529   5.926   3.772  11.120 -0.3771 -1.6000  2.3698
  545MOL0     H73530   5.861   3.607  11.147 -3.3841  2.2072 -1.2998
  545MOL0     H73531   6.135   3.704  11.023  1.2914  0.2295  0.5300
  545MOL0     H73532   6.075   3.539  11.024 -1.8984  2.0904 -2.1379
  545MOL0     H73533   6.050   3.622  11.283 -2.4328 -2.4776 -0.6878
  545MOL0     H73534   6.188   3.719  11.231 -0.0088 -1.0226  0.3076
  545MOL0     H73535   6.378   3.316  11.193  2.9479 -2.3893 -0.1926
  545MOL0     H73536   6.610   3.323  11.093  1.3791  0.8108  0.9386
  545MOL0     H73537   6.972   3.534  10.836 -0.7947 -0.7232 -0.0052
  545MOL0     H73538   7.198   3.516  10.807  0.4230 -2.9589 -3.8114
  545MOL0     H73539   7.399   3.450  10.780  1.2650 -0.4074 -0.5492
  545MOL0     H73540   7.505   3.460  10.910  1.9044 -0.8842 -0.9532
  545MOL0     H73541   7.486   3.223  10.726 -3.7121  0.9563  2.1621
  545MOL0     H73542   7.607   3.355  10.729 -1.2149  1.5385  0.2681
  545MOL0     H73543   7.679   3.300  10.946  0.6722 -0.9358  0.1293
  545MOL0     H73544   7.559   3.168  10.971 -0.4026  0.4732 -0.0541
  545MOL0     H73545   7.794   3.195  10.781 -1.5292 -0.9163 -1.7855
  545MOL0     H73546   7.678   3.053  10.781 -1.4781  1.1780  0.8928
  545MOL0     H73547   7.735   3.009  11.012 -2.9979  0.6796 -1.3427
  545MOL0     H73548   7.852   3.151  11.016  0.4896  0.1706 -0.0742
  545MOL0     H73549   7.961   2.937  11.006 -2.5134  2.8969  2.3522
  545MOL0     H73550   7.901   2.904  10.855  3.0113 -1.2380  0.2902
  545MOL0     H73551   8.091   3.144  10.893 -0.8407  0.7338  1.1733
  545MOL0     H73552   7.997   3.100  10.743  1.1230 -1.3922 -1.1639
  545MOL0     H73553   8.203   2.936  10.886  0.9535  1.0302 -0.0454
  545MOL0     H73554   8.114   2.889  10.749 -0.3865  1.1069 -1.2850
  545MOL0     H73555   7.215   3.200  11.094  1.7130  1.6792 -0.0443
  545MOL0     H73556   6.965   3.261  11.158  0.5767  0.5287  1.1946
  545MOL0     H73557   6.580   3.749  11.049  0.8362 -0.2795 -0.5263
  545MOL0     H73558   6.347   3.748  11.136 -0.1319  0.1831 -0.0378
  545MOL0     H73559   4.543   3.731  11.167 -2.7211 -0.1768  1.0455
  545MOL0     H73560   4.320   3.650  11.107  0.4741 -1.8114 -0.1739
  545MOL0     H73561   3.920   3.761  10.946  1.2016 -2.9364  1.1767
  545MOL0     H73562   3.679   3.736  10.907 -2.7715 -2.8369 -2.1921
  545MOL0     H73563   3.475   3.702  10.851  0.7333 -1.1000 -0.3574
  545MOL0     H73564   3.519   3.536  10.841  0.5951  1.7759  2.0562
  545MOL0     H73565   3.293   3.675  10.700  0.3037  0.5982 -0.1692
  545MOL0     H73566   3.283   3.544  10.818 -0.1231 -0.6252 -0.4502
  545MOL0     H73567   3.390   3.385  10.657  2.3798  0.3012 -3.1202
  545MOL0     H73568   3.408   3.518  10.547 -0.4562 -0.1554 -0.5869
  545MOL0     H73569   3.127   3.444  10.653 -2.2938 -0.5409 -1.3798
  545MOL0     H73570   3.174   3.535  10.505  0.5038 -0.4044 -0.3299
  545MOL0     H73571   3.101   3.185  10.340 -0.4677  1.0114 -0.4988
  545MOL0     H73572   3.747   3.616  10.518 -0.5189 -0.0609  0.0040
  545MOL0     H73573   4.068   3.718  10.460  4.8223 -1.3378  0.9026
  545MOL0     H73574   4.089   3.546  10.531 -2.8267 -2.1709  2.9570
  545MOL0     H73575   3.958   3.593  10.422  0.0028 -1.7965  1.2575
  546MOL0     O73576   7.519   7.894   2.241 -0.0144 -0.0641  0.1269
  546MOL0     C73577   7.483   7.958   2.142  0.7014 -1.0281  0.8077
  546MOL0     O73578   7.561   7.977   2.026  0.1147 -0.4755 -0.0639
  546MOL0     C73579   7.690   7.921   2.023  0.7066  0.2099  0.9086
  546MOL0     C73580   7.709   7.831   1.919  0.1946  0.4482 -0.1226
  546MOL0     C73581   7.825   7.761   1.911 -0.1452 -0.4680  0.0494
  546MOL0     C73582   7.924   7.789   1.998 -0.1623  0.0450 -0.1688
  546MOL0     O73583   8.041   7.718   1.982  0.2983  0.0360  0.0308
  546MOL0     C73584   8.144   7.710   2.083 -1.0448 -0.0242 -1.0842
  546MOL0     C73585   8.097   7.607   2.185  0.1369  0.1054 -0.9610
  546MOL0     C73586   8.183   7.583   2.310 -0.5543  0.2635  0.5269
  546MOL0     C73587   8.331   7.569   2.276  0.5534  0.4322  0.1166
  546MOL0     C73588   8.417   7.547   2.398 -0.3227  0.9561 -0.2589
  546MOL0     C73589   8.569   7.522   2.368  0.3953  0.1734  0.5589
  546MOL0     C73590   8.637   7.523   2.504 -0.6145 -0.0497  0.0003
  546MOL0     C73591   8.794   7.498   2.511  0.4226  0.0340 -0.7521
  546MOL0     N73592   8.861   7.607   2.437  0.5851 -0.2038  0.4566
  546MOL0     C73593   8.962   7.585   2.347 -0.7005 -0.2662 -0.5210
  546MOL0     C73594   9.003   7.707   2.300  0.0052 -0.0957  0.2558
  546MOL0     C73595   9.125   7.726   2.218  0.8336 -0.0264 -0.7753
  546MOL0     C73596   9.246   7.766   2.307 -0.2390  0.1740  0.2368
  546MOL0     C73597   9.376   7.751   2.245  0.8912 -0.0898  0.4917
  546MOL0     C73598   9.490   7.786   2.332  0.4756  0.1570  0.3707
  546MOL0     O73599   9.611   7.752   2.263 -0.3552  0.0490  0.5315
  546MOL0     C73600   9.728   7.740   2.333 -0.1508 -0.4560 -0.3291
  546MOL0     C73601   9.851   7.716   2.264  0.1786  0.0342  0.1654
  546MOL0     C73602   9.970   7.702   2.338 -0.3562  0.0929  0.0383
  546MOL0     C73603   9.973   7.696   2.480 -0.0474 -0.7451  0.8368
  546MOL0     C73604  10.104   7.692   2.550 -0.0688  1.1059 -0.1589
  546MOL0     O73605  10.220   7.683   2.479  0.1676  0.6174  0.2254
  546MOL0     C73606  10.343   7.682   2.547 -0.2405  0.3898 -0.5227
  546MOL0     C73607  10.370   7.763   2.653 -0.2503 -0.8594 -0.3669
  546MOL0     C73608  10.497   7.762   2.722  0.7472  0.8296 -0.1462
  546MOL0     C73609  10.594   7.665   2.671  0.0103  0.3558 -0.6464
  546MOL0     O73610  10.718   7.670   2.730 -0.3787  0.0676  0.7616
  546MOL0     C73611  10.814   7.559   2.716  0.3996 -0.6420 -0.1418
  546MOL0     C73612  10.940   7.592   2.789  0.2528 -0.1070  1.1011
  546MOL0     C73613  10.918   7.556   2.933 -0.6860  0.9797 -0.0179
  546MOL0     C73614  11.051   7.596   2.999 -0.4084  0.1430 -0.3435
  546MOL0     C73615  11.070   7.546   3.143 -0.4032  0.4070 -0.5142
  546MOL0     C73616  11.159   7.625   3.229  0.1771  0.0650  0.3678
  546MOL0     C73617  11.307   7.626   3.183 -0.4614 -0.1459 -0.3405
  546MOL0     C73618  11.379   7.490   3.215  0.7777  0.4551  0.2169
  546MOL0    Cl73619  11.394   7.481   3.392 -0.5215  0.1597  0.0383
  546MOL0     C73620  10.560   7.589   2.565 -0.0849 -0.1716 -0.1125
  546MOL0     C73621  10.435   7.591   2.503 -0.2015 -0.2052  0.1986
  546MOL0     O73622  10.095   7.696   2.673  0.0982 -0.6431 -0.1542
  546MOL0     C73623   9.850   7.711   2.544 -0.9574 -0.4094 -0.8337
  546MOL0     C73624   9.736   7.732   2.470 -0.6175 -0.0865 -1.3215
  546MOL0     N73625   8.937   7.806   2.371  0.1782  0.2847  0.7554
  546MOL0     N73626   8.855   7.746   2.450  0.0399 -0.2582  0.1653
  546MOL0     C73627   7.911   7.882   2.102 -0.0525 -0.4610 -0.2340
  546MOL0     C73628   7.790   7.950   2.109  0.2518  0.1391  0.4166
  546MOL0     C73629   7.346   8.022   2.129 -1.2600  0.0315 -0.9223
  546MOL0     C73630   7.289   8.036   2.001 -0.6737 -0.5895  0.2942
  546MOL0     C73631   7.170   8.107   1.985  0.5495  0.5276  0.5811
  546MOL0     C73632   7.099   8.158   2.096 -0.9250 -0.5806  0.3832
  546MOL0     O73633   6.977   8.209   2.103 -0.0720 -0.4222 -0.0210
  546MOL0     C73634   6.883   8.148   2.016 -0.3922 -0.3045 -0.0544
  546MOL0     C73635   6.762   8.242   1.981  0.9000 -0.0104  0.2599
  546MOL0     C73636   6.673   8.284   2.101 -0.8290  0.0155 -0.3358
  546MOL0     C73637   6.557   8.362   2.040 -0.0070 -0.4077  0.3781
  546MOL0     C73638   6.470   8.416   2.149  0.7222 -0.9316  0.4797
  546MOL0     C73639   6.398   8.455   2.233 -0.5038 -0.7643  0.5228
  546MOL0     C73640   7.166   8.151   2.217  0.3349 -0.1350 -0.5704
  546MOL0     C73641   7.281   8.082   2.238 -0.7845 -0.4831 -0.5976
  546MOL0     C73642   7.314   8.046   2.381 -0.1980 -0.2297 -0.0702
  546MOL0     H73643   7.627   7.806   1.853 -1.1916  0.2292  1.6112
  546MOL0     H73644   7.838   7.685   1.834  1.5193 -0.6031  0.4134
  546MOL0     H73645   8.239   7.675   2.042 -0.4302 -0.7745  0.8471
  546MOL0     H73646   8.170   7.804   2.132  0.4558 -0.1018 -1.7003
  546MOL0     H73647   8.101   7.508   2.139  2.2796 -0.5286  0.4266
  546MOL0     H73648   7.999   7.621   2.232  2.0433 -1.3728  4.2576
  546MOL0     H73649   8.142   7.494   2.359  0.9763 -0.3873  0.6913
  546MOL0     H73650   8.177   7.672   2.373  1.2189 -0.7148  2.2201
  546MOL0     H73651   8.355   7.505   2.190  0.7959  0.6576  0.0150
  546MOL0     H73652   8.355   7.662   2.224  0.3045 -1.1675 -3.1203
  546MOL0     H73653   8.407   7.629   2.470 -1.4848 -1.4248  2.4664
  546MOL0     H73654   8.386   7.453   2.445  0.8541  0.8205  0.2723
  546MOL0     H73655   8.583   7.419   2.334  1.4138 -0.0945  1.7247
  546MOL0     H73656   8.603   7.608   2.310 -0.9773  1.4282  1.5495
  546MOL0     H73657   8.582   7.453   2.568  0.5154  0.6036  1.7614
  546MOL0     H73658   8.630   7.618   2.559  2.2124  0.2563 -0.0616
  546MOL0     H73659   8.841   7.501   2.609  2.2101  0.8551 -1.5890
  546MOL0     H73660   8.811   7.397   2.472 -0.5673  0.3133 -1.9913
  546MOL0     H73661   8.999   7.493   2.302 -2.4247 -0.6752 -1.1952
  546MOL0     H73662   9.149   7.628   2.175 -0.1840 -0.4008 -0.5322
  546MOL0     H73663   9.111   7.810   2.149 -0.6532  0.2536 -0.1740
  546MOL0     H73664   9.237   7.870   2.339 -0.4913 -0.0592  0.9294
  546MOL0     H73665   9.260   7.700   2.393  0.8572 -1.2612 -0.9934
  546MOL0     H73666   9.366   7.811   2.154 -2.2465  1.3108  1.5915
  546MOL0     H73667   9.401   7.648   2.218  0.2301 -0.2617  0.5154
  546MOL0     H73668   9.476   7.729   2.425 -2.1290  0.0677  0.0117
  546MOL0     H73669   9.493   7.894   2.353 -1.6040  0.0093  1.8059
  546MOL0     H73670   9.867   7.716   2.156  0.4406 -1.0418  0.1874
  546MOL0     H73671  10.060   7.702   2.276 -0.7119 -0.3200 -0.4911
  546MOL0     H73672  10.311   7.847   2.690  1.7354 -1.1112  4.0647
  546MOL0     H73673  10.512   7.846   2.788 -0.4560 -0.1988  1.5073
  546MOL0     H73674  10.759   7.474   2.757 -1.5551  1.3874  1.7320
  546MOL0     H73675  10.828   7.541   2.609 -4.2164  0.9027 -1.2356
  546MOL0     H73676  11.023   7.536   2.745 -1.7406  0.6270 -4.3908
  546MOL0     H73677  10.970   7.697   2.775  0.9312 -0.4555 -0.2867
  546MOL0     H73678  10.830   7.613   2.963 -1.0401 -0.1963  1.3168
  546MOL0     H73679  10.909   7.447   2.940  4.0567  0.4082  0.3981
  546MOL0     H73680  11.062   7.705   3.009  1.2300 -0.1189  1.2737
  546MOL0     H73681  11.136   7.560   2.940  1.3427 -2.6925  3.4774
  546MOL0     H73682  11.098   7.441   3.135  0.5155  0.4972  1.0568
  546MOL0     H73683  10.976   7.556   3.199 -0.0634 -0.2079  0.1671
  546MOL0     H73684  11.112   7.724   3.231  0.1082  0.0895 -1.3725
  546MOL0     H73685  11.161   7.583   3.330 -0.7162 -3.1422 -0.8218
  546MOL0     H73686  11.355   7.704   3.242 -3.0297  1.2628 -0.0026
  546MOL0     H73687  11.326   7.648   3.077  2.4349 -0.9620 -0.0961
  546MOL0     H73688  11.321   7.409   3.168  1.9129  1.2238 -2.7063
  546MOL0     H73689  11.469   7.474   3.156  0.4546  2.6604 -0.9894
  546MOL0     H73690  10.639   7.525   2.527 -0.7624 -0.5183 -0.9760
  546MOL0     H73691  10.408   7.532   2.415  1.3180  0.8076 -1.0090
  546MOL0     H73692   9.847   7.714   2.652  0.8714 -0.7558 -0.7332
  546MOL0     H73693   9.646   7.734   2.531  0.1327  0.0041 -0.1697
  546MOL0     H73694   7.977   7.919   2.180  0.5727 -1.7543 -0.1300
  546MOL0     H73695   7.780   8.033   2.179  0.8619  1.4784 -1.0250
  546MOL0     H73696   7.335   7.997   1.911  0.0070  1.4162 -0.2848
  546MOL0     H73697   7.132   8.118   1.884  0.2678 -1.5136  0.4208
  546MOL0     H73698   6.843   8.059   2.066  0.8149 -1.8636 -1.6872
  546MOL0     H73699   6.929   8.120   1.920  0.3318 -0.6678  0.3897
  546MOL0     H73700   6.699   8.186   1.911  1.6495  0.3300 -0.7009
  546MOL0     H73701   6.790   8.336   1.932 -1.3197  1.3564  1.3987
  546MOL0     H73702   6.735   8.341   2.172  2.1150 -2.3889 -0.8108
  546MOL0     H73703   6.633   8.194   2.150  1.0072 -1.1615 -0.9264
  546MOL0     H73704   6.605   8.438   1.978 -0.8234  0.8162  1.1944
  546MOL0     H73705   6.497   8.303   1.969  1.5868 -1.9889  0.2849
  546MOL0     H73706   6.333   8.498   2.306 -1.7250 -2.4782  0.5015
  546MOL0     H73707   7.112   8.199   2.298  1.1407  1.4502 -0.9257
  546MOL0     H73708   7.230   8.050   2.452 -0.7527 -0.0390 -0.7274
  546MOL0     H73709   7.348   7.942   2.383  1.5239  0.2753  2.7348
  546MOL0     H73710   7.400   8.101   2.419  0.7221 -2.1271  0.7211
  547MOL0     O73711   6.558   0.486   2.327 -0.2616  0.4834 -0.1172
  547MOL0     C73712   6.540   0.539   2.218  1.1281  0.3927  0.0236
  547MOL0     O73713   6.637   0.562   2.129  0.1862 -0.0564  0.4135
  547MOL0     C73714   6.780   0.562   2.161  0.6069 -0.4801 -0.5197
  547MOL0     C73715   6.844   0.504   2.282  0.1558 -0.5154  0.0687
  547MOL0     C73716   6.978   0.531   2.303 -0.1624 -0.9669 -0.0289
  547MOL0     C73717   7.055   0.613   2.219  0.0084 -0.2879  0.1321
  547MOL0     O73718   7.189   0.634   2.255 -0.1381  0.3316  0.1364
  547MOL0     C73719   7.258   0.747   2.192 -0.0859  1.1241  0.6035
  547MOL0     C73720   7.405   0.745   2.233  0.4819 -0.2493 -0.2814
  547MOL0     C73721   7.480   0.612   2.206  0.4881  0.2725 -0.2883
  547MOL0     C73722   7.620   0.612   2.255  0.0725  0.1029 -0.1200
  547MOL0     C73723   7.709   0.512   2.180 -0.0147 -0.0691 -0.5275
  547MOL0     C73724   7.849   0.485   2.262 -0.5412  0.4485 -0.1250
  547MOL0     C73725   7.922   0.606   2.320 -0.7070 -0.7434 -0.2337
  547MOL0     C73726   8.026   0.560   2.433  0.2174  0.2001 -0.1632
  547MOL0     N73727   8.138   0.488   2.375  0.5668  0.6634  0.3225
  547MOL0     C73728   8.237   0.560   2.308 -0.5662  0.0355  0.3307
  547MOL0     C73729   8.300   0.462   2.233 -0.3877 -0.1674 -0.0116
  547MOL0     C73730   8.411   0.482   2.130  0.0688  0.5656  0.4170
  547MOL0     C73731   8.555   0.430   2.172 -0.8751  0.3003  0.6091
  547MOL0     C73732   8.637   0.547   2.230 -1.0500  0.0712 -0.1415
  547MOL0     C73733   8.584   0.613   2.351 -0.2692  0.9250  0.2966
  547MOL0     O73734   8.686   0.690   2.423 -0.2700 -0.1643 -0.8549
  547MOL0     C73735   8.796   0.624   2.486  0.6882 -0.3589  0.2543
  547MOL0     C73736   8.803   0.488   2.520 -0.0132  0.2291  0.3616
  547MOL0     C73737   8.926   0.431   2.573  0.6073  1.0175 -0.0749
  547MOL0     C73738   9.038   0.512   2.576  0.0170  0.3117  0.2274
  547MOL0     C73739   9.167   0.460   2.614  0.1986  0.0841  0.2036
  547MOL0     O73740   9.190   0.338   2.582  0.4628 -0.0478  0.0025
  547MOL0     C73741   9.313   0.273   2.592 -0.1634 -1.2018  0.8900
  547MOL0     C73742   9.436   0.338   2.547 -0.3968  0.6452 -0.3282
  547MOL0     C73743   9.554   0.257   2.555  0.2824  0.9490 -0.5145
  547MOL0     C73744   9.550   0.124   2.591 -0.2384 -0.0974  0.7351
  547MOL0     O73745   9.665   0.050   2.585 -0.5674  0.4047  0.0045
  547MOL0     C73746   9.784   0.113   2.640 -0.6387 -0.0486  0.6337
  547MOL0     C73747   9.893   0.010   2.626  0.5976 -0.0738  0.2099
  547MOL0     C73748  10.031   0.071   2.675  0.7856  0.3472  0.4980
  547MOL0     C73749  10.134  -0.040   2.654  0.8510  0.9716 -0.0188
  547MOL0     C73750  10.272   0.022   2.675  0.1082  0.3589 -0.1014
  547MOL0     C73751  10.368  -0.099   2.639  0.5256 -0.7025 -0.0275
  547MOL0     C73752  10.506  -0.038   2.596 -0.2918 -0.2730 -0.6966
  547MOL0     C73753  10.619  -0.140   2.600  0.5218  0.0289  1.0421
  547MOL0    Cl73754  10.745  -0.106   2.487 -0.1701  0.3860 -0.1657
  547MOL0     C73755   9.428   0.069   2.622  0.2427 -0.4627  0.5892
  547MOL0     C73756   9.307   0.139   2.617 -0.0214  0.3352 -0.5542
  547MOL0     O73757   9.242   0.534   2.669  0.0424 -0.3367 -0.0158
  547MOL0     C73758   9.023   0.647   2.562 -0.2092 -0.8751  0.1039
  547MOL0     C73759   8.904   0.706   2.520 -0.1954 -0.5381  0.7152
  547MOL0     N73760   8.252   0.336   2.272 -0.4234  0.1348  0.3889
  547MOL0     N73761   8.160   0.351   2.359 -0.3598 -0.1339 -0.1033
  547MOL0     C73762   6.987   0.674   2.111 -0.0549 -0.2902 -0.8084
  547MOL0     C73763   6.855   0.649   2.084  0.8637  1.0870 -0.0392
  547MOL0     C73764   6.398   0.540   2.170 -0.2982 -0.3863  0.0988
  547MOL0     C73765   6.373   0.564   2.031 -0.2907  0.8659  0.5411
  547MOL0     C73766   6.244   0.587   1.982  0.6624 -0.4228  0.2485
  547MOL0     C73767   6.138   0.577   2.066  0.9105 -0.4876  0.2603
  547MOL0     O73768   6.015   0.591   2.009 -0.1729 -0.3142 -0.8843
  547MOL0     C73769   5.905   0.615   2.102  0.1640 -0.5024  0.0891
  547MOL0     C73770   5.777   0.671   2.034  0.2655  0.0958  0.1797
  547MOL0     C73771   5.681   0.572   1.967  0.2828 -0.2641  0.0405
  547MOL0     C73772   5.529   0.602   1.980  0.1058  0.0349 -0.1473
  547MOL0     C73773   5.488   0.701   1.885 -0.6711  0.3840  0.2184
  547MOL0     C73774   5.455   0.772   1.795 -0.2397 -0.1792  1.1435
  547MOL0     C73775   6.160   0.569   2.203 -0.7184  1.4650 -0.1730
  547MOL0     C73776   6.289   0.550   2.261  0.3442 -0.6343  0.1521
  547MOL0     C73777   6.284   0.550   2.412 -0.1122  0.0092 -0.0059
  547MOL0     H73778   6.789   0.429   2.338 -1.1341  0.3713  0.0429
  547MOL0     H73779   7.038   0.485   2.382  0.1836 -2.1193 -0.9203
  547MOL0     H73780   7.260   0.734   2.083 -0.3752 -0.3423  0.7526
  547MOL0     H73781   7.218   0.845   2.219  0.2682  1.9343 -1.6124
  547MOL0     H73782   7.413   0.778   2.337 -1.7581 -0.7992  0.1244
  547MOL0     H73783   7.456   0.824   2.177  0.0882  2.0299  2.3703
  547MOL0     H73784   7.474   0.592   2.099 -0.8882  0.9096 -0.3614
  547MOL0     H73785   7.426   0.532   2.259 -0.6021  0.7048 -0.7244
  547MOL0     H73786   7.654   0.715   2.237 -1.0129  0.5723  0.4129
  547MOL0     H73787   7.621   0.598   2.364  1.3803 -0.6269 -0.2031
  547MOL0     H73788   7.658   0.416   2.166  0.9901 -0.5055 -1.2847
  547MOL0     H73789   7.729   0.546   2.078 -2.2134  0.5152 -0.8102
  547MOL0     H73790   7.827   0.407   2.336 -0.7641  1.1372  0.5542
  547MOL0     H73791   7.913   0.440   2.186 -0.2150 -1.5060  1.2194
  547MOL0     H73792   7.841   0.660   2.371 -2.0035 -3.1305  0.3817
  547MOL0     H73793   7.968   0.669   2.243 -0.2063  0.0195  0.6680
  547MOL0     H73794   8.055   0.650   2.489 -1.3517  1.0914 -0.7065
  547MOL0     H73795   7.968   0.492   2.496 -3.1575 -0.3784 -3.5245
  547MOL0     H73796   8.258   0.666   2.301  1.1896 -0.3436 -0.8373
  547MOL0     H73797   8.391   0.428   2.037  1.9159 -0.6184  0.6567
  547MOL0     H73798   8.426   0.587   2.106  3.7372 -0.0902 -0.8702
  547MOL0     H73799   8.553   0.344   2.240 -0.1043 -0.4401 -0.2560
  547MOL0     H73800   8.618   0.401   2.087  4.5522  3.2027  3.1261
  547MOL0     H73801   8.648   0.624   2.153  1.8681 -1.3256 -1.2526
  547MOL0     H73802   8.735   0.508   2.257 -0.2493  1.8085 -0.3654
  547MOL0     H73803   8.561   0.535   2.424  1.6637  0.1350  0.1166
  547MOL0     H73804   8.496   0.672   2.325 -1.2870 -0.3455  0.7828
  547MOL0     H73805   8.720   0.426   2.490 -0.4511  0.7486  0.4750
  547MOL0     H73806   8.937   0.325   2.591 -2.7559  1.0468  3.5484
  547MOL0     H73807   9.445   0.443   2.520 -2.7139  1.7582  2.6350
  547MOL0     H73808   9.651   0.302   2.537 -0.2426  1.6077 -1.8553
  547MOL0     H73809   9.811   0.203   2.584 -0.2307 -2.6757 -3.8414
  547MOL0     H73810   9.762   0.137   2.745 -2.0035  0.2897  0.2915
  547MOL0     H73811   9.871  -0.081   2.684  1.5765  0.6771  1.8326
  547MOL0     H73812   9.893  -0.008   2.518 -2.6921  0.6955 -0.0309
  547MOL0     H73813  10.057   0.153   2.608  1.3792 -1.6117 -1.7922
  547MOL0     H73814  10.023   0.098   2.781 -0.0818  2.2568 -0.0248
  547MOL0     H73815  10.111  -0.089   2.559 -0.3786  0.0534  0.7134
  547MOL0     H73816  10.123  -0.116   2.732  2.0328  0.8513  0.0467
  547MOL0     H73817  10.279   0.051   2.780 -1.7681 -1.0782  0.4716
  547MOL0     H73818  10.290   0.105   2.606  1.1001  1.0524  0.9622
  547MOL0     H73819  10.370  -0.176   2.717  0.8475 -0.3039  0.3657
  547MOL0     H73820  10.334  -0.158   2.553  1.8820 -1.7040  0.0951
  547MOL0     H73821  10.541   0.037   2.668  0.7564 -0.3769 -1.0722
  547MOL0     H73822  10.498   0.004   2.495 -1.4897  0.2496 -0.4064
  547MOL0     H73823  10.661  -0.141   2.701 -0.5521  0.3494  1.5197
  547MOL0     H73824  10.571  -0.236   2.581 -2.5812  1.4080  1.1857
  547MOL0     H73825   9.427  -0.035   2.654  0.0770 -0.1214  1.7128
  547MOL0     H73826   9.210   0.091   2.626  0.4900 -0.4477  1.3992
  547MOL0     H73827   9.100   0.720   2.586 -0.4905 -1.2213  2.3260
  547MOL0     H73828   8.893   0.813   2.504 -4.4600 -0.6867  1.4188
  547MOL0     H73829   7.045   0.724   2.035  0.3684 -0.6756 -0.7427
  547MOL0     H73830   6.798   0.692   2.003 -1.2926 -3.5549 -1.3185
  547MOL0     H73831   6.453   0.559   1.957  0.7036 -1.9692  1.6778
  547MOL0     H73832   6.227   0.609   1.877 -2.2386  2.0348  1.0945
  547MOL0     H73833   5.934   0.695   2.171  0.5933 -0.1982 -0.4347
  547MOL0     H73834   5.880   0.528   2.163 -0.5504 -0.5285 -0.2342
  547MOL0     H73835   5.808   0.750   1.966 -0.0879  1.2368  1.2877
  547MOL0     H73836   5.723   0.712   2.121 -0.2370  1.8251 -0.9063
  547MOL0     H73837   5.699   0.477   2.018 -0.4736  0.5284  1.8749
  547MOL0     H73838   5.718   0.560   1.865 -3.0255  0.6806 -1.3938
  547MOL0     H73839   5.476   0.516   1.939  0.0719  0.8311 -1.8822
  547MOL0     H73840   5.505   0.612   2.087  1.1895  3.3949 -0.0868
  547MOL0     H73841   5.416   0.824   1.711  0.4338  1.1348  1.6279
  547MOL0     H73842   6.078   0.558   2.273  0.6748  0.5256  1.3771
  547MOL0     H73843   6.181   0.559   2.448 -1.1804 -3.4819 -1.7757
  547MOL0     H73844   6.329   0.455   2.443 -0.4110 -0.5776 -1.2796
  547MOL0     H73845   6.349   0.625   2.459 -1.9616  1.1945  0.7733
  548MOL0     O73846   1.166   0.381   1.919  0.0409 -0.4264 -0.7712
  548MOL0     C73847   1.220   0.369   1.806 -0.7658  0.6069 -0.4430
  548MOL0     O73848   1.259   0.466   1.716 -0.1163  0.2232 -0.5923
  548MOL0     C73849   1.303   0.594   1.752  0.7502 -0.4398  0.1098
  548MOL0     C73850   1.273   0.698   1.663 -0.1159  0.6289 -0.2191
  548MOL0     C73851   1.316   0.827   1.702 -0.3532 -0.2627 -0.6579
  548MOL0     C73852   1.382   0.858   1.822 -0.5320 -0.3895 -0.4947
  548MOL0     O73853   1.429   0.989   1.856 -0.3038 -0.4296  0.1384
  548MOL0     C73854   1.571   1.015   1.837 -0.5040  0.3431  0.8300
  548MOL0     C73855   1.597   1.123   1.730  0.6729 -0.3234  0.5224
  548MOL0     C73856   1.533   1.092   1.588  0.0754  0.7448 -0.2123
  548MOL0     C73857   1.587   0.962   1.527  0.1667  0.1342 -0.6422
  548MOL0     C73858   1.584   0.969   1.369 -0.4854 -0.1962  0.4047
  548MOL0     C73859   1.650   0.850   1.306  0.1932  0.4228 -0.8297
  548MOL0     C73860   1.599   0.719   1.362 -0.7079  0.1765  0.6506
  548MOL0     C73861   1.627   0.597   1.265 -0.0414 -0.4426 -0.0664
  548MOL0     N73862   1.769   0.566   1.236 -0.4296  0.0512 -0.1783
  548MOL0     C73863   1.844   0.630   1.139  0.0682 -0.8556 -0.7993
  548MOL0     C73864   1.954   0.563   1.136 -0.0166 -0.0480  0.1177
  548MOL0     C73865   2.073   0.582   1.049  0.1935 -0.9081 -0.0850
  548MOL0     C73866   2.163   0.706   1.074  0.2048 -0.4149 -1.1576
  548MOL0     C73867   2.232   0.690   1.210 -0.2511  0.2591  0.2977
  548MOL0     C73868   2.140   0.723   1.334 -0.0306 -0.4842 -0.0092
  548MOL0     O73869   2.226   0.763   1.444  0.2951 -0.1332 -0.2330
  548MOL0     C73870   2.170   0.800   1.566 -0.3341 -0.5282 -0.3099
  548MOL0     C73871   2.032   0.802   1.599  0.3873  0.0294 -0.4859
  548MOL0     C73872   1.984   0.851   1.724 -0.0214  0.1170  0.0956
  548MOL0     C73873   2.077   0.915   1.816 -0.6754  0.9952 -0.0938
  548MOL0     C73874   2.031   0.986   1.935  0.2144  0.2968 -0.2898
  548MOL0     O73875   2.121   1.033   2.017  0.0644  0.1131 -0.3433
  548MOL0     C73876   2.088   1.155   2.072 -0.0152 -0.2295  0.2378
  548MOL0     C73877   2.032   1.266   1.998  0.2577 -0.2259 -0.1022
  548MOL0     C73878   2.012   1.394   2.057 -0.4418 -0.3376  0.0799
  548MOL0     C73879   2.055   1.421   2.188  0.0743 -0.4228  0.8667
  548MOL0     O73880   2.051   1.543   2.249 -0.7073 -0.2365  0.3218
  548MOL0     C73881   2.108   1.648   2.168  0.2560  0.5547  0.2244
  548MOL0     C73882   2.085   1.771   2.254  0.0919  1.0143  0.7857
  548MOL0     C73883   2.130   1.898   2.196 -0.6189 -0.5904 -0.6580
  548MOL0     C73884   2.272   1.914   2.153  0.4631 -0.0988 -0.0458
  548MOL0     C73885   2.290   2.063   2.117  0.5356  0.0445  0.5895
  548MOL0     C73886   2.424   2.101   2.052 -0.6166 -0.4020 -1.2065
  548MOL0     C73887   2.438   2.252   2.033 -0.6376 -0.7216  0.1013
  548MOL0     C73888   2.556   2.281   1.942  0.2278 -0.1509 -0.5072
  548MOL0    Cl73889   2.530   2.237   1.766 -0.5959  0.1062  0.3351
  548MOL0     C73890   2.113   1.311   2.253 -0.4442  0.3874 -0.3749
  548MOL0     C73891   2.123   1.187   2.198 -0.1511  0.5310  0.1895
  548MOL0     O73892   1.910   1.005   1.942 -0.1866 -0.1571  0.1744
  548MOL0     C73893   2.212   0.913   1.774  0.4203 -0.0707 -0.3269
  548MOL0     C73894   2.256   0.857   1.655  0.6481  0.3336  0.3906
  548MOL0     N73895   1.954   0.463   1.228 -0.5312 -0.3799  0.1771
  548MOL0     N73896   1.842   0.462   1.286  0.3851  0.1042 -0.1638
  548MOL0     C73897   1.400   0.752   1.913  0.6217 -0.3206 -0.1515
  548MOL0     C73898   1.357   0.622   1.876 -0.4921  0.3547  0.1724
  548MOL0     C73899   1.217   0.237   1.753  0.1664 -0.8704 -0.0631
  548MOL0     C73900   1.165   0.222   1.620 -0.1078 -0.1769  0.4038
  548MOL0     C73901   1.151   0.099   1.558 -0.2619  0.2165 -0.2260
  548MOL0     C73902   1.196  -0.016   1.623 -0.2628  0.1671  0.1631
  548MOL0     O73903   1.200  -0.133   1.549 -0.4155  0.7755 -0.2629
  548MOL0     C73904   1.270  -0.251   1.599  0.3356 -0.3071 -0.9291
  548MOL0     C73905   1.283  -0.343   1.481 -0.9656  0.8349  0.2642
  548MOL0     C73906   1.368  -0.465   1.525  0.7489  0.2500 -1.0158
  548MOL0     C73907   1.377  -0.555   1.406 -0.4974  0.0076  0.5852
  548MOL0     C73908   1.507  -0.621   1.383 -0.3870  0.1421 -0.1294
  548MOL0     C73909   1.613  -0.681   1.360 -0.0665 -0.2213 -0.4542
  548MOL0     C73910   1.243  -0.002   1.758  0.4610 -0.8902  0.5355
  548MOL0     C73911   1.252   0.119   1.827 -0.3408  0.1458  0.2226
  548MOL0     C73912   1.302   0.106   1.966 -0.6254  0.2097  0.0654
  548MOL0     H73913   1.231   0.671   1.567 -1.9526  0.4367  0.5945
  548MOL0     H73914   1.287   0.898   1.626 -1.2430 -1.4407 -1.4642
  548MOL0     H73915   1.614   1.058   1.928  2.2756 -2.3950  0.9857
  548MOL0     H73916   1.619   0.920   1.810 -0.0965  0.7028  0.2846
  548MOL0     H73917   1.705   1.143   1.727  0.6721 -0.3986 -0.2284
  548MOL0     H73918   1.548   1.214   1.768 -0.2432 -0.6817  0.2236
  548MOL0     H73919   1.535   1.181   1.524 -3.9443  1.2032  0.0780
  548MOL0     H73920   1.426   1.072   1.591  0.5206 -1.8029  1.0901
  548MOL0     H73921   1.690   0.956   1.563 -0.4451  0.0615  1.2144
  548MOL0     H73922   1.532   0.878   1.572 -1.5740  0.0206 -2.8046
  548MOL0     H73923   1.480   0.992   1.345 -0.8310  0.8776  2.6037
  548MOL0     H73924   1.628   1.061   1.329 -2.9443  1.2548  0.8046
  548MOL0     H73925   1.621   0.851   1.200  0.2310 -4.1248 -1.0651
  548MOL0     H73926   1.759   0.849   1.320  0.1662  3.1281  0.0897
  548MOL0     H73927   1.492   0.708   1.384 -0.7108  2.1065  1.7931
  548MOL0     H73928   1.652   0.701   1.456 -2.5935 -1.3256  1.4977
  548MOL0     H73929   1.588   0.507   1.313  0.8578 -0.9511 -0.2604
  548MOL0     H73930   1.574   0.610   1.170 -1.9138  1.0082  1.1093
  548MOL0     H73931   1.796   0.705   1.077 -2.2545 -0.4209  1.3916
  548MOL0     H73932   2.132   0.490   1.057  2.5722  0.6229  1.1612
  548MOL0     H73933   2.044   0.588   0.944 -0.6849  0.3260  0.2082
  548MOL0     H73934   2.236   0.699   0.993  0.0220  1.4507 -1.5200
  548MOL0     H73935   2.115   0.804   1.070  0.8548  0.0031  0.4084
  548MOL0     H73936   2.328   0.743   1.210 -0.2723  0.4373 -2.4149
  548MOL0     H73937   2.274   0.589   1.218  0.0257  0.3393 -0.1163
  548MOL0     H73938   2.094   0.631   1.369  3.5867 -1.8773  1.5153
  548MOL0     H73939   2.055   0.790   1.314 -2.2266 -2.6651  1.4212
  548MOL0     H73940   1.969   0.755   1.525  0.1749  0.0655 -0.3285
  548MOL0     H73941   1.881   0.830   1.750 -0.2529  1.0583 -0.0259
  548MOL0     H73942   2.002   1.255   1.894  0.0330  1.4967 -0.2620
  548MOL0     H73943   1.948   1.471   2.016 -3.7210 -2.4445  0.8762
  548MOL0     H73944   2.213   1.642   2.141 -0.0026  0.2301 -0.7513
  548MOL0     H73945   2.049   1.657   2.075  1.2082 -0.0846 -0.4513
  548MOL0     H73946   1.978   1.779   2.275  0.2028  1.1440  1.3255
  548MOL0     H73947   2.141   1.756   2.347  0.6526 -0.5037  0.2277
  548MOL0     H73948   2.069   1.919   2.108 -1.6462  3.3841  0.7741
  548MOL0     H73949   2.101   1.981   2.262 -1.6375 -0.2074 -1.5492
  548MOL0     H73950   2.288   1.853   2.063 -0.5702 -1.5466  0.7254
  548MOL0     H73951   2.342   1.884   2.231  0.5236  4.1288  1.8064
  548MOL0     H73952   2.280   2.126   2.205 -0.3496 -1.2041  1.4228
  548MOL0     H73953   2.214   2.090   2.043  2.6455  0.4780 -1.5299
  548MOL0     H73954   2.492   2.076   2.134 -0.7163  0.2762 -0.9037
  548MOL0     H73955   2.455   2.050   1.961  0.3435  0.1498 -1.2040
  548MOL0     H73956   2.448   2.308   2.127  0.1182  2.2568 -1.6340
  548MOL0     H73957   2.340   2.290   2.000 -0.6472 -0.9639 -0.1492
  548MOL0     H73958   2.575   2.389   1.940 -2.4316  0.3812 -0.3971
  548MOL0     H73959   2.642   2.220   1.971  1.5133  0.3288 -3.0467
  548MOL0     H73960   2.135   1.331   2.358 -3.0865 -2.0613  0.7792
  548MOL0     H73961   2.161   1.111   2.266 -1.5714  0.5749  1.0802
  548MOL0     H73962   2.294   0.928   1.844  0.5529  0.7660 -0.6440
  548MOL0     H73963   2.359   0.859   1.622  0.4746  1.0154 -0.1333
  548MOL0     H73964   1.442   0.770   2.011  1.1209 -2.6065  0.1183
  548MOL0     H73965   1.361   0.542   1.950 -1.6852  0.8980  0.8514
  548MOL0     H73966   1.125   0.304   1.563 -1.4069 -1.2259 -0.2569
  548MOL0     H73967   1.103   0.087   1.461 -1.9437  2.3586  0.2646
  548MOL0     H73968   1.215  -0.296   1.682  1.9505  0.1301  0.4357
  548MOL0     H73969   1.366  -0.219   1.642 -0.2201  1.5470 -0.9523
  548MOL0     H73970   1.322  -0.298   1.390 -1.6025 -0.5502 -0.7281
  548MOL0     H73971   1.186  -0.382   1.450 -1.3812  1.0719  1.2213
  548MOL0     H73972   1.327  -0.513   1.614  4.3174  1.0907  1.3129
  548MOL0     H73973   1.466  -0.432   1.561  0.1206  1.0889 -0.0492
  548MOL0     H73974   1.314  -0.642   1.430 -1.1441  1.1882  3.6236
  548MOL0     H73975   1.354  -0.505   1.312  3.2241  2.4139  0.7651
  548MOL0     H73976   1.705  -0.727   1.328  1.1856  1.5783  0.3352
  548MOL0     H73977   1.259  -0.092   1.818 -1.2519 -1.1309  0.6812
  548MOL0     H73978   1.225   0.080   2.039 -0.9450  0.5715 -0.1400
  548MOL0     H73979   1.377   0.027   1.961 -0.4203  0.4752 -2.3440
  548MOL0     H73980   1.355   0.194   2.004  0.4206 -1.1498  1.9163
  549MOL0     O73981   9.887   2.865  10.125  0.2043 -0.0882  0.3166
  549MOL0     C73982   9.805   2.849  10.041  0.2764 -0.8949 -0.0969
  549MOL0     O73983   9.818   2.778   9.927  0.0696  0.5840 -0.1555
  549MOL0     C73984   9.937   2.726   9.889 -0.6781  0.8467 -0.0806
  549MOL0     C73985  10.051   2.805   9.859 -0.9232  0.3051 -0.6520
  549MOL0     C73986  10.175   2.752   9.814 -0.3922  0.6498  0.5983
  549MOL0     C73987  10.180   2.614   9.794 -0.5565  0.6339  0.3159
  549MOL0     O73988  10.298   2.552   9.765 -0.3075 -0.1125 -0.0875
  549MOL0     C73989  10.408   2.621   9.715 -1.0493  0.0458  0.8014
  549MOL0     C73990  10.518   2.514   9.688  0.1635 -0.2842 -0.4241
  549MOL0     C73991  10.662   2.574   9.684 -0.0649 -0.4775 -0.3888
  549MOL0     C73992  10.770   2.473   9.640  0.3960  0.5530  1.2110
  549MOL0     C73993  10.918   2.512   9.666  0.4510 -0.3376  0.2117
  549MOL0     C73994  11.010   2.444   9.558 -0.4093 -0.8156  0.4487
  549MOL0     C73995  11.158   2.487   9.590  0.7413 -0.0837 -0.0802
  549MOL0     C73996  11.251   2.442   9.483 -0.6123  0.0656 -0.8265
  549MOL0     N73997  11.297   2.304   9.520 -0.3832  0.4503 -0.3956
  549MOL0     C73998  11.315   2.204   9.427  0.7104 -0.2153 -1.3857
  549MOL0     C73999  11.393   2.106   9.487  0.3378  0.5242 -0.0208
  549MOL0     C74000  11.414   1.963   9.435  0.3220  0.3852 -0.0489
  549MOL0     C74001  11.532   1.888   9.503 -0.6864 -0.7058  0.6055
  549MOL0     C74002  11.663   1.969   9.530  0.0791  0.1015 -0.8409
  549MOL0     C74003  11.773   1.936   9.421  0.3864  0.1295 -0.4105
  549MOL0     O74004  11.888   2.014   9.467 -0.0097  0.1413  0.2206
  549MOL0     C74005  12.015   1.969   9.438  0.2535 -1.1029  0.4835
  549MOL0     C74006  12.122   2.058   9.475  0.2740 -0.2102  0.5666
  549MOL0     C74007  12.257   2.020   9.449 -0.6175 -1.0077 -0.0738
  549MOL0     C74008  12.287   1.906   9.384  0.1797  0.6157 -0.2779
  549MOL0     C74009  12.433   1.879   9.340  0.7034 -0.5751  0.6025
  549MOL0     O74010  12.523   1.978   9.370  0.3181  0.2551 -0.1972
  549MOL0     C74011  12.646   1.960   9.319  0.5411  0.3907 -1.1279
  549MOL0     C74012  12.721   1.842   9.336  0.6773 -0.6063 -0.2896
  549MOL0     C74013  12.852   1.837   9.291 -0.0021  0.3061  0.1024
  549MOL0     C74014  12.912   1.955   9.238  1.0867  0.3696  0.2665
  549MOL0     O74015  13.037   1.944   9.192  0.0715  0.0250 -0.0689
  549MOL0     C74016  13.113   2.064   9.178 -0.7082 -0.1766 -0.0982
  549MOL0     C74017  13.255   2.026   9.212 -0.5069  0.2427 -0.0656
  549MOL0     C74018  13.349   2.132   9.162 -0.9491  0.2463 -1.0014
  549MOL0     C74019  13.407   2.219   9.280 -0.7892 -0.4848  0.6267
  549MOL0     C74020  13.533   2.293   9.227 -0.4021 -0.6471  0.4545
  549MOL0     C74021  13.601   2.390   9.326 -0.8586  0.8266  0.7015
  549MOL0     C74022  13.706   2.473   9.247  0.4134 -0.0497 -0.6864
  549MOL0     C74023  13.786   2.575   9.328 -0.3254  0.2661  0.1469
  549MOL0    Cl74024  13.914   2.478   9.412  0.3428 -0.5797  0.0982
  549MOL0     C74025  12.831   2.074   9.217 -0.7515 -0.1292 -0.4716
  549MOL0     C74026  12.695   2.072   9.254 -0.0664 -0.5203 -1.0375
  549MOL0     O74027  12.455   1.776   9.280  0.1387 -0.3124  0.3030
  549MOL0     C74028  12.182   1.814   9.355 -0.2179  0.1505  0.6968
  549MOL0     C74029  12.045   1.853   9.372 -0.6012 -0.1193  0.4125
  549MOL0     N74030  11.418   2.154   9.614  0.5997  0.3219 -0.8731
  549MOL0     N74031  11.361   2.264   9.633  0.2136 -0.5651  0.7559
  549MOL0     C74032  10.066   2.534   9.809 -1.1228  0.6998  0.4552
  549MOL0     C74033   9.951   2.591   9.862 -0.3272  0.4343 -0.8407
  549MOL0     C74034   9.670   2.897  10.064  0.3042 -0.0935 -0.4830
  549MOL0     C74035   9.557   2.806  10.030  0.0918  0.0942  0.3386
  549MOL0     C74036   9.416   2.848  10.050  0.0065 -0.4374  0.7456
  549MOL0     C74037   9.394   2.976  10.095 -0.5362 -0.6655 -0.0486
  549MOL0     O74038   9.272   3.035  10.119  0.5528 -0.3528 -0.2779
  549MOL0     C74039   9.140   2.976  10.086 -0.6911  0.5751 -0.3932
  549MOL0     C74040   9.113   2.891  10.215  0.5256  0.3868  0.2047
  549MOL0     C74041   8.973   2.841  10.210  0.9244  0.0489 -0.0898
  549MOL0     C74042   8.932   2.800  10.360  0.0682  0.4710  0.1333
  549MOL0     C74043   8.797   2.744  10.361  0.7690 -1.6635  0.0843
  549MOL0     C74044   8.686   2.692  10.372 -0.6066  0.1387 -0.0109
  549MOL0     C74045   9.502   3.059  10.133 -0.5266 -0.2437 -0.0780
  549MOL0     C74046   9.638   3.024  10.112  0.1227  0.1032 -0.4821
  549MOL0     C74047   9.740   3.118  10.168 -0.9848 -0.2733 -1.0520
  549MOL0     H74048  10.043   2.907   9.894 -2.1737 -0.6434  2.0413
  549MOL0     H74049  10.261   2.815   9.797  1.0921 -1.4772 -0.0476
  549MOL0     H74050  10.392   2.672   9.619 -2.5048  1.0608  1.5444
  549MOL0     H74051  10.440   2.684   9.799 -3.4277  2.0330  0.3340
  549MOL0     H74052  10.513   2.456   9.595  0.3026 -0.0173 -0.5994
  549MOL0     H74053  10.519   2.441   9.770  0.7142 -0.3982 -0.5253
  549MOL0     H74054  10.680   2.629   9.777 -3.1142 -1.2878  0.7847
  549MOL0     H74055  10.655   2.655   9.611 -0.4707 -2.5510 -2.7967
  549MOL0     H74056  10.744   2.384   9.697 -0.6904 -0.6482 -1.0339
  549MOL0     H74057  10.744   2.450   9.537 -1.3544 -1.6072  2.0388
  549MOL0     H74058  10.928   2.620   9.651  0.1821 -0.5034 -1.2986
  549MOL0     H74059  10.956   2.476   9.762  0.0225 -0.2940  0.4009
  549MOL0     H74060  11.010   2.335   9.560  0.2268 -0.8080  1.2830
  549MOL0     H74061  10.994   2.470   9.453  3.1158  0.0439 -0.0035
  549MOL0     H74062  11.175   2.442   9.689  0.7857  1.6741  0.7558
  549MOL0     H74063  11.171   2.595   9.592  2.2302 -0.2461  0.2218
  549MOL0     H74064  11.202   2.447   9.386 -1.7521  0.2264 -0.2490
  549MOL0     H74065  11.335   2.512   9.472 -0.2010 -0.4122 -0.7955
  549MOL0     H74066  11.271   2.205   9.327  1.8661 -0.2183 -1.9103
  549MOL0     H74067  11.328   1.899   9.453  1.5442 -1.4726 -0.5092
  549MOL0     H74068  11.428   1.967   9.326  2.3820  0.0413  0.1509
  549MOL0     H74069  11.495   1.849   9.599 -0.5436 -1.2455  0.4433
  549MOL0     H74070  11.550   1.813   9.425 -1.3087  2.6910 -3.1216
  549MOL0     H74071  11.710   1.929   9.620 -0.9996 -0.6203 -0.5760
  549MOL0     H74072  11.653   2.078   9.525 -0.4906  0.0155 -2.2682
  549MOL0     H74073  11.728   1.969   9.327 -2.9651  1.1489  1.3912
  549MOL0     H74074  11.792   1.828   9.420 -0.8439 -0.1002 -1.3935
  549MOL0     H74075  12.110   2.151   9.529  0.0907  1.1399 -1.6797
  549MOL0     H74076  12.329   2.090   9.491 -1.3269 -1.3714  1.8157
  549MOL0     H74077  12.676   1.757   9.386  0.3970 -0.7643 -0.7979
  549MOL0     H74078  12.915   1.749   9.298 -1.7721 -0.8205  4.1794
  549MOL0     H74079  13.116   2.097   9.074 -0.1833 -2.5264 -0.8990
  549MOL0     H74080  13.076   2.142   9.245 -2.5773  1.0731 -2.4312
  549MOL0     H74081  13.253   2.007   9.320 -4.0787  0.6914  0.0887
  549MOL0     H74082  13.284   1.931   9.167  4.4669  1.2798  0.3889
  549MOL0     H74083  13.437   2.078   9.126  1.0636  1.6569  1.4374
  549MOL0     H74084  13.320   2.200   9.082  3.0562  4.6600  0.8474
  549MOL0     H74085  13.439   2.159   9.365  1.8662  0.5400  0.4439
  549MOL0     H74086  13.339   2.295   9.318  0.5299  0.1462  1.8055
  549MOL0     H74087  13.507   2.352   9.139 -1.6205  3.6775  3.3715
  549MOL0     H74088  13.602   2.212   9.200 -1.2195 -2.7956  4.0564
  549MOL0     H74089  13.523   2.453   9.368  0.2121  2.9564 -0.3394
  549MOL0     H74090  13.648   2.325   9.401  0.5438 -2.2694 -2.5597
  549MOL0     H74091  13.646   2.530   9.175 -0.6417 -1.2192 -0.7883
  549MOL0     H74092  13.775   2.403   9.199 -0.4346 -1.5288  0.1612
  549MOL0     H74093  13.837   2.650   9.267  0.2999 -0.6577 -0.4834
  549MOL0     H74094  13.724   2.626   9.403  1.8743  0.6790  1.7788
  549MOL0     H74095  12.873   2.159   9.164  2.6181 -1.0454  0.5141
  549MOL0     H74096  12.624   2.154   9.249 -2.7123 -2.6245 -0.0292
  549MOL0     H74097  12.203   1.715   9.316  1.3317  0.7107  0.0124
  549MOL0     H74098  11.976   1.784   9.325  2.3897 -0.4597 -4.0355
  549MOL0     H74099  10.077   2.429   9.784 -0.7416  0.2203  2.4491
  549MOL0     H74100   9.872   2.517   9.870  0.1598 -0.1559 -1.4014
  549MOL0     H74101   9.583   2.710   9.987 -0.4409 -0.6743  1.6652
  549MOL0     H74102   9.335   2.779  10.027  0.4685 -0.4329 -1.0968
  549MOL0     H74103   9.155   2.921   9.993 -1.2543 -0.6631  0.2286
  549MOL0     H74104   9.062   3.051  10.070 -1.3464  0.2154  0.9460
  549MOL0     H74105   9.129   2.957  10.301  0.4652  0.3457  0.2484
  549MOL0     H74106   9.170   2.798  10.225 -2.6811 -2.0444 -1.9379
  549MOL0     H74107   8.958   2.759  10.139  2.0859 -1.9552  1.8220
  549MOL0     H74108   8.912   2.927  10.182  1.7076  0.9726  0.9352
  549MOL0     H74109   8.998   2.720  10.392  0.2020  0.0061 -1.2427
  549MOL0     H74110   8.938   2.881  10.434 -0.6356  0.2840  0.4037
  549MOL0     H74111   8.591   2.644  10.378  0.4873 -2.0868  0.3036
  549MOL0     H74112   9.478   3.156  10.176  0.2961  0.1402 -0.4687
  549MOL0     H74113   9.816   3.074  10.232 -1.5432 -0.5934 -0.6074
  549MOL0     H74114   9.788   3.159  10.078 -0.8317  0.2382 -0.7412
  549MOL0     H74115   9.701   3.203  10.225  0.4374 -0.6017  0.4758
  550MOL0     O74116  11.319   3.510   1.893  0.3759 -0.3729  0.1659
  550MOL0     C74117  11.254   3.479   1.987  0.0467 -0.5186  0.2121
  550MOL0     O74118  11.295   3.486   2.113  0.0583 -0.0796 -0.0878
  550MOL0     C74119  11.421   3.535   2.144  0.7640 -0.2240 -0.1493
  550MOL0     C74120  11.489   3.459   2.245 -0.0821  0.3476  0.2301
  550MOL0     C74121  11.609   3.501   2.304 -0.1084  0.6776 -1.3963
  550MOL0     C74122  11.678   3.604   2.238  0.4018 -0.2211 -1.0612
  550MOL0     O74123  11.805   3.645   2.276 -0.3771 -0.3480 -0.2400
  550MOL0     C74124  11.905   3.586   2.200 -1.0609  0.3228  0.0350
  550MOL0     C74125  12.026   3.675   2.176  0.2545 -0.2773  0.5524
  550MOL0     C74126  12.101   3.643   2.039  0.4938  0.1749  0.1217
  550MOL0     C74127  12.244   3.708   2.041 -0.0238  0.0532  0.3742
  550MOL0     C74128  12.327   3.705   1.906 -0.7626  0.2338 -0.5457
  550MOL0     C74129  12.472   3.769   1.912  0.4664  0.1761 -0.4417
  550MOL0     C74130  12.534   3.768   1.769  0.6882  0.3729  0.6561
  550MOL0     C74131  12.636   3.657   1.760  0.0531 -0.3445  0.2456
  550MOL0     N74132  12.763   3.737   1.761 -0.7726  0.0976 -0.4850
  550MOL0     C74133  12.822   3.810   1.660  0.8108  0.1122 -0.6739
  550MOL0     C74134  12.931   3.861   1.719 -0.8079  0.0825  0.1688
  550MOL0     C74135  13.023   3.961   1.646 -0.2437  0.7793 -0.0602
  550MOL0     C74136  13.170   3.978   1.705 -0.8201 -0.0550  0.2279
  550MOL0     C74137  13.230   3.829   1.728 -0.4463  0.4714 -0.4351
  550MOL0     C74138  13.373   3.822   1.800  0.0978 -0.1446  0.5735
  550MOL0     O74139  13.469   3.873   1.699  0.1055  0.5920 -0.3713
  550MOL0     C74140  13.602   3.884   1.741 -0.1177  0.2836  0.3563
  550MOL0     C74141  13.694   3.924   1.644  0.0785 -0.2363  0.6726
  550MOL0     C74142  13.834   3.921   1.669  0.6377 -0.0982 -0.4754
  550MOL0     C74143  13.884   3.860   1.786  0.0000  0.1662  0.0496
  550MOL0     C74144  14.030   3.849   1.800  0.2168  0.0911 -0.8629
  550MOL0     O74145  14.079   3.810   1.926 -0.2764 -0.2932 -0.4473
  550MOL0     C74146  14.215   3.770   1.941  0.2038 -0.6537  0.2953
  550MOL0     C74147  14.303   3.725   1.837 -0.5166  0.1355 -0.5551
  550MOL0     C74148  14.427   3.681   1.869 -0.3752  0.2496  0.7049
  550MOL0     C74149  14.474   3.683   1.997  0.5319 -0.8537  0.2186
  550MOL0     O74150  14.598   3.639   2.045  0.3568  0.5946 -0.1432
  550MOL0     C74151  14.712   3.615   1.962 -0.5201 -0.8019  0.4277
  550MOL0     C74152  14.820   3.521   2.009 -0.0006 -0.2101 -0.1456
  550MOL0     C74153  14.757   3.388   2.056 -0.4982 -0.7392  0.2724
  550MOL0     C74154  14.874   3.304   2.099  0.2139 -0.2737 -0.6901
  550MOL0     C74155  14.812   3.176   2.160  0.1107 -0.0093 -0.2876
  550MOL0     C74156  14.904   3.059   2.188 -0.0753 -0.4109  0.4956
  550MOL0     C74157  14.842   2.921   2.142  0.0441 -0.0884  0.5134
  550MOL0     C74158  14.936   2.811   2.176  0.0823 -0.2502  0.2963
  550MOL0    Cl74159  15.089   2.830   2.101  0.4176  0.0432  0.1744
  550MOL0     C74160  14.393   3.718   2.097  0.0174 -0.5954 -1.0549
  550MOL0     C74161  14.259   3.762   2.075 -0.1746  0.1311  0.1988
  550MOL0     O74162  14.095   3.884   1.707  0.3865  0.1312 -0.0840
  550MOL0     C74163  13.791   3.809   1.877 -1.1285  0.0594  0.0526
  550MOL0     C74164  13.655   3.821   1.848 -0.0668  0.6137  0.1321
  550MOL0     N74165  12.944   3.817   1.851  0.2743  0.3747  1.2614
  550MOL0     N74166  12.835   3.749   1.873  0.7924 -1.4104 -0.6343
  550MOL0     C74167  11.605   3.683   2.146 -0.3064 -0.4535  0.5383
  550MOL0     C74168  11.482   3.648   2.096 -0.0802  0.0529  0.8751
  550MOL0     C74169  11.125   3.418   1.948  0.3911 -0.1105 -0.0733
  550MOL0     C74170  11.016   3.502   1.948  0.5712  0.3706 -0.4185
  550MOL0     C74171  10.893   3.464   1.914  0.8626  0.5194 -0.4181
  550MOL0     C74172  10.874   3.330   1.861  0.1281  0.0051  0.0124
  550MOL0     O74173  10.754   3.278   1.825 -0.4179  0.5894  0.1144
  550MOL0     C74174  10.649   3.370   1.789 -0.1084  1.2116 -0.0011
  550MOL0     C74175  10.560   3.293   1.681  0.2643  0.5767 -0.7023
  550MOL0     C74176  10.417   3.360   1.673 -0.3914 -0.0179  0.2149
  550MOL0     C74177  10.325   3.321   1.551  0.0854  0.5191 -0.4746
  550MOL0     C74178  10.202   3.402   1.545 -0.2423 -0.1414 -0.0642
  550MOL0     C74179  10.116   3.482   1.525 -0.4310  1.0156 -0.0007
  550MOL0     C74180  10.981   3.237   1.866 -0.8494 -0.8505  0.7500
  550MOL0     C74181  11.109   3.276   1.918 -0.1283 -0.3736  0.7334
  550MOL0     C74182  11.223   3.173   1.938 -0.4306  0.4995 -0.4474
  550MOL0     H74183  11.443   3.367   2.279 -1.9801  1.3732  0.5759
  550MOL0     H74184  11.657   3.448   2.385 -2.0996 -0.3518 -0.8225
  550MOL0     H74185  11.936   3.492   2.247  2.2314  0.5224 -1.5014
  550MOL0     H74186  11.877   3.559   2.098 -0.0366  1.4914 -0.5759
  550MOL0     H74187  12.095   3.665   2.260  2.2940  0.6234 -0.9295
  550MOL0     H74188  11.998   3.781   2.182  1.1290 -0.0239  0.2446
  550MOL0     H74189  12.039   3.685   1.959  0.2937  1.3106  0.8568
  550MOL0     H74190  12.119   3.535   2.035  0.3869  0.1809 -0.8626
  550MOL0     H74191  12.246   3.813   2.073  1.0472 -0.4564  2.1270
  550MOL0     H74192  12.299   3.659   2.121 -0.2406 -0.7011  0.0638
  550MOL0     H74193  12.335   3.597   1.892  0.2114  0.2514 -0.2139
  550MOL0     H74194  12.265   3.742   1.824 -0.4290  1.7497 -0.1553
  550MOL0     H74195  12.461   3.874   1.940  3.6689  0.5829 -0.3344
  550MOL0     H74196  12.523   3.706   1.985  0.3586  0.6300  0.0295
  550MOL0     H74197  12.583   3.866   1.772 -1.5832  1.5446  2.5083
  550MOL0     H74198  12.457   3.770   1.692 -0.2206 -2.5021  1.3585
  550MOL0     H74199  12.630   3.590   1.846  1.7092  1.4273  1.8590
  550MOL0     H74200  12.619   3.598   1.669 -1.6304  3.0283 -1.8374
  550MOL0     H74201  12.787   3.826   1.559 -1.5227 -0.7619 -0.0542
  550MOL0     H74202  13.019   3.934   1.540  2.5545 -0.3466  0.0478
  550MOL0     H74203  12.974   4.059   1.649 -0.4348  0.6639  1.3025
  550MOL0     H74204  13.237   4.024   1.633 -2.8496  2.6395 -0.0995
  550MOL0     H74205  13.155   4.035   1.797 -1.5326  1.4190 -0.7694
  550MOL0     H74206  13.256   3.783   1.632  0.3024 -0.4235  0.1771
  550MOL0     H74207  13.160   3.766   1.784  0.8765  0.9317  1.8851
  550MOL0     H74208  13.400   3.729   1.850  0.0869  0.5011  1.8276
  550MOL0     H74209  13.365   3.882   1.891  0.0550  2.6461 -1.1509
  550MOL0     H74210  13.651   3.956   1.549 -0.8162  0.5562  1.3143
  550MOL0     H74211  13.905   3.967   1.602  2.4721 -2.0009  0.0588
  550MOL0     H74212  14.280   3.709   1.732  2.6144 -0.1517 -1.3147
  550MOL0     H74213  14.485   3.640   1.787  0.7151  1.1381  1.0061
  550MOL0     H74214  14.662   3.556   1.884 -0.3014  1.8579 -1.9008
  550MOL0     H74215  14.752   3.703   1.911  0.9329 -2.7490 -2.0445
  550MOL0     H74216  14.906   3.505   1.942  3.7375 -0.1635  4.1899
  550MOL0     H74217  14.867   3.574   2.092 -3.8971  1.7556  1.0057
  550MOL0     H74218  14.679   3.405   2.130  0.7043 -0.7047  1.5771
  550MOL0     H74219  14.718   3.342   1.965  4.0780 -1.3736 -1.6555
  550MOL0     H74220  14.943   3.352   2.170 -0.1903  0.4360 -0.7627
  550MOL0     H74221  14.922   3.276   2.005  2.9339 -1.3931  0.9026
  550MOL0     H74222  14.747   3.145   2.078  0.2621 -0.5900 -0.1955
  550MOL0     H74223  14.753   3.192   2.250  3.3878  0.9695  1.8825
  550MOL0     H74224  14.994   3.081   2.130 -0.3514  0.9060  0.5455
  550MOL0     H74225  14.931   3.060   2.294  1.2645 -1.2147  0.1973
  550MOL0     H74226  14.837   2.925   2.033  4.6693  2.1754  0.1724
  550MOL0     H74227  14.751   2.904   2.200  0.2766  1.2734  1.3127
  550MOL0     H74228  14.951   2.803   2.284 -0.3294 -1.5757  0.2703
  550MOL0     H74229  14.899   2.713   2.143 -0.4348 -0.3954  1.2659
  550MOL0     H74230  14.414   3.707   2.203 -1.1266  2.1112 -0.4796
  550MOL0     H74231  14.190   3.798   2.151 -1.6195  0.5061 -1.2447
  550MOL0     H74232  13.822   3.780   1.977 -2.0506  3.3870  1.4294
  550MOL0     H74233  13.585   3.785   1.922 -0.6484  1.2142 -0.1151
  550MOL0     H74234  11.637   3.783   2.121  0.4791  0.3291  4.0997
  550MOL0     H74235  11.434   3.716   2.026  0.6574 -1.5108 -1.2600
  550MOL0     H74236  11.030   3.608   1.967 -0.2833  0.4280 -0.0955
  550MOL0     H74237  10.814   3.535   1.938 -1.4655 -1.3249 -2.1373
  550MOL0     H74238  10.673   3.466   1.744 -2.1740  0.4766 -3.0342
  550MOL0     H74239  10.599   3.390   1.884  0.7590 -1.1449  1.0471
  550MOL0     H74240  10.545   3.187   1.703  0.5953 -0.2920 -4.0524
  550MOL0     H74241  10.606   3.309   1.583 -1.0487  0.4827 -1.3563
  550MOL0     H74242  10.426   3.468   1.656 -0.4848 -0.0327  0.0767
  550MOL0     H74243  10.369   3.344   1.770  1.4623  1.0882  1.3951
  550MOL0     H74244  10.383   3.333   1.459  0.1736 -0.8842 -0.6302
  550MOL0     H74245  10.298   3.215   1.553 -1.4721  0.8809 -1.3596
  550MOL0     H74246  10.041   3.556   1.505 -0.6768  0.9938  0.7943
  550MOL0     H74247  10.966   3.145   1.810  1.3623 -2.4303  2.5890
  550MOL0     H74248  11.178   3.074   1.923 -2.6437  1.8099 -3.5537
  550MOL0     H74249  11.307   3.189   1.870 -1.0984  1.5879 -1.0440
  550MOL0     H74250  11.264   3.177   2.039 -0.1147 -0.8398 -0.5027
  551MOL0     O74251   9.982   3.783   6.625  0.0662  0.7917  0.9002
  551MOL0     C74252   9.971   3.810   6.744 -0.1365 -0.2118  0.3649
  551MOL0     O74253  10.074   3.825   6.830 -0.1224 -0.6226 -0.1048
  551MOL0     C74254  10.208   3.831   6.786  0.4429  0.2688  0.0275
  551MOL0     C74255  10.302   3.735   6.819  0.0335 -0.3064  0.0092
  551MOL0     C74256  10.431   3.747   6.782 -0.1240 -0.4623  0.3689
  551MOL0     C74257  10.473   3.858   6.703 -0.6143  0.4118  0.6128
  551MOL0     O74258  10.595   3.866   6.649  0.0354 -0.2320 -0.0014
  551MOL0     C74259  10.697   3.804   6.729 -0.7679 -0.0654  0.3079
  551MOL0     C74260  10.826   3.861   6.683 -0.1980  0.0973 -0.1465
  551MOL0     C74261  10.943   3.778   6.718 -0.3823  0.1111  0.9932
  551MOL0     C74262  11.066   3.847   6.660 -0.1621 -0.8711  0.1198
  551MOL0     C74263  11.185   3.747   6.673 -0.2438  0.2968  0.9297
  551MOL0     C74264  11.320   3.817   6.653 -0.5881  0.2893 -0.4350
  551MOL0     C74265  11.449   3.735   6.634  0.1104 -0.3293  0.4786
  551MOL0     C74266  11.571   3.834   6.597 -0.3661  0.2473  0.2511
  551MOL0     N74267  11.713   3.783   6.620 -0.2766 -0.3271 -1.4058
  551MOL0     C74268  11.757   3.661   6.580  0.0199  0.6502  0.1464
  551MOL0     C74269  11.874   3.641   6.639  0.5197  0.0666 -0.4198
  551MOL0     C74270  11.965   3.527   6.625 -0.8561  0.2283  0.0060
  551MOL0     C74271  11.955   3.423   6.741 -0.1027  0.0853  0.1709
  551MOL0     C74272  11.812   3.375   6.747 -0.0178  0.6234  0.2176
  551MOL0     C74273  11.800   3.274   6.859  0.1787  0.3949  0.8999
  551MOL0     O74274  11.855   3.144   6.834 -0.0891  0.4755  0.1576
  551MOL0     C74275  11.948   3.084   6.916  1.1314 -0.2341 -0.2720
  551MOL0     C74276  11.970   2.953   6.888 -0.2322  0.4809 -0.0078
  551MOL0     C74277  12.047   2.874   6.968  1.0974  0.3381 -1.3403
  551MOL0     C74278  12.107   2.926   7.082  1.2743 -0.5452 -0.9997
  551MOL0     C74279  12.191   2.842   7.173  0.3216 -0.1300  0.2183
  551MOL0     O74280  12.220   2.712   7.123  0.4741 -0.0783  0.3271
  551MOL0     C74281  12.307   2.635   7.193  0.6178 -0.6819  0.0548
  551MOL0     C74282  12.439   2.659   7.163  0.5658 -0.1282 -0.6483
  551MOL0     C74283  12.534   2.595   7.239  0.0499  0.5235 -0.1862
  551MOL0     C74284  12.500   2.502   7.330 -0.8309 -0.0659 -0.5155
  551MOL0     O74285  12.606   2.455   7.399  0.7901  0.4341  0.1826
  551MOL0     C74286  12.571   2.370   7.511 -0.6075  1.4532 -0.3234
  551MOL0     C74287  12.707   2.333   7.593 -0.0001 -0.7397  0.2999
  551MOL0     C74288  12.766   2.210   7.546 -0.1733 -0.8530  0.8108
  551MOL0     C74289  12.817   2.198   7.405 -0.5146  0.0147 -0.6076
  551MOL0     C74290  12.884   2.064   7.361  0.0493 -0.1771  0.3139
  551MOL0     C74291  13.012   2.041   7.446  0.0676 -0.4855  0.6457
  551MOL0     C74292  13.088   1.911   7.406  0.5818  0.0371 -0.3465
  551MOL0     C74293  13.223   1.910   7.480  0.0467  0.2890  0.0921
  551MOL0    Cl74294  13.315   2.018   7.384 -0.1460 -0.3936  0.0658
  551MOL0     C74295  12.363   2.477   7.361 -0.8738 -0.3446  0.0351
  551MOL0     C74296  12.270   2.556   7.299 -0.2712 -0.2107 -0.7612
  551MOL0     O74297  12.235   2.896   7.274 -0.2903  0.7562  0.5557
  551MOL0     C74298  12.080   3.059   7.115 -0.6803 -0.7112 -0.4322
  551MOL0     C74299  12.004   3.143   7.037  0.0515 -0.5004  0.2474
  551MOL0     N74300  11.900   3.757   6.708 -0.3172  0.3791 -0.6860
  551MOL0     N74301  11.797   3.829   6.712 -0.5193 -0.2681  0.1049
  551MOL0     C74302  10.375   3.959   6.668 -1.0142  0.5964 -0.8667
  551MOL0     C74303  10.247   3.947   6.724 -0.5537 -0.7634 -0.0738
  551MOL0     C74304   9.833   3.840   6.797 -0.3124 -0.9505  0.2045
  551MOL0     C74305   9.823   3.829   6.938 -0.3214 -1.0730  0.7794
  551MOL0     C74306   9.707   3.861   7.005  0.7506  0.2127  0.2514
  551MOL0     C74307   9.586   3.892   6.931 -0.4100  0.1363 -0.8492
  551MOL0     O74308   9.472   3.908   7.003  0.6768 -0.2787  0.0985
  551MOL0     C74309   9.452   4.041   7.050  0.7404  0.2651  0.1581
  551MOL0     C74310   9.321   4.096   6.987  0.3624  0.7320 -0.7506
  551MOL0     C74311   9.279   4.232   7.044 -0.5114  0.0687 -0.4750
  551MOL0     C74312   9.141   4.276   6.993 -0.2679 -0.0569 -0.2111
  551MOL0     C74313   9.106   4.402   7.067 -0.7515  0.8301  0.5776
  551MOL0     C74314   9.069   4.505   7.121  1.0650  0.2401  1.1252
  551MOL0     C74315   9.591   3.889   6.791  0.4895 -0.1652 -0.9710
  551MOL0     C74316   9.708   3.873   6.721 -0.7860  0.1548  0.0278
  551MOL0     C74317   9.696   3.869   6.564 -0.4831 -0.0923  0.1016
  551MOL0     H74318  10.271   3.641   6.864  0.5573 -0.6232 -0.2975
  551MOL0     H74319  10.492   3.666   6.821  1.6343  1.8620  2.7660
  551MOL0     H74320  10.684   3.823   6.836 -3.4570 -0.5212  0.1333
  551MOL0     H74321  10.689   3.696   6.715 -1.6813 -0.4792  3.3022
  551MOL0     H74322  10.833   3.958   6.733  0.4954  0.9726 -1.8318
  551MOL0     H74323  10.826   3.880   6.575  1.1832  0.0651 -0.1756
  551MOL0     H74324  10.938   3.675   6.681 -2.4468 -1.1282  4.3075
  551MOL0     H74325  10.964   3.782   6.825 -0.1993 -1.3225  1.0282
  551MOL0     H74326  11.056   3.880   6.556  0.4131  0.4887  0.4752
  551MOL0     H74327  11.086   3.935   6.721  0.3417  0.5526 -1.9589
  551MOL0     H74328  11.184   3.696   6.770  1.6768 -2.1105 -0.1994
  551MOL0     H74329  11.176   3.681   6.586  0.6230  2.9144 -1.2791
  551MOL0     H74330  11.320   3.896   6.576  0.2193  0.7200 -0.0007
  551MOL0     H74331  11.342   3.871   6.745 -1.4031  0.0060 -0.0616
  551MOL0     H74332  11.425   3.665   6.553 -2.6573 -0.1385  1.0239
  551MOL0     H74333  11.476   3.671   6.718  1.2207 -1.4116 -0.6548
  551MOL0     H74334  11.576   3.842   6.489 -0.0268 -4.4100 -0.3077
  551MOL0     H74335  11.562   3.936   6.634  1.2166  0.8354 -0.9289
  551MOL0     H74336  11.710   3.600   6.504  3.5171 -0.6759 -1.1827
  551MOL0     H74337  11.936   3.479   6.531  0.8692 -0.7742 -0.0542
  551MOL0     H74338  12.067   3.567   6.622 -0.4813 -0.3876  2.4207
  551MOL0     H74339  12.015   3.332   6.727 -1.0235 -0.2327 -2.1449
  551MOL0     H74340  11.973   3.469   6.838  3.5259  2.8929 -1.6020
  551MOL0     H74341  11.787   3.324   6.653 -0.4760 -1.0669  1.2143
  551MOL0     H74342  11.732   3.449   6.747 -0.8255 -0.1762 -1.5148
  551MOL0     H74343  11.693   3.269   6.882  0.1347  3.4691  1.7954
  551MOL0     H74344  11.853   3.317   6.945 -0.6188  3.9579 -0.2053
  551MOL0     H74345  11.930   2.904   6.799  0.6555  1.0278 -0.7186
  551MOL0     H74346  12.052   2.767   6.945 -1.6983 -0.6112  1.6921
  551MOL0     H74347  12.465   2.735   7.090  1.0436  0.5701  0.2412
  551MOL0     H74348  12.639   2.616   7.224  0.8457 -3.0700 -0.3565
  551MOL0     H74349  12.502   2.421   7.578 -0.6634 -2.3650  2.8749
  551MOL0     H74350  12.518   2.282   7.474 -1.6403  1.5612  0.8486
  551MOL0     H74351  12.782   2.413   7.596 -0.7840  0.1090 -1.4656
  551MOL0     H74352  12.672   2.331   7.697 -0.5622  0.3811  0.1428
  551MOL0     H74353  12.842   2.172   7.614  1.5714 -0.9203 -1.1088
  551MOL0     H74354  12.683   2.138   7.548 -1.9245  1.0487  0.8459
  551MOL0     H74355  12.894   2.274   7.391  0.3655 -1.3467 -4.3922
  551MOL0     H74356  12.738   2.211   7.330 -0.2243 -0.2795 -0.9653
  551MOL0     H74357  12.908   2.071   7.254  1.2211  0.7300  0.6091
  551MOL0     H74358  12.820   1.977   7.377 -1.1130  0.8700  1.5598
  551MOL0     H74359  13.080   2.125   7.438 -2.1343  1.5151  1.6610
  551MOL0     H74360  12.984   2.033   7.552  1.6923 -0.1370  1.1220
  551MOL0     H74361  13.102   1.915   7.297 -2.2699  3.7710 -0.8061
  551MOL0     H74362  13.026   1.830   7.445  1.2905 -0.0803  0.5564
  551MOL0     H74363  13.210   1.944   7.583 -2.7437  0.8172 -0.3763
  551MOL0     H74364  13.273   1.813   7.480  1.9659  1.1487  3.0997
  551MOL0     H74365  12.323   2.397   7.422  0.7108 -0.6258  0.7635
  551MOL0     H74366  12.168   2.543   7.335  0.2245 -0.1320  0.7479
  551MOL0     H74367  12.125   3.114   7.198  0.7315 -0.8893 -1.0593
  551MOL0     H74368  12.000   3.244   7.075 -0.0114 -1.1772  2.1211
  551MOL0     H74369  10.401   4.032   6.593 -0.7343 -1.5883 -3.0244
  551MOL0     H74370  10.173   4.022   6.698  0.1646 -0.8142 -2.5426
  551MOL0     H74371   9.908   3.806   7.001 -0.9599 -1.6175  1.4744
  551MOL0     H74372   9.719   3.856   7.113  1.6824  3.3955  0.3937
  551MOL0     H74373   9.533   4.110   7.025  1.4923 -0.8461 -0.5287
  551MOL0     H74374   9.454   4.039   7.160 -1.6703 -1.7908  0.2775
  551MOL0     H74375   9.237   4.028   7.006  0.6185  0.4156 -0.7372
  551MOL0     H74376   9.342   4.115   6.881 -0.2728  1.6979 -0.7122
  551MOL0     H74377   9.355   4.299   7.005 -0.8136 -2.0034 -5.2568
  551MOL0     H74378   9.274   4.226   7.153  0.0978  1.0266 -0.3898
  551MOL0     H74379   9.147   4.292   6.885 -0.6396  0.6414 -0.1410
  551MOL0     H74380   9.070   4.197   7.018  0.8425 -0.7361  0.9432
  551MOL0     H74381   9.036   4.597   7.166 -0.6515 -0.4968  1.4863
  551MOL0     H74382   9.497   3.902   6.736  0.2544  0.7176 -0.3850
  551MOL0     H74383   9.594   3.880   6.527 -0.9461 -1.8698  0.7507
  551MOL0     H74384   9.764   3.946   6.527  0.2543 -1.5663 -1.8144
  551MOL0     H74385   9.746   3.779   6.527  2.9933  1.8483 -0.3135
  552MOL0     O74386   8.392   4.450   3.131  0.2418 -0.0438 -0.0176
  552MOL0     C74387   8.453   4.389   3.223  0.9542  0.1300 -0.0390
  552MOL0     O74388   8.398   4.344   3.333  0.1963  0.3553  0.6149
  552MOL0     C74389   8.271   4.315   3.347 -0.3088 -0.2112  0.6498
  552MOL0     C74390   8.237   4.192   3.400 -0.3878 -0.2765 -0.4182
  552MOL0     C74391   8.103   4.155   3.412 -0.3827 -0.0044 -1.4496
  552MOL0     C74392   8.005   4.237   3.372  1.2391 -0.2678  0.4916
  552MOL0     O74393   7.878   4.182   3.376 -0.2675 -0.6360 -0.1943
  552MOL0     C74394   7.764   4.269   3.367 -0.2251 -0.5328 -0.9457
  552MOL0     C74395   7.632   4.188   3.386  0.6076  0.1735 -0.0238
  552MOL0     C74396   7.511   4.285   3.384 -0.1864  0.1184 -0.1665
  552MOL0     C74397   7.381   4.214   3.419  0.2324 -0.8964 -0.7129
  552MOL0     C74398   7.339   4.119   3.302  1.5132  0.3907 -0.0862
  552MOL0     C74399   7.260   4.197   3.195  0.3064  0.9279  0.2594
  552MOL0     C74400   7.214   4.093   3.090  0.1773 -0.0344  0.8842
  552MOL0     C74401   7.168   4.169   2.966 -0.1095  0.4961 -0.0886
  552MOL0     N74402   7.039   4.236   3.000 -0.8812 -0.0852 -0.4405
  552MOL0     C74403   7.013   4.372   3.005 -0.4183  1.1327  0.1890
  552MOL0     C74404   6.890   4.388   3.035  0.4625 -0.5808 -0.1010
  552MOL0     C74405   6.805   4.517   3.030  0.2662 -0.0852  1.1816
  552MOL0     C74406   6.736   4.555   3.155  0.6512  0.0480 -0.0065
  552MOL0     C74407   6.827   4.560   3.285 -0.2880 -0.1899 -0.3921
  552MOL0     C74408   6.932   4.674   3.289  0.1213 -0.5618 -0.2404
  552MOL0     O74409   6.860   4.800   3.292 -0.0597  0.1544 -0.4086
  552MOL0     C74410   6.924   4.916   3.307 -0.2854 -0.2187  0.9988
  552MOL0     C74411   6.844   5.025   3.294 -0.1461 -0.6644  0.0363
  552MOL0     C74412   6.886   5.157   3.309  0.5950 -0.0982  0.6415
  552MOL0     C74413   7.025   5.172   3.316  0.2224 -0.1993 -0.0545
  552MOL0     C74414   7.075   5.311   3.325  0.0436  0.4196 -0.0645
  552MOL0     O74415   7.212   5.325   3.315  0.0865  0.0438  0.2303
  552MOL0     C74416   7.276   5.453   3.308 -0.3613  0.0842  0.2731
  552MOL0     C74417   7.399   5.449   3.242  0.3259 -0.1802 -0.4888
  552MOL0     C74418   7.471   5.566   3.215  0.5589  1.1218 -0.0337
  552MOL0     C74419   7.424   5.687   3.248  0.4053 -0.1077 -0.4218
  552MOL0     O74420   7.489   5.809   3.231 -0.8076 -0.1431 -0.2981
  552MOL0     C74421   7.617   5.809   3.165  0.0170 -0.2784  0.2307
  552MOL0     C74422   7.727   5.759   3.261 -1.0347  0.1130  0.3221
  552MOL0     C74423   7.868   5.799   3.198 -0.4860 -0.1875 -0.4828
  552MOL0     C74424   7.968   5.676   3.212 -0.2741 -0.3520 -0.8598
  552MOL0     C74425   8.045   5.677   3.350 -0.4161  0.5001  0.1819
  552MOL0     C74426   8.107   5.548   3.393  1.1788 -0.6393 -0.4603
  552MOL0     C74427   8.200   5.560   3.508  0.4119 -0.3180 -0.6302
  552MOL0     C74428   8.331   5.614   3.473  0.5780  0.8268 -0.8552
  552MOL0    Cl74429   8.443   5.633   3.618  0.0546 -0.0554  0.4030
  552MOL0     C74430   7.298   5.699   3.311 -0.1597  0.7651  0.8440
  552MOL0     C74431   7.228   5.578   3.337  0.0578 -0.3508  0.8323
  552MOL0     O74432   6.994   5.401   3.345  0.5332 -0.0155  0.7147
  552MOL0     C74433   7.113   5.065   3.329  0.3237  1.2011  0.0912
  552MOL0     C74434   7.059   4.929   3.326  0.1767 -0.7519 -0.1193
  552MOL0     N74435   6.838   4.257   3.057  0.5248  0.6901  0.0343
  552MOL0     N74436   6.926   4.170   3.039 -0.4441 -0.0998 -0.2794
  552MOL0     C74437   8.035   4.361   3.320  0.4710 -0.0528 -0.1927
  552MOL0     C74438   8.168   4.392   3.295 -0.2770 -0.4074 -0.5830
  552MOL0     C74439   8.604   4.383   3.200  1.0385 -0.1831 -0.8288
  552MOL0     C74440   8.647   4.386   3.063 -0.6241 -0.1522  0.2206
  552MOL0     C74441   8.777   4.384   3.035 -0.6381 -0.7973  1.1066
  552MOL0     C74442   8.871   4.362   3.133 -0.4830  0.0248  0.2271
  552MOL0     O74443   9.003   4.333   3.097 -0.4558  0.4522 -0.3336
  552MOL0     C74444   9.072   4.452   3.071 -0.5281 -0.1925  0.1939
  552MOL0     C74445   9.173   4.480   3.178  0.2889  0.9676 -0.1889
  552MOL0     C74446   9.278   4.366   3.186 -0.4809 -0.0553  0.1305
  552MOL0     C74447   9.381   4.385   3.296 -0.7915 -0.2780 -0.0595
  552MOL0     C74448   9.321   4.399   3.424 -0.3697 -0.2663 -0.1920
  552MOL0     C74449   9.257   4.419   3.528  1.0208 -0.1742 -0.2624
  552MOL0     C74450   8.822   4.356   3.266  0.8142 -0.2875 -0.8097
  552MOL0     C74451   8.694   4.378   3.308 -0.0131  0.6127  0.6157
  552MOL0     C74452   8.670   4.404   3.453 -0.0528 -0.2881  0.0504
  552MOL0     H74453   8.321   4.133   3.433 -0.6069 -0.5345 -0.3203
  552MOL0     H74454   8.078   4.054   3.444 -2.8737  0.3026 -2.1823
  552MOL0     H74455   7.761   4.361   3.428 -1.9099 -0.2385 -1.4219
  552MOL0     H74456   7.768   4.316   3.269 -1.3034 -1.5541 -1.5095
  552MOL0     H74457   7.616   4.130   3.477 -0.7990 -2.0768 -1.5995
  552MOL0     H74458   7.647   4.118   3.303 -1.3701  1.8800 -1.9644
  552MOL0     H74459   7.511   4.331   3.285  1.9738  2.0523  0.6674
  552MOL0     H74460   7.528   4.357   3.465 -3.2934  2.0689 -1.0727
  552MOL0     H74461   7.391   4.167   3.517  1.3359  1.4492  0.3729
  552MOL0     H74462   7.300   4.287   3.428  0.0231 -1.1089 -0.8432
  552MOL0     H74463   7.416   4.067   3.243  0.7173  1.4047 -2.1253
  552MOL0     H74464   7.274   4.044   3.347  3.1207 -0.2201  1.3391
  552MOL0     H74465   7.167   4.240   3.232 -0.1106  1.4609 -1.3544
  552MOL0     H74466   7.330   4.272   3.158  2.5027  0.2612  2.7291
  552MOL0     H74467   7.136   4.033   3.137 -1.5027  2.2781  1.2026
  552MOL0     H74468   7.294   4.029   3.051 -0.4167 -0.5972  0.5828
  552MOL0     H74469   7.250   4.240   2.949  1.7406 -1.4586  0.3131
  552MOL0     H74470   7.166   4.117   2.870  4.0261  2.3064 -1.3982
  552MOL0     H74471   7.089   4.443   2.974  1.2109 -1.0012 -1.0967
  552MOL0     H74472   6.865   4.604   3.000 -1.0319  0.3774 -0.1792
  552MOL0     H74473   6.730   4.508   2.951 -1.7958  1.3745  2.8487
  552MOL0     H74474   6.693   4.656   3.153  4.1374  1.7110  0.5144
  552MOL0     H74475   6.664   4.476   3.177 -0.5980  1.2411  0.4037
  552MOL0     H74476   6.881   4.469   3.312 -2.9591 -0.8749  3.6001
  552MOL0     H74477   6.758   4.578   3.368 -4.4841  1.1942 -3.8116
  552MOL0     H74478   6.995   4.666   3.200 -0.9717 -1.5326 -0.9503
  552MOL0     H74479   6.996   4.673   3.378  0.5700  2.4139 -0.4089
  552MOL0     H74480   6.738   4.999   3.290 -0.1462 -2.0650  4.1682
  552MOL0     H74481   6.808   5.232   3.310 -0.4876 -1.1848  1.6588
  552MOL0     H74482   7.432   5.352   3.207  1.0113  0.1305 -0.7076
  552MOL0     H74483   7.568   5.563   3.166  0.8843  0.2252  0.6212
  552MOL0     H74484   7.621   5.758   3.068  2.6420 -0.2881  0.2671
  552MOL0     H74485   7.636   5.913   3.140 -0.8558 -0.3021 -0.5999
  552MOL0     H74486   7.719   5.811   3.357  0.4109 -0.4581  0.7827
  552MOL0     H74487   7.731   5.651   3.278  2.8093  0.3210  1.8122
  552MOL0     H74488   7.851   5.821   3.092  1.1969  1.2579 -0.5138
  552MOL0     H74489   7.913   5.891   3.237  1.2513 -0.7380 -1.0917
  552MOL0     H74490   8.045   5.681   3.134 -0.2888  0.0672 -0.8531
  552MOL0     H74491   7.907   5.588   3.192 -2.3951 -0.0119  3.1365
  552MOL0     H74492   7.970   5.704   3.425 -2.8710 -1.1654 -1.5359
  552MOL0     H74493   8.123   5.753   3.334  0.4408 -0.3260  0.3294
  552MOL0     H74494   8.021   5.482   3.405  0.6295  0.2501  0.6437
  552MOL0     H74495   8.163   5.503   3.310  0.6956 -0.7990 -0.7033
  552MOL0     H74496   8.208   5.464   3.559  0.1568 -0.7610 -1.4092
  552MOL0     H74497   8.159   5.625   3.586  0.6942 -1.4687  0.5108
  552MOL0     H74498   8.369   5.543   3.400 -0.6865 -1.1595  0.3392
  552MOL0     H74499   8.322   5.715   3.431 -0.3320  1.1923  0.1808
  552MOL0     H74500   7.260   5.798   3.336  0.3526  1.8908 -2.3484
  552MOL0     H74501   7.130   5.583   3.383 -0.7988 -0.9183 -0.8277
  552MOL0     H74502   7.220   5.070   3.347  0.5049 -1.4907  0.1468
  552MOL0     H74503   7.128   4.847   3.340  0.7542 -0.4920 -1.2788
  552MOL0     H74504   7.966   4.440   3.292  1.1659  0.2751 -1.0522
  552MOL0     H74505   8.172   4.491   3.250 -1.7106  1.3068  2.7029
  552MOL0     H74506   8.576   4.389   2.981 -1.4266 -1.9594  0.8034
  552MOL0     H74507   8.806   4.394   2.931 -0.8907  2.4445  1.2630
  552MOL0     H74508   9.010   4.541   3.057 -2.0306 -1.2906 -0.4400
  552MOL0     H74509   9.127   4.441   2.977  1.4984  0.9439  1.1675
  552MOL0     H74510   9.128   4.499   3.276  0.1747  2.0593 -0.4307
  552MOL0     H74511   9.232   4.567   3.146  3.0243  0.5759  3.2378
  552MOL0     H74512   9.339   4.364   3.094  0.6944 -1.2829  0.8936
  552MOL0     H74513   9.226   4.272   3.206 -0.5450  0.0271  0.3439
  552MOL0     H74514   9.455   4.305   3.297  0.7115  1.0494  0.9778
  552MOL0     H74515   9.436   4.477   3.276 -0.5747 -0.5599 -0.7733
  552MOL0     H74516   9.199   4.453   3.611 -0.4286 -1.0182 -0.8811
  552MOL0     H74517   8.903   4.342   3.336 -0.1822 -1.1148  0.2239
  552MOL0     H74518   8.711   4.504   3.471 -0.4530 -0.4435  2.0708
  552MOL0     H74519   8.564   4.411   3.482 -0.2219  0.6431 -0.7248
  552MOL0     H74520   8.717   4.330   3.518  3.4374 -1.8401 -3.8370
  553MOL0     O74521  10.855   8.720   3.493  0.1298 -0.2866  0.7724
  553MOL0     C74522  10.831   8.771   3.386 -0.2733  0.4192 -0.1473
  553MOL0     O74523  10.926   8.789   3.283  0.5901  0.1346  0.1349
  553MOL0     C74524  11.044   8.725   3.310  0.9518 -0.2229 -0.3573
  553MOL0     C74525  11.055   8.597   3.257  0.3430 -0.3049  0.9431
  553MOL0     C74526  11.176   8.527   3.282 -1.0679  0.0815 -0.0632
  553MOL0     C74527  11.280   8.574   3.361 -0.9125  0.4606  0.8554
  553MOL0     O74528  11.384   8.492   3.372 -0.9867 -0.0513 -0.1758
  553MOL0     C74529  11.506   8.540   3.432  0.1826 -0.3307  0.2104
  553MOL0     C74530  11.605   8.412   3.450  0.7429  0.9785 -0.2040
  553MOL0     C74531  11.753   8.455   3.453 -0.4728 -0.9676 -0.1771
  553MOL0     C74532  11.832   8.321   3.467  0.0214  0.2574 -0.8025
  553MOL0     C74533  11.984   8.339   3.456  0.1513 -0.7334 -0.5363
  553MOL0     C74534  12.023   8.402   3.317  0.0355  0.1774  0.2298
  553MOL0     C74535  12.170   8.372   3.288 -0.0272 -0.2721 -1.1041
  553MOL0     C74536  12.263   8.447   3.387 -0.8207  0.1488 -0.0684
  553MOL0     N74537  12.397   8.470   3.341 -0.5069  0.4124 -0.2342
  553MOL0     C74538  12.436   8.584   3.276 -0.6061 -0.3355 -0.5750
  553MOL0     C74539  12.575   8.587   3.275 -0.1044 -0.2815  0.2542
  553MOL0     C74540  12.656   8.688   3.203  0.1918  0.3976  0.7759
  553MOL0     C74541  12.663   8.815   3.283  0.3451  0.2069 -0.4468
  553MOL0     C74542  12.751   8.793   3.414 -0.3409 -0.2196  0.7726
  553MOL0     C74543  12.901   8.785   3.370  0.0884  0.0017 -0.4633
  553MOL0     O74544  12.960   8.915   3.353  0.1483 -0.4735  0.1377
  553MOL0     C74545  13.092   8.904   3.322 -0.2134 -0.2279 -0.0862
  553MOL0     C74546  13.189   8.940   3.410  0.7486  0.4889 -0.3058
  553MOL0     C74547  13.328   8.922   3.390 -0.0647  0.0495  0.2763
  553MOL0     C74548  13.375   8.859   3.274 -0.1606  0.5833 -0.5163
  553MOL0     C74549  13.513   8.837   3.255 -0.1387 -0.9443  0.1957
  553MOL0     O74550  13.547   8.797   3.134 -0.8274  0.4092 -0.1362
  553MOL0     C74551  13.681   8.799   3.108  0.2774  0.5094  0.2494
  553MOL0     C74552  13.749   8.925   3.092  0.7768  0.5611  0.1343
  553MOL0     C74553  13.884   8.938   3.052  0.5253 -0.3882  1.3987
  553MOL0     C74554  13.955   8.819   3.029 -0.0096  0.5089  0.1796
  553MOL0     O74555  14.091   8.810   2.997  0.5328 -0.1596  0.5353
  553MOL0     C74556  14.180   8.922   3.041  0.2351 -0.3819  0.0760
  553MOL0     C74557  14.328   8.905   2.997  0.7995  0.1609  0.1992
  553MOL0     C74558  14.413   9.012   3.042  0.3167 -0.1634  0.4954
  553MOL0     C74559  14.544   8.971   2.976  0.5094  0.5074 -0.7260
  553MOL0     C74560  14.650   9.077   3.005 -0.7149 -0.8993  0.5966
  553MOL0     C74561  14.803   9.047   2.976 -0.5771  0.1997  0.0693
  553MOL0     C74562  14.839   9.061   2.835  0.4400  0.6241  0.5939
  553MOL0     C74563  14.987   9.093   2.802 -0.2009 -0.2913  0.1545
  553MOL0    Cl74564  15.090   8.955   2.829 -0.3980 -0.0786 -0.2662
  553MOL0     C74565  13.888   8.698   3.039  0.6692 -0.1153  0.6563
  553MOL0     C74566  13.757   8.687   3.080  0.3675  0.0261  0.0362
  553MOL0     O74567  13.592   8.854   3.355 -0.3266  0.0806  0.3362
  553MOL0     C74568  13.275   8.825   3.179 -0.2313  0.7745 -0.4318
  553MOL0     C74569  13.139   8.845   3.205  0.4825 -0.0639  0.3745
  553MOL0     N74570  12.620   8.471   3.330 -0.2667 -0.5110  0.2411
  553MOL0     N74571  12.514   8.402   3.364  0.4750  0.4595  0.7023
  553MOL0     C74572  11.260   8.710   3.420  0.5529  0.1156  0.1354
  553MOL0     C74573  11.144   8.785   3.390 -0.6754  0.7360  0.1276
  553MOL0     C74574  10.691   8.800   3.350  0.0805  0.1833  0.8020
  553MOL0     C74575  10.592   8.751   3.441 -0.8258  0.0943 -0.0792
  553MOL0     C74576  10.466   8.803   3.431  0.0979  0.1106 -0.6011
  553MOL0     C74577  10.423   8.900   3.336  0.4793  1.0680 -0.0083
  553MOL0     O74578  10.295   8.951   3.334  0.1641  0.2274  0.2502
  553MOL0     C74579  10.191   8.903   3.421 -0.9448  0.1752 -0.3093
  553MOL0     C74580  10.148   8.763   3.370 -0.2228 -0.2734  0.2001
  553MOL0     C74581  10.108   8.762   3.218  0.0246 -0.8669  0.2043
  553MOL0     C74582   9.968   8.818   3.193  0.2162  0.6153  1.0847
  553MOL0     C74583   9.861   8.732   3.253  0.0489 -0.2576  0.1006
  553MOL0     C74584   9.779   8.673   3.326  0.0924  0.6501  0.4659
  553MOL0     C74585  10.512   8.923   3.236 -1.1683 -0.0995  0.3356
  553MOL0     C74586  10.648   8.881   3.237 -0.6937 -0.1125 -0.2537
  553MOL0     C74587  10.742   8.949   3.135 -0.5969  0.5964 -0.4535
  553MOL0     H74588  10.986   8.563   3.181 -0.5914 -1.7435  2.3709
  553MOL0     H74589  11.192   8.435   3.228  1.0494  1.4016 -1.8833
  553MOL0     H74590  11.547   8.616   3.366  1.1585 -2.0532 -1.2736
  553MOL0     H74591  11.496   8.583   3.532  0.3000  2.5283 -0.9308
  553MOL0     H74592  11.596   8.340   3.368 -0.3625 -0.7621  1.3525
  553MOL0     H74593  11.575   8.368   3.545 -0.5185  1.2705 -0.4565
  553MOL0     H74594  11.784   8.517   3.537  1.3462 -1.1074 -0.6997
  553MOL0     H74595  11.785   8.502   3.359 -0.7221 -1.7905 -0.6856
  553MOL0     H74596  11.806   8.268   3.560 -0.0799  0.1345 -0.8995
  553MOL0     H74597  11.789   8.262   3.385 -0.2517  0.9078 -1.1326
  553MOL0     H74598  12.014   8.412   3.532  0.8367 -1.4298 -0.1293
  553MOL0     H74599  12.032   8.242   3.463 -2.4839 -2.2584 -1.8895
  553MOL0     H74600  11.950   8.356   3.250 -4.8480  2.5544  3.3990
  553MOL0     H74601  12.002   8.509   3.308 -2.0193 -0.3071 -1.1655
  553MOL0     H74602  12.201   8.415   3.192 -1.1126 -0.9225 -1.7681
  553MOL0     H74603  12.190   8.264   3.282  0.4687 -0.1217 -2.7394
  553MOL0     H74604  12.230   8.544   3.426 -0.7326 -1.0216  3.3148
  553MOL0     H74605  12.278   8.383   3.475  1.9740  2.0498  0.9474
  553MOL0     H74606  12.379   8.669   3.240  2.0435  0.3147 -3.7388
  553MOL0     H74607  12.751   8.639   3.181  0.8539  0.5922  2.9558
  553MOL0     H74608  12.604   8.709   3.109  0.1247  1.5081  1.0514
  553MOL0     H74609  12.707   8.896   3.225  2.0360  0.7312  1.4302
  553MOL0     H74610  12.563   8.841   3.317  0.3665  0.9629 -0.9472
  553MOL0     H74611  12.722   8.701   3.466 -0.2043  1.1098  3.3626
  553MOL0     H74612  12.745   8.872   3.489  0.7224  1.4667 -0.8442
  553MOL0     H74613  12.904   8.743   3.270 -1.8841 -1.4334  0.0117
  553MOL0     H74614  12.955   8.724   3.444  1.2210  3.3540  1.6984
  553MOL0     H74615  13.163   8.994   3.501 -2.6194  0.8713 -1.3350
  553MOL0     H74616  13.389   8.954   3.474  1.9537  2.2379 -1.8867
  553MOL0     H74617  13.698   9.021   3.092  1.3514  0.8680  0.4162
  553MOL0     H74618  13.933   9.035   3.060  1.4726 -0.8062  0.8079
  553MOL0     H74619  14.134   8.998   2.977  0.0930 -1.6790 -1.4349
  553MOL0     H74620  14.165   8.946   3.146 -0.9480  1.7770 -0.5276
  553MOL0     H74621  14.368   8.808   3.029  1.8863  0.4596 -0.1975
  553MOL0     H74622  14.324   8.903   2.888 -3.0982 -1.4847  0.2043
  553MOL0     H74623  14.375   9.100   2.990  2.1349  0.2464 -0.2068
  553MOL0     H74624  14.411   9.027   3.151 -1.1939 -0.9258  0.5867
  553MOL0     H74625  14.540   8.943   2.871  0.5348 -3.8018  0.2070
  553MOL0     H74626  14.569   8.876   3.024 -0.6887  1.2012  1.4389
  553MOL0     H74627  14.658   9.105   3.110  2.6612  1.6419 -0.1578
  553MOL0     H74628  14.629   9.166   2.945 -0.5839 -1.6674 -0.6408
  553MOL0     H74629  14.858   9.117   3.040 -2.8943  0.1804  2.2430
  553MOL0     H74630  14.823   8.946   3.013 -2.1296 -1.0093 -2.1381
  553MOL0     H74631  14.776   9.135   2.785 -2.9143 -1.8304  0.8396
  553MOL0     H74632  14.827   8.967   2.781  0.4392  1.0850 -0.2369
  553MOL0     H74633  14.994   9.136   2.701 -0.0352  0.6435  0.5474
  553MOL0     H74634  15.010   9.178   2.867 -1.7440  0.2963 -0.0146
  553MOL0     H74635  13.941   8.604   3.025 -2.3119 -1.8350 -0.0141
  553MOL0     H74636  13.715   8.589   3.096  0.9779 -0.0291  1.5321
  553MOL0     H74637  13.304   8.772   3.088  0.6089  2.0450 -0.9494
  553MOL0     H74638  13.058   8.818   3.138  0.1178  2.6950 -0.3933
  553MOL0     H74639  11.338   8.760   3.477  1.8799  1.3807 -2.6041
  553MOL0     H74640  11.124   8.886   3.426 -0.7790  0.6589  0.2864
  553MOL0     H74641  10.620   8.692   3.528  2.8974 -0.3346 -1.4130
  553MOL0     H74642  10.395   8.768   3.505  2.0680  0.3352  1.5175
  553MOL0     H74643  10.102   8.966   3.418 -1.2112 -0.1803  0.0533
  553MOL0     H74644  10.229   8.904   3.524  0.5095  2.1041 -0.8211
  553MOL0     H74645  10.064   8.727   3.430  1.2824 -3.3079  0.6545
  553MOL0     H74646  10.225   8.689   3.392  1.3898  0.9154 -1.1872
  553MOL0     H74647  10.105   8.660   3.180 -1.0103 -0.3586 -1.1678
  553MOL0     H74648  10.178   8.822   3.160 -1.5059  0.6952 -0.1150
  553MOL0     H74649   9.948   8.918   3.233  1.2733 -0.0653  3.5650
  553MOL0     H74650   9.955   8.812   3.085 -0.0549  1.2110  1.0840
  553MOL0     H74651   9.716   8.608   3.384  0.4074  0.7149  0.8898
  553MOL0     H74652  10.483   9.000   3.167 -2.0879  1.2921  2.1839
  553MOL0     H74653  10.814   9.012   3.188 -1.5402  0.3991  1.1339
  553MOL0     H74654  10.785   8.871   3.071 -2.8202  0.6132 -2.1221
  553MOL0     H74655  10.698   9.024   3.067 -0.3677  1.0992 -0.0510
  554MOL0     O74656   4.282   0.739  10.192 -0.1372  0.1005 -0.3298
  554MOL0     C74657   4.290   0.838  10.116 -0.0832 -0.2121  0.7579
  554MOL0     O74658   4.394   0.867  10.035 -0.0898  0.1093 -0.8295
  554MOL0     C74659   4.515   0.809  10.063  0.3593  0.6953 -0.6123
  554MOL0     C74660   4.557   0.706   9.978  0.1982  0.1079 -0.0341
  554MOL0     C74661   4.680   0.646   9.992  0.5442  0.2748 -0.1987
  554MOL0     C74662   4.756   0.682  10.098  0.4730  0.6873 -0.2191
  554MOL0     O74663   4.867   0.600  10.108  1.1895  0.5242 -0.4024
  554MOL0     C74664   4.979   0.675  10.171  0.3948 -0.0697  1.2076
  554MOL0     C74665   5.112   0.597  10.145  0.3986 -0.2297  0.6487
  554MOL0     C74666   5.232   0.687  10.194  0.5135  1.2439  0.0337
  554MOL0     C74667   5.368   0.616  10.216  0.2497  0.8098  0.4641
  554MOL0     C74668   5.483   0.716  10.233  0.5398 -0.8545 -0.0331
  554MOL0     C74669   5.620   0.642  10.251  0.7518  1.0597  0.2743
  554MOL0     C74670   5.664   0.571  10.126  0.6325 -0.5676  0.9034
  554MOL0     C74671   5.799   0.501  10.126 -0.6315  0.1241  0.1464
  554MOL0     N74672   5.831   0.433   9.998 -0.3460 -0.3788  0.5094
  554MOL0     C74673   5.735   0.377   9.920 -0.6572  0.0412  1.4331
  554MOL0     C74674   5.810   0.333   9.820 -0.0865  0.3947  0.0796
  554MOL0     C74675   5.761   0.281   9.689 -0.0881  0.1609  0.1967
  554MOL0     C74676   5.863   0.189   9.625  0.0616  1.2881 -0.7952
  554MOL0     C74677   5.777   0.105   9.522 -0.0393  0.1096 -0.3472
  554MOL0     C74678   5.880   0.001   9.461  0.6741  0.3217 -0.4892
  554MOL0     O74679   5.913  -0.092   9.565 -0.4345  0.3207  0.3471
  554MOL0     C74680   6.036  -0.151   9.539  0.5342  0.4245 -0.3485
  554MOL0     C74681   6.042  -0.279   9.501  1.0759  0.3101 -0.3593
  554MOL0     C74682   6.164  -0.344   9.472 -0.4427 -0.9333  0.1659
  554MOL0     C74683   6.281  -0.289   9.504  0.3035  0.5310  0.4370
  554MOL0     C74684   6.412  -0.350   9.477 -1.2851 -0.1952 -0.9197
  554MOL0     O74685   6.521  -0.298   9.547  0.6474 -0.2576  0.0258
  554MOL0     C74686   6.644  -0.349   9.518  0.2578 -0.6470  0.3585
  554MOL0     C74687   6.707  -0.297   9.404  0.2004  0.5856 -0.1641
  554MOL0     C74688   6.843  -0.339   9.373 -0.3079 -0.2724  0.9426
  554MOL0     C74689   6.910  -0.419   9.462 -0.7040 -0.1296  0.1238
  554MOL0     O74690   7.034  -0.471   9.440  0.1000 -0.2466  0.8567
  554MOL0     C74691   7.121  -0.421   9.338 -0.2927  0.4122 -0.7674
  554MOL0     C74692   7.260  -0.498   9.339  1.3096 -0.6041  0.3202
  554MOL0     C74693   7.376  -0.436   9.256  0.1262  0.1906 -0.0736
  554MOL0     C74694   7.342  -0.407   9.108 -0.0310 -0.9182  0.5831
  554MOL0     C74695   7.470  -0.395   9.016  1.1549 -0.7994 -0.2609
  554MOL0     C74696   7.441  -0.350   8.871  0.8968  0.1862 -0.8835
  554MOL0     C74697   7.575  -0.345   8.799 -0.4324 -0.1446 -0.9139
  554MOL0     C74698   7.563  -0.328   8.649 -0.3671 -0.0238 -1.1443
  554MOL0    Cl74699   7.445  -0.207   8.600  0.3461 -0.4910  0.4763
  554MOL0     C74700   6.842  -0.460   9.574 -0.0483 -0.1416  0.0699
  554MOL0     C74701   6.707  -0.427   9.606 -0.9645 -0.1682  0.2086
  554MOL0     O74702   6.417  -0.438   9.391  0.3895 -0.2071 -0.3397
  554MOL0     C74703   6.278  -0.168   9.566  0.5549  0.8515 -1.0073
  554MOL0     C74704   6.159  -0.092   9.579 -0.9799  0.0228  0.1740
  554MOL0     N74705   5.940   0.364   9.835  0.0628 -0.0880 -0.7280
  554MOL0     N74706   5.952   0.419   9.950  0.6379 -0.1030 -0.1611
  554MOL0     C74707   4.719   0.794  10.184  0.0148  0.3652  0.2158
  554MOL0     C74708   4.600   0.863  10.158  0.6351 -1.0793 -0.2157
  554MOL0     C74709   4.181   0.936  10.124  0.9597 -0.6189 -0.1303
  554MOL0     C74710   4.142   0.984  10.257  0.4666  1.1090 -0.5762
  554MOL0     C74711   4.037   1.074  10.265 -0.3114 -0.5158  1.1650
  554MOL0     C74712   3.970   1.115  10.146  0.8040  0.0437  0.9365
  554MOL0     O74713   3.856   1.192  10.156  0.7354 -0.1459  0.5461
  554MOL0     C74714   3.880   1.324  10.207 -0.4570 -0.1660 -0.3027
  554MOL0     C74715   3.752   1.396  10.228 -0.1213  0.4007 -0.3428
  554MOL0     C74716   3.686   1.417  10.089 -0.2474 -0.9652  0.2752
  554MOL0     C74717   3.544   1.460  10.101  0.7220 -1.2517  0.3221
  554MOL0     C74718   3.452   1.347  10.096  0.0361 -0.3040 -0.5008
  554MOL0     C74719   3.367   1.261  10.105  0.0344 -0.6047  0.1944
  554MOL0     C74720   3.996   1.062  10.016 -0.4354 -0.0394  0.1433
  554MOL0     C74721   4.115   0.987  10.006 -1.0916  0.0605 -0.2065
  554MOL0     C74722   4.141   0.919   9.874  0.1368  0.6729 -0.4909
  554MOL0     H74723   4.485   0.657   9.913 -1.6326  1.8397  0.5907
  554MOL0     H74724   4.700   0.561   9.928  0.0662 -1.5473  1.9156
  554MOL0     H74725   4.991   0.779  10.137 -1.1871  0.0745  1.0088
  554MOL0     H74726   4.952   0.689  10.277 -2.8000  0.0855  0.4745
  554MOL0     H74727   5.106   0.571  10.039  0.9666  0.7089  0.3792
  554MOL0     H74728   5.103   0.504  10.202  1.7439  0.5003  2.1227
  554MOL0     H74729   5.198   0.723  10.292 -0.6701 -0.3135  0.2415
  554MOL0     H74730   5.252   0.771  10.127 -0.3165  1.1898 -0.2956
  554MOL0     H74731   5.363   0.537  10.291  1.3517  0.4631  0.1848
  554MOL0     H74732   5.393   0.562  10.124  2.7425  2.4010  0.1267
  554MOL0     H74733   5.480   0.791  10.154 -1.3955  0.0294  0.8211
  554MOL0     H74734   5.473   0.786  10.317  2.0287  2.3493 -2.3200
  554MOL0     H74735   5.687   0.727  10.271  5.0408 -1.0902 -3.2088
  554MOL0     H74736   5.628   0.568  10.331 -1.4727 -0.7385 -1.0725
  554MOL0     H74737   5.667   0.644  10.044  1.9913 -0.2462  1.2229
  554MOL0     H74738   5.587   0.495  10.108 -1.2906  0.9614  2.3004
  554MOL0     H74739   5.874   0.578  10.144 -1.5899  0.8359  1.2481
  554MOL0     H74740   5.796   0.436  10.214 -0.7247  1.6167  1.2706
  554MOL0     H74741   5.628   0.390   9.923 -0.5761  1.1976  0.5457
  554MOL0     H74742   5.665   0.236   9.718 -0.0695  0.1141  0.1853
  554MOL0     H74743   5.733   0.363   9.622  0.6295 -1.5874 -2.3825
  554MOL0     H74744   5.939   0.248   9.573 -0.4478  2.1649 -0.5764
  554MOL0     H74745   5.902   0.120   9.701  0.8451  0.7423 -1.6754
  554MOL0     H74746   5.739   0.172   9.446  1.7589 -1.4355 -2.7496
  554MOL0     H74747   5.691   0.050   9.561  1.6265 -2.1594  0.4315
  554MOL0     H74748   5.967   0.057   9.424  1.8269 -1.4378 -0.5444
  554MOL0     H74749   5.828  -0.054   9.382  1.2073  0.0586 -0.6620
  554MOL0     H74750   5.947  -0.330   9.486  0.2561  1.3713  0.9708
  554MOL0     H74751   6.167  -0.444   9.428 -4.3091 -0.1714 -2.3147
  554MOL0     H74752   6.656  -0.223   9.343 -0.0242  0.5974  0.0392
  554MOL0     H74753   6.884  -0.283   9.289 -2.8642  0.3433  0.0125
  554MOL0     H74754   7.085  -0.441   9.237  1.5948 -0.8423 -1.2571
  554MOL0     H74755   7.132  -0.313   9.350 -1.7262  0.5872 -0.8709
  554MOL0     H74756   7.294  -0.517   9.441 -3.5750 -1.5681  2.0511
  554MOL0     H74757   7.245  -0.598   9.296  3.6196  0.3766 -3.2019
  554MOL0     H74758   7.421  -0.345   9.295  2.8529 -0.9718 -0.2695
  554MOL0     H74759   7.455  -0.512   9.252  0.7622  0.6144  2.6082
  554MOL0     H74760   7.294  -0.309   9.100 -0.9831 -1.4956 -1.2789
  554MOL0     H74761   7.272  -0.479   9.065 -1.4678  0.4252  0.6009
  554MOL0     H74762   7.527  -0.488   9.030 -0.0979 -1.5168  0.2170
  554MOL0     H74763   7.527  -0.310   9.056  1.1766 -0.2092 -1.5103
  554MOL0     H74764   7.379  -0.432   8.834 -0.0609  1.5228 -2.3283
  554MOL0     H74765   7.382  -0.258   8.878  1.9689  0.8584 -0.3248
  554MOL0     H74766   7.638  -0.431   8.823  3.2962  1.9274 -2.4475
  554MOL0     H74767   7.625  -0.255   8.837 -3.0312  0.2970  1.8109
  554MOL0     H74768   7.660  -0.284   8.622 -0.8207  1.3415 -0.6047
  554MOL0     H74769   7.548  -0.423   8.597 -0.0687 -0.6942 -0.0342
  554MOL0     H74770   6.883  -0.530   9.646 -1.6050  0.8471  1.9996
  554MOL0     H74771   6.656  -0.459   9.697 -2.3658  0.7926 -0.2130
  554MOL0     H74772   6.369  -0.124   9.604  0.4554 -1.2360  2.0293
  554MOL0     H74773   6.146   0.011   9.612 -2.6012 -0.5171  1.3377
  554MOL0     H74774   4.769   0.829  10.274  0.3963  1.2542 -0.3351
  554MOL0     H74775   4.575   0.955  10.210  1.5871 -0.8232 -0.2042
  554MOL0     H74776   4.190   0.951  10.348 -0.6647  1.3233  0.1142
  554MOL0     H74777   4.006   1.121  10.358 -1.0886 -1.6789  1.5168
  554MOL0     H74778   3.947   1.382  10.142 -0.4752  1.7020  1.2398
  554MOL0     H74779   3.937   1.318  10.300 -0.1682 -2.2921 -0.5570
  554MOL0     H74780   3.772   1.498  10.261  0.8998 -0.2060  1.0316
  554MOL0     H74781   3.697   1.342  10.305  0.3424  2.7015  1.7035
  554MOL0     H74782   3.692   1.330  10.024 -1.5382 -1.0589  0.2572
  554MOL0     H74783   3.747   1.498  10.049  0.3544 -2.3973 -1.8599
  554MOL0     H74784   3.526   1.532  10.181  0.9577  0.6667 -1.2713
  554MOL0     H74785   3.528   1.522  10.013  2.6259 -1.6525 -0.3690
  554MOL0     H74786   3.280   1.199  10.110 -1.5406  1.2339 -2.1130
  554MOL0     H74787   3.922   1.086   9.941  0.2559 -1.0517 -0.8959
  554MOL0     H74788   4.140   0.809   9.869  0.7829  0.5981  0.5318
  554MOL0     H74789   4.067   0.957   9.804  0.6798  2.7208 -0.0155
  554MOL0     H74790   4.244   0.943   9.845  1.0112 -1.7660  0.2946
  555MOL0     O74791   4.418  10.026   3.109 -0.4957 -0.2915 -0.1098
  555MOL0     C74792   4.402  10.107   3.200 -0.0245  0.5020 -0.1903
  555MOL0     O74793   4.500  10.136   3.294  0.0942 -0.0726  0.3684
  555MOL0     C74794   4.620  10.069   3.292  0.5747  0.0829  0.6076
  555MOL0     C74795   4.641   9.970   3.385  0.1598  0.2179 -0.1300
  555MOL0     C74796   4.766   9.903   3.401  0.4244  0.8866  0.8471
  555MOL0     C74797   4.867   9.926   3.305  0.2371  0.2021  0.5245
  555MOL0     O74798   4.984   9.859   3.286  0.5435  0.3381 -0.2751
  555MOL0     C74799   4.980   9.719   3.321  0.1624 -0.2288 -0.5659
  555MOL0     C74800   5.067   9.712   3.450 -0.4727 -0.5480 -0.5721
  555MOL0     C74801   5.195   9.787   3.432 -0.1692 -0.0156  0.2642
  555MOL0     C74802   5.312   9.736   3.524  0.0861 -0.3633 -1.3581
  555MOL0     C74803   5.447   9.794   3.484  0.3756 -0.4387  0.0932
  555MOL0     C74804   5.563   9.768   3.577  0.1002  0.4253 -0.3939
  555MOL0     C74805   5.571   9.620   3.606  0.3194 -0.3750  0.2455
  555MOL0     C74806   5.714   9.584   3.662  0.4142 -0.0638  0.7022
  555MOL0     N74807   5.763   9.671   3.777  0.5321  0.3843  0.5316
  555MOL0     C74808   5.713   9.662   3.904  0.3388  0.1894  0.4770
  555MOL0     C74809   5.791   9.744   3.973 -0.6079  0.5647  0.3410
  555MOL0     C74810   5.775   9.757   4.127 -0.6815 -0.1046  0.4881
  555MOL0     C74811   5.916   9.752   4.197  0.2429 -0.0652  0.2463
  555MOL0     C74812   5.898   9.708   4.345  0.2233 -0.2579 -0.0294
  555MOL0     C74813   6.024   9.714   4.422 -1.0066  1.0111  0.2974
  555MOL0     O74814   6.111   9.598   4.405  0.6425  0.0438 -1.0255
  555MOL0     C74815   6.210   9.592   4.496 -0.6722  0.2280  0.6846
  555MOL0     C74816   6.249   9.456   4.499  0.4744 -0.0434 -1.0574
  555MOL0     C74817   6.351   9.424   4.584 -0.0960 -0.2354  0.2158
  555MOL0     C74818   6.433   9.523   4.643 -0.2407  0.2063 -0.4251
  555MOL0     C74819   6.554   9.482   4.715 -1.1568  0.1702  0.3834
  555MOL0     O74820   6.608   9.547   4.820  0.2059 -0.5922  0.1828
  555MOL0     C74821   6.729   9.511   4.867  1.1200  0.7775  0.0602
  555MOL0     C74822   6.810   9.617   4.897  0.9154  0.6187 -0.7138
  555MOL0     C74823   6.929   9.602   4.963 -0.2694  0.8869  0.0371
  555MOL0     C74824   6.974   9.467   4.993 -0.0032 -0.8715 -0.2285
  555MOL0     O74825   7.089   9.458   5.069  0.1039 -0.1390 -0.3437
  555MOL0     C74826   7.176   9.345   5.056  0.2646  0.7576 -0.3944
  555MOL0     C74827   7.305   9.370   5.137 -0.0657 -0.4180  1.0354
  555MOL0     C74828   7.288   9.326   5.281  0.2464  0.1951 -0.0492
  555MOL0     C74829   7.411   9.354   5.367  1.0554 -0.1464  0.6395
  555MOL0     C74830   7.547   9.314   5.295 -0.1395 -0.1978 -0.3581
  555MOL0     C74831   7.656   9.304   5.406 -0.4295  0.0280  0.5574
  555MOL0     C74832   7.690   9.431   5.486  0.9384 -0.6176  0.1173
  555MOL0     C74833   7.803   9.392   5.573  0.5150 -0.5179  0.2646
  555MOL0    Cl74834   7.846   9.546   5.640  0.5380  0.4970 -0.5265
  555MOL0     C74835   6.894   9.363   4.962 -0.2516  0.2448 -0.7180
  555MOL0     C74836   6.769   9.383   4.907  1.4496 -0.1268  0.0680
  555MOL0     O74837   6.608   9.385   4.665  0.2941  0.4034  0.0263
  555MOL0     C74838   6.392   9.655   4.631 -0.1451  0.8335 -0.7496
  555MOL0     C74839   6.275   9.691   4.569 -0.2743 -0.4938 -0.1200
  555MOL0     N74840   5.887   9.789   3.891 -0.6942  0.3851  0.1497
  555MOL0     N74841   5.868   9.756   3.774  0.9487  0.4616 -0.1477
  555MOL0     C74842   4.847  10.033   3.206  0.8478  0.8772 -0.2283
  555MOL0     C74843   4.723  10.106   3.206 -0.5706 -0.2088  0.7165
  555MOL0     C74844   4.285  10.193   3.183 -0.0335 -0.7985 -0.1048
  555MOL0     C74845   4.292  10.333   3.175 -0.3363 -0.6723  0.0402
  555MOL0     C74846   4.181  10.407   3.147 -0.0588 -0.7275 -0.3069
  555MOL0     C74847   4.060  10.354   3.128  0.7426 -0.5823  0.0553
  555MOL0     O74848   3.954  10.445   3.114  0.2210 -0.0647  0.0196
  555MOL0     C74849   3.814  10.401   3.096  0.7527 -0.6497  0.4721
  555MOL0     C74850   3.721  10.527   3.070  0.2208  0.2002 -0.1979
  555MOL0     C74851   3.572  10.462   3.049  0.4983 -0.5234 -0.1617
  555MOL0     C74852   3.459  10.569   3.014  0.5464  0.3687  0.5506
  555MOL0     C74853   3.498  10.630   2.888 -0.0150 -0.0354 -0.2070
  555MOL0     C74854   3.526  10.692   2.788 -0.7274  0.2035 -0.2402
  555MOL0     C74855   4.044  10.217   3.148 -0.7176 -0.1690  0.4452
  555MOL0     C74856   4.159  10.133   3.169 -0.5338 -0.7577 -1.0327
  555MOL0     C74857   4.145   9.992   3.181  0.5871 -0.0408  0.1607
  555MOL0     H74858   4.557   9.928   3.441 -2.0632  3.8015 -0.4481
  555MOL0     H74859   4.769   9.820   3.470  1.0861  1.4438  1.5126
  555MOL0     H74860   4.885   9.673   3.349  0.6409 -1.3979 -0.7968
  555MOL0     H74861   5.028   9.662   3.241  0.4993 -0.8593  0.0823
  555MOL0     H74862   5.080   9.608   3.480  3.4139  0.6748  2.8725
  555MOL0     H74863   5.006   9.755   3.530 -2.1795 -2.0677 -0.9787
  555MOL0     H74864   5.170   9.892   3.450 -0.5336 -0.0532 -0.0198
  555MOL0     H74865   5.231   9.765   3.331  0.5755  0.4436  0.4222
  555MOL0     H74866   5.284   9.767   3.625  1.2188 -1.1404 -0.7885
  555MOL0     H74867   5.307   9.627   3.524 -2.2560 -0.3510  0.4236
  555MOL0     H74868   5.459   9.772   3.378 -3.2577  1.1043 -0.8095
  555MOL0     H74869   5.438   9.902   3.496  0.8645 -0.4904  0.9623
  555MOL0     H74870   5.659   9.796   3.533  0.1679 -0.5507 -0.8770
  555MOL0     H74871   5.538   9.823   3.669  1.7302 -2.7019  2.1212
  555MOL0     H74872   5.562   9.567   3.510 -2.3220 -0.2925  0.3666
  555MOL0     H74873   5.488   9.583   3.667 -2.8118  0.0106 -3.3620
  555MOL0     H74874   5.711   9.481   3.701 -0.6253 -0.0425  0.7128
  555MOL0     H74875   5.786   9.570   3.581 -0.5907 -2.4427  0.1448
  555MOL0     H74876   5.629   9.607   3.945  1.6736 -1.9764  0.4371
  555MOL0     H74877   5.706   9.835   4.160  0.4680  0.0554  2.7157
  555MOL0     H74878   5.734   9.662   4.164  0.3229 -0.3453  1.0234
  555MOL0     H74879   5.978   9.670   4.160 -0.6938 -1.2400  1.1821
  555MOL0     H74880   5.977   9.841   4.186  0.7999 -0.2188  1.7830
  555MOL0     H74881   5.857   9.606   4.349 -1.5787  0.4596  1.2047
  555MOL0     H74882   5.826   9.778   4.387  1.6083  0.8545  0.5387
  555MOL0     H74883   6.015   9.723   4.530  0.1487 -1.9663  0.7464
  555MOL0     H74884   6.080   9.798   4.378  3.4666 -1.4570  0.6824
  555MOL0     H74885   6.179   9.385   4.457 -1.7365  2.1455 -1.3099
  555MOL0     H74886   6.373   9.321   4.609 -2.0009 -0.1684  2.4640
  555MOL0     H74887   6.786   9.715   4.858  1.1874  2.0711  2.5133
  555MOL0     H74888   6.993   9.687   4.982  0.0691  1.0852 -1.8609
  555MOL0     H74889   7.128   9.254   5.091 -1.4072  1.7834  0.0802
  555MOL0     H74890   7.207   9.335   4.951 -2.7316 -0.2494 -1.2769
  555MOL0     H74891   7.387   9.314   5.091  1.3666  2.8722 -0.8191
  555MOL0     H74892   7.340   9.474   5.131  2.2550 -1.1492  0.9493
  555MOL0     H74893   7.200   9.367   5.332  0.9485  1.3038  0.2992
  555MOL0     H74894   7.275   9.217   5.277 -0.5589  0.2943 -2.6385
  555MOL0     H74895   7.412   9.303   5.463 -1.6282 -1.8331 -0.1143
  555MOL0     H74896   7.414   9.461   5.387 -4.1376  0.3751  0.2176
  555MOL0     H74897   7.563   9.391   5.220 -1.0570  3.4060  2.8090
  555MOL0     H74898   7.556   9.210   5.261  0.1604  0.6433 -3.0053
  555MOL0     H74899   7.645   9.216   5.469  0.5020 -0.3061  0.2680
  555MOL0     H74900   7.736   9.287   5.333 -0.8790 -2.1754  0.5132
  555MOL0     H74901   7.608   9.485   5.535  2.5113  3.0007 -0.8607
  555MOL0     H74902   7.730   9.506   5.416  1.6269 -2.6055 -1.7243
  555MOL0     H74903   7.770   9.314   5.641 -2.8875  0.3871 -0.1958
  555MOL0     H74904   7.883   9.353   5.510  1.4632 -0.1027  1.1703
  555MOL0     H74905   6.924   9.262   4.991 -0.2273  0.9403  1.9198
  555MOL0     H74906   6.702   9.299   4.891  2.7573 -1.4694  1.4015
  555MOL0     H74907   6.460   9.717   4.689 -0.8901  0.7460  0.2355
  555MOL0     H74908   6.246   9.795   4.576 -1.3820 -0.7300 -0.9387
  555MOL0     H74909   4.935  10.051   3.145  1.3415  1.1209  0.5325
  555MOL0     H74910   4.703  10.184   3.133  0.1130  0.1599  0.9130
  555MOL0     H74911   4.386  10.385   3.190 -1.7763  1.7790  1.0355
  555MOL0     H74912   4.189  10.515   3.152  0.4383 -0.8419  3.3202
  555MOL0     H74913   3.768  10.361   3.187 -1.6645  0.1779 -0.2976
  555MOL0     H74914   3.798  10.321   3.023  0.3976 -1.2495  1.1892
  555MOL0     H74915   3.755  10.582   2.981  1.0011 -0.0861 -0.0822
  555MOL0     H74916   3.725  10.579   3.166  1.7651 -1.0464  0.4561
  555MOL0     H74917   3.543  10.409   3.140  1.5286  0.7147  0.9338
  555MOL0     H74918   3.566  10.379   2.978 -1.2726  1.2235 -2.1945
  555MOL0     H74919   3.362  10.518   3.015  0.7661 -0.0568  1.6025
  555MOL0     H74920   3.444  10.652   3.084 -3.0263 -0.9465  1.5402
  555MOL0     H74921   3.541  10.744   2.696  1.6783 -0.8291 -0.5160
  555MOL0     H74922   3.947  10.169   3.141  0.3702 -2.5423  0.5353
  555MOL0     H74923   4.041   9.960   3.190  1.5182 -2.8980  2.2240
  555MOL0     H74924   4.185   9.938   3.094 -1.5238  0.2791 -1.0671
  555MOL0     H74925   4.194   9.973   3.277  0.4822  2.1084  0.6711
  556MOL0     O74926  10.657   9.604   0.551  0.0110 -0.4813  0.7988
  556MOL0     C74927  10.677   9.516   0.638  0.1481  0.1661  0.0709
  556MOL0     O74928  10.578   9.442   0.693 -0.5290  0.1797  0.3423
  556MOL0     C74929  10.455   9.423   0.643 -0.1878 -0.3945 -0.1617
  556MOL0     C74930  10.359   9.379   0.742 -0.2597 -0.7668 -0.2240
  556MOL0     C74931  10.221   9.362   0.700  0.1129 -0.0801 -0.1690
  556MOL0     C74932  10.182   9.376   0.570  0.7573  0.1948 -0.1382
  556MOL0     O74933  10.041   9.359   0.546 -0.3375  0.2143  0.5946
  556MOL0     C74934   9.997   9.329   0.416 -1.0479 -0.1333 -0.0303
  556MOL0     C74935   9.868   9.252   0.423 -0.1408  0.1723  0.0918
  556MOL0     C74936   9.808   9.232   0.284  0.1241 -0.3781 -0.3134
  556MOL0     C74937   9.671   9.173   0.300  0.2191  0.3109 -0.4905
  556MOL0     C74938   9.608   9.139   0.162 -0.4066  0.4628  0.0795
  556MOL0     C74939   9.457   9.135   0.165  0.3006  0.1877 -0.1240
  556MOL0     C74940   9.399   9.121   0.031  1.3359  0.0496  0.3734
  556MOL0     C74941   9.249   9.113   0.030 -0.7915  0.2671  0.2078
  556MOL0     N74942   9.191   9.115  -0.109  0.2648 -0.0572  0.1620
  556MOL0     C74943   9.165   9.235  -0.170 -0.7996  0.5014 -0.2325
  556MOL0     C74944   9.095   9.194  -0.277  0.5710  0.2045  1.1134
  556MOL0     C74945   9.034   9.297  -0.371 -0.2930  0.1682  0.0025
  556MOL0     C74946   9.142   9.390  -0.431 -0.6121 -0.3255  0.4325
  556MOL0     C74947   9.274   9.315  -0.451  1.0234 -0.2388  0.2334
  556MOL0     C74948   9.367   9.388  -0.544 -1.2947 -0.2268  0.3445
  556MOL0     O74949   9.408   9.510  -0.477 -0.2712 -0.1444 -0.2453
  556MOL0     C74950   9.543   9.532  -0.450 -0.6141 -0.1919  0.0772
  556MOL0     C74951   9.573   9.664  -0.403 -0.3917 -0.4379  0.2947
  556MOL0     C74952   9.705   9.702  -0.378 -0.0471 -0.9001  0.9483
  556MOL0     C74953   9.809   9.614  -0.395 -0.0022  0.0127 -0.4970
  556MOL0     C74954   9.953   9.655  -0.362  0.3606 -0.6847 -0.9775
  556MOL0     O74955   9.966   9.783  -0.324 -0.0560 -0.5320  0.0614
  556MOL0     C74956  10.084   9.847  -0.318  0.1396  0.6992  0.0820
  556MOL0     C74957  10.167   9.850  -0.423 -0.9975 -0.0055 -0.0004
  556MOL0     C74958  10.294   9.914  -0.403  0.8065 -0.0415 -0.7645
  556MOL0     C74959  10.331   9.962  -0.271 -0.1717 -0.6329 -0.0020
  556MOL0     O74960  10.465   9.999  -0.252 -0.6210  0.3416  0.3779
  556MOL0     C74961  10.503  10.035  -0.119  0.1156  0.0606 -0.2545
  556MOL0     C74962  10.651  10.058  -0.109  0.7554  0.2673 -0.2871
  556MOL0     C74963  10.696  10.082   0.027  0.5808 -0.7973  0.0854
  556MOL0     C74964  10.840  10.127   0.020 -0.2689  0.0825 -0.4342
  556MOL0     C74965  10.889  10.195   0.154 -0.7359  0.6159 -0.1030
  556MOL0     C74966  11.021  10.268   0.132 -0.3324 -0.4214 -0.1777
  556MOL0     C74967  11.144  10.183   0.117  0.1186  0.0903  0.0226
  556MOL0     C74968  11.251  10.269   0.043  0.7388  0.2960 -0.6200
  556MOL0    Cl74969  11.407  10.187   0.011 -0.4110  0.0298 -0.1669
  556MOL0     C74970  10.240   9.961  -0.166 -0.0495  0.2511 -0.3008
  556MOL0     C74971  10.117   9.910  -0.195  0.0258  0.2667 -0.1355
  556MOL0     O74972  10.039   9.569  -0.358 -0.1720 -0.1542  0.0058
  556MOL0     C74973   9.777   9.476  -0.428 -0.4503 -0.3498  1.0407
  556MOL0     C74974   9.649   9.435  -0.457 -0.2123  0.5923 -0.9024
  556MOL0     N74975   9.066   9.057  -0.268 -0.0405  0.2092  0.1477
  556MOL0     N74976   9.132   9.013  -0.172 -0.2065 -0.3226 -0.0729
  556MOL0     C74977  10.283   9.410   0.471  0.0944 -0.7995  0.3273
  556MOL0     C74978  10.416   9.436   0.511  0.3441  0.5108 -0.3201
  556MOL0     C74979  10.811   9.486   0.687 -0.5422  0.4873  1.0832
  556MOL0     C74980  10.834   9.439   0.813  0.4140 -0.7454  0.2114
  556MOL0     C74981  10.952   9.393   0.861 -0.5270 -0.6817 -0.3510
  556MOL0     C74982  11.065   9.409   0.781  0.3833  0.3385  0.3533
  556MOL0     O74983  11.190   9.382   0.824  0.2877  0.1497  0.0080
  556MOL0     C74984  11.220   9.345   0.961 -0.1165 -0.1678  0.2732
  556MOL0     C74985  11.194   9.196   0.971 -0.5746 -0.0174 -0.6999
  556MOL0     C74986  11.201   9.145   1.117 -0.3687 -0.2331 -0.0889
  556MOL0     C74987  11.175   8.991   1.119 -0.8493 -0.3373  0.1043
  556MOL0     C74988  11.217   8.942   1.247 -0.7654 -0.3532  0.1912
  556MOL0     C74989  11.232   8.891   1.358 -0.6425 -0.0098 -0.5079
  556MOL0     C74990  11.049   9.453   0.654 -0.3758 -0.8908  0.4097
  556MOL0     C74991  10.926   9.489   0.603  0.6006 -0.2091  1.6051
  556MOL0     C74992  10.924   9.521   0.451  0.1088 -0.3225 -0.4880
  556MOL0     H74993  10.399   9.365   0.842  1.5848  2.8726 -0.2956
  556MOL0     H74994  10.142   9.336   0.770  0.5055 -0.7039  0.0497
  556MOL0     H74995   9.977   9.425   0.366  1.3497  1.1207  1.2164
  556MOL0     H74996  10.081   9.285   0.361  1.7524  4.1605  0.2735
  556MOL0     H74997   9.795   9.310   0.480  0.2002 -0.5864  1.3499
  556MOL0     H74998   9.879   9.155   0.473  2.6220  1.5660  2.5562
  556MOL0     H74999   9.871   9.167   0.222  1.4188  1.0968 -0.6002
  556MOL0     H75000   9.812   9.333   0.241  2.2067 -0.2017  0.1977
  556MOL0     H75001   9.664   9.082   0.361  4.1538 -0.3284 -0.7361
  556MOL0     H75002   9.601   9.242   0.348  0.3362  0.4986 -0.5863
  556MOL0     H75003   9.631   9.225   0.097  1.0039  1.4052  1.7483
  556MOL0     H75004   9.653   9.048   0.122  1.2441  1.7566 -1.1653
  556MOL0     H75005   9.425   9.056   0.234  1.6212  1.4067  2.0009
  556MOL0     H75006   9.420   9.225   0.215 -0.1944 -0.1577  0.1371
  556MOL0     H75007   9.428   9.031  -0.024 -0.1050  0.0518 -0.4226
  556MOL0     H75008   9.436   9.207  -0.026 -0.3619  0.2963 -0.4178
  556MOL0     H75009   9.212   9.026   0.086 -2.2621 -0.0538 -1.1761
  556MOL0     H75010   9.208   9.199   0.084 -2.1978 -0.6543  0.6759
  556MOL0     H75011   9.180   9.339  -0.142 -0.4629  0.5342 -0.5322
  556MOL0     H75012   8.988   9.240  -0.452 -0.5543  1.2579 -0.6367
  556MOL0     H75013   8.959   9.359  -0.321 -0.0733  0.5418 -0.1230
  556MOL0     H75014   9.106   9.437  -0.523 -0.1340 -0.4141  0.1940
  556MOL0     H75015   9.158   9.472  -0.360  1.6246  0.2101 -0.5750
  556MOL0     H75016   9.251   9.218  -0.496 -0.8806 -0.1004  0.7962
  556MOL0     H75017   9.323   9.295  -0.356  1.8745  0.6954  0.0097
  556MOL0     H75018   9.322   9.399  -0.643 -1.1051 -0.2285  0.2565
  556MOL0     H75019   9.448   9.315  -0.555  0.9933  2.1159  0.7077
  556MOL0     H75020   9.489   9.731  -0.388  0.4538  0.4468  1.2835
  556MOL0     H75021   9.720   9.804  -0.346  1.9868 -0.9552  0.2974
  556MOL0     H75022  10.146   9.816  -0.524 -0.9901 -2.4085  0.7415
  556MOL0     H75023  10.363   9.923  -0.487  0.8603  1.4514 -0.5996
  556MOL0     H75024  10.448  10.124  -0.086 -1.4908 -1.4485  1.2966
  556MOL0     H75025  10.489   9.941  -0.067 -0.3710 -0.3733 -1.1483
  556MOL0     H75026  10.692   9.964  -0.147  0.0876 -0.5737  1.0170
  556MOL0     H75027  10.676  10.150  -0.163  3.4001 -0.1810  0.0460
  556MOL0     H75028  10.621  10.146   0.076  0.5963 -0.1043 -0.7745
  556MOL0     H75029  10.691   9.990   0.086  1.5799  0.1672  1.7667
  556MOL0     H75030  10.856  10.206  -0.055 -0.8818  1.1531  0.5268
  556MOL0     H75031  10.900  10.037   0.007  1.2316  0.6846  1.7787
  556MOL0     H75032  10.893  10.111   0.224  1.2475  0.9026  0.1676
  556MOL0     H75033  10.807  10.255   0.195 -0.4223 -1.1193  3.4521
  556MOL0     H75034  11.005  10.328   0.042  0.3261 -2.3719 -1.6581
  556MOL0     H75035  11.029  10.339   0.214 -0.1633  3.3528 -3.1797
  556MOL0     H75036  11.131  10.096   0.053 -0.8360  0.0338  0.2713
  556MOL0     H75037  11.181  10.155   0.215  1.1437  1.3314  0.0127
  556MOL0     H75038  11.199  10.301  -0.048 -0.8937 -0.4268  0.0185
  556MOL0     H75039  11.257  10.365   0.095  1.4267  0.3202 -0.7367
  556MOL0     H75040  10.260  10.008  -0.070  0.4559  1.3417 -0.9107
  556MOL0     H75041  10.045   9.912  -0.114 -2.8159  0.4886 -2.5305
  556MOL0     H75042   9.858   9.404  -0.430 -0.9405 -0.8975  0.5192
  556MOL0     H75043   9.633   9.330  -0.478  0.9049  0.1283  0.4221
  556MOL0     H75044  10.270   9.421   0.364  0.4498  2.0722  0.5175
  556MOL0     H75045  10.487   9.473   0.438 -1.4854  0.2038 -2.3748
  556MOL0     H75046  10.746   9.429   0.877 -0.8058  0.6700 -1.1663
  556MOL0     H75047  10.960   9.369   0.966 -1.5086 -1.6711 -0.4878
  556MOL0     H75048  11.171   9.406   1.037  0.3067  0.4011  0.0917
  556MOL0     H75049  11.329   9.353   0.970  0.4773 -4.0032 -1.3674
  556MOL0     H75050  11.268   9.143   0.911 -0.9657 -0.1857 -1.0356
  556MOL0     H75051  11.097   9.178   0.924 -0.1253  1.6672 -2.4096
  556MOL0     H75052  11.134   9.201   1.182  3.0888  1.1209  2.6400
  556MOL0     H75053  11.305   9.158   1.150  0.2414  2.5650 -2.6531
  556MOL0     H75054  11.068   8.970   1.117 -0.6497 -1.4070 -1.7586
  556MOL0     H75055  11.214   8.934   1.034 -0.2124 -0.2726  0.3493
  556MOL0     H75056  11.250   8.848   1.454  0.4932  1.3382 -0.0873
  556MOL0     H75057  11.133   9.465   0.586 -1.5571  3.1162 -0.6227
  556MOL0     H75058  10.823   9.523   0.410 -0.1961  1.0209  0.2612
  556MOL0     H75059  10.959   9.625   0.440  1.0998 -0.4358  1.1902
  556MOL0     H75060  10.981   9.449   0.391 -1.0973 -0.1501 -1.8996
  557MOL0     O75061   5.440  10.403   1.435  0.5532  0.6240  0.6046
  557MOL0     C75062   5.417  10.390   1.319  0.4388  0.7748  0.6505
  557MOL0     O75063   5.508  10.361   1.226 -0.0355 -0.1742  0.7015
  557MOL0     C75064   5.637  10.358   1.273 -0.1523  0.0448  0.0852
  557MOL0     C75065   5.731  10.457   1.246 -1.2169  0.3407  0.2165
  557MOL0     C75066   5.864  10.459   1.300  0.1430  0.7090  0.1886
  557MOL0     C75067   5.905  10.340   1.371  0.5865  0.0026  1.0456
  557MOL0     O75068   6.038  10.339   1.393  0.1330  0.0244 -0.5928
  557MOL0     C75069   6.084  10.261   1.502 -1.1133 -0.3998  0.6128
  557MOL0     C75070   6.231  10.295   1.508  0.5389  0.5417  0.3872
  557MOL0     C75071   6.295  10.267   1.641 -0.2734 -0.0356  1.1559
  557MOL0     C75072   6.444  10.239   1.644  0.2572  0.1118 -0.7144
  557MOL0     C75073   6.539  10.351   1.595 -0.7242 -0.3250  0.4782
  557MOL0     C75074   6.557  10.350   1.447 -0.1308 -0.4369  0.2888
  557MOL0     C75075   6.705  10.375   1.403  0.5390 -0.3036 -0.4527
  557MOL0     C75076   6.725  10.350   1.254 -0.4722  0.4025 -0.2005
  557MOL0     N75077   6.870  10.373   1.222  0.8550 -0.1191  0.7771
  557MOL0     C75078   6.996  10.319   1.257 -0.7932 -0.0883  0.5060
  557MOL0     C75079   7.081  10.417   1.230 -0.3813 -1.4419 -0.5867
  557MOL0     C75080   7.226  10.408   1.236  0.7462  1.1063 -0.2446
  557MOL0     C75081   7.277  10.369   1.093  0.5017  0.4147  0.7057
  557MOL0     C75082   7.431  10.356   1.085  0.2752  0.0553  0.2625
  557MOL0     C75083   7.473  10.236   1.164  0.7025  0.2891  0.4361
  557MOL0     O75084   7.589  10.172   1.106  0.7540 -0.1942  0.3004
  557MOL0     C75085   7.721  10.210   1.132  0.3939  0.2958 -0.5475
  557MOL0     C75086   7.821  10.172   1.037 -0.2558 -0.4230  0.7234
  557MOL0     C75087   7.958  10.197   1.064 -0.0291 -0.4955  0.3750
  557MOL0     C75088   7.999  10.261   1.186 -0.2426 -0.1362  0.0624
  557MOL0     C75089   8.135  10.305   1.218  0.0494 -1.0587 -0.2461
  557MOL0     O75090   8.228  10.283   1.122  0.1705  0.0351 -0.3430
  557MOL0     C75091   8.349  10.346   1.147 -0.7558  0.3823  0.2713
  557MOL0     C75092   8.393  10.465   1.091  0.0058  0.1095 -0.2760
  557MOL0     C75093   8.518  10.524   1.119 -0.5880  0.2676 -0.2526
  557MOL0     C75094   8.612  10.462   1.212  0.3512 -0.6089  0.4045
  557MOL0     O75095   8.732  10.511   1.267  0.0914  0.0575  0.2067
  557MOL0     C75096   8.780  10.650   1.229 -0.2347  0.6943 -0.2556
  557MOL0     C75097   8.845  10.649   1.087 -0.2053  0.4076 -0.0183
  557MOL0     C75098   8.910  10.784   1.056  0.8352  0.8154  0.3914
  557MOL0     C75099   9.060  10.786   1.019 -0.4737  0.0674 -0.0012
  557MOL0     C75100   9.129  10.915   1.056  0.1338 -0.3474 -0.7419
  557MOL0     C75101   9.275  10.928   1.013  0.0827  0.6311 -0.4283
  557MOL0     C75102   9.355  11.046   1.069 -0.3379 -0.5553  0.2735
  557MOL0     C75103   9.486  11.047   1.000 -0.1965  0.1168 -0.0239
  557MOL0    Cl75104   9.585  10.901   1.024  0.4945  0.1399 -0.1575
  557MOL0     C75105   8.567  10.341   1.269 -0.1453  0.0732  0.1340
  557MOL0     C75106   8.445  10.282   1.234  0.0525 -0.4072 -0.9120
  557MOL0     O75107   8.154  10.360   1.326  0.6938 -0.8243 -0.9998
  557MOL0     C75108   7.894  10.300   1.271 -0.2362 -0.4657  0.0680
  557MOL0     C75109   7.764  10.261   1.255  0.0678  0.1278  0.3176
  557MOL0     N75110   7.016  10.517   1.161 -0.5150  0.2254  0.3744
  557MOL0     N75111   6.892  10.483   1.149  0.4184 -0.0612 -0.4837
  557MOL0     C75112   5.806  10.243   1.391  0.7341 -0.0232  0.6121
  557MOL0     C75113   5.676  10.250   1.349 -0.9072 -0.7814  0.5326
  557MOL0     C75114   5.284  10.432   1.266 -0.3060 -0.3298 -1.0314
  557MOL0     C75115   5.267  10.431   1.124  0.4875 -0.4957 -0.3391
  557MOL0     C75116   5.155  10.464   1.047  0.7089 -0.1974  0.3999
  557MOL0     C75117   5.049  10.492   1.125 -0.5709 -0.2750 -0.0806
  557MOL0     O75118   4.935  10.514   1.058 -0.8615  0.5378  0.2365
  557MOL0     C75119   4.817  10.443   1.097 -0.3098 -0.1278 -0.4444
  557MOL0     C75120   4.729  10.429   0.967  0.1069  0.7934  1.0555
  557MOL0     C75121   4.623  10.320   0.985  0.3854 -0.1416  0.1963
  557MOL0     C75122   4.527  10.350   1.097 -0.4611 -0.0209  0.8502
  557MOL0     C75123   4.444  10.471   1.073  0.3463  0.2108  0.3818
  557MOL0     C75124   4.369  10.562   1.038  0.2283  0.1385 -0.2226
  557MOL0     C75125   5.057  10.501   1.264  0.0490 -0.5252 -0.5430
  557MOL0     C75126   5.172  10.472   1.338 -0.6589  0.3486  0.2058
  557MOL0     C75127   5.175  10.489   1.481  0.3051 -1.5525 -0.0148
  557MOL0     H75128   5.714  10.546   1.185  1.2272  0.8367  0.1717
  557MOL0     H75129   5.933  10.541   1.279  2.5806 -1.2075  0.3184
  557MOL0     H75130   6.037  10.305   1.591  0.8125  3.2935 -0.0134
  557MOL0     H75131   6.070  10.154   1.487  4.5027 -0.9388 -3.5661
  557MOL0     H75132   6.251  10.402   1.494 -2.0204  0.9699 -0.5994
  557MOL0     H75133   6.284  10.245   1.426  2.3973  2.5664  0.2528
  557MOL0     H75134   6.243  10.181   1.685  1.4574 -2.7522 -1.6894
  557MOL0     H75135   6.282  10.366   1.687  2.0742  0.5199  0.7722
  557MOL0     H75136   6.464  10.217   1.749  2.1939  0.3522 -0.9864
  557MOL0     H75137   6.465  10.144   1.593  1.9347 -0.1933  0.4723
  557MOL0     H75138   6.505  10.449   1.633 -0.1536  0.6979 -1.5043
  557MOL0     H75139   6.637  10.331   1.638 -0.7472 -1.9045 -0.1613
  557MOL0     H75140   6.545  10.246   1.415 -0.8047  0.2911 -2.0296
  557MOL0     H75141   6.483  10.409   1.393  0.4794 -0.6388 -0.7895
  557MOL0     H75142   6.763  10.300   1.458 -0.3661  0.7379  2.0920
  557MOL0     H75143   6.738  10.477   1.426  2.0244 -1.2445  1.9435
  557MOL0     H75144   6.698  10.247   1.231  0.6303 -0.6988  2.9656
  557MOL0     H75145   6.667  10.420   1.193 -1.2130 -0.7154 -0.8086
  557MOL0     H75146   7.027  10.224   1.300  1.3480 -0.3461 -1.4550
  557MOL0     H75147   7.262  10.498   1.286  0.4908  0.3616  1.3188
  557MOL0     H75148   7.254  10.332   1.310 -0.6436  1.7121  0.9621
  557MOL0     H75149   7.235  10.278   1.051  3.6943 -1.7501  1.8506
  557MOL0     H75150   7.253  10.452   1.025 -1.5037  0.7930  1.7956
  557MOL0     H75151   7.470  10.450   1.124  0.2903  0.6475 -1.1212
  557MOL0     H75152   7.459  10.338   0.981 -0.0357 -0.9844  0.3423
  557MOL0     H75153   7.396  10.158   1.156  1.7671 -0.7033 -0.5182
  557MOL0     H75154   7.480  10.257   1.272 -0.8241  0.9355  0.4357
  557MOL0     H75155   7.792  10.122   0.945 -1.1002  0.6902  0.3482
  557MOL0     H75156   8.030  10.174   0.986 -1.7701 -1.2848 -1.0872
  557MOL0     H75157   8.318  10.512   1.027 -0.6393  0.1158  0.4749
  557MOL0     H75158   8.547  10.622   1.081  0.8437  0.2993  0.8347
  557MOL0     H75159   8.704  10.728   1.235 -1.3398 -0.4008  0.3175
  557MOL0     H75160   8.853  10.677   1.306 -0.0606 -1.9652  0.6099
  557MOL0     H75161   8.921  10.570   1.091  0.9951  1.5694  1.0743
  557MOL0     H75162   8.770  10.623   1.012  2.4414 -2.5332 -1.8844
  557MOL0     H75163   8.852  10.812   0.967 -1.4272 -2.5707  0.5957
  557MOL0     H75164   8.890  10.845   1.145  3.4403 -0.2259  1.7965
  557MOL0     H75165   9.086  10.746   0.920  0.1271  0.1947  0.1039
  557MOL0     H75166   9.101  10.709   1.086 -1.8952 -0.7508 -0.0321
  557MOL0     H75167   9.125  10.931   1.165 -2.9067  2.9731 -1.1481
  557MOL0     H75168   9.064  10.995   1.020 -3.0696 -1.8778  1.2123
  557MOL0     H75169   9.323  10.838   1.053 -0.2959  0.9809  0.8427
  557MOL0     H75170   9.281  10.923   0.904  0.3491  1.1134 -0.4378
  557MOL0     H75171   9.377  11.037   1.175  2.2399 -0.0802 -0.1461
  557MOL0     H75172   9.306  11.142   1.051 -0.9181 -0.3913  2.5496
  557MOL0     H75173   9.463  11.049   0.893 -0.8679  0.0234  0.1103
  557MOL0     H75174   9.544  11.134   1.032 -1.4971  1.2775 -0.7370
  557MOL0     H75175   8.629  10.277   1.332 -2.5550 -3.5300 -0.8103
  557MOL0     H75176   8.414  10.196   1.293  0.4231  1.9635  3.1209
  557MOL0     H75177   7.910  10.342   1.370  2.6254 -2.0245  0.3644
  557MOL0     H75178   7.696  10.290   1.334 -0.8043 -0.8969 -0.0384
  557MOL0     H75179   5.840  10.163   1.456  2.1573  0.2355  0.2118
  557MOL0     H75180   5.609  10.172   1.384 -1.3026 -0.2136  1.0523
  557MOL0     H75181   5.357  10.416   1.065  0.0328 -0.6411 -1.0020
  557MOL0     H75182   5.148  10.476   0.939  0.6698 -4.1914 -0.1934
  557MOL0     H75183   4.762  10.499   1.172 -1.4357 -0.1030 -1.2711
  557MOL0     H75184   4.843  10.345   1.138  3.4590  0.4685 -0.9813
  557MOL0     H75185   4.795  10.402   0.884 -1.6877  1.4511 -0.6642
  557MOL0     H75186   4.680  10.524   0.944 -2.9803 -0.1967  2.9280
  557MOL0     H75187   4.678  10.226   0.999 -2.9564 -2.8243 -2.8574
  557MOL0     H75188   4.566  10.309   0.893 -0.7282 -0.2660  0.8825
  557MOL0     H75189   4.465  10.260   1.097  0.2577 -0.5442  0.0729
  557MOL0     H75190   4.569  10.351   1.198 -0.6392  2.3024  0.9574
  557MOL0     H75191   4.300  10.641   1.014  0.5264 -0.1350 -2.1813
  557MOL0     H75192   4.969  10.534   1.319 -0.3196 -0.4686 -1.1578
  557MOL0     H75193   5.183  10.388   1.522  0.6032 -2.1655 -1.5229
  557MOL0     H75194   5.260  10.555   1.504 -1.5627  1.2831 -0.7246
  557MOL0     H75195   5.085  10.539   1.518 -1.0752 -1.7885 -2.7782
  558MOL0     O75196  10.860   6.924   6.511  0.3290 -0.7278  0.5630
  558MOL0     C75197  10.883   6.820   6.565  0.2129  0.5831  0.9789
  558MOL0     O75198  10.875   6.805   6.703 -0.8219  0.6264  1.0159
  558MOL0     C75199  10.887   6.922   6.768 -0.4818  0.0964 -0.1996
  558MOL0     C75200  10.789   6.984   6.848  0.2921 -0.6350  0.0850
  558MOL0     C75201  10.815   7.108   6.908 -1.2906 -1.0893  0.1297
  558MOL0     C75202  10.941   7.164   6.917 -0.2156  0.1445  0.3043
  558MOL0     O75203  10.958   7.278   6.983 -0.0865 -0.5069  0.7003
  558MOL0     C75204  11.087   7.325   7.025  0.1518 -0.1584  0.1090
  558MOL0     C75205  11.136   7.264   7.159  0.4589  0.2035 -0.1303
  558MOL0     C75206  11.276   7.292   7.189 -0.3441  0.5851  0.8746
  558MOL0     C75207  11.317   7.218   7.317 -0.3616  0.0055  0.2555
  558MOL0     C75208  11.451   7.157   7.319 -0.0822  0.1163  0.0784
  558MOL0     C75209  11.570   7.254   7.348  0.4642  0.2101 -0.3427
  558MOL0     C75210  11.694   7.191   7.416 -0.1470 -0.2884 -0.2438
  558MOL0     C75211  11.664   7.154   7.561 -0.2498  0.7776  0.2613
  558MOL0     N75212  11.789   7.119   7.629 -0.2798 -0.1920  0.0074
  558MOL0     C75213  11.859   6.995   7.624 -0.0180 -0.8205 -0.2212
  558MOL0     C75214  11.965   7.012   7.700  0.0305  0.4810  0.3867
  558MOL0     C75215  12.091   6.935   7.706  0.0060  0.4454 -0.4272
  558MOL0     C75216  12.062   6.780   7.708 -0.0706  0.5743 -0.3724
  558MOL0     C75217  12.178   6.691   7.678  0.3040 -0.3727  1.0655
  558MOL0     C75218  12.296   6.708   7.768 -0.8489 -0.1587  0.3825
  558MOL0     O75219  12.374   6.830   7.756  0.2392 -0.1151 -0.2660
  558MOL0     C75220  12.492   6.835   7.820 -0.3705 -0.3482 -0.1861
  558MOL0     C75221  12.567   6.949   7.806  0.4478  0.3619 -0.6195
  558MOL0     C75222  12.689   6.961   7.867 -0.3877  0.7225  0.2428
  558MOL0     C75223  12.733   6.868   7.965  0.3868  0.6023 -0.0934
  558MOL0     C75224  12.866   6.879   8.039  0.1827 -0.0227 -0.6326
  558MOL0     O75225  12.911   6.771   8.111 -0.3875 -0.3781  0.5794
  558MOL0     C75226  13.044   6.754   8.138 -1.0610 -0.6711 -0.4676
  558MOL0     C75227  13.086   6.628   8.171  0.0374 -0.0968 -0.1596
  558MOL0     C75228  13.224   6.598   8.202  0.7799 -0.1065  0.2412
  558MOL0     C75229  13.323   6.696   8.174  0.2165  0.4340 -0.3355
  558MOL0     O75230  13.455   6.662   8.199 -0.5832 -0.5076 -0.5878
  558MOL0     C75231  13.554   6.755   8.161 -0.6750 -0.9042 -1.1227
  558MOL0     C75232  13.698   6.696   8.175  0.0110 -0.8153 -0.5843
  558MOL0     C75233  13.807   6.801   8.155 -0.1703 -0.1142  0.6515
  558MOL0     C75234  13.943   6.747   8.170  0.1341 -0.0545 -0.5867
  558MOL0     C75235  14.043   6.858   8.197 -0.5056 -0.2244  0.5580
  558MOL0     C75236  14.183   6.804   8.190 -0.2331 -0.2649  0.2740
  558MOL0     C75237  14.285   6.910   8.236 -0.4071 -0.0856 -0.0611
  558MOL0     C75238  14.422   6.859   8.234 -0.1302 -0.3262  0.4243
  558MOL0    Cl75239  14.535   6.961   8.324  0.8838 -0.3330 -0.0259
  558MOL0     C75240  13.276   6.821   8.142 -0.6653 -0.7736  0.2659
  558MOL0     C75241  13.144   6.853   8.126 -0.2198 -0.0952 -1.0935
  558MOL0     O75242  12.923   6.985   8.026  0.0737 -0.0634  0.0625
  558MOL0     C75243  12.653   6.758   7.989  0.9131  0.3676 -0.5081
  558MOL0     C75244  12.537   6.740   7.922  0.0701  0.6430 -0.1409
  558MOL0     N75245  11.956   7.136   7.753 -0.2961  0.6217 -0.5818
  558MOL0     N75246  11.848   7.199   7.716 -0.3568  0.0755 -0.2581
  558MOL0     C75247  11.036   7.095   6.849 -0.0453  0.0951  0.9804
  558MOL0     C75248  11.011   6.980   6.775 -0.9697 -0.0657  0.5005
  558MOL0     C75249  10.935   6.708   6.481  0.0447 -0.6772  0.1325
  558MOL0     C75250  10.986   6.595   6.547 -0.2677  0.7614 -0.5411
  558MOL0     C75251  11.037   6.486   6.474  0.1885 -0.4968  0.0998
  558MOL0     C75252  11.022   6.482   6.340  0.3320  0.4181  0.6707
  558MOL0     O75253  11.064   6.381   6.267 -0.2433  0.7366  0.8999
  558MOL0     C75254  10.981   6.260   6.273 -0.4476 -1.0533  0.4304
  558MOL0     C75255  10.843   6.275   6.212  0.1758 -0.6227 -0.4372
  558MOL0     C75256  10.847   6.293   6.053  0.3683  0.4059  0.1291
  558MOL0     C75257  10.707   6.343   6.005 -0.1275  0.9125 -0.0816
  558MOL0     C75258  10.657   6.467   6.067  0.4750 -0.7920 -0.5793
  558MOL0     C75259  10.610   6.571   6.116 -0.4284  0.6110 -1.3013
  558MOL0     C75260  10.963   6.592   6.271 -0.0669 -0.4005 -0.0351
  558MOL0     C75261  10.917   6.705   6.337 -0.0889  0.0558  0.0740
  558MOL0     C75262  10.854   6.821   6.260 -1.1249  0.6543  0.4211
  558MOL0     H75263  10.689   6.947   6.865  0.0665  0.3234  0.9819
  558MOL0     H75264  10.737   7.156   6.965  0.2071 -0.3141  1.5835
  558MOL0     H75265  11.161   7.300   6.949  0.4339 -3.1883  1.2236
  558MOL0     H75266  11.077   7.433   7.035  0.2740  0.0347 -1.5867
  558MOL0     H75267  11.111   7.158   7.152  0.2490 -0.1781  3.9604
  558MOL0     H75268  11.069   7.302   7.238  0.6863  0.0912  0.1157
  558MOL0     H75269  11.302   7.398   7.196 -0.4044  0.6782 -0.1308
  558MOL0     H75270  11.335   7.248   7.108 -0.2567 -0.9739  1.7407
  558MOL0     H75271  11.300   7.282   7.404 -0.7543 -0.8110  0.7988
  558MOL0     H75272  11.244   7.137   7.316  0.3980 -0.6897  0.1039
  558MOL0     H75273  11.447   7.078   7.395  0.9527  0.5499  0.5962
  558MOL0     H75274  11.471   7.097   7.229 -4.8631  1.9992 -2.5876
  558MOL0     H75275  11.608   7.300   7.256 -0.9306  2.5541  0.1822
  558MOL0     H75276  11.534   7.331   7.416  2.5931 -0.3164  1.5079
  558MOL0     H75277  11.776   7.263   7.408  1.4757 -2.0986 -0.5607
  558MOL0     H75278  11.724   7.095   7.373  1.5488  0.6427 -1.2327
  558MOL0     H75279  11.602   7.232   7.605 -0.6043 -0.6514  2.4743
  558MOL0     H75280  11.613   7.057   7.570  0.8610  0.1776  0.3309
  558MOL0     H75281  11.835   6.923   7.546 -1.9068 -0.8459  0.3299
  558MOL0     H75282  12.146   6.947   7.613  1.9849  0.7276  0.7252
  558MOL0     H75283  12.158   6.980   7.780  0.1322  2.0380 -1.4627
  558MOL0     H75284  12.021   6.746   7.803 -0.5692 -1.8557 -1.4001
  558MOL0     H75285  11.977   6.766   7.641 -0.3035  2.2156 -0.4740
  558MOL0     H75286  12.211   6.701   7.574 -2.2085  1.7087  0.3714
  558MOL0     H75287  12.148   6.586   7.688 -0.2017 -0.4308 -0.6779
  558MOL0     H75288  12.367   6.625   7.760  0.9288  1.4838 -3.3438
  558MOL0     H75289  12.256   6.700   7.870 -1.0785  0.4477  0.3433
  558MOL0     H75290  12.525   7.029   7.746 -2.7432 -1.3669 -0.9195
  558MOL0     H75291  12.749   7.052   7.860  0.6220 -0.0322 -1.6746
  558MOL0     H75292  13.015   6.549   8.194  1.1150 -0.2128  3.3365
  558MOL0     H75293  13.259   6.505   8.245 -0.4442 -0.1257  1.2686
  558MOL0     H75294  13.542   6.782   8.056 -0.4818 -0.0113 -0.9291
  558MOL0     H75295  13.550   6.842   8.227 -1.1439 -0.6944 -1.4229
  558MOL0     H75296  13.701   6.655   8.276  0.1106  1.7241  0.5003
  558MOL0     H75297  13.701   6.613   8.103 -0.6767 -2.7395  1.4904
  558MOL0     H75298  13.804   6.840   8.053  0.0876 -0.1595  0.6233
  558MOL0     H75299  13.790   6.885   8.223 -0.9703  1.0226 -0.8815
  558MOL0     H75300  13.980   6.685   8.088  0.3130 -0.5489 -0.1419
  558MOL0     H75301  13.949   6.683   8.259  1.6052  2.0569  0.9467
  558MOL0     H75302  14.027   6.888   8.301  2.3150 -0.8672  1.2651
  558MOL0     H75303  14.027   6.947   8.135  1.8041  0.6556  1.1509
  558MOL0     H75304  14.184   6.721   8.261  0.3930 -0.1878  0.3593
  558MOL0     H75305  14.200   6.768   8.088  0.2963 -1.2924  0.7086
  558MOL0     H75306  14.256   6.953   8.333  0.3269 -0.6148  0.4101
  558MOL0     H75307  14.287   6.995   8.168 -0.0222  0.1797  0.2752
  558MOL0     H75308  14.431   6.757   8.274  1.1233  0.3401  1.9143
  558MOL0     H75309  14.460   6.847   8.132  0.7687 -1.4100  0.8695
  558MOL0     H75310  13.356   6.893   8.129  0.0851 -1.5958  0.2087
  558MOL0     H75311  13.125   6.959   8.111 -0.5580  0.5857  2.8848
  558MOL0     H75312  12.674   6.699   8.078 -0.8089 -0.2992 -0.4945
  558MOL0     H75313  12.485   6.647   7.944  0.1854  0.2933 -1.2812
  558MOL0     H75314  11.138   7.129   6.861  0.3192 -1.5410  3.4619
  558MOL0     H75315  11.093   6.943   6.714 -2.0534  0.3023 -1.2745
  558MOL0     H75316  11.014   6.592   6.652  0.0376 -0.1753 -0.6445
  558MOL0     H75317  11.064   6.399   6.533  0.7455  1.3643  2.7178
  558MOL0     H75318  10.967   6.224   6.376  0.7319 -2.6792  0.0560
  558MOL0     H75319  11.032   6.175   6.227 -1.2189 -0.8734 -0.8034
  558MOL0     H75320  10.798   6.359   6.264 -3.1479 -1.8334 -1.1441
  558MOL0     H75321  10.780   6.188   6.232  0.9799 -2.4799 -4.8508
  558MOL0     H75322  10.875   6.197   6.010  0.0221  0.6370 -0.6403
  558MOL0     H75323  10.924   6.363   6.018 -1.1965  0.3266 -3.9410
  558MOL0     H75324  10.722   6.361   5.898 -0.0605 -0.8376 -0.4046
  558MOL0     H75325  10.626   6.272   6.022 -1.0359  1.9360 -0.0601
  558MOL0     H75326  10.587   6.664   6.163 -0.6446 -0.8025  1.5845
  558MOL0     H75327  10.954   6.597   6.163  0.7348  2.2882 -0.0480
  558MOL0     H75328  10.930   6.899   6.249 -0.3059 -0.4468 -3.3882
  558MOL0     H75329  10.826   6.791   6.158  0.5300  2.0844 -0.5210
  558MOL0     H75330  10.763   6.848   6.314 -1.6917 -3.7263  2.0465
  559MOL0     O75331   5.801   0.339   2.969 -0.0631  0.1638 -0.2184
  559MOL0     C75332   5.709   0.334   3.051  0.4666 -0.1674  0.3592
  559MOL0     O75333   5.729   0.327   3.189  0.6919  0.0170 -0.5829
  559MOL0     C75334   5.848   0.282   3.247  0.5737  0.3900  0.8436
  559MOL0     C75335   5.924   0.180   3.187 -0.1930  0.5183  0.1663
  559MOL0     C75336   6.025   0.109   3.253 -0.2812  0.8976 -0.8689
  559MOL0     C75337   6.062   0.151   3.386 -0.2166  0.0784 -0.1031
  559MOL0     O75338   6.166   0.102   3.450 -0.3421  0.1585 -0.4642
  559MOL0     C75339   6.268   0.027   3.385  0.5996  0.4835 -0.5326
  559MOL0     C75340   6.370   0.002   3.489  0.4423 -0.3919  0.1977
  559MOL0     C75341   6.495  -0.055   3.429 -0.9894 -0.0251 -1.0621
  559MOL0     C75342   6.601  -0.056   3.536 -0.6573  0.6258  0.4386
  559MOL0     C75343   6.736  -0.118   3.498 -0.2630 -0.0021  0.1414
  559MOL0     C75344   6.728  -0.272   3.468  0.6506 -0.3450  0.2830
  559MOL0     C75345   6.866  -0.337   3.477 -0.2818 -0.0170  0.2607
  559MOL0     C75346   6.934  -0.331   3.614  0.2026 -0.3015  0.6363
  559MOL0     N75347   7.055  -0.412   3.607 -0.6591 -0.2476  0.2675
  559MOL0     C75348   7.049  -0.548   3.597 -0.6952  0.8783  0.1013
  559MOL0     C75349   7.172  -0.583   3.623 -0.7245  1.1226 -0.3463
  559MOL0     C75350   7.231  -0.725   3.621  0.0022  0.5612  0.3880
  559MOL0     C75351   7.370  -0.744   3.669  0.4187  0.7415 -0.0008
  559MOL0     C75352   7.423  -0.886   3.688  0.7440 -0.1146  0.4556
  559MOL0     C75353   7.573  -0.890   3.715  0.2594 -0.3784  0.0425
  559MOL0     O75354   7.655  -0.828   3.617  0.2598 -0.3250  0.3902
  559MOL0     C75355   7.791  -0.840   3.641  0.5050 -0.6727  0.1637
  559MOL0     C75356   7.870  -0.892   3.542 -0.5424  0.7680 -0.5771
  559MOL0     C75357   8.011  -0.899   3.558 -0.6375 -0.1856 -0.4699
  559MOL0     C75358   8.068  -0.836   3.668  0.6624  1.0819  0.1543
  559MOL0     C75359   8.220  -0.842   3.680 -0.1593 -0.7296 -0.0038
  559MOL0     O75360   8.312  -0.888   3.586  0.3475  0.2677 -0.2882
  559MOL0     C75361   8.444  -0.912   3.621 -0.1222  0.0250  0.8906
  559MOL0     C75362   8.497  -0.972   3.737 -0.5584  0.5392 -0.3114
  559MOL0     C75363   8.634  -0.995   3.752  0.0651 -0.5481 -0.8710
  559MOL0     C75364   8.728  -0.952   3.656  0.4077  0.9222  0.9197
  559MOL0     O75365   8.865  -0.966   3.660  0.2447  0.8897  0.2491
  559MOL0     C75366   8.932  -0.983   3.779 -0.3963 -0.0960 -1.2064
  559MOL0     C75367   9.083  -1.010   3.743 -1.1226 -0.0263  0.0060
  559MOL0     C75368   9.147  -0.886   3.675 -0.1760  0.1952 -0.2343
  559MOL0     C75369   9.273  -0.921   3.601  0.5937 -0.5401  0.0455
  559MOL0     C75370   9.363  -0.801   3.584  0.1188 -0.6933  0.6490
  559MOL0     C75371   9.514  -0.832   3.561  1.2271  0.5083 -0.6027
  559MOL0     C75372   9.543  -0.955   3.469  0.1675 -0.2640  0.4203
  559MOL0     C75373   9.692  -0.960   3.426 -0.4325 -0.7952  0.1727
  559MOL0    Cl75374   9.746  -0.825   3.320 -0.3149 -0.2231 -0.5220
  559MOL0     C75375   8.671  -0.893   3.541 -0.7390  0.0621  0.1641
  559MOL0     C75376   8.531  -0.877   3.526 -0.3033 -0.7550  0.9138
  559MOL0     O75377   8.259  -0.799   3.789  0.7090 -0.6135  0.2800
  559MOL0     C75378   7.986  -0.782   3.766  0.4531 -0.4892  0.6692
  559MOL0     C75379   7.854  -0.783   3.751 -0.1156 -0.0701 -0.8966
  559MOL0     N75380   7.250  -0.479   3.657  0.0489  0.1418  0.1951
  559MOL0     N75381   7.169  -0.372   3.658 -0.0501 -0.2437 -0.0602
  559MOL0     C75382   5.999   0.260   3.437  0.5250 -0.1697 -0.1196
  559MOL0     C75383   5.889   0.321   3.377 -0.6959  0.5487 -0.3918
  559MOL0     C75384   5.566   0.335   3.012  0.8407 -0.0229 -0.6372
  559MOL0     C75385   5.466   0.327   3.108  0.2570  0.0623 -0.0867
  559MOL0     C75386   5.337   0.353   3.083  0.5188 -0.3772 -0.3130
  559MOL0     C75387   5.297   0.393   2.956  0.5173 -0.5475 -0.5157
  559MOL0     O75388   5.167   0.436   2.926  0.1653 -0.1136 -0.4726
  559MOL0     C75389   5.066   0.364   2.986 -0.7813 -0.1687  0.8461
  559MOL0     C75390   4.944   0.377   2.891 -0.0432 -0.3708 -0.8806
  559MOL0     C75391   4.875   0.506   2.911 -0.7630 -1.4253 -0.8711
  559MOL0     C75392   4.765   0.518   2.813 -0.5765  0.8560  0.4622
  559MOL0     C75393   4.711   0.658   2.829  0.6888 -0.6196  0.4943
  559MOL0     C75394   4.668   0.769   2.838 -0.4438 -0.7053 -0.1054
  559MOL0     C75395   5.389   0.397   2.852  0.1019  0.3904 -0.1842
  559MOL0     C75396   5.522   0.365   2.875 -0.6855  0.3345  0.0708
  559MOL0     C75397   5.614   0.364   2.759  0.0029  0.7578  0.0203
  559MOL0     H75398   5.897   0.143   3.089  3.9012 -0.1076 -0.9044
  559MOL0     H75399   6.073   0.020   3.214 -2.7308 -0.7782 -0.3388
  559MOL0     H75400   6.226  -0.068   3.350 -2.1472  1.4008  0.0172
  559MOL0     H75401   6.320   0.077   3.303  0.4309  0.7410 -0.4840
  559MOL0     H75402   6.329  -0.058   3.571 -5.3374  0.5342 -1.6025
  559MOL0     H75403   6.387   0.093   3.547  0.4773 -0.2379 -0.0531
  559MOL0     H75404   6.518   0.017   3.350 -3.4432  1.3935 -0.5935
  559MOL0     H75405   6.474  -0.160   3.407  1.6469 -0.9869  0.5266
  559MOL0     H75406   6.623   0.044   3.574  1.7585 -0.2047  1.4837
  559MOL0     H75407   6.555  -0.110   3.620 -2.0342  1.7084  0.4160
  559MOL0     H75408   6.787  -0.077   3.409 -0.2655 -2.9870 -1.3644
  559MOL0     H75409   6.798  -0.098   3.585  0.3956  0.5425 -0.4350
  559MOL0     H75410   6.659  -0.318   3.540  0.1571  1.4301  1.0216
  559MOL0     H75411   6.695  -0.277   3.364  2.8214  1.3537 -0.5503
  559MOL0     H75412   6.927  -0.290   3.400 -2.0365  1.4069 -0.3239
  559MOL0     H75413   6.842  -0.442   3.454 -0.4190  0.3822 -1.4801
  559MOL0     H75414   6.962  -0.226   3.630  0.2877 -0.3043  0.5037
  559MOL0     H75415   6.859  -0.371   3.682 -1.3611  0.9775 -0.2688
  559MOL0     H75416   6.964  -0.614   3.590  1.3160 -1.8118 -0.9175
  559MOL0     H75417   7.179  -0.779   3.701  2.7588 -1.6028  0.8687
  559MOL0     H75418   7.205  -0.763   3.522 -1.7833 -2.3098  1.8197
  559MOL0     H75419   7.436  -0.677   3.612 -0.6209  1.4874 -0.3548
  559MOL0     H75420   7.370  -0.710   3.773  0.9007  0.5559  0.0654
  559MOL0     H75421   7.384  -0.947   3.607 -1.0341 -0.1771  1.3080
  559MOL0     H75422   7.382  -0.920   3.784 -1.4423 -1.3792 -0.8635
  559MOL0     H75423   7.594  -0.997   3.709  2.1291  0.0257 -1.3072
  559MOL0     H75424   7.597  -0.850   3.814  0.4829  1.5168 -0.7137
  559MOL0     H75425   7.830  -0.914   3.444  2.7662  1.5630 -2.2543
  559MOL0     H75426   8.074  -0.953   3.488 -0.4111 -1.1560  0.4375
  559MOL0     H75427   8.432  -0.992   3.822  0.0576  1.0748  0.2995
  559MOL0     H75428   8.668  -1.047   3.841 -0.9966 -1.2384 -0.8496
  559MOL0     H75429   8.924  -0.891   3.838  1.1500 -1.3767  1.1920
  559MOL0     H75430   8.887  -1.061   3.841 -0.3206  3.1327  3.5419
  559MOL0     H75431   9.143  -1.024   3.834  0.1476  0.7730 -0.6720
  559MOL0     H75432   9.091  -1.099   3.680  0.4829  0.6673 -0.8414
  559MOL0     H75433   9.077  -0.834   3.609 -1.0797 -0.1368  0.4412
  559MOL0     H75434   9.179  -0.814   3.750 -1.2145  1.1098 -0.6295
  559MOL0     H75435   9.246  -0.962   3.504  1.6882  0.6782 -0.8212
  559MOL0     H75436   9.328  -0.995   3.660  6.0580  1.6811 -1.5939
  559MOL0     H75437   9.362  -0.738   3.673  3.2392 -2.0272  1.7965
  559MOL0     H75438   9.318  -0.742   3.504 -1.6188  0.9485  2.7442
  559MOL0     H75439   9.564  -0.741   3.525  1.0394  1.0234  0.3810
  559MOL0     H75440   9.563  -0.845   3.658 -0.0998  0.3421  0.0578
  559MOL0     H75441   9.485  -0.956   3.376  1.1698 -0.9297 -0.2153
  559MOL0     H75442   9.512  -1.042   3.528  3.2510 -1.3151  0.7017
  559MOL0     H75443   9.766  -0.966   3.507 -0.4471 -1.9526  0.1218
  559MOL0     H75444   9.701  -1.055   3.372 -1.8622 -0.3368 -0.9225
  559MOL0     H75445   8.736  -0.851   3.464  0.5073 -0.7860  0.7254
  559MOL0     H75446   8.491  -0.827   3.439 -0.1593 -0.0783  1.2248
  559MOL0     H75447   8.031  -0.742   3.857  0.2621 -1.0178  1.0023
  559MOL0     H75448   7.798  -0.740   3.833  3.5615  1.5791  0.9716
  559MOL0     H75449   6.033   0.285   3.537 -5.1610  0.3337  2.0743
  559MOL0     H75450   5.844   0.402   3.434 -5.0996 -2.2158  0.5472
  559MOL0     H75451   5.490   0.292   3.208 -0.4018 -0.7963 -0.2115
  559MOL0     H75452   5.262   0.342   3.160  1.0193 -1.3505  0.0471
  559MOL0     H75453   5.041   0.410   3.083  0.1647 -0.4100  1.2151
  559MOL0     H75454   5.094   0.259   3.000 -0.2090 -0.2181 -0.5510
  559MOL0     H75455   4.880   0.290   2.908  0.8076 -0.9593 -0.6047
  559MOL0     H75456   4.980   0.372   2.788  2.0349  1.6644 -0.3414
  559MOL0     H75457   4.950   0.582   2.890  0.5199 -2.1192  0.9356
  559MOL0     H75458   4.830   0.517   3.011 -1.0045  3.4525 -1.2877
  559MOL0     H75459   4.802   0.495   2.713 -2.8092 -2.7394  0.2884
  559MOL0     H75460   4.691   0.441   2.832 -2.1017  1.9228 -0.8905
  559MOL0     H75461   4.637   0.871   2.849  1.7012 -0.2194  2.2271
  559MOL0     H75462   5.361   0.434   2.754 -0.4945 -0.0656 -0.1964
  559MOL0     H75463   5.679   0.451   2.750 -0.0560  0.5986 -3.8771
  559MOL0     H75464   5.670   0.269   2.762 -0.4074  0.5049 -0.2132
  559MOL0     H75465   5.547   0.362   2.672 -1.1200  1.5483  0.8561
  560MOL0     O75466  10.509   5.313   7.488 -0.5547 -0.6515 -0.2654
  560MOL0     C75467  10.536   5.206   7.434  0.4493 -0.2694 -0.5743
  560MOL0     O75468  10.664   5.173   7.403  0.4577 -0.1590 -0.4062
  560MOL0     C75469  10.770   5.247   7.448  0.9730  0.5225  0.3465
  560MOL0     C75470  10.802   5.258   7.582 -0.2174  0.2006  0.0579
  560MOL0     C75471  10.917   5.331   7.622  0.1986 -0.0205  0.0086
  560MOL0     C75472  11.003   5.393   7.525  0.4124 -0.1999 -0.1321
  560MOL0     O75473  11.125   5.456   7.554  0.4514 -0.0019  0.2386
  560MOL0     C75474  11.229   5.441   7.452 -0.1323  0.2224 -0.4967
  560MOL0     C75475  11.357   5.486   7.513 -0.4940 -0.3682 -0.4318
  560MOL0     C75476  11.485   5.487   7.437 -0.5269  0.3106  0.2330
  560MOL0     C75477  11.544   5.338   7.413  0.7485 -0.7937 -0.2452
  560MOL0     C75478  11.669   5.322   7.325  0.2080 -0.0937 -0.4197
  560MOL0     C75479  11.761   5.431   7.362  0.4664 -0.3310  0.2760
  560MOL0     C75480  11.901   5.403   7.327  0.3408 -0.2759 -0.4560
  560MOL0     C75481  11.986   5.534   7.345  0.0948  0.9416  0.1817
  560MOL0     N75482  12.126   5.501   7.386 -0.0914  0.3016  0.2698
  560MOL0     C75483  12.203   5.569   7.478  1.1087  0.9598 -0.2947
  560MOL0     C75484  12.331   5.521   7.460  1.1221  0.1997  1.3082
  560MOL0     C75485  12.449   5.548   7.533 -0.9369 -0.1880  0.4731
  560MOL0     C75486  12.523   5.670   7.476 -0.1730  0.4352  0.4438
  560MOL0     C75487  12.655   5.693   7.542  0.1412  0.4210  0.3289
  560MOL0     C75488  12.757   5.581   7.516 -0.0771  0.3688 -0.1162
  560MOL0     O75489  12.886   5.600   7.580  0.0195 -0.4972 -0.0269
  560MOL0     C75490  12.892   5.596   7.714  0.1962  0.2229  0.9657
  560MOL0     C75491  12.821   5.503   7.791  0.6130 -0.8381  0.2407
  560MOL0     C75492  12.844   5.501   7.920  0.1977 -0.0487  0.2722
  560MOL0     C75493  12.929   5.586   7.991 -0.2557  0.6082 -0.0767
  560MOL0     C75494  12.948   5.581   8.141 -0.0451 -0.2091  0.4204
  560MOL0     O75495  13.037   5.673   8.191 -0.3977  0.0800 -0.2226
  560MOL0     C75496  13.076   5.669   8.328  0.5618  0.7842 -0.0672
  560MOL0     C75497  13.041   5.772   8.410  0.0712  0.6942  0.1773
  560MOL0     C75498  13.089   5.775   8.543  0.4223  0.2407 -0.0269
  560MOL0     C75499  13.184   5.680   8.589 -0.6379  0.0089 -0.5661
  560MOL0     O75500  13.215   5.688   8.720  0.5262  0.6746  0.2684
  560MOL0     C75501  13.346   5.627   8.756 -0.0418 -0.8101 -0.0030
  560MOL0     C75502  13.472   5.709   8.720  0.4240 -0.4997 -0.0785
  560MOL0     C75503  13.521   5.715   8.576  0.5446  0.3077  0.5484
  560MOL0     C75504  13.638   5.822   8.558 -0.0110  0.4242  0.4034
  560MOL0     C75505  13.692   5.824   8.418 -0.8177 -0.3469 -0.3314
  560MOL0     C75506  13.795   5.942   8.424  0.2132 -0.2752 -0.6142
  560MOL0     C75507  13.925   5.936   8.518 -0.5268 -0.2112  0.5639
  560MOL0     C75508  13.997   5.798   8.506 -0.1263 -0.2190  0.6716
  560MOL0    Cl75509  14.134   5.798   8.621  0.0338  0.4045 -0.1040
  560MOL0     C75510  13.213   5.570   8.506 -0.1190 -0.1743  0.4945
  560MOL0     C75511  13.161   5.562   8.379 -0.0510 -0.6172  0.6021
  560MOL0     O75512  12.894   5.495   8.212  0.0573 -0.2641  0.2714
  560MOL0     C75513  13.000   5.671   7.913 -0.0245 -0.4799 -0.2697
  560MOL0     C75514  12.980   5.685   7.780  0.7553 -0.4599 -0.3566
  560MOL0     N75515  12.330   5.449   7.341 -0.1164  1.0675 -0.5908
  560MOL0     N75516  12.215   5.441   7.297  0.9601  0.0286  0.1341
  560MOL0     C75517  10.962   5.372   7.388 -1.1435 -0.4401 -0.0858
  560MOL0     C75518  10.852   5.304   7.351  0.7061 -0.4333  0.0398
  560MOL0     C75519  10.417   5.118   7.405  0.4319 -0.3080 -1.2533
  560MOL0     C75520  10.285   5.172   7.435  0.5661 -0.2811  0.3625
  560MOL0     C75521  10.172   5.095   7.395  0.0317  0.5399  0.7935
  560MOL0     C75522  10.186   4.964   7.346 -0.0626 -0.0351 -0.6870
  560MOL0     O75523  10.093   4.866   7.321 -0.0037 -0.2591  0.7125
  560MOL0     C75524   9.961   4.893   7.369  0.0571  0.1194  0.2930
  560MOL0     C75525   9.858   4.777   7.345 -0.0029  0.3774  0.2685
  560MOL0     C75526   9.698   4.811   7.368  0.1483  0.0293 -0.5575
  560MOL0     C75527   9.673   4.855   7.516  0.0207 -0.8541 -0.2757
  560MOL0     C75528   9.535   4.848   7.556  0.2947 -0.2682 -0.5495
  560MOL0     C75529   9.410   4.849   7.574 -0.5334 -0.2904 -0.0358
  560MOL0     C75530  10.311   4.916   7.329 -0.8562 -0.7986  0.8440
  560MOL0     C75531  10.421   4.989   7.344 -0.4823 -0.0176 -1.1529
  560MOL0     C75532  10.553   4.922   7.317 -0.1372 -0.4597  0.3324
  560MOL0     H75533  10.729   5.218   7.652  2.6522 -0.0172  3.1882
  560MOL0     H75534  10.944   5.335   7.727  1.0838 -1.5101 -0.1311
  560MOL0     H75535  11.235   5.335   7.429  0.1518  1.0835 -5.6038
  560MOL0     H75536  11.206   5.508   7.369 -0.7838  0.7029  0.0558
  560MOL0     H75537  11.388   5.433   7.604  4.5713  0.4008 -1.4147
  560MOL0     H75538  11.337   5.591   7.539 -0.3043  0.1336 -2.1793
  560MOL0     H75539  11.556   5.558   7.480  0.2269  0.0767 -0.5999
  560MOL0     H75540  11.467   5.527   7.337  1.3713  1.3098  0.2514
  560MOL0     H75541  11.555   5.294   7.512 -1.3376 -0.9840 -0.0595
  560MOL0     H75542  11.464   5.274   7.375 -1.5087  0.8960  1.4491
  560MOL0     H75543  11.704   5.221   7.346 -2.3197 -1.1380 -0.7636
  560MOL0     H75544  11.643   5.316   7.218  1.8539 -0.2909 -0.8400
  560MOL0     H75545  11.724   5.520   7.309 -1.0670 -0.6969  0.7003
  560MOL0     H75546  11.751   5.461   7.466 -3.6249  2.7648 -0.7141
  560MOL0     H75547  11.905   5.379   7.220  1.7238  1.5516 -0.8679
  560MOL0     H75548  11.933   5.316   7.385 -2.1511 -1.1582 -0.3095
  560MOL0     H75549  11.994   5.579   7.246  0.1724 -0.7525 -0.6217
  560MOL0     H75550  11.945   5.600   7.422  1.7796 -0.5319  2.5041
  560MOL0     H75551  12.158   5.636   7.551 -1.6586  0.0057 -0.9958
  560MOL0     H75552  12.430   5.557   7.641  1.2846 -0.1968  0.9101
  560MOL0     H75553  12.515   5.463   7.518  0.0423  0.9347 -1.9719
  560MOL0     H75554  12.532   5.667   7.367 -2.1339 -1.9371  0.2475
  560MOL0     H75555  12.460   5.758   7.492  1.4126  1.8221 -0.6779
  560MOL0     H75556  12.627   5.700   7.648 -1.6024 -1.8306  0.0910
  560MOL0     H75557  12.699   5.789   7.512 -0.3598  1.0768  1.5970
  560MOL0     H75558  12.781   5.583   7.409 -1.7374  1.9450 -0.5080
  560MOL0     H75559  12.716   5.484   7.544 -0.0429 -0.6583 -3.1892
  560MOL0     H75560  12.759   5.425   7.750 -2.9438 -1.1119  5.1448
  560MOL0     H75561  12.782   5.439   7.984 -1.7660 -1.2236 -2.5638
  560MOL0     H75562  12.969   5.849   8.382  0.5536  2.1478  2.6514
  560MOL0     H75563  13.059   5.850   8.616 -2.2648 -1.5491  0.8482
  560MOL0     H75564  13.345   5.633   8.866 -4.4736 -2.2628  0.2351
  560MOL0     H75565  13.363   5.522   8.732 -1.5545 -1.1116  0.1187
  560MOL0     H75566  13.461   5.812   8.753  2.2806  1.0639 -3.7528
  560MOL0     H75567  13.559   5.668   8.772  0.4098 -3.4338 -2.1104
  560MOL0     H75568  13.563   5.619   8.544  1.6426  0.0028  2.6962
  560MOL0     H75569  13.436   5.733   8.510  0.9833 -1.4429 -0.5429
  560MOL0     H75570  13.717   5.796   8.630 -3.4923 -2.6614  3.5718
  560MOL0     H75571  13.588   5.916   8.582  2.1543  1.8027 -0.1368
  560MOL0     H75572  13.618   5.842   8.339 -3.3251 -4.0490  0.9269
  560MOL0     H75573  13.739   5.734   8.379 -1.3947  0.3696 -2.8473
  560MOL0     H75574  13.838   5.956   8.324  2.6473  0.2560  0.4473
  560MOL0     H75575  13.743   6.035   8.449 -0.1911 -1.0540  1.6844
  560MOL0     H75576  13.892   5.965   8.619 -2.8731 -2.5969  0.5822
  560MOL0     H75577  14.003   6.007   8.489 -0.7970 -0.2149 -0.1784
  560MOL0     H75578  13.933   5.715   8.536 -0.2851 -0.2282  0.3083
  560MOL0     H75579  14.032   5.776   8.405 -2.3241 -2.1137  0.2498
  560MOL0     H75580  13.264   5.486   8.551  0.6616 -0.8381 -1.5182
  560MOL0     H75581  13.189   5.473   8.324  0.5089 -0.0365 -0.0643
  560MOL0     H75582  13.073   5.739   7.956  0.3288 -1.8333  1.3683
  560MOL0     H75583  13.039   5.757   7.723 -0.9420  0.4264 -1.0532
  560MOL0     H75584  11.024   5.419   7.313 -0.5635 -0.7389  0.2037
  560MOL0     H75585  10.833   5.299   7.244 -1.0727 -1.5778  0.3707
  560MOL0     H75586  10.256   5.269   7.474 -0.1945 -0.4607  0.2587
  560MOL0     H75587  10.071   5.134   7.406 -2.4506 -4.2904 -1.7306
  560MOL0     H75588   9.911   4.979   7.322  1.3662  0.5814 -0.3004
  560MOL0     H75589   9.971   4.919   7.475  1.8271 -3.6556  1.2085
  560MOL0     H75590   9.876   4.702   7.424  1.6974  3.4428  3.0406
  560MOL0     H75591   9.871   4.736   7.245  0.2074 -1.0386  0.8514
  560MOL0     H75592   9.631   4.733   7.331  2.0077 -1.6280 -0.5851
  560MOL0     H75593   9.682   4.893   7.298 -0.7247 -0.6239 -1.1417
  560MOL0     H75594   9.726   4.786   7.582 -0.8465 -2.0324 -0.7829
  560MOL0     H75595   9.714   4.955   7.532 -0.6222 -0.6270 -0.0272
  560MOL0     H75596   9.305   4.848   7.594 -0.2015  1.8357  2.4044
  560MOL0     H75597  10.330   4.814   7.296 -1.7365 -0.7937  0.2997
  560MOL0     H75598  10.592   4.966   7.225 -0.2620  0.4705  0.7163
  560MOL0     H75599  10.621   4.944   7.400  2.6730  1.4641 -2.2434
  560MOL0     H75600  10.542   4.813   7.313  3.4636 -0.9604  0.1546
  561MOL0     O75601   9.469   2.297   6.902  0.0389  0.6137 -0.6728
  561MOL0     C75602   9.540   2.394   6.931 -0.2813 -0.0645 -1.1394
  561MOL0     O75603   9.542   2.508   6.855  0.9359 -0.2456  0.1157
  561MOL0     C75604   9.431   2.510   6.767  0.0932 -0.5110 -0.0072
  561MOL0     C75605   9.319   2.578   6.809 -0.4864  0.5647 -0.1462
  561MOL0     C75606   9.213   2.607   6.725 -1.0839  0.0609  0.2535
  561MOL0     C75607   9.213   2.559   6.593 -0.0846 -0.3319 -1.0388
  561MOL0     O75608   9.110   2.610   6.514  0.2541  0.0917 -0.2068
  561MOL0     C75609   9.132   2.607   6.369  0.7087  0.1378 -0.1281
  561MOL0     C75610   9.066   2.733   6.300 -0.2934  0.5332 -0.2785
  561MOL0     C75611   9.125   2.758   6.160 -0.2742  0.6778 -0.2002
  561MOL0     C75612   9.153   2.632   6.080 -0.5174  0.8082  0.9350
  561MOL0     C75613   9.218   2.671   5.946  0.5671 -0.6063  0.2291
  561MOL0     C75614   9.346   2.755   5.941  0.1622  0.1546  0.1438
  561MOL0     C75615   9.462   2.682   6.009 -0.2413  0.4744  0.4911
  561MOL0     C75616   9.581   2.772   5.979 -0.8850 -0.3651  0.5101
  561MOL0     N75617   9.689   2.729   6.072 -1.1190 -0.5561 -0.2232
  561MOL0     C75618   9.806   2.795   6.111 -0.5819 -0.2875 -0.7428
  561MOL0     C75619   9.898   2.699   6.130  0.1588 -0.3100  0.8345
  561MOL0     C75620  10.037   2.732   6.130 -0.5235 -0.8069  0.7964
  561MOL0     C75621  10.138   2.618   6.157 -0.6621  0.4066  0.5375
  561MOL0     C75622  10.158   2.576   6.308  0.9665 -0.1226 -0.0474
  561MOL0     C75623  10.200   2.686   6.401  0.1160 -0.5536 -0.0557
  561MOL0     O75624  10.317   2.637   6.464  0.0702  0.2880 -0.4986
  561MOL0     C75625  10.439   2.682   6.417 -0.0064  0.6893  0.9548
  561MOL0     C75626  10.481   2.809   6.396  0.3626 -0.4663 -0.5584
  561MOL0     C75627  10.615   2.845   6.355 -0.6609 -0.5552 -0.8990
  561MOL0     C75628  10.714   2.744   6.348 -0.1461  0.6084  0.2378
  561MOL0     C75629  10.851   2.775   6.311 -0.3934 -0.6379  1.0905
  561MOL0     O75630  10.883   2.878   6.228  0.3008  0.1925  0.3885
  561MOL0     C75631  11.017   2.900   6.186 -0.3016  0.1984  0.3919
  561MOL0     C75632  11.044   2.927   6.053 -0.2430  0.5803  0.6955
  561MOL0     C75633  11.165   2.974   6.005  0.4060 -0.2022 -0.2473
  561MOL0     C75634  11.279   2.970   6.086  0.5656 -0.6267  0.5870
  561MOL0     O75635  11.406   3.003   6.038 -0.0698 -0.1733  0.0871
  561MOL0     C75636  11.412   3.035   5.899 -0.1654 -0.3894  0.0417
  561MOL0     C75637  11.565   3.081   5.882 -0.6966 -0.0394  0.3300
  561MOL0     C75638  11.665   2.978   5.936 -0.0555  0.0497 -0.4250
  561MOL0     C75639  11.820   3.008   5.924 -0.1434 -0.6934  0.0658
  561MOL0     C75640  11.901   2.895   5.984 -0.5408  0.5335 -0.3084
  561MOL0     C75641  12.051   2.938   6.006  0.7776  0.8382 -0.1306
  561MOL0     C75642  12.115   2.936   5.862 -0.2692  0.4455 -0.5471
  561MOL0     C75643  12.266   2.925   5.877  0.7269 -0.1610  0.6551
  561MOL0    Cl75644  12.342   3.075   5.953 -0.8951  0.1299  0.8473
  561MOL0     C75645  11.260   2.937   6.220 -0.2274 -0.3813  0.1850
  561MOL0     C75646  11.129   2.914   6.271  0.3783 -0.4156 -0.2543
  561MOL0     O75647  10.936   2.708   6.369  0.1818 -0.2254 -0.4210
  561MOL0     C75648  10.665   2.613   6.373 -0.0253  0.0404  0.7913
  561MOL0     C75649  10.534   2.582   6.401 -0.1694 -0.0338 -0.0449
  561MOL0     N75650   9.835   2.577   6.131 -0.0117 -0.6684  0.3700
  561MOL0     N75651   9.708   2.594   6.097  0.3508  0.6856  0.5189
  561MOL0     C75652   9.326   2.485   6.547  0.7198 -0.6032 -0.1855
  561MOL0     C75653   9.437   2.471   6.635  0.1230 -0.3166 -0.4008
  561MOL0     C75654   9.641   2.375   7.044 -0.1928 -0.1863  0.4583
  561MOL0     C75655   9.637   2.259   7.128 -0.5429 -0.1538  0.7365
  561MOL0     C75656   9.728   2.245   7.235  0.2919  0.9445 -0.6030
  561MOL0     C75657   9.833   2.326   7.249 -1.2792  0.6564  0.3682
  561MOL0     O75658   9.921   2.280   7.346 -0.6816 -0.1115  0.0055
  561MOL0     C75659  10.047   2.348   7.367  0.7577 -0.4688 -0.3476
  561MOL0     C75660  10.162   2.324   7.265 -0.7697  0.5066 -0.5904
  561MOL0     C75661  10.214   2.182   7.276 -0.4843  0.0244  0.2101
  561MOL0     C75662  10.287   2.129   7.157 -0.5834  0.2947  1.1514
  561MOL0     C75663  10.416   2.206   7.141  0.9616 -0.0023 -0.1958
  561MOL0     C75664  10.527   2.256   7.132  0.5330 -0.4750  0.8379
  561MOL0     C75665   9.846   2.437   7.168  0.8076  0.1401 -0.8809
  561MOL0     C75666   9.759   2.453   7.059  0.0209 -0.2008 -0.6874
  561MOL0     C75667   9.785   2.573   6.978  0.1122 -0.3335 -1.0039
  561MOL0     H75668   9.333   2.601   6.914 -0.0998 -2.1869  0.4774
  561MOL0     H75669   9.128   2.661   6.765 -1.2410 -0.3879  0.5458
  561MOL0     H75670   9.239   2.607   6.345  0.8363  0.0120  0.4211
  561MOL0     H75671   9.081   2.520   6.328  0.7423  0.9169 -1.9385
  561MOL0     H75672   9.078   2.817   6.369 -0.3508 -0.3993  0.9162
  561MOL0     H75673   8.957   2.729   6.287 -0.3324  0.2565  0.1059
  561MOL0     H75674   9.217   2.817   6.164  0.4464 -0.4760  1.8341
  561MOL0     H75675   9.053   2.825   6.111  0.6408  1.0639 -1.0540
  561MOL0     H75676   9.229   2.575   6.135  0.1021  0.5854 -0.1225
  561MOL0     H75677   9.064   2.577   6.047  1.0744 -0.3233 -1.7913
  561MOL0     H75678   9.234   2.573   5.900 -1.6779 -2.1401  2.4578
  561MOL0     H75679   9.139   2.722   5.889  0.0320 -2.6788 -0.9668
  561MOL0     H75680   9.376   2.768   5.837  1.3110  0.8201  0.5429
  561MOL0     H75681   9.332   2.852   5.989  1.9619 -0.6234  2.4179
  561MOL0     H75682   9.487   2.580   5.978 -1.7134 -0.2406  1.5102
  561MOL0     H75683   9.450   2.683   6.118  4.2792 -1.7993  1.2556
  561MOL0     H75684   9.610   2.766   5.873 -1.5629  1.4839  0.1878
  561MOL0     H75685   9.552   2.873   6.007  0.9431  0.2911  0.1698
  561MOL0     H75686   9.827   2.897   6.080 -1.5024  0.4787  1.0453
  561MOL0     H75687  10.055   2.785   6.036 -1.1679  3.7581  2.9421
  561MOL0     H75688  10.058   2.808   6.206  4.3075 -0.7353 -0.3029
  561MOL0     H75689  10.098   2.530   6.105  0.1122  1.0775 -1.2324
  561MOL0     H75690  10.239   2.642   6.124  0.6408 -1.8268  2.5612
  561MOL0     H75691  10.226   2.491   6.314  1.2327  0.1051  0.1680
  561MOL0     H75692  10.062   2.537   6.343  0.0417  3.1308  1.4581
  561MOL0     H75693  10.125   2.700   6.479  1.9479 -0.7641  1.8149
  561MOL0     H75694  10.212   2.781   6.347 -1.8638 -1.4975 -2.3196
  561MOL0     H75695  10.411   2.891   6.412  1.4101  0.2344  0.5871
  561MOL0     H75696  10.629   2.952   6.342 -3.7860  0.4061  2.1792
  561MOL0     H75697  10.961   2.916   5.983  0.1085 -0.5002  0.4256
  561MOL0     H75698  11.168   2.996   5.899 -0.5392 -4.4525 -1.3506
  561MOL0     H75699  11.393   2.939   5.851  1.5840 -0.5721 -0.3549
  561MOL0     H75700  11.341   3.111   5.867 -0.1674 -0.5067 -0.2314
  561MOL0     H75701  11.586   3.113   5.780  1.0840 -0.1965  0.6133
  561MOL0     H75702  11.589   3.170   5.941  1.1444 -0.1071 -0.2380
  561MOL0     H75703  11.653   2.960   6.044 -1.0088  0.1505 -0.5063
  561MOL0     H75704  11.639   2.881   5.893 -1.4394 -0.4229  1.3622
  561MOL0     H75705  11.849   3.098   5.980 -0.4735  1.1517 -2.5112
  561MOL0     H75706  11.858   3.020   5.822  1.8157 -0.6560  0.7458
  561MOL0     H75707  11.900   2.811   5.914  1.4850  0.5901 -0.4804
  561MOL0     H75708  11.856   2.870   6.080 -0.2985  0.7895 -0.1275
  561MOL0     H75709  12.059   3.035   6.054 -0.4179  0.1679  1.5136
  561MOL0     H75710  12.094   2.861   6.071 -2.9265 -2.1021 -0.8271
  561MOL0     H75711  12.090   3.019   5.795  1.2013  3.2111  2.0660
  561MOL0     H75712  12.089   2.843   5.810  0.2411 -0.6415  1.0609
  561MOL0     H75713  12.289   2.845   5.948 -0.8719 -0.4373  0.8977
  561MOL0     H75714  12.317   2.919   5.781 -0.1294  2.8011 -0.1036
  561MOL0     H75715  11.350   2.951   6.278 -0.2502 -1.5788  0.5435
  561MOL0     H75716  11.121   2.900   6.378  0.5875 -1.5630 -0.3695
  561MOL0     H75717  10.742   2.538   6.391 -1.6722 -1.9080  0.1157
  561MOL0     H75718  10.517   2.478   6.426  1.6875 -0.1488  0.9226
  561MOL0     H75719   9.331   2.450   6.444 -1.4604  1.2452 -1.0054
  561MOL0     H75720   9.521   2.409   6.604  2.4580  0.1402  4.1455
  561MOL0     H75721   9.559   2.184   7.129 -0.4702 -0.2327  2.1938
  561MOL0     H75722   9.729   2.157   7.300  1.8531  0.9102 -0.6298
  561MOL0     H75723  10.081   2.323   7.468  2.4326 -0.4461 -0.8722
  561MOL0     H75724  10.030   2.456   7.369 -2.0433 -0.7245 -2.8511
  561MOL0     H75725  10.238   2.397   7.294 -1.4653  1.5876 -1.4083
  561MOL0     H75726  10.135   2.341   7.160 -2.3065 -0.5096 -0.3990
  561MOL0     H75727  10.136   2.110   7.303  0.7595 -1.5085 -0.1256
  561MOL0     H75728  10.284   2.166   7.358  1.3869 -2.4273 -1.6970
  561MOL0     H75729  10.305   2.021   7.162 -0.4715  0.3546  2.3184
  561MOL0     H75730  10.224   2.140   7.068  2.1140  0.7314 -0.8375
  561MOL0     H75731  10.624   2.299   7.116  1.6173 -3.1988 -0.5987
  561MOL0     H75732   9.922   2.512   7.187  0.3377  0.6705 -1.0681
  561MOL0     H75733   9.784   2.545   6.872  0.1929 -0.5525 -0.9464
  561MOL0     H75734   9.707   2.648   6.996 -1.0984 -1.9631  1.0390
  561MOL0     H75735   9.883   2.615   7.005 -0.0132 -0.6393 -0.0371
  562MOL0     O75736   5.236   1.916   8.602 -0.0422  0.2846  0.1541
  562MOL0     C75737   5.138   1.912   8.524  0.3649  0.0321 -0.4586
  562MOL0     O75738   5.113   1.819   8.423 -0.2616 -0.2392  0.2200
  562MOL0     C75739   5.203   1.724   8.375 -0.5684  0.2632 -0.1840
  562MOL0     C75740   5.341   1.727   8.400  0.5582 -0.8675 -0.1734
  562MOL0     C75741   5.426   1.628   8.351  0.4566  0.0116  0.4454
  562MOL0     C75742   5.375   1.528   8.262 -0.1572 -0.2599 -0.5074
  562MOL0     O75743   5.453   1.436   8.205 -0.0290 -0.2763  0.0572
  562MOL0     C75744   5.428   1.385   8.073  0.3358 -0.6184 -0.7620
  562MOL0     C75745   5.445   1.244   8.066  0.2586  1.3557  0.1762
  562MOL0     C75746   5.580   1.212   8.127 -0.3791 -0.3247  0.2124
  562MOL0     C75747   5.624   1.074   8.074  0.5383 -0.8109  0.1783
  562MOL0     C75748   5.768   1.051   8.104  0.0494  0.4933 -0.1746
  562MOL0     C75749   5.811   0.904   8.085  0.4987 -0.2288  0.0682
  562MOL0     C75750   5.784   0.850   7.943  0.2136 -0.0475 -0.5212
  562MOL0     C75751   5.891   0.897   7.847  0.7568  0.7688 -0.4659
  562MOL0     N75752   6.029   0.872   7.875 -0.1201  0.7105  0.1528
  562MOL0     C75753   6.085   0.753   7.875  0.0453 -0.2271  0.4458
  562MOL0     C75754   6.216   0.767   7.865  0.0494 -0.0889  0.1122
  562MOL0     C75755   6.310   0.645   7.862  0.0192 -0.4020  0.6938
  562MOL0     C75756   6.293   0.579   7.994 -0.1624 -0.3857 -1.1834
  562MOL0     C75757   6.361   0.443   8.004  1.0403 -0.2415  0.5252
  562MOL0     C75758   6.513   0.442   7.978 -0.1577 -0.1228  0.4114
  562MOL0     O75759   6.558   0.306   7.979  0.4943 -0.0743 -0.5527
  562MOL0     C75760   6.689   0.275   7.960  0.1693 -0.0653  0.0267
  562MOL0     C75761   6.719   0.139   7.944 -0.5481 -0.6614 -0.2094
  562MOL0     C75762   6.847   0.099   7.934 -0.6003 -0.0036 -0.3797
  562MOL0     C75763   6.953   0.187   7.927  0.2514 -0.5047  0.1405
  562MOL0     C75764   7.091   0.138   7.913  0.2144 -1.0995 -0.2569
  562MOL0     O75765   7.176   0.219   7.989  0.6888 -0.2457 -0.1214
  562MOL0     C75766   7.314   0.218   7.964  0.4368  0.7502 -0.8509
  562MOL0     C75767   7.371   0.284   7.853  0.0625  0.2299  0.3676
  562MOL0     C75768   7.507   0.270   7.826 -0.5849  0.6853  0.3001
  562MOL0     C75769   7.589   0.189   7.903 -0.7847 -0.9047 -0.1720
  562MOL0     O75770   7.721   0.169   7.883 -0.7138 -0.4574  0.3080
  562MOL0     C75771   7.790   0.248   7.791 -0.5037  0.3531  0.5917
  562MOL0     C75772   7.928   0.177   7.771  0.4641  0.6829 -0.6786
  562MOL0     C75773   8.014   0.177   7.897 -0.1984  0.5383  0.4633
  562MOL0     C75774   8.139   0.097   7.877 -0.3589 -0.1708  0.0017
  562MOL0     C75775   8.196   0.035   7.998  0.9154  0.2883 -0.0038
  562MOL0     C75776   8.227   0.132   8.118 -0.1465 -0.5893  0.3571
  562MOL0     C75777   8.281   0.043   8.226  0.4708  0.1485 -0.3110
  562MOL0     C75778   8.300   0.126   8.356 -0.6372 -0.0699  0.4422
  562MOL0    Cl75779   8.353   0.014   8.478 -0.4370 -0.1887 -0.1001
  562MOL0     C75780   7.541   0.126   8.017  0.3902  0.6412 -0.4741
  562MOL0     C75781   7.397   0.139   8.048  0.5512 -0.0674  0.6835
  562MOL0     O75782   7.117   0.036   7.848 -0.0913  0.2305  1.2263
  562MOL0     C75783   6.921   0.326   7.935 -0.3690 -0.6700 -0.4638
  562MOL0     C75784   6.785   0.367   7.955 -0.2496 -1.2488 -0.1174
  562MOL0     N75785   6.239   0.907   7.850 -0.4283 -0.1778 -0.2286
  562MOL0     N75786   6.123   0.971   7.862 -0.5080 -0.6732 -0.4323
  562MOL0     C75787   5.237   1.530   8.237  0.0036 -1.6445 -0.4846
  562MOL0     C75788   5.154   1.626   8.294  0.4801  0.0090  0.5068
  562MOL0     C75789   5.027   2.014   8.555  0.1396  0.1705  0.7087
  562MOL0     C75790   4.902   1.978   8.506 -0.1514 -0.8596  0.2337
  562MOL0     C75791   4.791   2.056   8.535 -0.9613 -0.0217  1.1561
  562MOL0     C75792   4.799   2.172   8.620  0.4475  0.2332  0.5979
  562MOL0     O75793   4.683   2.241   8.642 -0.9121  1.6641 -0.3129
  562MOL0     C75794   4.696   2.377   8.660 -1.2858  0.2334 -0.1006
  562MOL0     C75795   4.560   2.443   8.619 -0.4518  0.2499  0.0120
  562MOL0     C75796   4.575   2.591   8.618 -0.3172 -0.6643  0.3426
  562MOL0     C75797   4.442   2.652   8.565  0.9419  0.5840 -0.0038
  562MOL0     C75798   4.331   2.637   8.657  0.0623 -0.3046  0.3491
  562MOL0     C75799   4.231   2.627   8.719 -0.3598 -0.4033 -0.2654
  562MOL0     C75800   4.923   2.208   8.670 -0.8496 -0.2840  0.5780
  562MOL0     C75801   5.033   2.132   8.638  0.1960 -0.1313 -0.0236
  562MOL0     C75802   5.167   2.170   8.709 -0.1854  0.6331 -0.0617
  562MOL0     H75803   5.376   1.818   8.446 -1.8810 -0.2512  0.6273
  562MOL0     H75804   5.532   1.618   8.368  0.8235  0.1131 -1.4820
  562MOL0     H75805   5.326   1.413   8.045 -1.1097 -0.0966  4.0670
  562MOL0     H75806   5.499   1.435   8.007 -0.3235  0.2425 -0.8332
  562MOL0     H75807   5.431   1.196   7.969 -1.6317  2.1192  0.0268
  562MOL0     H75808   5.370   1.194   8.127  0.3498 -0.9900 -1.4987
  562MOL0     H75809   5.580   1.208   8.236  1.7320 -2.6038  0.2324
  562MOL0     H75810   5.646   1.292   8.092 -1.3631 -0.8378 -3.2311
  562MOL0     H75811   5.565   0.994   8.119  1.1141 -1.4340 -0.1704
  562MOL0     H75812   5.607   1.071   7.966 -1.7218 -0.3924  0.4778
  562MOL0     H75813   5.828   1.116   8.040  0.2493  1.7088  1.2077
  562MOL0     H75814   5.783   1.075   8.210  0.3734  0.7071 -0.2700
  562MOL0     H75815   5.915   0.890   8.116  0.2621 -0.0731  0.9568
  562MOL0     H75816   5.753   0.844   8.156  1.3752  1.7120  2.5571
  562MOL0     H75817   5.683   0.879   7.912 -0.5428 -2.0349 -0.0892
  562MOL0     H75818   5.779   0.741   7.942 -1.0459 -0.0251 -2.4636
  562MOL0     H75819   5.859   0.861   7.749 -3.3172  3.3258 -0.3351
  562MOL0     H75820   5.882   1.005   7.832  1.6925  1.2121  1.8044
  562MOL0     H75821   6.045   0.652   7.872  1.0905 -0.6437 -1.6909
  562MOL0     H75822   6.296   0.572   7.782  1.9334  1.4109 -1.4214
  562MOL0     H75823   6.415   0.671   7.845  0.4898 -2.0435  0.8875
  562MOL0     H75824   6.340   0.644   8.068  2.3203 -3.4570  0.1839
  562MOL0     H75825   6.189   0.552   8.017  0.6652 -3.0651 -0.2770
  562MOL0     H75826   6.310   0.362   7.949 -0.5052 -1.3752  3.4293
  562MOL0     H75827   6.347   0.408   8.106 -0.8716  1.3100  0.8594
  562MOL0     H75828   6.569   0.478   8.066  0.8241 -2.0116  0.6148
  562MOL0     H75829   6.549   0.502   7.895 -1.3503  0.6358  0.4223
  562MOL0     H75830   6.643   0.061   7.943 -0.7906 -0.4709 -2.7916
  562MOL0     H75831   6.870  -0.007   7.921 -0.1542  0.3261 -2.8304
  562MOL0     H75832   7.312   0.333   7.776 -1.3732 -2.3344 -0.2752
  562MOL0     H75833   7.543   0.303   7.729 -2.3471  1.1358 -0.2243
  562MOL0     H75834   7.751   0.255   7.689  0.0107  2.0768  0.4805
  562MOL0     H75835   7.804   0.350   7.827  0.0377  0.9200 -1.1354
  562MOL0     H75836   7.918   0.073   7.739  3.7538 -0.0672  0.4214
  562MOL0     H75837   7.986   0.220   7.688  0.1940 -2.1263 -2.4484
  562MOL0     H75838   8.031   0.283   7.920 -0.4265  0.3277  1.6717
  562MOL0     H75839   7.955   0.137   7.980 -0.5545 -0.2397 -0.1529
  562MOL0     H75840   8.212   0.163   7.829  1.4918 -0.8246  1.7318
  562MOL0     H75841   8.116   0.012   7.812 -2.5825 -1.2562  2.0210
  562MOL0     H75842   8.283  -0.023   7.966  1.4991  1.4402 -0.5785
  562MOL0     H75843   8.113  -0.028   8.031  0.6511  1.3383  1.4566
  562MOL0     H75844   8.297   0.209   8.083 -1.3358 -0.3370 -1.6321
  562MOL0     H75845   8.134   0.180   8.150  0.2121  0.4815 -0.1497
  562MOL0     H75846   8.377   0.005   8.191  0.9694  0.1408  0.9976
  562MOL0     H75847   8.216  -0.042   8.253 -0.0570 -1.1686 -4.9326
  562MOL0     H75848   8.370   0.207   8.331 -2.8420  1.7009 -0.3932
  562MOL0     H75849   8.206   0.164   8.397 -0.7028 -1.1787  1.3480
  562MOL0     H75850   7.602   0.073   8.090 -0.3752  0.3340 -0.0393
  562MOL0     H75851   7.350   0.080   8.125  0.2646 -2.8108 -1.4449
  562MOL0     H75852   7.002   0.398   7.919  3.4602 -4.0679  1.6848
  562MOL0     H75853   6.768   0.473   7.972  1.9526 -1.1679  2.1600
  562MOL0     H75854   5.187   1.455   8.176  1.7404 -1.9773 -1.5475
  562MOL0     H75855   5.048   1.617   8.275 -0.1160 -2.1354  3.9981
  562MOL0     H75856   4.885   1.900   8.433  1.7057  0.7908 -2.1338
  562MOL0     H75857   4.697   2.020   8.494 -0.0470 -1.2515  0.0806
  562MOL0     H75858   4.765   2.411   8.582 -0.2382  1.3089  1.2415
  562MOL0     H75859   4.709   2.405   8.765 -2.1903 -3.6323  1.1839
  562MOL0     H75860   4.473   2.416   8.680 -0.6075  1.2654  0.2610
  562MOL0     H75861   4.542   2.403   8.518 -0.5991 -1.1343  0.5590
  562MOL0     H75862   4.661   2.632   8.564 -0.1645 -1.9820 -0.4514
  562MOL0     H75863   4.585   2.610   8.726  2.4909 -0.1812  0.0921
  562MOL0     H75864   4.456   2.760   8.554  0.2813  1.0796  3.0976
  562MOL0     H75865   4.421   2.618   8.463  3.0835  4.0392 -1.7578
  562MOL0     H75866   4.144   2.621   8.783 -0.5588 -0.3718 -0.5301
  562MOL0     H75867   4.934   2.289   8.741 -2.3855 -0.2346  0.7887
  562MOL0     H75868   5.199   2.097   8.784  0.3436  0.5333 -0.3856
  562MOL0     H75869   5.246   2.196   8.639  0.3357 -1.3802 -0.2664
  562MOL0     H75870   5.150   2.260   8.769  0.1729 -0.1108  1.1905
  563MOL0     O75871   3.182   8.685   1.978 -0.1668 -0.0905 -0.5781
  563MOL0     C75872   3.107   8.770   2.018  0.3873  0.5585 -0.4486
  563MOL0     O75873   3.143   8.900   2.024 -0.0732 -0.1240 -0.5776
  563MOL0     C75874   3.259   8.940   1.960  0.0359 -0.3908  0.9381
  563MOL0     C75875   3.253   8.956   1.819 -0.5311  0.2242 -0.5349
  563MOL0     C75876   3.367   8.988   1.758 -1.0859 -0.7584  0.9118
  563MOL0     C75877   3.488   9.016   1.824  0.0246  0.6450  0.3063
  563MOL0     O75878   3.589   9.061   1.746 -0.4386 -0.1978  0.0242
  563MOL0     C75879   3.721   9.032   1.794  0.0947  0.2150  0.0994
  563MOL0     C75880   3.815   9.014   1.677 -0.5317 -0.2917 -0.4875
  563MOL0     C75881   3.949   8.986   1.735 -0.5605  0.6963  0.6748
  563MOL0     C75882   4.041   8.972   1.614 -1.0023 -0.4343 -0.5735
  563MOL0     C75883   4.191   8.949   1.645  0.8435 -0.1573 -0.7991
  563MOL0     C75884   4.278   8.941   1.516  0.5036 -0.4447  0.5553
  563MOL0     C75885   4.426   8.960   1.548 -0.6714  0.1131 -0.7526
  563MOL0     C75886   4.483   8.828   1.594  0.0682 -0.2126 -0.3315
  563MOL0     N75887   4.627   8.841   1.624 -0.1102 -0.3228  0.5509
  563MOL0     C75888   4.720   8.824   1.522 -0.1495  0.2532 -0.3571
  563MOL0     C75889   4.832   8.895   1.554  0.4591  1.3799 -0.0425
  563MOL0     C75890   4.952   8.890   1.475  0.2734 -0.0869 -0.0758
  563MOL0     C75891   5.081   8.905   1.553  0.5030 -0.0261 -0.5788
  563MOL0     C75892   5.110   9.052   1.581 -0.3113  0.4532 -0.0764
  563MOL0     C75893   5.240   9.092   1.653  0.3400 -0.5127 -0.1117
  563MOL0     O75894   5.357   9.048   1.584  0.0596  0.7629 -0.1015
  563MOL0     C75895   5.482   9.094   1.619 -0.5217  0.3966 -0.0187
  563MOL0     C75896   5.593   9.016   1.578  0.4618 -0.3638  0.3600
  563MOL0     C75897   5.724   9.060   1.602 -0.4170  0.3118  0.5290
  563MOL0     C75898   5.743   9.190   1.667 -0.1318 -0.4316  0.5966
  563MOL0     C75899   5.880   9.250   1.684  0.0596  0.8542 -0.4183
  563MOL0     O75900   5.986   9.156   1.684  0.6246  0.3688  0.1575
  563MOL0     C75901   6.121   9.186   1.673  0.5156 -0.0195  0.4907
  563MOL0     C75902   6.191   9.305   1.723 -0.4285  0.3599 -0.3368
  563MOL0     C75903   6.329   9.306   1.723  0.5012 -0.3926 -0.4098
  563MOL0     C75904   6.402   9.202   1.673 -1.0862  0.3611  0.0717
  563MOL0     O75905   6.541   9.212   1.683  0.6922 -0.9462 -0.1260
  563MOL0     C75906   6.632   9.129   1.609  0.5573  0.3136 -0.8088
  563MOL0     C75907   6.773   9.163   1.653 -0.0016 -0.5274 -0.3373
  563MOL0     C75908   6.875   9.075   1.577  0.0784  0.0150 -0.2103
  563MOL0     C75909   7.020   9.103   1.614 -0.1656 -0.2150 -0.6893
  563MOL0     C75910   7.121   9.006   1.553 -0.0638  0.8162 -0.4718
  563MOL0     C75911   7.262   9.042   1.609 -0.1709 -0.7269  0.1005
  563MOL0     C75912   7.371   8.964   1.532 -0.0562 -0.2957 -0.0670
  563MOL0     C75913   7.483   8.940   1.626  0.2413 -0.0246  0.7596
  563MOL0    Cl75914   7.633   8.886   1.530 -0.1392 -0.2536 -0.2062
  563MOL0     C75915   6.333   9.092   1.617 -0.6199 -0.4111 -0.2576
  563MOL0     C75916   6.193   9.078   1.624  0.3951 -0.8998 -0.1353
  563MOL0     O75917   5.888   9.366   1.695 -0.0023 -0.0188 -0.7872
  563MOL0     C75918   5.629   9.269   1.711  0.3149  0.0209  0.0543
  563MOL0     C75919   5.497   9.219   1.679 -0.4043 -0.0566  0.1589
  563MOL0     N75920   4.794   8.949   1.674 -0.4243 -0.0491 -0.4113
  563MOL0     N75921   4.675   8.924   1.717  0.1119 -0.3770  0.4700
  563MOL0     C75922   3.490   9.017   1.963  0.2345 -0.0188  0.4664
  563MOL0     C75923   3.378   8.969   2.029  0.2904 -0.5104  0.9266
  563MOL0     C75924   2.961   8.739   2.051  0.1296  0.4788  0.1325
  563MOL0     C75925   2.871   8.844   2.047  0.1293 -0.9024 -0.6244
  563MOL0     C75926   2.735   8.812   2.052  0.3852  1.0243  0.0040
  563MOL0     C75927   2.687   8.687   2.074  0.4008  1.2075 -0.1154
  563MOL0     O75928   2.552   8.673   2.071 -0.1182  0.4825 -0.1434
  563MOL0     C75929   2.493   8.551   2.136  0.2718  0.0718 -0.6006
  563MOL0     C75930   2.344   8.556   2.168  0.7333 -0.6973 -0.0483
  563MOL0     C75931   2.313   8.641   2.303  0.9864 -0.4671 -0.6306
  563MOL0     C75932   2.175   8.681   2.323  0.2310  0.3292  0.2264
  563MOL0     C75933   2.089   8.562   2.318  0.8814 -0.0714 -0.3983
  563MOL0     C75934   2.002   8.478   2.310 -0.2219  0.5255 -0.5196
  563MOL0     C75935   2.785   8.582   2.088  0.1395  0.1726 -0.6419
  563MOL0     C75936   2.920   8.611   2.090 -0.4331 -0.0719  0.4801
  563MOL0     C75937   3.017   8.498   2.127  0.4513  0.1743 -1.2680
  563MOL0     H75938   3.165   8.939   1.758 -0.5336 -0.4008 -0.3643
  563MOL0     H75939   3.366   8.988   1.649 -0.4129 -2.1804  0.8723
  563MOL0     H75940   3.753   9.118   1.854 -0.2880 -0.1149  0.7866
  563MOL0     H75941   3.728   8.937   1.848  2.2829 -1.4451 -2.7991
  563MOL0     H75942   3.811   9.110   1.624 -0.9299  0.3007  0.5801
  563MOL0     H75943   3.781   8.934   1.611 -0.6103  1.4454 -2.6511
  563MOL0     H75944   3.952   8.898   1.799 -0.9816 -0.6231 -1.0493
  563MOL0     H75945   3.980   9.073   1.795  0.2687  1.9417 -1.4561
  563MOL0     H75946   4.008   8.885   1.557 -1.8039  0.1995 -1.1086
  563MOL0     H75947   4.026   9.056   1.544  0.6100  0.0426 -0.3806
  563MOL0     H75948   4.221   9.017   1.725 -3.4202  0.5816  0.4599
  563MOL0     H75949   4.194   8.847   1.685 -2.8552 -0.2199 -0.2928
  563MOL0     H75950   4.263   8.839   1.481  0.3618 -0.9064  1.8872
  563MOL0     H75951   4.254   9.018   1.442 -1.7972 -0.1435  1.5039
  563MOL0     H75952   4.426   9.024   1.636 -4.0791 -1.5458  0.6187
  563MOL0     H75953   4.490   9.008   1.473  0.2942 -1.3403 -0.9059
  563MOL0     H75954   4.431   8.791   1.683 -0.9333  0.4594 -0.6131
  563MOL0     H75955   4.470   8.761   1.509  0.3743  1.0175 -1.3879
  563MOL0     H75956   4.697   8.764   1.434 -1.0017 -0.1127  0.1031
  563MOL0     H75957   4.942   8.791   1.430  0.2096 -0.1097 -0.0115
  563MOL0     H75958   4.939   8.968   1.399  0.1284  0.3234  0.3621
  563MOL0     H75959   5.063   8.851   1.646  1.1170  2.9455  1.4123
  563MOL0     H75960   5.163   8.864   1.494  0.3387  0.1220 -0.9149
  563MOL0     H75961   5.040   9.106   1.644 -2.2758  1.0442 -2.5911
  563MOL0     H75962   5.107   9.095   1.480 -2.3296 -0.2852 -0.3778
  563MOL0     H75963   5.230   9.061   1.758 -0.6618 -0.5471 -0.2065
  563MOL0     H75964   5.240   9.201   1.643  1.3263 -0.7128 -3.0628
  563MOL0     H75965   5.583   8.923   1.524  0.1231 -0.9863  1.4573
  563MOL0     H75966   5.804   8.996   1.566  2.7192  3.2943  1.7114
  563MOL0     H75967   6.141   9.389   1.771  0.2011 -0.1902  1.3511
  563MOL0     H75968   6.376   9.393   1.769 -3.0563  1.3543  0.3468
  563MOL0     H75969   6.609   9.023   1.618 -2.7229  1.0990  3.0211
  563MOL0     H75970   6.627   9.162   1.505 -3.0821  1.3276 -0.4768
  563MOL0     H75971   6.793   9.266   1.623  0.1113 -1.1307 -2.4863
  563MOL0     H75972   6.781   9.155   1.762 -2.2599 -0.5385 -0.1400
  563MOL0     H75973   6.866   8.969   1.604  0.9395 -0.5157 -1.9043
  563MOL0     H75974   6.867   9.085   1.468  1.8403  2.2895 -0.2009
  563MOL0     H75975   7.033   9.090   1.722 -1.1107 -0.8736 -0.6458
  563MOL0     H75976   7.044   9.205   1.583 -2.7842 -0.1741 -2.9345
  563MOL0     H75977   7.131   9.007   1.444  0.3320  0.9494 -0.4359
  563MOL0     H75978   7.094   8.905   1.587  0.5679  1.6131  2.7084
  563MOL0     H75979   7.263   9.147   1.577 -2.2143 -0.4504  0.7885
  563MOL0     H75980   7.261   9.023   1.717  0.9011 -1.5608 -0.0201
  563MOL0     H75981   7.390   9.023   1.442 -0.6698 -2.2883 -1.5648
  563MOL0     H75982   7.341   8.863   1.503  4.1169 -1.8481  0.2825
  563MOL0     H75983   7.493   9.036   1.677  0.4229  0.3486  0.0398
  563MOL0     H75984   7.454   8.872   1.706  0.8541 -0.3141  0.7444
  563MOL0     H75985   6.396   9.018   1.571 -0.8015 -1.6825  1.4464
  563MOL0     H75986   6.149   8.988   1.583 -0.9218 -0.4644  0.2684
  563MOL0     H75987   5.639   9.358   1.773 -2.7720 -1.5112  3.0631
  563MOL0     H75988   5.409   9.276   1.709 -2.4720 -2.8638 -0.1690
  563MOL0     H75989   3.571   9.059   2.022 -0.1648 -0.2532  1.2041
  563MOL0     H75990   3.378   8.973   2.138  0.4547 -3.5360  1.1016
  563MOL0     H75991   2.900   8.945   2.019  0.3092 -0.3134  1.5294
  563MOL0     H75992   2.663   8.894   2.049 -2.0484 -1.0154 -0.6213
  563MOL0     H75993   2.548   8.528   2.228  0.6665  2.6547 -0.1143
  563MOL0     H75994   2.514   8.477   2.059  2.0340 -0.5987  0.4792
  563MOL0     H75995   2.313   8.452   2.179  3.5358 -1.7063 -0.9024
  563MOL0     H75996   2.298   8.604   2.081  2.2752 -1.0233 -1.0888
  563MOL0     H75997   2.380   8.728   2.305  1.2655 -0.6618 -1.3414
  563MOL0     H75998   2.347   8.578   2.386  0.1657 -1.8680 -1.3197
  563MOL0     H75999   2.163   8.721   2.424 -1.6691  1.3821 -0.3606
  563MOL0     H76000   2.138   8.748   2.244 -0.8385 -0.3568  0.1192
  563MOL0     H76001   1.924   8.404   2.310  0.2666 -0.2038 -4.3670
  563MOL0     H76002   2.751   8.481   2.106 -1.7369  0.6902 -1.0095
  563MOL0     H76003   3.098   8.550   2.179 -1.3379  2.4255 -0.5980
  563MOL0     H76004   2.967   8.436   2.202  0.1318 -0.6451 -2.1425
  563MOL0     H76005   3.040   8.432   2.042  0.2581 -0.7066 -0.6519
  564MOL0     O76006   5.786   6.980   2.802 -0.3081 -0.2311  0.3558
  564MOL0     C76007   5.748   6.874   2.857 -0.3855  0.1434  0.8810
  564MOL0     O76008   5.828   6.762   2.855 -0.0841 -0.8893  0.0095
  564MOL0     C76009   5.959   6.761   2.832 -1.0180  0.1188 -0.4759
  564MOL0     C76010   6.051   6.871   2.819 -0.5315  0.2172  0.1262
  564MOL0     C76011   6.186   6.846   2.789 -0.6865 -0.1335 -1.0477
  564MOL0     C76012   6.238   6.718   2.793 -0.9569  0.3961  1.0804
  564MOL0     O76013   6.378   6.697   2.789  0.2351  0.7367 -0.1101
  564MOL0     C76014   6.439   6.571   2.741  0.6117  0.4139 -0.3130
  564MOL0     C76015   6.552   6.593   2.635 -0.7916  0.2843 -0.6539
  564MOL0     C76016   6.694   6.558   2.686  0.3328  0.3522  0.6386
  564MOL0     C76017   6.810   6.578   2.578 -0.3041  0.2607 -0.3590
  564MOL0     C76018   6.941   6.536   2.641  0.0264 -0.4920  0.4789
  564MOL0     C76019   6.955   6.386   2.644  0.4610 -0.3223 -0.0412
  564MOL0     C76020   7.093   6.329   2.689 -0.6726 -0.5657 -0.6897
  564MOL0     C76021   7.114   6.354   2.839 -0.0127  0.7776  0.9414
  564MOL0     N76022   7.256   6.340   2.871 -0.0169 -0.6989 -0.4760
  564MOL0     C76023   7.332   6.223   2.906  0.9236  0.2640  1.1390
  564MOL0     C76024   7.454   6.281   2.931 -0.8544  0.5857 -0.1052
  564MOL0     C76025   7.576   6.203   2.956  0.1382  0.4389  0.3048
  564MOL0     C76026   7.701   6.288   2.996 -0.5417  0.0784 -0.9814
  564MOL0     C76027   7.705   6.330   3.152 -0.2923  0.1465  0.6158
  564MOL0     C76028   7.713   6.203   3.242 -0.3909 -0.8649  0.8903
  564MOL0     O76029   7.775   6.236   3.362 -0.2997 -0.1945 -0.9651
  564MOL0     C76030   7.912   6.249   3.365 -0.3695  0.3200 -0.2547
  564MOL0     C76031   8.002   6.179   3.282  0.0229 -0.7373 -0.5109
  564MOL0     C76032   8.136   6.188   3.293 -0.1161  0.7824 -0.2706
  564MOL0     C76033   8.185   6.269   3.399 -0.5691 -0.8831  0.0451
  564MOL0     C76034   8.333   6.298   3.416 -0.6879  0.4354  0.4587
  564MOL0     O76035   8.408   6.299   3.303  0.0906 -0.1093  0.1766
  564MOL0     C76036   8.544   6.292   3.320 -0.2798 -0.5604  0.6472
  564MOL0     C76037   8.640   6.377   3.278  0.3634 -0.6429  0.7799
  564MOL0     C76038   8.777   6.347   3.293  0.0411 -0.2431  0.8081
  564MOL0     C76039   8.825   6.226   3.346  0.4786 -0.5849  0.3125
  564MOL0     O76040   8.958   6.199   3.356  0.0283  0.2570 -0.3466
  564MOL0     C76041   9.002   6.164   3.491 -0.0657  0.3322  0.2166
  564MOL0     C76042   9.116   6.252   3.552  0.5076 -0.0309  0.5758
  564MOL0     C76043   9.239   6.264   3.463  0.5689 -0.3624 -0.3162
  564MOL0     C76044   9.368   6.308   3.527  0.2341  0.0766  0.3491
  564MOL0     C76045   9.482   6.316   3.420  0.2054  0.2934 -0.4919
  564MOL0     C76046   9.620   6.342   3.483  0.4951  0.8689  0.0344
  564MOL0     C76047   9.703   6.375   3.367 -0.7009  0.6963  0.6267
  564MOL0     C76048   9.853   6.374   3.389 -1.3733 -0.7635  1.3831
  564MOL0    Cl76049   9.919   6.226   3.438 -0.1298 -0.0290  0.0381
  564MOL0     C76050   8.721   6.143   3.388 -0.1307  0.7614 -0.0383
  564MOL0     C76051   8.591   6.177   3.383 -0.1516  0.0999 -0.0498
  564MOL0     O76052   8.384   6.321   3.526 -0.4136  0.1983  0.1652
  564MOL0     C76053   8.094   6.339   3.482 -0.0957  0.3501  0.0654
  564MOL0     C76054   7.957   6.324   3.468  0.8435  0.7093 -0.6732
  564MOL0     N76055   7.454   6.418   2.934 -0.1561 -0.6077  0.4731
  564MOL0     N76056   7.334   6.455   2.891 -0.2954 -0.1148 -0.2348
  564MOL0     C76057   6.153   6.612   2.821  0.4174 -0.3816 -0.6219
  564MOL0     C76058   6.016   6.633   2.834  0.4008 -0.0038 -0.9386
  564MOL0     C76059   5.610   6.866   2.915 -0.2448  0.6672  0.1362
  564MOL0     C76060   5.567   6.735   2.921 -0.4638  0.0748  0.1973
  564MOL0     C76061   5.433   6.716   2.965 -0.2571 -0.0342 -0.1819
  564MOL0     C76062   5.347   6.817   3.003 -0.7477 -0.3917 -0.5466
  564MOL0     O76063   5.222   6.780   3.039 -0.1233  0.1017 -0.1006
  564MOL0     C76064   5.112   6.864   3.056  0.1245  0.7247 -0.3377
  564MOL0     C76065   5.026   6.853   3.186 -0.3758 -0.1780 -0.1977
  564MOL0     C76066   4.880   6.808   3.146 -0.0878 -0.7967  0.0988
  564MOL0     C76067   4.775   6.797   3.259  0.4435 -0.1603 -0.7781
  564MOL0     C76068   4.649   6.748   3.213  0.4461 -0.3105  0.8544
  564MOL0     C76069   4.547   6.680   3.182 -0.7124 -0.2508  0.2059
  564MOL0     C76070   5.399   6.948   2.999 -0.0521 -0.2271 -0.5514
  564MOL0     C76071   5.532   6.975   2.965 -0.2137 -0.3991 -0.2037
  564MOL0     C76072   5.564   7.124   2.957 -0.3349 -0.7745 -0.4170
  564MOL0     H76073   6.023   6.975   2.818  0.8328  0.6059 -0.7757
  564MOL0     H76074   6.252   6.927   2.761  0.8188 -1.5231 -1.6994
  564MOL0     H76075   6.478   6.523   2.831  1.0754 -0.2931 -0.8823
  564MOL0     H76076   6.359   6.508   2.699  2.2829 -1.1236 -1.3291
  564MOL0     H76077   6.553   6.702   2.623  1.3267  0.4395  0.5130
  564MOL0     H76078   6.538   6.534   2.544  1.8980 -0.3762 -0.7281
  564MOL0     H76079   6.691   6.453   2.718  4.5531  0.7656  3.1994
  564MOL0     H76080   6.717   6.623   2.771  2.1513 -0.9201  1.1795
  564MOL0     H76081   6.798   6.516   2.489  2.0396  2.8862 -2.6957
  564MOL0     H76082   6.810   6.683   2.547  0.8680  1.1287  2.2874
  564MOL0     H76083   7.025   6.581   2.587  1.2486 -1.8699  1.1600
  564MOL0     H76084   6.941   6.580   2.741 -0.4052 -1.0515  0.7245
  564MOL0     H76085   6.873   6.340   2.701  0.1568 -2.7684 -2.2992
  564MOL0     H76086   6.933   6.351   2.543 -1.0504 -0.6991  0.3899
  564MOL0     H76087   7.173   6.359   2.622 -0.4449  0.3134 -0.0551
  564MOL0     H76088   7.090   6.221   2.675 -2.9181 -0.9969  2.0019
  564MOL0     H76089   7.072   6.455   2.848 -0.0690  1.0864 -1.9974
  564MOL0     H76090   7.068   6.280   2.905  2.4434 -1.9127 -0.1412
  564MOL0     H76091   7.306   6.118   2.901 -0.6219  0.6248 -3.9440
  564MOL0     H76092   7.548   6.134   3.036 -0.1808  0.0414 -0.1416
  564MOL0     H76093   7.599   6.154   2.861  1.3940  1.0950  0.2484
  564MOL0     H76094   7.792   6.228   2.983 -0.5344 -0.0889 -0.2438
  564MOL0     H76095   7.703   6.383   2.941 -2.3614  2.0452  2.0345
  564MOL0     H76096   7.616   6.390   3.168 -0.3210  1.7896 -4.1237
  564MOL0     H76097   7.792   6.392   3.175 -0.1522 -1.0574  3.8894
  564MOL0     H76098   7.772   6.128   3.189  0.9346  0.8930 -0.2546
  564MOL0     H76099   7.611   6.168   3.264 -0.7655 -0.6881 -0.4650
  564MOL0     H76100   7.973   6.118   3.197 -1.1184 -0.8914 -0.0265
  564MOL0     H76101   8.206   6.139   3.225 -0.7332 -1.7748  0.8155
  564MOL0     H76102   8.599   6.461   3.222 -0.5683  0.2322  2.6735
  564MOL0     H76103   8.852   6.413   3.250  0.6336 -0.9276  0.7856
  564MOL0     H76104   8.924   6.172   3.567 -2.7681  1.0527 -2.4837
  564MOL0     H76105   9.042   6.064   3.473  0.7074  0.5922  0.4347
  564MOL0     H76106   9.080   6.354   3.571  1.2152  0.5562 -1.1150
  564MOL0     H76107   9.142   6.209   3.650 -2.2746 -3.2650  0.1050
  564MOL0     H76108   9.274   6.171   3.416  2.7920  0.0076  0.4746
  564MOL0     H76109   9.214   6.335   3.383 -0.5043 -1.4428 -0.9621
  564MOL0     H76110   9.394   6.235   3.604  0.1776  1.1123  1.3834
  564MOL0     H76111   9.358   6.403   3.581 -1.0384  0.1528  0.0314
  564MOL0     H76112   9.466   6.400   3.352 -0.1986  1.4837  1.0189
  564MOL0     H76113   9.486   6.220   3.367 -2.9480 -0.3835  0.2889
  564MOL0     H76114   9.625   6.427   3.552  1.4430 -0.2792  1.4231
  564MOL0     H76115   9.659   6.249   3.524 -1.5619 -1.4187 -2.7900
  564MOL0     H76116   9.678   6.476   3.331  1.0083  0.6246 -0.8903
  564MOL0     H76117   9.685   6.293   3.297 -0.9994  1.1862  0.1208
  564MOL0     H76118   9.901   6.413   3.299 -1.1191  0.4028  1.9917
  564MOL0     H76119   9.876   6.453   3.462  0.3687 -0.7600  0.8712
  564MOL0     H76120   8.734   6.041   3.423 -4.6960  0.1948  0.7434
  564MOL0     H76121   8.516   6.106   3.414 -2.6836  1.7534 -1.9981
  564MOL0     H76122   8.132   6.414   3.550  0.1417  1.4405 -1.2177
  564MOL0     H76123   7.891   6.379   3.533  0.4649  0.6397 -0.9927
  564MOL0     H76124   6.188   6.512   2.846  1.0189  0.3142  1.5327
  564MOL0     H76125   5.941   6.561   2.868 -2.7886  3.3875 -0.0992
  564MOL0     H76126   5.620   6.646   2.888 -1.6721 -0.3788 -0.6098
  564MOL0     H76127   5.391   6.617   2.951  1.6470 -0.8923 -0.1096
  564MOL0     H76128   5.045   6.835   2.974  1.8105  0.8281 -1.8046
  564MOL0     H76129   5.131   6.972   3.052  2.7801  0.3551  0.6311
  564MOL0     H76130   5.035   6.947   3.241  2.3937 -0.2562 -0.3526
  564MOL0     H76131   5.065   6.771   3.248  0.5963  1.0932  0.9509
  564MOL0     H76132   4.899   6.706   3.114  0.2406 -1.1828  1.4898
  564MOL0     H76133   4.848   6.867   3.059  2.3118  0.1588 -0.1968
  564MOL0     H76134   4.812   6.750   3.351  3.2147  2.9417 -0.1079
  564MOL0     H76135   4.748   6.901   3.280 -2.5293 -0.4373 -2.6892
  564MOL0     H76136   4.467   6.620   3.146  1.1119 -3.1676  0.7078
  564MOL0     H76137   5.350   7.032   3.046  1.3839  0.7403 -0.7066
  564MOL0     H76138   5.620   7.139   2.865  0.7657 -0.6313  0.2593
  564MOL0     H76139   5.477   7.189   2.963 -0.5075 -1.1120  1.1390
  564MOL0     H76140   5.628   7.152   3.041 -0.1873  0.7175 -1.0084
  565MOL0     O76141   9.903   9.206  10.590 -0.0748 -0.2010  0.4454
  565MOL0     C76142   9.818   9.117  10.594  0.0376  0.8487  0.7312
  565MOL0     O76143   9.846   8.989  10.635  0.2078 -0.2087  0.0796
  565MOL0     C76144   9.977   8.938  10.633 -1.0226  0.4529 -0.2076
  565MOL0     C76145  10.068   8.971  10.535 -0.8859  0.1856  0.3887
  565MOL0     C76146  10.204   8.924  10.543 -0.6380 -0.6955  0.0030
  565MOL0     C76147  10.251   8.856  10.660 -0.5839  1.0230 -0.6527
  565MOL0     O76148  10.382   8.809  10.674  0.0815 -0.3253  1.0053
  565MOL0     C76149  10.473   8.834  10.562  0.2158  0.3540  0.0908
  565MOL0     C76150  10.612   8.787  10.581 -0.2104 -0.6070  0.9344
  565MOL0     C76151  10.668   8.835  10.712  0.2735  0.7022  0.1406
  565MOL0     C76152  10.820   8.815  10.704  0.7899 -0.7085  0.2441
  565MOL0     C76153  10.880   8.803  10.833  0.2680  0.5999  0.0536
  565MOL0     C76154  10.861   8.930  10.922  0.5546 -0.2583  0.0100
  565MOL0     C76155  10.992   8.967  11.002  0.5593  0.0012  0.0696
  565MOL0     C76156  10.980   9.055  11.132 -0.9251 -0.5666  1.0655
  565MOL0     N76157  11.115   9.091  11.187  0.2078  0.1527  0.1499
  565MOL0     C76158  11.125   9.173  11.289 -0.6899 -0.3583 -0.6403
  565MOL0     C76159  11.243   9.143  11.353 -1.2135  0.1743 -0.3259
  565MOL0     C76160  11.294   9.203  11.478 -0.6343  0.0383  0.1227
  565MOL0     C76161  11.445   9.183  11.509 -0.6504 -0.0245  0.1828
  565MOL0     C76162  11.523   9.279  11.421  0.3973  0.3556 -0.1097
  565MOL0     C76163  11.670   9.262  11.432 -0.1328 -0.7156  1.0603
  565MOL0     O76164  11.720   9.300  11.560  0.0916  0.8767  0.8812
  565MOL0     C76165  11.829   9.385  11.562 -0.4867  0.0010  0.6482
  565MOL0     C76166  11.925   9.387  11.466 -0.4324 -0.2041  0.9187
  565MOL0     C76167  12.029   9.480  11.476 -0.5741  0.8331  0.2572
  565MOL0     C76168  12.041   9.560  11.592 -0.1512 -0.1390  0.7751
  565MOL0     C76169  12.157   9.655  11.609  0.3518 -0.7632  0.3190
  565MOL0     O76170  12.250   9.654  11.505  0.4034  0.2187  0.6288
  565MOL0     C76171  12.341   9.764  11.513  1.1615 -0.2456  0.2401
  565MOL0     C76172  12.467   9.733  11.550 -0.0793  0.3584  0.1869
  565MOL0     C76173  12.565   9.837  11.572 -0.8101  0.1331 -0.5879
  565MOL0     C76174  12.532   9.974  11.561  0.7335  1.2478 -0.0308
  565MOL0     O76175  12.621  10.079  11.589 -0.6379  0.4848  0.3309
  565MOL0     C76176  12.734  10.062  11.678  0.8340 -0.6598 -0.2443
  565MOL0     C76177  12.823  10.185  11.656  0.9811 -0.3870  0.0184
  565MOL0     C76178  12.957  10.166  11.719 -0.2473  0.1069 -0.2349
  565MOL0     C76179  13.054  10.291  11.724  0.0555 -0.0133 -0.0277
  565MOL0     C76180  13.121  10.306  11.579 -0.0318 -0.4221  0.4977
  565MOL0     C76181  13.204  10.434  11.563  0.1110 -1.2538 -0.2884
  565MOL0     C76182  13.274  10.430  11.427 -0.1647 -0.3884 -0.4354
  565MOL0     C76183  13.366  10.551  11.405  0.8289  0.1327 -0.2109
  565MOL0    Cl76184  13.333  10.706  11.496  0.6468 -0.1816 -0.1205
  565MOL0     C76185  12.394   9.999  11.531  0.2393  0.0882  0.0714
  565MOL0     C76186  12.302   9.896  11.511 -0.3492  0.7101  0.4370
  565MOL0     O76187  12.177   9.708  11.723  0.2076 -0.3126  0.0223
  565MOL0     C76188  11.940   9.558  11.691 -0.1824  0.3831  0.2930
  565MOL0     C76189  11.843   9.468  11.669 -0.2374 -0.5299 -1.0968
  565MOL0     N76190  11.309   9.052  11.279  1.4874  0.3516  0.3162
  565MOL0     N76191  11.230   9.019  11.183 -0.1963  0.5567  0.2743
  565MOL0     C76192  10.165   8.820  10.758 -0.1042 -0.2589  0.1911
  565MOL0     C76193  10.029   8.865  10.741 -0.4265 -0.4044  0.3929
  565MOL0     C76194   9.674   9.139  10.548  0.6225  0.0218  0.4229
  565MOL0     C76195   9.650   9.253  10.469 -0.4034 -0.8732 -0.6372
  565MOL0     C76196   9.526   9.281  10.422  0.4723  0.4301 -0.5705
  565MOL0     C76197   9.414   9.203  10.458 -0.1928  0.6251  0.4566
  565MOL0     O76198   9.281   9.220  10.434  0.1561 -0.4420 -0.3207
  565MOL0     C76199   9.242   9.332  10.352  0.3156 -0.2192 -0.6477
  565MOL0     C76200   9.092   9.349  10.353 -1.2466  0.6642  0.7910
  565MOL0     C76201   9.037   9.332  10.492  0.1638 -0.1659 -0.0260
  565MOL0     C76202   8.977   9.194  10.512  0.3883  1.0315 -0.3507
  565MOL0     C76203   8.852   9.183  10.450  0.5247  0.5915 -0.0731
  565MOL0     C76204   8.744   9.162  10.407  0.9682 -1.4889 -0.4656
  565MOL0     C76205   9.435   9.084  10.531 -0.2406  0.5901 -0.1728
  565MOL0     C76206   9.561   9.050  10.575 -0.2649 -0.5774 -0.2144
  565MOL0     C76207   9.573   8.929  10.662 -0.6900 -0.1803  1.0006
  565MOL0     H76208  10.031   9.017  10.444 -1.8219 -1.0922  0.1018
  565MOL0     H76209  10.267   8.946  10.457  0.4543 -3.0006  0.1373
  565MOL0     H76210  10.432   8.780  10.476  0.7689 -0.9355  0.6126
  565MOL0     H76211  10.480   8.941  10.543  0.2580  0.5891  1.3627
  565MOL0     H76212  10.665   8.825  10.493 -2.4574 -0.4376 -0.4382
  565MOL0     H76213  10.619   8.678  10.572  2.1758 -0.4781  0.5466
  565MOL0     H76214  10.620   8.769  10.785  0.4840 -0.8739 -1.0797
  565MOL0     H76215  10.641   8.937  10.741  0.2819  1.9315 -3.5330
  565MOL0     H76216  10.845   8.725  10.647 -0.9521  1.3871 -4.3867
  565MOL0     H76217  10.863   8.902  10.654 -1.7730  1.3243  1.3652
  565MOL0     H76218  10.847   8.715  10.890 -3.5941 -0.0300 -2.7936
  565MOL0     H76219  10.987   8.799  10.812  0.4602  1.6037  0.7983
  565MOL0     H76220  10.833   9.015  10.859  2.3391 -0.8129 -1.6377
  565MOL0     H76221  10.781   8.914  10.994  1.0281  2.8038  1.3899
  565MOL0     H76222  11.062   9.024  10.940  0.3005 -0.1532 -0.3691
  565MOL0     H76223  11.047   8.878  11.033  2.1193  0.3097 -1.6617
  565MOL0     H76224  10.923   9.145  11.107  0.0664  0.3583  2.0464
  565MOL0     H76225  10.921   8.999  11.205  1.9503 -2.9666  1.7508
  565MOL0     H76226  11.055   9.251  11.318  1.6464  2.2184 -1.5582
  565MOL0     H76227  11.273   9.310  11.483 -3.9363 -0.4943 -0.0567
  565MOL0     H76228  11.231   9.156  11.554  0.9451  0.1542  1.5741
  565MOL0     H76229  11.460   9.187  11.617 -0.8602 -0.6184  0.2386
  565MOL0     H76230  11.467   9.077  11.491 -0.7952 -0.6141  3.0686
  565MOL0     H76231  11.490   9.382  11.439  3.1618  1.5596 -1.4531
  565MOL0     H76232  11.494   9.252  11.319 -0.8767  0.1932  0.2737
  565MOL0     H76233  11.705   9.336  11.359 -0.9664 -0.7554  0.6033
  565MOL0     H76234  11.698   9.161  11.398  0.8857 -0.4996  1.2299
  565MOL0     H76235  11.919   9.334  11.371  3.3290  2.4423 -1.0820
  565MOL0     H76236  12.103   9.494  11.398 -1.1698 -0.0349 -0.4978
  565MOL0     H76237  12.501   9.631  11.564  2.0115  0.8889 -0.6602
  565MOL0     H76238  12.670   9.823  11.597 -0.4852  1.8443 -0.8539
  565MOL0     H76239  12.686  10.049  11.775  0.0071  1.7711 -0.2539
  565MOL0     H76240  12.795   9.974  11.654  0.6839 -1.4913  2.1910
  565MOL0     H76241  12.842  10.200  11.549  3.8564 -0.1030  0.4697
  565MOL0     H76242  12.769  10.273  11.691  1.8047  0.3293 -0.4750
  565MOL0     H76243  12.952  10.130  11.822 -0.3987 -0.8519 -0.5653
  565MOL0     H76244  12.998  10.078  11.669 -1.9429  0.3968 -2.2509
  565MOL0     H76245  13.126  10.289  11.807 -1.6098  0.4943  1.4731
  565MOL0     H76246  12.986  10.376  11.731 -1.5265 -1.2962  0.7986
  565MOL0     H76247  13.044  10.291  11.502 -2.7309 -0.1380  2.9782
  565MOL0     H76248  13.192  10.223  11.575  2.0138  1.1985  1.0860
  565MOL0     H76249  13.141  10.523  11.567  2.9461  0.9101 -0.6349
  565MOL0     H76250  13.274  10.437  11.646  0.1816  1.6567 -0.3516
  565MOL0     H76251  13.195  10.421  11.351 -1.0778 -1.1924  0.5726
  565MOL0     H76252  13.332  10.338  11.424  1.5799  0.6575 -0.2140
  565MOL0     H76253  13.465  10.518  11.434  0.9659  1.8147  1.4812
  565MOL0     H76254  13.370  10.571  11.297  0.0099  1.5980 -0.0136
  565MOL0     H76255  12.362  10.103  11.538 -1.3972 -0.4244  0.8340
  565MOL0     H76256  12.196   9.917  11.519 -0.6399 -0.5611  0.1618
  565MOL0     H76257  11.949   9.625  11.775 -2.5696  1.6586 -0.3617
  565MOL0     H76258  11.777   9.461  11.756 -0.5653  1.8252 -1.0966
  565MOL0     H76259  10.195   8.754  10.840  0.4940  0.8868  0.9192
  565MOL0     H76260   9.960   8.843  10.822  0.7078 -1.5440  1.0779
  565MOL0     H76261   9.728   9.328  10.459  0.7356 -1.5720  2.3038
  565MOL0     H76262   9.512   9.373  10.366  2.8814  2.3882  1.7905
  565MOL0     H76263   9.282   9.318  10.251 -0.1482  2.1439 -1.2129
  565MOL0     H76264   9.278   9.429  10.389 -1.7399  1.6916 -3.2689
  565MOL0     H76265   9.057   9.275  10.281 -1.1810  0.5623  0.8627
  565MOL0     H76266   9.062   9.445  10.311 -1.2081  0.6272  0.6801
  565MOL0     H76267   8.959   9.406  10.512  0.8938  0.0051  2.6546
  565MOL0     H76268   9.115   9.349  10.567  0.5339  1.3257 -0.7117
  565MOL0     H76269   9.047   9.116  10.481 -0.8852 -1.6973  3.0507
  565MOL0     H76270   8.950   9.170  10.615 -0.0331 -2.4876 -1.1671
  565MOL0     H76271   8.644   9.143  10.373 -0.1789  0.0528  1.7654
  565MOL0     H76272   9.353   9.016  10.549 -1.7283  3.0532  3.7993
  565MOL0     H76273   9.476   8.891  10.697 -1.5232  0.1531 -0.7985
  565MOL0     H76274   9.620   8.850  10.604  1.3382  0.6567  1.4295
  565MOL0     H76275   9.628   8.949  10.754  2.0374 -3.3900  0.2472
  566MOL0     O76276   0.752  10.909   5.374 -0.4884 -0.7860 -0.3272
  566MOL0     C76277   0.732  10.891   5.256  0.5170  0.2922 -0.2805
  566MOL0     O76278   0.822  10.847   5.168 -0.6166  0.5908 -0.2738
  566MOL0     C76279   0.953  10.880   5.194 -0.1126 -0.7520  0.4322
  566MOL0     C76280   1.005  10.977   5.106  0.2257  0.5533  0.2401
  566MOL0     C76281   1.143  11.003   5.114 -0.5079  0.1834 -0.2784
  566MOL0     C76282   1.224  10.954   5.211  1.0154  0.2607 -0.3936
  566MOL0     O76283   1.347  11.005   5.205  0.5996  0.3102  0.3111
  566MOL0     C76284   1.450  10.956   5.282 -0.0532  1.4190  0.1885
  566MOL0     C76285   1.585  11.000   5.221 -0.6694  1.0624 -0.1024
  566MOL0     C76286   1.711  10.931   5.279 -0.7487 -0.0260  0.2447
  566MOL0     C76287   1.738  10.792   5.227  0.3864 -0.2553 -0.2815
  566MOL0     C76288   1.868  10.737   5.277  0.0931 -0.3346  0.4018
  566MOL0     C76289   1.984  10.770   5.184  0.0118 -0.1243 -0.2883
  566MOL0     C76290   2.107  10.684   5.215  0.4444  0.0314  0.5430
  566MOL0     C76291   2.174  10.714   5.347 -1.3217 -0.1357  0.1993
  566MOL0     N76292   2.283  10.813   5.320  0.2025 -0.5094 -0.1533
  566MOL0     C76293   2.269  10.944   5.313  0.1175 -0.5185  0.1056
  566MOL0     C76294   2.398  10.987   5.311  0.2310  0.4719 -0.0999
  566MOL0     C76295   2.430  11.136   5.301 -0.0959  0.3016  0.2611
  566MOL0     C76296   2.475  11.204   5.430  0.1810 -0.2910 -0.3940
  566MOL0     C76297   2.584  11.314   5.410  0.3190  0.2587 -0.5032
  566MOL0     C76298   2.725  11.261   5.403  0.6228  0.7418  0.6584
  566MOL0     O76299   2.771  11.246   5.539 -0.3356 -0.3747  0.0313
  566MOL0     C76300   2.897  11.200   5.553 -0.4073 -0.0029  0.6175
  566MOL0     C76301   2.978  11.148   5.447 -0.5681 -1.2792 -0.7846
  566MOL0     C76302   3.105  11.101   5.477 -0.7176 -0.4212  0.1797
  566MOL0     C76303   3.165  11.114   5.602  0.4007  0.4741  0.3399
  566MOL0     C76304   3.296  11.037   5.624 -0.7478  0.0749  0.0003
  566MOL0     O76305   3.332  10.930   5.553 -0.1583  0.0857  0.5116
  566MOL0     C76306   3.435  10.855   5.598  0.2218 -0.2460  0.4923
  566MOL0     C76307   3.539  10.852   5.503 -0.6613  0.4389  0.1810
  566MOL0     C76308   3.653  10.779   5.532 -0.6319 -0.1488 -0.2909
  566MOL0     C76309   3.660  10.707   5.659  0.0578 -0.0676  0.3203
  566MOL0     O76310   3.777  10.642   5.704  0.8638  0.9004  0.2645
  566MOL0     C76311   3.853  10.571   5.610 -0.5856  0.3410  0.2924
  566MOL0     C76312   3.999  10.576   5.657  0.2707 -0.1430  0.5734
  566MOL0     C76313   4.083  10.450   5.622 -0.1931 -0.2741 -0.2218
  566MOL0     C76314   4.041  10.332   5.697  0.6897 -1.4441  0.3154
  566MOL0     C76315   4.158  10.233   5.682  0.4437  0.3638 -0.1221
  566MOL0     C76316   4.175  10.167   5.543 -0.2206  0.6672 -0.3950
  566MOL0     C76317   4.305  10.083   5.554 -0.5568 -0.9815  0.2885
  566MOL0     C76318   4.341   9.999   5.440 -1.1535 -0.4805 -0.6114
  566MOL0    Cl76319   4.212   9.896   5.370 -0.4006  0.3413 -0.0265
  566MOL0     C76320   3.559  10.707   5.751 -0.1659 -0.2601 -0.7179
  566MOL0     C76321   3.440  10.777   5.716 -0.5923  0.4339 -0.7145
  566MOL0     O76322   3.349  11.060   5.730 -0.2223 -0.0386 -0.4582
  566MOL0     C76323   3.088  11.172   5.705 -0.6497 -0.6672  0.7730
  566MOL0     C76324   2.958  11.215   5.682 -0.4239  0.9554  0.3062
  566MOL0     N76325   2.488  10.881   5.326 -0.5937 -0.4032 -0.3430
  566MOL0     N76326   2.419  10.778   5.332 -0.1444  0.3242 -0.9794
  566MOL0     C76327   1.173  10.859   5.302  0.3619 -0.2187  0.0469
  566MOL0     C76328   1.038  10.825   5.298  1.1968 -0.0422  0.7127
  566MOL0     C76329   0.587  10.884   5.216  0.3164  0.5333  0.1706
  566MOL0     C76330   0.560  10.871   5.079 -1.0511 -0.2534  0.1119
  566MOL0     C76331   0.434  10.873   5.022  0.1993 -0.1516  0.1892
  566MOL0     C76332   0.324  10.874   5.105 -0.3272 -0.5630  0.2765
  566MOL0     O76333   0.189  10.881   5.072 -0.1218 -0.0646  0.4967
  566MOL0     C76334   0.143  10.791   4.961  0.0153 -0.3977  0.8985
  566MOL0     C76335   0.002  10.740   5.000 -0.5960  0.6615  0.1616
  566MOL0     C76336  -0.102  10.849   4.973  1.0817 -1.2247  0.2985
  566MOL0     C76337  -0.226  10.830   5.060 -0.1879 -0.2480 -0.0582
  566MOL0     C76338  -0.331  10.756   4.986  1.1762 -0.5536  0.4354
  566MOL0     C76339  -0.419  10.691   4.930 -0.9258  0.2748 -0.0537
  566MOL0     C76340   0.344  10.895   5.239 -0.3170  0.2408  0.6171
  566MOL0     C76341   0.474  10.903   5.298 -0.5772 -0.1721 -1.0355
  566MOL0     C76342   0.480  10.912   5.448  0.3166  0.6962 -0.5869
  566MOL0     H76343   0.937  11.020   5.034  1.8395  0.6790 -1.2897
  566MOL0     H76344   1.188  11.076   5.048  0.3498  1.2900  1.4433
  566MOL0     H76345   1.448  10.991   5.386  1.5833  0.2127  0.6735
  566MOL0     H76346   1.456  10.847   5.273 -0.9399  1.4504 -0.9980
  566MOL0     H76347   1.588  11.105   5.250 -1.5442  0.5840  1.8556
  566MOL0     H76348   1.580  10.999   5.111  2.7150  2.4032 -0.3874
  566MOL0     H76349   1.704  10.935   5.388  3.0389 -1.8081  0.7556
  566MOL0     H76350   1.792  11.001   5.256 -2.4722  1.8505 -0.4066
  566MOL0     H76351   1.651  10.736   5.264 -0.7379  0.6030 -1.5412
  566MOL0     H76352   1.736  10.795   5.118 -1.9395  2.0785 -0.2641
  566MOL0     H76353   1.889  10.774   5.378 -0.6977 -1.1150  0.8663
  566MOL0     H76354   1.849  10.630   5.284 -0.7253 -0.2503 -0.3473
  566MOL0     H76355   1.954  10.731   5.086 -1.6294  0.9448 -0.2500
  566MOL0     H76356   2.000  10.877   5.170  0.8531 -0.4338 -1.9545
  566MOL0     H76357   2.177  10.691   5.131  0.0253 -1.1900  0.0639
  566MOL0     H76358   2.070  10.581   5.217 -1.0316  0.5208 -0.1548
  566MOL0     H76359   2.098  10.753   5.415 -0.1163  3.2968 -0.2162
  566MOL0     H76360   2.215  10.623   5.392 -1.2311 -0.0580  0.2755
  566MOL0     H76361   2.179  11.003   5.326 -1.6409 -3.6492  4.2074
  566MOL0     H76362   2.524  11.144   5.245 -1.1695  1.0129 -1.4998
  566MOL0     H76363   2.365  11.205   5.248 -0.7333  0.7355  1.5609
  566MOL0     H76364   2.391  11.253   5.480  1.9785  3.7155 -0.9576
  566MOL0     H76365   2.518  11.125   5.492 -0.1528 -2.8548 -3.1945
  566MOL0     H76366   2.565  11.382   5.493  0.6045 -1.1921  0.8084
  566MOL0     H76367   2.571  11.367   5.315  3.2654 -0.9368 -1.7304
  566MOL0     H76368   2.788  11.333   5.348 -2.4605  1.9055 -1.6612
  566MOL0     H76369   2.737  11.173   5.339 -1.7215  0.9972 -0.2390
  566MOL0     H76370   2.958  11.136   5.341  4.0247 -2.5269 -1.7431
  566MOL0     H76371   3.158  11.051   5.397 -1.3790  0.1656 -0.6328
  566MOL0     H76372   3.533  10.899   5.406  1.1361  0.5043  0.0726
  566MOL0     H76373   3.733  10.774   5.460 -0.0009  0.9313  0.3029
  566MOL0     H76374   3.823  10.467   5.617 -1.5945  0.6119  0.1104
  566MOL0     H76375   3.838  10.603   5.507  0.3656 -1.7103 -0.5272
  566MOL0     H76376   4.047  10.667   5.620  0.9244 -0.1863  1.2989
  566MOL0     H76377   3.996  10.578   5.766 -1.1553  0.2743  0.5503
  566MOL0     H76378   4.068  10.432   5.515 -0.6303  0.9574 -0.3932
  566MOL0     H76379   4.190  10.471   5.628 -0.1383  1.1332 -3.7112
  566MOL0     H76380   3.949  10.292   5.655  1.8368 -1.1267 -2.7264
  566MOL0     H76381   4.025  10.352   5.803 -0.2775 -0.4433 -0.0002
  566MOL0     H76382   4.148  10.156   5.759  0.5697 -0.6964 -1.1407
  566MOL0     H76383   4.243  10.295   5.710  0.1644  1.1864 -1.0569
  566MOL0     H76384   4.090  10.107   5.511  2.3118 -3.1847 -0.5477
  566MOL0     H76385   4.182  10.249   5.470  0.7221  2.9393  2.0876
  566MOL0     H76386   4.293  10.012   5.636 -1.2850  0.4846  1.5055
  566MOL0     H76387   4.395  10.141   5.579 -1.3905  0.9202 -0.9047
  566MOL0     H76388   4.372  10.074   5.366 -1.2033 -0.0127 -0.1556
  566MOL0     H76389   4.426   9.936   5.471  0.5372  1.2245 -1.5461
  566MOL0     H76390   3.566  10.654   5.845 -0.5420  0.6391 -0.1615
  566MOL0     H76391   3.350  10.780   5.776 -0.9228  0.8262 -1.2209
  566MOL0     H76392   3.117  11.185   5.809  2.5706 -2.0109  0.1526
  566MOL0     H76393   2.901  11.254   5.765 -3.2999  0.2860 -1.2172
  566MOL0     H76394   1.246  10.813   5.368 -1.6719 -0.2285  2.4125
  566MOL0     H76395   0.989  10.739   5.343  1.7883 -0.8431 -0.1546
  566MOL0     H76396   0.645  10.851   5.014 -0.6508 -2.3088  1.1529
  566MOL0     H76397   0.425  10.855   4.916  1.5075 -2.0312  0.3459
  566MOL0     H76398   0.217  10.712   4.942 -1.7864 -1.4079 -2.6815
  566MOL0     H76399   0.139  10.847   4.868 -0.6591  0.3322  1.3593
  566MOL0     H76400  -0.000  10.720   5.107  0.9265 -1.0582 -0.0848
  566MOL0     H76401  -0.026  10.651   4.942  1.0440  0.5178 -0.4689
  566MOL0     H76402  -0.126  10.849   4.866 -1.2776  0.3845  0.7522
  566MOL0     H76403  -0.081  10.953   4.997 -2.6344 -0.7809  2.1593
  566MOL0     H76404  -0.200  10.801   5.162  0.6566 -0.4161 -0.3154
  566MOL0     H76405  -0.263  10.933   5.070  1.0575  0.0308  2.1986
  566MOL0     H76406  -0.493  10.629   4.883 -1.4598 -1.7321  3.0961
  566MOL0     H76407   0.254  10.908   5.298 -1.5815 -1.8070 -0.7117
  566MOL0     H76408   0.522  10.820   5.489 -0.9120  0.5750  0.4661
  566MOL0     H76409   0.541  10.999   5.477 -0.3961  0.2918  2.5359
  566MOL0     H76410   0.383  10.919   5.498  0.9434  2.8624  0.4652
  567MOL0     O76411   9.970   0.323   4.625  0.7317  0.7388 -0.1597
  567MOL0     C76412   9.898   0.364   4.719 -0.1444 -0.2401 -0.6150
  567MOL0     O76413   9.951   0.430   4.830 -0.0882  0.4827  0.1243
  567MOL0     C76414  10.083   0.467   4.828  1.1713  0.8445  0.1553
  567MOL0     C76415  10.127   0.574   4.752  0.7245 -1.1378 -0.5678
  567MOL0     C76416  10.251   0.621   4.765 -0.6105  1.0407 -0.0038
  567MOL0     C76417  10.342   0.567   4.848  0.2041 -0.1932 -0.1378
  567MOL0     O76418  10.463   0.627   4.853 -0.6701  0.7963  0.7533
  567MOL0     C76419  10.545   0.598   4.969  0.3117  0.2791  0.2217
  567MOL0     C76420  10.626   0.721   5.004  0.3058 -0.3525 -0.1268
  567MOL0     C76421  10.702   0.725   5.137  0.1882 -0.5800  0.2916
  567MOL0     C76422  10.819   0.823   5.123  0.1960 -0.7665 -0.5169
  567MOL0     C76423  10.883   0.832   5.265 -0.2622 -0.4084 -1.0744
  567MOL0     C76424  10.987   0.945   5.284  0.5838 -0.0370 -0.5097
  567MOL0     C76425  11.062   0.947   5.410  0.8222 -0.1398  0.1912
  567MOL0     C76426  11.153   1.074   5.420 -0.6514 -0.6201  0.8748
  567MOL0     N76427  11.212   1.093   5.542 -0.3537  0.2608 -0.5486
  567MOL0     C76428  11.264   1.209   5.578 -0.6276 -0.4038  0.9675
  567MOL0     C76429  11.317   1.188   5.704  0.2234 -0.3573 -0.6270
  567MOL0     C76430  11.376   1.298   5.786 -0.2386 -0.3534  0.1492
  567MOL0     C76431  11.500   1.368   5.724  0.0361 -0.0476  1.1524
  567MOL0     C76432  11.581   1.469   5.800 -0.0744 -0.1235  0.4045
  567MOL0     C76433  11.524   1.608   5.788 -0.2992  0.0114 -0.2534
  567MOL0     O76434  11.574   1.674   5.670 -0.3353 -0.1222 -0.2743
  567MOL0     C76435  11.691   1.748   5.661 -0.5214  0.2403  0.0141
  567MOL0     C76436  11.785   1.752   5.776  0.2210  0.0863  0.8612
  567MOL0     C76437  11.895   1.828   5.769 -0.4750  0.2827 -0.6445
  567MOL0     C76438  11.923   1.906   5.654  0.9740 -0.4596 -1.1166
  567MOL0     C76439  12.042   1.992   5.654  0.1020  0.8297 -0.3929
  567MOL0     O76440  12.153   1.941   5.728  0.3011 -0.0779 -0.3242
  567MOL0     C76441  12.272   2.006   5.759 -0.1440  0.0167  0.7597
  567MOL0     C76442  12.370   1.927   5.800  0.1361 -0.4333 -0.7695
  567MOL0     C76443  12.500   1.968   5.813  0.8502 -0.5987  0.4166
  567MOL0     C76444  12.538   2.105   5.787 -0.1152  0.1205  0.3686
  567MOL0     O76445  12.661   2.159   5.792  0.3175  0.0911 -0.1014
  567MOL0     C76446  12.765   2.065   5.803  0.5949  0.6139  0.8094
  567MOL0     C76447  12.889   2.135   5.826 -0.3682  0.1756 -0.7949
  567MOL0     C76448  12.936   2.224   5.711  0.3233  0.1289  0.1223
  567MOL0     C76449  13.055   2.166   5.626  0.2802  0.2485  0.4862
  567MOL0     C76450  13.114   2.270   5.529  0.1776  1.5286 -0.0238
  567MOL0     C76451  13.182   2.390   5.593 -0.0695 -0.2758  0.3259
  567MOL0     C76452  13.309   2.338   5.665  1.2162 -0.7229 -0.4349
  567MOL0     C76453  13.404   2.453   5.689 -0.1206 -0.1206  0.0441
  567MOL0    Cl76454  13.410   2.582   5.558 -0.4007 -0.1428 -0.1521
  567MOL0     C76455  12.430   2.196   5.760 -0.6276 -0.1427  0.3361
  567MOL0     C76456  12.300   2.144   5.745 -0.1220 -0.2712 -0.6534
  567MOL0     O76457  12.044   2.092   5.595  1.1855  0.3698  0.2262
  567MOL0     C76458  11.833   1.913   5.549 -0.0382  0.4842  0.7206
  567MOL0     C76459  11.722   1.828   5.551 -0.2212 -0.3975 -0.1632
  567MOL0     N76460  11.300   1.054   5.738 -0.2287 -0.5212 -0.2305
  567MOL0     N76461  11.233   1.000   5.642  0.0442 -0.1176 -0.8926
  567MOL0     C76462  10.306   0.449   4.915 -0.1736 -0.3739  0.5217
  567MOL0     C76463  10.179   0.398   4.902 -0.1501  0.0921 -0.3661
  567MOL0     C76464   9.751   0.350   4.725 -0.4290  0.5822  0.6211
  567MOL0     C76465   9.678   0.432   4.808 -0.4243 -0.9617  0.5111
  567MOL0     C76466   9.539   0.419   4.820 -0.2363 -1.1929 -0.9126
  567MOL0     C76467   9.467   0.321   4.762  0.2834  0.3565 -0.1905
  567MOL0     O76468   9.334   0.307   4.786 -0.1226  0.5158 -0.2726
  567MOL0     C76469   9.249   0.276   4.675  0.3713 -0.2597  0.1473
  567MOL0     C76470   9.110   0.345   4.695 -0.1542 -0.6764  0.3236
  567MOL0     C76471   9.040   0.334   4.561  0.2911 -0.2002  0.2651
  567MOL0     C76472   8.913   0.424   4.546  0.5486  0.3334 -0.0552
  567MOL0     C76473   8.951   0.562   4.537  0.5354 -0.3862  1.2172
  567MOL0     C76474   8.977   0.679   4.529  0.4231 -0.5332 -1.1508
  567MOL0     C76475   9.536   0.246   4.668 -0.2837  0.1167  1.3782
  567MOL0     C76476   9.672   0.255   4.640 -0.5911 -0.5115 -0.0761
  567MOL0     C76477   9.735   0.185   4.528  0.1012  0.2855 -0.1599
  567MOL0     H76478  10.056   0.626   4.688  0.4532 -1.4468 -0.5213
  567MOL0     H76479  10.281   0.714   4.717 -1.7881  1.5837  0.2897
  567MOL0     H76480  10.481   0.588   5.057 -2.3292  3.5258 -1.1010
  567MOL0     H76481  10.606   0.511   4.944  0.8827  1.4611 -2.8782
  567MOL0     H76482  10.554   0.804   5.002 -0.0063 -0.6430 -1.2619
  567MOL0     H76483  10.699   0.727   4.923 -1.0527 -0.8235 -1.4374
  567MOL0     H76484  10.756   0.632   5.155  1.1444 -0.0408  0.2506
  567MOL0     H76485  10.629   0.759   5.211 -0.4655 -0.5499 -0.3573
  567MOL0     H76486  10.892   0.796   5.046  1.7393  0.7442  0.3451
  567MOL0     H76487  10.770   0.918   5.099  2.1259  0.5481  0.5218
  567MOL0     H76488  10.806   0.850   5.341  1.4986 -1.4207  1.0278
  567MOL0     H76489  10.927   0.736   5.289  0.3068 -0.0406 -0.6191
  567MOL0     H76490  11.061   0.938   5.203 -1.0657  0.3107 -2.1338
  567MOL0     H76491  10.931   1.038   5.270  0.1780 -0.0529  0.9328
  567MOL0     H76492  11.133   0.864   5.415  1.7902  0.7515  2.6951
  567MOL0     H76493  10.988   0.947   5.490  0.4382  0.8792 -0.1489
  567MOL0     H76494  11.231   1.079   5.344  0.4878  0.4684  2.0470
  567MOL0     H76495  11.093   1.163   5.396  0.2018 -0.6148 -1.4191
  567MOL0     H76496  11.263   1.304   5.526 -0.2236 -0.0476  1.5977
  567MOL0     H76497  11.303   1.364   5.833  1.1916  0.9479  0.6142
  567MOL0     H76498  11.410   1.245   5.875  0.6899 -0.4134 -0.2280
  567MOL0     H76499  11.563   1.281   5.705 -1.3288 -1.3557  2.3450
  567MOL0     H76500  11.473   1.407   5.626  0.4811  1.8077  1.7195
  567MOL0     H76501  11.679   1.459   5.753 -1.4071  2.1439 -3.2908
  567MOL0     H76502  11.593   1.442   5.906 -1.7036 -0.1737  0.5936
  567MOL0     H76503  11.543   1.667   5.877 -0.4410 -0.7720  0.3095
  567MOL0     H76504  11.415   1.602   5.775 -0.2692  0.8675 -0.9579
  567MOL0     H76505  11.759   1.694   5.864  0.3497 -2.1326 -0.4907
  567MOL0     H76506  11.960   1.831   5.856 -1.5883 -1.2673  0.3008
  567MOL0     H76507  12.343   1.825   5.827 -0.8229 -0.2670 -1.0635
  567MOL0     H76508  12.566   1.897   5.861  0.3815 -1.1881  0.2073
  567MOL0     H76509  12.747   1.980   5.870  1.3589  0.4837  0.8513
  567MOL0     H76510  12.773   2.014   5.706  1.3161 -0.8938  1.6274
  567MOL0     H76511  12.874   2.200   5.912  1.7093  2.5671 -2.1027
  567MOL0     H76512  12.967   2.059   5.838 -1.8790 -1.2092  0.6710
  567MOL0     H76513  12.859   2.238   5.635  1.0203  0.5025 -0.5266
  567MOL0     H76514  12.946   2.328   5.743 -0.9510  0.6550 -1.0735
  567MOL0     H76515  13.018   2.091   5.556  2.0900  0.2919 -0.5576
  567MOL0     H76516  13.132   2.112   5.682  0.0271 -1.1624 -0.4744
  567MOL0     H76517  13.029   2.316   5.479  1.0684  1.5518 -1.5603
  567MOL0     H76518  13.178   2.231   5.449 -1.7654 -1.4641 -0.2810
  567MOL0     H76519  13.203   2.456   5.509 -2.6894  2.0670  1.3581
  567MOL0     H76520  13.117   2.451   5.656 -0.7370 -1.9215  1.3026
  567MOL0     H76521  13.346   2.263   5.594 -1.9842  0.1487 -3.3327
  567MOL0     H76522  13.281   2.271   5.747  0.3886 -1.5697 -1.3774
  567MOL0     H76523  13.372   2.502   5.782 -3.5117 -2.3046  0.1925
  567MOL0     H76524  13.505   2.412   5.697  0.2486  1.0783  2.4254
  567MOL0     H76525  12.444   2.300   5.735  1.2425 -0.6050 -0.7289
  567MOL0     H76526  12.218   2.205   5.707 -0.2784 -0.3781 -0.4889
  567MOL0     H76527  11.847   1.978   5.464  0.3725 -1.7627 -1.0272
  567MOL0     H76528  11.652   1.837   5.468 -0.1505  0.7704 -0.1028
  567MOL0     H76529  10.383   0.408   4.979  1.5979  0.2102 -1.1195
  567MOL0     H76530  10.156   0.305   4.953 -0.8765 -0.3072 -1.3800
  567MOL0     H76531   9.731   0.509   4.863 -2.1351  0.3417  0.3956
  567MOL0     H76532   9.485   0.487   4.886  3.1190  1.4485 -0.5766
  567MOL0     H76533   9.234   0.169   4.665 -1.2517  0.1613 -3.3354
  567MOL0     H76534   9.287   0.319   4.581 -0.3524 -0.3743 -0.2061
  567MOL0     H76535   9.133   0.450   4.713  3.2951 -1.0023 -1.3952
  567MOL0     H76536   9.063   0.295   4.781 -0.5502 -1.3239 -0.2568
  567MOL0     H76537   9.022   0.228   4.541  1.4011 -0.9773  2.8978
  567MOL0     H76538   9.111   0.365   4.484  0.5213  0.1584  0.6182
  567MOL0     H76539   8.863   0.387   4.456 -0.5982  3.5544 -0.8871
  567MOL0     H76540   8.836   0.420   4.624  0.9054  2.2451  0.4357
  567MOL0     H76541   8.991   0.781   4.503 -0.8885  0.1820  0.7244
  567MOL0     H76542   9.477   0.177   4.608 -0.3566  0.5720  0.9224
  567MOL0     H76543   9.667   0.101   4.512  0.2422  0.2201 -0.4163
  567MOL0     H76544   9.717   0.249   4.441 -5.4630  0.5329  0.8621
  567MOL0     H76545   9.836   0.146   4.543 -0.8529 -2.0448  0.5600
  568MOL0     O76546   9.291   9.853   1.118 -0.6716 -0.1307 -0.2071
  568MOL0     C76547   9.289   9.773   1.211 -0.2402 -0.0574 -0.0447
  568MOL0     O76548   9.404   9.712   1.255 -0.4802  0.5821 -0.1015
  568MOL0     C76549   9.516   9.737   1.183 -0.4495  0.0169 -0.0009
  568MOL0     C76550   9.541   9.660   1.066 -0.4005 -0.4795 -0.0870
  568MOL0     C76551   9.653   9.684   0.986  0.1330  0.0687 -0.0792
  568MOL0     C76552   9.733   9.795   1.011  0.1537  0.2472  0.1769
  568MOL0     O76553   9.848   9.832   0.941  0.0353  0.1238 -0.5876
  568MOL0     C76554   9.869   9.802   0.797 -0.7335 -0.3308  0.1179
  568MOL0     C76555   9.991   9.701   0.782 -0.6439 -0.3997  0.7444
  568MOL0     C76556  10.120   9.774   0.814 -0.4277  0.0660 -0.4302
  568MOL0     C76557  10.241   9.682   0.824 -0.1287  0.0258  0.4129
  568MOL0     C76558  10.370   9.745   0.878 -0.2499  0.6633 -0.7212
  568MOL0     C76559  10.408   9.886   0.832  0.6127  0.2617 -0.0042
  568MOL0     C76560  10.419   9.890   0.674  0.0046  0.6646 -0.1758
  568MOL0     C76561  10.515   9.999   0.630 -0.0065  0.7320 -0.9383
  568MOL0     N76562  10.659   9.985   0.659 -0.6533 -0.2424 -0.5686
  568MOL0     C76563  10.730   9.880   0.712 -0.2307  0.3897  0.8809
  568MOL0     C76564  10.855   9.924   0.705 -0.4081  0.0488  0.3429
  568MOL0     C76565  10.977   9.845   0.760 -0.2473  0.0876 -0.5708
  568MOL0     C76566  10.955   9.849   0.918  0.6550 -0.3023  0.3544
  568MOL0     C76567  11.063   9.774   0.992  0.8476  0.3100 -0.1944
  568MOL0     C76568  11.212   9.823   0.981  0.2121 -0.0871  0.1899
  568MOL0     O76569  11.265   9.765   0.859  0.7930 -0.2442 -0.3701
  568MOL0     C76570  11.392   9.802   0.816  0.7460 -0.3803  0.4003
  568MOL0     C76571  11.448   9.715   0.720  0.5752 -0.7492 -0.5386
  568MOL0     C76572  11.572   9.744   0.673 -0.1973 -1.0680  0.9952
  568MOL0     C76573  11.639   9.867   0.695  0.3559  0.2611 -0.4650
  568MOL0     C76574  11.761   9.900   0.628  0.2352 -0.2802 -0.5569
  568MOL0     O76575  11.788  10.035   0.605  0.0877  0.3971 -0.4151
  568MOL0     C76576  11.895  10.092   0.530  1.4665  0.5938 -0.1064
  568MOL0     C76577  12.019  10.031   0.502  0.5486  0.1445  0.5501
  568MOL0     C76578  12.121  10.090   0.429  0.3361  0.2458  0.9280
  568MOL0     C76579  12.107  10.217   0.375 -0.0167  0.8325 -0.7677
  568MOL0     O76580  12.204  10.269   0.299  0.2176  0.1172  0.1422
  568MOL0     C76581  12.309  10.330   0.364 -0.2832 -0.2607 -0.2110
  568MOL0     C76582  12.394  10.404   0.261  0.1937  0.2698  0.0372
  568MOL0     C76583  12.309  10.503   0.181 -0.3486  0.6357  1.0880
  568MOL0     C76584  12.396  10.585   0.075 -0.0597  0.0590 -0.3146
  568MOL0     C76585  12.312  10.672  -0.020  0.3780 -0.8132  0.8539
  568MOL0     C76586  12.393  10.770  -0.108  0.7872  0.2321  0.8053
  568MOL0     C76587  12.534  10.731  -0.141 -0.1353 -0.1292  0.8223
  568MOL0     C76588  12.630  10.848  -0.176  0.0805 -0.6625  0.5219
  568MOL0    Cl76589  12.793  10.788  -0.227  0.1271  0.2142 -0.1240
  568MOL0     C76590  11.980  10.285   0.409 -0.2029 -0.2126  0.7117
  568MOL0     C76591  11.876  10.217   0.475  0.1329 -1.1500 -1.0305
  568MOL0     O76592  11.816   9.800   0.582 -0.4036 -0.3544  0.1336
  568MOL0     C76593  11.583   9.951   0.790 -0.1547  0.2937 -0.0427
  568MOL0     C76594  11.456   9.919   0.848  0.1642  0.1254 -0.5757
  568MOL0     N76595  10.863  10.042   0.643  0.1699 -0.4895  0.1440
  568MOL0     N76596  10.745  10.076   0.608 -1.1159  0.4587  0.2110
  568MOL0     C76597   9.711   9.873   1.126 -0.3595 -0.4099 -0.3937
  568MOL0     C76598   9.599   9.844   1.208 -0.5842  0.2290 -0.3695
  568MOL0     C76599   9.163   9.717   1.269 -0.0065 -0.1269 -0.5227
  568MOL0     C76600   9.163   9.650   1.389  0.6690  0.3566 -0.4362
  568MOL0     C76601   9.049   9.601   1.447  0.2920 -0.1492 -0.5515
  568MOL0     C76602   8.922   9.611   1.378 -0.3503  0.3281 -0.5460
  568MOL0     O76603   8.803   9.557   1.431 -0.0721  0.2004  0.1972
  568MOL0     C76604   8.717   9.491   1.343 -0.2495  0.3156 -0.0930
  568MOL0     C76605   8.603   9.412   1.418  0.2557 -0.6706  0.7831
  568MOL0     C76606   8.483   9.513   1.436 -0.4456  1.2528 -0.1816
  568MOL0     C76607   8.347   9.439   1.480  0.9509 -0.5767  0.4868
  568MOL0     C76608   8.230   9.536   1.512  0.3215 -0.4039 -0.1098
  568MOL0     C76609   8.155   9.626   1.542  0.5472 -0.6896 -0.0066
  568MOL0     C76610   8.926   9.672   1.254  0.2418  0.5128  0.0224
  568MOL0     C76611   9.045   9.721   1.194  0.2029  0.5788 -0.7057
  568MOL0     C76612   9.026   9.788   1.059  0.2058  1.2351 -0.6930
  568MOL0     H76613   9.486   9.575   1.026  3.4593 -3.0620 -0.4666
  568MOL0     H76614   9.665   9.611   0.906 -0.6755  0.6487 -0.7555
  568MOL0     H76615   9.775   9.772   0.749 -1.8295 -1.4322  2.7452
  568MOL0     H76616   9.898   9.896   0.750  2.6842 -0.4688  1.6212
  568MOL0     H76617  10.000   9.667   0.679  1.0457  0.8576  0.4301
  568MOL0     H76618   9.978   9.615   0.850 -2.1766 -1.4340 -0.7769
  568MOL0     H76619  10.111   9.817   0.914  0.9132  0.7967 -0.5901
  568MOL0     H76620  10.137   9.858   0.747  0.9600  0.6772  0.6346
  568MOL0     H76621  10.220   9.613   0.906  0.8638 -1.6973 -0.7207
  568MOL0     H76622  10.254   9.632   0.728 -1.1831 -0.2281  0.3904
  568MOL0     H76623  10.361   9.746   0.987  0.2105 -1.6403 -0.6109
  568MOL0     H76624  10.456   9.680   0.859  0.1673  0.6652  0.9740
  568MOL0     H76625  10.341   9.969   0.855 -0.3343 -0.2882 -0.7470
  568MOL0     H76626  10.500   9.914   0.884  0.4217 -2.1490  1.7986
  568MOL0     H76627  10.318   9.915   0.642 -1.4614 -0.1746  3.3811
  568MOL0     H76628  10.442   9.794   0.627 -2.1266 -0.1499  0.3242
  568MOL0     H76629  10.502  10.011   0.522 -1.4227 -1.1063 -1.0267
  568MOL0     H76630  10.479  10.090   0.678  0.6714  0.3762  0.2744
  568MOL0     H76631  10.708   9.781   0.751 -3.5090  1.3549  1.7131
  568MOL0     H76632  10.982   9.741   0.729 -0.4079 -0.3280  0.7159
  568MOL0     H76633  11.073   9.893   0.738  0.3807 -0.3798  0.9717
  568MOL0     H76634  10.955   9.953   0.952  0.6853 -0.4215  0.7224
  568MOL0     H76635  10.856   9.807   0.936  0.9815 -0.2791  2.4718
  568MOL0     H76636  11.053   9.667   0.977 -2.2269  0.4212  0.2751
  568MOL0     H76637  11.021   9.791   1.092 -0.3062  0.7582 -0.7248
  568MOL0     H76638  11.278   9.793   1.062  2.8462  0.1687 -1.7223
  568MOL0     H76639  11.203   9.932   0.975  0.8743  0.0332  1.2290
  568MOL0     H76640  11.399   9.619   0.709  0.8416 -1.7354  4.4926
  568MOL0     H76641  11.633   9.673   0.617  1.8254  1.1675  0.1808
  568MOL0     H76642  12.030   9.929   0.536  0.3814 -0.1174 -0.1625
  568MOL0     H76643  12.218  10.043   0.415  1.4479  2.3361  1.0772
  568MOL0     H76644  12.270  10.405   0.434  1.2767 -0.7111  1.2350
  568MOL0     H76645  12.380  10.260   0.410  1.1221  0.9060 -0.4925
  568MOL0     H76646  12.470  10.463   0.314  0.5543 -1.3553  1.4156
  568MOL0     H76647  12.449  10.337   0.194 -0.9864  1.5951 -2.3733
  568MOL0     H76648  12.227  10.442   0.144  1.7553 -2.6787  1.4919
  568MOL0     H76649  12.254  10.568   0.250 -1.7526 -1.1410  1.7228
  568MOL0     H76650  12.456  10.507   0.028  0.1855 -0.7884  1.3002
  568MOL0     H76651  12.458  10.657   0.129 -1.6244 -1.1533  3.4771
  568MOL0     H76652  12.252  10.730   0.050 -1.2848  0.4633 -1.4822
  568MOL0     H76653  12.244  10.606  -0.075  0.8373 -0.4217 -0.2198
  568MOL0     H76654  12.335  10.789  -0.200 -0.4917 -2.4214  0.9651
  568MOL0     H76655  12.396  10.868  -0.059 -0.1990  2.0172 -2.3799
  568MOL0     H76656  12.530  10.666  -0.230  0.6992  1.7117 -0.6317
  568MOL0     H76657  12.586  10.691  -0.054  3.1971  2.6499  0.3356
  568MOL0     H76658  12.584  10.916  -0.249 -0.6774  0.5093  2.0528
  568MOL0     H76659  12.645  10.913  -0.090 -0.1342  0.3284 -0.1701
  568MOL0     H76660  11.967  10.386   0.371  2.5414  0.9172  2.4542
  568MOL0     H76661  11.783  10.267   0.498  2.5796  1.7247  4.5731
  568MOL0     H76662  11.639  10.037   0.825 -1.3137  1.3448 -0.7030
  568MOL0     H76663  11.405   9.985   0.917 -1.6935 -3.3140  1.6478
  568MOL0     H76664   9.769   9.961   1.150  0.6125  0.0124 -3.7797
  568MOL0     H76665   9.586   9.907   1.296  1.1694 -0.1344  0.1840
  568MOL0     H76666   9.252   9.635   1.450 -0.2400 -0.7532  0.6607
  568MOL0     H76667   9.061   9.548   1.541  5.6112  0.9557 -0.3042
  568MOL0     H76668   8.780   9.427   1.281  1.5810  0.5465  1.4147
  568MOL0     H76669   8.667   9.565   1.281 -0.1828 -0.7037 -1.4067
  568MOL0     H76670   8.639   9.381   1.517  2.8808  2.6165  1.0270
  568MOL0     H76671   8.569   9.322   1.366  0.8421  0.8855 -2.5533
  568MOL0     H76672   8.465   9.575   1.347 -0.1455  0.7602 -0.5867
  568MOL0     H76673   8.511   9.583   1.515 -1.3135 -0.2252  1.5052
  568MOL0     H76674   8.322   9.360   1.408  1.5081 -0.4509  0.1510
  568MOL0     H76675   8.378   9.393   1.574 -1.1107  0.7535  1.9110
  568MOL0     H76676   8.105   9.711   1.583  3.5116  0.1131  2.2940
  568MOL0     H76677   8.832   9.685   1.202 -1.2368 -2.1075  1.7655
  568MOL0     H76678   8.923   9.770   1.028  0.0049 -1.1144  1.0307
  568MOL0     H76679   9.051   9.894   1.068 -0.5268  1.4294 -0.8479
  568MOL0     H76680   9.090   9.736   0.987  0.3827 -0.3234  0.5272
  569MOL0     O76681   6.054   6.957   0.930  0.1835  0.0817 -0.9717
  569MOL0     C76682   5.957   6.982   0.860  0.2192  0.7077 -0.1704
  569MOL0     O76683   5.962   7.028   0.731 -0.4348  0.2297 -0.3080
  569MOL0     C76684   6.087   7.041   0.673  0.2723 -0.2746  0.0040
  569MOL0     C76685   6.182   7.137   0.703 -0.1563 -0.5297 -1.0277
  569MOL0     C76686   6.305   7.141   0.628 -0.3503 -0.0009 -0.1630
  569MOL0     C76687   6.330   7.057   0.522  0.4413 -1.0756  0.1410
  569MOL0     O76688   6.434   7.071   0.443 -1.1200  0.4919  0.2380
  569MOL0     C76689   6.445   6.995   0.322 -0.4578  0.4070  0.3153
  569MOL0     C76690   6.557   7.048   0.232 -0.2252 -0.5526  0.7746
  569MOL0     C76691   6.683   6.974   0.289  0.5887 -0.1378 -0.4465
  569MOL0     C76692   6.801   7.030   0.219 -0.0789  0.9124  0.1104
  569MOL0     C76693   6.915   6.925   0.229  0.4481  0.5187  0.9592
  569MOL0     C76694   6.968   6.889   0.368 -0.0655 -0.0959  0.1687
  569MOL0     C76695   6.982   7.002   0.462 -0.0710 -0.5037 -1.2292
  569MOL0     C76696   7.068   7.116   0.395  0.9155  1.1092  0.6682
  569MOL0     N76697   7.205   7.064   0.380 -1.1141  0.0039 -0.3386
  569MOL0     C76698   7.313   7.083   0.459  1.0113 -0.2263 -0.6676
  569MOL0     C76699   7.415   7.004   0.421 -0.2708  0.7509  0.6514
  569MOL0     C76700   7.553   7.014   0.476 -0.1636  0.3393  0.0450
  569MOL0     C76701   7.671   7.069   0.389  0.0818  0.4180 -0.2789
  569MOL0     C76702   7.706   6.964   0.274 -0.0777  0.2751  0.3352
  569MOL0     C76703   7.861   6.963   0.270  0.1948  0.0359  0.2050
  569MOL0     O76704   7.899   7.091   0.226  0.0283  0.5218 -0.4277
  569MOL0     C76705   8.025   7.129   0.262  0.0248 -0.5138  0.1705
  569MOL0     C76706   8.136   7.044   0.235  0.0391 -0.0403  0.8343
  569MOL0     C76707   8.262   7.080   0.281  0.1125 -0.4514 -0.0247
  569MOL0     C76708   8.283   7.212   0.338 -0.1361  0.1797 -0.1354
  569MOL0     C76709   8.417   7.273   0.370  0.5700  0.0169  0.2945
  569MOL0     O76710   8.528   7.188   0.359  0.4643  0.4654 -0.3650
  569MOL0     C76711   8.649   7.247   0.358  0.0770  0.1418 -0.3242
  569MOL0     C76712   8.713   7.293   0.471 -0.3134  0.1343 -1.2122
  569MOL0     C76713   8.837   7.354   0.457 -0.3016  0.4747  0.0370
  569MOL0     C76714   8.897   7.363   0.325  0.8262 -0.6219 -0.3173
  569MOL0     O76715   9.022   7.412   0.312  0.5236  0.6741 -0.0781
  569MOL0     C76716   9.098   7.468   0.422  0.2007 -0.2883 -0.4948
  569MOL0     C76717   9.232   7.492   0.357 -0.5686 -1.1362  0.4198
  569MOL0     C76718   9.329   7.542   0.468  0.5436 -0.0157 -0.9365
  569MOL0     C76719   9.468   7.547   0.402 -0.0414  0.3803  0.1381
  569MOL0     C76720   9.551   7.642   0.472  1.2445  0.4013  0.0569
  569MOL0     C76721   9.680   7.662   0.404 -0.4636  0.7554  0.1507
  569MOL0     C76722   9.763   7.786   0.466  0.2061  0.0881 -0.4526
  569MOL0     C76723   9.815   7.763   0.606 -0.5610  0.3668  0.3016
  569MOL0    Cl76724   9.970   7.681   0.606  0.2636  0.0073  0.3907
  569MOL0     C76725   8.829   7.313   0.219  0.4006 -0.2368  0.6514
  569MOL0     C76726   8.711   7.249   0.235 -0.5377 -0.5269 -0.3734
  569MOL0     O76727   8.415   7.396   0.384  0.1882  0.0680 -0.1921
  569MOL0     C76728   8.169   7.297   0.362  0.2699  0.0662  0.7560
  569MOL0     C76729   8.045   7.256   0.321 -0.1369  0.1073  0.8660
  569MOL0     N76730   7.368   6.932   0.313  0.6130 -0.1825  0.7093
  569MOL0     N76731   7.246   6.975   0.291 -0.2145 -0.2615 -0.2208
  569MOL0     C76732   6.237   6.957   0.496 -0.8047  0.2247 -0.8206
  569MOL0     C76733   6.114   6.953   0.571  0.0777  0.2589  0.2721
  569MOL0     C76734   5.818   6.961   0.912 -0.2276  0.0414 -0.3839
  569MOL0     C76735   5.724   6.925   0.813  0.6204  0.5109 -0.0563
  569MOL0     C76736   5.593   6.887   0.848  0.9313 -0.8593 -0.3368
  569MOL0     C76737   5.536   6.905   0.979  0.2899  0.5087  0.6400
  569MOL0     O76738   5.397   6.885   0.987 -0.9193 -0.4329 -0.3068
  569MOL0     C76739   5.332   6.886   1.110 -0.5322  0.1199  0.9509
  569MOL0     C76740   5.190   6.848   1.084 -0.4906  0.3293 -0.4299
  569MOL0     C76741   5.089   6.959   1.111  0.4767 -0.9201  0.4226
  569MOL0     C76742   4.954   6.926   1.050 -0.7244 -0.1395  0.3005
  569MOL0     C76743   4.857   7.027   1.067  0.5753  0.0169 -0.3236
  569MOL0     C76744   4.776   7.108   1.083  0.2437  0.2999 -0.0978
  569MOL0     C76745   5.631   6.952   1.074  1.0840  0.6211  1.0730
  569MOL0     C76746   5.770   6.970   1.048 -0.0541  0.1600 -0.1381
  569MOL0     C76747   5.863   7.011   1.159 -0.7030  0.0655  0.3204
  569MOL0     H76748   6.152   7.198   0.787  0.2716 -1.1244 -0.4335
  569MOL0     H76749   6.376   7.222   0.643 -0.6740 -0.1875  2.8734
  569MOL0     H76750   6.460   6.889   0.342 -1.7696 -0.0442 -0.8786
  569MOL0     H76751   6.347   7.006   0.274  0.0724 -2.1741 -1.5326
  569MOL0     H76752   6.565   7.156   0.242  0.0823 -0.1306 -2.7718
  569MOL0     H76753   6.541   7.027   0.126 -0.5790  3.8614 -0.2088
  569MOL0     H76754   6.676   6.865   0.287  0.2829 -0.1453  0.4473
  569MOL0     H76755   6.681   6.990   0.397  0.7005  0.4691 -0.5318
  569MOL0     H76756   6.773   7.054   0.116 -0.8255  0.9840  0.3244
  569MOL0     H76757   6.833   7.127   0.259  0.9250  0.5843  0.1099
  569MOL0     H76758   6.881   6.833   0.180  1.5732  1.5192 -1.9088
  569MOL0     H76759   6.994   6.956   0.160  0.7851 -1.1998  0.5272
  569MOL0     H76760   6.896   6.819   0.411  0.5785 -1.9182 -1.5204
  569MOL0     H76761   7.066   6.840   0.362  0.4246  1.0048 -1.8404
  569MOL0     H76762   7.032   6.971   0.553  0.7666  1.5540 -0.9361
  569MOL0     H76763   6.884   7.045   0.487  0.8188  0.4195  0.8082
  569MOL0     H76764   7.040   7.148   0.294  2.9929  1.3816  0.1230
  569MOL0     H76765   7.069   7.195   0.469 -1.5423 -1.0560  3.2405
  569MOL0     H76766   7.315   7.158   0.538 -3.1667  0.1693 -0.7151
  569MOL0     H76767   7.550   7.091   0.554  1.4579  1.2005 -0.6955
  569MOL0     H76768   7.586   6.917   0.516 -0.1082 -0.2458 -1.3626
  569MOL0     H76769   7.648   7.170   0.354  1.4729  1.4552  1.5826
  569MOL0     H76770   7.765   7.080   0.444 -0.9804 -0.2529  1.7668
  569MOL0     H76771   7.669   6.987   0.174 -4.4959 -2.1528  1.1530
  569MOL0     H76772   7.661   6.867   0.295 -1.4704  0.8336  0.0483
  569MOL0     H76773   7.889   6.890   0.194 -0.2771  0.1935 -0.1224
  569MOL0     H76774   7.908   6.938   0.366  0.3369  0.6052  0.2844
  569MOL0     H76775   8.115   6.954   0.178  0.7726  1.3762 -1.8555
  569MOL0     H76776   8.347   7.015   0.260 -0.5502 -0.6284 -2.4878
  569MOL0     H76777   8.669   7.273   0.568  0.9527 -1.1674 -0.8745
  569MOL0     H76778   8.897   7.367   0.547 -0.6109  1.5479  0.0991
  569MOL0     H76779   9.061   7.559   0.469  1.6901  0.7127 -1.1751
  569MOL0     H76780   9.122   7.393   0.497 -2.7499 -1.9618 -1.0382
  569MOL0     H76781   9.280   7.403   0.314  2.4304  1.2046 -1.5388
  569MOL0     H76782   9.226   7.561   0.272  0.8244 -1.7198 -0.2025
  569MOL0     H76783   9.285   7.640   0.488 -0.4495 -0.3853 -1.2239
  569MOL0     H76784   9.328   7.481   0.559  0.5838  1.1067 -0.1618
  569MOL0     H76785   9.450   7.586   0.301 -3.5702  1.2595  0.9529
  569MOL0     H76786   9.515   7.449   0.394 -1.3670 -0.3239  0.6644
  569MOL0     H76787   9.566   7.604   0.573 -2.3143  0.4893  0.7451
  569MOL0     H76788   9.491   7.732   0.488 -0.7918 -0.7667 -0.7025
  569MOL0     H76789   9.748   7.577   0.412  1.1721  2.1546  2.2644
  569MOL0     H76790   9.670   7.684   0.297  0.6201  0.3239 -0.0466
  569MOL0     H76791   9.703   7.878   0.457  2.7242  1.7877 -0.8537
  569MOL0     H76792   9.853   7.797   0.405 -0.4724 -0.6772 -1.6180
  569MOL0     H76793   9.823   7.858   0.660  0.4306  1.3531 -1.5227
  569MOL0     H76794   9.736   7.707   0.657  0.3905  0.2458  1.6977
  569MOL0     H76795   8.875   7.319   0.121 -0.1634  2.6003  0.4758
  569MOL0     H76796   8.667   7.188   0.157  4.6071 -3.7243 -1.2539
  569MOL0     H76797   8.176   7.392   0.415 -0.0784 -0.7983  2.4341
  569MOL0     H76798   7.950   7.307   0.335  1.0109  2.1676  1.4837
  569MOL0     H76799   6.238   6.877   0.422 -0.5575 -0.7663  0.2272
  569MOL0     H76800   6.048   6.866   0.568  1.0300 -0.5848  2.1304
  569MOL0     H76801   5.748   6.922   0.707 -1.4052  2.9592 -0.6774
  569MOL0     H76802   5.516   6.856   0.778  0.2650  4.6209 -2.5398
  569MOL0     H76803   5.329   6.990   1.144 -0.5870  0.2822  0.4502
  569MOL0     H76804   5.383   6.825   1.185 -1.8630  0.8334  2.5171
  569MOL0     H76805   5.159   6.763   1.146  0.4398  0.6032  0.4249
  569MOL0     H76806   5.184   6.810   0.982 -0.3639  2.9245 -1.4878
  569MOL0     H76807   5.120   7.050   1.059  2.0521  0.3192  3.2989
  569MOL0     H76808   5.084   6.977   1.219  0.0115 -0.6755  0.3644
  569MOL0     H76809   4.967   6.891   0.948 -0.0403 -1.2544  0.7576
  569MOL0     H76810   4.913   6.843   1.108  0.0815  0.2714  1.5168
  569MOL0     H76811   4.697   7.181   1.093 -1.2777 -1.4709  1.4968
  569MOL0     H76812   5.587   6.973   1.171  1.7324  0.2672  1.4506
  569MOL0     H76813   5.871   7.120   1.166  0.5621  0.0016  0.0969
  569MOL0     H76814   5.824   6.978   1.256  0.4452 -0.5608  0.5892
  569MOL0     H76815   5.962   6.966   1.148 -1.1551 -0.4427 -2.3008
  570MOL0     O76816   0.384   1.462   9.210  0.2575  0.4132  0.1005
  570MOL0     C76817   0.362   1.552   9.137 -0.3273 -0.2253 -0.1170
  570MOL0     O76818   0.450   1.598   9.043  0.6786  0.1730  0.2401
  570MOL0     C76819   0.580   1.573   9.055 -0.3755 -0.9192  0.2489
  570MOL0     C76820   0.656   1.546   9.166 -0.2586  0.0544 -0.0884
  570MOL0     C76821   0.789   1.508   9.146  0.6723 -0.3907 -0.2807
  570MOL0     C76822   0.858   1.529   9.017  1.0116 -0.1246 -0.7562
  570MOL0     O76823   0.985   1.488   8.998 -0.4661  0.5412 -0.2431
  570MOL0     C76824   1.077   1.582   9.046 -0.4764 -0.8396 -0.4377
  570MOL0     C76825   1.187   1.597   8.943 -0.4518  0.3841  0.5374
  570MOL0     C76826   1.301   1.676   8.978  0.2233 -0.4048 -0.8467
  570MOL0     C76827   1.394   1.691   8.859  0.7260  0.0430  0.8106
  570MOL0     C76828   1.521   1.763   8.888 -0.4978  0.4812  0.7775
  570MOL0     C76829   1.599   1.797   8.759  0.3294  0.4607 -0.0422
  570MOL0     C76830   1.647   1.671   8.681 -0.1500  0.2975 -0.1795
  570MOL0     C76831   1.732   1.706   8.556 -0.0216  0.6421 -0.4446
  570MOL0     N76832   1.660   1.781   8.457 -0.1996 -0.2875  0.2403
  570MOL0     C76833   1.552   1.749   8.376 -0.0877  0.2854  0.1513
  570MOL0     C76834   1.522   1.862   8.316  0.8239  0.4599 -0.7725
  570MOL0     C76835   1.406   1.882   8.226  0.6217 -0.2041 -0.1279
  570MOL0     C76836   1.443   1.885   8.080 -0.1838  0.1557  0.4812
  570MOL0     C76837   1.477   2.027   8.052 -0.4998 -0.4770 -0.2125
  570MOL0     C76838   1.488   2.051   7.896 -0.1587 -0.6755  0.2156
  570MOL0     O76839   1.571   2.162   7.864 -0.1986  0.1572  0.6027
  570MOL0     C76840   1.710   2.145   7.851  0.2336 -0.4815  0.8791
  570MOL0     C76841   1.785   2.249   7.785 -1.1571 -0.1375 -0.5171
  570MOL0     C76842   1.924   2.254   7.779 -0.8386  0.0590 -0.2722
  570MOL0     C76843   1.999   2.150   7.830 -0.3652 -0.0889  0.7565
  570MOL0     C76844   2.144   2.149   7.837 -0.8220 -0.7276  0.0011
  570MOL0     O76845   2.190   2.064   7.930  0.5739 -0.4548 -0.2074
  570MOL0     C76846   2.318   2.063   7.961 -0.4037  0.1691  0.1201
  570MOL0     C76847   2.382   2.176   8.026  1.6965 -0.6246  0.4882
  570MOL0     C76848   2.513   2.168   8.062 -0.0621  0.2831 -0.3763
  570MOL0     C76849   2.583   2.052   8.043  0.9057  0.4753 -0.2838
  570MOL0     O76850   2.710   2.052   8.094  0.4207  0.0255  0.5108
  570MOL0     C76851   2.785   1.934   8.083 -0.1349  0.2652 -0.4822
  570MOL0     C76852   2.869   1.950   7.954 -0.1456  0.4598 -0.0998
  570MOL0     C76853   2.960   2.079   7.960 -0.3194 -0.1559  0.2886
  570MOL0     C76854   3.060   2.076   7.837 -0.8837 -0.1625 -0.1521
  570MOL0     C76855   3.167   2.188   7.861 -1.0532 -0.1116  0.0642
  570MOL0     C76856   3.239   2.167   7.998 -0.5744 -0.2213  0.9227
  570MOL0     C76857   3.382   2.221   7.989  1.0372 -0.5863  0.0724
  570MOL0     C76858   3.483   2.147   8.078 -0.2897  0.0917  0.4941
  570MOL0    Cl76859   3.455   2.178   8.255 -0.1033  0.4170  0.1267
  570MOL0     C76860   2.524   1.939   7.975  0.7359  0.1624  0.1283
  570MOL0     C76861   2.394   1.942   7.932  0.7937 -0.4018 -0.0358
  570MOL0     O76862   2.210   2.225   7.764 -0.0501  0.4868 -0.5341
  570MOL0     C76863   1.926   2.051   7.897 -0.2650  1.1593 -0.7810
  570MOL0     C76864   1.787   2.043   7.908 -0.1198 -0.5265  0.6263
  570MOL0     N76865   1.611   1.961   8.346  0.0161 -0.3205 -0.7088
  570MOL0     N76866   1.693   1.911   8.435  0.6210  0.2914  0.1678
  570MOL0     C76867   0.777   1.577   8.915 -0.2959 -0.1197  1.5514
  570MOL0     C76868   0.640   1.586   8.926 -0.3445  0.6301  0.5942
  570MOL0     C76869   0.226   1.609   9.144 -0.0896  0.6143 -0.4566
  570MOL0     C76870   0.116   1.531   9.199 -0.4690 -0.1026  1.1246
  570MOL0     C76871  -0.020   1.584   9.209  0.3905 -0.4034  0.5810
  570MOL0     C76872  -0.049   1.715   9.169 -0.5837  0.5948 -0.5406
  570MOL0     O76873  -0.170   1.777   9.160  0.3291  0.2102 -0.7543
  570MOL0     C76874  -0.269   1.737   9.249  0.3316 -0.5971 -1.0090
  570MOL0     C76875  -0.329   1.856   9.326 -0.2294  0.8360  0.6443
  570MOL0     C76876  -0.353   1.983   9.235 -0.5995  0.2673  0.2578
  570MOL0     C76877  -0.377   2.113   9.311  0.2336  0.1627  0.2544
  570MOL0     C76878  -0.515   2.106   9.355 -0.3916 -0.9741 -0.3291
  570MOL0     C76879  -0.633   2.091   9.379 -0.0407 -1.1889  0.3288
  570MOL0     C76880   0.061   1.792   9.124 -0.0460 -0.0272 -0.6963
  570MOL0     C76881   0.196   1.749   9.124  0.4740  0.0366 -0.1332
  570MOL0     C76882   0.305   1.840   9.092  0.3441 -0.3398 -0.4038
  570MOL0     H76883   0.605   1.545   9.261  0.3374 -3.1793  0.3369
  570MOL0     H76884   0.843   1.456   9.224 -0.9182  2.2900  2.8866
  570MOL0     H76885   1.031   1.681   9.061  0.0233 -0.8586  1.5080
  570MOL0     H76886   1.125   1.550   9.139 -0.0505 -0.8901 -0.6730
  570MOL0     H76887   1.143   1.649   8.858  0.7903  0.2776 -0.2058
  570MOL0     H76888   1.209   1.490   8.931 -1.0658 -0.2519  3.9807
  570MOL0     H76889   1.357   1.648   9.068  0.1616 -2.6759 -1.4620
  570MOL0     H76890   1.265   1.779   8.989  0.3385 -0.1380 -2.7130
  570MOL0     H76891   1.407   1.598   8.803 -0.1649  0.4111 -0.0205
  570MOL0     H76892   1.346   1.752   8.782 -0.7373  1.3031  2.6260
  570MOL0     H76893   1.484   1.851   8.941 -4.6536 -0.4260 -0.2245
  570MOL0     H76894   1.580   1.698   8.953 -0.3729 -1.2411 -0.9743
  570MOL0     H76895   1.538   1.862   8.694  0.3888 -0.1967 -0.7733
  570MOL0     H76896   1.692   1.851   8.779  0.7066  0.0019 -0.5314
  570MOL0     H76897   1.561   1.622   8.634 -3.1556  3.5628  1.4353
  570MOL0     H76898   1.707   1.603   8.742  0.7755 -1.5018 -2.9110
  570MOL0     H76899   1.831   1.745   8.579  0.0093 -0.2069  0.9584
  570MOL0     H76900   1.750   1.614   8.499 -0.5799  0.8737 -1.0149
  570MOL0     H76901   1.503   1.652   8.371 -0.8612  0.6660  0.2165
  570MOL0     H76902   1.336   1.802   8.251 -0.8550  1.2333  0.5308
  570MOL0     H76903   1.366   1.976   8.266  0.5760  0.6779 -2.1399
  570MOL0     H76904   1.523   1.814   8.056 -0.3216  0.4084 -0.8075
  570MOL0     H76905   1.358   1.863   8.014 -0.3729 -2.0355  1.3500
  570MOL0     H76906   1.573   2.056   8.096 -0.1128  0.0269 -1.3472
  570MOL0     H76907   1.415   2.099   8.105  0.2819 -1.7764  2.7316
  570MOL0     H76908   1.389   2.062   7.851  0.2064 -1.0739 -0.6988
  570MOL0     H76909   1.538   1.968   7.846  0.3415  0.0961 -0.5939
  570MOL0     H76910   1.736   2.340   7.752 -0.1315  0.5002 -0.3285
  570MOL0     H76911   1.974   2.339   7.733  0.3582  0.2273  1.2585
  570MOL0     H76912   2.322   2.266   8.031  1.3045 -0.8613  0.1144
  570MOL0     H76913   2.552   2.253   8.116  3.3078 -2.8211  2.6373
  570MOL0     H76914   2.856   1.933   8.166 -2.3047 -0.8490  1.4890
  570MOL0     H76915   2.734   1.837   8.079  0.8924 -0.2382 -2.0417
  570MOL0     H76916   2.932   1.862   7.939 -0.3598  0.2638  0.1347
  570MOL0     H76917   2.807   1.945   7.863 -1.0264 -0.7853  0.5322
  570MOL0     H76918   2.901   2.171   7.959  1.8742  1.3276  0.1114
  570MOL0     H76919   3.015   2.084   8.054  0.4097  0.7156 -0.1734
  570MOL0     H76920   3.005   2.106   7.748 -5.0365  0.1088  2.2521
  570MOL0     H76921   3.104   1.977   7.823 -1.0435  0.0406 -2.5502
  570MOL0     H76922   3.115   2.284   7.857 -3.2295 -1.2566 -3.2402
  570MOL0     H76923   3.241   2.179   7.781  0.7232 -1.8464  1.7933
  570MOL0     H76924   3.191   2.227   8.076 -3.2683 -0.3964 -0.5050
  570MOL0     H76925   3.244   2.060   8.018  2.6060 -0.9586 -2.6409
  570MOL0     H76926   3.371   2.328   8.008 -0.9540 -0.5401 -1.0762
  570MOL0     H76927   3.414   2.206   7.885 -1.8954  1.7964 -1.3124
  570MOL0     H76928   3.470   2.041   8.056 -0.4119  0.4625 -1.4239
  570MOL0     H76929   3.583   2.185   8.055 -0.1721  0.1178  1.0398
  570MOL0     H76930   2.578   1.845   7.966 -0.2636 -0.5590  1.3977
  570MOL0     H76931   2.354   1.853   7.885  1.0592  0.4323 -1.9653
  570MOL0     H76932   1.976   1.963   7.936  2.9281  0.6821 -5.2008
  570MOL0     H76933   1.743   1.958   7.959 -0.9890 -2.4668 -3.0128
  570MOL0     H76934   0.806   1.609   8.816 -0.6070 -0.3985  1.3700
  570MOL0     H76935   0.578   1.609   8.840  0.6196  1.4526  0.1024
  570MOL0     H76936   0.134   1.428   9.228  1.7649 -0.1565 -0.2159
  570MOL0     H76937  -0.096   1.517   9.246 -0.3018  0.3056  0.4559
  570MOL0     H76938  -0.237   1.659   9.318  0.6206  0.2471 -0.1728
  570MOL0     H76939  -0.351   1.704   9.183 -0.3306  1.6845 -1.4155
  570MOL0     H76940  -0.252   1.883   9.399 -0.9039  0.7515  1.3975
  570MOL0     H76941  -0.422   1.833   9.379 -1.0197  0.1474 -0.9741
  570MOL0     H76942  -0.442   1.959   9.176 -1.9252 -1.8598  2.8831
  570MOL0     H76943  -0.265   1.996   9.173  0.2031 -2.2007  0.7634
  570MOL0     H76944  -0.305   2.132   9.391  1.7434  3.1231 -1.6251
  570MOL0     H76945  -0.367   2.194   9.239  2.2109 -2.2179 -2.3706
  570MOL0     H76946  -0.737   2.076   9.399 -0.1183 -0.4032  0.5348
  570MOL0     H76947   0.032   1.892   9.093  2.1671  0.3977 -1.5353
  570MOL0     H76948   0.405   1.816   9.130  0.8372  1.3881 -0.5508
  570MOL0     H76949   0.319   1.831   8.984 -0.1044  0.4343 -0.5278
  570MOL0     H76950   0.281   1.945   9.110 -4.5298 -1.2841 -0.2427
  571MOL0     O76951   3.981   1.050   8.543 -0.1036  0.1429  0.4837
  571MOL0     C76952   3.996   1.141   8.453 -0.6631 -0.8695 -0.1062
  571MOL0     O76953   4.123   1.197   8.416  0.7055  0.6240  0.2852
  571MOL0     C76954   4.232   1.154   8.484  0.2018  0.7657  0.2380
  571MOL0     C76955   4.350   1.117   8.417  0.2037  0.6513 -0.4477
  571MOL0     C76956   4.463   1.077   8.489 -0.8108 -0.0620  0.3907
  571MOL0     C76957   4.477   1.083   8.630 -0.0625  0.4693 -0.5521
  571MOL0     O76958   4.596   1.049   8.680 -0.9164  0.2221 -0.4121
  571MOL0     C76959   4.583   1.012   8.820  0.1899 -0.4940  0.8795
  571MOL0     C76960   4.726   0.977   8.851  0.1097 -0.2746  0.5741
  571MOL0     C76961   4.822   1.092   8.834  0.2677  0.3995 -0.9631
  571MOL0     C76962   4.967   1.060   8.894 -0.3186 -0.1260  0.4863
  571MOL0     C76963   5.037   0.945   8.818 -0.3172 -0.1773  0.0959
  571MOL0     C76964   5.185   0.933   8.852 -0.4928  0.2055  0.5197
  571MOL0     C76965   5.221   0.816   8.949  0.5040 -0.5340  0.3977
  571MOL0     C76966   5.376   0.787   8.935 -0.4775  0.7084 -0.9571
  571MOL0     N76967   5.472   0.899   8.966  0.4126  0.0899 -0.3077
  571MOL0     C76968   5.487   1.008   8.887 -0.1841  0.7973 -0.8013
  571MOL0     C76969   5.581   1.077   8.954 -0.3151 -1.1106  0.2995
  571MOL0     C76970   5.642   1.216   8.923  0.2883 -0.5834 -0.0063
  571MOL0     C76971   5.783   1.217   8.851  0.4293  0.3634 -0.4132
  571MOL0     C76972   5.890   1.271   8.944 -0.1092  0.3893  0.2870
  571MOL0     C76973   6.036   1.238   8.892  0.8685 -0.3591  0.7954
  571MOL0     O76974   6.072   1.336   8.793  0.3494  0.7551 -0.6241
  571MOL0     C76975   6.205   1.349   8.784 -0.0138  0.2407 -0.1319
  571MOL0     C76976   6.267   1.460   8.837  0.3017 -0.2554  0.6697
  571MOL0     C76977   6.398   1.478   8.824 -0.6492 -0.1947 -0.1568
  571MOL0     C76978   6.472   1.379   8.756 -0.4754  0.5777  0.4338
  571MOL0     C76979   6.622   1.392   8.746 -0.1960  0.4383 -0.7543
  571MOL0     O76980   6.683   1.300   8.661  0.4318  0.4595 -0.4769
  571MOL0     C76981   6.817   1.320   8.642  0.0280  0.4517  0.7350
  571MOL0     C76982   6.904   1.267   8.732 -0.5590 -0.5295  0.3474
  571MOL0     C76983   7.042   1.283   8.720  0.2746 -0.2521 -0.4439
  571MOL0     C76984   7.091   1.361   8.620  1.1116  1.2057  1.2688
  571MOL0     O76985   7.219   1.396   8.597 -0.2602 -0.6987 -0.1132
  571MOL0     C76986   7.319   1.356   8.692 -0.2815 -0.4175  0.1631
  571MOL0     C76987   7.447   1.414   8.642 -0.0807  0.1809 -0.3954
  571MOL0     C76988   7.564   1.401   8.743 -0.5380 -0.4450 -0.0142
  571MOL0     C76989   7.691   1.461   8.670  0.3846 -0.2117  0.2414
  571MOL0     C76990   7.803   1.482   8.770  0.0918 -0.1217 -0.1526
  571MOL0     C76991   7.941   1.529   8.714 -0.4225  0.7752 -0.5783
  571MOL0     C76992   8.005   1.420   8.631 -0.4270  0.4336  0.1946
  571MOL0     C76993   8.134   1.469   8.576 -0.0098  0.9748 -0.1707
  571MOL0    Cl76994   8.240   1.505   8.720  0.3453  0.1820 -0.2612
  571MOL0     C76995   7.002   1.409   8.525  0.3294  0.3477 -0.1106
  571MOL0     C76996   6.864   1.386   8.533  0.0520 -0.0628  0.3419
  571MOL0     O76997   6.677   1.487   8.793  0.3505  0.0495  0.2827
  571MOL0     C76998   6.407   1.265   8.698  0.3909 -0.1498  0.3365
  571MOL0     C76999   6.273   1.257   8.702  0.3257  0.0797 -0.7608
  571MOL0     N77000   5.636   0.996   9.052 -0.0561 -0.2196 -0.1817
  571MOL0     N77001   5.566   0.889   9.061  0.0619  0.4334 -0.6152
  571MOL0     C77002   4.359   1.131   8.690 -0.2322 -0.7262  0.1579
  571MOL0     C77003   4.242   1.167   8.619  0.9505  0.2553 -0.0118
  571MOL0     C77004   3.881   1.197   8.373 -0.7836 -0.7100  1.0356
  571MOL0     C77005   3.900   1.242   8.245  0.0858 -0.3326  1.1077
  571MOL0     C77006   3.793   1.301   8.180 -0.9177  0.1869  0.0108
  571MOL0     C77007   3.676   1.332   8.238  0.4763 -0.2635  1.3107
  571MOL0     O77008   3.580   1.386   8.160 -0.4135  0.1151 -0.1314
  571MOL0     C77009   3.579   1.527   8.185  0.6425  0.4492 -0.1880
  571MOL0     C77010   3.664   1.621   8.088 -0.0304  1.3393  0.4849
  571MOL0     C77011   3.648   1.586   7.938 -0.1068  0.7213 -0.4300
  571MOL0     C77012   3.709   1.693   7.852  0.2795 -0.4969 -0.2142
  571MOL0     C77013   3.617   1.812   7.832  0.5047  1.0159 -0.6346
  571MOL0     C77014   3.541   1.909   7.810  0.6427 -0.2422 -0.7505
  571MOL0     C77015   3.653   1.285   8.367  0.6187  0.2814 -0.1240
  571MOL0     C77016   3.756   1.220   8.437 -0.8727  0.5508  0.4213
  571MOL0     C77017   3.723   1.169   8.576 -0.6582  0.1180 -0.0546
  571MOL0     H77018   4.348   1.113   8.309 -1.2710  1.2638 -0.4712
  571MOL0     H77019   4.539   1.028   8.429 -0.9103  0.1078  0.1266
  571MOL0     H77020   4.547   1.095   8.881  1.5785  1.9290 -1.4045
  571MOL0     H77021   4.519   0.923   8.827  0.1413 -0.7103 -1.5024
  571MOL0     H77022   4.765   0.905   8.779 -4.1364 -1.1824 -1.1141
  571MOL0     H77023   4.736   0.944   8.955 -2.3110 -2.5010  0.1941
  571MOL0     H77024   4.792   1.173   8.901  1.0770  0.3236 -0.4980
  571MOL0     H77025   4.824   1.117   8.727 -0.0712  1.2300 -0.7889
  571MOL0     H77026   5.023   1.154   8.897  0.4851 -0.6165  1.3311
  571MOL0     H77027   4.949   1.017   8.993 -4.8132 -1.7296 -0.8068
  571MOL0     H77028   4.991   0.850   8.849  1.2750 -1.3149 -0.8772
  571MOL0     H77029   5.011   0.959   8.713 -1.9184  0.4787  0.5492
  571MOL0     H77030   5.246   0.925   8.761 -3.1362  0.5001 -1.4074
  571MOL0     H77031   5.208   1.029   8.897 -2.9842  0.2793  1.7974
  571MOL0     H77032   5.164   0.723   8.935  1.0991 -0.7643 -0.6269
  571MOL0     H77033   5.192   0.854   9.047  0.2257  0.1182  0.0698
  571MOL0     H77034   5.401   0.702   9.000 -0.6804  0.8627 -0.6727
  571MOL0     H77035   5.381   0.749   8.833 -2.9321  0.1176 -0.9133
  571MOL0     H77036   5.439   1.036   8.794 -1.3145 -1.0702 -0.8362
  571MOL0     H77037   5.583   1.261   8.842 -0.6719  1.5938  1.8128
  571MOL0     H77038   5.627   1.283   9.008  0.9189  1.8210 -1.6791
  571MOL0     H77039   5.814   1.120   8.811  1.8372  1.5696 -2.4305
  571MOL0     H77040   5.771   1.269   8.756  2.0817 -0.6834 -1.2422
  571MOL0     H77041   5.881   1.226   9.043 -3.5116 -2.8884 -1.2727
  571MOL0     H77042   5.873   1.378   8.962 -1.8701  0.2685 -0.4339
  571MOL0     H77043   6.045   1.137   8.851  0.1622  1.0433 -3.3117
  571MOL0     H77044   6.102   1.236   8.979  6.2240 -0.8638 -2.8276
  571MOL0     H77045   6.213   1.534   8.896  3.4962  1.1198  2.0874
  571MOL0     H77046   6.441   1.572   8.855  0.6287 -0.9330  0.3950
  571MOL0     H77047   6.852   1.240   8.824 -1.4844  2.1463  0.7138
  571MOL0     H77048   7.112   1.258   8.799 -1.7505  1.5981  2.1458
  571MOL0     H77049   7.296   1.393   8.792 -2.4927 -3.8987  1.1167
  571MOL0     H77050   7.325   1.247   8.688  1.1386 -0.3320 -2.3925
  571MOL0     H77051   7.472   1.365   8.547  1.0186 -0.6608  0.3023
  571MOL0     H77052   7.419   1.517   8.619  0.2862  1.1156  2.8629
  571MOL0     H77053   7.544   1.457   8.835  0.6630  1.1078 -0.6581
  571MOL0     H77054   7.584   1.298   8.775 -0.3674 -0.3898  0.0574
  571MOL0     H77055   7.672   1.559   8.626  1.5092  0.1020  0.4302
  571MOL0     H77056   7.718   1.392   8.589 -0.1983 -1.3740  0.9965
  571MOL0     H77057   7.812   1.386   8.820  0.6203  0.5250  1.0257
  571MOL0     H77058   7.783   1.558   8.846  1.7425 -1.0473  1.2614
  571MOL0     H77059   7.912   1.611   8.647 -0.5824  1.4251  0.2677
  571MOL0     H77060   8.014   1.556   8.791  2.3387 -1.2162 -2.3247
  571MOL0     H77061   7.940   1.371   8.557  0.3060 -2.6775  1.4493
  571MOL0     H77062   8.017   1.334   8.697  0.6229  0.3908 -0.0439
  571MOL0     H77063   8.170   1.385   8.516 -0.7383 -0.2137  0.9918
  571MOL0     H77064   8.114   1.559   8.517 -1.7728 -0.2516 -1.5718
  571MOL0     H77065   7.045   1.471   8.447 -3.1650  1.6567 -1.1766
  571MOL0     H77066   6.793   1.418   8.457  0.3140 -1.0809 -0.3638
  571MOL0     H77067   6.458   1.185   8.645  0.6899 -1.8826  3.0063
  571MOL0     H77068   6.215   1.174   8.665 -0.1130 -0.6410  1.4049
  571MOL0     H77069   4.351   1.151   8.797 -0.7751 -0.4476  0.0714
  571MOL0     H77070   4.152   1.210   8.662 -0.0084 -0.1663 -1.5201
  571MOL0     H77071   3.992   1.223   8.191 -0.1408  2.2069 -0.3252
  571MOL0     H77072   3.803   1.328   8.075 -1.1298 -2.6568 -0.8223
  571MOL0     H77073   3.602   1.557   8.287  0.7094  2.0875 -0.6526
  571MOL0     H77074   3.471   1.540   8.169  0.7560  2.5808  0.5329
  571MOL0     H77075   3.768   1.609   8.118 -0.0506 -1.4668 -0.2475
  571MOL0     H77076   3.637   1.723   8.116 -0.3053  0.9977  1.5236
  571MOL0     H77077   3.543   1.563   7.919  0.1609 -0.5715 -0.4712
  571MOL0     H77078   3.704   1.494   7.916 -0.5413  0.1308  0.8576
  571MOL0     H77079   3.802   1.730   7.897 -0.0967  0.9917 -0.5969
  571MOL0     H77080   3.723   1.658   7.750 -1.1820  0.6997 -0.8733
  571MOL0     H77081   3.486   1.995   7.777 -2.1726 -0.8217  1.9604
  571MOL0     H77082   3.555   1.300   8.411  1.3104  2.2604  0.8761
  571MOL0     H77083   3.728   1.061   8.590 -4.5579 -0.3340 -1.1351
  571MOL0     H77084   3.777   1.219   8.657 -0.9064  0.9185 -0.3704
  571MOL0     H77085   3.615   1.182   8.587 -1.0461 -2.6348  0.1633
  572MOL0     O77086   0.044   1.840   0.830 -0.0556  0.0317 -0.0753
  572MOL0     C77087   0.005   1.737   0.770 -0.0728 -0.3554 -0.6692
  572MOL0     O77088   0.080   1.640   0.705  0.3061  0.2601  0.0113
  572MOL0     C77089   0.212   1.634   0.716 -0.0280  0.0632 -0.0187
  572MOL0     C77090   0.281   1.597   0.599  1.0215 -0.5003  0.0241
  572MOL0     C77091   0.418   1.578   0.604  0.0641 -0.2437 -0.0050
  572MOL0     C77092   0.484   1.586   0.727 -1.0673 -0.5108  0.3830
  572MOL0     O77093   0.617   1.558   0.717 -0.0966 -0.1597 -0.1594
  572MOL0     C77094   0.719   1.563   0.818 -0.3320  0.2454  0.0734
  572MOL0     C77095   0.848   1.541   0.744  0.5865  0.2020  0.0935
  572MOL0     C77096   0.973   1.532   0.831 -0.0446  0.4883 -0.3416
  572MOL0     C77097   1.092   1.479   0.743  0.7411 -0.2565 -0.0712
  572MOL0     C77098   1.223   1.522   0.800 -1.1099 -0.6883  0.6182
  572MOL0     C77099   1.324   1.462   0.701 -0.2272  0.0055  0.1623
  572MOL0     C77100   1.469   1.520   0.722 -0.1218 -1.0359  0.5625
  572MOL0     C77101   1.538   1.548   0.588 -0.2733 -0.9636  0.7111
  572MOL0     N77102   1.685   1.563   0.592  0.2607 -0.2109 -0.0461
  572MOL0     C77103   1.756   1.674   0.544  0.3897  0.3259 -0.3800
  572MOL0     C77104   1.886   1.649   0.568 -0.9596  0.1052 -0.5297
  572MOL0     C77105   2.015   1.729   0.540  0.6578 -0.1777  0.1460
  572MOL0     C77106   2.108   1.765   0.658 -0.3271 -0.2444 -0.6585
  572MOL0     C77107   2.198   1.649   0.702  0.3667 -0.2828  0.6847
  572MOL0     C77108   2.314   1.682   0.803 -0.3797  0.0814 -0.1967
  572MOL0     O77109   2.359   1.814   0.782 -0.0848 -0.0621 -0.5209
  572MOL0     C77110   2.467   1.856   0.859 -0.0948 -0.2364  0.3561
  572MOL0     C77111   2.556   1.923   0.778 -0.4864 -0.1398  0.1051
  572MOL0     C77112   2.663   1.995   0.833  0.7721 -0.0435 -0.1970
  572MOL0     C77113   2.677   1.996   0.972  0.2033 -0.0022 -0.1562
  572MOL0     C77114   2.798   2.060   1.032  0.1645  0.3801  0.0419
  572MOL0     O77115   2.899   2.111   0.948 -0.3982  0.0489 -0.5806
  572MOL0     C77116   2.988   2.181   1.019  0.0158 -1.0102 -0.4007
  572MOL0     C77117   2.960   2.322   1.031  0.0508  0.4754  0.7162
  572MOL0     C77118   3.050   2.403   1.108 -0.4702  1.4403 -0.2655
  572MOL0     C77119   3.162   2.349   1.173  1.0751 -0.3884  0.6287
  572MOL0     O77120   3.235   2.419   1.263 -0.7744 -0.3720 -0.1850
  572MOL0     C77121   3.262   2.555   1.230 -0.1922  0.6982 -0.0062
  572MOL0     C77122   3.380   2.593   1.319  0.2478  0.3885 -0.1947
  572MOL0     C77123   3.517   2.548   1.257  0.4641 -0.5926  0.0055
  572MOL0     C77124   3.554   2.395   1.259 -0.0540  0.0823  0.5132
  572MOL0     C77125   3.711   2.375   1.275 -0.3445  0.6732 -0.2678
  572MOL0     C77126   3.782   2.436   1.156  0.4848  0.3065  1.4771
  572MOL0     C77127   3.922   2.390   1.129  0.1473  0.0501 -0.9083
  572MOL0     C77128   4.023   2.455   1.214  0.1326 -1.0036  0.2713
  572MOL0    Cl77129   4.050   2.368   1.368 -0.1165 -0.7240  0.0516
  572MOL0     C77130   3.194   2.214   1.152 -0.2788 -0.0398 -0.4698
  572MOL0     C77131   3.110   2.134   1.069 -0.5223 -0.6512 -0.0092
  572MOL0     O77132   2.807   2.055   1.152  0.2369 -0.1708 -0.0268
  572MOL0     C77133   2.591   1.924   1.057  0.0835  0.2594  0.6455
  572MOL0     C77134   2.489   1.848   0.995 -0.0711 -0.0799  0.0464
  572MOL0     N77135   1.888   1.528   0.636 -0.7440 -0.2359 -0.1609
  572MOL0     N77136   1.769   1.475   0.652  0.5092  0.4648  0.4407
  572MOL0     C77137   0.422   1.615   0.845 -0.6304 -0.4944 -0.1421
  572MOL0     C77138   0.286   1.646   0.840 -0.2698 -0.0792  1.1917
  572MOL0     C77139  -0.139   1.715   0.767  0.6661  0.7374  0.0173
  572MOL0     C77140  -0.202   1.719   0.637  0.4794 -0.0283 -0.0294
  572MOL0     C77141  -0.334   1.685   0.627  0.8703  0.3879 -0.0235
  572MOL0     C77142  -0.407   1.664   0.744  1.0001 -0.7000  1.2808
  572MOL0     O77143  -0.541   1.648   0.742  0.2850  0.2692  0.4232
  572MOL0     C77144  -0.582   1.538   0.657  0.3970  0.1317 -0.1247
  572MOL0     C77145  -0.669   1.438   0.731 -0.8330  0.3786 -0.7064
  572MOL0     C77146  -0.803   1.475   0.791  0.7110 -0.5561 -0.4511
  572MOL0     C77147  -0.896   1.349   0.791  0.9701  1.0362  0.0250
  572MOL0     C77148  -0.936   1.295   0.664 -0.2801  0.5838 -0.6019
  572MOL0     C77149  -0.975   1.244   0.565 -0.2142 -0.1851  0.1168
  572MOL0     C77150  -0.349   1.680   0.873 -0.3209 -0.6806  0.1489
  572MOL0     C77151  -0.210   1.698   0.876 -0.7351 -0.7751 -0.4363
  572MOL0     C77152  -0.144   1.681   1.018 -0.5631 -0.0012  1.1041
  572MOL0     H77153   0.224   1.587   0.507 -1.3591  2.4781  0.9831
  572MOL0     H77154   0.475   1.549   0.516  1.8457  0.3356  0.9180
  572MOL0     H77155   0.711   1.658   0.871  0.4847  1.3590 -1.7154
  572MOL0     H77156   0.715   1.477   0.886  1.6454 -0.9111 -1.1633
  572MOL0     H77157   0.858   1.623   0.672  0.3442  0.4102  0.2940
  572MOL0     H77158   0.841   1.451   0.683 -0.4812  0.6029 -0.4033
  572MOL0     H77159   0.964   1.463   0.916 -1.2919 -0.1185 -0.9440
  572MOL0     H77160   0.997   1.627   0.878  0.9932 -0.7567  1.8154
  572MOL0     H77161   1.087   1.371   0.728 -1.8759 -0.0902 -0.8728
  572MOL0     H77162   1.074   1.530   0.647 -0.9066  1.4744  1.0753
  572MOL0     H77163   1.243   1.629   0.795  2.4501 -1.1430  2.2815
  572MOL0     H77164   1.232   1.502   0.907 -3.5166 -0.5150  0.9154
  572MOL0     H77165   1.328   1.353   0.693  0.3112  0.0425 -0.1223
  572MOL0     H77166   1.293   1.487   0.599 -1.4012 -1.3570  0.1539
  572MOL0     H77167   1.529   1.445   0.775  1.3508  1.4000  2.5188
  572MOL0     H77168   1.470   1.611   0.782  1.2010 -0.6701  0.0461
  572MOL0     H77169   1.511   1.470   0.515  2.0762 -0.1700 -1.1376
  572MOL0     H77170   1.504   1.643   0.545 -0.7528 -1.2157  0.5223
  572MOL0     H77171   1.723   1.764   0.494 -0.7084  1.7763  2.6514
  572MOL0     H77172   2.074   1.671   0.469  1.2611  0.5288  0.0549
  572MOL0     H77173   1.979   1.822   0.494  0.2568 -0.3429  0.1271
  572MOL0     H77174   2.169   1.849   0.625  1.1868 -0.0102  2.3453
  572MOL0     H77175   2.054   1.805   0.745 -1.1871 -1.1101 -0.7800
  572MOL0     H77176   2.248   1.618   0.610  3.7652  1.9994  1.5414
  572MOL0     H77177   2.139   1.563   0.736  1.6585 -1.6913 -0.4742
  572MOL0     H77178   2.403   1.619   0.802  1.7159  2.7830  1.6351
  572MOL0     H77179   2.272   1.674   0.904  1.3578 -0.5294  0.5080
  572MOL0     H77180   2.547   1.949   0.673 -0.9798  2.3139  0.6912
  572MOL0     H77181   2.726   2.059   0.772 -0.8834 -0.2362 -2.2432
  572MOL0     H77182   2.863   2.354   0.994 -0.3511 -0.3981  1.0016
  572MOL0     H77183   3.023   2.508   1.110  0.1429  1.5963  0.9926
  572MOL0     H77184   3.271   2.562   1.121 -0.1563  1.5301  0.0446
  572MOL0     H77185   3.180   2.618   1.264 -0.6536  0.6317 -0.9619
  572MOL0     H77186   3.377   2.699   1.343 -1.2213 -0.0668  1.9920
  572MOL0     H77187   3.358   2.533   1.408 -1.2151 -1.5742 -1.7714
  572MOL0     H77188   3.502   2.573   1.152 -0.4519  1.3512  0.5533
  572MOL0     H77189   3.602   2.607   1.292  2.8255 -3.0705 -1.1617
  572MOL0     H77190   3.516   2.361   1.163 -0.9106  0.4250  0.7245
  572MOL0     H77191   3.500   2.342   1.338 -0.6663 -1.0986 -0.6584
  572MOL0     H77192   3.731   2.268   1.280 -0.8405  0.5950  0.2397
  572MOL0     H77193   3.740   2.424   1.369 -1.7208 -0.6807  0.9268
  572MOL0     H77194   3.723   2.413   1.067  1.0012 -1.9860  1.6576
  572MOL0     H77195   3.781   2.544   1.168 -1.6969  0.9145 -2.4214
  572MOL0     H77196   3.941   2.421   1.025  1.6252 -0.1814 -0.7228
  572MOL0     H77197   3.928   2.281   1.121 -2.9746 -0.2721 -0.1533
  572MOL0     H77198   4.119   2.472   1.164  0.2571  3.4489  1.5778
  572MOL0     H77199   3.983   2.554   1.237 -1.1748 -1.4398 -0.0428
  572MOL0     H77200   3.287   2.181   1.197  0.4443  0.7235 -1.3512
  572MOL0     H77201   3.134   2.028   1.061 -2.3735 -1.1686  0.7392
  572MOL0     H77202   2.592   1.916   1.166 -1.8599 -1.1308  0.6117
  572MOL0     H77203   2.407   1.810   1.056 -1.7799  0.4779 -1.7914
  572MOL0     H77204   0.467   1.613   0.943 -1.3595 -1.7690  0.1933
  572MOL0     H77205   0.226   1.667   0.929 -2.1003  0.0329 -0.0135
  572MOL0     H77206  -0.139   1.738   0.551  1.3101  0.3905  0.6459
  572MOL0     H77207  -0.386   1.694   0.532  2.1107  1.1329 -0.6560
  572MOL0     H77208  -0.503   1.482   0.605 -0.6304  0.2693 -1.8948
  572MOL0     H77209  -0.648   1.566   0.575 -0.0514 -2.7263 -0.8417
  572MOL0     H77210  -0.598   1.397   0.804  2.0519  2.1126 -2.3550
  572MOL0     H77211  -0.686   1.369   0.647 -1.1478  2.0203 -2.0324
  572MOL0     H77212  -0.840   1.543   0.713 -1.2224 -2.4397 -1.2908
  572MOL0     H77213  -0.783   1.520   0.889 -1.7199 -2.1479  0.8641
  572MOL0     H77214  -0.852   1.270   0.853 -1.5827 -0.2660  0.3314
  572MOL0     H77215  -0.992   1.370   0.840  0.1570 -2.2679  0.1290
  572MOL0     H77216  -1.005   1.199   0.472  1.4266  0.5690 -0.8001
  572MOL0     H77217  -0.411   1.663   0.960 -1.9896 -0.0926 -0.8837
  572MOL0     H77218  -0.196   1.615   1.087 -0.1984 -0.2362  1.1558
  572MOL0     H77219  -0.046   1.635   1.008 -0.2977  0.2193  2.5189
  572MOL0     H77220  -0.128   1.781   1.059  1.6262 -0.3068  1.1079
  573MOL0     O77221   3.287   5.501   5.785  0.7441  0.3912 -0.0037
  573MOL0     C77222   3.239   5.584   5.865 -0.5744 -0.4821 -0.3535
  573MOL0     O77223   3.305   5.655   5.966 -0.5578 -0.2529  0.3961
  573MOL0     C77224   3.422   5.602   5.992 -0.2171  0.5380 -0.5787
  573MOL0     C77225   3.431   5.505   6.097 -0.5683  0.1698 -0.6045
  573MOL0     C77226   3.557   5.446   6.129  0.5047  0.5749 -0.5605
  573MOL0     C77227   3.674   5.479   6.061  0.1519  0.5732 -0.1372
  573MOL0     O77228   3.789   5.417   6.099 -0.8511  0.1850 -0.2222
  573MOL0     C77229   3.890   5.506   6.147 -0.5885  0.4246  0.1103
  573MOL0     C77230   4.023   5.451   6.085 -0.5336  0.3943  0.3963
  573MOL0     C77231   4.137   5.525   6.140 -0.2353  1.0021 -0.4252
  573MOL0     C77232   4.277   5.461   6.139  0.0947 -0.1816 -0.0697
  573MOL0     C77233   4.374   5.545   6.221  0.3249 -0.1338 -0.6601
  573MOL0     C77234   4.508   5.468   6.246 -0.4590 -0.1650 -0.7596
  573MOL0     C77235   4.594   5.465   6.115 -0.2188  0.0064  0.1570
  573MOL0     C77236   4.666   5.593   6.069 -0.0684 -0.0516 -0.5635
  573MOL0     N77237   4.771   5.622   6.169  0.1064 -0.7338  0.4907
  573MOL0     C77238   4.902   5.585   6.160  0.1822 -0.6138 -0.5643
  573MOL0     C77239   4.965   5.638   6.261 -0.0250 -0.9960  0.4498
  573MOL0     C77240   5.105   5.635   6.272 -0.4006 -0.3181 -0.0423
  573MOL0     C77241   5.157   5.633   6.418  0.2315  0.4737  0.6916
  573MOL0     C77242   5.305   5.588   6.440 -0.3487 -0.4418  0.7733
  573MOL0     C77243   5.405   5.708   6.432 -0.3239  0.5062  0.6599
  573MOL0     O77244   5.405   5.762   6.304  0.1191  0.3909 -0.4010
  573MOL0     C77245   5.475   5.881   6.285 -0.6790 -0.3822  0.0098
  573MOL0     C77246   5.448   5.933   6.156  0.3109  0.7805 -0.2831
  573MOL0     C77247   5.502   6.052   6.111  0.4278 -0.1754 -0.1689
  573MOL0     C77248   5.593   6.116   6.193  0.3399 -1.1214  0.4069
  573MOL0     C77249   5.644   6.242   6.150 -0.5837 -0.6288  0.7958
  573MOL0     O77250   5.752   6.284   6.223  0.0501 -0.2432 -0.5699
  573MOL0     C77251   5.830   6.395   6.199  0.1652  0.3548 -0.6131
  573MOL0     C77252   5.821   6.515   6.269 -0.1571 -0.3902  0.6401
  573MOL0     C77253   5.896   6.624   6.229 -0.1220  0.5153 -0.6067
  573MOL0     C77254   5.994   6.618   6.124 -0.2979  0.7699 -0.5353
  573MOL0     O77255   6.063   6.737   6.099  0.0511  0.1620 -0.2088
  573MOL0     C77256   6.162   6.742   5.997 -0.2537 -0.7561  0.7279
  573MOL0     C77257   6.291   6.688   6.063 -0.7202 -0.0155 -0.5684
  573MOL0     C77258   6.415   6.676   5.963 -0.6235 -0.1846  0.4730
  573MOL0     C77259   6.551   6.644   6.041 -0.9919  0.3281  0.3745
  573MOL0     C77260   6.684   6.647   5.953 -0.2562  0.0293  0.3219
  573MOL0     C77261   6.806   6.628   6.048  0.4671 -0.3362  1.2918
  573MOL0     C77262   6.942   6.642   5.965  0.2139  0.4349 -0.4536
  573MOL0     C77263   7.067   6.668   6.051  0.0766 -0.3779 -0.2141
  573MOL0    Cl77264   7.213   6.630   5.968  0.2592  0.0374 -0.0107
  573MOL0     C77265   6.010   6.490   6.050 -0.3837  0.2933 -0.1057
  573MOL0     C77266   5.930   6.383   6.101  0.3898  0.7996 -0.8097
  573MOL0     O77267   5.598   6.302   6.052  0.3273 -0.3187 -0.7397
  573MOL0     C77268   5.629   6.071   6.316 -0.9750  0.3249 -0.5665
  573MOL0     C77269   5.573   5.951   6.366  0.5543 -0.3497 -0.8766
  573MOL0     N77270   4.880   5.710   6.340  0.1819  0.5726  0.3196
  573MOL0     N77271   4.762   5.702   6.282  0.1262 -0.2754  0.2618
  573MOL0     C77272   3.662   5.566   5.952 -0.4536  0.2616 -0.2800
  573MOL0     C77273   3.543   5.629   5.924 -0.6808 -0.2708 -0.2008
  573MOL0     C77274   3.095   5.627   5.843  0.3983 -0.3452  0.0499
  573MOL0     C77275   3.046   5.737   5.922 -0.5852  0.3067  0.6680
  573MOL0     C77276   2.905   5.775   5.925 -0.1668  0.3081 -0.5153
  573MOL0     C77277   2.816   5.717   5.838 -0.1649 -0.2646  0.2207
  573MOL0     O77278   2.684   5.748   5.839  0.6439 -0.3598  0.4773
  573MOL0     C77279   2.629   5.826   5.949  0.0162 -0.2193 -0.1072
  573MOL0     C77280   2.474   5.824   5.926  0.3953 -1.2441  0.6756
  573MOL0     C77281   2.419   5.967   5.910 -0.6305 -0.2029  0.2509
  573MOL0     C77282   2.460   6.030   5.774  0.7275  0.1140  0.0459
  573MOL0     C77283   2.387   6.154   5.755 -0.6360 -0.4346 -0.5557
  573MOL0     C77284   2.350   6.266   5.739  0.1678  0.0134  0.2542
  573MOL0     C77285   2.862   5.620   5.747  0.0700 -0.1109  0.4390
  573MOL0     C77286   3.001   5.577   5.742  0.4226 -0.1283  0.0863
  573MOL0     C77287   3.032   5.457   5.649 -0.0456  0.0281  0.7857
  573MOL0     H77288   3.349   5.482   6.164 -0.0456  0.4996  0.1615
  573MOL0     H77289   3.559   5.374   6.210 -1.0679  1.9166  0.7557
  573MOL0     H77290   3.875   5.612   6.123 -1.4910  1.6691  5.1242
  573MOL0     H77291   3.893   5.497   6.256 -1.3366  0.6266  0.1500
  573MOL0     H77292   4.019   5.463   5.977 -1.3246 -0.7370  0.2833
  573MOL0     H77293   4.028   5.346   6.116  2.5132  0.6305  0.9567
  573MOL0     H77294   4.114   5.548   6.244  3.8421  2.4145  0.3125
  573MOL0     H77295   4.147   5.618   6.083 -0.6555  0.1270 -1.9865
  573MOL0     H77296   4.266   5.362   6.182 -1.7500  0.1676  0.3241
  573MOL0     H77297   4.317   5.449   6.038 -1.6792 -0.1335 -0.8067
  573MOL0     H77298   4.390   5.646   6.182  2.0916 -1.1239 -2.6937
  573MOL0     H77299   4.327   5.560   6.319 -2.3631 -1.6660 -1.6216
  573MOL0     H77300   4.567   5.510   6.328  0.3846 -1.0061 -0.9105
  573MOL0     H77301   4.483   5.365   6.273 -0.9962  0.6861  2.3705
  573MOL0     H77302   4.519   5.442   6.039 -0.4886  1.0917  0.0708
  573MOL0     H77303   4.673   5.390   6.125  1.2305  1.1474 -2.0417
  573MOL0     H77304   4.704   5.588   5.966 -1.8315 -2.8239 -1.1979
  573MOL0     H77305   4.585   5.666   6.074  0.0789  0.0910 -0.2570
  573MOL0     H77306   4.940   5.532   6.073 -1.0285 -0.6433 -1.1106
  573MOL0     H77307   5.156   5.558   6.212  1.4278  1.5321 -1.0332
  573MOL0     H77308   5.142   5.728   6.227  1.8479 -2.1202 -2.1958
  573MOL0     H77309   5.137   5.728   6.468  1.7229  0.5134  1.2759
  573MOL0     H77310   5.096   5.550   6.453  1.0828 -1.5908 -2.3443
  573MOL0     H77311   5.337   5.509   6.371 -0.7056 -0.4255  0.5844
  573MOL0     H77312   5.311   5.541   6.539 -1.5840  0.4646  1.3100
  573MOL0     H77313   5.503   5.669   6.463 -1.2543 -2.3197  0.3879
  573MOL0     H77314   5.362   5.777   6.505 -0.6912  0.6520  0.3105
  573MOL0     H77315   5.368   5.888   6.098  0.9076  0.2147 -0.6861
  573MOL0     H77316   5.462   6.091   6.018 -0.6346  0.2759  0.4499
  573MOL0     H77317   5.748   6.524   6.349  0.0873 -0.9305  0.9256
  573MOL0     H77318   5.882   6.702   6.303 -1.0423 -0.5304  0.3508
  573MOL0     H77319   6.135   6.686   5.907  1.1229 -0.9482  0.4153
  573MOL0     H77320   6.169   6.848   5.971 -2.0096 -0.9341 -0.6436
  573MOL0     H77321   6.326   6.763   6.135 -1.0551  0.3632 -0.7985
  573MOL0     H77322   6.287   6.593   6.117  1.7780 -1.9299 -3.4638
  573MOL0     H77323   6.398   6.598   5.889  2.6856 -0.3406 -0.2604
  573MOL0     H77324   6.428   6.770   5.908  2.9257 -0.6795  0.2427
  573MOL0     H77325   6.548   6.540   6.074  3.0298 -0.8885 -2.3765
  573MOL0     H77326   6.556   6.716   6.122 -0.7327  2.9754 -1.8406
  573MOL0     H77327   6.685   6.748   5.910  2.1746  0.3084  0.8844
  573MOL0     H77328   6.680   6.570   5.875  0.0936  0.2162  0.1163
  573MOL0     H77329   6.807   6.707   6.124  0.2971 -0.4983  1.4602
  573MOL0     H77330   6.807   6.529   6.095 -1.0025 -1.1586 -0.3166
  573MOL0     H77331   6.935   6.732   5.904 -1.4717  1.3718  1.0302
  573MOL0     H77332   6.968   6.557   5.901  3.3333 -1.3286  2.7441
  573MOL0     H77333   7.069   6.774   6.078 -0.3698 -0.2236 -0.7642
  573MOL0     H77334   7.066   6.611   6.145 -4.0711 -0.5749 -0.1887
  573MOL0     H77335   6.087   6.477   5.975 -2.0489  0.2436 -1.8843
  573MOL0     H77336   5.944   6.284   6.058  1.5806  0.8572 -0.5914
  573MOL0     H77337   5.695   6.129   6.379 -2.5090  2.6214 -0.9705
  573MOL0     H77338   5.594   5.913   6.466 -0.3583  1.5362  0.0942
  573MOL0     H77339   3.743   5.596   5.885 -0.6754  1.7513  0.0902
  573MOL0     H77340   3.542   5.701   5.843  2.2312  1.4195  1.1142
  573MOL0     H77341   3.102   5.805   5.986 -1.1203  0.4436  0.9957
  573MOL0     H77342   2.888   5.851   6.001 -1.3494  1.1421 -1.5764
  573MOL0     H77343   2.666   5.929   5.949 -0.1423 -0.1267 -1.9556
  573MOL0     H77344   2.651   5.791   6.050  2.3739 -0.8521 -0.7622
  573MOL0     H77345   2.429   5.772   6.011  1.2246 -2.7151  0.2568
  573MOL0     H77346   2.438   5.766   5.840  0.2669  1.4845 -1.2369
  573MOL0     H77347   2.458   6.036   5.984 -1.5162  2.6529 -1.7854
  573MOL0     H77348   2.310   5.968   5.919 -0.6591 -0.9825  0.1135
  573MOL0     H77349   2.567   6.051   5.767  0.9815 -1.6211 -3.4891
  573MOL0     H77350   2.448   5.955   5.695  4.5786 -1.2302  0.5233
  573MOL0     H77351   2.328   6.371   5.738 -0.3331 -0.0893  0.4945
  573MOL0     H77352   2.779   5.582   5.689  0.8624 -1.2446 -0.0044
  573MOL0     H77353   2.956   5.438   5.572 -0.7547 -0.9588  1.7010
  573MOL0     H77354   3.127   5.463   5.595 -1.2329 -1.4453 -1.6546
  573MOL0     H77355   3.048   5.370   5.712  2.5273 -0.4484 -0.3810
  574MOL0     O77356   0.972   0.133   8.007  0.7749 -0.4086  0.5557
  574MOL0     C77357   0.877   0.049   7.989  0.2308  0.5013  0.1628
  574MOL0     O77358   0.798   0.048   7.880  0.3046 -0.5392 -0.4641
  574MOL0     C77359   0.840   0.080   7.749  0.2639 -0.3078 -0.3783
  574MOL0     C77360   0.976   0.095   7.705 -0.3563 -0.2604  0.7753
  574MOL0     C77361   0.997   0.113   7.569  0.2055  0.1036 -0.3442
  574MOL0     C77362   0.891   0.124   7.474  0.0389 -0.3757 -0.1367
  574MOL0     O77363   0.905   0.148   7.341  0.0245 -0.4119 -0.4233
  574MOL0     C77364   1.034   0.201   7.287 -0.5212 -0.4578  0.3026
  574MOL0     C77365   1.015   0.231   7.135 -0.0149  0.5689 -0.5927
  574MOL0     C77366   1.103   0.347   7.080 -0.5752  0.2746  0.0112
  574MOL0     C77367   1.257   0.318   7.097 -0.7467  0.2376  0.7090
  574MOL0     C77368   1.346   0.418   7.018 -0.3700  0.5211 -0.0309
  574MOL0     C77369   1.492   0.376   7.042  0.0629 -0.0170  0.3251
  574MOL0     C77370   1.554   0.494   7.122  0.0910  0.4989 -0.6794
  574MOL0     C77371   1.697   0.453   7.160 -1.0300  0.6406 -0.5274
  574MOL0     N77372   1.791   0.469   7.044 -0.0582  0.2961 -0.8090
  574MOL0     C77373   1.864   0.584   7.023  0.2320  0.4758 -0.0474
  574MOL0     C77374   1.925   0.566   6.905  0.6742  1.1314 -0.0078
  574MOL0     C77375   2.015   0.658   6.832  0.6532 -0.1797  0.2670
  574MOL0     C77376   2.165   0.624   6.850 -0.3706 -0.2442  0.5362
  574MOL0     C77377   2.204   0.624   6.997 -0.1609  0.4606  0.6879
  574MOL0     C77378   2.345   0.557   7.001 -0.3641  0.0419 -0.9508
  574MOL0     O77379   2.444   0.624   6.920 -0.5107 -0.4956 -0.6441
  574MOL0     C77380   2.568   0.582   6.901  0.1853 -1.3152  0.1740
  574MOL0     C77381   2.647   0.652   6.803 -0.3904  0.1218  0.2083
  574MOL0     C77382   2.780   0.616   6.784  0.1027 -0.1315 -0.6470
  574MOL0     C77383   2.832   0.515   6.858 -0.7000 -0.4339 -0.2521
  574MOL0     C77384   2.977   0.488   6.833 -0.9647 -0.0326  0.3880
  574MOL0     O77385   3.060   0.586   6.771 -0.0795  0.0007 -0.1937
  574MOL0     C77386   3.187   0.552   6.734 -0.2973 -0.1430  0.3463
  574MOL0     C77387   3.206   0.434   6.650 -0.6326  0.5730 -1.4831
  574MOL0     C77388   3.336   0.395   6.624 -1.0188  0.1414 -0.5425
  574MOL0     C77389   3.443   0.487   6.647 -0.0063 -0.7111  0.0259
  574MOL0     O77390   3.572   0.451   6.606  0.8325  0.2084  0.3140
  574MOL0     C77391   3.678   0.554   6.605 -0.5009  0.0319  0.0986
  574MOL0     C77392   3.820   0.487   6.551 -0.1487 -0.0277  0.0183
  574MOL0     C77393   3.896   0.434   6.683  0.0241 -0.5056  0.2651
  574MOL0     C77394   4.051   0.437   6.655 -0.1579  0.3450  0.3832
  574MOL0     C77395   4.116   0.371   6.777 -0.1305 -0.0452 -0.7106
  574MOL0     C77396   4.271   0.392   6.764 -0.5930 -0.6843 -0.0743
  574MOL0     C77397   4.347   0.347   6.884  0.9721  0.4074 -0.8758
  574MOL0     C77398   4.497   0.368   6.864 -0.5846 -1.1017 -0.0767
  574MOL0    Cl77399   4.531   0.548   6.881 -0.0975 -0.4242 -0.2609
  574MOL0     C77400   3.424   0.614   6.711  0.8571 -0.0186  0.0543
  574MOL0     C77401   3.296   0.638   6.746  0.9618 -0.6522 -0.1100
  574MOL0     O77402   3.019   0.380   6.870  0.1811  0.1423 -0.8868
  574MOL0     C77403   2.759   0.435   6.945  0.6807  0.5649 -0.0312
  574MOL0     C77404   2.629   0.476   6.972 -0.9438 -0.7012 -0.2167
  574MOL0     N77405   1.890   0.442   6.850 -0.4228  0.2213  0.7396
  574MOL0     N77406   1.812   0.384   6.937 -0.0200  0.6310  0.2521
  574MOL0     C77407   0.763   0.095   7.517  0.7658  0.1346 -0.4363
  574MOL0     C77408   0.734   0.081   7.656 -0.0181 -0.5797  1.3838
  574MOL0     C77409   0.833  -0.054   8.089  0.1407  0.5129  0.1512
  574MOL0     C77410   0.702  -0.113   8.089  0.3512  0.6306  0.7712
  574MOL0     C77411   0.659  -0.206   8.186 -0.3448 -0.3366 -0.8560
  574MOL0     C77412   0.747  -0.245   8.290 -0.2931 -0.1246  0.3570
  574MOL0     O77413   0.719  -0.341   8.386  0.0155  0.5066  0.6259
  574MOL0     C77414   0.589  -0.405   8.400  0.0050  0.2720 -0.0887
  574MOL0     C77415   0.484  -0.336   8.483 -0.4015 -0.3541  0.3863
  574MOL0     C77416   0.363  -0.433   8.502 -0.3183  0.6073 -0.0357
  574MOL0     C77417   0.288  -0.478   8.377 -0.3347  0.0425  0.1511
  574MOL0     C77418   0.249  -0.354   8.307 -0.5435 -0.1642  0.0837
  574MOL0     C77419   0.231  -0.254   8.241 -0.2340  0.3360  0.5526
  574MOL0     C77420   0.873  -0.184   8.294  0.2137 -0.0881  0.7038
  574MOL0     C77421   0.921  -0.097   8.195 -0.1470  0.9424 -0.2193
  574MOL0     C77422   1.062  -0.049   8.220 -0.5380  0.0146 -0.0549
  574MOL0     H77423   1.061   0.086   7.773  0.9702  3.4537 -0.1331
  574MOL0     H77424   1.101   0.115   7.537  0.2465 -0.4150 -0.2481
  574MOL0     H77425   1.059   0.292   7.342 -1.9880  0.2902 -0.2388
  574MOL0     H77426   1.118   0.132   7.302  2.0128  2.6120  1.2866
  574MOL0     H77427   0.916   0.271   7.114  0.2918  1.0444 -1.1737
  574MOL0     H77428   1.014   0.149   7.063 -2.3467  0.0693 -0.0794
  574MOL0     H77429   1.074   0.449   7.108 -0.5063  1.3924 -3.4610
  574MOL0     H77430   1.090   0.339   6.972 -0.8132 -1.2368  0.1424
  574MOL0     H77431   1.275   0.317   7.205  1.1149  2.5586  0.4868
  574MOL0     H77432   1.278   0.220   7.053  1.7571  0.8043  0.4974
  574MOL0     H77433   1.334   0.414   6.909 -1.7691 -1.5357  0.1398
  574MOL0     H77434   1.326   0.521   7.047  2.5177  1.1614 -0.0795
  574MOL0     H77435   1.500   0.277   7.088  1.2056 -0.2847 -0.3947
  574MOL0     H77436   1.562   0.372   6.958  1.6301  0.4929  1.5791
  574MOL0     H77437   1.497   0.494   7.215 -0.2910  0.4418 -0.9129
  574MOL0     H77438   1.545   0.591   7.070 -1.7292  0.1770 -1.0291
  574MOL0     H77439   1.737   0.516   7.240  0.0204 -3.0453  2.1009
  574MOL0     H77440   1.702   0.349   7.195 -2.8510 -0.0492 -2.1557
  574MOL0     H77441   1.876   0.672   7.085  0.9999 -0.0312  0.5479
  574MOL0     H77442   1.996   0.654   6.724 -2.3683 -2.3294  0.7532
  574MOL0     H77443   2.004   0.757   6.876 -1.9298 -0.5032  0.5311
  574MOL0     H77444   2.182   0.535   6.789 -0.3032  1.8167 -2.6960
  574MOL0     H77445   2.226   0.702   6.803 -2.0369  0.2051 -1.0041
  574MOL0     H77446   2.128   0.575   7.058 -0.9921  0.8666 -0.0060
  574MOL0     H77447   2.210   0.729   7.027  2.3374  0.8071 -0.7057
  574MOL0     H77448   2.336   0.454   6.965 -2.8759 -0.0756 -0.2087
  574MOL0     H77449   2.368   0.567   7.107 -1.6893 -0.3939 -0.5990
  574MOL0     H77450   2.595   0.727   6.746 -0.2996  1.1181  1.4039
  574MOL0     H77451   2.843   0.669   6.714  3.6496 -0.4074  2.0510
  574MOL0     H77452   3.131   0.363   6.616 -0.0907 -1.8515  1.8158
  574MOL0     H77453   3.361   0.304   6.570  2.2499  0.9597 -0.6341
  574MOL0     H77454   3.660   0.639   6.539 -1.5598  0.5180  0.9789
  574MOL0     H77455   3.699   0.597   6.704 -0.2484  0.2126 -0.0336
  574MOL0     H77456   3.810   0.409   6.476 -0.3539 -1.4242  1.4583
  574MOL0     H77457   3.880   0.566   6.505  0.2874 -0.7723 -0.7148
  574MOL0     H77458   3.860   0.495   6.767 -2.9201 -3.6022  1.5018
  574MOL0     H77459   3.873   0.329   6.702  0.1466 -0.0750  3.1468
  574MOL0     H77460   4.082   0.538   6.627 -0.2500 -0.2525 -2.2089
  574MOL0     H77461   4.072   0.375   6.567  1.0669 -0.1940  1.0291
  574MOL0     H77462   4.107   0.262   6.769 -2.2551  0.1254 -1.2640
  574MOL0     H77463   4.070   0.411   6.868 -0.9164 -0.3910 -0.9411
  574MOL0     H77464   4.307   0.343   6.673  0.8073  1.9169 -1.0509
  574MOL0     H77465   4.293   0.495   6.733 -0.5496 -0.9001 -0.7889
  574MOL0     H77466   4.320   0.241   6.894  2.0442  0.1971  0.0011
  574MOL0     H77467   4.318   0.405   6.972 -1.8980  0.5363 -1.8176
  574MOL0     H77468   4.554   0.314   6.940  1.7823 -0.1230 -1.0830
  574MOL0     H77469   4.517   0.327   6.765 -3.8467 -1.1311 -0.8511
  574MOL0     H77470   3.498   0.687   6.743 -0.7931  1.1733  1.2681
  574MOL0     H77471   3.261   0.730   6.791  0.1750  0.1209 -2.2162
  574MOL0     H77472   2.804   0.362   7.011  0.6898  0.8864  0.3231
  574MOL0     H77473   2.568   0.421   7.043 -2.1367  1.1585  0.2601
  574MOL0     H77474   0.685   0.115   7.444  0.4964  3.3381  0.5776
  574MOL0     H77475   0.628   0.082   7.681 -0.9792  0.3389 -2.1114
  574MOL0     H77476   0.635  -0.082   8.010 -0.0206  0.3651  0.9801
  574MOL0     H77477   0.558  -0.248   8.181 -1.5577  1.9372  1.8216
  574MOL0     H77478   0.594  -0.502   8.451 -0.7772  0.7808  1.0081
  574MOL0     H77479   0.556  -0.437   8.301 -1.4460  0.4155  0.3209
  574MOL0     H77480   0.463  -0.241   8.434  0.6824  2.1272  4.2512
  574MOL0     H77481   0.526  -0.311   8.581 -0.7657  0.4218  0.3485
  574MOL0     H77482   0.298  -0.378   8.571 -2.7107 -0.3489 -1.4058
  574MOL0     H77483   0.389  -0.521   8.561 -1.4044 -1.4687 -2.4671
  574MOL0     H77484   0.354  -0.536   8.312  1.8131  0.2777  1.9977
  574MOL0     H77485   0.201  -0.538   8.403  0.4891 -1.9446 -1.4383
  574MOL0     H77486   0.232  -0.167   8.179  1.4174  0.3077  0.4995
  574MOL0     H77487   0.947  -0.226   8.361  0.2111  0.6114  1.1516
  574MOL0     H77488   1.124  -0.036   8.131 -1.4343  0.3325 -0.6505
  574MOL0     H77489   1.051   0.053   8.259 -0.8196  1.3978 -3.3908
  574MOL0     H77490   1.116  -0.124   8.278  0.6476  0.7426 -0.1895
  575MOL0     O77491  10.898   0.987  10.221 -0.4546 -0.1496  0.3715
  575MOL0     C77492  10.877   1.023  10.335  0.4003  0.1988 -0.6957
  575MOL0     O77493  10.965   1.101  10.410  0.8875  0.4526  0.3918
  575MOL0     C77494  11.092   1.111  10.370 -0.9923 -0.5150 -0.2222
  575MOL0     C77495  11.176   1.013  10.408 -0.8679  0.3220 -0.2233
  575MOL0     C77496  11.315   1.036  10.376  0.3360 -0.7703  0.0465
  575MOL0     C77497  11.354   1.149  10.294  0.7429  0.7192 -0.6689
  575MOL0     O77498  11.482   1.167  10.234  0.5388 -0.6294 -0.1331
  575MOL0     C77499  11.571   1.050  10.247 -0.4792 -0.2068 -0.7028
  575MOL0     C77500  11.702   1.101  10.187 -0.6463  0.4671  0.6063
  575MOL0     C77501  11.771   1.208  10.271 -0.3812  0.3419 -0.7480
  575MOL0     C77502  11.739   1.347  10.214 -0.2272 -0.1929  0.2891
  575MOL0     C77503  11.729   1.446  10.322  0.5060  0.7109 -0.3417
  575MOL0     C77504  11.858   1.481  10.394 -0.3027  0.0013  0.2373
  575MOL0     C77505  11.979   1.501  10.301 -0.3077  0.4074  0.2685
  575MOL0     C77506  12.098   1.534  10.390 -0.1573 -0.8744 -0.1216
  575MOL0     N77507  12.220   1.583  10.316  0.7268 -0.6636  0.3624
  575MOL0     C77508  12.281   1.503  10.222 -0.2353  0.4982 -0.0783
  575MOL0     C77509  12.361   1.586  10.152  0.2144 -1.0881 -0.2510
  575MOL0     C77510  12.426   1.541  10.030  0.4417  0.0319  0.1828
  575MOL0     C77511  12.565   1.600  10.012  0.1087 -0.2057  0.2453
  575MOL0     C77512  12.616   1.590   9.869 -0.3975  0.9001  0.1278
  575MOL0     C77513  12.755   1.655   9.857 -0.2432 -0.8664 -0.1745
  575MOL0     O77514  12.854   1.591   9.939  0.0751  0.3512  0.5434
  575MOL0     C77515  12.969   1.660   9.975  1.2166  0.5468  0.0170
  575MOL0     C77516  13.032   1.740   9.885  0.5098  0.3780 -0.0426
  575MOL0     C77517  13.165   1.777   9.928  0.2249  0.2055  1.1172
  575MOL0     C77518  13.222   1.743  10.045 -0.6554 -0.4479  0.6590
  575MOL0     C77519  13.364   1.777  10.074 -0.4197 -0.4082  0.0526
  575MOL0     O77520  13.417   1.713  10.182  0.3551  0.3317  0.2307
  575MOL0     C77521  13.536   1.765  10.227  0.9273  0.2884 -0.0958
  575MOL0     C77522  13.651   1.777  10.139 -1.0698 -1.1087 -0.0371
  575MOL0     C77523  13.776   1.811  10.190  0.0959  0.4469  0.4347
  575MOL0     C77524  13.793   1.843  10.325  0.3160 -0.3951  0.1654
  575MOL0     O77525  13.911   1.890  10.374 -0.3740 -0.4973  1.1823
  575MOL0     C77526  13.906   2.021  10.433 -0.0767  0.4674 -0.3761
  575MOL0     C77527  14.031   2.100  10.394  0.0370  0.8305 -0.6546
  575MOL0     C77528  14.055   2.109  10.241 -0.8293 -0.1773 -0.0829
  575MOL0     C77529  14.205   2.138  10.212  0.0968  1.0292 -1.0356
  575MOL0     C77530  14.238   2.160  10.067  0.5102 -0.7665 -0.5129
  575MOL0     C77531  14.335   2.279  10.060  0.5240  0.4001 -0.0735
  575MOL0     C77532  14.392   2.299   9.919 -0.6972  0.2700 -0.1147
  575MOL0     C77533  14.506   2.405   9.920  0.0156 -0.4218  0.0055
  575MOL0    Cl77534  14.661   2.361   9.994  0.2764 -0.4513 -0.6689
  575MOL0     C77535  13.679   1.838  10.407 -0.1554  0.6750 -0.1210
  575MOL0     C77536  13.553   1.792  10.365 -0.7559  0.3234  0.3439
  575MOL0     O77537  13.414   1.877  10.019  0.0294 -0.5615  0.3437
  575MOL0     C77538  13.153   1.666  10.130 -0.5833  0.8577 -0.1102
  575MOL0     C77539  13.027   1.623  10.090 -0.1639 -0.5902  0.4107
  575MOL0     N77540  12.350   1.719  10.193  0.1573 -0.2327 -0.7001
  575MOL0     N77541  12.270   1.713  10.298 -0.0002  0.3516  0.3180
  575MOL0     C77542  11.260   1.245  10.255 -0.2435  0.1875 -1.0886
  575MOL0     C77543  11.127   1.227  10.304  0.6240  0.1939  1.0193
  575MOL0     C77544  10.734   0.999  10.386 -0.5370 -0.7506  0.1564
  575MOL0     C77545  10.647   1.116  10.411 -0.2496  0.0776  0.5213
  575MOL0     C77546  10.519   1.095  10.465  0.0868  1.3583 -0.4018
  575MOL0     C77547  10.481   0.964  10.501 -0.3114  0.4128  0.2161
  575MOL0     O77548  10.366   0.965  10.572  0.1175 -0.8680 -0.3128
  575MOL0     C77549  10.252   0.892  10.520  0.5526 -0.3260 -0.2653
  575MOL0     C77550  10.127   0.937  10.604  0.5360  0.7677 -0.3000
  575MOL0     C77551   9.995   0.871  10.564  0.8363  0.1501 -0.0240
  575MOL0     C77552   9.870   0.897  10.658 -0.9094  0.5240 -0.1579
  575MOL0     C77553   9.747   0.811  10.639  0.2428 -0.2188  0.3377
  575MOL0     C77554   9.649   0.739  10.636 -0.0625  0.5076 -0.7263
  575MOL0     C77555  10.559   0.847  10.466 -0.0806 -0.3087  0.0461
  575MOL0     C77556  10.687   0.868  10.410  0.4953  0.6458  0.7922
  575MOL0     C77557  10.775   0.751  10.393 -0.2988 -0.4614 -0.0955
  575MOL0     H77558  11.143   0.921  10.454 -2.9919  0.7744 -0.7753
  575MOL0     H77559  11.397   0.971  10.404 -0.7700 -2.6131 -0.8377
  575MOL0     H77560  11.579   1.005  10.346 -2.8208  0.1572 -0.2968
  575MOL0     H77561  11.528   0.968  10.188  0.2501 -0.8389 -0.3763
  575MOL0     H77562  11.684   1.134  10.084  1.2514 -4.8170 -1.7576
  575MOL0     H77563  11.771   1.018  10.174 -1.3923 -0.0480 -0.2081
  575MOL0     H77564  11.880   1.194  10.274 -0.4464 -0.0117  0.2753
  575MOL0     H77565  11.735   1.185  10.372  0.0534 -2.1381 -1.0976
  575MOL0     H77566  11.816   1.367  10.139 -1.1099  3.2016  0.1340
  575MOL0     H77567  11.645   1.344  10.159  0.9997 -1.7430 -1.8627
  575MOL0     H77568  11.695   1.537  10.272 -2.4563 -0.5995 -0.9742
  575MOL0     H77569  11.658   1.410  10.398  2.9768  1.4237  2.5015
  575MOL0     H77570  11.848   1.572  10.453 -0.9851  0.0917 -0.0073
  575MOL0     H77571  11.888   1.406  10.468  0.2292  0.5876  0.6287
  575MOL0     H77572  11.948   1.585  10.238 -0.6260  0.2657  0.2298
  575MOL0     H77573  11.996   1.412  10.240 -1.6516  0.1796  0.1823
  575MOL0     H77574  12.057   1.617  10.449 -0.4053  0.1340 -1.6461
  575MOL0     H77575  12.116   1.442  10.447 -4.0184 -2.3254 -0.9290
  575MOL0     H77576  12.272   1.396  10.206 -1.5813  0.8221 -1.7246
  575MOL0     H77577  12.427   1.433  10.013  1.6959  0.2063 -1.0513
  575MOL0     H77578  12.369   1.584   9.946 -1.8421  2.1554  2.6323
  575MOL0     H77579  12.560   1.704  10.045 -0.1421 -0.7322  1.9672
  575MOL0     H77580  12.634   1.546  10.078 -0.8403 -1.5502  0.1954
  575MOL0     H77581  12.543   1.633   9.798 -2.7718 -0.7860  1.4215
  575MOL0     H77582  12.638   1.487   9.843 -0.5752  0.6903  0.7964
  575MOL0     H77583  12.749   1.764   9.868 -2.1049 -0.9209 -0.4255
  575MOL0     H77584  12.790   1.640   9.755 -2.0592 -1.1037 -0.7983
  575MOL0     H77585  12.988   1.764   9.788 -1.4527  0.0972  0.7390
  575MOL0     H77586  13.222   1.840   9.860 -0.1893 -3.3602 -2.9549
  575MOL0     H77587  13.649   1.748  10.034 -1.4862  1.3379 -0.7834
  575MOL0     H77588  13.859   1.803  10.121  0.0218 -0.6709  0.4622
  575MOL0     H77589  13.821   2.078  10.393  0.2717 -0.1166 -2.0632
  575MOL0     H77590  13.905   2.012  10.542  1.2051 -1.6003 -0.4784
  575MOL0     H77591  14.028   2.200  10.437 -0.2018  0.8588 -0.7387
  575MOL0     H77592  14.118   2.047  10.435 -1.2541 -1.2373 -0.4508
  575MOL0     H77593  14.025   2.016  10.192  0.0767  0.7275 -2.5137
  575MOL0     H77594  13.997   2.189  10.194 -0.4486 -0.8412 -1.7672
  575MOL0     H77595  14.266   2.054  10.246  0.5115  1.6296 -0.2706
  575MOL0     H77596  14.230   2.229  10.268  2.0911  1.6266 -2.7657
  575MOL0     H77597  14.147   2.181  10.010 -1.5541  0.5580  2.9864
  575MOL0     H77598  14.285   2.069  10.030  0.7744 -0.3685 -1.1928
  575MOL0     H77599  14.277   2.368  10.086  0.2611  0.5757 -1.2106
  575MOL0     H77600  14.406   2.272  10.143 -0.5454  0.8060  0.8958
  575MOL0     H77601  14.328   2.350   9.847 -0.7451  3.6401  2.0891
  575MOL0     H77602  14.440   2.205   9.889 -0.3778  0.6921 -0.9282
  575MOL0     H77603  14.520   2.426   9.813  2.2239 -0.0752  0.3201
  575MOL0     H77604  14.479   2.502   9.962  0.8758  0.5267 -1.5087
  575MOL0     H77605  13.688   1.865  10.512 -1.8616  1.1111 -0.0481
  575MOL0     H77606  13.474   1.775  10.438  1.8407  0.3210  3.3783
  575MOL0     H77607  13.200   1.619  10.216 -0.5724  1.6593  0.3302
  575MOL0     H77608  12.982   1.546  10.152 -3.5346  2.9387  2.8671
  575MOL0     H77609  11.291   1.330  10.195  1.4948 -0.7299 -1.5578
  575MOL0     H77610  11.045   1.294  10.285 -1.6122 -1.6467  3.3695
  575MOL0     H77611  10.687   1.211  10.376 -2.1059 -0.5254 -3.9477
  575MOL0     H77612  10.458   1.182  10.485 -2.5369 -0.6332  0.9420
  575MOL0     H77613  10.273   0.784  10.526  1.2657 -0.1401  1.2406
  575MOL0     H77614  10.227   0.926  10.419 -3.7727 -1.3076  0.2570
  575MOL0     H77615  10.121   1.043  10.574  0.3664  0.8595  0.0521
  575MOL0     H77616  10.140   0.930  10.712 -1.8488  0.2088 -0.0043
  575MOL0     H77617   9.999   0.763  10.550  1.7527  0.1697  0.0153
  575MOL0     H77618   9.965   0.918  10.470  2.5032  3.0607  0.7720
  575MOL0     H77619   9.898   0.883  10.763 -2.7608 -0.5717  0.2310
  575MOL0     H77620   9.842   1.002  10.645  0.2095  0.6469 -1.8257
  575MOL0     H77621   9.555   0.691  10.615  1.6279 -1.9591 -3.5035
  575MOL0     H77622  10.527   0.748  10.497 -0.9777  1.0008  3.9234
  575MOL0     H77623  10.750   0.654  10.436  3.5628 -1.2329  0.8581
  575MOL0     H77624  10.791   0.733  10.286 -2.0387  0.1908 -0.4945
  575MOL0     H77625  10.871   0.784  10.436 -0.6958  1.0557 -0.2990
  576MOL0     O77626   9.617   2.083   9.566 -0.4371 -0.8419  0.7762
  576MOL0     C77627   9.568   2.004   9.648 -0.2465 -1.2642  0.2705
  576MOL0     O77628   9.637   1.954   9.753  0.1435 -0.1551  0.6974
  576MOL0     C77629   9.742   2.026   9.798 -0.0039  0.0066 -0.6644
  576MOL0     C77630   9.717   2.154   9.851 -0.2712  1.4281  0.0961
  576MOL0     C77631   9.823   2.203   9.936  0.5587  0.2646  0.7019
  576MOL0     C77632   9.944   2.142   9.953 -0.7274 -0.8224  0.3004
  576MOL0     O77633  10.038   2.217  10.022 -0.0563 -0.3018 -0.2344
  576MOL0     C77634  10.173   2.192  10.003  0.5560 -0.7845 -0.5807
  576MOL0     C77635  10.234   2.303  10.082 -1.1386  0.5917 -0.6822
  576MOL0     C77636  10.390   2.300  10.097 -0.6898  0.1786  0.0146
  576MOL0     C77637  10.430   2.205  10.217 -0.0466  1.0037  0.0788
  576MOL0     C77638  10.574   2.216  10.252 -0.3941 -0.1859  0.2272
  576MOL0     C77639  10.601   2.118  10.374 -0.3089 -0.2191 -0.7774
  576MOL0     C77640  10.747   2.132  10.420 -0.2814 -0.3320 -0.5262
  576MOL0     C77641  10.778   2.065  10.558 -0.2338 -0.2576  0.0998
  576MOL0     N77642  10.920   2.071  10.612  0.2106 -0.5115 -0.3112
  576MOL0     C77643  10.971   2.194  10.658 -0.2734 -1.0095  0.6984
  576MOL0     C77644  11.103   2.163  10.685  0.1927 -0.5957  0.4681
  576MOL0     C77645  11.195   2.260  10.755  0.0229  0.3273  0.1686
  576MOL0     C77646  11.298   2.338  10.665 -0.4066 -0.0187  0.6388
  576MOL0     C77647  11.375   2.236  10.570 -0.7486 -0.0450 -0.6864
  576MOL0     C77648  11.458   2.117  10.648 -1.0320 -0.2858  0.3366
  576MOL0     O77649  11.568   2.176  10.733  0.0691  0.3174 -0.2881
  576MOL0     C77650  11.686   2.229  10.684 -0.5614  0.1173 -0.5480
  576MOL0     C77651  11.728   2.212  10.557 -0.7262  0.0293  0.6158
  576MOL0     C77652  11.837   2.282  10.511  0.3919  0.4411 -0.1239
  576MOL0     C77653  11.914   2.369  10.593  0.7894  0.3406  0.4593
  576MOL0     C77654  12.036   2.436  10.542  0.0080 -0.1940 -0.3005
  576MOL0     O77655  12.088   2.373  10.427 -0.0855 -0.1354  0.2252
  576MOL0     C77656  12.202   2.421  10.368 -1.0586 -0.0347 -0.7876
  576MOL0     C77657  12.216   2.542  10.305 -1.0116 -1.0937 -0.5545
  576MOL0     C77658  12.338   2.570  10.234  0.1368  0.2137 -0.2356
  576MOL0     C77659  12.446   2.488  10.231  0.6181  0.3451 -1.5659
  576MOL0     O77660  12.552   2.525  10.168 -0.8435  0.3402 -0.5083
  576MOL0     C77661  12.652   2.426  10.131 -0.5081  0.4896 -0.8020
  576MOL0     C77662  12.733   2.497  10.024  0.1531  0.4080 -0.4360
  576MOL0     C77663  12.881   2.481  10.048 -1.0369 -0.0897 -0.3275
  576MOL0     C77664  12.964   2.550   9.948  0.4261  0.0224 -0.6410
  576MOL0     C77665  13.112   2.526   9.948  0.7032 -0.6337 -0.2229
  576MOL0     C77666  13.181   2.612   9.841  0.7540 -0.7966 -0.1073
  576MOL0     C77667  13.338   2.587   9.832  0.3015  0.1138  0.0751
  576MOL0     C77668  13.390   2.570   9.698 -0.1978 -0.5848 -0.1365
  576MOL0    Cl77669  13.370   2.720   9.614 -0.3484  0.1245 -0.2397
  576MOL0     C77670  12.432   2.362  10.298  0.2141 -0.3245  0.3094
  576MOL0     C77671  12.311   2.327  10.359  0.3504  0.1371 -0.1598
  576MOL0     O77672  12.080   2.537  10.595 -0.2048 -1.1609  0.1372
  576MOL0     C77673  11.885   2.356  10.732  0.1655  0.7697  0.6235
  576MOL0     C77674  11.765   2.298  10.773  0.4536  0.0973  0.3816
  576MOL0     N77675  11.137   2.036  10.651  0.6953 -0.4121 -0.2991
  576MOL0     N77676  11.024   1.985  10.606 -0.5064 -0.1120 -0.0609
  576MOL0     C77677   9.969   2.022   9.892  0.0858 -0.5732  0.2905
  576MOL0     C77678   9.868   1.965   9.808  0.0551  0.1288  0.5247
  576MOL0     C77679   9.433   1.947   9.622 -0.6098  1.1869 -0.1321
  576MOL0     C77680   9.389   1.836   9.697 -0.1400 -0.5551  0.9683
  576MOL0     C77681   9.261   1.774   9.693 -0.0408 -0.0073 -0.7375
  576MOL0     C77682   9.166   1.829   9.614 -0.2910 -0.0462  0.4279
  576MOL0     O77683   9.039   1.779   9.605 -0.3505  0.3283 -0.2125
  576MOL0     C77684   8.975   1.710   9.713 -0.6114  0.4332 -0.6478
  576MOL0     C77685   8.826   1.742   9.717  0.1042  0.0894  0.5983
  576MOL0     C77686   8.798   1.894   9.716  0.4587 -0.0296 -0.2198
  576MOL0     C77687   8.841   1.969   9.841  0.3109 -0.1273 -0.2542
  576MOL0     C77688   8.753   1.925   9.953 -0.1768 -0.5354 -0.0902
  576MOL0     C77689   8.687   1.891  10.043  0.3903  0.0320  0.5502
  576MOL0     C77690   9.202   1.933   9.526 -0.7749 -0.8260  0.7498
  576MOL0     C77691   9.334   1.989   9.526  0.1346  0.4918  0.0538
  576MOL0     C77692   9.364   2.090   9.424 -0.5787 -0.1439  0.6079
  576MOL0     H77693   9.626   2.209   9.830  0.3116  1.2403 -3.6955
  576MOL0     H77694   9.809   2.293   9.995 -0.2500  0.5519  0.1003
  576MOL0     H77695  10.204   2.094  10.038 -0.3933 -0.4101  1.4537
  576MOL0     H77696  10.199   2.209   9.898 -0.3382  0.2989 -0.6571
  576MOL0     H77697  10.194   2.311  10.184  0.1816 -1.3057  0.0597
  576MOL0     H77698  10.214   2.397  10.030  0.4042  0.7692 -1.0194
  576MOL0     H77699  10.433   2.398  10.121  0.6509 -0.6033  0.8930
  576MOL0     H77700  10.442   2.281  10.003 -1.8944  1.2256 -0.8984
  576MOL0     H77701  10.365   2.226  10.303 -0.9119  1.1421 -0.5961
  576MOL0     H77702  10.424   2.101  10.186  0.8196  1.3686 -1.4091
  576MOL0     H77703  10.634   2.179  10.168  3.4911  0.1272  2.6386
  576MOL0     H77704  10.597   2.321  10.273 -1.9767  0.0791  0.7457
  576MOL0     H77705  10.542   2.145  10.462  0.8104  1.3896 -0.4708
  576MOL0     H77706  10.581   2.014  10.347  3.4138 -1.9703  2.2630
  576MOL0     H77707  10.761   2.239  10.435  3.6851 -0.8037  0.2543
  576MOL0     H77708  10.818   2.103  10.342 -0.5531 -0.0320 -0.8889
  576MOL0     H77709  10.707   2.095  10.636  1.0383 -0.3690  1.3545
  576MOL0     H77710  10.752   1.958  10.553  1.0807 -0.6072  0.3474
  576MOL0     H77711  10.922   2.289  10.674  1.3975 -0.0322  0.3413
  576MOL0     H77712  11.136   2.337  10.806  0.9484 -0.7222  3.0178
  576MOL0     H77713  11.246   2.213  10.839  1.8732  3.2299  0.8280
  576MOL0     H77714  11.243   2.414  10.608 -2.4896 -1.1320  1.0906
  576MOL0     H77715  11.362   2.382  10.742  0.1093 -0.7487  0.6298
  576MOL0     H77716  11.450   2.291  10.513  0.6651 -2.6609 -1.5517
  576MOL0     H77717  11.310   2.191  10.494 -0.8588 -2.1877  0.5780
  576MOL0     H77718  11.484   2.040  10.576  0.7809 -0.0408  0.6814
  576MOL0     H77719  11.386   2.065  10.712 -0.0574 -0.2149  1.5346
  576MOL0     H77720  11.675   2.154  10.483 -1.6437 -1.4674  2.3638
  576MOL0     H77721  11.861   2.273  10.405 -1.8803  0.1678 -0.6662
  576MOL0     H77722  12.145   2.620  10.327  1.3413  1.1191 -0.3281
  576MOL0     H77723  12.333   2.670  10.191 -1.2169 -0.9243 -2.9870
  576MOL0     H77724  12.717   2.383  10.208 -0.4535 -0.5345 -1.3900
  576MOL0     H77725  12.604   2.342  10.080 -2.1876 -0.5387  2.2017
  576MOL0     H77726  12.702   2.462   9.925  0.7221 -1.4235 -0.0079
  576MOL0     H77727  12.701   2.601  10.012  1.9331  0.7500 -2.9904
  576MOL0     H77728  12.904   2.520  10.148 -1.5932  1.1880 -0.6803
  576MOL0     H77729  12.904   2.374  10.051 -1.7890 -0.2796  3.2258
  576MOL0     H77730  12.958   2.656   9.974  2.3619 -0.4937  2.4629
  576MOL0     H77731  12.924   2.547   9.847 -3.5746 -1.8606  0.8062
  576MOL0     H77732  13.133   2.421   9.925 -1.3565 -1.0686 -0.2915
  576MOL0     H77733  13.141   2.545  10.052  1.3494 -1.1555 -0.2963
  576MOL0     H77734  13.142   2.582   9.743  2.3155 -0.4221 -0.8732
  576MOL0     H77735  13.152   2.717   9.851 -2.1468 -1.5678  0.5026
  576MOL0     H77736  13.349   2.493   9.886  1.3169  0.6161  0.7879
  576MOL0     H77737  13.392   2.669   9.881  0.4952  0.2742 -0.3987
  576MOL0     H77738  13.495   2.539   9.697  0.4167  1.2612  0.8949
  576MOL0     H77739  13.341   2.489   9.644  0.9485 -2.1489  1.0646
  576MOL0     H77740  12.511   2.288  10.298 -0.9994 -1.7374 -1.6202
  576MOL0     H77741  12.298   2.226  10.397  1.1693 -0.6090 -1.7750
  576MOL0     H77742  11.955   2.403  10.799  3.7165 -1.5684 -1.1289
  576MOL0     H77743  11.733   2.308  10.876 -2.8913 -0.8218 -0.4267
  576MOL0     H77744  10.062   1.967   9.905  0.0087 -0.4993  1.2658
  576MOL0     H77745   9.873   1.864   9.768 -3.6635 -0.3034  0.7610
  576MOL0     H77746   9.462   1.789   9.761  0.4435 -3.0413 -1.3433
  576MOL0     H77747   9.240   1.693   9.762 -0.5719 -2.3724 -3.5173
  576MOL0     H77748   9.004   1.732   9.816  1.0052 -4.0652  0.0666
  576MOL0     H77749   9.007   1.606   9.706 -0.3919  0.5806 -2.0840
  576MOL0     H77750   8.778   1.702   9.806  0.0512  0.5097  0.7600
  576MOL0     H77751   8.783   1.695   9.628  1.2460 -1.4230  0.7989
  576MOL0     H77752   8.691   1.909   9.703  1.0085  1.8130 -3.5983
  576MOL0     H77753   8.851   1.935   9.630 -1.4439 -0.0088 -1.4270
  576MOL0     H77754   8.946   1.957   9.868  0.2286  0.5246  0.3925
  576MOL0     H77755   8.827   2.075   9.818 -0.2419  0.4298  2.3593
  576MOL0     H77756   8.624   1.851  10.120  0.4586 -1.2217 -0.0239
  576MOL0     H77757   9.137   1.994   9.463  1.7515 -0.8110 -2.0965
  576MOL0     H77758   9.403   2.182   9.467 -2.3165  0.7206  0.4304
  576MOL0     H77759   9.433   2.053   9.347 -0.2457  0.8395  0.4259
  576MOL0     H77760   9.275   2.116   9.366 -0.3336  1.5311  0.9415
  577MOL0     O77761   9.101  10.133  10.471  0.0059 -0.2057  0.0951
  577MOL0     C77762   9.060  10.214  10.389  0.3359  0.3357 -0.1424
  577MOL0     O77763   9.116  10.244  10.269  0.1272  0.0819 -0.7335
  577MOL0     C77764   9.248  10.232  10.243  0.5506  0.0489 -0.7677
  577MOL0     C77765   9.276  10.288  10.120 -0.1354 -0.5813  1.0887
  577MOL0     C77766   9.413  10.271  10.070  0.2793 -0.4792  0.0873
  577MOL0     C77767   9.516  10.220  10.152  0.1617  0.1241 -0.3148
  577MOL0     O77768   9.647  10.220  10.113 -0.4407  0.2283  0.2080
  577MOL0     C77769   9.708  10.348  10.132 -0.3238  0.4545 -0.0472
  577MOL0     C77770   9.704  10.436  10.010 -0.0219  0.5444  0.4589
  577MOL0     C77771   9.744  10.352   9.889 -0.6512  0.0786 -0.5724
  577MOL0     C77772   9.718  10.453   9.773 -0.6625 -0.1984 -0.4970
  577MOL0     C77773   9.750  10.391   9.640 -0.4657  0.0480  1.3338
  577MOL0     C77774   9.902  10.379   9.618  0.0285 -0.1731  0.1437
  577MOL0     C77775   9.918  10.320   9.477  0.4909 -0.5102 -0.0216
  577MOL0     C77776  10.056  10.341   9.408  0.3990 -0.3993  0.4187
  577MOL0     N77777  10.154  10.268   9.483  0.0721 -0.3733 -0.3139
  577MOL0     C77778  10.151  10.136   9.529  0.0950 -0.6719 -0.3132
  577MOL0     C77779  10.275  10.123   9.583 -0.1400  0.6130  0.2071
  577MOL0     C77780  10.337   9.996   9.628  0.6329  0.0140  1.2536
  577MOL0     C77781  10.482   9.981   9.572 -0.1730 -0.1143 -0.5998
  577MOL0     C77782  10.532   9.863   9.658  0.5513 -0.5783  0.2992
  577MOL0     C77783  10.682   9.831   9.654 -0.2820 -0.5330  0.3220
  577MOL0     O77784  10.765   9.923   9.738  0.5680  0.3315  0.2711
  577MOL0     C77785  10.904   9.897   9.735  0.4176  0.9609  0.3818
  577MOL0     C77786  10.956   9.780   9.688  0.0039  0.2947  0.0318
  577MOL0     C77787  11.086   9.748   9.703 -0.5257  0.2967  0.7401
  577MOL0     C77788  11.178   9.843   9.766  0.3059  0.2524 -0.0551
  577MOL0     C77789  11.323   9.828   9.751 -0.6994 -0.4483  0.7408
  577MOL0     O77790  11.399   9.945   9.768  0.1426  0.5255  0.0632
  577MOL0     C77791  11.526   9.953   9.725  0.9160  0.5348 -0.9814
  577MOL0     C77792  11.624   9.935   9.828 -0.1318 -0.0846  0.2544
  577MOL0     C77793  11.759   9.957   9.785  0.7250  1.3677 -0.9066
  577MOL0     C77794  11.794   9.986   9.650 -0.5863 -0.4272 -0.6631
  577MOL0     O77795  11.927   9.989   9.614 -1.0389 -0.8944 -0.7541
  577MOL0     C77796  11.966  10.084   9.519  0.9533  0.5513  0.3585
  577MOL0     C77797  12.117  10.129   9.531  0.4698  0.2317  0.0772
  577MOL0     C77798  12.222  10.024   9.516 -0.1518 -0.2147 -0.1387
  577MOL0     C77799  12.355  10.085   9.482  0.5334 -0.4857  0.4657
  577MOL0     C77800  12.465   9.977   9.482  0.3767  0.9020  0.0383
  577MOL0     C77801  12.603  10.039   9.461 -0.6834  0.4848 -0.5633
  577MOL0     C77802  12.708   9.931   9.457 -0.3978  0.0242  0.3592
  577MOL0     C77803  12.856   9.991   9.478 -0.5377  0.6125 -0.4267
  577MOL0    Cl77804  12.900  10.098   9.338  0.1034 -0.4259 -0.3776
  577MOL0     C77805  11.690   9.999   9.565  0.2361 -0.2611  0.5770
  577MOL0     C77806  11.555   9.990   9.599  0.4448 -0.7908 -0.0424
  577MOL0     O77807  11.374   9.721   9.722  0.3613  0.0688  0.1377
  577MOL0     C77808  11.115   9.956   9.824 -0.7212 -0.4693  0.3762
  577MOL0     C77809  10.980   9.989   9.814 -0.2501  0.6871  0.4377
  577MOL0     N77810  10.349  10.236   9.559 -1.1339 -0.4870 -0.6413
  577MOL0     N77811  10.275  10.318   9.503 -0.0885  0.4962 -0.4578
  577MOL0     C77812   9.482  10.195  10.279 -0.1172  0.8545  0.3827
  577MOL0     C77813   9.353  10.196  10.327 -0.2546  0.2891 -0.5996
  577MOL0     C77814   8.919  10.251  10.395  0.1107  0.0610  1.2352
  577MOL0     C77815   8.837  10.263  10.280 -0.0393 -0.1851 -0.1049
  577MOL0     C77816   8.704  10.299  10.291  1.0174  0.2080  0.6255
  577MOL0     C77817   8.637  10.315  10.406 -0.3912  0.0058 -1.2555
  577MOL0     O77818   8.507  10.370  10.395  0.0394 -0.2422  0.5884
  577MOL0     C77819   8.475  10.493  10.468 -1.4441 -0.3225  0.9089
  577MOL0     C77820   8.337  10.517  10.417  0.0754 -0.7897  0.6560
  577MOL0     C77821   8.287  10.657  10.468  0.2905  0.3666 -0.2864
  577MOL0     C77822   8.136  10.668  10.434 -0.1460 -0.2890 -0.7061
  577MOL0     C77823   8.073  10.797  10.486 -0.1653  0.1845  0.1917
  577MOL0     C77824   8.039  10.908  10.517  0.5363  0.1622  0.8253
  577MOL0     C77825   8.712  10.312  10.525 -0.3820 -0.9841 -0.2957
  577MOL0     C77826   8.851  10.279  10.518  0.1972  0.6445  0.1428
  577MOL0     C77827   8.922  10.274  10.653 -0.1399  0.7095 -0.7470
  577MOL0     H77828   9.195  10.337  10.066  1.1069 -1.6637 -1.9645
  577MOL0     H77829   9.438  10.309   9.972 -0.4733  2.6992  1.0020
  577MOL0     H77830   9.659  10.405  10.212 -2.1423  3.1587 -2.8137
  577MOL0     H77831   9.812  10.327  10.156  0.1292  2.3965 -0.0890
  577MOL0     H77832   9.788  10.503  10.032 -1.5171  1.9965  2.0666
  577MOL0     H77833   9.612  10.494   9.994  0.5962  0.7628 -3.2833
  577MOL0     H77834   9.689  10.257   9.884  0.1238 -0.5259  1.4585
  577MOL0     H77835   9.850  10.326   9.897 -0.7087 -0.3530 -1.1128
  577MOL0     H77836   9.616  10.493   9.775 -0.1897  1.4099  3.9764
  577MOL0     H77837   9.780  10.541   9.791 -3.4034  1.4848  1.6817
  577MOL0     H77838   9.704  10.292   9.628  1.0997 -0.5741  0.1449
  577MOL0     H77839   9.697  10.454   9.568  0.3430 -1.7571 -0.9637
  577MOL0     H77840   9.949  10.478   9.618  1.8581 -0.9913 -0.0055
  577MOL0     H77841   9.946  10.311   9.693 -3.0812 -2.4237  0.0922
  577MOL0     H77842   9.839  10.363   9.414 -0.0251 -0.1309  0.8683
  577MOL0     H77843   9.885  10.218   9.498 -2.2852  0.9755  4.0637
  577MOL0     H77844  10.061  10.304   9.305  2.4386 -0.5236  0.5300
  577MOL0     H77845  10.062  10.451   9.405 -0.2426 -0.3121 -3.7392
  577MOL0     H77846  10.073  10.061   9.522  1.5901 -2.3637  0.1352
  577MOL0     H77847  10.338  10.001   9.738 -0.2683  2.2722  1.2320
  577MOL0     H77848  10.282   9.910   9.591  1.7574 -0.5820  0.9484
  577MOL0     H77849  10.482   9.945   9.468 -0.4132 -3.6498  0.5120
  577MOL0     H77850  10.542  10.073   9.575 -0.4585  0.0482  2.0472
  577MOL0     H77851  10.482   9.772   9.623 -2.2565  1.3591 -1.1570
  577MOL0     H77852  10.510   9.881   9.764  0.3435  1.2102 -0.0195
  577MOL0     H77853  10.705   9.831   9.547 -3.2361 -0.2076 -0.3863
  577MOL0     H77854  10.696   9.730   9.693 -0.8616 -0.1408  1.5845
  577MOL0     H77855  10.918   9.701   9.624  3.1507 -0.9661 -0.4422
  577MOL0     H77856  11.132   9.666   9.649  0.9647  1.3476  0.3249
  577MOL0     H77857  11.572   9.910   9.920  0.1286  0.9144  0.6865
  577MOL0     H77858  11.841   9.954   9.856 -0.7216  0.0382  0.7892
  577MOL0     H77859  11.959  10.031   9.423  3.6125  1.1313 -0.2477
  577MOL0     H77860  11.903  10.173   9.519  0.3438  0.1710 -1.5078
  577MOL0     H77861  12.131  10.201   9.449 -0.7291  0.0473 -0.3203
  577MOL0     H77862  12.129  10.184   9.624  2.4319  1.3320 -0.7755
  577MOL0     H77863  12.234   9.973   9.612 -0.6022 -0.1558 -0.0505
  577MOL0     H77864  12.183   9.946   9.449 -2.1755  1.0700 -0.5191
  577MOL0     H77865  12.385  10.165   9.550  2.2691  0.0529 -0.8489
  577MOL0     H77866  12.353  10.134   9.384  0.4992 -0.3009  0.5574
  577MOL0     H77867  12.437   9.899   9.410  0.4217 -0.3045  1.2789
  577MOL0     H77868  12.465   9.921   9.576 -2.8721  0.3333 -0.1720
  577MOL0     H77869  12.594  10.090   9.365 -0.9433 -0.3540 -0.9882
  577MOL0     H77870  12.638  10.109   9.538  4.0300  0.3756 -2.3063
  577MOL0     H77871  12.693   9.882   9.361 -0.0752 -0.3700  0.5073
  577MOL0     H77872  12.686   9.851   9.529 -1.7004 -1.4855 -1.6336
  577MOL0     H77873  12.868  10.037   9.577 -1.2099 -0.7464  0.3196
  577MOL0     H77874  12.924   9.906   9.487 -1.9564 -0.7892 -2.2822
  577MOL0     H77875  11.712  10.020   9.461  4.6353  2.1635  1.7591
  577MOL0     H77876  11.485   9.999   9.517 -1.7131  1.2594  1.9027
  577MOL0     H77877  11.177  10.026   9.879 -0.3604 -0.5790  0.1143
  577MOL0     H77878  10.936  10.076   9.863 -1.7281 -0.6470  1.5645
  577MOL0     H77879   9.569  10.172  10.340  2.9973  1.3248 -3.4717
  577MOL0     H77880   9.337  10.171  10.431  1.2136  0.9748 -0.1758
  577MOL0     H77881   8.873  10.248  10.179  2.6670 -0.3230  0.8010
  577MOL0     H77882   8.657  10.301  10.193  1.6183  1.9588  0.3423
  577MOL0     H77883   8.544  10.573  10.440 -1.1302 -1.0937 -0.6638
  577MOL0     H77884   8.491  10.480  10.575  4.7522 -1.4560  0.2450
  577MOL0     H77885   8.257  10.444  10.436 -0.5838 -0.7976 -1.7635
  577MOL0     H77886   8.337  10.525  10.308 -3.6719  1.9205  0.6730
  577MOL0     H77887   8.345  10.735  10.418  1.5050  1.0939  2.1467
  577MOL0     H77888   8.297  10.656  10.576  0.5426 -1.1076 -0.2961
  577MOL0     H77889   8.122  10.660  10.326 -1.4995 -0.9080 -0.5114
  577MOL0     H77890   8.079  10.585  10.477  1.1745  0.4767  2.8049
  577MOL0     H77891   8.034  11.010  10.548  0.5448  1.0894 -1.9160
  577MOL0     H77892   8.664  10.338  10.619  2.8584  2.8794  0.5469
  577MOL0     H77893   9.023  10.317  10.649  0.3311 -0.3028 -0.2378
  577MOL0     H77894   8.864  10.323  10.731 -0.1700 -1.0236  0.3977
  577MOL0     H77895   8.937  10.167  10.674  0.9079  0.7555 -1.1921
  578MOL0     O77896   0.827   8.266   9.180 -0.2672  0.0647  0.0168
  578MOL0     C77897   0.840   8.309   9.291  0.8032 -0.2620  0.4196
  578MOL0     O77898   0.955   8.331   9.346 -0.6946  0.1926  0.4056
  578MOL0     C77899   1.078   8.292   9.297  0.5012 -1.3709 -1.2002
  578MOL0     C77900   1.175   8.291   9.399 -0.9205 -0.3971 -0.5055
  578MOL0     C77901   1.310   8.263   9.372 -0.7390  0.3790  0.0257
  578MOL0     C77902   1.349   8.223   9.240 -0.0544 -0.4216 -0.3898
  578MOL0     O77903   1.480   8.194   9.203 -0.2168  0.0055 -0.0979
  578MOL0     C77904   1.595   8.170   9.295 -0.4305 -0.0426 -0.6112
  578MOL0     C77905   1.583   8.036   9.375  0.2957 -0.7289  0.5303
  578MOL0     C77906   1.703   7.982   9.446 -0.6465 -0.0382 -0.7178
  578MOL0     C77907   1.731   7.846   9.393  0.1976  0.5328  0.1746
  578MOL0     C77908   1.841   7.760   9.460  0.4477  0.6351  0.1626
  578MOL0     C77909   1.851   7.615   9.402 -0.6236  0.1429  0.4034
  578MOL0     C77910   1.739   7.524   9.440  0.5007 -0.5256  0.3478
  578MOL0     C77911   1.752   7.477   9.589 -0.3031  0.1294 -0.6322
  578MOL0     N77912   1.877   7.390   9.605  0.8275  0.2102  0.8055
  578MOL0     C77913   2.003   7.434   9.618  0.4408  1.0798  1.3418
  578MOL0     C77914   2.078   7.321   9.608  0.2240 -0.7234  0.2631
  578MOL0     C77915   2.223   7.324   9.591  0.1734  0.2570  0.4952
  578MOL0     C77916   2.313   7.357   9.719 -0.4163 -0.1818 -0.2633
  578MOL0     C77917   2.292   7.506   9.779  0.6650  0.5719 -0.7011
  578MOL0     C77918   2.428   7.557   9.828  0.2214 -0.4336  0.5214
  578MOL0     O77919   2.437   7.696   9.786  0.3420 -0.5307 -0.0884
  578MOL0     C77920   2.566   7.755   9.794  0.9543 -0.5789 -0.3224
  578MOL0     C77921   2.582   7.875   9.730  0.2024 -1.0541 -0.5940
  578MOL0     C77922   2.702   7.950   9.722  0.3141  0.3051  0.3260
  578MOL0     C77923   2.818   7.898   9.783  0.2461  0.3745  0.6245
  578MOL0     C77924   2.943   7.978   9.769  0.1595  0.5222 -0.7401
  578MOL0     O77925   3.052   7.917   9.819 -0.2861  0.1053 -0.0645
  578MOL0     C77926   3.173   7.963   9.852  0.2071 -0.2048 -0.0096
  578MOL0     C77927   3.265   7.874   9.912 -0.0016  0.6004 -0.0592
  578MOL0     C77928   3.396   7.915   9.949  0.4645  0.2721 -0.1263
  578MOL0     C77929   3.448   8.045   9.929  0.3464 -1.1467  0.2542
  578MOL0     O77930   3.586   8.071   9.945  0.2078 -0.4922 -0.4356
  578MOL0     C77931   3.679   7.968   9.958  0.2080  0.7126 -0.1011
  578MOL0     C77932   3.819   8.015   9.953 -0.5191  0.3681  0.1865
  578MOL0     C77933   3.845   8.063   9.806 -0.3594 -0.6019  0.0768
  578MOL0     C77934   3.994   8.096   9.788  0.5405  0.3288  1.2629
  578MOL0     C77935   4.051   8.210   9.873 -0.1867 -0.3324 -0.0287
  578MOL0     C77936   4.203   8.230   9.852  0.1455 -0.1926  0.1777
  578MOL0     C77937   4.259   8.361   9.913  0.7062  0.2287  0.3706
  578MOL0     C77938   4.385   8.424   9.856  0.8117  0.5218 -0.4866
  578MOL0    Cl77939   4.543   8.354   9.888 -0.4636  0.1338 -0.1767
  578MOL0     C77940   3.359   8.138   9.873 -0.9949  0.1986 -0.5552
  578MOL0     C77941   3.225   8.098   9.835 -0.9680  0.2042  0.1215
  578MOL0     O77942   2.927   8.094   9.737  0.3854  0.1562  0.4250
  578MOL0     C77943   2.801   7.774   9.852 -0.4780  0.2666  0.5657
  578MOL0     C77944   2.674   7.705   9.864  0.0834 -0.2242 -0.2116
  578MOL0     N77945   1.999   7.205   9.610  0.4116 -0.6389  0.5761
  578MOL0     N77946   1.874   7.252   9.621  0.9197 -0.8543 -0.6258
  578MOL0     C77947   1.247   8.225   9.144 -0.5626 -0.3204 -0.3503
  578MOL0     C77948   1.120   8.268   9.173  0.1780  0.5242 -0.2011
  578MOL0     C77949   0.730   8.344   9.384 -0.0588  0.3224 -0.3841
  578MOL0     C77950   0.753   8.408   9.504 -0.3889  0.1589  0.3495
  578MOL0     C77951   0.654   8.420   9.599  1.3754  0.0192 -0.0547
  578MOL0     C77952   0.520   8.372   9.574  1.1218 -0.5871 -0.3162
  578MOL0     O77953   0.427   8.386   9.675  0.6744 -0.7195 -0.0816
  578MOL0     C77954   0.299   8.335   9.633  1.0359  0.4751 -0.4205
  578MOL0     C77955   0.208   8.347   9.757 -0.7597  0.8289  0.3010
  578MOL0     C77956   0.064   8.307   9.717  0.2428 -0.1846  0.8873
  578MOL0     C77957  -0.020   8.310   9.840  0.2390 -0.4556  0.4163
  578MOL0     C77958  -0.163   8.306   9.821  0.5315 -0.3724  0.2899
  578MOL0     C77959  -0.287   8.303   9.797  0.0579  0.0306  0.3375
  578MOL0     C77960   0.494   8.319   9.446  0.2524 -0.3148  0.9710
  578MOL0     C77961   0.600   8.296   9.357 -0.6993 -0.0746 -0.8080
  578MOL0     C77962   0.557   8.212   9.242  0.5370  1.0287  0.5495
  578MOL0     H77963   1.129   8.303   9.497  0.3940 -1.6284  0.2999
  578MOL0     H77964   1.383   8.262   9.453  0.2936 -0.6439 -0.8781
  578MOL0     H77965   1.688   8.167   9.238  0.6037  1.6505  0.8864
  578MOL0     H77966   1.607   8.256   9.361 -0.2947 -1.7568  1.7808
  578MOL0     H77967   1.531   7.958   9.317 -1.4087  0.9901 -0.3657
  578MOL0     H77968   1.515   8.059   9.457 -0.3494 -4.8157  1.3853
  578MOL0     H77969   1.691   7.991   9.555  0.2590  0.1327 -0.6286
  578MOL0     H77970   1.796   8.037   9.433 -0.9933  1.0567  1.0418
  578MOL0     H77971   1.644   7.781   9.402  0.2598  0.4768  0.3836
  578MOL0     H77972   1.764   7.860   9.289  0.8864  0.3222  0.3597
  578MOL0     H77973   1.929   7.819   9.432  1.2508  0.4144  2.0383
  578MOL0     H77974   1.845   7.765   9.569  2.7620  1.6293  0.0938
  578MOL0     H77975   1.873   7.621   9.295  3.8078 -2.1391  0.9354
  578MOL0     H77976   1.951   7.586   9.438 -0.8207 -0.9275  0.1275
  578MOL0     H77977   1.739   7.433   9.380  2.5991 -0.6200  0.3964
  578MOL0     H77978   1.643   7.572   9.419  1.4933  0.3252 -2.8521
  578MOL0     H77979   1.757   7.569   9.648  1.4611  0.0321 -0.5844
  578MOL0     H77980   1.664   7.421   9.623 -1.0980  1.1995 -0.8707
  578MOL0     H77981   2.039   7.536   9.621  0.4444  1.4821 -3.5201
  578MOL0     H77982   2.259   7.231   9.547  1.0359  1.7983 -2.2570
  578MOL0     H77983   2.242   7.411   9.528 -0.6392  0.5924  0.6950
  578MOL0     H77984   2.286   7.279   9.792 -2.7111  1.9634  1.3534
  578MOL0     H77985   2.420   7.341   9.703  0.3907  1.6310  2.5503
  578MOL0     H77986   2.213   7.506   9.854 -0.1389  1.7353 -1.5011
  578MOL0     H77987   2.251   7.575   9.704 -0.9743  0.2218 -0.1575
  578MOL0     H77988   2.511   7.494   9.794  0.1169 -1.4324  2.0271
  578MOL0     H77989   2.429   7.538   9.936 -0.7983 -1.6416  0.3341
  578MOL0     H77990   2.497   7.904   9.670 -1.9178 -1.0785  2.1594
  578MOL0     H77991   2.712   8.043   9.666  0.8550 -0.3776 -0.7389
  578MOL0     H77992   3.229   7.772   9.922  0.0783  0.3009 -2.2811
  578MOL0     H77993   3.451   7.839  10.005 -1.7645 -0.3785  1.3186
  578MOL0     H77994   3.667   7.919  10.055 -2.2549  2.3063  0.4868
  578MOL0     H77995   3.657   7.900   9.874  2.0723 -0.6715  0.4495
  578MOL0     H77996   3.836   8.093  10.027  1.8369 -0.1620  0.2993
  578MOL0     H77997   3.887   7.930   9.969  0.8379  1.2501 -0.6719
  578MOL0     H77998   3.809   7.988   9.735 -0.5987 -0.8182  0.4215
  578MOL0     H77999   3.787   8.154   9.795  3.0953  2.0973  1.9909
  578MOL0     H78000   4.011   8.121   9.683  2.2093 -1.0278  1.1679
  578MOL0     H78001   4.047   8.003   9.809  2.2316  1.0533  0.4295
  578MOL0     H78002   4.040   8.183   9.978  1.2385  0.7057  0.4159
  578MOL0     H78003   4.000   8.305   9.860  1.0547  0.4268  0.4550
  578MOL0     H78004   4.256   8.143   9.890  1.6233 -0.5925 -2.5190
  578MOL0     H78005   4.215   8.237   9.743  2.5822 -0.3905  0.3708
  578MOL0     H78006   4.278   8.341  10.019  2.9744 -1.1310 -0.2192
  578MOL0     H78007   4.187   8.441   9.893  2.3980  1.2678 -2.0587
  578MOL0     H78008   4.382   8.431   9.747  2.6059 -3.4385 -0.9339
  578MOL0     H78009   4.397   8.523   9.901 -0.9618  0.6755 -0.2771
  578MOL0     H78010   3.402   8.234   9.847  2.5570 -1.4339 -1.4131
  578MOL0     H78011   3.176   8.187   9.798  0.8415  1.2580  0.1675
  578MOL0     H78012   2.888   7.736   9.906  0.6775  1.2434 -0.5642
  578MOL0     H78013   2.653   7.610   9.912 -3.2610  0.3042 -0.4297
  578MOL0     H78014   1.287   8.198   9.047 -0.6627 -0.2163 -0.4201
  578MOL0     H78015   1.055   8.288   9.089 -2.5975 -0.2828  1.6181
  578MOL0     H78016   0.856   8.435   9.522 -0.3861  0.8887 -0.6320
  578MOL0     H78017   0.663   8.455   9.702 -0.8482 -0.0216  0.2136
  578MOL0     H78018   0.300   8.234   9.589 -0.1702  0.3675 -0.2286
  578MOL0     H78019   0.270   8.414   9.564  1.1691  2.1058  1.3130
  578MOL0     H78020   0.215   8.451   9.792 -0.7030  0.7911  0.4046
  578MOL0     H78021   0.258   8.281   9.828  2.8910  0.0331 -2.6530
  578MOL0     H78022   0.062   8.208   9.671 -0.8991  0.5853 -0.8074
  578MOL0     H78023   0.019   8.373   9.642  0.3234 -0.1018  0.9118
  578MOL0     H78024   0.000   8.229   9.911  1.5375  2.7447  4.0168
  578MOL0     H78025   0.001   8.404   9.892 -0.9517  0.8006 -1.2505
  578MOL0     H78026  -0.394   8.300   9.786 -0.1344 -3.0042  2.0679
  578MOL0     H78027   0.400   8.277   9.411 -0.0772  1.5848 -0.6479
  578MOL0     H78028   0.456   8.170   9.247 -0.0297  2.3371  0.3285
  578MOL0     H78029   0.565   8.276   9.155  1.4403  1.0158  0.6165
  578MOL0     H78030   0.624   8.128   9.222 -1.1592 -0.1606 -0.4341
  579MOL0     O78031   8.251   3.541   2.334  0.5177 -0.3165  0.1652
  579MOL0     C78032   8.286   3.445   2.262 -1.2672  0.0331 -0.4258
  579MOL0     O78033   8.202   3.355   2.200  0.5033  0.5351 -0.2099
  579MOL0     C78034   8.068   3.384   2.186  0.1310 -0.0594  0.8492
  579MOL0     C78035   8.030   3.517   2.165  0.2232 -0.0714 -0.2841
  579MOL0     C78036   7.894   3.540   2.142 -0.1067  0.1285  0.3993
  579MOL0     C78037   7.800   3.435   2.159  0.3173 -0.1828 -0.9473
  579MOL0     O78038   7.670   3.453   2.128 -1.0997  0.3572 -0.1127
  579MOL0     C78039   7.598   3.530   2.226  0.6100 -0.2705  0.1004
  579MOL0     C78040   7.443   3.512   2.200 -0.0432 -0.7893 -0.7359
  579MOL0     C78041   7.371   3.396   2.257  0.7224  0.6378  0.1533
  579MOL0     C78042   7.221   3.416   2.208 -0.8246 -0.4076  0.5276
  579MOL0     C78043   7.157   3.284   2.209 -0.2302  0.0448  0.1528
  579MOL0     C78044   7.011   3.299   2.162 -0.0575 -0.1703 -0.4056
  579MOL0     C78045   6.925   3.167   2.180  0.7828 -0.1291 -0.6575
  579MOL0     C78046   6.782   3.186   2.138 -0.1504 -0.4323 -0.1997
  579MOL0     N78047   6.707   3.067   2.177  0.9152 -0.1068 -0.5602
  579MOL0     C78048   6.627   3.052   2.290 -0.3384 -0.5893 -0.4963
  579MOL0     C78049   6.534   2.961   2.270 -0.0490  0.1006  0.1648
  579MOL0     C78050   6.432   2.904   2.357  0.2805 -0.5735 -0.8580
  579MOL0     C78051   6.297   2.975   2.329  0.0670  0.2556  0.2786
  579MOL0     C78052   6.193   2.951   2.439  0.1924 -0.1677  0.4706
  579MOL0     C78053   6.217   3.024   2.567 -0.1761 -0.7072  0.6173
  579MOL0     O78054   6.216   3.164   2.552 -0.2122 -0.5633 -0.5088
  579MOL0     C78055   6.335   3.216   2.605  0.6582  0.7197 -0.8853
  579MOL0     C78056   6.431   3.265   2.519  0.1180  0.1703 -0.3810
  579MOL0     C78057   6.561   3.303   2.560  0.4974 -0.1685  0.2877
  579MOL0     C78058   6.585   3.292   2.696  0.6181  0.3829 -0.2784
  579MOL0     C78059   6.716   3.337   2.752 -0.2801  0.6372 -0.2653
  579MOL0     O78060   6.817   3.368   2.661 -0.1094  0.2917  0.0965
  579MOL0     C78061   6.947   3.390   2.703 -0.5553  0.5353  0.4654
  579MOL0     C78062   7.045   3.360   2.605 -0.1539 -0.5514  0.1963
  579MOL0     C78063   7.182   3.359   2.632  0.1888  0.3518  0.3864
  579MOL0     C78064   7.225   3.401   2.758 -1.1695  0.2189  0.4531
  579MOL0     O78065   7.362   3.383   2.777 -0.1252  0.8498 -0.2907
  579MOL0     C78066   7.422   3.446   2.892  0.3563  0.3372  0.6442
  579MOL0     C78067   7.568   3.453   2.884 -0.9141 -0.5806 -0.9294
  579MOL0     C78068   7.636   3.427   3.019  1.0025 -0.5262  1.3491
  579MOL0     C78069   7.789   3.453   3.007 -0.0722  0.2868 -0.1996
  579MOL0     C78070   7.860   3.424   3.140  0.6738  0.4701 -0.1826
  579MOL0     C78071   8.015   3.421   3.129 -0.1569  0.1986  0.0024
  579MOL0     C78072   8.089   3.347   3.239 -0.7109 -0.3932  0.7617
  579MOL0     C78073   8.134   3.428   3.358 -0.6872 -0.4449 -0.0841
  579MOL0    Cl78074   8.264   3.347   3.450 -0.7002  0.2779  0.2255
  579MOL0     C78075   7.130   3.447   2.857  0.1174 -0.1047  0.0517
  579MOL0     C78076   6.991   3.443   2.826 -0.1462  0.2098  0.3475
  579MOL0     O78077   6.724   3.341   2.873  0.3138 -0.2563 -0.3425
  579MOL0     C78078   6.477   3.250   2.784  0.5719  0.3991 -0.4522
  579MOL0     C78079   6.350   3.217   2.739  0.2065 -1.1394 -0.2305
  579MOL0     N78080   6.566   2.912   2.141  1.1393  0.7018 -0.1607
  579MOL0     N78081   6.670   2.978   2.086  0.2839 -0.2136  0.4098
  579MOL0     C78082   7.834   3.310   2.202 -0.0121  0.3208  0.0782
  579MOL0     C78083   7.974   3.279   2.201 -0.5714 -0.4328 -0.0986
  579MOL0     C78084   8.432   3.415   2.261  0.3510 -0.6280 -0.0494
  579MOL0     C78085   8.515   3.438   2.374 -0.2507 -0.4542  0.7311
  579MOL0     C78086   8.651   3.400   2.375 -1.0207 -0.0716  0.3279
  579MOL0     C78087   8.710   3.338   2.264  0.2838  0.0379 -0.1030
  579MOL0     O78088   8.837   3.278   2.275 -0.1707  0.3027  0.1181
  579MOL0     C78089   8.934   3.335   2.365  0.1528  0.8749  0.6833
  579MOL0     C78090   8.952   3.498   2.341 -0.4461  0.0048 -1.0183
  579MOL0     C78091   8.959   3.544   2.200  1.0324  0.3983  0.6459
  579MOL0     C78092   9.043   3.458   2.097 -0.3901 -0.7434  0.8210
  579MOL0     C78093   9.182   3.445   2.139  1.1614  0.5245 -0.2207
  579MOL0     C78094   9.293   3.436   2.182  0.1745  0.5385  0.1950
  579MOL0     C78095   8.636   3.316   2.153  0.3355  0.8472 -0.6085
  579MOL0     C78096   8.496   3.354   2.151 -0.8558  0.2437  0.3894
  579MOL0     C78097   8.419   3.332   2.013 -0.1157  0.2953 -0.5700
  579MOL0     H78098   8.098   3.601   2.156  0.5003  0.1078  2.7007
  579MOL0     H78099   7.865   3.637   2.103 -0.4584  0.4953  1.5500
  579MOL0     H78100   7.610   3.504   2.332  3.1119 -1.0576 -0.3101
  579MOL0     H78101   7.626   3.635   2.213 -0.8211 -0.0456 -1.5869
  579MOL0     H78102   7.427   3.515   2.092  0.5392  0.7224 -0.8153
  579MOL0     H78103   7.395   3.606   2.231  1.4012  0.2140 -1.4622
  579MOL0     H78104   7.377   3.384   2.365 -0.5684  0.8791  0.2730
  579MOL0     H78105   7.407   3.304   2.210  3.4370  1.3122  0.7555
  579MOL0     H78106   7.172   3.490   2.273  0.5235  1.3528 -0.3880
  579MOL0     H78107   7.227   3.462   2.109 -0.2655  2.0405  1.6091
  579MOL0     H78108   7.208   3.219   2.138 -0.7490 -2.3567  1.8749
  579MOL0     H78109   7.169   3.237   2.306 -0.1441  0.3749  0.3056
  579MOL0     H78110   6.968   3.376   2.228  0.1515 -0.2357 -0.1908
  579MOL0     H78111   7.012   3.346   2.063  0.5723  0.9052  0.0873
  579MOL0     H78112   6.927   3.139   2.285  1.0851  1.1695 -0.2968
  579MOL0     H78113   6.962   3.081   2.124  0.3380  0.2360 -1.5437
  579MOL0     H78114   6.734   3.277   2.174  0.4434 -0.2422  0.1087
  579MOL0     H78115   6.777   3.192   2.029 -0.3118 -0.9564 -0.2260
  579MOL0     H78116   6.635   3.100   2.387  0.1008 -2.1822  0.2965
  579MOL0     H78117   6.412   2.800   2.332 -1.6208 -0.3996 -0.2799
  579MOL0     H78118   6.465   2.933   2.458  2.2421  1.3436 -1.9533
  579MOL0     H78119   6.310   3.083   2.330 -1.5962  0.6664 -3.6890
  579MOL0     H78120   6.270   2.963   2.224 -1.2078 -2.5932  0.8256
  579MOL0     H78121   6.185   2.845   2.463 -0.0485 -0.8853 -2.4420
  579MOL0     H78122   6.096   2.988   2.405  0.9459  1.6238  0.1223
  579MOL0     H78123   6.309   2.980   2.607 -1.3547 -2.2264  1.7949
  579MOL0     H78124   6.141   2.995   2.641  0.3582 -2.0781  0.6621
  579MOL0     H78125   6.419   3.272   2.412  1.0886  1.9307 -0.4083
  579MOL0     H78126   6.628   3.353   2.490 -0.8893  1.7014  0.2155
  579MOL0     H78127   7.014   3.339   2.503  0.5682 -2.2119  0.2841
  579MOL0     H78128   7.254   3.321   2.561 -0.1214  0.3764  0.0516
  579MOL0     H78129   7.382   3.546   2.911  2.2076  1.3628 -0.5449
  579MOL0     H78130   7.392   3.385   2.978 -2.8098  1.1913  0.2533
  579MOL0     H78131   7.605   3.379   2.813  1.3876 -0.9144  0.5202
  579MOL0     H78132   7.602   3.552   2.855 -0.0742 -0.5441  0.1294
  579MOL0     H78133   7.594   3.497   3.092 -0.0962 -2.1688  2.3320
  579MOL0     H78134   7.601   3.328   3.048 -2.7446 -0.0870 -0.9585
  579MOL0     H78135   7.819   3.557   2.993  2.0216 -0.0002  1.7029
  579MOL0     H78136   7.829   3.392   2.925  0.0148  1.3145 -0.9404
  579MOL0     H78137   7.818   3.332   3.183  1.9447 -0.6241 -1.1758
  579MOL0     H78138   7.841   3.510   3.205  2.2787 -0.5997  1.8638
  579MOL0     H78139   8.038   3.368   3.036 -0.0668 -2.7738  1.5770
  579MOL0     H78140   8.061   3.520   3.130 -2.5009  1.3632  0.7018
  579MOL0     H78141   8.182   3.313   3.191 -0.1831  1.3848  0.4527
  579MOL0     H78142   8.037   3.257   3.273 -2.0736  0.0069 -0.1770
  579MOL0     H78143   8.168   3.521   3.311 -3.0846  0.8896  0.6465
  579MOL0     H78144   8.051   3.448   3.426 -0.6591 -2.1970  0.5169
  579MOL0     H78145   7.178   3.475   2.950 -0.9167 -1.3456  0.9818
  579MOL0     H78146   6.920   3.461   2.905 -1.9259 -0.4739 -1.0244
  579MOL0     H78147   6.502   3.254   2.889  2.4614  0.7704 -0.8644
  579MOL0     H78148   6.274   3.183   2.808 -0.0022  0.4093  0.3364
  579MOL0     H78149   7.762   3.235   2.233 -0.6514  0.7217 -0.4193
  579MOL0     H78150   8.025   3.188   2.233  1.0144  0.9074  1.3448
  579MOL0     H78151   8.467   3.478   2.462 -1.1400 -1.4836  0.7263
  579MOL0     H78152   8.707   3.418   2.465  1.5693 -2.9199 -0.5457
  579MOL0     H78153   9.028   3.287   2.337 -0.5521 -0.3271  0.3296
  579MOL0     H78154   8.907   3.311   2.468 -0.5860  1.1929  0.5740
  579MOL0     H78155   9.041   3.530   2.397 -1.1843  2.3365 -1.0418
  579MOL0     H78156   8.874   3.544   2.402 -0.1063 -1.4552  0.5774
  579MOL0     H78157   8.998   3.646   2.197 -1.1260  1.2635 -0.2511
  579MOL0     H78158   8.856   3.557   2.166  0.2476  3.2390  3.6329
  579MOL0     H78159   8.983   3.368   2.078  0.3932 -1.2709  0.8000
  579MOL0     H78160   9.049   3.501   1.997  0.2305 -0.0038  1.1657
  579MOL0     H78161   9.395   3.441   2.214  1.6228 -1.1780 -3.5316
  579MOL0     H78162   8.687   3.269   2.069  0.3263  1.5586 -1.0200
  579MOL0     H78163   8.345   3.409   1.989 -0.3013 -0.5115 -2.8451
  579MOL0     H78164   8.492   3.337   1.931  1.7455  1.3999  1.0709
  579MOL0     H78165   8.357   3.242   2.022  0.7325 -0.1903  0.6724
  580MOL0     O78166   0.411   5.000   2.113  0.0202 -0.4138  0.2606
  580MOL0     C78167   0.347   5.092   2.063  0.0617 -0.0509 -0.3095
  580MOL0     O78168   0.401   5.218   2.052  0.3890  0.0730  0.2572
  580MOL0     C78169   0.463   5.262   2.160 -0.3495 -0.2356  0.4363
  580MOL0     C78170   0.588   5.327   2.147  0.4832 -1.0480 -0.0098
  580MOL0     C78171   0.657   5.386   2.252  0.4704  0.0375  0.2559
  580MOL0     C78172   0.602   5.393   2.378 -0.0075  0.0972 -0.7448
  580MOL0     O78173   0.658   5.460   2.486  0.5568  0.2476 -0.0952
  580MOL0     C78174   0.796   5.490   2.483 -0.6500 -0.3694 -0.6559
  580MOL0     C78175   0.826   5.558   2.623  0.5448 -0.5322  0.1178
  580MOL0     C78176   0.976   5.577   2.644 -0.7736 -0.4311  0.0327
  580MOL0     C78177   1.049   5.683   2.553  0.3901 -0.0894  0.5115
  580MOL0     C78178   1.198   5.706   2.599 -0.7574 -0.1612 -0.0274
  580MOL0     C78179   1.296   5.610   2.533  0.7203 -0.4624  0.2671
  580MOL0     C78180   1.439   5.610   2.604 -0.3537  0.3056  0.2942
  580MOL0     C78181   1.440   5.531   2.736 -0.0418  0.1114  0.3741
  580MOL0     N78182   1.576   5.531   2.783 -0.7571  0.4415 -0.0069
  580MOL0     C78183   1.689   5.456   2.744  0.0005 -0.1448 -0.1736
  580MOL0     C78184   1.796   5.495   2.815 -0.6423  0.0739  0.2766
  580MOL0     C78185   1.938   5.446   2.819  0.4412 -0.1472  0.0987
  580MOL0     C78186   2.047   5.563   2.849 -0.6965 -0.0152 -0.9578
  580MOL0     C78187   2.183   5.499   2.839 -0.2450 -0.5146 -1.5591
  580MOL0     C78188   2.281   5.594   2.924  0.4585 -0.4232  0.5834
  580MOL0     O78189   2.275   5.728   2.860 -0.1258  0.0925 -0.0840
  580MOL0     C78190   2.368   5.826   2.899  0.1996  0.3850  0.1876
  580MOL0     C78191   2.474   5.801   2.992 -0.3861 -0.1323  0.0941
  580MOL0     C78192   2.579   5.889   2.999  0.2413 -0.6145 -0.3810
  580MOL0     C78193   2.575   6.004   2.921 -0.6546  0.1243  0.9793
  580MOL0     C78194   2.686   6.090   2.905  0.6845 -0.8634  0.2858
  580MOL0     O78195   2.738   6.094   2.783  0.3302 -0.3455 -0.9639
  580MOL0     C78196   2.862   6.152   2.765  0.5806  0.3073  0.8763
  580MOL0     C78197   2.974   6.070   2.744 -0.7329 -0.5034  0.1886
  580MOL0     C78198   3.097   6.134   2.707 -0.3279  0.3287  0.0420
  580MOL0     C78199   3.112   6.266   2.685  0.0138  0.7709  0.7304
  580MOL0     O78200   3.242   6.298   2.649  0.2534  0.1960 -0.6073
  580MOL0     C78201   3.280   6.433   2.616  0.5074  0.7730  0.2516
  580MOL0     C78202   3.223   6.482   2.490 -0.7243 -0.2100  0.1834
  580MOL0     C78203   3.256   6.393   2.372  0.2767  0.2418  1.0310
  580MOL0     C78204   3.409   6.395   2.341  0.6121  0.4107 -0.1769
  580MOL0     C78205   3.440   6.283   2.245 -0.6452 -0.2556  0.8553
  580MOL0     C78206   3.365   6.276   2.111  0.9168 -0.1466 -0.3653
  580MOL0     C78207   3.400   6.154   2.018 -0.6590 -0.2173  0.0410
  580MOL0     C78208   3.324   6.149   1.881  0.6130 -0.0258  0.7952
  580MOL0    Cl78209   3.352   6.303   1.795 -0.3180  0.6028 -0.0339
  580MOL0     C78210   2.996   6.348   2.715 -0.5314  1.4870  0.0520
  580MOL0     C78211   2.874   6.292   2.741 -0.6799  0.2583 -0.5230
  580MOL0     O78212   2.740   6.139   3.006 -0.1761  0.2299  0.2929
  580MOL0     C78213   2.465   6.025   2.830 -0.0702  0.4457  0.1874
  580MOL0     C78214   2.366   5.937   2.819  0.3080  0.1796 -0.2481
  580MOL0     N78215   1.740   5.595   2.906 -0.3108  0.4983  0.2261
  580MOL0     N78216   1.617   5.613   2.882 -0.2370 -0.6213  0.2931
  580MOL0     C78217   0.474   5.342   2.395 -0.1548  0.1162 -0.7850
  580MOL0     C78218   0.404   5.282   2.288  0.1139  0.4790 -0.1061
  580MOL0     C78219   0.215   5.060   1.996  0.5480  0.2299  0.6859
  580MOL0     C78220   0.166   5.146   1.897  0.7088  0.6528  0.7210
  580MOL0     C78221   0.047   5.129   1.822  0.3425  0.3421  0.4292
  580MOL0     C78222  -0.034   5.020   1.858  0.0641  0.3890  0.2363
  580MOL0     O78223  -0.157   4.996   1.806 -0.5791 -0.3563 -0.5276
  580MOL0     C78224  -0.199   5.073   1.691 -0.6397 -0.7485  0.1088
  580MOL0     C78225  -0.278   5.199   1.722  0.4149  0.3462 -0.1391
  580MOL0     C78226  -0.346   5.260   1.588  0.0049  0.1574 -0.8384
  580MOL0     C78227  -0.464   5.192   1.532 -0.1327 -0.5392 -0.4880
  580MOL0     C78228  -0.566   5.157   1.636 -0.0084  0.4220 -0.4612
  580MOL0     C78229  -0.653   5.139   1.722 -0.0071 -0.8466 -0.1297
  580MOL0     C78230   0.013   4.933   1.958 -0.0393  1.3733 -0.3457
  580MOL0     C78231   0.128   4.950   2.033  0.6605  0.1046 -0.4398
  580MOL0     C78232   0.168   4.844   2.144  0.7120  0.5784 -0.3042
  580MOL0     H78233   0.628   5.316   2.046  0.2475 -2.3834  0.0335
  580MOL0     H78234   0.754   5.433   2.236  0.1780  0.8408  0.7850
  580MOL0     H78235   0.856   5.399   2.470 -1.6442 -1.9095  3.5865
  580MOL0     H78236   0.828   5.563   2.409  3.2278  0.9374  1.9623
  580MOL0     H78237   0.779   5.504   2.706 -1.1186  2.5570  1.3547
  580MOL0     H78238   0.790   5.661   2.629 -0.0453 -0.4365 -3.0865
  580MOL0     H78239   1.027   5.480   2.634  2.0304  0.7223  1.9495
  580MOL0     H78240   0.994   5.607   2.747  0.2125  1.1846 -0.5854
  580MOL0     H78241   1.039   5.650   2.449 -0.3199 -0.3963  0.6723
  580MOL0     H78242   0.996   5.778   2.555 -2.0055 -1.3400 -0.1113
  580MOL0     H78243   1.230   5.810   2.587 -0.3541 -0.3993 -1.1333
  580MOL0     H78244   1.203   5.682   2.706  1.0285 -0.3395 -0.1077
  580MOL0     H78245   1.261   5.507   2.530 -2.7037  0.5851 -2.7069
  580MOL0     H78246   1.308   5.645   2.430  1.5673  1.1114  0.8628
  580MOL0     H78247   1.452   5.715   2.634 -1.4993  0.5367  0.0384
  580MOL0     H78248   1.519   5.582   2.534 -2.0542  1.3217 -2.2230
  580MOL0     H78249   1.375   5.580   2.809  0.9025  1.8100  0.1125
  580MOL0     H78250   1.406   5.432   2.703 -2.9104  1.2025 -0.2299
  580MOL0     H78251   1.678   5.370   2.679 -0.8884 -1.3345  1.4718
  580MOL0     H78252   1.946   5.375   2.902 -0.1402  0.2764  0.5343
  580MOL0     H78253   1.947   5.390   2.726 -0.7010 -2.2253  1.1778
  580MOL0     H78254   2.051   5.638   2.770 -0.2511  0.8988 -0.1003
  580MOL0     H78255   2.024   5.614   2.943 -0.4076  0.6253 -1.2311
  580MOL0     H78256   2.224   5.489   2.738 -0.7381  1.2580 -1.9571
  580MOL0     H78257   2.176   5.404   2.893  0.0661  0.0055 -0.5735
  580MOL0     H78258   2.382   5.556   2.910  0.1076 -0.5708 -1.9136
  580MOL0     H78259   2.266   5.585   3.032  3.8636 -1.6878  1.0591
  580MOL0     H78260   2.447   5.726   3.065 -3.4222  1.0166  0.3254
  580MOL0     H78261   2.658   5.873   3.073  0.3093 -2.1990 -0.7663
  580MOL0     H78262   2.961   5.968   2.779 -0.0836 -0.0524  1.8893
  580MOL0     H78263   3.182   6.068   2.693 -0.1185  1.1782 -3.8046
  580MOL0     H78264   3.253   6.501   2.698 -1.2080  0.5474 -0.1062
  580MOL0     H78265   3.389   6.424   2.614  0.4792  0.3332  0.5853
  580MOL0     H78266   3.114   6.479   2.501 -0.8015 -0.3343 -0.5653
  580MOL0     H78267   3.255   6.584   2.467 -1.6218  0.7059  2.6858
  580MOL0     H78268   3.233   6.288   2.391 -1.0433  0.6435  1.8160
  580MOL0     H78269   3.203   6.438   2.287  0.1425  3.7408  2.7921
  580MOL0     H78270   3.477   6.383   2.426  0.2690 -0.7278 -0.0475
  580MOL0     H78271   3.431   6.495   2.302  0.4069  0.6938  0.4258
  580MOL0     H78272   3.438   6.193   2.307 -3.6536 -0.8562  0.0187
  580MOL0     H78273   3.547   6.291   2.222 -0.7225 -0.6742  0.3316
  580MOL0     H78274   3.256   6.283   2.121  1.0941  4.1036  0.6701
  580MOL0     H78275   3.389   6.367   2.056 -0.4799 -1.4401 -3.3316
  580MOL0     H78276   3.376   6.062   2.073 -1.4056 -0.1434 -0.1573
  580MOL0     H78277   3.507   6.161   1.993 -0.8380  0.2931 -0.6038
  580MOL0     H78278   3.355   6.060   1.826 -1.8601 -0.6629  0.3273
  580MOL0     H78279   3.218   6.147   1.908  0.4274 -0.0716  0.0781
  580MOL0     H78280   3.009   6.456   2.707  0.6929  1.4518  1.2568
  580MOL0     H78281   2.785   6.351   2.762  0.2883  1.2172  1.0852
  580MOL0     H78282   2.486   6.110   2.765  5.7846  1.0612  2.2436
  580MOL0     H78283   2.296   5.939   2.736  2.4357  4.2024 -2.2534
  580MOL0     H78284   0.432   5.367   2.492  0.7475 -0.2486 -0.2795
  580MOL0     H78285   0.299   5.256   2.299  0.2356 -0.1177 -0.3632
  580MOL0     H78286   0.233   5.224   1.861 -0.9973  1.1542 -1.5510
  580MOL0     H78287   0.034   5.191   1.733 -0.4200  0.0759  0.3444
  580MOL0     H78288  -0.272   5.005   1.645 -1.3624 -0.2185  0.4424
  580MOL0     H78289  -0.116   5.091   1.623 -0.0039 -1.5898  0.6474
  580MOL0     H78290  -0.225   5.278   1.776 -0.6881  0.4733  0.7992
  580MOL0     H78291  -0.357   5.163   1.789  2.0254 -1.6617  0.7994
  580MOL0     H78292  -0.267   5.278   1.515  1.3695 -0.0989  0.5233
  580MOL0     H78293  -0.372   5.366   1.599  4.0762  1.1750  0.8173
  580MOL0     H78294  -0.519   5.258   1.463 -2.0003  0.1881  1.5823
  580MOL0     H78295  -0.441   5.099   1.479 -2.1730 -0.9518 -0.7538
  580MOL0     H78296  -0.735   5.118   1.788  0.0908  2.5090  1.2634
  580MOL0     H78297  -0.052   4.851   1.983  1.5108  0.8924  2.5551
  580MOL0     H78298   0.205   4.750   2.102  2.3455  2.0749 -2.4763
  580MOL0     H78299   0.242   4.878   2.217  1.2543  0.7613 -0.9261
  580MOL0     H78300   0.079   4.815   2.200  1.7095 -1.7534  0.2059
  581MOL0     O78301   8.464  10.431   9.792  0.1317  0.2897 -0.3102
  581MOL0     C78302   8.426  10.374   9.891  0.0099 -0.1936 -0.2936
  581MOL0     O78303   8.510  10.307   9.976  0.3052  0.4496  0.1544
  581MOL0     C78304   8.619  10.246   9.918  0.7093 -0.3537 -0.0336
  581MOL0     C78305   8.598  10.120   9.859  0.2526  0.6803 -0.2142
  581MOL0     C78306   8.710  10.055   9.809 -0.1337 -0.0082 -0.0779
  581MOL0     C78307   8.834  10.105   9.811  0.0437 -0.1837 -0.0828
  581MOL0     O78308   8.935  10.040   9.749  0.4294  0.5691  0.5820
  581MOL0     C78309   9.031   9.999   9.847 -0.1465  0.4824 -0.2818
  581MOL0     C78310   9.166   9.989   9.790 -0.0270 -0.2795  0.9473
  581MOL0     C78311   9.270   9.949   9.896  0.3211 -0.3469  0.5812
  581MOL0     C78312   9.402   9.898   9.838  0.3143  0.3341  0.1044
  581MOL0     C78313   9.517   9.892   9.940 -0.1974  0.1757 -0.7830
  581MOL0     C78314   9.654   9.928   9.878  0.5198 -0.4023  0.0934
  581MOL0     C78315   9.768   9.936   9.977  0.0822  0.3839 -0.6936
  581MOL0     C78316   9.894   9.983   9.910 -0.4338 -0.1343 -0.4880
  581MOL0     N78317   9.954   9.896   9.815  0.7648 -0.0016  0.1665
  581MOL0     C78318   9.992   9.767   9.849  0.4879  0.0479  0.2324
  581MOL0     C78319  10.035   9.717   9.735 -0.0023 -0.0937  0.1023
  581MOL0     C78320  10.084   9.585   9.703  0.4503  0.1473 -0.1783
  581MOL0     C78321  10.227   9.564   9.753  0.5452  1.0135 -0.1667
  581MOL0     C78322  10.246   9.507   9.889 -0.5877  0.4005 -1.2796
  581MOL0     C78323  10.391   9.461   9.919 -0.5789 -0.0331 -0.4220
  581MOL0     O78324  10.483   9.571   9.929 -0.0591 -0.3228 -0.3901
  581MOL0     C78325  10.614   9.538   9.953  0.3294 -0.6370 -0.3311
  581MOL0     C78326  10.666   9.413   9.982 -0.1027  0.9006  0.6721
  581MOL0     C78327  10.804   9.390   9.996  0.0551  0.3347  0.1083
  581MOL0     C78328  10.895   9.497   9.990 -0.6706 -1.4501 -0.5389
  581MOL0     C78329  11.036   9.474  10.010  0.3692 -0.7413 -0.0295
  581MOL0     O78330  11.069   9.342  10.043 -0.1121 -0.3902  0.2083
  581MOL0     C78331  11.201   9.307  10.052 -0.1930  0.2416  0.2865
  581MOL0     C78332  11.300   9.391  10.115  0.5847 -0.3251  0.6976
  581MOL0     C78333  11.428   9.346  10.137  0.0935 -0.0958  0.5381
  581MOL0     C78334  11.470   9.215  10.104 -0.1023  1.0597 -0.4088
  581MOL0     O78335  11.599   9.176  10.126 -0.6376  0.4849 -0.7475
  581MOL0     C78336  11.704   9.274  10.138  0.1099  0.4305  0.4282
  581MOL0     C78337  11.844   9.199  10.150  0.1345 -0.6020 -0.3213
  581MOL0     C78338  11.898   9.165  10.014 -0.4390  0.0438 -0.0024
  581MOL0     C78339  12.042   9.116  10.037 -0.2801 -0.0320 -0.2369
  581MOL0     C78340  12.109   9.111   9.899  0.1272  0.0615 -0.5967
  581MOL0     C78341  12.254   9.069   9.914 -0.2185 -0.4297  0.4005
  581MOL0     C78342  12.334   9.082   9.785 -0.4721 -0.3871 -0.1936
  581MOL0     C78343  12.472   9.029   9.812  0.2546 -0.0991 -0.2566
  581MOL0    Cl78344  12.569   9.043   9.661  0.2855  0.7079 -0.0781
  581MOL0     C78345  11.371   9.137  10.039  0.3926 -0.3523  0.9277
  581MOL0     C78346  11.242   9.177  10.016  1.0277 -0.1929 -0.9254
  581MOL0     O78347  11.117   9.566   9.988 -0.2674 -0.1435 -0.0229
  581MOL0     C78348  10.843   9.625   9.966  0.3213  0.0964  0.3750
  581MOL0     C78349  10.703   9.644   9.941 -0.6154  1.1051 -0.0406
  581MOL0     N78350  10.025   9.810   9.636  0.6343  0.9606  0.0889
  581MOL0     N78351   9.976   9.919   9.683 -0.2631  1.0505 -0.4513
  581MOL0     C78352   8.854  10.232   9.864  1.2564 -1.0862  0.5623
  581MOL0     C78353   8.745  10.303   9.919 -0.0125  0.1795 -0.1122
  581MOL0     C78354   8.278  10.392   9.924 -0.6870 -0.7019 -0.6255
  581MOL0     C78355   8.231  10.349  10.050  0.2483 -0.7526  0.5924
  581MOL0     C78356   8.098  10.352  10.087  1.2183 -0.7587 -0.6290
  581MOL0     C78357   8.004  10.398   9.996  0.1991  0.3009  0.2908
  581MOL0     O78358   7.878  10.409  10.042 -0.1356 -0.3229 -0.4871
  581MOL0     C78359   7.842  10.548  10.070 -0.4465  0.7500  0.0520
  581MOL0     C78360   7.710  10.559  10.133  0.2697 -1.1099  0.2993
  581MOL0     C78361   7.602  10.469  10.055 -0.0638 -0.4609 -0.0113
  581MOL0     C78362   7.462  10.454  10.119  0.9245  0.0286 -0.2826
  581MOL0     C78363   7.393  10.579  10.141  0.3492 -0.8963 -0.0827
  581MOL0     C78364   7.323  10.679  10.156 -0.7138  0.0104  1.1876
  581MOL0     C78365   8.045  10.436   9.867  0.0604  0.7693 -0.2264
  581MOL0     C78366   8.178  10.426   9.827 -0.1251  0.4989 -0.6117
  581MOL0     C78367   8.205  10.461   9.682 -0.1382 -0.0297  0.7062
  581MOL0     H78368   8.500  10.073   9.857  0.6435 -0.2467 -3.0955
  581MOL0     H78369   8.692   9.959   9.761  1.9640  0.0974 -1.1705
  581MOL0     H78370   9.026  10.069   9.931 -2.7046 -1.2185  1.0964
  581MOL0     H78371   9.013   9.895   9.877  3.2086  0.5665  2.7882
  581MOL0     H78372   9.180  10.092   9.755  0.2483 -1.2271 -1.9745
  581MOL0     H78373   9.164   9.921   9.705  0.4001  1.5584 -0.6035
  581MOL0     H78374   9.230   9.875   9.966  1.0767 -2.1854 -0.8527
  581MOL0     H78375   9.290  10.037   9.958 -0.6431  1.1080 -1.0697
  581MOL0     H78376   9.392   9.800   9.792  0.2477 -0.9069  2.5876
  581MOL0     H78377   9.431   9.975   9.766  1.8727 -1.2838 -1.0829
  581MOL0     H78378   9.501   9.973  10.012  0.4859 -0.6578  0.3289
  581MOL0     H78379   9.521   9.793   9.986 -1.1962  0.5159  0.0789
  581MOL0     H78380   9.681   9.849   9.807  3.3884  1.8923 -1.5932
  581MOL0     H78381   9.657  10.022   9.822 -0.2821 -0.8024 -0.6586
  581MOL0     H78382   9.792   9.836  10.014  2.9008  1.2457  0.0947
  581MOL0     H78383   9.747  10.008  10.057 -2.2976 -1.0843  0.0893
  581MOL0     H78384   9.876  10.081   9.864  2.3557 -0.3866 -2.3762
  581MOL0     H78385   9.967  10.001   9.989 -1.3133  1.4893  0.0178
  581MOL0     H78386   9.977   9.719   9.946 -2.1289  0.4953  0.1340
  581MOL0     H78387  10.019   9.510   9.749 -1.4422  2.2708  0.8316
  581MOL0     H78388  10.087   9.561   9.597  2.5856 -2.1058  0.3071
  581MOL0     H78389  10.275   9.503   9.676 -0.8559  0.7210 -0.8497
  581MOL0     H78390  10.278   9.661   9.759  1.8385  0.2723  1.6839
  581MOL0     H78391  10.185   9.416   9.881  1.9135 -1.4972 -0.0366
  581MOL0     H78392  10.203   9.567   9.969 -0.9859 -2.9878  1.2482
  581MOL0     H78393  10.433   9.390   9.847 -0.4509  0.5816 -0.9588
  581MOL0     H78394  10.387   9.407  10.015  0.2712 -1.7115 -1.2859
  581MOL0     H78395  10.603   9.325   9.986  1.6442 -0.4079  0.9488
  581MOL0     H78396  10.852   9.293   9.996  2.0114  1.2550  0.0371
  581MOL0     H78397  11.279   9.492  10.148  1.8592  0.3053 -0.3476
  581MOL0     H78398  11.497   9.417  10.182  0.8382  0.4173 -1.3585
  581MOL0     H78399  11.709   9.331  10.045  0.3367 -2.4319 -1.4201
  581MOL0     H78400  11.683   9.335  10.227 -1.0516  0.8251 -0.0843
  581MOL0     H78401  11.914   9.256  10.212  1.3178 -2.6532  0.3236
  581MOL0     H78402  11.827   9.102  10.197  2.1316 -0.1959  1.3845
  581MOL0     H78403  11.849   9.079   9.967  0.3256 -1.4922  1.8954
  581MOL0     H78404  11.902   9.248   9.943 -1.4616  0.0309 -0.0866
  581MOL0     H78405  12.040   9.022  10.092 -0.1943  0.0241 -0.1363
  581MOL0     H78406  12.092   9.190  10.100  1.0619 -2.7923  2.1443
  581MOL0     H78407  12.108   9.206   9.844 -0.8749  0.1617 -0.4192
  581MOL0     H78408  12.066   9.044   9.824  1.7407  0.8177 -2.2616
  581MOL0     H78409  12.303   9.131   9.990  0.2658 -3.6396  2.9903
  581MOL0     H78410  12.258   8.967   9.954  2.2514 -1.3197 -1.8220
  581MOL0     H78411  12.334   9.189   9.763 -1.5440 -0.1423  0.8339
  581MOL0     H78412  12.268   9.036   9.711  0.2602  0.0024 -1.0900
  581MOL0     H78413  12.522   9.083   9.894 -1.0813 -0.0003  0.5140
  581MOL0     H78414  12.456   8.921   9.825 -0.8294 -0.5230 -4.0729
  581MOL0     H78415  11.396   9.035  10.013  3.9519  0.4425  0.7102
  581MOL0     H78416  11.176   9.098   9.981 -2.1653  2.1238 -0.4693
  581MOL0     H78417  10.900   9.718   9.966 -1.0028  0.9367 -0.3473
  581MOL0     H78418  10.671   9.747   9.925  2.5519  1.9790 -1.5926
  581MOL0     H78419   8.950  10.280   9.855  0.0568  1.4969  0.7941
  581MOL0     H78420   8.761  10.407   9.948 -3.6349  0.6537  0.6159
  581MOL0     H78421   8.296  10.317  10.130  0.4022  0.4076  0.9429
  581MOL0     H78422   8.076  10.324  10.189 -2.5053  2.7656 -0.2062
  581MOL0     H78423   7.837  10.603   9.976  0.2591  2.4082  0.9460
  581MOL0     H78424   7.923  10.585  10.133  1.6035 -2.0810 -0.7113
  581MOL0     H78425   7.682  10.662  10.110 -0.3562 -1.5421 -0.9366
  581MOL0     H78426   7.707  10.538  10.241 -1.3820  2.3874  1.0757
  581MOL0     H78427   7.648  10.370  10.047  2.3880  0.5797  0.2578
  581MOL0     H78428   7.608  10.516   9.956  3.2654 -0.5217  0.0610
  581MOL0     H78429   7.401  10.391  10.053  0.2152  0.9683 -0.5381
  581MOL0     H78430   7.468  10.406  10.217  0.4234  4.3695  2.0987
  581MOL0     H78431   7.264  10.768  10.173  0.4054  0.1293  5.9847
  581MOL0     H78432   7.975  10.492   9.805 -1.6884  0.1160  1.0756
  581MOL0     H78433   8.265  10.553   9.677  0.6532 -0.6106 -1.2293
  581MOL0     H78434   8.278  10.386   9.649  1.9705  0.1711  4.3709
  581MOL0     H78435   8.117  10.445   9.620 -1.0157  0.7828  1.7038
  582MOL0     O78436  10.995   2.655   4.214  0.2594  0.0391  0.4596
  582MOL0     C78437  11.000   2.535   4.187 -0.0010  0.0332  0.0130
  582MOL0     O78438  11.115   2.471   4.165 -0.4715  0.1755  0.2762
  582MOL0     C78439  11.243   2.521   4.188 -0.3598 -0.3441 -0.1865
  582MOL0     C78440  11.338   2.442   4.118  0.0820 -0.3649 -0.5628
  582MOL0     C78441  11.466   2.482   4.127  0.8202  0.0276  0.4902
  582MOL0     C78442  11.503   2.584   4.211 -0.3565 -0.5377 -0.0129
  582MOL0     O78443  11.634   2.617   4.239  0.0237  0.2272 -0.2602
  582MOL0     C78444  11.736   2.554   4.170  0.2650  0.5760  0.9489
  582MOL0     C78445  11.855   2.629   4.205  0.1934 -0.3868  0.1187
  582MOL0     C78446  11.984   2.548   4.190  0.0994 -0.4608 -0.2431
  582MOL0     C78447  12.106   2.633   4.242 -0.3105  0.5699  0.2264
  582MOL0     C78448  12.242   2.569   4.189  0.6923  0.5597  0.1883
  582MOL0     C78449  12.265   2.418   4.224  0.2283 -0.3569  0.8553
  582MOL0     C78450  12.404   2.383   4.237 -0.3868 -0.0561  0.3780
  582MOL0     C78451  12.470   2.436   4.364  0.3897  0.0028 -0.4858
  582MOL0     N78452  12.616   2.434   4.365 -0.6508  0.2637 -0.5374
  582MOL0     C78453  12.701   2.350   4.293 -0.1783  0.6721  0.3151
  582MOL0     C78454  12.828   2.377   4.335  0.9614  1.3266 -0.5920
  582MOL0     C78455  12.943   2.312   4.273  0.8775  0.5013  0.0737
  582MOL0     C78456  13.062   2.281   4.368  0.3219  0.2452 -0.1443
  582MOL0     C78457  13.179   2.257   4.273 -0.5687  0.6245  0.0141
  582MOL0     C78458  13.303   2.246   4.365 -0.4387 -0.0458  0.2293
  582MOL0     O78459  13.392   2.157   4.295 -0.3542  0.0956 -0.4704
  582MOL0     C78460  13.522   2.146   4.338  0.5733 -0.4473 -0.2922
  582MOL0     C78461  13.618   2.085   4.261  1.1415  0.1206 -0.0739
  582MOL0     C78462  13.747   2.048   4.296 -0.2788 -0.2391  0.0235
  582MOL0     C78463  13.795   2.096   4.418  0.0515 -0.1911  0.1967
  582MOL0     C78464  13.941   2.081   4.461  0.2574  0.8287 -0.0018
  582MOL0     O78465  14.015   1.989   4.386  0.6828  0.2283  0.2671
  582MOL0     C78466  14.111   1.906   4.439 -0.2274 -1.1454  0.7543
  582MOL0     C78467  14.191   1.948   4.544 -0.7776 -0.1455 -0.3567
  582MOL0     C78468  14.287   1.861   4.608  0.2410  0.4897  0.3882
  582MOL0     C78469  14.301   1.726   4.563 -0.0739  0.1403  0.1274
  582MOL0     O78470  14.411   1.649   4.607  0.1052 -0.2439 -0.1906
  582MOL0     C78471  14.470   1.678   4.740 -0.8228  0.3284  0.5990
  582MOL0     C78472  14.577   1.571   4.785  0.8750 -0.3608  0.4651
  582MOL0     C78473  14.721   1.613   4.737 -0.2697  1.3709  0.3691
  582MOL0     C78474  14.816   1.487   4.745 -0.5110  0.3222  0.4968
  582MOL0     C78475  14.957   1.523   4.716  0.7334  0.1611 -0.3608
  582MOL0     C78476  15.049   1.408   4.696 -0.0373  0.4997 -0.2033
  582MOL0     C78477  15.197   1.447   4.668 -0.1208  0.2343 -0.1010
  582MOL0     C78478  15.268   1.336   4.579  0.5257  0.0567 -0.4910
  582MOL0    Cl78479  15.256   1.171   4.643  0.1921  0.3474  0.0526
  582MOL0     C78480  14.211   1.680   4.465 -0.3035 -0.1194  0.4425
  582MOL0     C78481  14.132   1.775   4.394  0.5136  0.9626  0.6080
  582MOL0     O78482  13.969   2.120   4.574  0.4748  0.6012  0.1524
  582MOL0     C78483  13.715   2.180   4.498  0.6602  0.7400 -0.3582
  582MOL0     C78484  13.582   2.201   4.465  0.3600 -0.3459  1.0765
  582MOL0     N78485  12.817   2.481   4.423 -0.2784  0.1629 -0.0118
  582MOL0     N78486  12.691   2.515   4.443 -0.1809  0.5191 -0.5386
  582MOL0     C78487  11.416   2.656   4.289  0.3026  0.3786 -0.0325
  582MOL0     C78488  11.282   2.628   4.268 -1.0726 -0.1090 -0.8066
  582MOL0     C78489  10.863   2.466   4.180  0.7831 -0.0426 -0.6454
  582MOL0     C78490  10.746   2.535   4.146  0.2768 -0.0914  0.2536
  582MOL0     C78491  10.627   2.475   4.122 -0.5527 -0.3380 -0.2925
  582MOL0     C78492  10.611   2.338   4.140 -0.7654 -0.3032  0.1749
  582MOL0     O78493  10.494   2.262   4.124  0.5859 -0.7955  0.3443
  582MOL0     C78494  10.361   2.323   4.127 -0.0970  0.0145  0.1119
  582MOL0     C78495  10.319   2.389   3.998 -0.5768  0.0008 -0.0388
  582MOL0     C78496  10.195   2.480   4.026  0.4221  0.4018  0.3598
  582MOL0     C78497  10.115   2.515   3.897 -0.0409  0.6223 -0.8672
  582MOL0     C78498  10.042   2.401   3.839 -0.2474  0.0163 -0.7979
  582MOL0     C78499   9.980   2.320   3.782  0.4158 -0.2043 -0.5905
  582MOL0     C78500  10.726   2.266   4.182  0.8443  0.3389  0.7101
  582MOL0     C78501  10.852   2.328   4.199  0.0570  0.4228 -0.7630
  582MOL0     C78502  10.958   2.229   4.243 -0.7161 -0.2960 -0.1807
  582MOL0     H78503  11.297   2.366   4.051  2.3638 -0.8802 -1.4444
  582MOL0     H78504  11.530   2.436   4.053 -0.5291 -0.0046 -0.7025
  582MOL0     H78505  11.745   2.452   4.209  3.6260 -0.0484 -1.1064
  582MOL0     H78506  11.719   2.551   4.062  2.8803 -3.4866  0.4402
  582MOL0     H78507  11.857   2.670   4.307  2.5570  1.5077 -0.6188
  582MOL0     H78508  11.861   2.716   4.138 -1.0493  0.5183  1.1255
  582MOL0     H78509  12.002   2.533   4.083 -2.3187 -0.5835 -0.6886
  582MOL0     H78510  11.978   2.449   4.237 -0.4970  0.0188  0.7067
  582MOL0     H78511  12.100   2.736   4.207  3.1657  0.4189 -1.1307
  582MOL0     H78512  12.103   2.630   4.351 -1.1807  0.3499  0.2060
  582MOL0     H78513  12.244   2.570   4.079  1.2492 -2.5553  0.0963
  582MOL0     H78514  12.315   2.641   4.229 -0.2066  0.6357  1.7528
  582MOL0     H78515  12.220   2.390   4.320 -1.4701  2.0648  0.8648
  582MOL0     H78516  12.221   2.359   4.144 -0.6645 -0.1058  1.1521
  582MOL0     H78517  12.458   2.435   4.157 -0.6040 -2.7940 -1.7168
  582MOL0     H78518  12.424   2.276   4.221 -1.1824 -0.2486  0.6183
  582MOL0     H78519  12.438   2.540   4.375  4.2599  1.2700  0.3690
  582MOL0     H78520  12.431   2.386   4.452 -1.3492 -0.5871 -1.5342
  582MOL0     H78521  12.671   2.274   4.222 -0.4320 -0.5111  1.6264
  582MOL0     H78522  12.911   2.219   4.224  2.0446  0.7902 -1.3031
  582MOL0     H78523  12.987   2.379   4.199 -0.0261 -0.5533 -1.4816
  582MOL0     H78524  13.087   2.362   4.436  2.7575 -0.5458  0.0181
  582MOL0     H78525  13.042   2.191   4.427  3.2490  0.6570  1.7000
  582MOL0     H78526  13.190   2.336   4.197  0.8105 -0.3399 -0.8228
  582MOL0     H78527  13.174   2.157   4.229  0.2866  0.3284  0.5795
  582MOL0     H78528  13.293   2.212   4.469 -0.2071 -0.4575  0.1194
  582MOL0     H78529  13.341   2.348   4.378 -1.2893  0.1027  1.7465
  582MOL0     H78530  13.573   2.043   4.172  1.3967  1.2289 -0.7479
  582MOL0     H78531  13.802   1.994   4.219  0.8438 -0.1968  0.7665
  582MOL0     H78532  14.186   2.052   4.573  2.7070 -0.0047  0.2489
  582MOL0     H78533  14.354   1.904   4.682  3.3919 -3.3493  0.0714
  582MOL0     H78534  14.527   1.771   4.745  1.2384 -0.6196 -2.2997
  582MOL0     H78535  14.391   1.684   4.815 -0.6235  1.6991  0.7204
  582MOL0     H78536  14.567   1.573   4.894 -1.0176  1.0021  0.3200
  582MOL0     H78537  14.554   1.470   4.751  0.2841 -0.0584 -0.0717
  582MOL0     H78538  14.728   1.658   4.637  2.4030  0.2187 -0.0540
  582MOL0     H78539  14.761   1.698   4.794  1.6979  1.3691 -0.8993
  582MOL0     H78540  14.785   1.409   4.675  0.3350  0.0642  0.4040
  582MOL0     H78541  14.817   1.443   4.845  1.5195 -0.4087  0.1942
  582MOL0     H78542  15.006   1.581   4.795  0.8315 -1.0051  0.4667
  582MOL0     H78543  14.958   1.563   4.614  1.2734 -3.9303 -2.1995
  582MOL0     H78544  15.036   1.346   4.785 -0.7505 -0.5401 -1.0110
  582MOL0     H78545  15.009   1.349   4.613 -0.2989 -0.4530  0.5821
  582MOL0     H78546  15.250   1.455   4.762  0.7577  2.7452 -0.7480
  582MOL0     H78547  15.196   1.535   4.603  2.5185  0.4762  0.0861
  582MOL0     H78548  15.209   1.346   4.488 -0.0759  2.0720  0.0734
  582MOL0     H78549  15.372   1.356   4.552  0.2080  1.2541 -0.8592
  582MOL0     H78550  14.226   1.579   4.428 -2.9397 -1.1845  1.9734
  582MOL0     H78551  14.067   1.739   4.315  0.4351  0.7370  0.7750
  582MOL0     H78552  13.755   2.225   4.588 -0.6435 -0.1356  0.6914
  582MOL0     H78553  13.528   2.267   4.532  0.3298  0.7469  0.0195
  582MOL0     H78554  11.444   2.722   4.371  1.4444 -2.2299  1.7970
  582MOL0     H78555  11.210   2.687   4.323 -0.1092 -0.9348  1.4805
  582MOL0     H78556  10.754   2.638   4.116 -1.1880  0.3246  1.1938
  582MOL0     H78557  10.547   2.540   4.091  0.1840  1.6305  1.6878
  582MOL0     H78558  10.362   2.405   4.200 -3.6003 -0.1462  0.5353
  582MOL0     H78559  10.293   2.243   4.159  1.7332 -1.3281  0.7987
  582MOL0     H78560  10.284   2.329   3.914 -4.8178  0.3476  1.2454
  582MOL0     H78561  10.391   2.456   3.949 -3.4081  3.9823  0.7477
  582MOL0     H78562  10.232   2.573   4.070  1.3147  0.7408 -1.0412
  582MOL0     H78563  10.127   2.434   4.097  1.4495 -0.9954  0.4827
  582MOL0     H78564  10.040   2.592   3.917 -1.8886 -1.5508  1.1411
  582MOL0     H78565  10.188   2.560   3.828 -0.2234 -0.0978 -1.5397
  582MOL0     H78566   9.925   2.249   3.724 -1.1913  0.6249 -0.1221
  582MOL0     H78567  10.701   2.161   4.198  1.0423 -0.1882 -1.9644
  582MOL0     H78568  11.003   2.181   4.156 -0.5742  0.5841 -0.6009
  582MOL0     H78569  11.036   2.280   4.301  2.0296 -0.3859 -3.5049
  582MOL0     H78570  10.924   2.158   4.319  1.7517  1.1773  2.5223
  583MOL0     O78571   1.087   7.100   5.617  0.0635  0.1052 -0.1512
  583MOL0     C78572   0.988   7.047   5.675 -0.1278 -0.1090  0.8172
  583MOL0     O78573   0.961   7.039   5.807 -0.1111  0.3647 -0.7362
  583MOL0     C78574   1.038   7.123   5.884  0.3934  0.5344  0.6222
  583MOL0     C78575   0.995   7.246   5.941  0.0941  0.2403  0.7716
  583MOL0     C78576   1.087   7.318   6.021 -0.5276  0.1354 -0.1271
  583MOL0     C78577   1.223   7.289   6.044  0.2637 -0.3833  0.5627
  583MOL0     O78578   1.287   7.376   6.122  0.0968 -0.6700  0.4490
  583MOL0     C78579   1.394   7.330   6.196  0.3192  0.4589 -0.4869
  583MOL0     C78580   1.411   7.419   6.325 -0.7243 -0.8909  0.8766
  583MOL0     C78581   1.514   7.531   6.317  0.1064 -0.4888  0.4421
  583MOL0     C78582   1.654   7.490   6.253 -0.7335 -0.8593 -0.9907
  583MOL0     C78583   1.765   7.596   6.272 -0.0436  0.9678  0.6753
  583MOL0     C78584   1.905   7.552   6.229 -0.7656 -0.4043  0.4855
  583MOL0     C78585   1.981   7.436   6.301  0.8608  0.3382  0.6563
  583MOL0     C78586   1.993   7.460   6.452  0.6358 -0.4848  0.1733
  583MOL0     N78587   2.092   7.559   6.479  0.5752 -0.2352 -0.6931
  583MOL0     C78588   2.225   7.565   6.449  0.6423  0.0234  1.1921
  583MOL0     C78589   2.269   7.684   6.513  0.0556 -0.1017  0.7258
  583MOL0     C78590   2.411   7.728   6.541 -0.2251 -0.4898  0.3206
  583MOL0     C78591   2.474   7.832   6.434  0.2344  0.5517 -0.0441
  583MOL0     C78592   2.514   7.763   6.304  0.0082  1.4711 -0.1505
  583MOL0     C78593   2.606   7.859   6.224 -0.0130  0.5700  0.3533
  583MOL0     O78594   2.721   7.891   6.301  0.4767  0.1681  0.2652
  583MOL0     C78595   2.843   7.869   6.257  0.4547 -0.5270 -0.8074
  583MOL0     C78596   2.882   7.820   6.133 -0.9209  0.0750  0.7311
  583MOL0     C78597   3.025   7.810   6.111 -0.3340  0.5902 -0.0756
  583MOL0     C78598   3.127   7.842   6.207  0.9470  0.2367  0.3298
  583MOL0     C78599   3.272   7.807   6.179  0.8696 -0.1382 -0.2365
  583MOL0     O78600   3.361   7.831   6.280  0.1140 -0.2389  1.0020
  583MOL0     C78601   3.483   7.773   6.272 -0.0353  0.3079 -0.0765
  583MOL0     C78602   3.521   7.655   6.220 -0.0063  0.1058 -0.8936
  583MOL0     C78603   3.659   7.618   6.200 -0.6277 -0.2836 -0.9686
  583MOL0     C78604   3.761   7.708   6.228  0.5022  0.4970  0.1324
  583MOL0     O78605   3.890   7.681   6.189  0.5795  0.1254 -0.0731
  583MOL0     C78606   3.993   7.709   6.284 -0.7168 -0.1985  0.6803
  583MOL0     C78607   4.131   7.707   6.204  0.7548  0.0849  0.3587
  583MOL0     C78608   4.166   7.847   6.144  0.0866  0.3916  1.0308
  583MOL0     C78609   4.274   7.845   6.034 -0.2657  0.5060  0.2287
  583MOL0     C78610   4.417   7.819   6.073  1.0394 -0.1862  0.3326
  583MOL0     C78611   4.479   7.901   6.190  0.1342 -0.6833  0.2319
  583MOL0     C78612   4.625   7.878   6.202 -0.4486  1.1166  0.6371
  583MOL0     C78613   4.678   7.918   6.341  0.6884  0.8378  0.5461
  583MOL0    Cl78614   4.676   8.089   6.367 -0.1359 -0.1916  0.0044
  583MOL0     C78615   3.720   7.840   6.271  0.2408  0.4424 -0.9542
  583MOL0     C78616   3.584   7.865   6.305  0.6231  0.0163  0.5020
  583MOL0     O78617   3.299   7.755   6.073 -0.2665 -0.1579  0.5319
  583MOL0     C78618   3.080   7.908   6.321 -0.2351  0.5980 -0.0596
  583MOL0     C78619   2.944   7.918   6.339  0.1428 -0.6763 -0.4872
  583MOL0     N78620   2.159   7.752   6.566  0.4205 -0.3259 -0.2163
  583MOL0     N78621   2.055   7.680   6.542 -0.4003 -0.7256  0.2309
  583MOL0     C78622   1.267   7.175   5.978 -0.2426  0.2347  0.5719
  583MOL0     C78623   1.176   7.095   5.905 -0.0604 -0.0232  0.0591
  583MOL0     C78624   0.882   6.991   5.592 -0.0599 -0.4194  0.7723
  583MOL0     C78625   0.752   6.990   5.645 -0.0907  0.0723  0.2801
  583MOL0     C78626   0.640   6.939   5.578 -0.1433 -0.6322  0.1246
  583MOL0     C78627   0.663   6.878   5.456  0.3145 -0.0757  0.7590
  583MOL0     O78628   0.556   6.828   5.394  0.5032  0.1113  0.2732
  583MOL0     C78629   0.550   6.786   5.253 -0.3490  1.2005  0.0249
  583MOL0     C78630   0.399   6.791   5.219 -0.2161 -0.0243 -0.1671
  583MOL0     C78631   0.344   6.934   5.204 -0.3388 -0.1110  1.2610
  583MOL0     C78632   0.260   6.945   5.080  0.5455 -0.1929 -0.3000
  583MOL0     C78633   0.132   6.874   5.099 -0.0397 -0.3920  0.8363
  583MOL0     C78634   0.036   6.805   5.124  0.0802  0.0060 -0.2503
  583MOL0     C78635   0.787   6.863   5.405  0.0067 -0.0890  1.1392
  583MOL0     C78636   0.894   6.931   5.464 -0.8247  0.1786  0.0120
  583MOL0     C78637   1.031   6.911   5.402  0.8990  0.4393 -0.5666
  583MOL0     H78638   0.889   7.262   5.928 -0.1639 -2.0259 -0.4876
  583MOL0     H78639   1.036   7.405   6.061 -4.5224 -1.9963  0.0052
  583MOL0     H78640   1.391   7.224   6.225  2.5800  0.4536 -0.1380
  583MOL0     H78641   1.483   7.339   6.134  0.6505 -0.5276 -0.1824
  583MOL0     H78642   1.455   7.360   6.405  1.2998 -0.2891  0.2536
  583MOL0     H78643   1.312   7.462   6.348 -1.8632 -3.8334  1.8776
  583MOL0     H78644   1.526   7.563   6.421 -2.8035 -1.7227  1.2197
  583MOL0     H78645   1.466   7.611   6.259  1.3867 -2.0905 -3.1533
  583MOL0     H78646   1.696   7.403   6.303  0.4891  1.2485  1.9444
  583MOL0     H78647   1.645   7.462   6.148  0.5468 -1.7514 -0.8785
  583MOL0     H78648   1.743   7.677   6.202 -1.3402 -0.4895 -0.6706
  583MOL0     H78649   1.774   7.645   6.369 -3.1463  2.1548  0.4763
  583MOL0     H78650   1.906   7.509   6.128 -2.5211 -1.3289  0.8172
  583MOL0     H78651   1.952   7.650   6.219 -5.8141  2.0745 -3.1182
  583MOL0     H78652   2.084   7.431   6.263  0.2500  0.1388 -1.0279
  583MOL0     H78653   1.934   7.340   6.280 -1.9199  1.5934  0.6713
  583MOL0     H78654   1.895   7.502   6.476  0.0042 -1.4435 -0.6874
  583MOL0     H78655   2.015   7.363   6.497 -0.4350 -0.8357 -0.0298
  583MOL0     H78656   2.287   7.496   6.393 -1.7454  1.6643 -4.1162
  583MOL0     H78657   2.424   7.784   6.634  1.5780  0.4141 -0.4177
  583MOL0     H78658   2.475   7.640   6.537  0.0538 -0.2830  0.1525
  583MOL0     H78659   2.400   7.909   6.407 -0.5865 -0.4282 -0.6703
  583MOL0     H78660   2.567   7.867   6.480  1.4656 -1.3122 -1.0219
  583MOL0     H78661   2.422   7.755   6.247 -0.2878  2.5015  0.1672
  583MOL0     H78662   2.564   7.667   6.322 -0.5092  1.2312  0.0026
  583MOL0     H78663   2.551   7.947   6.189 -0.3123 -0.4600 -2.0395
  583MOL0     H78664   2.632   7.810   6.129 -0.8285  3.1062 -1.3079
  583MOL0     H78665   2.827   7.790   6.044 -1.3848  3.2128 -0.1430
  583MOL0     H78666   3.069   7.764   6.023  1.5611  1.6352  0.2671
  583MOL0     H78667   3.444   7.579   6.208 -0.6419 -0.1502  3.2984
  583MOL0     H78668   3.692   7.520   6.165  1.4051 -0.1166  0.2899
  583MOL0     H78669   3.987   7.798   6.348  2.7355  0.5911  0.1104
  583MOL0     H78670   3.993   7.625   6.355  0.3734  2.1376  3.6500
  583MOL0     H78671   4.212   7.686   6.274  2.8013  1.9509 -1.2892
  583MOL0     H78672   4.120   7.622   6.136 -0.3013  0.9859 -0.6366
  583MOL0     H78673   4.077   7.887   6.094  1.1660  1.6766  0.0467
  583MOL0     H78674   4.199   7.912   6.225  2.2527 -0.1937  0.6651
  583MOL0     H78675   4.270   7.939   5.980  4.2501  1.4119  1.0267
  583MOL0     H78676   4.249   7.762   5.967 -0.3258  0.8672 -0.1918
  583MOL0     H78677   4.474   7.827   5.980 -2.0788  1.1197 -1.6053
  583MOL0     H78678   4.405   7.722   6.122  0.0828 -0.5007 -0.5020
  583MOL0     H78679   4.478   8.008   6.170 -1.5813 -0.6126  0.5240
  583MOL0     H78680   4.430   7.871   6.284 -2.9838 -1.8337 -1.5994
  583MOL0     H78681   4.675   7.934   6.122  0.8764 -0.9935 -0.0992
  583MOL0     H78682   4.645   7.771   6.187  0.1245  1.2109  0.6946
  583MOL0     H78683   4.616   7.873   6.419 -1.7161  0.2671 -1.5665
  583MOL0     H78684   4.776   7.873   6.360  0.3607 -1.4930 -2.5169
  583MOL0     H78685   3.790   7.923   6.273  0.5525  0.3326 -3.5135
  583MOL0     H78686   3.545   7.964   6.329  3.6807  1.4261  0.2122
  583MOL0     H78687   3.153   7.944   6.392  1.7614 -1.1544 -1.1174
  583MOL0     H78688   2.906   7.974   6.424 -0.4899  0.4323 -1.4642
  583MOL0     H78689   1.370   7.143   5.994 -0.8151 -0.8048  2.5014
  583MOL0     H78690   1.225   7.007   5.862  0.0496 -0.2055  0.5518
  583MOL0     H78691   0.726   7.024   5.745 -1.4547 -1.4017  0.4626
  583MOL0     H78692   0.541   6.932   5.622 -0.2333 -0.1596  0.0053
  583MOL0     H78693   0.590   6.684   5.256 -0.8455  1.0153  0.6482
  583MOL0     H78694   0.616   6.851   5.195  3.3747 -0.8394  1.5809
  583MOL0     H78695   0.341   6.729   5.288  0.5306 -0.4473  0.0820
  583MOL0     H78696   0.400   6.738   5.124  1.7547 -1.2876  0.5078
  583MOL0     H78697   0.431   7.000   5.192  1.0803 -2.1037  0.1315
  583MOL0     H78698   0.288   6.964   5.294 -0.8030  0.0041  0.9392
  583MOL0     H78699   0.238   7.052   5.074  3.0257  0.6058  2.3179
  583MOL0     H78700   0.319   6.916   4.993  1.6388 -1.2488  0.7558
  583MOL0     H78701  -0.053   6.746   5.136  0.0013  0.0934 -0.4044
  583MOL0     H78702   0.798   6.832   5.301 -1.5738  0.7916  0.6748
  583MOL0     H78703   1.072   7.005   5.362  0.8583  0.3091 -0.9120
  583MOL0     H78704   1.092   6.871   5.484 -0.0883  1.2553  0.6112
  583MOL0     H78705   1.026   6.836   5.323 -1.1779 -0.6244  0.5163
  584MOL0     O78706   7.436   3.007   2.276  0.4146  0.5909  0.2604
  584MOL0     C78707   7.381   3.014   2.385 -0.3348 -0.4595  0.0647
  584MOL0     O78708   7.435   3.056   2.500  0.4335  0.7525  0.2675
  584MOL0     C78709   7.563   3.088   2.501 -1.2246 -0.0395  0.3670
  584MOL0     C78710   7.664   3.006   2.448  0.4348  0.2107  0.1581
  584MOL0     C78711   7.797   3.037   2.470  0.6614  0.3729  0.7453
  584MOL0     C78712   7.832   3.159   2.530  0.3649 -0.5775 -0.5598
  584MOL0     O78713   7.966   3.182   2.529 -0.5427  0.0067 -0.1743
  584MOL0     C78714   8.024   3.301   2.569  0.2211  0.2492 -0.1034
  584MOL0     C78715   8.178   3.272   2.582  0.0348 -0.8002  0.1336
  584MOL0     C78716   8.220   3.183   2.699  0.3645  0.2997  0.4862
  584MOL0     C78717   8.260   3.268   2.821  0.2010 -0.5611  0.3554
  584MOL0     C78718   8.294   3.199   2.960  0.4031  0.3953 -0.3425
  584MOL0     C78719   8.440   3.150   2.956 -0.6633  0.2409 -1.1529
  584MOL0     C78720   8.458   3.074   3.093  0.2899  0.2393 -0.3743
  584MOL0     C78721   8.556   2.959   3.079  0.4525  0.2342 -0.1266
  584MOL0     N78722   8.676   3.006   3.011  0.8284  0.1963  1.5257
  584MOL0     C78723   8.777   3.085   3.065  0.9264 -0.3623 -1.0349
  584MOL0     C78724   8.866   3.120   2.962 -0.6447  0.5755  0.0141
  584MOL0     C78725   8.998   3.187   2.978  0.2408 -0.1372  0.2737
  584MOL0     C78726   9.111   3.083   2.968 -0.2608 -0.3216 -0.3730
  584MOL0     C78727   9.070   2.951   3.046  0.3061  0.1689 -1.5107
  584MOL0     C78728   9.194   2.858   3.045 -0.1012  0.8309 -0.1490
  584MOL0     O78729   9.302   2.908   3.119  1.6539 -0.1052  0.1299
  584MOL0     C78730   9.413   2.829   3.129  0.3857  0.3174  0.3841
  584MOL0     C78731   9.520   2.875   3.206 -0.3241 -0.8230 -0.2834
  584MOL0     C78732   9.640   2.809   3.215 -0.3865  0.7020  0.1688
  584MOL0     C78733   9.658   2.684   3.153 -0.0314 -0.1582  0.2354
  584MOL0     C78734   9.783   2.617   3.172  0.9130  0.8936  0.0737
  584MOL0     O78735   9.858   2.656   3.281 -0.4308 -0.3053  0.4277
  584MOL0     C78736   9.974   2.587   3.308 -0.4542 -0.2003  0.6227
  584MOL0     C78737  10.075   2.570   3.205  0.6497 -0.0077  0.1929
  584MOL0     C78738  10.196   2.522   3.239 -0.6417 -0.3009 -1.2479
  584MOL0     C78739  10.232   2.505   3.376  1.0840 -0.2701 -0.2075
  584MOL0     O78740  10.348   2.453   3.403 -0.2636  0.3428  0.1390
  584MOL0     C78741  10.360   2.314   3.414  0.1138  0.5231  0.2489
  584MOL0     C78742  10.391   2.275   3.562  0.5690  0.2668  0.1067
  584MOL0     C78743  10.539   2.282   3.599 -1.1190 -0.4077  0.3932
  584MOL0     C78744  10.610   2.415   3.605 -0.1650 -0.5019 -0.3106
  584MOL0     C78745  10.730   2.397   3.704  0.4086 -0.4554  0.2579
  584MOL0     C78746  10.826   2.517   3.714 -0.0525  0.3005 -0.0522
  584MOL0     C78747  10.941   2.473   3.806 -0.0092  0.0441  0.3451
  584MOL0     C78748  11.080   2.485   3.742  0.1006 -0.3073 -0.0289
  584MOL0    Cl78749  11.087   2.370   3.609  0.2759 -0.0877 -0.5299
  584MOL0     C78750  10.141   2.535   3.474  0.0135  0.8635  0.3660
  584MOL0     C78751  10.009   2.570   3.444 -0.5749  0.5322 -0.0311
  584MOL0     O78752   9.805   2.524   3.097 -0.5667  0.1689 -0.2152
  584MOL0     C78753   9.557   2.631   3.076  0.0522 -0.1008  0.8945
  584MOL0     C78754   9.437   2.708   3.060  1.2442  0.4757 -0.4052
  584MOL0     N78755   8.809   3.068   2.838  0.0704 -0.4704 -0.4298
  584MOL0     N78756   8.697   3.012   2.874 -0.6591 -0.0580 -0.5023
  584MOL0     C78757   7.738   3.250   2.572  0.9510 -0.1139 -0.1517
  584MOL0     C78758   7.602   3.219   2.555  0.2957 -0.5057 -0.6525
  584MOL0     C78759   7.242   2.958   2.392  0.1071  0.4974 -0.2449
  584MOL0     C78760   7.180   2.910   2.275 -0.0455 -0.0324  0.1905
  584MOL0     C78761   7.049   2.863   2.276  1.0305  0.4680 -0.7220
  584MOL0     C78762   6.986   2.842   2.403 -0.2264 -0.5437  0.0664
  584MOL0     O78763   6.882   2.764   2.415 -0.3659 -0.4826 -0.4893
  584MOL0     C78764   6.829   2.700   2.295  0.0547  0.0254 -0.5868
  584MOL0     C78765   6.725   2.602   2.343  0.3329 -0.1443  0.5806
  584MOL0     C78766   6.658   2.522   2.231  0.5924 -0.4800 -0.1698
  584MOL0     C78767   6.528   2.449   2.263  0.7260  0.1477  0.0479
  584MOL0     C78768   6.453   2.422   2.140  0.1644  0.2155  0.6947
  584MOL0     C78769   6.401   2.405   2.031  0.4485 -0.4952 -0.3528
  584MOL0     C78770   7.043   2.889   2.520  0.1024 -0.8795  0.3414
  584MOL0     C78771   7.166   2.956   2.515  0.5005 -0.3045  0.0776
  584MOL0     C78772   7.220   2.998   2.648  0.1489  0.3253  0.2420
  584MOL0     H78773   7.635   2.915   2.396  0.8323 -0.6034  1.3324
  584MOL0     H78774   7.870   2.966   2.433 -2.3893 -2.1076 -1.0674
  584MOL0     H78775   8.011   3.370   2.485  1.5247 -0.8434 -1.2413
  584MOL0     H78776   7.987   3.346   2.662  0.4584  2.1935 -0.8989
  584MOL0     H78777   8.234   3.366   2.580  0.6059 -1.1361 -2.0131
  584MOL0     H78778   8.204   3.225   2.487  1.8617  3.3447 -1.6428
  584MOL0     H78779   8.309   3.124   2.675 -0.2970 -0.1126 -1.0924
  584MOL0     H78780   8.141   3.112   2.725  2.2826 -2.6959 -1.1995
  584MOL0     H78781   8.344   3.332   2.793 -0.4849  0.9058  1.4999
  584MOL0     H78782   8.184   3.342   2.846  0.7001 -0.3595  1.3404
  584MOL0     H78783   8.287   3.281   3.031 -0.8829 -1.0763  1.2968
  584MOL0     H78784   8.214   3.126   2.971 -1.4647  2.4877  0.6936
  584MOL0     H78785   8.454   3.090   2.866  1.1154  0.6333 -1.1643
  584MOL0     H78786   8.505   3.237   2.960  0.5138 -0.6603  1.6460
  584MOL0     H78787   8.364   3.025   3.121  0.4770  0.1962  0.1928
  584MOL0     H78788   8.485   3.144   3.173  1.1822  0.6329 -1.0041
  584MOL0     H78789   8.579   2.926   3.181  1.4552  0.6812 -0.2011
  584MOL0     H78790   8.516   2.875   3.021  1.7416 -1.7981  1.7483
  584MOL0     H78791   8.786   3.117   3.168  0.7222 -0.5958 -0.9432
  584MOL0     H78792   9.016   3.271   2.909 -0.7560  0.6436  0.9474
  584MOL0     H78793   8.995   3.234   3.077 -1.5185 -0.4058  0.3822
  584MOL0     H78794   9.141   3.043   2.870  0.9313 -0.1199 -0.1020
  584MOL0     H78795   9.201   3.126   3.012  1.0569 -0.9521 -2.2866
  584MOL0     H78796   8.992   2.892   2.997  0.0394 -0.2315 -0.6286
  584MOL0     H78797   9.049   2.974   3.150  2.2228 -0.8185 -0.8544
  584MOL0     H78798   9.237   2.849   2.945  0.2256  0.8504 -0.0109
  584MOL0     H78799   9.163   2.758   3.075 -0.0223  0.4902 -1.1546
  584MOL0     H78800   9.514   2.971   3.257  1.1476 -1.8903  2.1211
  584MOL0     H78801   9.727   2.854   3.262  1.1833  0.0748 -1.9567
  584MOL0     H78802  10.054   2.588   3.100  0.1511  0.2390  0.3317
  584MOL0     H78803  10.273   2.490   3.170  0.5554 -1.5986  0.5911
  584MOL0     H78804  10.269   2.268   3.375 -0.2827 -0.2232  1.9675
  584MOL0     H78805  10.445   2.284   3.353 -0.4624 -0.3833 -0.1306
  584MOL0     H78806  10.329   2.337   3.627 -0.1671 -1.9408  1.6053
  584MOL0     H78807  10.362   2.171   3.578  0.0103  0.2150 -1.1604
  584MOL0     H78808  10.547   2.239   3.699 -0.2933  0.9090  0.9074
  584MOL0     H78809  10.586   2.206   3.535  1.1926 -0.1498  1.6824
  584MOL0     H78810  10.544   2.488   3.652 -1.7692 -1.3723 -1.1138
  584MOL0     H78811  10.640   2.450   3.506 -1.2471 -0.0513 -0.4989
  584MOL0     H78812  10.775   2.306   3.665  0.4073  0.8494 -3.2320
  584MOL0     H78813  10.684   2.381   3.801 -3.4466  2.3716 -0.8507
  584MOL0     H78814  10.861   2.519   3.610  0.1181 -0.1060 -0.0049
  584MOL0     H78815  10.776   2.611   3.737  0.5646  1.2520 -2.3323
  584MOL0     H78816  10.925   2.369   3.834 -1.7798  0.4564  0.9779
  584MOL0     H78817  10.936   2.532   3.898 -3.0169  0.1118  0.2305
  584MOL0     H78818  11.088   2.586   3.702 -2.3376 -0.1129 -0.1849
  584MOL0     H78819  11.147   2.462   3.826 -3.8632 -2.3316  2.9219
  584MOL0     H78820  10.164   2.525   3.579  1.2347  2.3435  0.2828
  584MOL0     H78821   9.938   2.601   3.520  1.9323  2.1830  1.8163
  584MOL0     H78822   9.566   2.535   3.028  1.9815  0.5509 -0.1604
  584MOL0     H78823   9.358   2.660   3.004  0.4157  2.0510 -0.6403
  584MOL0     H78824   7.762   3.346   2.618 -0.1289  0.1966 -0.2158
  584MOL0     H78825   7.531   3.290   2.596  1.5729 -0.8047  2.3212
  584MOL0     H78826   7.228   2.913   2.177 -1.4377  1.9278 -0.5153
  584MOL0     H78827   7.006   2.824   2.185 -2.1296  0.5306  0.6058
  584MOL0     H78828   6.908   2.644   2.245 -1.7421 -0.8236 -2.6957
  584MOL0     H78829   6.785   2.773   2.226 -0.9949  0.4924  0.5475
  584MOL0     H78830   6.644   2.654   2.395 -1.6666 -1.9955 -0.4759
  584MOL0     H78831   6.774   2.528   2.407 -0.3619  1.3021  2.8993
  584MOL0     H78832   6.738   2.459   2.191  1.3090  0.2044  0.1371
  584MOL0     H78833   6.642   2.587   2.144  0.3195 -0.9684 -0.4880
  584MOL0     H78834   6.548   2.354   2.315 -0.2118 -0.0066  0.1546
  584MOL0     H78835   6.467   2.513   2.328  2.5156  1.2567  0.7252
  584MOL0     H78836   6.338   2.380   1.948 -0.2134  0.5013 -0.1686
  584MOL0     H78837   6.990   2.868   2.612 -0.7912 -0.1984  0.0009
  584MOL0     H78838   7.139   3.004   2.722  0.8182  0.2028  0.9859
  584MOL0     H78839   7.293   2.924   2.682 -0.7940 -1.5496 -1.6067
  584MOL0     H78840   7.249   3.103   2.638  0.5723  0.1348 -0.6175
  585MOL0     O78841   2.610   9.038  10.856 -0.0611 -0.0915  0.7003
  585MOL0     C78842   2.604   9.007  10.735 -0.3341 -0.6243  0.3400
  585MOL0     O78843   2.711   8.978  10.657  0.8161 -0.6503  0.0705
  585MOL0     C78844   2.827   8.976  10.718  0.5908  0.2784 -0.3249
  585MOL0     C78845   2.865   8.866  10.805 -0.0367 -0.9091  0.0713
  585MOL0     C78846   2.999   8.858  10.854  0.0254  0.0897  0.5030
  585MOL0     C78847   3.092   8.959  10.819 -0.2861 -0.3014 -0.6441
  585MOL0     O78848   3.219   8.937  10.864  0.2059  0.4339 -0.3926
  585MOL0     C78849   3.320   9.045  10.845  0.0358 -0.2249 -0.1779
  585MOL0     C78850   3.447   9.014  10.913  0.3373 -0.2816 -0.8978
  585MOL0     C78851   3.427   9.009  11.069 -0.3847  0.1156  0.5509
  585MOL0     C78852   3.516   8.898  11.124 -0.9738 -0.1208 -0.5043
  585MOL0     C78853   3.439   8.785  11.197  1.4506 -0.2182  0.4312
  585MOL0     C78854   3.359   8.695  11.103 -0.7708 -0.0790  0.7621
  585MOL0     C78855   3.237   8.627  11.175  0.4006  0.2346  0.4710
  585MOL0     C78856   3.275   8.486  11.227 -0.1551 -0.2478  0.0560
  585MOL0     N78857   3.162   8.400  11.259  0.1501 -0.2559 -0.7600
  585MOL0     C78858   3.080   8.333  11.173  0.3095 -1.2854  0.5142
  585MOL0     C78859   2.993   8.263  11.252  0.2853 -0.0237 -0.4646
  585MOL0     C78860   2.882   8.173  11.197 -0.9464  0.2088 -0.4736
  585MOL0     C78861   2.915   8.026  11.232  0.7471 -0.1100  0.4996
  585MOL0     C78862   3.018   7.974  11.137  0.0098 -0.1063 -0.5970
  585MOL0     C78863   3.060   7.834  11.173  0.0554  0.4983  0.0191
  585MOL0     O78864   2.956   7.743  11.111 -0.1116 -0.1446 -0.5660
  585MOL0     C78865   2.969   7.612  11.139 -0.1854 -0.0509  0.6981
  585MOL0     C78866   2.855   7.534  11.108 -0.8013 -0.7007 -0.0122
  585MOL0     C78867   2.855   7.397  11.140 -0.7776  0.4330  0.3384
  585MOL0     C78868   2.973   7.328  11.176 -1.0457 -0.9219  0.2334
  585MOL0     C78869   2.984   7.183  11.167  0.9371  0.7446  0.1770
  585MOL0     O78870   3.078   7.125  11.241 -0.1809 -0.7417  0.1827
  585MOL0     C78871   3.081   6.984  11.245 -0.6717  0.1433  0.6554
  585MOL0     C78872   3.147   6.908  11.150  0.9199  0.3247 -0.4192
  585MOL0     C78873   3.144   6.764  11.166 -0.0916  0.6989 -0.5934
  585MOL0     C78874   3.054   6.705  11.261  0.1702  0.1152 -0.3369
  585MOL0     O78875   3.046   6.561  11.264  0.2880 -0.0239  0.7523
  585MOL0     C78876   2.954   6.508  11.354  1.0250 -0.8281 -0.1205
  585MOL0     C78877   2.947   6.354  11.353  0.0680 -0.5947 -0.1576
  585MOL0     C78878   3.076   6.277  11.379  0.6665  0.5579  0.3493
  585MOL0     C78879   3.116   6.270  11.524 -0.5202 -0.1457 -0.5636
  585MOL0     C78880   3.252   6.206  11.536 -0.1075  0.7583  1.0277
  585MOL0     C78881   3.293   6.223  11.685  0.1992  0.3996  0.5134
  585MOL0     C78882   3.403   6.127  11.734 -0.2667 -0.6977  0.2279
  585MOL0     C78883   3.542   6.138  11.669 -0.1153  0.2098  0.6765
  585MOL0    Cl78884   3.648   6.069  11.788 -0.2064 -0.0747  0.3381
  585MOL0     C78885   2.983   6.787  11.352 -0.1005 -0.4020 -0.2794
  585MOL0     C78886   2.999   6.927  11.341  0.3579  0.1798 -0.2578
  585MOL0     O78887   2.900   7.127  11.108  0.8113 -0.0950 -0.0364
  585MOL0     C78888   3.094   7.413  11.213 -0.1046  0.1248  0.6397
  585MOL0     C78889   3.094   7.551  11.192  0.2548 -0.2296  0.5893
  585MOL0     N78890   3.033   8.289  11.386  0.2548 -0.6365 -0.6743
  585MOL0     N78891   3.124   8.378  11.391 -0.1851  0.5884 -0.0857
  585MOL0     C78892   3.054   9.070  10.736 -0.2773  0.4757 -0.6625
  585MOL0     C78893   2.919   9.078  10.696  0.4561 -0.4163  0.3464
  585MOL0     C78894   2.464   9.024  10.670 -1.2048 -0.0988  0.6946
  585MOL0     C78895   2.449   9.089  10.549  0.5137  0.7003  0.1150
  585MOL0     C78896   2.322   9.110  10.488  1.3988  0.7835 -1.2523
  585MOL0     C78897   2.205   9.076  10.563 -0.5644  0.9895 -0.2340
  585MOL0     O78898   2.089   9.088  10.501 -0.2049  0.0650  0.4989
  585MOL0     C78899   2.067   8.988  10.399  0.3712 -0.0968 -0.0195
  585MOL0     C78900   1.943   9.038  10.320  0.3496  0.5907 -0.1429
  585MOL0     C78901   1.815   9.015  10.399 -0.1992  1.4529 -0.1640
  585MOL0     C78902   1.702   9.063  10.302  0.4614  0.2585  0.2759
  585MOL0     C78903   1.564   9.044  10.352  0.4050 -0.4822 -0.4290
  585MOL0     C78904   1.448   9.037  10.388 -0.4083  0.2104 -0.2975
  585MOL0     C78905   2.222   9.031  10.694  0.4322 -0.1842 -0.4426
  585MOL0     C78906   2.347   8.992  10.748  1.4702 -0.6039  0.7617
  585MOL0     C78907   2.343   8.915  10.879 -0.6523  0.3182  0.1663
  585MOL0     H78908   2.799   8.781  10.816  0.0567 -1.2588 -1.7321
  585MOL0     H78909   3.023   8.765  10.904 -2.1041 -1.2185 -0.7897
  585MOL0     H78910   3.346   9.061  10.740  1.8825 -0.8873  0.1323
  585MOL0     H78911   3.284   9.132  10.900 -0.5074 -1.2620  1.1727
  585MOL0     H78912   3.509   9.102  10.894 -0.5275  0.0594 -2.2608
  585MOL0     H78913   3.500   8.925  10.877  2.1967  0.2034  0.4706
  585MOL0     H78914   3.324   8.981  11.092 -0.5135 -1.7028 -1.8819
  585MOL0     H78915   3.446   9.113  11.097  2.3686 -0.1682  0.0687
  585MOL0     H78916   3.580   8.849  11.050 -0.3966 -1.3042  0.7180
  585MOL0     H78917   3.586   8.934  11.201 -0.3855 -0.5846 -0.8105
  585MOL0     H78918   3.508   8.735  11.266  0.1217 -1.3146  1.0108
  585MOL0     H78919   3.371   8.831  11.269  1.3659 -2.7600  2.1143
  585MOL0     H78920   3.322   8.737  11.010 -2.0793  1.7251  2.0277
  585MOL0     H78921   3.439   8.623  11.082  1.3084  1.7432  1.9878
  585MOL0     H78922   3.162   8.626  11.096 -0.1890 -3.4082  0.9214
  585MOL0     H78923   3.211   8.686  11.263 -1.1101  1.9756 -1.0470
  585MOL0     H78924   3.340   8.438  11.154  2.0090 -1.2344  2.4934
  585MOL0     H78925   3.336   8.501  11.317  1.4359  0.5972 -1.1145
  585MOL0     H78926   3.097   8.329  11.066 -1.9903 -0.1060  0.0451
  585MOL0     H78927   2.786   8.196  11.244 -0.7182  4.3887 -1.6999
  585MOL0     H78928   2.876   8.200  11.092  0.6696  1.6590 -0.2341
  585MOL0     H78929   2.956   8.029  11.333  0.9848  1.9105  0.3837
  585MOL0     H78930   2.826   7.964  11.241  1.0600 -0.8067 -0.9226
  585MOL0     H78931   3.109   8.033  11.155  0.3263 -0.5554 -0.6875
  585MOL0     H78932   2.979   7.979  11.035 -5.1714 -1.3574  1.0227
  585MOL0     H78933   3.068   7.820  11.281  2.3247 -0.4300 -0.1977
  585MOL0     H78934   3.156   7.813  11.123 -0.5822 -0.7651 -0.7386
  585MOL0     H78935   2.771   7.581  11.057  1.3216  3.8773  0.2401
  585MOL0     H78936   2.777   7.334  11.101 -0.9280  0.6518  0.2824
  585MOL0     H78937   3.208   6.952  11.071 -0.8125  3.8050  0.0053
  585MOL0     H78938   3.197   6.695  11.101 -0.2532 -3.1300  2.9493
  585MOL0     H78939   2.969   6.537  11.458 -1.0903  3.1471 -0.6879
  585MOL0     H78940   2.853   6.539  11.325  0.9609 -0.8347  0.1010
  585MOL0     H78941   2.875   6.324  11.429  1.8829 -2.9412  0.7694
  585MOL0     H78942   2.898   6.317  11.262 -1.8871 -0.7780  0.9264
  585MOL0     H78943   3.065   6.176  11.339  1.2878  0.5971  0.0724
  585MOL0     H78944   3.158   6.322  11.323  1.6733 -1.9910 -0.3475
  585MOL0     H78945   3.047   6.209  11.583  0.8884 -1.3129 -0.0555
  585MOL0     H78946   3.117   6.375  11.556  0.3701  0.3173 -1.9656
  585MOL0     H78947   3.330   6.255  11.478  0.8820 -1.0677  0.7270
  585MOL0     H78948   3.259   6.103  11.500 -0.1061  0.8287  0.8235
  585MOL0     H78949   3.312   6.328  11.708  1.0120  0.1075  1.2394
  585MOL0     H78950   3.197   6.196  11.731 -1.6121  2.7397 -1.6100
  585MOL0     H78951   3.373   6.025  11.711  1.2432 -0.5820 -2.7285
  585MOL0     H78952   3.412   6.140  11.842 -1.3322 -1.3595  0.4012
  585MOL0     H78953   3.558   6.079  11.578  2.0597  0.4966  0.8108
  585MOL0     H78954   3.576   6.240  11.646  0.7890 -0.2687 -0.2146
  585MOL0     H78955   2.928   6.734  11.429 -1.8684 -0.1788 -1.3430
  585MOL0     H78956   2.955   6.990  11.418  2.8151  0.5695  0.9363
  585MOL0     H78957   3.186   7.362  11.241 -1.4354 -1.6392  2.0406
  585MOL0     H78958   3.181   7.610  11.217 -0.4800  1.3873 -0.4486
  585MOL0     H78959   3.129   9.144  10.710  2.1333 -2.6459 -3.3800
  585MOL0     H78960   2.884   9.158  10.630  0.3230  0.5431  1.5440
  585MOL0     H78961   2.545   9.109  10.502 -0.0741  0.6254 -1.1572
  585MOL0     H78962   2.303   9.169  10.399  2.8197 -1.1475 -2.9316
  585MOL0     H78963   2.047   8.895  10.453 -1.3882  0.5613  0.5277
  585MOL0     H78964   2.154   8.971  10.335  0.2839  2.6671 -0.9698
  585MOL0     H78965   1.934   8.989  10.222  1.4890  0.8187 -0.3711
  585MOL0     H78966   1.958   9.143  10.294  2.9688  0.5649  0.9876
  585MOL0     H78967   1.809   9.075  10.490 -2.4659 -0.5594  1.1020
  585MOL0     H78968   1.794   8.908  10.412 -1.2825  1.7767  0.9689
  585MOL0     H78969   1.724   9.169  10.286  1.8879 -0.1052 -0.2740
  585MOL0     H78970   1.710   9.029  10.199 -0.2568 -0.9141  0.5875
  585MOL0     H78971   1.351   9.012  10.425  0.0800  0.3876  1.2011
  585MOL0     H78972   2.129   9.021  10.748 -1.3608  1.3113 -3.0387
  585MOL0     H78973   2.413   8.831  10.869  0.6513  1.5245 -1.4624
  585MOL0     H78974   2.379   8.991  10.948 -2.6832  0.8571  0.6846
  585MOL0     H78975   2.244   8.897  10.921  0.2407 -1.0590  1.8278
  586MOL0     O78976   6.342   9.129   2.144 -0.0767  0.8318 -0.3255
  586MOL0     C78977   6.270   9.051   2.079  0.1077 -0.3352 -0.3481
  586MOL0     O78978   6.312   8.945   2.008 -0.6656  0.1329 -0.1271
  586MOL0     C78979   6.445   8.912   2.017  0.1990  0.4578  0.6665
  586MOL0     C78980   6.538   8.999   1.969  1.1341 -0.0604  0.4101
  586MOL0     C78981   6.671   8.957   1.960 -0.2458 -0.3331  0.2303
  586MOL0     C78982   6.704   8.819   1.983  0.4815 -0.6407  0.1246
  586MOL0     O78983   6.831   8.765   1.991  0.2786  0.4375  0.6819
  586MOL0     C78984   6.939   8.841   1.941  0.7499 -0.5851  0.1396
  586MOL0     C78985   7.067   8.763   1.939  0.2151 -0.6286  0.4153
  586MOL0     C78986   7.161   8.806   2.055  0.9745 -0.3658  0.7071
  586MOL0     C78987   7.302   8.779   2.029 -0.4161  0.0716  0.4238
  586MOL0     C78988   7.401   8.846   2.128 -0.7279 -0.7182 -0.0357
  586MOL0     C78989   7.537   8.783   2.118 -0.1647  0.9610 -0.0847
  586MOL0     C78990   7.624   8.817   1.994 -0.1403 -0.4104 -0.5023
  586MOL0     C78991   7.760   8.739   2.007  0.6748  0.1566  0.1064
  586MOL0     N78992   7.854   8.755   1.896 -1.1679 -0.4114  0.7116
  586MOL0     C78993   7.849   8.844   1.790  0.3547 -0.4579  0.0549
  586MOL0     C78994   7.970   8.836   1.733  0.1420 -1.2732 -0.0813
  586MOL0     C78995   8.018   8.908   1.614  0.0104  0.0150 -0.4821
  586MOL0     C78996   8.020   9.057   1.624  0.9017 -0.6687  0.5729
  586MOL0     C78997   8.058   9.117   1.759 -0.1978  0.3874 -0.1066
  586MOL0     C78998   8.206   9.091   1.789 -0.5221 -0.4112  0.8724
  586MOL0     O78999   8.287   9.119   1.676 -0.0913  1.1439 -0.0421
  586MOL0     C79000   8.428   9.112   1.690  0.4543 -0.0015  0.0762
  586MOL0     C79001   8.507   9.102   1.573  0.1237  0.9334  0.2608
  586MOL0     C79002   8.644   9.110   1.581 -0.6868  0.3173  0.5107
  586MOL0     C79003   8.706   9.128   1.704 -0.2761 -0.2586  0.3332
  586MOL0     C79004   8.857   9.120   1.713  0.3629  0.4458 -0.3559
  586MOL0     O79005   8.935   9.109   1.595  0.1118  0.0961  0.8733
  586MOL0     C79006   9.074   9.123   1.599  0.7048  0.7557 -0.3112
  586MOL0     C79007   9.147   9.051   1.695 -0.0855  0.2963  0.0276
  586MOL0     C79008   9.287   9.067   1.704 -0.5763  0.4806 -0.1532
  586MOL0     C79009   9.358   9.154   1.617  1.3331 -0.4494 -1.0261
  586MOL0     O79010   9.495   9.163   1.619  0.3172  0.0397  0.2818
  586MOL0     C79011   9.567   9.137   1.739  0.0020  0.4262 -0.4086
  586MOL0     C79012   9.711   9.163   1.709 -0.1318 -0.6134  1.3225
  586MOL0     C79013   9.776   9.053   1.626  0.8916  0.2346  0.6502
  586MOL0     C79014   9.927   9.074   1.622  0.1073  0.6105 -0.2184
  586MOL0     C79015  10.003   8.973   1.540 -0.7682 -0.4041 -0.5130
  586MOL0     C79016  10.158   8.984   1.571  0.1535  0.3162  0.5534
  586MOL0     C79017  10.238   8.874   1.489 -0.3431 -0.4504  0.2252
  586MOL0     C79018  10.378   8.934   1.464 -0.7656  0.1978  0.0560
  586MOL0    Cl79019  10.489   8.803   1.440  0.2329  0.5050  0.4654
  586MOL0     C79020   9.283   9.219   1.519  0.1092 -0.1968 -0.5447
  586MOL0     C79021   9.142   9.197   1.507 -0.2324  0.3708  0.4326
  586MOL0     O79022   8.892   9.121   1.834  0.1294  0.9078 -0.3944
  586MOL0     C79023   8.624   9.125   1.824 -0.7535 -0.9267  0.2023
  586MOL0     C79024   8.489   9.131   1.816  0.1481 -1.0942  0.1638
  586MOL0     N79025   8.055   8.741   1.803  0.7273  0.5510  0.2027
  586MOL0     N79026   7.978   8.695   1.896 -0.9506 -0.4178 -0.2722
  586MOL0     C79027   6.607   8.735   2.026  0.0359 -0.1374  0.1768
  586MOL0     C79028   6.473   8.776   2.031  0.0788  0.0712 -0.1651
  586MOL0     C79029   6.116   9.078   2.088 -0.3598  0.2939  0.4428
  586MOL0     C79030   6.031   9.004   2.000  0.8418  0.4857 -0.8164
  586MOL0     C79031   5.897   9.032   1.990  0.5943 -0.0717  0.1705
  586MOL0     C79032   5.830   9.112   2.079  0.7755  0.2208  0.2103
  586MOL0     O79033   5.694   9.125   2.069  0.8808  0.5323  0.9327
  586MOL0     C79034   5.631   9.114   2.196 -0.7513  0.9190 -0.3883
  586MOL0     C79035   5.554   8.985   2.219 -0.1751  0.1140 -0.3660
  586MOL0     C79036   5.636   8.860   2.183  0.2467  0.5164 -0.0897
  586MOL0     C79037   5.763   8.843   2.270  0.6304  0.0422 -0.7013
  586MOL0     C79038   5.858   8.745   2.229  0.4798  0.2720  0.5391
  586MOL0     C79039   5.956   8.695   2.188  0.0421  1.3632  0.4227
  586MOL0     C79040   5.913   9.181   2.163  0.1345  0.4523 -1.1238
  586MOL0     C79041   6.051   9.170   2.169 -0.2961  0.3640  0.0060
  586MOL0     C79042   6.122   9.253   2.285 -0.4614  0.7131  0.2274
  586MOL0     H79043   6.504   9.098   1.937  1.0708  1.2057  3.9422
  586MOL0     H79044   6.747   9.024   1.922  1.7995 -2.2386  0.7400
  586MOL0     H79045   6.930   8.872   1.836 -0.5101  1.5374  0.8147
  586MOL0     H79046   6.954   8.938   1.989 -3.6308  1.4452 -2.0548
  586MOL0     H79047   7.121   8.775   1.845  0.4167 -2.0480  0.3215
  586MOL0     H79048   7.051   8.656   1.956  4.2452 -1.2297  1.3969
  586MOL0     H79049   7.133   8.759   2.150 -2.3330  1.4622  0.7804
  586MOL0     H79050   7.149   8.912   2.076 -2.3955 -0.2582 -1.0391
  586MOL0     H79051   7.319   8.672   2.022 -1.1259  0.0677 -3.9962
  586MOL0     H79052   7.325   8.823   1.932 -2.8759  1.4826  0.4031
  586MOL0     H79053   7.408   8.953   2.109 -2.5607 -0.6391 -0.4642
  586MOL0     H79054   7.367   8.837   2.232  0.2987  0.1137  0.3856
  586MOL0     H79055   7.585   8.801   2.214 -1.9317 -4.1306  2.1076
  586MOL0     H79056   7.528   8.674   2.116 -2.2335  1.0765  0.7048
  586MOL0     H79057   7.641   8.925   1.995 -3.8702  0.3130 -0.2599
  586MOL0     H79058   7.574   8.792   1.900 -0.6286 -0.6876 -0.1751
  586MOL0     H79059   7.810   8.769   2.099 -0.9574 -1.5886  1.6516
  586MOL0     H79060   7.730   8.633   2.011 -1.6361  0.7991  2.3279
  586MOL0     H79061   7.773   8.915   1.758  3.1946  2.6137 -0.3677
  586MOL0     H79062   8.121   8.876   1.594 -0.3787 -1.0853 -0.7552
  586MOL0     H79063   7.954   8.883   1.529  0.3854  1.6968 -1.3132
  586MOL0     H79064   8.078   9.097   1.541  1.9623 -1.0558  1.1142
  586MOL0     H79065   7.915   9.084   1.607  0.8554  0.5288  2.4582
  586MOL0     H79066   7.994   9.081   1.840 -1.3554  0.6237 -0.8973
  586MOL0     H79067   8.037   9.224   1.768 -1.0508  0.0460  2.9801
  586MOL0     H79068   8.221   8.987   1.818 -1.9805 -1.8697 -3.0344
  586MOL0     H79069   8.218   9.158   1.875  0.0118 -0.9699  1.2403
  586MOL0     H79070   8.459   9.079   1.478 -0.2152  1.2786  0.3441
  586MOL0     H79071   8.705   9.088   1.494 -0.1169 -0.1417  1.0137
  586MOL0     H79072   9.103   8.970   1.752 -1.6500 -0.0270 -1.5178
  586MOL0     H79073   9.347   9.002   1.768 -1.9308 -0.8352 -0.1628
  586MOL0     H79074   9.544   9.204   1.823  0.7380 -0.8210  0.8260
  586MOL0     H79075   9.554   9.032   1.768 -0.1383  0.5585  0.0181
  586MOL0     H79076   9.713   9.260   1.658 -4.1313  1.0002  3.7317
  586MOL0     H79077   9.773   9.191   1.794  2.1060 -2.8385  0.5450
  586MOL0     H79078   9.745   8.957   1.667 -1.2238  1.4933  2.2574
  586MOL0     H79079   9.729   9.044   1.528  0.7552  0.4209  0.6957
  586MOL0     H79080   9.968   9.082   1.723 -3.3468  5.2618  1.1805
  586MOL0     H79081   9.932   9.177   1.583 -3.4389  1.5093  1.3328
  586MOL0     H79082   9.980   9.004   1.437 -2.8779 -1.5066 -0.4150
  586MOL0     H79083   9.976   8.871   1.565  0.6158 -0.3985  1.1997
  586MOL0     H79084  10.177   9.090   1.550  1.1697 -0.2182 -1.4581
  586MOL0     H79085  10.174   8.974   1.678  2.0418  0.2697  0.2963
  586MOL0     H79086  10.190   8.871   1.391  0.0090  2.4286 -0.1497
  586MOL0     H79087  10.236   8.776   1.537 -0.9854  0.1795  1.5517
  586MOL0     H79088  10.364   8.996   1.376  0.2794 -1.1374 -1.1004
  586MOL0     H79089  10.425   9.001   1.537  1.8505 -0.2013 -1.1442
  586MOL0     H79090   9.334   9.283   1.447  0.6020 -0.4075 -0.3842
  586MOL0     H79091   9.103   9.241   1.415  2.2719 -0.2671 -1.0401
  586MOL0     H79092   8.665   9.145   1.922 -0.1438  2.2171 -0.5902
  586MOL0     H79093   8.429   9.143   1.906 -0.3968 -0.8524 -0.2219
  586MOL0     H79094   6.643   8.634   2.043  1.8601  0.2982 -0.7854
  586MOL0     H79095   6.396   8.711   2.073  1.4013 -1.5306 -0.1126
  586MOL0     H79096   6.077   8.928   1.937  1.4242  2.5945 -3.0745
  586MOL0     H79097   5.845   8.974   1.915  3.9007 -0.2345 -2.2199
  586MOL0     H79098   5.558   9.194   2.185 -4.3305 -2.4583 -4.1522
  586MOL0     H79099   5.687   9.128   2.290 -0.1276 -1.4230 -0.3517
  586MOL0     H79100   5.464   8.986   2.156  0.6776 -3.9541 -1.9912
  586MOL0     H79101   5.528   8.981   2.325  2.9538  2.2322  0.6321
  586MOL0     H79102   5.662   8.856   2.077  1.1040  1.2684  0.0783
  586MOL0     H79103   5.573   8.771   2.199  0.0667  0.6457 -0.0723
  586MOL0     H79104   5.822   8.935   2.266 -0.2951  0.7606  1.0819
  586MOL0     H79105   5.730   8.832   2.374  1.3765  2.4364 -0.1521
  586MOL0     H79106   6.048   8.648   2.160 -2.3844 -2.9364 -1.2981
  586MOL0     H79107   5.876   9.257   2.231 -0.5618  1.1744 -2.2842
  586MOL0     H79108   6.194   9.325   2.245 -1.9346  3.2339  1.8423
  586MOL0     H79109   6.046   9.310   2.339 -0.0375 -0.2995  1.9795
  586MOL0     H79110   6.179   9.184   2.348  1.5129  0.1650 -1.9906
  587MOL0     O79111   1.596   6.538   6.682 -0.8090  0.2528  0.4407
  587MOL0     C79112   1.551   6.516   6.796 -0.7874 -0.7363  0.1419
  587MOL0     O79113   1.630   6.532   6.906  0.6046 -0.2276 -0.8397
  587MOL0     C79114   1.759   6.499   6.913  0.1299  0.0410 -1.0956
  587MOL0     C79115   1.781   6.375   6.965  0.5249  0.3496 -0.2047
  587MOL0     C79116   1.910   6.325   6.961 -0.1721 -0.6437  0.4832
  587MOL0     C79117   2.019   6.411   6.918 -0.4377 -0.0123 -0.7545
  587MOL0     O79118   2.148   6.355   6.907  0.2650  0.1833 -0.2582
  587MOL0     C79119   2.243   6.412   6.811  0.0911  0.0683  0.2976
  587MOL0     C79120   2.345   6.489   6.898  0.3372 -0.1124 -0.4066
  587MOL0     C79121   2.462   6.540   6.825 -0.4045  0.0242 -0.2283
  587MOL0     C79122   2.420   6.656   6.729 -0.5530  0.6852 -0.2182
  587MOL0     C79123   2.528   6.711   6.645 -0.9659 -0.0113 -0.7448
  587MOL0     C79124   2.509   6.854   6.604 -1.0238 -0.0419 -0.0919
  587MOL0     C79125   2.636   6.907   6.526  0.7836 -0.5772 -0.0581
  587MOL0     C79126   2.615   7.043   6.463 -0.3373 -0.1186  0.3952
  587MOL0     N79127   2.495   7.059   6.384  0.0746  0.3379 -0.0513
  587MOL0     C79128   2.443   7.001   6.270 -0.1941 -0.7069 -0.4338
  587MOL0     C79129   2.324   7.064   6.244 -0.9785 -0.5036 -0.0776
  587MOL0     C79130   2.233   7.036   6.125  0.1943 -0.2018 -0.2407
  587MOL0     C79131   2.080   7.055   6.161  0.9211 -0.0932 -0.1748
  587MOL0     C79132   1.983   7.047   6.037 -0.4766  0.0698  0.0425
  587MOL0     C79133   1.939   6.904   6.015  1.1821 -0.0249 -0.3770
  587MOL0     O79134   2.049   6.817   6.032 -0.8322  0.4816 -0.9184
  587MOL0     C79135   2.052   6.685   6.018  0.3609  0.5971 -0.8277
  587MOL0     C79136   2.186   6.632   6.023 -0.4508  0.1408 -0.6548
  587MOL0     C79137   2.206   6.496   6.000  0.3721 -0.0688 -0.7461
  587MOL0     C79138   2.090   6.415   5.968 -0.4802  0.5728 -0.0127
  587MOL0     C79139   2.113   6.268   5.947 -0.2962  0.5949  0.0573
  587MOL0     O79140   2.051   6.208   5.839 -1.1130 -0.3174  0.5564
  587MOL0     C79141   2.053   6.075   5.807 -0.0982 -0.2640  0.5844
  587MOL0     C79142   2.073   6.043   5.675 -0.2736 -0.1792  0.1139
  587MOL0     C79143   2.102   5.909   5.645 -0.0459 -0.7499  0.1198
  587MOL0     C79144   2.089   5.804   5.735 -0.2542 -0.5302 -0.1807
  587MOL0     O79145   2.122   5.685   5.667 -0.1060 -0.2255 -0.4795
  587MOL0     C79146   2.165   5.579   5.761 -0.2327  0.0609  0.0513
  587MOL0     C79147   2.246   5.492   5.668 -0.6467 -0.2142 -1.0865
  587MOL0     C79148   2.398   5.545   5.675  0.4665  0.1647  0.2775
  587MOL0     C79149   2.494   5.472   5.581 -0.8382 -0.0468 -0.0757
  587MOL0     C79150   2.527   5.330   5.633  0.4006  0.5259 -0.1548
  587MOL0     C79151   2.553   5.320   5.793 -0.7880  0.0662  0.4497
  587MOL0     C79152   2.616   5.186   5.831  0.4450  0.1904  0.7570
  587MOL0     C79153   2.549   5.058   5.776 -1.1250  0.0313 -0.2242
  587MOL0    Cl79154   2.615   4.925   5.868 -0.2195 -0.3310 -0.3050
  587MOL0     C79155   2.052   5.838   5.866 -0.0045  0.2569  0.3572
  587MOL0     C79156   2.044   5.974   5.906 -0.3426 -0.3319 -0.4307
  587MOL0     O79157   2.206   6.218   6.011 -0.0661  0.4008  1.0189
  587MOL0     C79158   1.964   6.473   5.953  0.4299  0.1035  0.5139
  587MOL0     C79159   1.946   6.606   5.976 -0.5525 -0.3267 -0.6614
  587MOL0     N79160   2.308   7.161   6.340 -0.1448  0.2846  0.0162
  587MOL0     N79161   2.404   7.151   6.426 -0.2407 -0.2461 -0.0151
  587MOL0     C79162   1.988   6.536   6.869  0.6265 -0.1913 -0.5934
  587MOL0     C79163   1.857   6.579   6.864  0.8771  0.0460  0.0932
  587MOL0     C79164   1.409   6.480   6.823  0.0326  0.1163  0.3083
  587MOL0     C79165   1.364   6.470   6.958 -0.3101 -0.7853  0.2014
  587MOL0     C79166   1.232   6.440   6.992  0.4740 -0.6335 -0.1226
  587MOL0     C79167   1.137   6.439   6.896 -0.6893 -0.3722 -0.6083
  587MOL0     O79168   1.012   6.416   6.937 -0.4922 -0.0381 -0.1358
  587MOL0     C79169   0.911   6.402   6.838 -0.7598  0.0819 -0.4118
  587MOL0     C79170   0.800   6.331   6.913 -0.7467  0.1366 -0.1214
  587MOL0     C79171   0.689   6.290   6.817  0.5384  0.6586 -0.4334
  587MOL0     C79172   0.591   6.406   6.795  0.2022 -0.1845  0.6481
  587MOL0     C79173   0.481   6.361   6.699  0.0564  0.2840  0.3445
  587MOL0     C79174   0.398   6.327   6.610  0.7495 -0.3177  0.3145
  587MOL0     C79175   1.171   6.458   6.763 -0.9415  0.3283 -0.0224
  587MOL0     C79176   1.306   6.471   6.723 -0.4627  0.1468 -0.7181
  587MOL0     C79177   1.336   6.469   6.573  0.8639  0.5072 -0.3345
  587MOL0     H79178   1.695   6.309   6.975  0.3568  0.2864 -1.7900
  587MOL0     H79179   1.934   6.220   6.976  2.8086 -0.4725 -2.0577
  587MOL0     H79180   2.294   6.333   6.756 -0.0540  0.8145 -0.9442
  587MOL0     H79181   2.189   6.470   6.735 -0.1965 -2.2886 -1.4234
  587MOL0     H79182   2.371   6.432   6.987  0.3066  0.2567 -0.1577
  587MOL0     H79183   2.292   6.575   6.941  2.6469  1.0555  0.3265
  587MOL0     H79184   2.503   6.457   6.765  0.4409  0.0908  0.2307
  587MOL0     H79185   2.529   6.574   6.905  1.3206 -3.5001  0.0371
  587MOL0     H79186   2.354   6.609   6.656  0.0988  0.6419 -0.7839
  587MOL0     H79187   2.375   6.732   6.793  2.8872 -1.6180  5.7972
  587MOL0     H79188   2.613   6.707   6.714 -1.0628  2.0095 -0.4244
  587MOL0     H79189   2.556   6.651   6.559  0.1772  1.7111 -1.6225
  587MOL0     H79190   2.426   6.859   6.534 -0.2523 -3.1702 -1.4273
  587MOL0     H79191   2.484   6.915   6.692  0.5762 -0.9995  1.0986
  587MOL0     H79192   2.663   6.841   6.443  1.9676  2.6041 -2.3663
  587MOL0     H79193   2.721   6.910   6.595  1.3667  3.4683 -0.7429
  587MOL0     H79194   2.615   7.111   6.548 -0.3034 -1.2226  1.3074
  587MOL0     H79195   2.703   7.058   6.400  0.9181 -1.3112  1.7802
  587MOL0     H79196   2.481   6.915   6.217 -0.9061 -0.7672 -0.8607
  587MOL0     H79197   2.248   7.114   6.050  2.3414 -1.2252 -0.9519
  587MOL0     H79198   2.256   6.938   6.082 -0.1341 -0.2980 -0.1999
  587MOL0     H79199   2.048   6.977   6.232  0.9783 -1.0305 -1.1563
  587MOL0     H79200   2.067   7.150   6.213  1.2305 -1.4935  2.6849
  587MOL0     H79201   2.039   7.086   5.951 -0.6505  0.2821  0.0232
  587MOL0     H79202   1.892   7.106   6.052 -1.2750 -1.2021  0.3510
  587MOL0     H79203   1.905   6.886   5.913  1.0929 -3.9697  0.1933
  587MOL0     H79204   1.868   6.870   6.091  2.9741  1.6893  2.2104
  587MOL0     H79205   2.268   6.698   6.049 -1.9588  1.5252  0.8868
  587MOL0     H79206   2.304   6.451   6.007 -0.1294 -1.4171 -2.0378
  587MOL0     H79207   2.064   6.114   5.593  3.0357  1.2390  0.8010
  587MOL0     H79208   2.127   5.897   5.541  0.7548 -1.4759  0.3867
  587MOL0     H79209   2.226   5.615   5.844  1.0733  1.8118 -1.5632
  587MOL0     H79210   2.075   5.530   5.798 -0.8368  0.9053 -0.2684
  587MOL0     H79211   2.241   5.385   5.693 -1.1063  0.8327  4.4528
  587MOL0     H79212   2.217   5.504   5.563 -2.0470  0.4052 -0.6461
  587MOL0     H79213   2.402   5.651   5.647 -1.1072  0.0757 -0.4000
  587MOL0     H79214   2.435   5.544   5.778 -0.2018  0.6020  0.5312
  587MOL0     H79215   2.592   5.520   5.575 -0.1979 -1.2693  0.3608
  587MOL0     H79216   2.465   5.466   5.475 -0.3832  0.4310 -0.2287
  587MOL0     H79217   2.616   5.306   5.574  1.2971  2.8380  0.1192
  587MOL0     H79218   2.447   5.260   5.610  0.1395  0.6949  0.2269
  587MOL0     H79219   2.615   5.408   5.814  0.8511 -0.5411 -1.5468
  587MOL0     H79220   2.455   5.338   5.839  0.0215  4.0227  1.0006
  587MOL0     H79221   2.614   5.183   5.940  3.1726 -2.3109  0.8606
  587MOL0     H79222   2.721   5.182   5.800  0.4413  0.1559  0.7479
  587MOL0     H79223   2.440   5.063   5.785 -1.3645 -2.0795 -1.3390
  587MOL0     H79224   2.577   5.040   5.672 -2.1091 -2.3350 -0.1487
  587MOL0     H79225   2.054   5.779   5.957  1.2828 -1.7405 -0.8936
  587MOL0     H79226   2.036   5.978   6.014  1.9597 -4.0023  0.0457
  587MOL0     H79227   1.884   6.408   5.920  0.6228  0.1579 -0.0609
  587MOL0     H79228   1.845   6.645   5.972 -0.0509  1.1704  0.4401
  587MOL0     H79229   2.066   6.601   6.829 -0.6597  1.6095 -0.3195
  587MOL0     H79230   1.837   6.668   6.805  5.1332  0.2261 -1.4261
  587MOL0     H79231   1.438   6.478   7.036 -0.6313  0.0043  0.4453
  587MOL0     H79232   1.201   6.416   7.093  0.3623 -0.7044 -0.1732
  587MOL0     H79233   0.947   6.342   6.754  1.2639 -0.1131  0.5288
  587MOL0     H79234   0.875   6.500   6.804  0.6582  0.1930 -1.6913
  587MOL0     H79235   0.771   6.389   7.001  0.2780 -0.0301  0.3407
  587MOL0     H79236   0.856   6.243   6.947 -2.8751 -1.5402 -0.7377
  587MOL0     H79237   0.636   6.217   6.878  1.8077  1.4039  1.6664
  587MOL0     H79238   0.724   6.231   6.731  3.1506  0.3376  0.7356
  587MOL0     H79239   0.540   6.451   6.880  0.0524  2.6039 -0.8015
  587MOL0     H79240   0.646   6.487   6.747 -0.3487 -1.2626 -2.0262
  587MOL0     H79241   0.320   6.303   6.541 -0.0208  0.8839  0.7201
  587MOL0     H79242   1.101   6.468   6.680 -1.5218  1.2830  0.5583
  587MOL0     H79243   1.367   6.563   6.527  1.2952  1.0653  1.0178
  587MOL0     H79244   1.416   6.396   6.557  0.9996  0.4302  0.6256
  587MOL0     H79245   1.255   6.429   6.513  0.1545  2.8003 -0.9959
  588MOL0     O79246   3.218   4.973   2.073  0.0941  0.4112 -0.3652
  588MOL0     C79247   3.109   4.914   2.074  0.4814 -0.4873  0.2977
  588MOL0     O79248   3.092   4.783   2.116 -0.4288 -0.0032 -0.2340
  588MOL0     C79249   3.203   4.712   2.159 -0.3192 -0.4811 -0.6303
  588MOL0     C79250   3.251   4.734   2.289  0.0521  0.1794 -0.2010
  588MOL0     C79251   3.355   4.655   2.335  0.0282 -0.3305 -0.1145
  588MOL0     C79252   3.413   4.552   2.261 -0.3168  0.1558 -1.3578
  588MOL0     O79253   3.515   4.462   2.308  0.1106  0.2102 -0.1310
  588MOL0     C79254   3.582   4.484   2.430 -0.2712  0.2282  0.3013
  588MOL0     C79255   3.726   4.425   2.420  0.3761 -0.0736  0.0554
  588MOL0     C79256   3.813   4.506   2.324 -0.1953  0.6629  0.1488
  588MOL0     C79257   3.933   4.426   2.269  0.2811  0.5536  0.1840
  588MOL0     C79258   3.996   4.476   2.140  0.2460 -0.2563 -1.1891
  588MOL0     C79259   4.063   4.611   2.165 -0.5041  0.7434 -0.0002
  588MOL0     C79260   4.153   4.657   2.048 -0.1551  0.7751  1.1080
  588MOL0     C79261   4.218   4.789   2.076 -0.3885  0.2850  0.6108
  588MOL0     N79262   4.312   4.828   1.969  0.0646  0.0402  0.3385
  588MOL0     C79263   4.407   4.748   1.905 -0.2035 -0.9598  0.0401
  588MOL0     C79264   4.450   4.825   1.797 -0.1117 -0.3967  0.8312
  588MOL0     C79265   4.569   4.786   1.718  0.4552 -0.0123  1.2752
  588MOL0     C79266   4.700   4.849   1.753  0.2981  0.6776 -0.0662
  588MOL0     C79267   4.748   4.812   1.897  0.1187  1.1646 -0.4829
  588MOL0     C79268   4.884   4.874   1.934 -0.3399  0.6899 -0.0391
  588MOL0     O79269   4.990   4.787   1.888  0.2483 -0.0028 -0.2540
  588MOL0     C79270   5.111   4.838   1.894  0.8526 -0.8685  0.2131
  588MOL0     C79271   5.206   4.749   1.849  0.0016  0.5734 -0.2383
  588MOL0     C79272   5.336   4.784   1.829  0.0177 -0.5875 -0.2791
  588MOL0     C79273   5.383   4.911   1.867 -0.1040 -0.7090 -0.7745
  588MOL0     C79274   5.525   4.944   1.858  0.1744  0.2372  0.3950
  588MOL0     O79275   5.599   4.844   1.813  0.1084  0.0519  0.3067
  588MOL0     C79276   5.736   4.871   1.795  0.0993  0.5482  0.2280
  588MOL0     C79277   5.774   4.943   1.678 -0.0687 -0.4842  0.0677
  588MOL0     C79278   5.907   4.947   1.638  0.4653  0.0300 -0.0341
  588MOL0     C79279   6.006   4.898   1.722  0.6977  0.5951 -0.1952
  588MOL0     O79280   6.128   4.926   1.681 -0.0380  0.1236 -0.2487
  588MOL0     C79281   6.233   4.836   1.699  0.0161  0.4095 -0.1689
  588MOL0     C79282   6.353   4.874   1.608  0.2043 -0.1667 -0.9168
  588MOL0     C79283   6.474   4.794   1.646 -0.4473 -0.2177 -1.0200
  588MOL0     C79284   6.595   4.827   1.553 -0.3539 -0.9252 -0.6929
  588MOL0     C79285   6.724   4.772   1.608  0.2594 -0.2594  0.2305
  588MOL0     C79286   6.859   4.814   1.541 -0.2181  0.6894  0.7645
  588MOL0     C79287   6.855   4.769   1.389  0.4740 -0.0606 -0.8127
  588MOL0     C79288   6.998   4.788   1.329  0.0038  0.2564  0.7826
  588MOL0    Cl79289   6.997   4.688   1.197 -0.0565 -0.0200  0.0315
  588MOL0     C79290   5.973   4.838   1.842 -0.6309 -1.0566 -0.3049
  588MOL0     C79291   5.839   4.836   1.878  0.5527  0.1169 -0.1213
  588MOL0     O79292   5.569   5.056   1.883 -0.5750 -0.5451 -0.7916
  588MOL0     C79293   5.293   5.004   1.922 -0.5820  0.4502  0.0366
  588MOL0     C79294   5.157   4.967   1.932  0.6892 -0.1161 -0.4508
  588MOL0     N79295   4.390   4.954   1.816 -0.2475 -0.3397  0.1897
  588MOL0     N79296   4.305   4.952   1.911 -0.2256  0.9808 -0.2168
  588MOL0     C79297   3.371   4.538   2.125 -0.0460 -0.7438  0.1249
  588MOL0     C79298   3.259   4.612   2.078 -0.4047 -0.2578 -0.1067
  588MOL0     C79299   2.986   4.991   2.032  0.3673  0.6987  0.5792
  588MOL0     C79300   2.865   4.931   2.073 -0.7072  0.7432  0.2354
  588MOL0     C79301   2.740   4.992   2.033 -0.5956  0.1944 -0.1119
  588MOL0     C79302   2.745   5.112   1.965 -0.0176 -0.6809 -0.1770
  588MOL0     O79303   2.638   5.181   1.924 -0.0027 -0.1557 -0.0169
  588MOL0     C79304   2.534   5.195   2.014 -0.3343 -0.6816  0.5531
  588MOL0     C79305   2.444   5.312   1.966 -0.6989  0.0747 -0.1089
  588MOL0     C79306   2.506   5.427   1.891  0.5470 -0.1912  0.8678
  588MOL0     C79307   2.399   5.535   1.856  0.3682  0.1838  0.8582
  588MOL0     C79308   2.357   5.605   1.983 -0.0674  0.5189 -0.1951
  588MOL0     C79309   2.325   5.647   2.094  0.2420 -0.6108  0.0698
  588MOL0     C79310   2.867   5.172   1.930 -0.2729 -0.0703  1.2016
  588MOL0     C79311   2.988   5.112   1.955 -0.5233  0.4551  0.1433
  588MOL0     C79312   3.101   5.196   1.922 -0.8431  0.0112 -0.3053
  588MOL0     H79313   3.193   4.811   2.340  0.1059 -1.0999  1.9258
  588MOL0     H79314   3.378   4.676   2.439  1.4144  2.8841 -0.9394
  588MOL0     H79315   3.596   4.590   2.449 -0.6811 -0.1486  3.1115
  588MOL0     H79316   3.540   4.436   2.519  1.2609 -2.3632 -0.2487
  588MOL0     H79317   3.729   4.319   2.393  3.1261 -0.3241  1.0825
  588MOL0     H79318   3.771   4.434   2.520 -1.0822 -1.0563  0.8468
  588MOL0     H79319   3.855   4.597   2.368  0.5807  0.6352 -0.5161
  588MOL0     H79320   3.753   4.540   2.239  1.3508  2.9679 -0.0958
  588MOL0     H79321   4.005   4.426   2.351  2.4464  0.8116 -1.6151
  588MOL0     H79322   3.912   4.322   2.244  2.6673 -0.1456  0.8046
  588MOL0     H79323   4.072   4.404   2.110 -0.0749 -1.3855  0.6095
  588MOL0     H79324   3.919   4.479   2.062 -0.2922  0.9289 -0.6381
  588MOL0     H79325   3.983   4.684   2.175 -0.7804  1.4769 -4.8884
  588MOL0     H79326   4.121   4.614   2.257 -1.7078  1.6672  0.7498
  588MOL0     H79327   4.090   4.664   1.959  1.0645 -3.8336 -0.3995
  588MOL0     H79328   4.220   4.573   2.026 -3.5434 -1.7063 -0.6486
  588MOL0     H79329   4.147   4.870   2.094  0.5709  1.1864  0.4581
  588MOL0     H79330   4.277   4.774   2.167  1.6339 -0.5781 -0.7780
  588MOL0     H79331   4.448   4.657   1.947  1.4196 -1.3647 -2.2126
  588MOL0     H79332   4.566   4.678   1.735 -1.7788 -0.7653 -2.6470
  588MOL0     H79333   4.540   4.815   1.616 -2.5010  1.7483  2.4780
  588MOL0     H79334   4.774   4.813   1.681  0.1845 -1.1461  0.6586
  588MOL0     H79335   4.703   4.958   1.747 -1.1801  0.6983 -0.8341
  588MOL0     H79336   4.757   4.703   1.903  1.2848  1.2350 -0.7327
  588MOL0     H79337   4.665   4.844   1.961  0.0490  1.0591 -0.5192
  588MOL0     H79338   4.886   4.901   2.040  0.4594  0.9951 -0.1230
  588MOL0     H79339   4.899   4.977   1.898 -0.3273  0.6012 -0.2866
  588MOL0     H79340   5.176   4.650   1.816 -2.3655  1.1765 -0.1025
  588MOL0     H79341   5.402   4.714   1.779 -0.1637  0.1673 -1.6192
  588MOL0     H79342   5.694   4.988   1.621 -2.1577 -0.4667  2.8150
  588MOL0     H79343   5.930   4.995   1.543  1.7011 -1.4830 -0.5518
  588MOL0     H79344   6.278   4.844   1.798  1.5336  1.3013 -0.8906
  588MOL0     H79345   6.196   4.737   1.672 -2.5477  1.4094 -0.6195
  588MOL0     H79346   6.321   4.849   1.506  3.5341 -3.1689 -1.4068
  588MOL0     H79347   6.370   4.981   1.621 -1.2952  0.1473 -1.2778
  588MOL0     H79348   6.501   4.825   1.748 -3.1688  1.4825 -0.6939
  588MOL0     H79349   6.453   4.687   1.645  0.9611 -0.5819  1.4356
  588MOL0     H79350   6.600   4.934   1.535 -1.6108 -0.3143  2.0528
  588MOL0     H79351   6.589   4.779   1.454 -0.0597  3.8185 -3.2736
  588MOL0     H79352   6.711   4.667   1.583 -1.1557 -0.1301  0.3345
  588MOL0     H79353   6.727   4.779   1.717  0.2659 -1.1574  0.2874
  588MOL0     H79354   6.900   4.915   1.553  0.2640  0.9279 -2.1090
  588MOL0     H79355   6.931   4.752   1.595 -0.4004 -1.5320 -1.3282
  588MOL0     H79356   6.797   4.833   1.321  0.8972  0.0497 -1.0747
  588MOL0     H79357   6.810   4.670   1.379 -1.2481  0.5175  0.6242
  588MOL0     H79358   7.022   4.887   1.289  0.4900  1.1953  3.2407
  588MOL0     H79359   7.082   4.745   1.384  1.3472  1.0337 -0.5905
  588MOL0     H79360   6.048   4.799   1.909 -0.1724 -0.0830 -0.2365
  588MOL0     H79361   5.807   4.789   1.970  0.1908  2.2780  0.9324
  588MOL0     H79362   5.331   5.096   1.966  1.7941  0.7617 -2.4490
  588MOL0     H79363   5.092   5.042   1.977  1.5612 -0.3689  1.3238
  588MOL0     H79364   3.418   4.466   2.059 -0.0094  0.3195 -1.0307
  588MOL0     H79365   3.228   4.596   1.975  1.4710  0.7601 -0.8759
  588MOL0     H79366   2.858   4.841   2.134  3.3274 -0.0449 -0.2314
  588MOL0     H79367   2.648   4.935   2.038  0.1901 -1.6168 -3.4511
  588MOL0     H79368   2.571   5.211   2.116  2.0195  2.8115 -0.6780
  588MOL0     H79369   2.478   5.102   2.005 -2.5753  0.7540 -1.3868
  588MOL0     H79370   2.387   5.332   2.057 -0.4156 -3.0708  0.8913
  588MOL0     H79371   2.374   5.275   1.891 -1.4219 -0.6140  0.8757
  588MOL0     H79372   2.544   5.386   1.797  1.1532 -0.2003  1.1138
  588MOL0     H79373   2.585   5.481   1.944 -1.7485  1.2909  3.0242
  588MOL0     H79374   2.437   5.610   1.786  0.9369 -0.1277  0.8277
  588MOL0     H79375   2.318   5.486   1.801  0.6761  0.1402  0.4363
  588MOL0     H79376   2.295   5.672   2.194 -1.3605  0.8898 -0.7321
  588MOL0     H79377   2.861   5.272   1.889  0.4722 -0.6171 -0.3181
  588MOL0     H79378   3.075   5.302   1.910  1.9575  1.0446  1.6893
  588MOL0     H79379   3.172   5.211   2.004  2.1205  0.1596 -2.6690
  588MOL0     H79380   3.145   5.152   1.832  0.4269  1.8950 -0.6633
  589MOL0     O79381   2.939   0.598   5.713 -0.4935 -0.2510 -0.0471
  589MOL0     C79382   3.020   0.632   5.623 -0.5645  0.2096  0.0804
  589MOL0     O79383   2.986   0.644   5.492 -0.0805  0.1977 -0.7220
  589MOL0     C79384   2.861   0.680   5.445  0.6623  0.1572 -1.0581
  589MOL0     C79385   2.758   0.749   5.513  0.4918  0.4358  0.6667
  589MOL0     C79386   2.641   0.793   5.439 -0.5596  0.2162  0.1426
  589MOL0     C79387   2.622   0.765   5.303  0.3037  0.2274 -1.5170
  589MOL0     O79388   2.507   0.818   5.246  0.0666 -0.0283 -0.5451
  589MOL0     C79389   2.475   0.765   5.114 -0.1633  0.2339 -0.4141
  589MOL0     C79390   2.348   0.834   5.067  0.8699 -0.5195 -0.4819
  589MOL0     C79391   2.298   0.773   4.945  0.5112 -0.0649 -0.5685
  589MOL0     C79392   2.178   0.847   4.888 -0.7999 -0.8562 -0.3569
  589MOL0     C79393   2.101   0.740   4.798  0.4260 -0.0963 -0.1636
  589MOL0     C79394   2.175   0.717   4.662  0.0948 -0.8131 -0.1626
  589MOL0     C79395   2.084   0.770   4.544  0.1114  0.0342 -0.0652
  589MOL0     C79396   2.153   0.764   4.405  0.3269 -1.3524  0.1302
  589MOL0     N79397   2.283   0.832   4.399 -0.5870 -0.0763 -0.1199
  589MOL0     C79398   2.409   0.777   4.410  0.4770 -0.9456 -0.2927
  589MOL0     C79399   2.498   0.878   4.408 -0.9117  0.2896  0.3986
  589MOL0     C79400   2.651   0.861   4.416 -0.6657  0.2717  0.1410
  589MOL0     C79401   2.714   0.860   4.557  0.9399 -0.6237  0.2068
  589MOL0     C79402   2.658   0.973   4.636  0.5979 -0.4436  0.0263
  589MOL0     C79403   2.747   0.997   4.759  0.0739 -0.0336  0.4424
  589MOL0     O79404   2.765   0.880   4.844  0.1991 -0.1943  0.4120
  589MOL0     C79405   2.867   0.887   4.938 -0.5423 -0.5161 -0.2547
  589MOL0     C79406   2.935   0.773   4.974 -0.5657 -0.5009 -0.1512
  589MOL0     C79407   3.050   0.779   5.053 -0.2556  0.1059 -0.8268
  589MOL0     C79408   3.090   0.894   5.117  0.4311  0.0118 -0.7588
  589MOL0     C79409   3.195   0.881   5.227  0.7201 -0.3110  1.7800
  589MOL0     O79410   3.235   0.988   5.286 -0.1612  0.1575 -0.4247
  589MOL0     C79411   3.349   0.988   5.357  0.5320 -0.3374 -0.1564
  589MOL0     C79412   3.457   1.054   5.308 -0.3167  0.2538  0.1688
  589MOL0     C79413   3.578   1.053   5.381 -0.5488 -0.6652  0.4027
  589MOL0     C79414   3.588   0.983   5.507 -0.3949  0.0141  0.0635
  589MOL0     O79415   3.712   1.004   5.571 -0.1403  0.2390 -0.0923
  589MOL0     C79416   3.755   0.925   5.684 -0.0950 -0.2660  0.3319
  589MOL0     C79417   3.903   0.949   5.707  0.5909 -0.9396  0.1971
  589MOL0     C79418   3.991   0.936   5.584 -0.5401 -0.0352 -0.6023
  589MOL0     C79419   4.133   0.954   5.629 -0.5141  0.1748  0.7021
  589MOL0     C79420   4.229   0.958   5.515 -0.2239 -0.7569  0.1234
  589MOL0     C79421   4.237   0.830   5.438 -0.6615  0.4743  0.3119
  589MOL0     C79422   4.337   0.823   5.324 -0.1473 -1.1081 -0.0158
  589MOL0     C79423   4.354   0.668   5.283  1.6281 -0.0819  0.0538
  589MOL0    Cl79424   4.376   0.651   5.105 -0.2322  1.1691 -0.1005
  589MOL0     C79425   3.478   0.913   5.553 -0.1527  0.5388 -0.0609
  589MOL0     C79426   3.356   0.922   5.482  0.5898 -0.5240  0.1485
  589MOL0     O79427   3.248   0.775   5.235  0.8832  0.9118 -0.7726
  589MOL0     C79428   3.022   1.013   5.087  0.6494 -0.1019  0.4576
  589MOL0     C79429   2.907   1.008   5.000 -1.1950 -0.7427  0.3843
  589MOL0     N79430   2.426   0.999   4.399  1.0528  0.2096  0.1372
  589MOL0     N79431   2.296   0.969   4.392 -0.5566 -0.0703  0.1340
  589MOL0     C79432   2.720   0.688   5.239 -0.3405  1.2645 -0.1231
  589MOL0     C79433   2.837   0.650   5.311  0.2744  0.4594  0.3958
  589MOL0     C79434   3.164   0.633   5.662 -0.2698  0.2988 -0.6316
  589MOL0     C79435   3.253   0.566   5.583 -0.7457  0.8870 -0.1541
  589MOL0     C79436   3.390   0.547   5.616  0.7547 -0.2366 -0.0733
  589MOL0     C79437   3.437   0.607   5.730  0.0588  0.6258  0.3421
  589MOL0     O79438   3.563   0.582   5.770 -0.3784  0.1282 -0.5300
  589MOL0     C79439   3.600   0.442   5.760 -0.5490 -0.1476 -0.1944
  589MOL0     C79440   3.720   0.415   5.665  0.1762  0.6523 -1.0514
  589MOL0     C79441   3.844   0.470   5.727 -0.6945  0.2503 -0.3145
  589MOL0     C79442   3.961   0.469   5.623 -1.1377  0.2669  0.0342
  589MOL0     C79443   4.087   0.487   5.695  0.0924  0.0891 -0.2640
  589MOL0     C79444   4.193   0.482   5.757  0.0514 -0.1342  0.8238
  589MOL0     C79445   3.350   0.678   5.809 -0.9408 -0.1565  0.3479
  589MOL0     C79446   3.218   0.699   5.777  1.4571 -0.3162  0.1916
  589MOL0     C79447   3.132   0.782   5.871 -0.3141 -0.2568 -0.1629
  589MOL0     H79448   2.783   0.767   5.617  3.1099 -3.5877  0.9525
  589MOL0     H79449   2.579   0.861   5.497  1.4483  1.9333  0.4076
  589MOL0     H79450   2.556   0.774   5.042  1.0571  0.1823  0.9099
  589MOL0     H79451   2.450   0.658   5.114 -2.2856  0.6714  0.1475
  589MOL0     H79452   2.386   0.932   5.036 -1.1533  0.5209  0.2005
  589MOL0     H79453   2.271   0.842   5.144  0.9291  1.2291 -0.5639
  589MOL0     H79454   2.272   0.673   4.983  0.7716  0.7821  2.0533
  589MOL0     H79455   2.380   0.769   4.873 -0.5245  2.1534 -1.9838
  589MOL0     H79456   2.110   0.874   4.969 -0.1058  0.6148 -0.2341
  589MOL0     H79457   2.214   0.935   4.835 -5.5471  1.8832  0.4145
  589MOL0     H79458   2.100   0.647   4.856  3.3802  2.2092  4.1335
  589MOL0     H79459   1.999   0.770   4.773  0.5801 -1.7375 -3.2799
  589MOL0     H79460   2.271   0.770   4.655 -1.0728  2.1528  3.0924
  589MOL0     H79461   2.192   0.609   4.657 -1.1137 -1.4478  4.4406
  589MOL0     H79462   2.055   0.873   4.567  0.2974  0.0157  0.2580
  589MOL0     H79463   1.995   0.709   4.526  0.2430  0.3813 -2.2257
  589MOL0     H79464   2.162   0.659   4.376  1.0807 -0.5072 -3.0384
  589MOL0     H79465   2.087   0.816   4.335  2.1514  3.0050  1.3223
  589MOL0     H79466   2.444   0.676   4.423 -0.1274 -0.9475  1.5857
  589MOL0     H79467   2.682   0.769   4.366 -2.8969  0.3613 -1.5886
  589MOL0     H79468   2.695   0.943   4.358 -2.0191  1.8934  1.2982
  589MOL0     H79469   2.695   0.770   4.616  3.1216  0.2814  2.5102
  589MOL0     H79470   2.823   0.872   4.552  0.6021  3.0473 -2.7424
  589MOL0     H79471   2.560   0.945   4.676  0.5444  1.6034  1.4869
  589MOL0     H79472   2.652   1.064   4.577  5.1279  1.4863  2.0872
  589MOL0     H79473   2.729   1.089   4.816  1.4099 -0.5819  1.8119
  589MOL0     H79474   2.842   1.024   4.713 -0.6021 -0.5325 -1.3428
  589MOL0     H79475   2.908   0.674   4.938 -2.7717  0.9029 -2.7635
  589MOL0     H79476   3.096   0.682   5.069 -4.5676 -1.6713  3.1777
  589MOL0     H79477   3.449   1.106   5.214  0.0493  1.4021  0.7501
  589MOL0     H79478   3.663   1.116   5.356 -1.5562  0.0447 -1.4189
  589MOL0     H79479   3.694   0.929   5.775  0.1942  1.6473  0.5018
  589MOL0     H79480   3.749   0.818   5.663  1.0824 -0.2543 -0.0884
  589MOL0     H79481   3.920   1.044   5.759 -2.0808 -0.9335  1.2164
  589MOL0     H79482   3.933   0.866   5.773  0.8193 -3.7278 -3.1585
  589MOL0     H79483   3.974   0.836   5.544  0.1083 -1.5347  2.5737
  589MOL0     H79484   3.967   1.007   5.504 -0.9862  1.2351  0.6173
  589MOL0     H79485   4.162   0.873   5.697  0.9570 -0.3002 -0.4432
  589MOL0     H79486   4.149   1.039   5.696 -2.5944  0.5980  0.7195
  589MOL0     H79487   4.329   0.992   5.543 -0.6005  3.9870 -3.0926
  589MOL0     H79488   4.193   1.040   5.451  4.2180 -0.4573 -2.4152
  589MOL0     H79489   4.273   0.755   5.509 -2.2099  0.2341  0.8784
  589MOL0     H79490   4.137   0.803   5.404 -0.3317 -0.0064 -0.2947
  589MOL0     H79491   4.431   0.865   5.363  1.3933 -3.3599 -1.0810
  589MOL0     H79492   4.305   0.889   5.243 -0.4736 -2.8209 -1.3496
  589MOL0     H79493   4.433   0.624   5.344 -0.6252 -2.9987  1.1216
  589MOL0     H79494   4.262   0.614   5.309  2.1389 -0.1665  1.8334
  589MOL0     H79495   3.482   0.856   5.645 -2.3129  1.0721  0.4066
  589MOL0     H79496   3.268   0.880   5.528 -1.9101  0.7197 -3.0852
  589MOL0     H79497   3.054   1.107   5.131 -0.5100  0.0889  0.9496
  589MOL0     H79498   2.865   1.103   4.968  2.2477  0.4821 -0.9880
  589MOL0     H79499   2.713   0.663   5.133 -0.6749 -0.6895  0.3218
  589MOL0     H79500   2.913   0.591   5.260  0.8320  0.3809  1.2916
  589MOL0     H79501   3.207   0.522   5.495  0.0791 -1.7934  0.6466
  589MOL0     H79502   3.456   0.481   5.560 -0.7416 -1.2311 -0.7297
  589MOL0     H79503   3.521   0.371   5.734 -0.5679 -0.0508 -0.4091
  589MOL0     H79504   3.632   0.399   5.855 -3.0621  2.6969  2.0959
  589MOL0     H79505   3.705   0.454   5.564 -2.0004 -0.6498 -1.2826
  589MOL0     H79506   3.733   0.306   5.665 -1.2607  0.4335  0.5205
  589MOL0     H79507   3.875   0.424   5.821  1.0056  3.9229  1.1212
  589MOL0     H79508   3.841   0.577   5.750  2.1339  0.1062  1.0579
  589MOL0     H79509   3.942   0.379   5.564  0.2765 -0.6448  0.9221
  589MOL0     H79510   3.950   0.557   5.560  1.1431 -0.2247 -1.1283
  589MOL0     H79511   4.288   0.492   5.805  1.8399 -1.8102 -2.0773
  589MOL0     H79512   3.380   0.721   5.905  0.9357  1.8079 -1.0146
  589MOL0     H79513   3.108   0.731   5.965 -0.0315 -3.0595 -1.5061
  589MOL0     H79514   3.185   0.877   5.887 -0.3338 -0.3518  0.5290
  589MOL0     H79515   3.034   0.813   5.835 -1.1401 -1.1632  1.1966
  590MOL0     O79516   4.994   4.446   6.859  0.3755 -0.2114 -0.3511
  590MOL0     C79517   5.029   4.411   6.972  0.6320 -0.7085  0.0813
  590MOL0     O79518   5.150   4.369   7.006 -0.0463 -0.6304  0.0500
  590MOL0     C79519   5.248   4.361   6.907  0.5547 -0.1525 -0.0966
  590MOL0     C79520   5.233   4.296   6.782  0.2493  0.0155 -0.3974
  590MOL0     C79521   5.342   4.319   6.689 -0.5068 -1.1963 -0.6877
  590MOL0     C79522   5.462   4.377   6.715 -0.6040  0.1524 -0.0010
  590MOL0     O79523   5.580   4.390   6.639 -0.1558 -0.5293  0.4510
  590MOL0     C79524   5.578   4.356   6.500  0.4860 -0.7515  0.1434
  590MOL0     C79525   5.718   4.391   6.446 -0.0472  0.2271 -0.6744
  590MOL0     C79526   5.819   4.272   6.466 -0.5462  0.0266 -0.4629
  590MOL0     C79527   5.968   4.324   6.473  0.0036 -0.0386 -0.5404
  590MOL0     C79528   6.076   4.213   6.475 -0.2298  1.1369  0.2921
  590MOL0     C79529   6.186   4.257   6.571 -0.6320  0.3347  1.1769
  590MOL0     C79530   6.315   4.169   6.586  0.9035  0.9730  0.8973
  590MOL0     C79531   6.407   4.211   6.692 -0.1020 -1.1162 -1.3318
  590MOL0     N79532   6.512   4.109   6.701 -0.9531  0.9691  0.2634
  590MOL0     C79533   6.529   3.984   6.766  0.2178  0.6146 -0.1483
  590MOL0     C79534   6.643   3.926   6.735 -0.2876 -0.0176  0.3612
  590MOL0     C79535   6.677   3.783   6.779  0.6337  0.2628  1.2309
  590MOL0     C79536   6.608   3.722   6.909  0.2259  0.7166  0.0080
  590MOL0     C79537   6.683   3.622   7.003  0.1099  0.1176  0.0580
  590MOL0     C79538   6.826   3.658   7.047 -0.3857 -0.9261  0.2935
  590MOL0     O79539   6.891   3.543   7.104  0.5939 -0.0367 -0.4161
  590MOL0     C79540   7.024   3.554   7.143  0.0351  0.1437 -0.5294
  590MOL0     C79541   7.065   3.458   7.232  0.6217 -0.4738  0.6259
  590MOL0     C79542   7.192   3.458   7.283  0.5461  0.4503 -0.3407
  590MOL0     C79543   7.281   3.559   7.253 -0.5126  1.0531  0.0628
  590MOL0     C79544   7.423   3.550   7.293  0.2772  0.4183  0.7717
  590MOL0     O79545   7.505   3.650   7.242  0.1880 -0.1946  0.2594
  590MOL0     C79546   7.641   3.663   7.264 -0.8922 -0.9091 -0.0706
  590MOL0     C79547   7.713   3.594   7.363 -0.5492  1.2459  0.3112
  590MOL0     C79548   7.851   3.617   7.380 -0.7057 -0.4679  0.2813
  590MOL0     C79549   7.931   3.693   7.293  0.5199  1.6228  0.5020
  590MOL0     O79550   8.068   3.692   7.284  0.2451  0.0196 -0.4902
  590MOL0     C79551   8.137   3.725   7.410  0.5586  0.0426  0.8983
  590MOL0     C79552   8.248   3.825   7.378  0.5534  0.4393 -0.0789
  590MOL0     C79553   8.352   3.783   7.279 -0.0990 -0.0257 -0.3483
  590MOL0     C79554   8.456   3.890   7.277  0.3806 -0.1395  0.0599
  590MOL0     C79555   8.573   3.851   7.180 -0.6924 -0.4476 -0.7932
  590MOL0     C79556   8.705   3.933   7.206 -0.9654 -0.1818 -0.4002
  590MOL0     C79557   8.669   4.081   7.162 -0.6246 -0.0998  0.5496
  590MOL0     C79558   8.803   4.167   7.156  0.0269 -0.1801 -0.1037
  590MOL0    Cl79559   8.899   4.160   7.302  0.1889 -0.1692  0.0289
  590MOL0     C79560   7.858   3.756   7.189  0.6937 -0.2860 -0.0399
  590MOL0     C79561   7.717   3.747   7.181  0.2449  1.2039 -0.0540
  590MOL0     O79562   7.457   3.458   7.364 -0.4153  0.3196 -0.1040
  590MOL0     C79563   7.238   3.661   7.166  0.1686  0.3602 -0.7774
  590MOL0     C79564   7.112   3.663   7.108  0.4096 -0.3862  0.4376
  590MOL0     N79565   6.716   4.013   6.656  0.7718 -0.0159  0.0557
  590MOL0     N79566   6.636   4.120   6.640  0.1146  0.0095 -0.0305
  590MOL0     C79567   5.472   4.428   6.846 -0.5008  0.7508 -0.5570
  590MOL0     C79568   5.367   4.424   6.937 -0.0794  0.1720 -0.6098
  590MOL0     C79569   4.921   4.401   7.080 -0.0853 -0.3279  0.3343
  590MOL0     C79570   4.910   4.287   7.164 -0.7394 -0.0993  0.3260
  590MOL0     C79571   4.810   4.272   7.259  0.1027  0.2960 -0.2575
  590MOL0     C79572   4.718   4.378   7.276 -1.1302 -0.1037  0.1109
  590MOL0     O79573   4.631   4.370   7.386  0.6361  0.3214  0.1742
  590MOL0     C79574   4.488   4.382   7.349 -0.4042 -0.3521 -0.6120
  590MOL0     C79575   4.447   4.250   7.288  0.5783  0.4468  0.8091
  590MOL0     C79576   4.299   4.258   7.239 -1.5547  0.2316 -0.3659
  590MOL0     C79577   4.269   4.376   7.146  0.5797  0.3551  0.3723
  590MOL0     C79578   4.123   4.356   7.115  0.6453 -0.8737 -0.5969
  590MOL0     C79579   4.002   4.351   7.099 -0.0853  0.3991  0.0995
  590MOL0     C79580   4.728   4.490   7.201 -0.2687  0.7422 -0.1554
  590MOL0     C79581   4.825   4.499   7.096 -0.4380  0.1306  0.3029
  590MOL0     C79582   4.808   4.610   7.009 -0.5998 -0.4794 -0.2848
  590MOL0     H79583   5.143   4.237   6.765 -1.6276  1.9269  2.1573
  590MOL0     H79584   5.326   4.277   6.590 -0.5786 -1.4205 -0.5829
  590MOL0     H79585   5.559   4.250   6.479  1.1149 -0.4670 -2.0334
  590MOL0     H79586   5.502   4.420   6.454  0.1131  1.6274  3.6684
  590MOL0     H79587   5.751   4.473   6.510  0.1120  0.2301 -0.7606
  590MOL0     H79588   5.727   4.426   6.343  0.2511 -0.6083 -0.9389
  590MOL0     H79589   5.806   4.193   6.392  1.0064 -0.1999 -0.5259
  590MOL0     H79590   5.792   4.229   6.563  0.5436 -0.6454 -0.4386
  590MOL0     H79591   5.987   4.398   6.395  3.2674  1.1161  1.2024
  590MOL0     H79592   5.971   4.383   6.565 -0.3352 -0.4231 -0.2778
  590MOL0     H79593   6.033   4.120   6.511 -0.8356  1.4421  0.3796
  590MOL0     H79594   6.111   4.191   6.374  0.8680  1.8234  0.4987
  590MOL0     H79595   6.217   4.356   6.534  0.4404 -1.4872 -3.6393
  590MOL0     H79596   6.134   4.258   6.667 -3.4861 -3.8010 -0.0548
  590MOL0     H79597   6.360   4.147   6.489 -1.3722 -1.4445  0.2770
  590MOL0     H79598   6.283   4.070   6.622 -0.1324  2.2873  3.9239
  590MOL0     H79599   6.436   4.317   6.685 -1.1621 -0.6854  0.3841
  590MOL0     H79600   6.347   4.192   6.781  0.2436 -2.8286 -1.4318
  590MOL0     H79601   6.455   3.934   6.828 -0.4906  0.4495 -1.1162
  590MOL0     H79602   6.635   3.729   6.693 -2.9055  1.1677  2.2159
  590MOL0     H79603   6.785   3.767   6.778  0.4905 -0.8343  2.0549
  590MOL0     H79604   6.569   3.802   6.974 -0.7430  1.0992 -1.0011
  590MOL0     H79605   6.520   3.664   6.880 -0.9472  1.9408  0.9792
  590MOL0     H79606   6.705   3.530   6.948  2.1650  0.2176  0.6415
  590MOL0     H79607   6.620   3.611   7.091  1.4440  2.7377  1.4669
  590MOL0     H79608   6.825   3.746   7.112  1.6092  1.0034 -2.0635
  590MOL0     H79609   6.883   3.691   6.959 -3.0779 -2.7626 -2.3472
  590MOL0     H79610   6.996   3.377   7.253 -0.2941 -1.3627 -4.5256
  590MOL0     H79611   7.216   3.374   7.347 -0.3774 -0.6051 -1.3469
  590MOL0     H79612   7.665   3.531   7.436 -0.9357  0.9461 -0.1965
  590MOL0     H79613   7.908   3.578   7.464 -0.3325  3.2019  1.9434
  590MOL0     H79614   8.070   3.777   7.479 -1.7796  1.4478 -2.1994
  590MOL0     H79615   8.188   3.636   7.449  0.9660 -1.8353 -3.3807
  590MOL0     H79616   8.197   3.918   7.353 -2.2277 -0.9883 -0.0713
  590MOL0     H79617   8.295   3.835   7.476 -0.5129 -3.3447  0.9760
  590MOL0     H79618   8.383   3.679   7.296 -3.1127 -0.5947  2.8612
  590MOL0     H79619   8.321   3.785   7.174 -1.6956  1.9446  0.0932
  590MOL0     H79620   8.508   3.903   7.372 -0.9650 -0.6206  0.8980
  590MOL0     H79621   8.414   3.989   7.258  1.2755  0.6100  1.8018
  590MOL0     H79622   8.538   3.844   7.077  1.0552  0.4803 -1.4924
  590MOL0     H79623   8.605   3.748   7.193  0.2213 -0.2462 -1.3685
  590MOL0     H79624   8.736   3.931   7.311  0.2409  1.9170 -0.6454
  590MOL0     H79625   8.785   3.885   7.150  0.9066  0.8400  1.2751
  590MOL0     H79626   8.614   4.129   7.243  0.7667 -1.0497  2.1317
  590MOL0     H79627   8.613   4.074   7.069 -0.1761  0.4582  0.2313
  590MOL0     H79628   8.859   4.147   7.064 -2.7021  2.7652 -2.6635
  590MOL0     H79629   8.771   4.272   7.151 -0.4893 -0.1592  2.3917
  590MOL0     H79630   7.912   3.841   7.148 -1.1408  1.3611  0.7641
  590MOL0     H79631   7.666   3.809   7.107 -0.8676  1.4057  0.8528
  590MOL0     H79632   7.298   3.746   7.138  1.8171 -0.9441 -1.3392
  590MOL0     H79633   7.091   3.740   7.035 -0.0861 -0.0176  0.9564
  590MOL0     H79634   5.565   4.476   6.876  2.4216 -2.8687 -2.9939
  590MOL0     H79635   5.395   4.474   7.029  0.3479  1.2248 -1.2948
  590MOL0     H79636   4.986   4.213   7.140 -0.1247  0.5335  0.2780
  590MOL0     H79637   4.807   4.181   7.318 -0.4700  1.1280  1.0378
  590MOL0     H79638   4.456   4.461   7.280 -1.3292  1.3974  1.6812
  590MOL0     H79639   4.429   4.405   7.438 -1.3469 -0.8731 -1.0780
  590MOL0     H79640   4.450   4.176   7.368  0.0891  1.2075  1.5595
  590MOL0     H79641   4.514   4.214   7.209 -0.0693 -1.2828  1.0173
  590MOL0     H79642   4.237   4.260   7.329 -2.7926 -1.8876 -1.0976
  590MOL0     H79643   4.300   4.168   7.178  2.0625 -1.5328  1.9118
  590MOL0     H79644   4.272   4.474   7.194  2.2279  0.9370 -0.8193
  590MOL0     H79645   4.323   4.376   7.051  1.1810 -0.0200  0.7001
  590MOL0     H79646   3.896   4.337   7.103  0.0711 -0.8271  0.3742
  590MOL0     H79647   4.656   4.570   7.218 -1.4728 -0.6996  1.9679
  590MOL0     H79648   4.745   4.590   6.922  0.3772  1.4324 -1.5081
  590MOL0     H79649   4.745   4.685   7.057  1.2944  2.3272 -1.8679
  590MOL0     H79650   4.906   4.653   6.986 -0.0632 -1.4095  0.2246
  591MOL0     O79651   7.406   9.980   6.143  0.3887 -0.3098 -0.2004
  591MOL0     C79652   7.390   9.887   6.224 -0.4530 -0.7506  0.0479
  591MOL0     O79653   7.488   9.797   6.259 -0.1832  0.4477 -0.1331
  591MOL0     C79654   7.605   9.799   6.197 -0.1692  0.1093  0.0279
  591MOL0     C79655   7.618   9.774   6.057  0.2736 -0.1983  0.2228
  591MOL0     C79656   7.739   9.794   5.989  0.6912  0.1745 -0.7650
  591MOL0     C79657   7.855   9.829   6.058 -0.7357 -0.3731 -0.1738
  591MOL0     O79658   7.978   9.862   6.001 -1.0674  0.4043  0.1608
  591MOL0     C79659   7.997   9.822   5.864  0.0828  0.5778 -0.2013
  591MOL0     C79660   8.148   9.835   5.821  0.7488 -0.6511  0.7736
  591MOL0     C79661   8.194   9.726   5.734  0.0900  0.5621 -0.2253
  591MOL0     C79662   8.150   9.742   5.589  0.0971 -0.7143 -0.1021
  591MOL0     C79663   8.181   9.625   5.506  0.2852  0.1531 -1.0805
  591MOL0     C79664   8.168   9.635   5.354  0.8981 -0.0346 -0.2449
  591MOL0     C79665   8.288   9.708   5.279 -0.4740 -0.4216  0.0750
  591MOL0     C79666   8.403   9.615   5.256  0.2854  0.3946  0.6281
  591MOL0     N79667   8.375   9.527   5.143  0.5596  0.1435 -0.3074
  591MOL0     C79668   8.340   9.567   5.020 -0.2064 -0.5010  0.3911
  591MOL0     C79669   8.333   9.451   4.948  0.6029 -0.3622  0.6526
  591MOL0     C79670   8.286   9.445   4.802  0.8045 -0.3623  0.0054
  591MOL0     C79671   8.395   9.477   4.709  0.0765  0.0186  0.2974
  591MOL0     C79672   8.359   9.432   4.567  1.0636  0.6398 -0.0811
  591MOL0     C79673   8.471   9.453   4.468  0.6168 -0.4906 -1.0156
  591MOL0     O79674   8.561   9.564   4.506  0.0654 -0.2430 -0.1085
  591MOL0     C79675   8.681   9.571   4.442 -0.5903  0.3536 -0.1892
  591MOL0     C79676   8.757   9.681   4.480 -0.3224 -0.2130  0.1785
  591MOL0     C79677   8.889   9.686   4.432  0.5284 -0.0084  0.8147
  591MOL0     C79678   8.943   9.595   4.338  0.0795 -0.5526 -0.1074
  591MOL0     C79679   9.087   9.605   4.301  0.6115 -0.5168 -0.6146
  591MOL0     O79680   9.138   9.529   4.190  0.1035 -0.3351 -0.4561
  591MOL0     C79681   9.273   9.557   4.171  0.0559  0.2112  0.7143
  591MOL0     C79682   9.311   9.657   4.065 -0.0409  0.8899  0.0940
  591MOL0     C79683   9.448   9.686   4.055  0.0394 -0.7425 -0.2538
  591MOL0     C79684   9.549   9.617   4.129  0.3347  0.7486 -0.0724
  591MOL0     O79685   9.684   9.648   4.109  0.6543  0.5924  0.2867
  591MOL0     C79686   9.778   9.569   4.179  0.4363 -0.2395  0.2028
  591MOL0     C79687   9.928   9.593   4.134  0.3261  0.4474  0.3075
  591MOL0     C79688   9.982   9.737   4.143 -1.1543 -0.8082 -0.1004
  591MOL0     C79689   9.911   9.825   4.251  0.1907 -0.1727  0.0222
  591MOL0     C79690   9.976   9.965   4.266 -0.2498 -0.4463  0.8670
  591MOL0     C79691   9.896  10.071   4.345  0.4124  0.3865 -0.9781
  591MOL0     C79692   9.971  10.204   4.349  0.6621  0.2370 -0.9718
  591MOL0     C79693   9.888  10.319   4.395  0.6406 -0.4906  0.0697
  591MOL0    Cl79694   9.792  10.395   4.269  0.0208 -0.3480 -0.0508
  591MOL0     C79695   9.503   9.516   4.219 -0.0902  0.1784 -0.4167
  591MOL0     C79696   9.371   9.488   4.238  0.4093 -0.0545  0.3835
  591MOL0     O79697   9.153   9.687   4.370 -0.7449 -0.1532  0.3601
  591MOL0     C79698   8.858   9.496   4.284 -1.1516  0.2796  0.3647
  591MOL0     C79699   8.736   9.478   4.346 -0.1504 -0.3068  0.8434
  591MOL0     N79700   8.373   9.349   5.028  0.6654 -0.6704 -0.0476
  591MOL0     N79701   8.402   9.393   5.141 -1.2636 -0.0290  0.5041
  591MOL0     C79702   7.850   9.856   6.197  0.2941  0.9089 -0.0572
  591MOL0     C79703   7.720   9.852   6.261  0.7985 -0.1768  0.1136
  591MOL0     C79704   7.264   9.876   6.304 -0.0197  0.0082 -0.0283
  591MOL0     C79705   7.198   9.994   6.342  0.1716  0.7130 -0.1236
  591MOL0     C79706   7.073   9.994   6.409  0.6278 -0.0942  0.1523
  591MOL0     C79707   7.014   9.867   6.442  1.3804  0.2390 -0.3963
  591MOL0     O79708   6.892   9.872   6.506  0.3007  0.5882  0.6840
  591MOL0     C79709   6.837   9.753   6.572  0.2519 -0.7416  0.0279
  591MOL0     C79710   6.702   9.814   6.634 -0.4052  0.4711  0.0503
  591MOL0     C79711   6.599   9.700   6.648 -0.1626 -0.2832 -0.6405
  591MOL0     C79712   6.472   9.714   6.731 -0.3131  0.2689  0.1070
  591MOL0     C79713   6.484   9.795   6.853  0.0354 -0.0924  0.5482
  591MOL0     C79714   6.487   9.860   6.951 -0.1367  0.0987 -0.3410
  591MOL0     C79715   7.085   9.750   6.416 -0.8849 -0.2668 -0.3387
  591MOL0     C79716   7.212   9.750   6.350  0.2931 -0.3140  0.0836
  591MOL0     C79717   7.273   9.620   6.304  0.6490 -0.7673  0.8708
  591MOL0     H79718   7.528   9.739   6.008  2.1903 -1.5055 -2.6220
  591MOL0     H79719   7.741   9.795   5.880 -1.4489  0.8013 -0.8350
  591MOL0     H79720   7.975   9.715   5.861 -0.2258  0.6586 -2.0903
  591MOL0     H79721   7.925   9.869   5.797  0.2606  3.3858  1.4458
  591MOL0     H79722   8.206   9.825   5.913  1.8229 -0.3860  0.1323
  591MOL0     H79723   8.164   9.934   5.777 -0.4854 -0.5869  0.4389
  591MOL0     H79724   8.156   9.629   5.768 -0.3254  1.2313  1.3351
  591MOL0     H79725   8.302   9.716   5.744  0.0241  0.1755  0.1199
  591MOL0     H79726   8.042   9.761   5.588  0.3242  0.9971 -2.6899
  591MOL0     H79727   8.204   9.828   5.547 -1.1719 -0.8180 -2.1233
  591MOL0     H79728   8.287   9.603   5.518  0.4267  1.5600  0.5095
  591MOL0     H79729   8.118   9.542   5.542 -0.1176 -0.2171 -2.5414
  591MOL0     H79730   8.170   9.534   5.312  2.0138  0.2000 -0.7910
  591MOL0     H79731   8.079   9.694   5.329  0.1167 -1.1293 -0.1217
  591MOL0     H79732   8.322   9.790   5.343  0.1889  0.3633 -1.2366
  591MOL0     H79733   8.263   9.754   5.183  0.6227  0.1956  0.0575
  591MOL0     H79734   8.490   9.674   5.226 -0.8649  1.8865  0.1228
  591MOL0     H79735   8.418   9.565   5.352  0.7100  0.9156  0.8410
  591MOL0     H79736   8.321   9.667   4.982  1.4040 -0.3608 -0.1190
  591MOL0     H79737   8.241   9.346   4.784  1.5913 -0.6917 -0.2020
  591MOL0     H79738   8.208   9.522   4.796  2.2925  1.1071 -2.2266
  591MOL0     H79739   8.417   9.584   4.713 -1.1757  0.3112 -0.0451
  591MOL0     H79740   8.491   9.431   4.730 -0.0991 -2.1372 -2.8919
  591MOL0     H79741   8.270   9.484   4.530  0.5966  1.7860  2.4774
  591MOL0     H79742   8.340   9.324   4.568 -4.1083  1.3014 -0.3722
  591MOL0     H79743   8.431   9.464   4.367  1.0860 -0.0636 -1.1622
  591MOL0     H79744   8.517   9.354   4.471 -2.7123 -2.1709 -1.9161
  591MOL0     H79745   8.731   9.751   4.558  0.0591  1.5223 -1.1920
  591MOL0     H79746   8.942   9.766   4.484 -0.7408 -0.1973  2.4595
  591MOL0     H79747   9.237   9.714   4.010  1.5744  2.3467 -0.6673
  591MOL0     H79748   9.493   9.762   3.992 -0.3555  0.0183  0.3589
  591MOL0     H79749   9.772   9.582   4.288 -0.5671 -0.0489  0.1309
  591MOL0     H79750   9.762   9.462   4.159  0.5396  0.0798 -1.7461
  591MOL0     H79751   9.987   9.524   4.195 -1.9892 -1.7147  0.2641
  591MOL0     H79752   9.934   9.563   4.029  2.4982  2.7281 -0.3164
  591MOL0     H79753  10.085   9.733   4.179 -0.5370  3.2541 -0.8989
  591MOL0     H79754   9.985   9.783   4.044  1.5924  0.5139  0.4992
  591MOL0     H79755   9.914   9.768   4.344  1.2942 -1.2764 -0.6555
  591MOL0     H79756   9.807   9.850   4.229  0.1940 -0.4654 -0.3363
  591MOL0     H79757  10.017  10.005   4.173  3.8248 -1.8390  1.8126
  591MOL0     H79758  10.069   9.958   4.323  1.7424  1.2147 -1.9091
  591MOL0     H79759   9.798  10.081   4.297  0.1783 -0.7165 -0.7704
  591MOL0     H79760   9.878  10.036   4.447  1.7278  0.4952 -0.6988
  591MOL0     H79761  10.012  10.221   4.248  1.8173  0.4688 -0.4833
  591MOL0     H79762  10.055  10.189   4.417  1.1984 -0.6735 -1.8056
  591MOL0     H79763   9.830  10.285   4.481  0.3613 -1.7317 -0.5977
  591MOL0     H79764   9.952  10.406   4.411  0.8977 -0.3944 -1.3571
  591MOL0     H79765   9.574   9.467   4.286 -0.2202  1.0899  0.4038
  591MOL0     H79766   9.339   9.410   4.306  0.2266  0.3414  0.7545
  591MOL0     H79767   8.901   9.450   4.196  1.0074  2.4001  0.2379
  591MOL0     H79768   8.667   9.401   4.315  0.7345 -1.4088  1.5552
  591MOL0     H79769   7.941   9.887   6.247  1.0728  1.0583 -1.4903
  591MOL0     H79770   7.707   9.891   6.362 -0.6500  0.3810 -0.2597
  591MOL0     H79771   7.237  10.093   6.322  0.3358  0.7527  0.3769
  591MOL0     H79772   7.025  10.090   6.425  0.2281 -0.5280  1.7975
  591MOL0     H79773   6.906   9.714   6.647 -2.5993  0.5305  3.5882
  591MOL0     H79774   6.822   9.682   6.490 -0.5074  2.2629 -2.6622
  591MOL0     H79775   6.662   9.907   6.594  0.8949  2.0894  2.2962
  591MOL0     H79776   6.727   9.842   6.736  1.3585 -0.2969 -0.1266
  591MOL0     H79777   6.650   9.610   6.684  1.1189  0.0258 -1.5719
  591MOL0     H79778   6.567   9.666   6.549 -2.2339 -1.1832  0.2847
  591MOL0     H79779   6.397   9.756   6.663  1.9073  0.9967 -2.0294
  591MOL0     H79780   6.446   9.610   6.753  2.6064 -1.1857 -2.5398
  591MOL0     H79781   6.501   9.918   7.040 -2.7826  1.9287 -0.9913
  591MOL0     H79782   7.044   9.655   6.449 -0.8966 -1.5650 -3.7099
  591MOL0     H79783   7.225   9.532   6.347  0.7474 -0.5314  1.4613
  591MOL0     H79784   7.261   9.610   6.195  1.0189  2.4742  0.4568
  591MOL0     H79785   7.378   9.612   6.334  2.1371  1.9869 -2.7992
  592MOL0     O79786   0.948  10.414   7.829 -0.0287 -0.0901  0.5859
  592MOL0     C79787   0.901  10.440   7.943 -0.0861 -0.2864 -0.0992
  592MOL0     O79788   0.969  10.474   8.052 -1.3674  1.0879  0.3426
  592MOL0     C79789   1.107  10.470   8.052 -0.0246 -0.5859 -0.7230
  592MOL0     C79790   1.174  10.592   8.045 -0.9736  0.3965 -0.4851
  592MOL0     C79791   1.308  10.587   8.061 -0.0804 -0.6392  0.7944
  592MOL0     C79792   1.393  10.480   8.069  0.3581  0.8146  0.2861
  592MOL0     O79793   1.528  10.507   8.074  0.6381  0.3214  0.1934
  592MOL0     C79794   1.611  10.394   8.100 -0.3211  0.1672 -0.7415
  592MOL0     C79795   1.758  10.437   8.129 -0.3718  0.0142 -0.5081
  592MOL0     C79796   1.771  10.516   8.256 -0.1309  0.8952 -0.5299
  592MOL0     C79797   1.925  10.543   8.281  1.0305  0.4944  0.0623
  592MOL0     C79798   1.998  10.431   8.365 -0.1245  0.0680 -0.5202
  592MOL0     C79799   2.134  10.457   8.422 -0.3776  0.6816  0.0101
  592MOL0     C79800   2.244  10.493   8.324  0.2692  0.2669  0.0712
  592MOL0     C79801   2.267  10.410   8.200  0.6492 -0.2068  0.7050
  592MOL0     N79802   2.403  10.424   8.151  0.0897 -0.2770 -0.8347
  592MOL0     C79803   2.453  10.530   8.078  0.0014  0.4109  0.7879
  592MOL0     C79804   2.575  10.487   8.045  0.0900 -0.5192  0.2235
  592MOL0     C79805   2.663  10.567   7.961  0.2385  0.5521  0.5824
  592MOL0     C79806   2.808  10.533   7.994 -0.4904 -0.6118 -0.0253
  592MOL0     C79807   2.890  10.607   7.895  0.1385  0.0284  0.4292
  592MOL0     C79808   2.933  10.521   7.774  0.5521 -0.3508  0.1547
  592MOL0     O79809   3.016  10.416   7.827 -0.3470 -0.4941  0.1161
  592MOL0     C79810   3.153  10.435   7.813  0.3312 -0.1197 -0.3160
  592MOL0     C79811   3.220  10.526   7.737  0.0089  0.5343  0.0778
  592MOL0     C79812   3.361  10.532   7.716  0.5940  0.2259  0.6366
  592MOL0     C79813   3.441  10.436   7.783 -0.1187 -0.5887 -0.1888
  592MOL0     C79814   3.585  10.452   7.790 -0.2728  0.2627  0.1827
  592MOL0     O79815   3.641  10.572   7.765 -0.2112 -0.3396 -0.3231
  592MOL0     C79816   3.772  10.588   7.735 -1.2912 -0.4214  0.6077
  592MOL0     C79817   3.877  10.517   7.796  0.0048  0.0303  0.1761
  592MOL0     C79818   4.008  10.532   7.751  0.1824  0.2192 -0.1422
  592MOL0     C79819   4.042  10.626   7.651 -0.0209  0.1478 -0.5384
  592MOL0     O79820   4.173  10.639   7.618  0.6666 -0.6156 -0.0868
  592MOL0     C79821   4.212  10.577   7.494  0.7591 -0.3589 -0.5379
  592MOL0     C79822   4.338  10.642   7.443 -0.1429 -0.4860  0.1079
  592MOL0     C79823   4.455  10.627   7.532  0.3814 -0.0747 -0.5368
  592MOL0     C79824   4.586  10.702   7.494 -0.4752  0.0490  0.4672
  592MOL0     C79825   4.707  10.647   7.576 -0.0053  0.7551 -0.2258
  592MOL0     C79826   4.845  10.707   7.553  0.1526 -0.4723  0.4004
  592MOL0     C79827   4.948  10.687   7.674  0.5596  0.7494 -0.7782
  592MOL0     C79828   5.070  10.784   7.662  0.4013  0.2733  0.5167
  592MOL0    Cl79829   5.173  10.808   7.814 -0.1701 -0.2909  0.6336
  592MOL0     C79830   3.939  10.704   7.586 -0.1467  0.5091 -0.2122
  592MOL0     C79831   3.809  10.671   7.626  0.3842 -0.5351  0.2380
  592MOL0     O79832   3.649  10.345   7.803  0.2006 -0.5064 -1.0675
  592MOL0     C79833   3.377  10.337   7.867 -0.0975  0.3501 -0.4123
  592MOL0     C79834   3.240  10.340   7.885  0.0463 -0.0090  0.4010
  592MOL0     N79835   2.596  10.365   8.097 -0.0673 -0.1804 -0.5197
  592MOL0     N79836   2.497  10.327   8.164  0.4305 -0.2247 -0.1266
  592MOL0     C79837   1.323  10.354   8.056 -0.0891 -0.3469 -0.4534
  592MOL0     C79838   1.176  10.349   8.054  0.5056  0.3931 -0.8884
  592MOL0     C79839   0.747  10.438   7.952 -0.1722 -0.2045 -0.3371
  592MOL0     C79840   0.688  10.437   8.082 -1.3823  0.0408 -0.0890
  592MOL0     C79841   0.550  10.428   8.103 -0.4443 -0.8579  0.3541
  592MOL0     C79842   0.470  10.424   7.988 -0.5439  0.2891 -0.5005
  592MOL0     O79843   0.334  10.427   7.995  0.0725 -0.2606  1.0299
  592MOL0     C79844   0.270  10.480   8.113  0.2400  0.2963  0.5461
  592MOL0     C79845   0.124  10.529   8.095  0.0896 -0.3286  0.1042
  592MOL0     C79846   0.031  10.407   8.071  0.3243  0.1001 -0.5067
  592MOL0     C79847  -0.009  10.319   8.193  0.3415  0.2959 -0.5507
  592MOL0     C79848  -0.045  10.180   8.151  0.4904 -0.6891  0.4767
  592MOL0     C79849  -0.075  10.068   8.127  0.1252  0.1112 -0.0553
  592MOL0     C79850   0.531  10.438   7.861 -0.9114  0.8881 -0.1105
  592MOL0     C79851   0.668  10.453   7.843  0.2040 -0.4283  0.1055
  592MOL0     C79852   0.713  10.502   7.703 -0.3049  0.3355  0.9245
  592MOL0     H79853   1.131  10.691   8.032 -0.1808  1.1385  1.9718
  592MOL0     H79854   1.354  10.685   8.066  1.9931 -1.4029 -1.4513
  592MOL0     H79855   1.583  10.328   8.182  1.9696  0.5497  0.4317
  592MOL0     H79856   1.619  10.342   8.004  0.6651 -0.4621 -0.3370
  592MOL0     H79857   1.785  10.502   8.046 -2.6990  0.5258 -0.9438
  592MOL0     H79858   1.823  10.349   8.118 -1.7046 -0.7492 -3.6202
  592MOL0     H79859   1.737  10.449   8.335  1.6810 -1.0500 -1.2891
  592MOL0     H79860   1.712  10.608   8.253 -1.4681  0.0645 -0.4081
  592MOL0     H79861   1.979  10.565   8.188 -0.4918  0.6350 -0.8212
  592MOL0     H79862   1.931  10.631   8.345  0.3998  0.7965 -0.2829
  592MOL0     H79863   1.943  10.406   8.456  2.0694  0.3637  0.9794
  592MOL0     H79864   2.005  10.342   8.302 -2.0394 -0.0476 -0.6144
  592MOL0     H79865   2.131  10.539   8.495  3.5589  2.1711 -1.2642
  592MOL0     H79866   2.170  10.376   8.486 -2.6779  0.4050  1.0754
  592MOL0     H79867   2.327  10.504   8.394  1.1139 -0.2628 -0.8164
  592MOL0     H79868   2.223  10.592   8.281 -2.1766 -0.6263 -1.0117
  592MOL0     H79869   2.261  10.310   8.243  1.1015 -0.7606 -0.4820
  592MOL0     H79870   2.191  10.429   8.123 -0.3513 -0.6858  1.5481
  592MOL0     H79871   2.395  10.619   8.057  0.0278  0.2032 -0.1930
  592MOL0     H79872   2.639  10.543   7.857 -2.3357  1.1477  0.9677
  592MOL0     H79873   2.650  10.674   7.980 -1.1245  0.3770  0.6911
  592MOL0     H79874   2.836  10.573   8.092 -0.4416 -0.7506  0.0171
  592MOL0     H79875   2.842  10.429   7.991  1.1507 -0.1085  0.2203
  592MOL0     H79876   2.983  10.635   7.944 -1.1186  2.9286  1.3913
  592MOL0     H79877   2.846  10.703   7.864  1.8045  0.4113 -0.8602
  592MOL0     H79878   2.968  10.575   7.685 -1.0544 -0.4862 -0.6105
  592MOL0     H79879   2.841  10.470   7.746  0.4814 -1.2348  1.8666
  592MOL0     H79880   3.161  10.587   7.670 -1.7131  2.2447  2.9523
  592MOL0     H79881   3.408  10.608   7.654  0.6363 -0.4671 -0.2083
  592MOL0     H79882   3.856  10.450   7.879 -2.8972 -0.6060 -0.9361
  592MOL0     H79883   4.088  10.475   7.798 -0.6877 -1.0119 -0.1283
  592MOL0     H79884   4.246  10.475   7.515  2.8108  0.3672 -0.0594
  592MOL0     H79885   4.125  10.580   7.428 -0.0112  0.3089  0.4821
  592MOL0     H79886   4.372  10.595   7.350  3.0652  1.5891  0.0808
  592MOL0     H79887   4.317  10.745   7.411 -2.5063 -0.6682  0.8985
  592MOL0     H79888   4.433  10.669   7.631 -0.0906  1.4501 -1.2471
  592MOL0     H79889   4.465  10.520   7.548 -3.2986 -0.0958  3.5643
  592MOL0     H79890   4.581  10.811   7.504  3.1042  0.3454  0.0561
  592MOL0     H79891   4.606  10.697   7.387  0.3196 -0.5081  0.6331
  592MOL0     H79892   4.709  10.540   7.555 -1.4032  1.1348 -2.6387
  592MOL0     H79893   4.680  10.644   7.682  1.6219 -2.0255  0.1927
  592MOL0     H79894   4.898  10.681   7.461 -1.1763  0.7393 -0.7405
  592MOL0     H79895   4.830  10.815   7.549 -2.6580 -0.8352 -0.6029
  592MOL0     H79896   4.979  10.583   7.679 -0.8409  0.3529  0.4283
  592MOL0     H79897   4.893  10.718   7.764  0.5584  0.2490 -0.6056
  592MOL0     H79898   5.128  10.755   7.573 -1.5668 -1.5097 -0.2824
  592MOL0     H79899   5.027  10.883   7.646 -0.6744 -0.0819  1.1340
  592MOL0     H79900   3.945  10.774   7.504 -1.6572  1.5010  0.4726
  592MOL0     H79901   3.723  10.715   7.577  0.4918 -0.8428 -0.2277
  592MOL0     H79902   3.437  10.262   7.916 -1.2256 -0.1200  0.2732
  592MOL0     H79903   3.197  10.254   7.936 -1.0904  1.3415  1.8117
  592MOL0     H79904   1.389  10.268   8.053  1.4781  0.7596  0.6217
  592MOL0     H79905   1.118  10.257   8.058  0.4651  0.3547 -1.9148
  592MOL0     H79906   0.755  10.440   8.167  0.3541 -0.1969 -1.3843
  592MOL0     H79907   0.507  10.420   8.203  1.1426  2.8123  1.4781
  592MOL0     H79908   0.320  10.566   8.158  0.5121  0.0924  0.6365
  592MOL0     H79909   0.275  10.396   8.183 -0.7362 -2.0766 -2.0134
  592MOL0     H79910   0.127  10.607   8.019  1.3231 -1.0792 -0.6387
  592MOL0     H79911   0.085  10.585   8.181 -0.4642  2.5423 -1.9044
  592MOL0     H79912   0.084  10.340   8.003  1.2427  1.2245 -0.9206
  592MOL0     H79913  -0.061  10.441   8.023  0.2693  2.8468  1.3593
  592MOL0     H79914   0.081  10.318   8.254 -1.8324 -1.0065  2.9147
  592MOL0     H79915  -0.086  10.363   8.257  0.6187 -3.2866  2.5839
  592MOL0     H79916  -0.083   9.964   8.105 -3.2982  0.2023  0.3025
  592MOL0     H79917   0.460  10.437   7.778  0.4246  1.6426 -1.3078
  592MOL0     H79918   0.782  10.433   7.654 -2.1871 -0.3568 -0.8861
  592MOL0     H79919   0.628  10.499   7.633  0.5261 -0.0895 -0.0866
  592MOL0     H79920   0.749  10.604   7.697  0.2893  0.1512  1.3320
  593MOL0     O79921   7.442   1.747   9.353 -0.2000  0.3053  0.7302
  593MOL0     C79922   7.406   1.767   9.231  0.3603 -0.2338 -0.7462
  593MOL0     O79923   7.485   1.769   9.124  0.2681 -0.7875  0.2417
  593MOL0     C79924   7.620   1.738   9.145 -0.4464  0.3668 -0.3258
  593MOL0     C79925   7.711   1.847   9.148  0.2800  0.3693 -0.3270
  593MOL0     C79926   7.851   1.827   9.167  1.4220  0.8541  1.0623
  593MOL0     C79927   7.905   1.700   9.164 -0.3265  0.5779  0.0901
  593MOL0     O79928   8.041   1.700   9.158  0.5047  0.7418 -0.6789
  593MOL0     C79929   8.095   1.583   9.096 -0.0529  0.9827  0.0772
  593MOL0     C79930   8.236   1.620   9.048  0.1588 -1.0155 -0.6866
  593MOL0     C79931   8.327   1.649   9.169 -0.1090  0.1395 -0.3294
  593MOL0     C79932   8.428   1.761   9.140  0.0866 -0.2842 -0.0316
  593MOL0     C79933   8.545   1.773   9.235 -0.5688  0.2834 -0.1635
  593MOL0     C79934   8.588   1.915   9.255  0.3026  0.0130  0.4660
  593MOL0     C79935   8.663   1.933   9.379 -0.2268 -0.9190 -0.0744
  593MOL0     C79936   8.812   1.928   9.337  0.1411 -0.3624  0.4826
  593MOL0     N79937   8.853   2.056   9.281  0.7444 -0.1453 -0.4699
  593MOL0     C79938   8.917   2.145   9.360  0.5071  0.5865 -1.1925
  593MOL0     C79939   8.972   2.230   9.281 -0.1209  0.5203 -0.7597
  593MOL0     C79940   9.062   2.346   9.319  0.6004 -0.3101 -0.5876
  593MOL0     C79941   9.164   2.383   9.215  0.1358 -0.1114  0.4495
  593MOL0     C79942   9.257   2.498   9.255 -0.3704  0.5760 -1.0528
  593MOL0     C79943   9.376   2.505   9.161  0.0163 -0.6569 -0.2550
  593MOL0     O79944   9.474   2.412   9.203 -0.0656 -0.3491  0.3413
  593MOL0     C79945   9.606   2.442   9.162 -0.1672  0.7348 -0.0554
  593MOL0     C79946   9.644   2.539   9.069  0.4741  0.3275  0.6350
  593MOL0     C79947   9.777   2.560   9.028  0.4428  0.2107 -0.0932
  593MOL0     C79948   9.880   2.477   9.077 -0.3546 -0.1135  0.2836
  593MOL0     C79949  10.020   2.485   9.036 -0.0679  0.8525  0.1393
  593MOL0     O79950  10.055   2.598   8.965 -0.3048 -0.3174  0.1686
  593MOL0     C79951  10.174   2.586   8.900 -0.0184 -0.2815  0.7455
  593MOL0     C79952  10.293   2.611   8.965 -0.6471  0.0474 -0.0466
  593MOL0     C79953  10.413   2.602   8.897 -0.4251 -0.2103  0.4729
  593MOL0     C79954  10.422   2.561   8.764 -0.0890  0.0429 -0.0308
  593MOL0     O79955  10.537   2.542   8.685  0.2753  0.9962 -0.3546
  593MOL0     C79956  10.666   2.579   8.747 -0.6100  0.4643  0.0581
  593MOL0     C79957  10.767   2.587   8.631  0.6858  0.2462  0.0158
  593MOL0     C79958  10.899   2.643   8.665  0.1735  0.0085 -0.3268
  593MOL0     C79959  10.990   2.661   8.544 -0.0028  0.4178  0.0954
  593MOL0     C79960  11.106   2.760   8.575  0.9026 -0.1803  0.3224
  593MOL0     C79961  11.162   2.747   8.727 -0.0604 -0.3352  0.4844
  593MOL0     C79962  11.290   2.822   8.773 -0.5882 -0.1319 -0.3986
  593MOL0     C79963  11.403   2.779   8.682  0.2454 -0.2774  0.0025
  593MOL0    Cl79964  11.449   2.605   8.696 -0.2358  0.1009 -0.0387
  593MOL0     C79965  10.304   2.538   8.711  0.1570  0.4859 -0.4690
  593MOL0     C79966  10.177   2.555   8.766  1.1549  0.0966 -0.5316
  593MOL0     O79967  10.094   2.383   9.043  0.0974 -0.1851 -0.9651
  593MOL0     C79968   9.840   2.365   9.157  0.9007 -0.0369 -0.2652
  593MOL0     C79969   9.713   2.352   9.197 -0.5272 -0.1235 -0.8787
  593MOL0     N79970   8.959   2.184   9.152 -1.0163 -0.7699  0.4549
  593MOL0     N79971   8.894   2.075   9.155  0.3413  0.1115  0.0100
  593MOL0     C79972   7.811   1.592   9.152  0.6327  0.2811  0.4254
  593MOL0     C79973   7.673   1.611   9.159  1.1243  0.4485 -0.8561
  593MOL0     C79974   7.260   1.800   9.207 -0.0285 -0.1803 -0.6400
  593MOL0     C79975   7.212   1.800   9.070 -0.7253  0.5773  0.3733
  593MOL0     C79976   7.086   1.839   9.033  0.8128 -0.8018 -0.8437
  593MOL0     C79977   7.000   1.872   9.134 -0.1163 -1.2453  0.4834
  593MOL0     O79978   6.874   1.909   9.108  0.3877  0.5575 -0.1976
  593MOL0     C79979   6.812   1.875   8.978  0.1156  0.4974 -0.2713
  593MOL0     C79980   6.684   1.949   8.972 -0.5573  0.3195  0.0474
  593MOL0     C79981   6.695   2.098   9.020 -0.6529  0.1629  0.3156
  593MOL0     C79982   6.797   2.179   8.949  0.1572  0.7155 -0.0460
  593MOL0     C79983   6.828   2.298   9.024 -0.0238 -0.3850  0.5199
  593MOL0     C79984   6.850   2.409   9.075 -0.0700  0.1100 -0.5618
  593MOL0     C79985   7.036   1.875   9.263 -0.1285 -0.2790  0.3747
  593MOL0     C79986   7.160   1.834   9.312 -0.1352 -0.1760 -0.3072
  593MOL0     C79987   7.186   1.848   9.464  0.3228  1.1331  0.9035
  593MOL0     H79988   7.682   1.951   9.135  0.0896  0.6753  2.1316
  593MOL0     H79989   7.928   1.902   9.183  3.0750  0.0125 -2.0206
  593MOL0     H79990   8.092   1.501   9.168 -0.0136  1.0918  0.2021
  593MOL0     H79991   8.031   1.563   9.010 -1.1633  1.1214  0.8559
  593MOL0     H79992   8.212   1.704   8.982 -1.6061 -0.8053  0.1482
  593MOL0     H79993   8.276   1.530   9.002 -1.6279 -1.8046 -0.7829
  593MOL0     H79994   8.380   1.560   9.204 -1.8024 -0.2752  1.3544
  593MOL0     H79995   8.265   1.681   9.253  1.2813  1.8943  0.1029
  593MOL0     H79996   8.483   1.753   9.046  2.4072  0.3015  1.1952
  593MOL0     H79997   8.372   1.856   9.138 -1.1644 -0.9705  0.8187
  593MOL0     H79998   8.510   1.736   9.332  1.6209  0.3736  0.7236
  593MOL0     H79999   8.624   1.707   9.198  0.3156  0.9938  0.4228
  593MOL0     H80000   8.635   1.959   9.166  3.4459 -1.6042  1.1656
  593MOL0     H80001   8.497   1.974   9.266  0.5093  0.9739 -2.1222
  593MOL0     H80002   8.642   1.853   9.450  0.1568 -0.9669 -0.0085
  593MOL0     H80003   8.634   2.030   9.419 -1.8093 -1.0923 -0.7404
  593MOL0     H80004   8.877   1.909   9.422 -0.8743 -1.4435  1.0381
  593MOL0     H80005   8.820   1.846   9.265 -0.8340 -0.0040 -0.0599
  593MOL0     H80006   8.911   2.139   9.469 -1.8315  0.7014 -1.2768
  593MOL0     H80007   8.994   2.431   9.332 -2.1445 -2.5388  0.8895
  593MOL0     H80008   9.106   2.327   9.417 -2.0772  1.7768  1.1721
  593MOL0     H80009   9.232   2.301   9.188  2.7803  2.0761 -0.0137
  593MOL0     H80010   9.105   2.422   9.132 -0.7152  0.1026  1.1447
  593MOL0     H80011   9.290   2.472   9.356 -0.1314 -1.3174 -1.5851
  593MOL0     H80012   9.210   2.597   9.254 -0.4532  0.5849 -4.2899
  593MOL0     H80013   9.408   2.608   9.179 -0.9740 -0.6248  1.5645
  593MOL0     H80014   9.344   2.486   9.058 -2.3577 -0.2570  0.3517
  593MOL0     H80015   9.571   2.613   9.036  0.9238  0.3911 -0.2287
  593MOL0     H80016   9.813   2.638   8.961 -0.1639  1.4118  0.9394
  593MOL0     H80017  10.298   2.622   9.073  0.6274 -1.5554  0.1184
  593MOL0     H80018  10.505   2.619   8.953  2.3103  0.0970 -3.7323
  593MOL0     H80019  10.658   2.672   8.803  0.4069  0.2251  0.6220
  593MOL0     H80020  10.699   2.501   8.816 -1.0562  0.1790 -0.0472
  593MOL0     H80021  10.777   2.483   8.597  2.7465  0.1031  0.9481
  593MOL0     H80022  10.723   2.652   8.555  2.8715 -1.9181 -3.3281
  593MOL0     H80023  10.873   2.744   8.700  0.7000 -0.4625  1.5466
  593MOL0     H80024  10.948   2.591   8.748 -1.9899 -2.2908 -0.3598
  593MOL0     H80025  10.931   2.694   8.458 -0.0068 -2.8318 -1.3041
  593MOL0     H80026  11.039   2.566   8.525 -0.9780  0.3185 -2.3126
  593MOL0     H80027  11.062   2.860   8.581  0.3346 -0.4846  1.3956
  593MOL0     H80028  11.179   2.756   8.493  1.1104  1.3292  0.4058
  593MOL0     H80029  11.080   2.782   8.790 -0.0014  1.4595 -0.3983
  593MOL0     H80030  11.161   2.639   8.747 -1.1265 -0.5351 -0.4844
  593MOL0     H80031  11.303   2.788   8.876  0.7655  0.0897 -0.4875
  593MOL0     H80032  11.285   2.930   8.757  1.8391 -0.2833 -2.8924
  593MOL0     H80033  11.386   2.805   8.577  2.6436 -0.4550 -0.5035
  593MOL0     H80034  11.491   2.838   8.711 -2.6216  3.2781  2.3542
  593MOL0     H80035  10.293   2.501   8.610  0.2538 -1.4976  0.1847
  593MOL0     H80036  10.080   2.548   8.717 -0.5480 -0.8097  2.6311
  593MOL0     H80037   9.912   2.289   9.188 -0.1425 -1.0361 -0.2248
  593MOL0     H80038   9.698   2.268   9.263 -0.9346 -0.4749 -1.4065
  593MOL0     H80039   7.861   1.496   9.149  1.3793  0.6417  1.1520
  593MOL0     H80040   7.616   1.520   9.175  0.7155  0.9050  0.4407
  593MOL0     H80041   7.280   1.770   8.991 -3.5998 -4.9163 -0.5274
  593MOL0     H80042   7.066   1.849   8.926  3.5921 -1.1417 -1.4834
  593MOL0     H80043   6.791   1.768   8.973 -5.2661  1.3641 -3.2360
  593MOL0     H80044   6.872   1.910   8.893  0.5083  0.7914  0.1203
  593MOL0     H80045   6.607   1.891   9.025  0.2981  1.3505  2.5484
  593MOL0     H80046   6.650   1.960   8.868 -0.7153  2.2462  0.2779
  593MOL0     H80047   6.712   2.111   9.127 -0.8806  0.7225  0.2892
  593MOL0     H80048   6.597   2.145   9.005 -1.0395 -0.5743  0.4598
  593MOL0     H80049   6.891   2.123   8.942  0.6024  1.6917 -3.1496
  593MOL0     H80050   6.778   2.193   8.842  0.3996  3.1817  0.1749
  593MOL0     H80051   6.863   2.504   9.123 -1.6560  0.5414 -0.9191
  593MOL0     H80052   6.957   1.906   9.331  2.3485  1.0334  2.8549
  593MOL0     H80053   7.286   1.889   9.482  1.7611 -0.3228 -2.8667
  593MOL0     H80054   7.102   1.895   9.516 -0.7284 -0.1131  0.3865
  593MOL0     H80055   7.188   1.745   9.503  2.4379  1.5413  2.0673
  594MOL0     O80056   9.924   5.256   5.819 -0.0317  0.0009 -0.4319
  594MOL0     C80057   9.940   5.137   5.831 -0.3627  0.5717  0.2660
  594MOL0     O80058  10.036   5.084   5.911  0.6481  0.2197 -0.0608
  594MOL0     C80059  10.123   5.168   5.959 -0.0592  0.5951 -1.4491
  594MOL0     C80060  10.227   5.219   5.881  0.2902 -0.2514 -0.3777
  594MOL0     C80061  10.327   5.297   5.935  0.0124 -0.7069 -0.5554
  594MOL0     C80062  10.326   5.332   6.072  0.2756  0.5043  0.2339
  594MOL0     O80063  10.426   5.419   6.112  0.3695 -0.0027 -0.1699
  594MOL0     C80064  10.377   5.547   6.150 -0.0912 -0.1389 -0.5533
  594MOL0     C80065  10.484   5.611   6.233 -0.7217 -0.5535 -0.0314
  594MOL0     C80066  10.628   5.600   6.167  0.8264 -0.0824  0.0178
  594MOL0     C80067  10.708   5.727   6.191  0.0498 -0.2458 -0.1499
  594MOL0     C80068  10.832   5.731   6.093 -0.2213 -0.1314  0.3264
  594MOL0     C80069  10.907   5.868   6.104  0.3403 -0.7414 -0.3513
  594MOL0     C80070  11.054   5.868   6.060 -0.4349  0.0458  0.5730
  594MOL0     C80071  11.074   5.850   5.912 -0.5798 -0.2583 -0.4698
  594MOL0     N80072  11.217   5.863   5.879  0.1258 -0.3091 -0.2908
  594MOL0     C80073  11.275   5.910   5.754  0.0526  0.4012  0.1181
  594MOL0     C80074  11.409   5.875   5.765  0.7339 -0.6468 -0.3929
  594MOL0     C80075  11.508   5.930   5.664 -0.2339  0.1078 -0.0844
  594MOL0     C80076  11.606   6.029   5.740  0.2915 -0.4657 -0.5681
  594MOL0     C80077  11.740   5.962   5.766  0.1440  0.9997 -0.0552
  594MOL0     C80078  11.844   6.060   5.834  0.0735  0.2476 -0.1845
  594MOL0     O80079  11.945   5.986   5.904 -0.6564 -0.6306 -0.2580
  594MOL0     C80080  12.061   6.062   5.913  0.6478 -0.3644  0.7465
  594MOL0     C80081  12.087   6.114   6.035  0.0871  0.1380  0.8367
  594MOL0     C80082  12.214   6.172   6.063  0.3824 -0.1744 -0.6602
  594MOL0     C80083  12.313   6.171   5.962 -0.5029  0.3528  0.1966
  594MOL0     C80084  12.447   6.235   5.989  0.3612  0.4688 -0.9885
  594MOL0     O80085  12.468   6.267   6.113  0.7066  0.8478 -0.3056
  594MOL0     C80086  12.593   6.324   6.134 -0.5429 -0.0006 -0.1038
  594MOL0     C80087  12.632   6.441   6.063 -0.5864  0.0055  0.3195
  594MOL0     C80088  12.746   6.518   6.093 -0.5225  0.9226  0.4850
  594MOL0     C80089  12.829   6.468   6.190 -0.0741  0.3413 -0.3371
  594MOL0     O80090  12.939   6.534   6.207  0.2444 -0.5989  0.7410
  594MOL0     C80091  13.027   6.496   6.308 -0.1134  0.7928  0.1230
  594MOL0     C80092  13.156   6.570   6.300 -0.7310  0.1053  0.3181
  594MOL0     C80093  13.227   6.544   6.434 -0.4977  0.2207 -0.0967
  594MOL0     C80094  13.358   6.624   6.452 -0.8657  1.3986  0.1451
  594MOL0     C80095  13.325   6.751   6.521  0.5968  0.8717 -0.1476
  594MOL0     C80096  13.451   6.833   6.545  0.1220 -0.9832 -0.0091
  594MOL0     C80097  13.428   6.976   6.609  0.4621  0.4454 -0.5749
  594MOL0     C80098  13.359   6.961   6.743  0.5527 -0.2497 -1.0059
  594MOL0    Cl80099  13.453   6.878   6.874 -0.0734  0.7159  0.1016
  594MOL0     C80100  12.796   6.349   6.262  0.2782  0.0846  0.1570
  594MOL0     C80101  12.678   6.276   6.240 -0.8323  0.4153 -0.3043
  594MOL0     O80102  12.530   6.225   5.896 -0.0036 -0.2198 -0.1075
  594MOL0     C80103  12.278   6.121   5.835  0.0825 -0.5571  0.5458
  594MOL0     C80104  12.159   6.063   5.807  0.6324 -0.1533 -0.6354
  594MOL0     N80105  11.429   5.809   5.883 -0.2410  0.1016  0.0327
  594MOL0     N80106  11.317   5.811   5.952 -0.4414 -0.2787  0.8757
  594MOL0     C80107  10.217   5.295   6.152 -0.5196 -1.1674 -0.9639
  594MOL0     C80108  10.114   5.217   6.092  0.9642 -0.5679  0.3948
  594MOL0     C80109   9.849   5.037   5.766  0.2649 -1.1829  0.0713
  594MOL0     C80110   9.751   4.982   5.848  0.1772  0.2667  1.0547
  594MOL0     C80111   9.653   4.904   5.788  0.2356 -0.6513 -0.6649
  594MOL0     C80112   9.647   4.863   5.655 -0.8175  0.2068 -0.4685
  594MOL0     O80113   9.557   4.770   5.613 -0.1236 -0.1836  0.0731
  594MOL0     C80114   9.505   4.770   5.481  0.5404 -0.1824  0.1836
  594MOL0     C80115   9.377   4.696   5.480  0.1036  0.4181 -0.2507
  594MOL0     C80116   9.264   4.761   5.568 -0.4898 -1.0875  0.2692
  594MOL0     C80117   9.175   4.646   5.616 -0.2626  0.2491  0.8803
  594MOL0     C80118   9.089   4.574   5.524 -0.0998 -0.6222  0.4205
  594MOL0     C80119   9.030   4.510   5.445  0.3094  0.2425  0.6958
  594MOL0     C80120   9.740   4.926   5.577 -0.1072 -0.4892 -0.1225
  594MOL0     C80121   9.842   5.006   5.629  0.4785 -0.1328  0.4949
  594MOL0     C80122   9.933   5.063   5.523 -0.3546 -0.2682  0.4514
  594MOL0     H80123  10.224   5.209   5.773  3.6816 -0.5357 -0.5401
  594MOL0     H80124  10.401   5.346   5.873  1.5757  0.8785  2.3288
  594MOL0     H80125  10.353   5.606   6.061 -1.6872 -2.1306 -1.5188
  594MOL0     H80126  10.286   5.535   6.210  1.1518 -1.1636  1.2179
  594MOL0     H80127  10.483   5.558   6.328 -1.8907 -0.8951 -0.2268
  594MOL0     H80128  10.469   5.719   6.243  2.6308  0.0452 -0.0906
  594MOL0     H80129  10.616   5.598   6.058  1.6500  0.5394 -0.0957
  594MOL0     H80130  10.681   5.513   6.207 -2.9767 -2.0139  1.3067
  594MOL0     H80131  10.654   5.818   6.166 -0.2657 -0.3151  0.2683
  594MOL0     H80132  10.737   5.743   6.295  1.3666 -2.6916 -0.0602
  594MOL0     H80133  10.905   5.657   6.126 -0.5642 -2.0706 -2.8966
  594MOL0     H80134  10.799   5.699   5.994 -1.5210  0.2139  0.6278
  594MOL0     H80135  10.852   5.947   6.051  0.4416 -1.6788 -1.8993
  594MOL0     H80136  10.902   5.883   6.212 -3.0748 -0.9829 -0.3766
  594MOL0     H80137  11.111   5.799   6.123 -0.3703 -0.2701  0.1688
  594MOL0     H80138  11.090   5.969   6.084  0.9387 -0.5179  1.0044
  594MOL0     H80139  11.034   5.756   5.873  0.6157  0.0337 -2.5535
  594MOL0     H80140  11.016   5.934   5.873 -0.5385  0.9681  1.9183
  594MOL0     H80141  11.223   5.973   5.683  0.3749  1.4112  0.7545
  594MOL0     H80142  11.563   5.849   5.615  1.1218 -0.6759  2.5176
  594MOL0     H80143  11.454   6.001   5.601 -1.0023  2.9371  3.4293
  594MOL0     H80144  11.619   6.120   5.682  0.9885  0.8066  1.4671
  594MOL0     H80145  11.559   6.064   5.833  1.2338  0.7253 -0.5236
  594MOL0     H80146  11.778   5.923   5.672 -0.2917  0.6872 -0.1063
  594MOL0     H80147  11.716   5.875   5.828 -2.5338  1.0152 -0.9454
  594MOL0     H80148  11.793   6.123   5.908  1.6965  1.4205 -0.0136
  594MOL0     H80149  11.892   6.134   5.769  1.1507 -1.7293 -1.7213
  594MOL0     H80150  12.017   6.101   6.117  0.2958  1.1908  1.1971
  594MOL0     H80151  12.237   6.218   6.158  0.0671  2.9633 -1.9735
  594MOL0     H80152  12.578   6.492   5.984  2.3514  2.7831 -0.0768
  594MOL0     H80153  12.774   6.612   6.046  1.9231  0.6754  1.2988
  594MOL0     H80154  12.982   6.510   6.406  0.3604  0.1427  0.4369
  594MOL0     H80155  13.059   6.392   6.292 -1.4399  0.7247 -2.9329
  594MOL0     H80156  13.225   6.537   6.222  0.9580  1.2811  1.2453
  594MOL0     H80157  13.130   6.675   6.283  0.5373  0.2609 -0.7738
  594MOL0     H80158  13.147   6.551   6.509 -2.1491  1.0307 -1.8544
  594MOL0     H80159  13.259   6.440   6.443  0.9793  0.7611  1.5189
  594MOL0     H80160  13.403   6.637   6.353 -3.5575 -0.2681 -1.4136
  594MOL0     H80161  13.421   6.558   6.512 -3.6368  0.5646  2.3847
  594MOL0     H80162  13.270   6.722   6.611  0.5087  1.8687  0.1237
  594MOL0     H80163  13.249   6.808   6.468  0.1763  0.2035 -0.2797
  594MOL0     H80164  13.524   6.779   6.605  1.5152  0.9620  0.1490
  594MOL0     H80165  13.502   6.847   6.449 -4.3128 -1.4558 -2.7028
  594MOL0     H80166  13.371   7.041   6.542  0.7325  0.7139 -0.5472
  594MOL0     H80167  13.523   7.025   6.634  0.4202  0.2146  0.0514
  594MOL0     H80168  13.327   7.058   6.785  0.0397 -0.7423 -0.2329
  594MOL0     H80169  13.262   6.916   6.720 -0.6628  1.9790 -0.6409
  594MOL0     H80170  12.857   6.322   6.348  2.4443  0.1013 -1.2924
  594MOL0     H80171  12.633   6.206   6.311  0.4785  0.0466  0.1826
  594MOL0     H80172  12.334   6.132   5.743 -0.9951 -0.3460 -0.1087
  594MOL0     H80173  12.126   6.017   5.714  0.4008 -2.9857  0.7412
  594MOL0     H80174  10.208   5.341   6.250  1.4262  0.7350 -1.6204
  594MOL0     H80175  10.024   5.180   6.142  0.4486 -0.9132 -0.7445
  594MOL0     H80176   9.743   4.995   5.956 -2.4094 -1.2900  1.1414
  594MOL0     H80177   9.566   4.874   5.845  0.9630 -2.3019 -0.3526
  594MOL0     H80178   9.581   4.723   5.418  0.7807 -1.2927  1.2614
  594MOL0     H80179   9.489   4.876   5.457  2.0201  0.5507  2.1466
  594MOL0     H80180   9.400   4.594   5.513 -0.2721  0.7543  1.1218
  594MOL0     H80181   9.346   4.681   5.377 -1.7133 -0.2583  0.3484
  594MOL0     H80182   9.202   4.829   5.509 -1.0831 -1.1009  0.8590
  594MOL0     H80183   9.296   4.815   5.658 -0.2861 -1.0911  0.1996
  594MOL0     H80184   9.240   4.573   5.665 -1.6192 -1.4304  0.2618
  594MOL0     H80185   9.112   4.673   5.701 -2.3052  1.3306 -0.8892
  594MOL0     H80186   8.973   4.448   5.379  2.6089  0.3858 -1.5809
  594MOL0     H80187   9.726   4.915   5.470 -4.1067 -0.4816  0.2420
  594MOL0     H80188  10.040   5.053   5.547 -0.0077  2.2860  0.2421
  594MOL0     H80189   9.912   5.031   5.421  0.1824  1.3535 -0.2106
  594MOL0     H80190   9.907   5.169   5.518  0.8506  0.1491  1.9745
  595MOL0     O80191  10.877   5.275   2.151 -0.0072  1.3071 -0.2973
  595MOL0     C80192  10.927   5.358   2.079 -0.4284  0.4333  0.5873
  595MOL0     O80193  11.058   5.393   2.073 -0.6494  0.5989  0.1759
  595MOL0     C80194  11.152   5.338   2.158 -0.3905 -0.1534 -0.2723
  595MOL0     C80195  11.159   5.202   2.166  0.3061 -0.4435 -0.5813
  595MOL0     C80196  11.241   5.142   2.255 -1.0438 -0.0911 -0.3268
  595MOL0     C80197  11.313   5.212   2.353 -0.9529 -0.7142 -0.0715
  595MOL0     O80198  11.388   5.156   2.452 -0.0588 -0.4127  0.1155
  595MOL0     C80199  11.396   5.015   2.474 -0.9224  0.4745 -0.0057
  595MOL0     C80200  11.512   4.991   2.578  0.0935 -0.5967 -0.8707
  595MOL0     C80201  11.638   5.053   2.538 -0.2493 -0.0750 -0.2476
  595MOL0     C80202  11.749   5.018   2.632  0.2826 -0.5901  0.3986
  595MOL0     C80203  11.885   5.097   2.608 -1.0984  0.3763  0.0254
  595MOL0     C80204  12.004   5.037   2.692  1.5078 -0.6034 -0.2457
  595MOL0     C80205  12.116   5.141   2.721  0.4217  0.4914  0.7688
  595MOL0     C80206  12.252   5.075   2.762  0.1326 -0.7302  1.0942
  595MOL0     N80207  12.337   5.158   2.845  0.7188 -0.4135  0.3868
  595MOL0     C80208  12.387   5.110   2.961  0.4588 -1.0781 -0.5257
  595MOL0     C80209  12.444   5.216   3.029 -0.5818 -1.2235 -0.3555
  595MOL0     C80210  12.532   5.212   3.149 -0.5115  0.3883  0.1872
  595MOL0     C80211  12.643   5.306   3.148 -0.6286 -0.0411 -0.2613
  595MOL0     C80212  12.749   5.273   3.246 -0.3481 -1.2135  0.0837
  595MOL0     C80213  12.878   5.356   3.227  0.1316 -0.0775 -0.3811
  595MOL0     O80214  12.970   5.342   3.343  0.0671  0.5883  0.2040
  595MOL0     C80215  13.107   5.363   3.331 -0.4523  0.4224  0.5408
  595MOL0     C80216  13.187   5.390   3.212  1.1411  0.0474  0.4325
  595MOL0     C80217  13.323   5.395   3.222 -0.8410  0.1866 -0.8292
  595MOL0     C80218  13.393   5.376   3.344  0.4023  0.6499  0.8957
  595MOL0     C80219  13.539   5.384   3.349 -0.1519  1.0220 -0.0830
  595MOL0     O80220  13.609   5.355   3.233  0.8418 -0.4494  0.3256
  595MOL0     C80221  13.744   5.390   3.224  0.4033  0.1685 -0.1142
  595MOL0     C80222  13.800   5.358   3.100 -0.5793 -0.8224  0.4704
  595MOL0     C80223  13.935   5.383   3.076  0.1769  0.6848 -0.7778
  595MOL0     C80224  14.014   5.460   3.163 -0.1878  0.1507  0.7735
  595MOL0     O80225  14.144   5.487   3.117 -0.5289  0.4504  0.2068
  595MOL0     C80226  14.227   5.542   3.215 -0.0869  0.1221 -0.3193
  595MOL0     C80227  14.370   5.569   3.176  0.2061 -0.0762  0.2130
  595MOL0     C80228  14.386   5.688   3.076 -0.3318 -0.3517 -1.2823
  595MOL0     C80229  14.539   5.707   3.057  0.1674  0.5927 -0.4898
  595MOL0     C80230  14.564   5.834   2.982 -0.5007  0.1474 -0.2337
  595MOL0     C80231  14.714   5.892   2.976  0.1156 -0.0854  0.3489
  595MOL0     C80232  14.829   5.797   2.943  1.7492  0.2991 -0.4649
  595MOL0     C80233  14.955   5.866   2.924  0.0195 -0.1093  0.9352
  595MOL0    Cl80234  14.942   5.954   2.769  0.4252 -0.3537 -0.3500
  595MOL0     C80235  13.956   5.508   3.286  0.9098 -0.1492 -0.5301
  595MOL0     C80236  13.820   5.470   3.315  0.3262  0.0292  0.9245
  595MOL0     O80237  13.581   5.431   3.451 -0.7878 -0.5761 -0.0824
  595MOL0     C80238  13.317   5.346   3.458 -0.0148 -0.2153  0.2143
  595MOL0     C80239  13.174   5.340   3.451  0.2297  0.2391  0.0203
  595MOL0     N80240  12.417   5.329   2.955 -0.3052 -0.0501  0.4336
  595MOL0     N80241  12.351   5.299   2.846 -0.4184 -0.3874  0.0319
  595MOL0     C80242  11.312   5.350   2.347 -0.6742  0.2876  0.5749
  595MOL0     C80243  11.231   5.411   2.248  0.5313 -0.1231 -0.0712
  595MOL0     C80244  10.844   5.405   1.969  0.2136 -0.1414  0.0587
  595MOL0     C80245  10.705   5.369   1.976  0.4593 -0.2257  0.6020
  595MOL0     C80246  10.620   5.412   1.871 -0.3888 -0.4584 -0.7841
  595MOL0     C80247  10.668   5.478   1.761 -0.3424  0.2065 -0.8326
  595MOL0     O80248  10.587   5.492   1.654  1.3052  0.3139 -0.9788
  595MOL0     C80249  10.642   5.533   1.527  0.1189  0.4334 -0.3339
  595MOL0     C80250  10.524   5.539   1.427  0.2189  1.1098  0.1659
  595MOL0     C80251  10.417   5.427   1.450 -0.3512 -0.5634  0.5655
  595MOL0     C80252  10.473   5.286   1.420  0.3340  0.4045  0.1619
  595MOL0     C80253  10.487   5.247   1.274 -0.5997 -0.1481 -0.4604
  595MOL0     C80254  10.518   5.208   1.161  0.0611 -0.7361 -0.9100
  595MOL0     C80255  10.809   5.521   1.759  0.3746  0.0056  1.1077
  595MOL0     C80256  10.892   5.487   1.866 -0.6739  0.7616  0.2020
  595MOL0     C80257  11.025   5.559   1.852  0.1087 -0.3600 -0.4948
  595MOL0     H80258  11.099   5.155   2.088 -2.5967  3.0190 -0.6721
  595MOL0     H80259  11.242   5.033   2.254  0.0612 -0.1207 -2.6679
  595MOL0     H80260  11.299   4.984   2.512 -0.8797 -1.7835 -1.5420
  595MOL0     H80261  11.425   4.962   2.382 -2.2515 -0.7530  0.2526
  595MOL0     H80262  11.535   4.889   2.610  0.4777 -0.2170  0.1010
  595MOL0     H80263  11.477   5.040   2.669  2.2538 -1.2271  0.3738
  595MOL0     H80264  11.629   5.160   2.555  0.0724  0.0078 -0.5820
  595MOL0     H80265  11.666   5.043   2.432  1.2763  1.3885 -0.0184
  595MOL0     H80266  11.725   5.039   2.736 -0.2672  3.0142 -0.3171
  595MOL0     H80267  11.766   4.910   2.622  3.8518  0.0001 -1.5060
  595MOL0     H80268  11.903   5.091   2.501 -2.9384 -1.1812 -0.2575
  595MOL0     H80269  11.889   5.204   2.632  3.6527  0.6347 -0.8997
  595MOL0     H80270  11.954   5.014   2.787 -0.9271  2.3512 -0.6627
  595MOL0     H80271  12.055   4.954   2.642  3.4232  0.2572  0.1909
  595MOL0     H80272  12.075   5.207   2.797  1.1042  0.3450  1.2679
  595MOL0     H80273  12.129   5.201   2.630 -0.5958  0.0583  0.3217
  595MOL0     H80274  12.236   4.977   2.808 -3.0169 -0.0499  1.6464
  595MOL0     H80275  12.298   5.070   2.663 -2.2805 -1.1188 -0.0790
  595MOL0     H80276  12.387   5.004   2.983  2.2720 -0.9643  0.1968
  595MOL0     H80277  12.472   5.222   3.240 -0.4451 -2.3367  0.5906
  595MOL0     H80278  12.572   5.111   3.142 -1.6652 -0.1798  1.3784
  595MOL0     H80279  12.697   5.322   3.054  1.0890  3.7456  1.1465
  595MOL0     H80280  12.614   5.411   3.137  1.6623  0.4732 -2.2899
  595MOL0     H80281  12.778   5.167   3.252  2.9135 -0.3922  0.8450
  595MOL0     H80282  12.709   5.294   3.346  1.6941  0.9898  0.5098
  595MOL0     H80283  12.858   5.464   3.235  0.9819 -0.0025  1.4114
  595MOL0     H80284  12.929   5.330   3.135 -1.4696 -0.1046 -1.2920
  595MOL0     H80285  13.145   5.402   3.112  0.1427 -1.0651  0.7015
  595MOL0     H80286  13.379   5.420   3.132  1.2283  2.9709  1.0714
  595MOL0     H80287  13.739   5.310   3.024 -0.5978 -0.0590 -0.0053
  595MOL0     H80288  13.973   5.342   2.983  1.0000 -0.8179  0.1913
  595MOL0     H80289  14.182   5.641   3.224 -1.7686 -0.6252 -0.1642
  595MOL0     H80290  14.222   5.495   3.314 -2.8588 -0.3124 -0.5824
  595MOL0     H80291  14.427   5.607   3.262 -1.9308  2.3968  0.6678
  595MOL0     H80292  14.405   5.474   3.136  0.9059 -0.8265  2.4466
  595MOL0     H80293  14.345   5.649   2.982 -0.4612 -0.8912 -1.0012
  595MOL0     H80294  14.344   5.782   3.111  1.9698  0.5240 -0.6561
  595MOL0     H80295  14.587   5.627   2.999 -1.5393 -1.6373  1.0124
  595MOL0     H80296  14.584   5.707   3.157 -1.7177 -3.1199  0.5512
  595MOL0     H80297  14.510   5.912   3.036  1.2540  1.4980 -0.3558
  595MOL0     H80298  14.528   5.824   2.879  0.2594  4.3739 -1.0826
  595MOL0     H80299  14.703   5.979   2.911  2.4034  2.1375  2.6805
  595MOL0     H80300  14.725   5.936   3.076  1.3770 -0.4753  0.3999
  595MOL0     H80301  14.792   5.756   2.848  3.9367  2.2461 -2.2660
  595MOL0     H80302  14.842   5.717   3.017 -2.4587 -1.0304 -0.8957
  595MOL0     H80303  14.966   5.935   3.008 -0.1705  2.5031 -1.0717
  595MOL0     H80304  15.048   5.809   2.913 -1.2871 -2.0701 -0.9262
  595MOL0     H80305  14.000   5.579   3.355  0.3962  0.3561 -0.7137
  595MOL0     H80306  13.789   5.520   3.406  2.2544  1.2140  0.9963
  595MOL0     H80307  13.357   5.343   3.558 -0.0126 -0.5893  0.2036
  595MOL0     H80308  13.113   5.310   3.535 -1.9606 -0.1694 -1.6173
  595MOL0     H80309  11.371   5.401   2.422 -1.8867 -0.7336  2.2787
  595MOL0     H80310  11.217   5.519   2.240  3.3159  0.4286  1.3115
  595MOL0     H80311  10.653   5.306   2.048 -3.1572  0.8854 -0.8219
  595MOL0     H80312  10.518   5.378   1.873 -0.4695 -0.4750 -2.8828
  595MOL0     H80313  10.710   5.452   1.499 -1.0641 -0.8017  0.2376
  595MOL0     H80314  10.685   5.633   1.536  2.7285 -0.2875 -3.1955
  595MOL0     H80315  10.563   5.547   1.324  2.1168 -0.5181  0.6974
  595MOL0     H80316  10.471   5.634   1.440  0.4156  1.0015  1.9853
  595MOL0     H80317  10.331   5.450   1.386  0.5825  0.8142 -0.2669
  595MOL0     H80318  10.380   5.427   1.552 -1.7022 -0.2540  0.0910
  595MOL0     H80319  10.553   5.259   1.489 -0.9428 -0.1702  1.4653
  595MOL0     H80320  10.400   5.218   1.465  2.5843  0.0416  3.5952
  595MOL0     H80321  10.544   5.180   1.061  0.9041  1.7360 -1.4612
  595MOL0     H80322  10.851   5.582   1.679  0.8969 -1.5206  0.1581
  595MOL0     H80323  11.069   5.571   1.952 -1.1037 -0.0217  0.0170
  595MOL0     H80324  11.094   5.513   1.781 -0.4931  1.0845 -2.0940
  595MOL0     H80325  11.015   5.663   1.822  0.5019  0.2173  1.2335
  596MOL0     O80326   5.587   9.886   4.839  0.3052  0.1810 -0.1442
  596MOL0     C80327   5.510   9.808   4.797 -0.6434  0.7884 -0.8166
  596MOL0     O80328   5.524   9.673   4.809 -0.2711  0.7637 -0.6262
  596MOL0     C80329   5.652   9.629   4.839  0.5387  0.1026 -0.6330
  596MOL0     C80330   5.770   9.665   4.772  0.5769 -0.2332 -0.0157
  596MOL0     C80331   5.897   9.633   4.816  0.2607  0.3532 -1.0444
  596MOL0     C80332   5.906   9.542   4.924  0.0368 -0.5346  0.4272
  596MOL0     O80333   6.033   9.500   4.963 -0.5662 -0.7932 -0.0139
  596MOL0     C80334   6.043   9.358   4.981  0.8979 -0.8141  0.0114
  596MOL0     C80335   6.194   9.319   4.979 -0.0923 -0.5386  0.7229
  596MOL0     C80336   6.209   9.175   4.945 -0.4877 -0.2291 -0.9681
  596MOL0     C80337   6.357   9.134   4.955 -0.6222 -0.1226 -0.7137
  596MOL0     C80338   6.399   9.083   5.095  0.9015 -0.8786  0.7115
  596MOL0     C80339   6.546   9.071   5.103  0.7533  0.3146  1.0434
  596MOL0     C80340   6.596   9.012   5.242 -0.1395  0.5726 -0.3857
  596MOL0     C80341   6.542   8.867   5.258 -0.8700 -0.5615 -0.6931
  596MOL0     N80342   6.609   8.791   5.359  0.2049  1.1099 -0.7072
  596MOL0     C80343   6.609   8.820   5.500  0.5342 -0.4318  0.1500
  596MOL0     C80344   6.660   8.707   5.558 -0.4766 -0.2447 -0.0460
  596MOL0     C80345   6.687   8.696   5.712  0.9159 -0.4783 -0.1965
  596MOL0     C80346   6.740   8.562   5.770 -0.0357 -0.3501  0.2906
  596MOL0     C80347   6.734   8.567   5.924 -1.1613 -0.0016  0.9748
  596MOL0     C80348   6.816   8.457   5.967 -0.8070 -0.1235  0.5809
  596MOL0     O80349   6.961   8.478   5.959 -0.0635  0.2736 -0.2150
  596MOL0     C80350   7.043   8.381   6.010  0.4029  0.0424 -0.2192
  596MOL0     C80351   7.175   8.416   6.016  0.1543  1.6371  0.3834
  596MOL0     C80352   7.272   8.316   6.056 -0.7236  0.5407  0.9158
  596MOL0     C80353   7.235   8.184   6.081 -1.0313 -0.0330 -0.5135
  596MOL0     C80354   7.346   8.092   6.124 -0.1773  0.4685  0.0261
  596MOL0     O80355   7.479   8.137   6.109  0.9664  0.0564  1.1442
  596MOL0     C80356   7.583   8.044   6.100 -0.2226  0.5121 -0.2730
  596MOL0     C80357   7.709   8.090   6.142  0.8220 -0.3542  0.1015
  596MOL0     C80358   7.821   8.018   6.134 -0.2093  0.5141 -0.4468
  596MOL0     C80359   7.820   7.899   6.062  0.4939 -0.5366  0.3053
  596MOL0     O80360   7.923   7.815   6.028 -0.2640 -0.3156  0.4730
  596MOL0     C80361   8.044   7.834   6.089 -0.1503  0.0051  0.1006
  596MOL0     C80362   8.128   7.705   6.104 -0.8752 -0.5334 -0.6131
  596MOL0     C80363   8.241   7.743   6.197 -0.4786 -0.4485 -0.3400
  596MOL0     C80364   8.370   7.756   6.109  0.3482  0.3606 -1.2131
  596MOL0     C80365   8.489   7.785   6.207  0.2282  0.8487  0.0973
  596MOL0     C80366   8.479   7.929   6.272 -0.3788  0.8626 -0.0943
  596MOL0     C80367   8.610   7.998   6.300  0.1602 -0.0669  0.2053
  596MOL0     C80368   8.677   7.969   6.441 -0.0515  0.9330  0.2051
  596MOL0    Cl80369   8.586   8.039   6.578 -0.1603  0.2947  0.4289
  596MOL0     C80370   7.701   7.852   6.009  0.2790 -0.3774  0.5612
  596MOL0     C80371   7.573   7.916   6.030 -0.2457  1.0416  0.5554
  596MOL0     O80372   7.316   7.979   6.165  0.0644  0.1791  0.1173
  596MOL0     C80373   7.103   8.146   6.066  0.1669  0.8266 -0.0292
  596MOL0     C80374   7.008   8.244   6.032  0.0995 -0.0215  0.3336
  596MOL0     N80375   6.682   8.617   5.455  0.9599  0.0399  0.0044
  596MOL0     N80376   6.640   8.664   5.343 -0.1108  0.8068 -0.4925
  596MOL0     C80377   5.789   9.508   4.999 -0.1327 -0.9523 -0.2066
  596MOL0     C80378   5.667   9.556   4.956  0.4482 -0.6899 -0.1023
  596MOL0     C80379   5.374   9.865   4.766  0.3133  0.4975  0.9134
  596MOL0     C80380   5.263   9.776   4.768  0.3992 -0.5965  0.0162
  596MOL0     C80381   5.130   9.817   4.750 -0.8620 -0.8596  0.5268
  596MOL0     C80382   5.101   9.956   4.729 -0.1108  0.0757 -0.3323
  596MOL0     O80383   4.973   9.988   4.707 -0.0557  0.1266  0.5640
  596MOL0     C80384   4.934  10.113   4.655 -0.1129  0.0873 -0.0417
  596MOL0     C80385   4.793  10.146   4.629  0.7169 -0.0266 -0.4748
  596MOL0     C80386   4.730  10.157   4.771 -0.1632  0.2639  0.2486
  596MOL0     C80387   4.579  10.142   4.761 -0.5955  0.1513 -0.3225
  596MOL0     C80388   4.511  10.270   4.747  1.0138 -0.2879  0.3218
  596MOL0     C80389   4.451  10.380   4.741  0.4046 -0.2676  0.1447
  596MOL0     C80390   5.212  10.045   4.728 -0.2117 -0.2603 -0.3003
  596MOL0     C80391   5.344  10.002   4.752  1.6703  0.2322 -0.2869
  596MOL0     C80392   5.438  10.116   4.755 -0.0681 -0.1231 -0.3779
  596MOL0     H80393   5.762   9.735   4.689  0.3266  0.6453  0.7296
  596MOL0     H80394   5.987   9.663   4.762  0.6572  0.3187 -0.4076
  596MOL0     H80395   5.983   9.342   5.072 -0.8095  3.0250 -0.2604
  596MOL0     H80396   5.995   9.308   4.897  0.3405 -1.3547  0.6343
  596MOL0     H80397   6.241   9.342   5.075 -1.2812  1.0189  0.9888
  596MOL0     H80398   6.240   9.377   4.898 -0.3840 -0.6073  0.5035
  596MOL0     H80399   6.193   9.159   4.838 -0.1151  1.7083 -1.3495
  596MOL0     H80400   6.133   9.112   4.992  0.1280 -1.6280 -1.7949
  596MOL0     H80401   6.389   9.063   4.878 -0.5576 -0.9620  0.0714
  596MOL0     H80402   6.409   9.229   4.935  0.8089 -0.8311 -0.5027
  596MOL0     H80403   6.369   9.160   5.166  0.2127  1.1088 -1.5790
  596MOL0     H80404   6.343   8.995   5.126 -1.6277  0.9427  1.7166
  596MOL0     H80405   6.584   9.018   5.015  2.3950 -0.1410  1.9830
  596MOL0     H80406   6.590   9.169   5.084  0.5198  0.3028  0.3975
  596MOL0     H80407   6.565   9.080   5.322  0.8987  1.9304 -1.0750
  596MOL0     H80408   6.705   9.009   5.235 -0.0199  3.5880 -1.4752
  596MOL0     H80409   6.435   8.878   5.276 -0.8254 -0.6035 -0.4097
  596MOL0     H80410   6.548   8.821   5.158 -1.4629 -0.0403 -0.9769
  596MOL0     H80411   6.569   8.900   5.561  0.4313 -1.4774  1.5102
  596MOL0     H80412   6.751   8.776   5.749  1.1796  0.6829 -2.8776
  596MOL0     H80413   6.594   8.718   5.765  1.8890  1.1926  0.8942
  596MOL0     H80414   6.669   8.486   5.737  0.6429 -1.5854  1.5913
  596MOL0     H80415   6.842   8.544   5.737  1.4780  0.3637  4.1014
  596MOL0     H80416   6.633   8.556   5.967 -1.8621  2.9101  0.2988
  596MOL0     H80417   6.768   8.665   5.959 -0.4121  1.0380 -2.3468
  596MOL0     H80418   6.779   8.367   5.917 -0.6889 -0.2357  0.6944
  596MOL0     H80419   6.783   8.434   6.069 -1.4831  3.0393  1.1894
  596MOL0     H80420   7.218   8.511   5.987  0.5774  0.7197 -2.3386
  596MOL0     H80421   7.375   8.348   6.069 -0.7700  1.3892 -0.6133
  596MOL0     H80422   7.704   8.187   6.189 -0.5112  0.5577 -1.7596
  596MOL0     H80423   7.907   8.070   6.175  0.1119 -0.5505  0.2593
  596MOL0     H80424   8.098   7.899   6.020 -1.1521  0.5728 -0.1768
  596MOL0     H80425   8.024   7.886   6.183 -0.1581  1.9884 -0.9411
  596MOL0     H80426   8.078   7.619   6.149  0.3477 -1.7347 -1.4712
  596MOL0     H80427   8.161   7.670   6.006 -1.7134 -0.8599 -0.7850
  596MOL0     H80428   8.218   7.834   6.252 -3.0298 -1.3646  0.2904
  596MOL0     H80429   8.264   7.661   6.266  1.8306  0.0751 -0.4070
  596MOL0     H80430   8.355   7.836   6.035 -1.0652 -0.1663 -1.5410
  596MOL0     H80431   8.384   7.659   6.061  0.8711 -2.0252  3.2100
  596MOL0     H80432   8.587   7.776   6.160  0.7373 -2.7366  1.5246
  596MOL0     H80433   8.487   7.707   6.284  3.8155  0.3940 -0.1094
  596MOL0     H80434   8.415   7.989   6.206 -1.8278 -2.0222 -1.5164
  596MOL0     H80435   8.425   7.925   6.367 -0.5789  1.5404 -0.1786
  596MOL0     H80436   8.586   8.105   6.295 -0.1842 -0.2115 -1.9448
  596MOL0     H80437   8.684   7.986   6.221  0.8000  1.1275  0.5937
  596MOL0     H80438   8.707   7.864   6.445  2.6421  1.6342  0.1391
  596MOL0     H80439   8.770   8.026   6.440 -0.6212  1.9174 -1.4461
  596MOL0     H80440   7.713   7.755   5.960 -0.7665  0.1354 -0.7719
  596MOL0     H80441   7.477   7.879   5.995  0.9095 -2.9359  1.1267
  596MOL0     H80442   7.069   8.042   6.064 -3.3866  1.8333  0.6827
  596MOL0     H80443   6.911   8.198   6.019 -1.6582  3.3820  0.2095
  596MOL0     H80444   5.795   9.473   5.102 -1.8700 -0.9584 -0.0715
  596MOL0     H80445   5.586   9.538   5.026  1.3721  2.0402  1.8569
  596MOL0     H80446   5.278   9.669   4.775 -1.9842 -0.9426  0.5613
  596MOL0     H80447   5.051   9.743   4.741 -0.9660 -0.5347 -2.5597
  596MOL0     H80448   4.974  10.117   4.553 -3.0382 -0.6812 -1.3236
  596MOL0     H80449   4.981  10.192   4.713 -0.7458  0.2663  0.2361
  596MOL0     H80450   4.745  10.054   4.592  1.0466 -1.9975  3.4577
  596MOL0     H80451   4.782  10.228   4.557  3.0930  1.4912  0.7494
  596MOL0     H80452   4.768  10.251   4.812  1.0712 -0.9518  2.0198
  596MOL0     H80453   4.765  10.074   4.832 -0.0391  1.1548  1.4284
  596MOL0     H80454   4.562  10.069   4.682  0.7320  0.9578 -1.4108
  596MOL0     H80455   4.550  10.100   4.857  1.1812 -1.0413 -0.2528
  596MOL0     H80456   4.409  10.478   4.740  4.1263  1.5846  2.1981
  596MOL0     H80457   5.206  10.150   4.701  0.7258  0.1270  0.9043
  596MOL0     H80458   5.392  10.214   4.745  2.1672  0.8405 -1.9164
  596MOL0     H80459   5.486  10.128   4.853  1.1704  1.3981 -1.1301
  596MOL0     H80460   5.518  10.098   4.683 -0.0332 -1.6744  0.0112
  597MOL0     O80461  10.663   4.592   1.804  0.1090 -0.1702 -0.5510
  597MOL0     C80462  10.696   4.666   1.897  0.0919  0.5446  1.2230
  597MOL0     O80463  10.813   4.665   1.964  0.2328 -0.0492 -0.6756
  597MOL0     C80464  10.917   4.595   1.925  0.4222 -0.4228  0.6277
  597MOL0     C80465  10.930   4.452   1.922  0.4913 -0.0264  0.6407
  597MOL0     C80466  11.051   4.390   1.887  0.4498  0.2546 -0.7519
  597MOL0     C80467  11.160   4.472   1.842  0.1219 -0.0597  0.0696
  597MOL0     O80468  11.290   4.419   1.814 -0.7090 -0.4815  0.6863
  597MOL0     C80469  11.390   4.469   1.895  0.3641  0.1710  0.1982
  597MOL0     C80470  11.540   4.425   1.854 -0.0300 -0.0845 -0.7558
  597MOL0     C80471  11.633   4.509   1.928 -0.9818  0.6374 -0.5186
  597MOL0     C80472  11.769   4.446   1.946 -0.3033 -0.1199  0.3403
  597MOL0     C80473  11.874   4.545   1.994 -0.0553  0.2992 -0.9936
  597MOL0     C80474  12.004   4.470   2.022 -0.2753  0.5727 -0.7445
  597MOL0     C80475  12.108   4.561   2.099 -0.6633 -0.9249 -0.5365
  597MOL0     C80476  12.254   4.492   2.116 -0.4113  0.3690  0.0617
  597MOL0     N80477  12.354   4.587   2.174 -0.5885  0.3060  0.1158
  597MOL0     C80478  12.428   4.678   2.106  0.6021 -0.5078 -0.0333
  597MOL0     C80479  12.536   4.697   2.184 -0.1392 -0.4464  0.3771
  597MOL0     C80480  12.666   4.777   2.148 -1.3454  0.4170 -1.0519
  597MOL0     C80481  12.791   4.708   2.219  0.1343 -0.0592 -0.2746
  597MOL0     C80482  12.921   4.779   2.173  0.8954 -0.2456  0.1288
  597MOL0     C80483  12.920   4.929   2.219  0.2957  0.1296  0.0465
  597MOL0     O80484  13.032   5.001   2.170 -0.1995  0.3744 -0.1421
  597MOL0     C80485  13.163   4.977   2.209 -0.3890 -0.5061  0.4252
  597MOL0     C80486  13.212   4.926   2.330  0.5645 -0.4985  0.3892
  597MOL0     C80487  13.351   4.919   2.349  0.2280  0.4087 -1.3847
  597MOL0     C80488  13.444   4.956   2.246  0.6298 -0.5764 -0.1515
  597MOL0     C80489  13.592   4.940   2.261 -0.8747  0.6466  0.4300
  597MOL0     O80490  13.646   4.923   2.390  0.1401 -1.2120  0.6395
  597MOL0     C80491  13.769   4.861   2.407 -0.3064 -0.8830 -0.1584
  597MOL0     C80492  13.769   4.746   2.483 -0.6132  0.0232 -0.4541
  597MOL0     C80493  13.895   4.684   2.507  0.5161  0.3227 -0.3635
  597MOL0     C80494  14.014   4.734   2.461  0.8755  0.7237  0.1858
  597MOL0     O80495  14.129   4.678   2.493 -0.5770  0.7786  0.1254
  597MOL0     C80496  14.216   4.632   2.390 -0.5064 -0.0779  0.1873
  597MOL0     C80497  14.225   4.473   2.407  1.4510 -0.3163  0.9937
  597MOL0     C80498  14.300   4.435   2.533 -0.0834 -0.0081 -0.7216
  597MOL0     C80499  14.286   4.285   2.556 -0.0265 -0.0803  0.3070
  597MOL0     C80500  14.343   4.242   2.693 -0.5822 -0.2835  0.1759
  597MOL0     C80501  14.502   4.233   2.718  0.7447  0.5449  0.5460
  597MOL0     C80502  14.570   4.190   2.590 -0.1941  0.5507 -0.5050
  597MOL0     C80503  14.708   4.127   2.631 -0.0867  0.3332  0.5637
  597MOL0    Cl80504  14.800   4.251   2.734  0.1481  0.2462  0.0895
  597MOL0     C80505  14.022   4.845   2.379  1.2119 -0.3244 -1.0775
  597MOL0     C80506  13.893   4.911   2.358 -0.6250  0.3090 -0.3143
  597MOL0     O80507  13.661   4.943   2.160  0.0900  0.5945  0.5297
  597MOL0     C80508  13.390   4.993   2.123  0.3464 -0.5845 -0.0727
  597MOL0     C80509  13.255   5.002   2.105 -0.4633  0.4421 -0.6142
  597MOL0     N80510  12.504   4.645   2.307 -0.3071  0.0577  0.5291
  597MOL0     N80511  12.401   4.562   2.297  0.0421 -0.2272  0.4246
  597MOL0     C80512  11.139   4.607   1.833 -0.2295 -0.5791 -0.4714
  597MOL0     C80513  11.020   4.669   1.875 -0.0405  0.4006  0.9847
  597MOL0     C80514  10.596   4.766   1.935 -0.0015 -0.5438  0.6882
  597MOL0     C80515  10.462   4.753   1.897 -0.3428 -0.2934  0.3705
  597MOL0     C80516  10.368   4.848   1.921  0.2174 -0.2316  0.8340
  597MOL0     C80517  10.400   4.969   1.982  0.3752  0.6368  0.0876
  597MOL0     O80518  10.324   5.076   1.989 -0.1108  0.2772  0.0442
  597MOL0     C80519  10.256   5.106   1.872 -0.2490 -0.6555 -0.3207
  597MOL0     C80520  10.204   5.250   1.877 -1.4396 -0.0585 -0.1077
  597MOL0     C80521  10.134   5.276   1.744 -0.4062 -0.2550 -0.3088
  597MOL0     C80522  10.067   5.418   1.753 -0.4206  0.0068 -0.3648
  597MOL0     C80523  10.164   5.528   1.721 -0.1929  0.2727  0.2781
  597MOL0     C80524  10.241   5.616   1.712  0.0081 -0.3692  0.4059
  597MOL0     C80525  10.530   4.992   2.023  0.1803 -0.3058 -0.2531
  597MOL0     C80526  10.630   4.893   2.004 -0.3228  0.3270 -0.2145
  597MOL0     C80527  10.771   4.929   2.048  0.4783 -0.5858  0.1580
  597MOL0     H80528  10.850   4.388   1.957  2.5518 -2.7069  0.7648
  597MOL0     H80529  11.044   4.282   1.895 -1.2804  0.2980 -1.2427
  597MOL0     H80530  11.403   4.576   1.877 -0.4977  0.2187 -0.1642
  597MOL0     H80531  11.370   4.444   2.000  2.6353 -2.0014  0.2161
  597MOL0     H80532  11.557   4.425   1.745  2.9864 -2.1940 -0.4116
  597MOL0     H80533  11.546   4.321   1.890 -0.0273  0.1124 -0.1817
  597MOL0     H80534  11.588   4.526   2.027 -0.0867 -2.5961  0.5410
  597MOL0     H80535  11.658   4.602   1.876 -1.6116  0.1346 -1.7699
  597MOL0     H80536  11.755   4.376   2.029 -1.5215  1.4290  1.5192
  597MOL0     H80537  11.808   4.404   1.853  0.2571  0.0758  0.4858
  597MOL0     H80538  11.899   4.617   1.915 -0.1844  1.8705  0.3392
  597MOL0     H80539  11.827   4.594   2.080 -0.0870  0.3772 -1.0551
  597MOL0     H80540  11.975   4.386   2.086  3.5951 -1.3952 -1.3011
  597MOL0     H80541  12.051   4.437   1.929  3.8088 -1.2504  1.6899
  597MOL0     H80542  12.065   4.588   2.196  1.3174 -2.5192  0.8669
  597MOL0     H80543  12.128   4.653   2.043  0.1629 -0.5180  0.3871
  597MOL0     H80544  12.234   4.407   2.183  1.3420  0.7268  1.0831
  597MOL0     H80545  12.288   4.447   2.022 -0.5736 -0.0313  0.1900
  597MOL0     H80546  12.414   4.716   2.006  1.0305  1.1237  0.4968
  597MOL0     H80547  12.679   4.773   2.040  0.1967  2.6441 -1.0058
  597MOL0     H80548  12.653   4.883   2.173 -1.6162  0.1555 -0.0384
  597MOL0     H80549  12.790   4.699   2.328 -1.5837 -2.7782 -0.4197
  597MOL0     H80550  12.787   4.601   2.198 -0.1161  0.1805 -1.5301
  597MOL0     H80551  12.925   4.775   2.063 -1.4661 -0.8031  0.0147
  597MOL0     H80552  13.014   4.732   2.206  0.5231 -1.4536 -0.4729
  597MOL0     H80553  12.920   4.933   2.328 -2.7599  0.8258  0.0916
  597MOL0     H80554  12.827   4.981   2.198 -1.5930 -1.1649  4.1658
  597MOL0     H80555  13.150   4.895   2.413  0.4102  0.1840  0.5391
  597MOL0     H80556  13.387   4.868   2.438 -1.6857  0.9481 -0.2635
  597MOL0     H80557  13.673   4.707   2.515  0.2975 -0.6362  1.5972
  597MOL0     H80558  13.895   4.592   2.565 -0.9959 -0.8432 -2.1271
  597MOL0     H80559  14.176   4.651   2.290 -1.0109 -1.4672  0.1037
  597MOL0     H80560  14.314   4.680   2.395 -0.4656  0.0963 -1.5312
  597MOL0     H80561  14.132   4.417   2.397  2.2219 -1.7761  1.6627
  597MOL0     H80562  14.283   4.441   2.320  0.0892 -2.7492  0.8806
  597MOL0     H80563  14.406   4.458   2.523  0.0075 -0.5250 -0.9511
  597MOL0     H80564  14.259   4.480   2.624 -2.2678  0.7869 -2.0038
  597MOL0     H80565  14.332   4.224   2.478 -0.1573  0.4433 -0.1817
  597MOL0     H80566  14.179   4.262   2.547 -0.8468  2.9813  1.1888
  597MOL0     H80567  14.295   4.143   2.697 -2.2400  0.3876 -1.6969
  597MOL0     H80568  14.294   4.297   2.774 -3.2095 -0.8544 -0.9244
  597MOL0     H80569  14.533   4.333   2.749  0.4742  0.4120  1.2815
  597MOL0     H80570  14.532   4.161   2.795  3.4399 -0.0529 -0.9370
  597MOL0     H80571  14.586   4.277   2.526 -2.9297  1.5342  0.0237
  597MOL0     H80572  14.516   4.110   2.539  0.9839  0.8029 -2.2453
  597MOL0     H80573  14.692   4.029   2.678  2.9523  0.6357  2.5239
  597MOL0     H80574  14.775   4.117   2.545  0.7207 -2.9691  1.4497
  597MOL0     H80575  14.116   4.887   2.345  0.5446  0.2023 -2.3332
  597MOL0     H80576  13.891   5.013   2.318  0.1967  0.7702  0.7806
  597MOL0     H80577  13.453   5.038   2.047 -1.6175  2.1125 -0.2778
  597MOL0     H80578  13.214   5.028   2.009  0.2764 -1.1093 -1.3963
  597MOL0     H80579  11.210   4.679   1.794  2.0883 -2.5139 -0.0899
  597MOL0     H80580  11.003   4.773   1.853 -1.5560  0.0134  0.1597
  597MOL0     H80581  10.424   4.656   1.866 -0.8972  0.6215 -2.0323
  597MOL0     H80582  10.267   4.817   1.896  0.4530 -2.9752  2.8665
  597MOL0     H80583  10.166   5.044   1.860  0.5446 -2.1240  0.9162
  597MOL0     H80584  10.324   5.087   1.788  0.1617  1.2394 -0.4500
  597MOL0     H80585  10.290   5.318   1.874 -0.9374 -0.5294  2.1327
  597MOL0     H80586  10.142   5.273   1.964  1.9837 -1.5575  2.9799
  597MOL0     H80587  10.050   5.206   1.733 -1.3318  1.0869 -2.3929
  597MOL0     H80588  10.197   5.263   1.655 -3.1258 -1.0666 -2.2441
  597MOL0     H80589   9.991   5.433   1.677  2.4439 -0.2724 -3.5242
  597MOL0     H80590  10.023   5.418   1.853  1.3529  0.3524  0.4567
  597MOL0     H80591  10.310   5.697   1.703 -1.2929  0.7140 -0.1269
  597MOL0     H80592  10.554   5.087   2.069  3.4965 -1.1518  0.0074
  597MOL0     H80593  10.757   5.011   2.119  0.7338 -1.8597  1.7329
  597MOL0     H80594  10.824   4.853   2.107  0.6821  1.3635  2.6431
  597MOL0     H80595  10.830   4.958   1.961 -1.5941  1.8825 -0.5374
  598MOL0     O80596   8.293   7.595  10.935  0.3212  0.7545  0.1405
  598MOL0     C80597   8.308   7.693  10.862 -0.0298 -0.1329 -1.0138
  598MOL0     O80598   8.408   7.706  10.775  0.1074  0.3773  0.3426
  598MOL0     C80599   8.472   7.590  10.743 -0.3191  0.7158 -0.2315
  598MOL0     C80600   8.578   7.560  10.836  0.0894  0.1284  0.4862
  598MOL0     C80601   8.622   7.431  10.834 -0.9210 -0.9830  0.3492
  598MOL0     C80602   8.587   7.340  10.736  0.6641  0.3789 -0.2963
  598MOL0     O80603   8.637   7.213  10.714  0.1924  0.2071 -0.5023
  598MOL0     C80604   8.742   7.162  10.789 -0.1844 -0.2139 -0.3271
  598MOL0     C80605   8.801   7.043  10.715  0.6305  0.2520  0.5291
  598MOL0     C80606   8.931   6.991  10.782  0.6313  0.4607  0.2236
  598MOL0     C80607   8.988   6.883  10.696 -0.4714 -0.2936 -0.1734
  598MOL0     C80608   9.095   6.803  10.767  0.0636 -0.1037  0.4293
  598MOL0     C80609   9.117   6.677  10.687 -0.1684  0.1680 -0.3104
  598MOL0     C80610   9.189   6.573  10.761 -0.1519  0.5909 -0.1904
  598MOL0     C80611   9.184   6.430  10.697 -0.2208  0.4805 -0.8395
  598MOL0     N80612   9.222   6.324  10.797 -0.1359  0.3790  0.1611
  598MOL0     C80613   9.145   6.280  10.899 -0.5801 -0.3137 -0.0384
  598MOL0     C80614   9.224   6.205  10.975  0.0376  0.1845 -0.2322
  598MOL0     C80615   9.176   6.119  11.088  0.3582  0.2038 -0.0320
  598MOL0     C80616   9.289   6.088  11.182  0.5615  0.2183 -0.2842
  598MOL0     C80617   9.326   6.208  11.266 -0.0320 -0.4622 -0.1147
  598MOL0     C80618   9.470   6.199  11.309  0.0151 -0.3778  0.3069
  598MOL0     O80619   9.507   6.283  11.413 -0.4909  0.0617 -0.0651
  598MOL0     C80620   9.640   6.315  11.447  0.0795 -0.0803  0.6887
  598MOL0     C80621   9.658   6.366  11.572  0.8861  0.0264  0.2545
  598MOL0     C80622   9.793   6.387  11.621 -1.4487  0.2128 -0.4434
  598MOL0     C80623   9.905   6.368  11.539 -0.8890 -0.5540  0.0910
  598MOL0     C80624  10.036   6.395  11.589  0.5918  0.0375 -0.6135
  598MOL0     O80625  10.142   6.340  11.519 -0.6023  0.1302  0.1465
  598MOL0     C80626  10.265   6.335  11.579  0.0658 -0.7022  1.1688
  598MOL0     C80627  10.278   6.273  11.703  0.1673  0.2947  0.2795
  598MOL0     C80628  10.396   6.279  11.777 -1.2770 -0.1050 -0.4067
  598MOL0     C80629  10.504   6.352  11.732 -0.4205 -0.5754 -0.1128
  598MOL0     O80630  10.618   6.354  11.807 -0.2928 -0.3893 -0.1310
  598MOL0     C80631  10.726   6.440  11.764 -0.9593  0.2026 -0.4565
  598MOL0     C80632  10.847   6.411  11.843 -0.5974  0.4464  0.3295
  598MOL0     C80633  10.954   6.516  11.826  0.1640  0.3799  0.5693
  598MOL0     C80634  11.079   6.482  11.905 -0.5004 -0.1359  0.3116
  598MOL0     C80635  11.194   6.579  11.872 -0.2735 -0.3283  0.0470
  598MOL0     C80636  11.316   6.564  11.960 -0.5200  0.4194 -0.7674
  598MOL0     C80637  11.437   6.644  11.908 -0.4600 -0.4334 -0.5535
  598MOL0     C80638  11.566   6.578  11.953 -0.5115 -0.1206 -0.0205
  598MOL0    Cl80639  11.564   6.568  12.134 -0.3546 -0.2627  0.5964
  598MOL0     C80640  10.494   6.417  11.604 -0.3163 -0.4954 -0.7748
  598MOL0     C80641  10.370   6.415  11.535 -0.3846 -0.0781 -0.9744
  598MOL0     O80642  10.042   6.457  11.700 -0.2621  0.2372  0.7609
  598MOL0     C80643   9.883   6.322  11.403 -0.3528  0.2001 -0.4253
  598MOL0     C80644   9.749   6.299  11.363 -0.4295 -0.6546 -0.3253
  598MOL0     N80645   9.345   6.205  10.913 -0.4396 -0.6332 -0.5541
  598MOL0     N80646   9.346   6.267  10.809  0.6060 -0.0535  0.3376
  598MOL0     C80647   8.492   7.382  10.642 -0.8648  0.0576 -0.1992
  598MOL0     C80648   8.434   7.502  10.648 -0.1087  0.1450  0.7674
  598MOL0     C80649   8.218   7.806  10.860  0.8694 -0.1714  0.6677
  598MOL0     C80650   8.247   7.917  10.767  0.2808  0.4233  0.6367
  598MOL0     C80651   8.169   8.033  10.751  0.0434  0.4054 -0.2198
  598MOL0     C80652   8.048   8.034  10.821 -0.2206 -0.0504  0.4477
  598MOL0     O80653   7.960   8.141  10.805  0.2415 -0.5750 -0.1872
  598MOL0     C80654   7.881   8.189  10.911  0.4180  0.1130  0.9092
  598MOL0     C80655   7.823   8.320  10.862  0.0988  0.1773  0.7792
  598MOL0     C80656   7.753   8.393  10.981  0.3993 -0.5288 -0.5503
  598MOL0     C80657   7.640   8.488  10.942 -0.7148 -0.3983  0.8136
  598MOL0     C80658   7.580   8.553  11.061 -0.2179  0.1346  0.3735
  598MOL0     C80659   7.536   8.620  11.147  1.4882  0.0586  0.3315
  598MOL0     C80660   8.016   7.932  10.915  0.7711 -0.0561  0.3696
  598MOL0     C80661   8.097   7.820  10.940  0.9564  0.3777  0.2203
  598MOL0     C80662   8.041   7.724  11.039 -0.1215 -1.2543 -0.0545
  598MOL0     H80663   8.599   7.623  10.922 -0.7690  1.7107 -0.4201
  598MOL0     H80664   8.696   7.411  10.911  1.3883  0.1564 -1.4672
  598MOL0     H80665   8.819   7.239  10.796 -1.0200  0.5324  1.2173
  598MOL0     H80666   8.693   7.131  10.883 -1.9948  2.0289 -0.4505
  598MOL0     H80667   8.803   7.060  10.607 -0.4945  0.2547  0.5029
  598MOL0     H80668   8.725   6.966  10.723  1.4397 -0.4138  2.2284
  598MOL0     H80669   8.903   6.953  10.881 -1.9419  1.7736  0.0793
  598MOL0     H80670   9.003   7.071  10.804 -1.0555  2.4749 -1.2158
  598MOL0     H80671   8.913   6.822  10.644  0.7828  0.7485 -3.5123
  598MOL0     H80672   9.041   6.925  10.609 -1.1942 -1.0890 -1.0173
  598MOL0     H80673   9.187   6.856  10.794  0.9530 -1.3371 -0.0811
  598MOL0     H80674   9.040   6.780  10.858 -2.2455 -1.2716 -1.1486
  598MOL0     H80675   9.022   6.630  10.660 -1.2779  0.9356  1.9661
  598MOL0     H80676   9.180   6.695  10.600  1.8820  0.1954  1.1169
  598MOL0     H80677   9.140   6.562  10.858  1.6098 -1.6593  0.5398
  598MOL0     H80678   9.297   6.591  10.764  0.9440 -3.6700 -3.7397
  598MOL0     H80679   9.086   6.396  10.662  0.0801 -1.5843  0.1901
  598MOL0     H80680   9.246   6.418  10.607 -5.1235 -2.4512 -4.2986
  598MOL0     H80681   9.038   6.290  10.913 -1.1406 -1.4758 -2.8552
  598MOL0     H80682   9.090   6.153  11.148 -1.4264 -1.0278 -1.7513
  598MOL0     H80683   9.141   6.025  11.045 -0.0534  1.3568 -2.3747
  598MOL0     H80684   9.248   6.008  11.244 -0.3822 -0.3080 -1.5416
  598MOL0     H80685   9.368   6.052  11.116  0.4792 -1.0635  0.2953
  598MOL0     H80686   9.260   6.210  11.353 -0.1073  3.8184 -0.0323
  598MOL0     H80687   9.308   6.295  11.202  0.2064 -1.8034 -2.0985
  598MOL0     H80688   9.532   6.215  11.221  0.2592 -0.0509  0.5349
  598MOL0     H80689   9.502   6.102  11.348 -2.3387 -0.6032  1.8827
  598MOL0     H80690   9.567   6.375  11.631  0.5672  0.0781 -0.2458
  598MOL0     H80691   9.798   6.430  11.721 -1.8167 -0.7868  0.0143
  598MOL0     H80692  10.190   6.220  11.739  0.1201  0.1693 -0.0184
  598MOL0     H80693  10.402   6.221  11.869 -4.6161 -1.2521 -0.7670
  598MOL0     H80694  10.752   6.423  11.659  0.0867 -1.4636  0.0194
  598MOL0     H80695  10.705   6.547  11.767  0.7110  0.5421  1.9580
  598MOL0     H80696  10.830   6.391  11.949  0.5405  1.2733  0.6956
  598MOL0     H80697  10.892   6.322  11.800  1.5084  1.2742  0.6691
  598MOL0     H80698  10.980   6.518  11.719  0.7995 -3.3821  0.4994
  598MOL0     H80699  10.916   6.610  11.865  1.0808  0.9484  0.1125
  598MOL0     H80700  11.111   6.382  11.876  2.0004  0.8551 -0.6494
  598MOL0     H80701  11.049   6.500  12.009  4.1245  0.6716  1.7780
  598MOL0     H80702  11.159   6.683  11.879 -0.0416 -0.3410  3.0123
  598MOL0     H80703  11.233   6.561  11.772 -0.5504 -0.4365 -0.0416
  598MOL0     H80704  11.285   6.588  12.062 -0.5803  0.5718 -0.8225
  598MOL0     H80705  11.347   6.460  11.973 -1.9747 -0.3152 -2.6920
  598MOL0     H80706  11.453   6.746  11.944 -3.0444  0.1160 -0.7677
  598MOL0     H80707  11.432   6.643  11.799 -2.1971  1.5547 -0.5604
  598MOL0     H80708  11.577   6.473  11.924  0.7114  0.3825 -1.5102
  598MOL0     H80709  11.643   6.647  11.917 -0.0482  0.7189  2.3634
  598MOL0     H80710  10.572   6.474  11.556 -0.3452 -2.0766 -2.8352
  598MOL0     H80711  10.354   6.484  11.453 -3.0081  2.0975  1.1935
  598MOL0     H80712   9.962   6.277  11.345  1.4324 -3.3871  4.1545
  598MOL0     H80713   9.748   6.254  11.264  2.1393 -0.2507 -0.5959
  598MOL0     H80714   8.468   7.316  10.560  1.5092 -0.7364 -0.3213
  598MOL0     H80715   8.350   7.521  10.582  1.1503  0.3542 -0.8444
  598MOL0     H80716   8.337   7.902  10.708 -1.0991 -3.1201 -0.8566
  598MOL0     H80717   8.201   8.107  10.678  0.6635 -0.1418 -0.5216
  598MOL0     H80718   7.948   8.218  10.993  2.1897 -0.7936 -0.1335
  598MOL0     H80719   7.799   8.123  10.938 -0.1326  1.3276  2.3032
  598MOL0     H80720   7.748   8.308  10.784 -0.0647  0.8113  0.8272
  598MOL0     H80721   7.904   8.383  10.824  3.9020 -1.3884  5.3254
  598MOL0     H80722   7.824   8.431  11.055 -0.6433 -2.6216  1.6374
  598MOL0     H80723   7.702   8.316  11.038 -1.9112  2.5768  1.9606
  598MOL0     H80724   7.666   8.565  10.869 -3.3769 -1.7014 -1.6953
  598MOL0     H80725   7.562   8.427  10.896 -2.9317  1.0390  2.4185
  598MOL0     H80726   7.484   8.665  11.229  1.7207 -0.6036  0.8529
  598MOL0     H80727   7.929   7.946  10.979 -0.1106  0.9346 -0.9744
  598MOL0     H80728   7.943   7.747  11.082 -1.3235 -2.5159 -1.9435
  598MOL0     H80729   8.021   7.623  11.002 -2.8710 -1.4064  1.5977
  598MOL0     H80730   8.119   7.720  11.115  0.8292  3.1946 -0.4744
  599MOL0     O80731   6.935   7.316   6.688  0.2484  0.9020  0.6758
  599MOL0     C80732   6.936   7.440   6.662  0.2383 -0.0143 -0.1559
  599MOL0     O80733   7.057   7.512   6.632 -0.0089  0.7031  0.0235
  599MOL0     C80734   7.172   7.431   6.615 -0.7041 -0.3670  0.3102
  599MOL0     C80735   7.240   7.371   6.724  0.9936 -0.1347  0.1497
  599MOL0     C80736   7.352   7.293   6.695 -0.0863  0.2902 -0.3481
  599MOL0     C80737   7.399   7.285   6.560  0.1670 -0.2420 -0.6289
  599MOL0     O80738   7.492   7.201   6.520 -0.6542  0.7696  0.6119
  599MOL0     C80739   7.616   7.210   6.591 -0.5150 -0.7435 -0.6773
  599MOL0     C80740   7.713   7.106   6.544 -0.2842 -0.1160  1.0233
  599MOL0     C80741   7.834   7.115   6.638 -0.1487  0.7764  0.3241
  599MOL0     C80742   7.943   7.029   6.575  0.1551  0.3498 -0.7009
  599MOL0     C80743   8.067   7.023   6.677  0.3470  0.2913  0.9012
  599MOL0     C80744   8.152   7.159   6.683 -0.7940  0.5352  0.5741
  599MOL0     C80745   8.266   7.141   6.783  0.9372 -0.3374 -0.1521
  599MOL0     C80746   8.338   7.277   6.810  0.4918 -0.1532  0.1546
  599MOL0     N80747   8.466   7.269   6.892  0.0685  0.8077  0.0675
  599MOL0     C80748   8.569   7.183   6.850  0.1308  0.1418  0.2774
  599MOL0     C80749   8.664   7.191   6.942  0.5301 -0.4634  0.1911
  599MOL0     C80750   8.790   7.114   6.933 -0.0821 -0.5560  0.5212
  599MOL0     C80751   8.904   7.207   6.876  0.4293 -0.3739 -0.1507
  599MOL0     C80752   8.946   7.329   6.959 -0.2789  0.4423  0.0728
  599MOL0     C80753   9.039   7.419   6.875 -0.0076 -0.2139  0.3868
  599MOL0     O80754   9.076   7.527   6.956  0.4861  0.4431 -0.3761
  599MOL0     C80755   9.172   7.611   6.919 -0.4494  0.2680  0.3463
  599MOL0     C80756   9.217   7.627   6.783 -0.9297 -0.3896 -0.6338
  599MOL0     C80757   9.326   7.717   6.756  0.4046  0.2319 -0.0981
  599MOL0     C80758   9.410   7.779   6.856 -0.5565  0.7395  1.2690
  599MOL0     C80759   9.535   7.847   6.826  0.0384  0.2644 -0.0055
  599MOL0     O80760   9.585   7.859   6.699 -0.4580 -0.3211 -0.3987
  599MOL0     C80761   9.711   7.901   6.688 -0.3755  0.0260 -0.6514
  599MOL0     C80762   9.823   7.868   6.769  0.0666 -0.2776  0.3592
  599MOL0     C80763   9.954   7.909   6.728 -0.2497 -0.7192  0.5581
  599MOL0     C80764   9.979   7.984   6.611  0.4005  0.1119  0.4757
  599MOL0     O80765  10.108   8.024   6.583 -0.1314  0.1216 -0.0083
  599MOL0     C80766  10.103   8.129   6.485 -0.0860 -0.0688 -0.7895
  599MOL0     C80767  10.238   8.202   6.484  0.5623 -0.0049  0.5197
  599MOL0     C80768  10.368   8.121   6.467 -0.2551 -0.4762  0.1002
  599MOL0     C80769  10.494   8.208   6.439 -0.2226 -0.4886  0.0257
  599MOL0     C80770  10.622   8.134   6.414  0.2955 -0.0814 -0.2991
  599MOL0     C80771  10.736   8.225   6.375  0.2264 -0.6258  0.6449
  599MOL0     C80772  10.856   8.148   6.330 -0.2945 -0.2796  0.3626
  599MOL0     C80773  10.951   8.251   6.270  0.0009 -0.3087 -0.0404
  599MOL0    Cl80774  11.028   8.362   6.401 -0.2740 -0.0009 -0.1642
  599MOL0     C80775   9.867   8.015   6.530 -0.1570  0.1404 -0.2386
  599MOL0     C80776   9.739   7.973   6.570  0.0206  0.1798  0.0833
  599MOL0     O80777   9.590   7.877   6.925  0.2085 -0.9130  0.4453
  599MOL0     C80778   9.362   7.753   6.990  0.3667  0.4136 -0.1430
  599MOL0     C80779   9.245   7.675   7.021 -0.0721 -0.0359 -0.3441
  599MOL0     N80780   8.617   7.272   7.043  0.2201 -0.0341  0.3783
  599MOL0     N80781   8.501   7.310   7.013  0.3006  1.3890  0.0077
  599MOL0     C80782   7.325   7.338   6.458  0.1822  0.2892 -0.8921
  599MOL0     C80783   7.209   7.406   6.487  0.2516 -0.7608 -0.2344
  599MOL0     C80784   6.806   7.508   6.640 -0.9075 -0.2794 -0.5464
  599MOL0     C80785   6.817   7.643   6.597  0.0960 -0.2495  1.1948
  599MOL0     C80786   6.701   7.702   6.549 -0.6675  0.1558 -0.1097
  599MOL0     C80787   6.577   7.635   6.538 -0.6862 -0.5501  0.2742
  599MOL0     O80788   6.474   7.693   6.471  0.2216 -0.3095  0.7374
  599MOL0     C80789   6.345   7.639   6.494  0.8489 -0.3756 -0.0808
  599MOL0     C80790   6.237   7.721   6.434 -0.3585 -0.1051  0.4128
  599MOL0     C80791   6.210   7.846   6.509  0.3631 -0.4973  0.1445
  599MOL0     C80792   6.114   7.955   6.451  0.4704 -0.1523  0.0317
  599MOL0     C80793   5.974   7.926   6.478  0.1672  0.6721 -0.3993
  599MOL0     C80794   5.863   7.904   6.512  0.0794 -1.1158  0.2642
  599MOL0     C80795   6.572   7.505   6.592 -0.1580 -0.0892 -0.4863
  599MOL0     C80796   6.680   7.445   6.655  0.2090 -0.2575 -0.1441
  599MOL0     C80797   6.648   7.319   6.723 -0.0062 -0.2494  0.1085
  599MOL0     H80798   7.201   7.382   6.824  1.9340 -1.7277  0.7387
  599MOL0     H80799   7.404   7.255   6.783 -1.4737  1.0634  0.8557
  599MOL0     H80800   7.655   7.312   6.580 -1.7149 -0.4043 -2.0241
  599MOL0     H80801   7.594   7.188   6.695 -2.2462  0.4323 -0.7650
  599MOL0     H80802   7.739   7.126   6.440  1.0978 -0.2001  1.3415
  599MOL0     H80803   7.665   7.007   6.546  0.1980 -0.3908 -0.3272
  599MOL0     H80804   7.816   7.071   6.737  5.1942 -0.5361  1.0336
  599MOL0     H80805   7.870   7.218   6.650 -0.0760  0.9379 -1.0905
  599MOL0     H80806   7.894   6.936   6.548 -2.2156  1.6307 -1.0666
  599MOL0     H80807   7.985   7.070   6.483  0.1160 -0.0590 -0.9022
  599MOL0     H80808   8.032   6.988   6.774 -0.8498  3.4678  1.7482
  599MOL0     H80809   8.133   6.945   6.638 -1.3805  1.0310 -4.3485
  599MOL0     H80810   8.206   7.168   6.588 -0.2252 -2.0378  0.5884
  599MOL0     H80811   8.095   7.249   6.710 -0.8414  1.2617 -1.6727
  599MOL0     H80812   8.338   7.064   6.752  3.1213  0.9374  1.4581
  599MOL0     H80813   8.224   7.091   6.871 -0.9319  0.1545 -0.7217
  599MOL0     H80814   8.371   7.319   6.715 -2.0814  2.5281  0.3069
  599MOL0     H80815   8.256   7.337   6.851 -0.5338  0.9178 -3.1724
  599MOL0     H80816   8.561   7.135   6.753  2.6562 -1.7796  0.9073
  599MOL0     H80817   8.823   7.065   7.025  0.3623 -1.0222  0.1229
  599MOL0     H80818   8.777   7.029   6.866  1.8713 -1.2464  0.9520
  599MOL0     H80819   8.994   7.146   6.870  1.7141  1.0251  2.7697
  599MOL0     H80820   8.895   7.258   6.779  4.1178 -0.2746 -0.6036
  599MOL0     H80821   8.989   7.294   7.053 -1.0150  3.1801  1.5502
  599MOL0     H80822   8.858   7.387   6.988 -1.8665 -1.6280 -0.3691
  599MOL0     H80823   8.987   7.452   6.785  1.0506  0.3872 -0.0186
  599MOL0     H80824   9.124   7.353   6.853 -2.8389 -3.9527 -0.3161
  599MOL0     H80825   9.157   7.584   6.704 -1.3168 -0.4724 -0.2993
  599MOL0     H80826   9.362   7.734   6.655  1.1795  0.6221  0.2354
  599MOL0     H80827   9.800   7.810   6.857 -2.1895  2.3376  1.6679
  599MOL0     H80828  10.040   7.894   6.793  1.1972 -2.3405 -1.6002
  599MOL0     H80829  10.077   8.094   6.385  0.8411 -2.2936 -0.2969
  599MOL0     H80830  10.029   8.206   6.510  1.1044  0.9727 -0.3600
  599MOL0     H80831  10.232   8.282   6.409 -1.6215  0.9902  1.6447
  599MOL0     H80832  10.245   8.259   6.577 -0.5193 -0.7937  1.1017
  599MOL0     H80833  10.375   8.073   6.565  0.8971 -2.3288 -0.8459
  599MOL0     H80834  10.360   8.036   6.399  1.0769 -0.3592 -0.2299
  599MOL0     H80835  10.508   8.264   6.532  0.1176 -1.6554  0.6954
  599MOL0     H80836  10.469   8.269   6.352  0.2609  0.1127  0.3053
  599MOL0     H80837  10.603   8.068   6.329 -0.1469  1.3660 -1.3622
  599MOL0     H80838  10.655   8.084   6.506 -0.9905 -0.2478  0.0857
  599MOL0     H80839  10.710   8.295   6.294  0.7306 -0.8720  0.2679
  599MOL0     H80840  10.759   8.286   6.463 -2.6918 -0.1499  1.1878
  599MOL0     H80841  10.823   8.075   6.256 -1.4530  1.6257 -1.0738
  599MOL0     H80842  10.897   8.098   6.419 -0.8231  0.5979  1.1176
  599MOL0     H80843  11.034   8.192   6.229  1.9931  0.2192  2.8865
  599MOL0     H80844  10.901   8.309   6.192  1.6177 -0.1888 -1.0370
  599MOL0     H80845   9.868   8.067   6.435  0.8882 -1.2033 -1.0004
  599MOL0     H80846   9.654   7.994   6.505 -0.5578 -0.9714  0.4377
  599MOL0     H80847   9.423   7.775   7.077  2.2778 -4.1750 -0.0521
  599MOL0     H80848   9.239   7.664   7.129  4.2506  1.7798  0.2989
  599MOL0     H80849   7.348   7.305   6.357  0.6910  0.0032 -0.6859
  599MOL0     H80850   7.159   7.438   6.397 -1.3523  1.7190  1.4268
  599MOL0     H80851   6.910   7.696   6.614 -1.2698  1.4847  4.0121
  599MOL0     H80852   6.696   7.805   6.515  0.0420  0.8802  1.7900
  599MOL0     H80853   6.326   7.626   6.601 -1.4163 -1.2605 -0.5488
  599MOL0     H80854   6.340   7.538   6.452 -1.6357 -1.5334  2.6526
  599MOL0     H80855   6.148   7.658   6.427  0.7245 -1.6554  0.2041
  599MOL0     H80856   6.288   7.732   6.337  0.3639 -1.5919  0.6028
  599MOL0     H80857   6.306   7.897   6.521 -2.1294  4.4759  1.8092
  599MOL0     H80858   6.182   7.817   6.611  0.0565 -0.3798  0.0938
  599MOL0     H80859   6.130   8.046   6.509  0.1570 -1.9320  3.1499
  599MOL0     H80860   6.139   7.974   6.346  2.7473 -1.8519  0.2045
  599MOL0     H80861   5.759   7.890   6.532 -0.0041  0.3477  0.9650
  599MOL0     H80862   6.480   7.449   6.583  1.3821 -3.4259  2.3810
  599MOL0     H80863   6.697   7.319   6.821 -1.4576  2.6106  0.9462
  599MOL0     H80864   6.542   7.321   6.752 -0.0203 -1.8451  0.2581
  599MOL0     H80865   6.665   7.230   6.661  0.2036 -0.6353  0.7134
  600MOL0     O80866   7.736  10.028   3.372  0.5607  0.0790  0.3303
  600MOL0     C80867   7.752  10.025   3.489 -0.0276 -0.6289 -0.6748
  600MOL0     O80868   7.877  10.011   3.555  0.2253 -0.3907  0.8277
  600MOL0     C80869   7.989   9.995   3.478 -0.7942 -0.3729  0.1051
  600MOL0     C80870   7.998   9.919   3.362 -0.2380  0.9928  0.6562
  600MOL0     C80871   8.112   9.918   3.286  0.3883 -0.1359 -0.0722
  600MOL0     C80872   8.213  10.008   3.312  0.1106 -0.0201  0.4716
  600MOL0     O80873   8.311   9.998   3.209 -0.1599  0.1797 -0.1086
  600MOL0     C80874   8.431  10.080   3.231 -0.2444  0.6722 -0.3926
  600MOL0     C80875   8.551  10.026   3.149 -0.5921 -0.6162  0.0241
  600MOL0     C80876   8.574   9.884   3.188 -0.5235  0.3483 -0.8711
  600MOL0     C80877   8.703   9.823   3.124 -0.0120 -1.0825  0.7328
  600MOL0     C80878   8.751   9.703   3.204 -0.4654  0.7351 -0.2662
  600MOL0     C80879   8.860   9.620   3.132 -0.0630  0.2416  0.0660
  600MOL0     C80880   8.990   9.691   3.117  0.4150 -0.9646  0.0971
  600MOL0     C80881   9.095   9.592   3.073  0.2581  0.2771 -0.9730
  600MOL0     N80882   9.221   9.661   3.039  0.6780 -0.0593  0.3375
  600MOL0     C80883   9.257   9.725   2.918 -0.4248  0.9437  0.5968
  600MOL0     C80884   9.387   9.754   2.938  0.0252  0.6483 -0.3503
  600MOL0     C80885   9.491   9.829   2.854  0.8203 -0.0423  0.6383
  600MOL0     C80886   9.588   9.720   2.791  0.8576 -0.8887 -0.5230
  600MOL0     C80887   9.680   9.802   2.699 -0.5242  0.1261 -0.0626
  600MOL0     C80888   9.788   9.724   2.631  0.3412  0.8633 -0.5283
  600MOL0     O80889   9.743   9.611   2.559 -0.4990  0.2182  0.8212
  600MOL0     C80890   9.844   9.531   2.502 -0.2928  1.0169  0.3933
  600MOL0     C80891   9.801   9.424   2.413 -0.1996 -0.6312 -0.6651
  600MOL0     C80892   9.892   9.333   2.365 -0.3644 -0.2981  0.1120
  600MOL0     C80893  10.027   9.345   2.382  0.6268  0.2129  0.6619
  600MOL0     C80894  10.135   9.263   2.321 -0.3586  0.2993 -0.9264
  600MOL0     O80895  10.246   9.331   2.276  0.7504  0.1991 -1.0594
  600MOL0     C80896  10.355   9.267   2.220 -0.6277  0.6173  0.9105
  600MOL0     C80897  10.395   9.132   2.232 -0.5992 -0.4565  0.1700
  600MOL0     C80898  10.521   9.093   2.174  0.0170  0.2513  0.4218
  600MOL0     C80899  10.613   9.182   2.115 -0.5617 -0.2204  0.4807
  600MOL0     O80900  10.716   9.121   2.049 -0.5009  0.7056 -0.2004
  600MOL0     C80901  10.832   9.199   2.005  0.1365 -0.0442  0.0897
  600MOL0     C80902  10.933   9.124   1.931 -0.4978  0.3271 -0.0349
  600MOL0     C80903  11.065   9.203   1.904  0.1033 -0.3158 -0.0644
  600MOL0     C80904  11.157   9.127   1.804  0.2962  0.0092 -0.1074
  600MOL0     C80905  11.290   9.206   1.764  0.6667  0.3130 -0.3276
  600MOL0     C80906  11.352   9.160   1.634  0.8448 -0.6434 -0.2362
  600MOL0     C80907  11.485   9.236   1.629 -0.5441 -0.0383 -0.2339
  600MOL0     C80908  11.550   9.203   1.496 -1.1267  0.1064  1.2097
  600MOL0    Cl80909  11.712   9.278   1.483  0.2219  0.1775 -0.2114
  600MOL0     C80910  10.575   9.321   2.106  0.3900 -0.2262 -0.4642
  600MOL0     C80911  10.449   9.352   2.159  0.2561 -0.0754  0.7539
  600MOL0     O80912  10.111   9.143   2.313  0.2754 -0.3230 -0.6015
  600MOL0     C80913  10.071   9.452   2.457  0.4420 -0.6225 -0.4958
  600MOL0     C80914   9.987   9.540   2.524 -0.2857 -0.1824 -0.2733
  600MOL0     N80915   9.422   9.723   3.068 -0.6369  0.1946  0.5319
  600MOL0     N80916   9.320   9.675   3.127  0.3543  0.3889  0.4522
  600MOL0     C80917   8.215  10.086   3.426  0.1903 -0.2789  0.3134
  600MOL0     C80918   8.103  10.079   3.509 -0.3163  0.2627  0.1204
  600MOL0     C80919   7.626  10.043   3.572 -0.2111 -0.0062  1.2342
  600MOL0     C80920   7.645  10.030   3.712  0.0948 -0.6070  0.2521
  600MOL0     C80921   7.533  10.037   3.800 -0.7361  0.2927 -0.4036
  600MOL0     C80922   7.406  10.057   3.749  0.1279  0.5252  0.7323
  600MOL0     O80923   7.302  10.054   3.837 -0.6294  0.1181 -0.2633
  600MOL0     C80924   7.173  10.063   3.786  0.6581 -0.4056  0.3604
  600MOL0     C80925   7.058  10.013   3.873 -0.0676  0.8681 -0.0894
  600MOL0     C80926   7.077   9.868   3.907  0.2247  0.0013 -0.0488
  600MOL0     C80927   6.959   9.819   3.993 -0.2311 -0.2251 -0.2568
  600MOL0     C80928   6.832   9.823   3.918 -0.3263  0.1803  0.2675
  600MOL0     C80929   6.731   9.811   3.860  0.4723 -0.3706 -0.6537
  600MOL0     C80930   7.390  10.086   3.612 -0.6361 -0.4265  0.1218
  600MOL0     C80931   7.493  10.077   3.521 -0.3829  0.1694  0.0071
  600MOL0     C80932   7.475  10.109   3.372  0.3375  0.0701 -0.0843
  600MOL0     H80933   7.909   9.861   3.339 -1.0406  2.1511  0.7647
  600MOL0     H80934   8.117   9.863   3.192  2.5124 -1.0918  0.5329
  600MOL0     H80935   8.414  10.187   3.220  0.2053  0.7468 -0.3912
  600MOL0     H80936   8.460  10.066   3.335  1.9969  2.7436 -0.6426
  600MOL0     H80937   8.631  10.098   3.165 -2.5690  1.7423 -0.1037
  600MOL0     H80938   8.526  10.031   3.043 -2.4516 -1.3633  0.3847
  600MOL0     H80939   8.491   9.824   3.150 -0.6343  0.5154 -0.8903
  600MOL0     H80940   8.583   9.881   3.297  1.0297 -0.0555 -0.9862
  600MOL0     H80941   8.689   9.801   3.018  1.1742  0.5016  0.1895
  600MOL0     H80942   8.769   9.911   3.122  0.3450 -1.3474 -1.1429
  600MOL0     H80943   8.776   9.737   3.305  1.9988 -1.5823  0.0184
  600MOL0     H80944   8.673   9.626   3.213  1.2884 -0.8958  3.0531
  600MOL0     H80945   8.870   9.520   3.175  0.3844  0.5134  0.6266
  600MOL0     H80946   8.821   9.597   3.033 -1.5282  1.6158  0.2947
  600MOL0     H80947   9.017   9.733   3.214 -1.2429 -1.1690  0.6730
  600MOL0     H80948   8.976   9.767   3.039 -0.6441  0.3336  1.4872
  600MOL0     H80949   9.106   9.537   3.166  0.7116  3.7818  1.2253
  600MOL0     H80950   9.050   9.521   3.002  0.6425 -2.3239  1.2295
  600MOL0     H80951   9.194   9.752   2.834 -1.0252 -2.0334 -0.0093
  600MOL0     H80952   9.433   9.889   2.784 -1.0584  1.5307  3.3360
  600MOL0     H80953   9.542   9.902   2.919  0.7604 -2.3362  3.4618
  600MOL0     H80954   9.649   9.669   2.865 -0.8411 -1.2634  0.6789
  600MOL0     H80955   9.527   9.647   2.738 -0.4885 -1.1828  1.3223
  600MOL0     H80956   9.731   9.874   2.763  0.8485 -0.9502  0.0949
  600MOL0     H80957   9.636   9.861   2.618  2.5446  1.8853 -0.6121
  600MOL0     H80958   9.868   9.700   2.702  1.0839 -2.5448 -2.3032
  600MOL0     H80959   9.844   9.790   2.564  2.1863 -3.7782 -4.1336
  600MOL0     H80960   9.695   9.412   2.392  0.0065  0.1211 -2.3226
  600MOL0     H80961   9.867   9.250   2.300  2.1961 -0.3230 -0.9603
  600MOL0     H80962  10.331   9.060   2.281  0.1621 -3.2678 -2.6094
  600MOL0     H80963  10.552   8.989   2.167  1.3252  0.7096 -1.2139
  600MOL0     H80964  10.802   9.279   1.936  0.6920  0.3200  0.2746
  600MOL0     H80965  10.873   9.252   2.091  2.0112 -1.6047  0.2272
  600MOL0     H80966  10.954   9.031   1.984 -1.6993 -1.0718 -1.8808
  600MOL0     H80967  10.890   9.095   1.835  1.5147  0.1742 -0.9359
  600MOL0     H80968  11.043   9.304   1.869  1.4378 -0.7945 -2.5196
  600MOL0     H80969  11.117   9.205   2.001 -1.9927 -2.1686  1.2042
  600MOL0     H80970  11.095   9.131   1.713  1.3419  2.6084 -0.8101
  600MOL0     H80971  11.179   9.023   1.826 -0.2860 -0.2031 -0.4914
  600MOL0     H80972  11.344   9.187   1.858 -1.7460  1.1502  1.3240
  600MOL0     H80973  11.281   9.313   1.745  3.6120  1.2345  2.4859
  600MOL0     H80974  11.365   9.052   1.646 -0.9563 -0.9090 -0.3414
  600MOL0     H80975  11.297   9.185   1.543 -0.8219 -0.1476  0.8605
  600MOL0     H80976  11.542   9.212   1.720 -3.2358  3.0684  2.5591
  600MOL0     H80977  11.491   9.345   1.631  2.1546 -0.1115 -0.3381
  600MOL0     H80978  11.554   9.094   1.495 -1.9362  0.0604  2.0465
  600MOL0     H80979  11.492   9.234   1.408  0.3123  1.4858  0.7008
  600MOL0     H80980  10.624   9.402   2.052  0.3601 -0.4319 -0.8010
  600MOL0     H80981  10.423   9.455   2.139 -0.4374 -0.2115  0.9414
  600MOL0     H80982  10.178   9.472   2.453  0.4334 -0.7352 -1.6418
  600MOL0     H80983  10.026   9.622   2.583 -1.3262 -0.7064  1.1946
  600MOL0     H80984   8.295  10.151   3.460 -0.1224  0.2944 -0.0279
  600MOL0     H80985   8.104  10.145   3.596 -1.6161  1.2517 -0.5748
  600MOL0     H80986   7.739  10.008   3.761 -0.5429 -1.3129  1.1792
  600MOL0     H80987   7.537  10.020   3.907 -3.3732 -0.5297 -0.3472
  600MOL0     H80988   7.173   9.998   3.699 -0.6058 -1.1109  0.8739
  600MOL0     H80989   7.148  10.164   3.751 -1.1765 -1.5681 -1.8750
  600MOL0     H80990   6.971  10.035   3.810 -1.3939  0.8456  1.6520
  600MOL0     H80991   7.068  10.071   3.966  3.0026  0.5613 -0.1362
  600MOL0     H80992   7.172   9.856   3.959  0.5534 -1.8280 -1.0120
  600MOL0     H80993   7.094   9.804   3.820 -0.7592  0.4347 -0.5799
  600MOL0     H80994   6.998   9.721   4.024 -1.9625 -0.8959 -0.0374
  600MOL0     H80995   6.955   9.867   4.091  2.5523  0.3083 -0.3506
  600MOL0     H80996   6.630   9.813   3.823 -0.4621 -1.8406  1.6203
  600MOL0     H80997   7.291  10.113   3.575 -0.1098 -1.2998 -2.0721
  600MOL0     H80998   7.374  10.145   3.350 -0.3041 -1.7896 -0.4172
  600MOL0     H80999   7.555  10.177   3.342  1.2399 -1.9730 -2.6794
  600MOL0     H81000   7.491  10.018   3.314 -0.4272 -2.2581  3.0397
  601MOL0     O81001   8.944   6.689   0.209 -0.2886  0.2611  0.4982
  601MOL0     C81002   8.969   6.761   0.114  0.1208 -0.2078  0.1485
  601MOL0     O81003   9.024   6.885   0.119 -0.3384 -0.2709 -0.4492
  601MOL0     C81004   9.047   6.960   0.234 -0.0341 -0.1274  0.0181
  601MOL0     C81005   8.938   6.990   0.315  0.4477  0.2952 -0.3579
  601MOL0     C81006   8.953   7.054   0.435  0.4254 -0.1543 -0.1543
  601MOL0     C81007   9.078   7.078   0.476  0.5021 -0.1039 -0.4387
  601MOL0     O81008   9.087   7.129   0.603  0.5843  0.2251 -0.1937
  601MOL0     C81009   9.197   7.089   0.682  0.1011 -0.4595 -0.3615
  601MOL0     C81010   9.178   7.119   0.839 -0.5271  0.1790 -0.1492
  601MOL0     C81011   9.293   7.052   0.909  0.2707  0.0158  0.7363
  601MOL0     C81012   9.304   7.089   1.053 -0.6604  0.7604  0.0706
  601MOL0     C81013   9.436   7.046   1.122  0.4294  0.2602 -0.3705
  601MOL0     C81014   9.438   6.891   1.150 -0.5695  0.2660 -0.3022
  601MOL0     C81015   9.342   6.850   1.274  0.2412  0.5312  0.1049
  601MOL0     C81016   9.326   6.703   1.295 -0.0158 -0.1271 -0.9878
  601MOL0     N81017   9.430   6.635   1.376 -0.1357 -0.1176 -0.2686
  601MOL0     C81018   9.544   6.559   1.343 -0.6607  0.7832 -0.3697
  601MOL0     C81019   9.606   6.540   1.468 -0.7169  0.1953  0.6396
  601MOL0     C81020   9.731   6.464   1.499 -0.4451 -0.5730  0.7859
  601MOL0     C81021   9.859   6.547   1.510 -1.2141  0.9759 -0.4793
  601MOL0     C81022   9.977   6.455   1.525  0.6380  0.0393 -0.6611
  601MOL0     C81023  10.103   6.532   1.546  0.1533  0.1551  0.1472
  601MOL0     O81024  10.086   6.611   1.660 -0.8527 -0.0502  0.9188
  601MOL0     C81025  10.190   6.678   1.725 -0.6966  0.6714 -0.0201
  601MOL0     C81026  10.324   6.676   1.674  1.0181 -0.2259  0.3738
  601MOL0     C81027  10.426   6.752   1.723  0.2046 -0.3112  0.9529
  601MOL0     C81028  10.397   6.833   1.834 -0.5974 -0.4959 -0.2500
  601MOL0     C81029  10.512   6.906   1.898 -0.6793  0.0159 -1.3719
  601MOL0     O81030  10.638   6.835   1.903 -0.0261 -0.0574  0.6123
  601MOL0     C81031  10.753   6.902   1.949  0.4716  0.1323 -1.3115
  601MOL0     C81032  10.770   7.036   1.966  0.2416  0.4092  0.3142
  601MOL0     C81033  10.895   7.082   1.998 -0.2991 -0.7055  1.0069
  601MOL0     C81034  11.009   6.999   2.017  0.9110  0.1643 -0.8483
  601MOL0     O81035  11.134   7.034   2.056 -0.5953 -0.0359 -0.2201
  601MOL0     C81036  11.159   7.169   2.074  1.1218  0.0078 -0.2682
  601MOL0     C81037  11.287   7.182   2.151  0.4382 -0.8848 -0.6258
  601MOL0     C81038  11.344   7.333   2.138  0.0503 -0.0453 -0.0913
  601MOL0     C81039  11.476   7.341   2.221 -0.0191  0.5869  0.6768
  601MOL0     C81040  11.541   7.474   2.213  0.1184 -0.4268 -0.9026
  601MOL0     C81041  11.675   7.488   2.278 -0.8160  0.7026  0.0096
  601MOL0     C81042  11.670   7.457   2.423 -0.4878 -0.1992 -0.5797
  601MOL0     C81043  11.797   7.497   2.500  0.1640  0.0676  0.2128
  601MOL0    Cl81044  11.802   7.669   2.550 -0.0257 -0.2622  0.1893
  601MOL0     C81045  10.986   6.859   2.004 -0.1483 -0.5209  0.2037
  601MOL0     C81046  10.857   6.814   1.969  0.2137 -0.4149 -0.4662
  601MOL0     O81047  10.476   6.993   1.976 -0.0773  0.1306 -1.1033
  601MOL0     C81048  10.272   6.823   1.906  0.0291 -0.7450 -0.8009
  601MOL0     C81049  10.172   6.749   1.849 -0.9027 -0.0818  0.3091
  601MOL0     N81050   9.530   6.593   1.569 -0.9242 -0.3061  0.8144
  601MOL0     N81051   9.426   6.648   1.515 -0.2818 -0.1477  0.4974
  601MOL0     C81052   9.187   7.045   0.396 -0.6424  0.1722  0.0359
  601MOL0     C81053   9.172   6.989   0.270  0.9306 -0.6190 -0.5722
  601MOL0     C81054   8.943   6.698  -0.016  0.3584 -0.7719 -0.1354
  601MOL0     C81055   8.987   6.566  -0.037  0.3689 -0.5379 -0.1687
  601MOL0     C81056   8.964   6.499  -0.165 -0.1737  1.1757 -0.4340
  601MOL0     C81057   8.876   6.553  -0.256  1.1665 -0.0945  0.2310
  601MOL0     O81058   8.854   6.478  -0.368 -0.0304 -0.0915 -0.5411
  601MOL0     C81059   8.804   6.548  -0.483 -0.8928  0.3902  0.1131
  601MOL0     C81060   8.647   6.553  -0.484 -0.4493  0.2753  0.1426
  601MOL0     C81061   8.583   6.431  -0.560  1.5385  0.1069 -0.1890
  601MOL0     C81062   8.425   6.439  -0.549  0.2084 -0.9092  0.2922
  601MOL0     C81063   8.388   6.418  -0.410 -0.8796  1.0162  1.2533
  601MOL0     C81064   8.361   6.399  -0.292  0.3879  0.5859 -0.8117
  601MOL0     C81065   8.837   6.693  -0.236  0.3036  0.1937  0.1054
  601MOL0     C81066   8.875   6.763  -0.119 -0.8215  0.7771 -0.6081
  601MOL0     C81067   8.834   6.904  -0.102 -0.3140  0.2489  0.1070
  601MOL0     H81068   8.843   6.953   0.277  0.2335 -0.1653  0.5987
  601MOL0     H81069   8.874   7.100   0.495  0.7243 -0.1961  0.2754
  601MOL0     H81070   9.203   6.980   0.670 -1.4585 -0.7067  0.7970
  601MOL0     H81071   9.293   7.131   0.649  0.3388 -1.2630 -0.7120
  601MOL0     H81072   9.086   7.081   0.883 -0.6593  2.1467  1.3978
  601MOL0     H81073   9.185   7.228   0.850  4.7790  0.0809  0.1030
  601MOL0     H81074   9.384   7.075   0.853 -0.8167  1.7911 -0.4233
  601MOL0     H81075   9.277   6.944   0.903  1.3935 -0.3080  2.7843
  601MOL0     H81076   9.289   7.197   1.059 -0.4847  0.9516 -2.0034
  601MOL0     H81077   9.226   7.042   1.113 -0.8103  1.3170  0.3203
  601MOL0     H81078   9.529   7.067   1.068  2.2327 -3.5711  0.9204
  601MOL0     H81079   9.440   7.099   1.217  2.0683 -0.8867  0.2316
  601MOL0     H81080   9.410   6.844   1.055 -1.5574  0.8036 -0.2905
  601MOL0     H81081   9.539   6.858   1.177 -0.7226 -1.7546 -1.9321
  601MOL0     H81082   9.238   6.882   1.262  0.6734  1.2004 -2.6881
  601MOL0     H81083   9.384   6.886   1.368  1.9808 -3.7652  1.2143
  601MOL0     H81084   9.232   6.698   1.350 -0.8277  2.7668 -1.9373
  601MOL0     H81085   9.312   6.650   1.201 -0.7264 -2.3344  0.2984
  601MOL0     H81086   9.590   6.535   1.247  1.7809 -2.3865  1.3948
  601MOL0     H81087   9.713   6.407   1.590  1.1991 -0.1559  1.4150
  601MOL0     H81088   9.758   6.390   1.423  3.2433  0.3630  1.0239
  601MOL0     H81089   9.875   6.624   1.433 -3.1027  1.5891 -0.3317
  601MOL0     H81090   9.855   6.612   1.598  0.9173  1.0720 -0.3946
  601MOL0     H81091   9.979   6.390   1.437 -0.4742 -1.3847  0.3357
  601MOL0     H81092   9.959   6.388   1.609 -1.7075  1.1723 -0.1766
  601MOL0     H81093  10.120   6.593   1.456  2.7632 -1.1721 -0.3741
  601MOL0     H81094  10.185   6.462   1.566  0.0991 -0.4432 -1.5036
  601MOL0     H81095  10.352   6.615   1.589  2.3655 -0.2195  0.7984
  601MOL0     H81096  10.525   6.758   1.678 -0.3580  1.2006 -0.1379
  601MOL0     H81097  10.681   7.097   1.953  0.0357 -0.2844 -1.8117
  601MOL0     H81098  10.903   7.189   2.013  0.0378 -0.1595 -2.3882
  601MOL0     H81099  11.172   7.215   1.976 -0.3266 -0.7141 -0.8244
  601MOL0     H81100  11.080   7.222   2.129 -0.7435 -0.2624 -2.5497
  601MOL0     H81101  11.272   7.156   2.256 -1.3648  3.9804  0.5605
  601MOL0     H81102  11.366   7.109   2.130  1.7534 -0.2013  1.6257
  601MOL0     H81103  11.369   7.335   2.032 -2.0113 -3.8930 -0.8405
  601MOL0     H81104  11.278   7.414   2.171  0.1006 -0.2036  0.4174
  601MOL0     H81105  11.535   7.260   2.178 -1.1926  1.7511 -3.6223
  601MOL0     H81106  11.456   7.305   2.323 -0.5175  3.0741  1.5221
  601MOL0     H81107  11.481   7.545   2.272  0.3047 -1.0703  0.0860
  601MOL0     H81108  11.553   7.505   2.109  4.3646 -2.3598 -1.2172
  601MOL0     H81109  11.735   7.406   2.236 -1.0941 -0.4665  1.7717
  601MOL0     H81110  11.731   7.580   2.263 -1.5447  1.2262  0.4817
  601MOL0     H81111  11.655   7.351   2.444  0.6237  0.0980  2.1265
  601MOL0     H81112  11.586   7.514   2.464  0.9840  0.2386  2.0563
  601MOL0     H81113  11.810   7.432   2.588  0.9014 -0.7397 -0.4800
  601MOL0     H81114  11.878   7.463   2.435 -0.9447 -2.0937 -0.1350
  601MOL0     H81115  11.070   6.795   2.030 -1.2470 -2.4533 -0.7281
  601MOL0     H81116  10.823   6.711   1.962 -3.7847  0.3229  3.3401
  601MOL0     H81117  10.266   6.877   2.000  2.8104 -3.0354  0.8396
  601MOL0     H81118  10.071   6.739   1.887 -0.3758 -0.9356  1.5412
  601MOL0     H81119   9.286   7.086   0.416 -0.7122  1.4717 -1.9479
  601MOL0     H81120   9.260   6.981   0.206  1.8547  0.0813  0.5564
  601MOL0     H81121   9.050   6.522   0.039  1.7830  0.2464 -0.8326
  601MOL0     H81122   9.004   6.403  -0.195  1.3474  1.5593  0.2480
  601MOL0     H81123   8.849   6.504  -0.572  2.6047  2.6279  0.5889
  601MOL0     H81124   8.841   6.651  -0.485  1.6266 -0.3025  3.0394
  601MOL0     H81125   8.614   6.646  -0.532 -2.2393 -1.6538 -2.6692
  601MOL0     H81126   8.620   6.553  -0.378  1.4379 -1.7837  0.6937
  601MOL0     H81127   8.610   6.331  -0.524  0.4998  0.3478  1.3596
  601MOL0     H81128   8.605   6.426  -0.667  0.5952 -3.7938 -0.3602
  601MOL0     H81129   8.396   6.537  -0.588  3.0796 -0.1380 -0.0754
  601MOL0     H81130   8.380   6.360  -0.609 -1.8911  1.1864 -1.1101
  601MOL0     H81131   8.326   6.404  -0.191 -0.8401  1.9919 -1.2824
  601MOL0     H81132   8.787   6.756  -0.309 -2.4666  0.3526  1.9867
  601MOL0     H81133   8.756   6.937  -0.171 -2.0309  0.3010  1.9984
  601MOL0     H81134   8.802   6.933  -0.002 -0.6729 -0.5776  0.2365
  601MOL0     H81135   8.918   6.974  -0.114 -0.3286  0.3415  0.5434
  602MOL0     O81136   0.980  11.258   4.942 -0.1562 -0.0788  0.1532
  602MOL0     C81137   0.938  11.373   4.953  0.1875 -0.0583 -0.5888
  602MOL0     O81138   1.011  11.475   5.006  0.8400  0.2838 -0.0800
  602MOL0     C81139   1.138  11.464   5.052  0.6129  0.4785 -0.6843
  602MOL0     C81140   1.164  11.360   5.139  0.4793  0.0718  0.2710
  602MOL0     C81141   1.290  11.335   5.189 -0.1030 -0.7268  0.2367
  602MOL0     C81142   1.399  11.414   5.149 -0.1537 -0.6359 -0.5005
  602MOL0     O81143   1.523  11.391   5.202  0.1201  0.6275 -0.8208
  602MOL0     C81144   1.580  11.507   5.269 -0.4590  0.5857 -0.3624
  602MOL0     C81145   1.518  11.512   5.411 -0.3798 -0.1533 -1.0278
  602MOL0     C81146   1.580  11.629   5.487  0.1588  1.2259 -0.5205
  602MOL0     C81147   1.552  11.607   5.640  0.3031 -0.7781  0.0462
  602MOL0     C81148   1.595  11.735   5.714 -0.5122 -0.3248 -0.1619
  602MOL0     C81149   1.558  11.736   5.865 -0.2452  0.3922  0.1088
  602MOL0     C81150   1.620  11.855   5.944  0.7592 -0.1935  0.2548
  602MOL0     C81151   1.648  11.839   6.093  0.1203  0.6815 -0.5154
  602MOL0     N81152   1.535  11.803   6.180 -0.8251  0.3542 -1.6125
  602MOL0     C81153   1.431  11.897   6.207 -0.5581 -0.0541 -0.0540
  602MOL0     C81154   1.378  11.855   6.325 -0.6263 -0.4920  0.2322
  602MOL0     C81155   1.257  11.924   6.391  0.2111 -0.3059 -0.1464
  602MOL0     C81156   1.127  11.875   6.331  0.0480  0.1101  0.4044
  602MOL0     C81157   1.054  11.997   6.275 -0.5476 -0.3559 -0.2010
  602MOL0     C81158   0.911  11.959   6.245 -0.1801  0.3486  0.4454
  602MOL0     O81159   0.853  12.081   6.199 -0.0283  0.1334 -0.1064
  602MOL0     C81160   0.718  12.087   6.227 -0.0696 -1.3719 -0.6867
  602MOL0     C81161   0.631  11.987   6.251  1.0137  0.2335 -0.8485
  602MOL0     C81162   0.495  12.015   6.274 -0.3962  0.4366 -0.1509
  602MOL0     C81163   0.447  12.147   6.265 -0.2231 -0.5251 -0.2608
  602MOL0     C81164   0.308  12.175   6.296 -0.4367  1.2084 -0.2027
  602MOL0     O81165   0.238  12.068   6.337 -0.3123 -0.4403  0.7415
  602MOL0     C81166   0.108  12.083   6.346 -0.0029 -0.1039 -0.7046
  602MOL0     C81167   0.027  12.123   6.243  0.0233 -0.3514  0.6594
  602MOL0     C81168  -0.115  12.120   6.267  0.3025  0.3626 -0.3349
  602MOL0     C81169  -0.166  12.109   6.392  0.5294 -0.2008  0.4562
  602MOL0     O81170  -0.300  12.132   6.404  0.3290  0.9516  0.8649
  602MOL0     C81171  -0.377  12.019   6.424  0.7114  0.5898  0.3534
  602MOL0     C81172  -0.523  12.067   6.448  0.4900 -0.2616 -0.1463
  602MOL0     C81173  -0.561  12.099   6.594 -1.1309  0.8768  0.0236
  602MOL0     C81174  -0.502  12.231   6.642  0.5532 -0.3604  0.2182
  602MOL0     C81175  -0.542  12.267   6.784 -0.3828  0.1069 -0.3043
  602MOL0     C81176  -0.431  12.241   6.879 -0.0536  0.0590 -0.3225
  602MOL0     C81177  -0.405  12.105   6.939 -0.4447  0.2793  0.5616
  602MOL0     C81178  -0.248  12.086   6.970  1.0357  0.1338  0.2035
  602MOL0    Cl81179  -0.135  12.139   6.842  0.2731  0.0775 -0.2495
  602MOL0     C81180  -0.086  12.079   6.503  0.0350  0.6222 -0.4808
  602MOL0     C81181   0.046  12.059   6.475  0.7214 -0.1749 -0.4623
  602MOL0     O81182   0.269  12.291   6.298  0.7076 -0.1938  0.2855
  602MOL0     C81183   0.538  12.259   6.229 -0.2470  0.5250 -1.3381
  602MOL0     C81184   0.672  12.224   6.210  0.2457 -0.5017  0.1293
  602MOL0     N81185   1.447  11.738   6.370  0.1331 -0.6843  0.1470
  602MOL0     N81186   1.548  11.714   6.286  1.1395 -0.0019  0.4817
  602MOL0     C81187   1.372  11.514   5.054  0.3886 -0.2062  0.1990
  602MOL0     C81188   1.247  11.539   5.010 -0.6224 -0.3587  0.1613
  602MOL0     C81189   0.806  11.409   4.900 -0.2625  0.0742 -0.2174
  602MOL0     C81190   0.785  11.540   4.854  0.8402 -0.2032 -0.0470
  602MOL0     C81191   0.664  11.583   4.798  0.1260  0.2479 -0.3573
  602MOL0     C81192   0.557  11.498   4.789 -0.2304 -0.2281  0.3143
  602MOL0     O81193   0.434  11.514   4.737  0.1852  0.0189 -0.0227
  602MOL0     C81194   0.387  11.635   4.692 -0.2414 -0.0835 -0.1654
  602MOL0     C81195   0.294  11.613   4.578  0.4147  0.2382 -0.4105
  602MOL0     C81196   0.163  11.533   4.620  0.1396  0.0462 -0.7350
  602MOL0     C81197   0.084  11.477   4.492 -0.2797 -0.8700  0.1648
  602MOL0     C81198  -0.002  11.582   4.428  0.2680 -0.2293 -0.5755
  602MOL0     C81199  -0.086  11.663   4.394  0.1086  0.3857 -0.0160
  602MOL0     C81200   0.587  11.369   4.831  0.2528  0.9446 -0.3654
  602MOL0     C81201   0.702  11.319   4.897 -0.0943 -0.2956 -0.0737
  602MOL0     C81202   0.706  11.173   4.934 -0.8924 -0.3324 -0.5034
  602MOL0     H81203   1.087  11.288   5.167  2.4353 -2.1847  0.1502
  602MOL0     H81204   1.307  11.247   5.249  0.3899 -0.0036  1.1784
  602MOL0     H81205   1.689  11.498   5.261 -0.5722 -0.1113 -1.3089
  602MOL0     H81206   1.561  11.600   5.214  4.0900  0.2082 -3.1758
  602MOL0     H81207   1.521  11.417   5.465 -2.3384 -1.1299 -2.5487
  602MOL0     H81208   1.415  11.546   5.397 -1.1157 -2.0809 -0.6147
  602MOL0     H81209   1.534  11.725   5.461  0.0669  1.6010  0.9549
  602MOL0     H81210   1.687  11.636   5.467  0.0451 -0.1467 -1.8128
  602MOL0     H81211   1.445  11.586   5.651  0.3265 -0.1160  2.1335
  602MOL0     H81212   1.613  11.524   5.676 -0.0671 -0.6381  1.0383
  602MOL0     H81213   1.700  11.762   5.700 -1.0925  2.8913  0.8448
  602MOL0     H81214   1.539  11.818   5.670  1.1454  2.6367  2.8191
  602MOL0     H81215   1.452  11.742   5.890 -0.9747  3.3795 -2.9587
  602MOL0     H81216   1.603  11.648   5.910  0.7814  0.9588  0.2342
  602MOL0     H81217   1.545  11.935   5.945 -2.7479 -3.1764 -0.7727
  602MOL0     H81218   1.717  11.885   5.905  1.8101 -1.8809  1.4409
  602MOL0     H81219   1.717  11.756   6.111  3.3402  2.7799 -2.2666
  602MOL0     H81220   1.698  11.930   6.127  1.3295 -0.7073  1.7429
  602MOL0     H81221   1.384  11.973   6.145 -3.5980 -2.1159 -0.4800
  602MOL0     H81222   1.261  11.906   6.499  0.0784 -0.8020 -0.2189
  602MOL0     H81223   1.269  12.031   6.372  1.5951 -0.8047 -2.3918
  602MOL0     H81224   1.151  11.805   6.251 -0.9599  1.2451 -0.9346
  602MOL0     H81225   1.065  11.824   6.406 -0.1903 -0.7943 -0.3844
  602MOL0     H81226   1.096  12.028   6.179 -2.0624  1.2370 -0.4018
  602MOL0     H81227   1.050  12.088   6.336  0.8878  0.2274 -0.9264
  602MOL0     H81228   0.855  11.919   6.330 -0.3242 -0.8791 -0.2072
  602MOL0     H81229   0.906  11.890   6.160 -3.3393  3.1690 -1.9024
  602MOL0     H81230   0.672  11.886   6.260  0.3742  0.0907  0.9667
  602MOL0     H81231   0.431  11.928   6.287  0.7414 -0.4764 -0.4942
  602MOL0     H81232   0.076  12.148   6.150  0.4433 -1.6013  0.5258
  602MOL0     H81233  -0.182  12.152   6.189 -0.4723  2.0093  0.9497
  602MOL0     H81234  -0.377  11.951   6.339  1.8816 -0.7350  1.3600
  602MOL0     H81235  -0.346  11.978   6.521 -1.2231  1.0919  1.2359
  602MOL0     H81236  -0.549  12.143   6.374  2.1425 -2.4274 -3.1720
  602MOL0     H81237  -0.587  11.981   6.427  0.2242 -0.0821 -0.0725
  602MOL0     H81238  -0.669  12.110   6.608 -1.4107  1.5798 -2.2801
  602MOL0     H81239  -0.529  12.024   6.667 -3.1427  2.3328  2.5635
  602MOL0     H81240  -0.539  12.311   6.578  0.8117 -0.1742  0.3018
  602MOL0     H81241  -0.393  12.226   6.636  0.5368 -0.8293  0.2483
  602MOL0     H81242  -0.622  12.205   6.825  0.5008 -0.4360  0.6446
  602MOL0     H81243  -0.557  12.375   6.791 -1.4868 -0.1276  2.0034
  602MOL0     H81244  -0.333  12.275   6.844 -0.2593  0.5517 -0.4381
  602MOL0     H81245  -0.444  12.304   6.968  0.5052 -0.8792  0.4351
  602MOL0     H81246  -0.429  12.023   6.871 -1.1882 -0.3448  1.5542
  602MOL0     H81247  -0.466  12.096   7.029 -1.3188 -1.1893 -0.1552
  602MOL0     H81248  -0.225  12.122   7.071  1.4599  0.4500  0.0003
  602MOL0     H81249  -0.226  11.982   6.996  0.1043  0.3893  2.1779
  602MOL0     H81250  -0.127  12.065   6.602  0.6408  2.5639  0.0828
  602MOL0     H81251   0.105  12.031   6.561  1.0676  0.7247 -0.3992
  602MOL0     H81252   0.498  12.360   6.226 -1.5111  0.2501  1.8651
  602MOL0     H81253   0.739  12.307   6.195 -1.5379  1.1684  1.0359
  602MOL0     H81254   1.453  11.577   5.020  0.2900 -1.1151 -1.8778
  602MOL0     H81255   1.239  11.608   4.926  2.8294 -1.4389 -1.2668
  602MOL0     H81256   0.860  11.616   4.874 -1.1184  1.4025  1.5615
  602MOL0     H81257   0.656  11.684   4.761 -0.1710  0.3623  0.0096
  602MOL0     H81258   0.471  11.695   4.657 -0.5215  1.5927  1.8644
  602MOL0     H81259   0.343  11.689   4.777  1.0647 -1.1280  1.2177
  602MOL0     H81260   0.343  11.553   4.501 -0.8232 -1.1617 -0.1532
  602MOL0     H81261   0.269  11.710   4.533  1.6495  0.4411 -0.7030
  602MOL0     H81262   0.089  11.586   4.681 -1.0315 -3.9057  1.6003
  602MOL0     H81263   0.193  11.450   4.685 -0.7256  3.0526  4.0113
  602MOL0     H81264   0.144  11.427   4.415  0.6013  1.7916 -0.9978
  602MOL0     H81265   0.023  11.397   4.536 -1.5314 -0.2496 -0.4077
  602MOL0     H81266  -0.165  11.729   4.364 -0.3933 -1.2919 -2.7821
  602MOL0     H81267   0.504  11.302   4.810 -1.8289  3.3949 -0.4803
  602MOL0     H81268   0.744  11.151   5.034  1.5335 -2.1578 -1.7416
  602MOL0     H81269   0.602  11.141   4.924  0.1815 -3.4118 -4.1216
  602MOL0     H81270   0.768  11.124   4.859  1.9250  0.1348  1.3639
  603MOL0     O81271   5.868   1.854   9.172  0.0436 -0.2377  0.0984
  603MOL0     C81272   5.858   1.973   9.211 -0.7954  0.9436 -0.6487
  603MOL0     O81273   5.967   2.048   9.238  0.1884  0.0746  0.6642
  603MOL0     C81274   6.099   2.005   9.244 -0.0724  0.3937 -0.2292
  603MOL0     C81275   6.205   2.096   9.234  0.2937  0.5377  0.4125
  603MOL0     C81276   6.336   2.053   9.251  0.4027  0.5796  0.9352
  603MOL0     C81277   6.371   1.917   9.278  0.1157 -0.3003  0.2984
  603MOL0     O81278   6.500   1.882   9.303  0.4440  0.1847  0.1435
  603MOL0     C81279   6.549   1.746   9.308  0.3770  1.0700 -0.6874
  603MOL0     C81280   6.680   1.741   9.381 -0.0046  0.0047 -0.1809
  603MOL0     C81281   6.724   1.605   9.435 -0.6856 -0.2083 -0.6284
  603MOL0     C81282   6.870   1.596   9.489 -1.0349 -0.3932  0.1027
  603MOL0     C81283   6.907   1.452   9.513  0.7083 -0.6897 -0.2096
  603MOL0     C81284   7.039   1.417   9.587  0.4521 -0.2135  0.3345
  603MOL0     C81285   7.061   1.266   9.573 -0.8190  0.1910  0.6060
  603MOL0     C81286   7.200   1.228   9.619  0.1996 -0.2568  0.3280
  603MOL0     N81287   7.220   1.085   9.602 -0.0624 -0.1297 -1.0027
  603MOL0     C81288   7.229   1.019   9.483 -0.7531 -0.1804  0.0080
  603MOL0     C81289   7.254   0.893   9.519 -0.4776  0.4922  0.0820
  603MOL0     C81290   7.290   0.781   9.417  0.2462 -0.3224 -0.0181
  603MOL0     C81291   7.349   0.838   9.284 -0.0407  0.2029 -0.8298
  603MOL0     C81292   7.377   0.725   9.181  0.4385 -0.2241  0.9142
  603MOL0     C81293   7.474   0.615   9.219  0.3659 -0.6332 -0.3368
  603MOL0     O81294   7.591   0.664   9.295 -0.0384  0.1898  0.9456
  603MOL0     C81295   7.704   0.589   9.282  0.3488  0.7170 -0.0126
  603MOL0     C81296   7.820   0.641   9.344  0.9188 -0.4872  0.3895
  603MOL0     C81297   7.938   0.567   9.353  0.0144  0.4851  0.1027
  603MOL0     C81298   7.938   0.430   9.315  0.1294  0.3721  0.2459
  603MOL0     C81299   8.049   0.335   9.330  0.0432 -0.1233 -0.1167
  603MOL0     O81300   8.010   0.205   9.346  0.6526 -0.1391 -0.5994
  603MOL0     C81301   8.107   0.104   9.359  0.0046 -0.3234  0.4091
  603MOL0     C81302   8.067  -0.021   9.314 -0.3027  0.9994 -0.7912
  603MOL0     C81303   8.152  -0.133   9.336  0.2077 -0.6775 -0.3249
  603MOL0     C81304   8.278  -0.123   9.397  0.8670 -0.2084  0.4422
  603MOL0     O81305   8.369  -0.223   9.416  0.5401  0.5521 -0.0925
  603MOL0     C81306   8.428  -0.280   9.294 -0.6636 -0.2980 -0.0504
  603MOL0     C81307   8.526  -0.172   9.239  0.2904  0.7759  0.1355
  603MOL0     C81308   8.628  -0.111   9.336 -1.0803  0.2453 -0.9177
  603MOL0     C81309   8.766  -0.075   9.269 -0.3188 -0.6139 -0.2713
  603MOL0     C81310   8.855  -0.197   9.222 -1.0647  0.8762 -0.3580
  603MOL0     C81311   8.998  -0.145   9.171  0.1059  0.4192 -0.7099
  603MOL0     C81312   8.989  -0.065   9.048 -0.0766 -0.5616 -0.5521
  603MOL0     C81313   9.134  -0.038   8.997  0.2271  0.0171  0.0979
  603MOL0    Cl81314   9.245   0.025   9.122  0.1002 -0.2669 -0.3930
  603MOL0     C81315   8.315   0.002   9.444 -0.2022 -0.8095 -1.2831
  603MOL0     C81316   8.228   0.111   9.436 -0.4946  0.2082  0.1749
  603MOL0     O81317   8.162   0.380   9.335  0.3689  0.2936 -0.3277
  603MOL0     C81318   7.825   0.381   9.246  0.1912 -0.7155  0.1433
  603MOL0     C81319   7.712   0.464   9.224  0.4996  0.4827  0.5526
  603MOL0     N81320   7.248   0.872   9.655 -0.1982  0.3594  0.3594
  603MOL0     N81321   7.242   0.992   9.698 -0.0753 -0.2334 -0.3712
  603MOL0     C81322   6.261   1.832   9.297  0.7878  0.8832  0.2297
  603MOL0     C81323   6.130   1.876   9.280 -0.0269 -0.5899 -0.6411
  603MOL0     C81324   5.720   2.015   9.238  0.2102 -0.4279 -0.9945
  603MOL0     C81325   5.706   2.135   9.305  0.2063 -0.0967 -0.1006
  603MOL0     C81326   5.578   2.187   9.320  0.1218 -0.0396  0.0904
  603MOL0     C81327   5.463   2.129   9.280 -0.0321 -0.7167  0.1424
  603MOL0     O81328   5.336   2.170   9.302  0.9273  0.1860  0.4262
  603MOL0     C81329   5.304   2.291   9.376  0.5219 -0.0752  0.2106
  603MOL0     C81330   5.144   2.300   9.381  0.0840 -0.5560  0.4208
  603MOL0     C81331   5.080   2.372   9.260  1.2226 -0.3737 -0.2636
  603MOL0     C81332   5.109   2.316   9.129 -0.3161  0.8797 -0.7864
  603MOL0     C81333   5.070   2.407   9.022  0.0516  0.4890 -0.1088
  603MOL0     C81334   5.019   2.473   8.937  0.1076 -0.8443 -0.6117
  603MOL0     C81335   5.469   2.008   9.215 -0.7086 -0.3832 -0.4472
  603MOL0     C81336   5.592   1.949   9.192 -0.9221  0.1355  0.0530
  603MOL0     C81337   5.597   1.828   9.098  0.2942  0.3083 -0.5976
  603MOL0     H81338   6.172   2.200   9.231 -1.2576  0.1539 -4.1816
  603MOL0     H81339   6.418   2.120   9.225 -1.2023  2.7567  1.1988
  603MOL0     H81340   6.478   1.679   9.357 -0.4749  1.7642 -0.9428
  603MOL0     H81341   6.559   1.708   9.205 -0.9896 -0.5851 -0.2448
  603MOL0     H81342   6.673   1.807   9.468 -0.5610  3.3415 -2.5396
  603MOL0     H81343   6.747   1.782   9.305  1.0260  0.2059  0.7968
  603MOL0     H81344   6.713   1.528   9.358 -1.3118  0.7275 -1.5031
  603MOL0     H81345   6.658   1.578   9.519  2.0657 -1.0764  1.3980
  603MOL0     H81346   6.938   1.636   9.413 -1.7108  2.3014  0.8012
  603MOL0     H81347   6.870   1.651   9.584  3.0298 -1.6806  1.0554
  603MOL0     H81348   6.814   1.407   9.550  0.3083 -0.7803 -1.2999
  603MOL0     H81349   6.925   1.398   9.420  1.5818 -3.9967  1.7078
  603MOL0     H81350   7.118   1.482   9.549  1.1408 -0.8580  0.6476
  603MOL0     H81351   7.035   1.437   9.695  2.7217  0.7147  0.3074
  603MOL0     H81352   7.047   1.232   9.469  1.4321 -1.1352  0.6604
  603MOL0     H81353   6.998   1.208   9.640  2.6489 -0.7142  3.4249
  603MOL0     H81354   7.279   1.276   9.560 -1.6872  0.6655 -1.6192
  603MOL0     H81355   7.213   1.244   9.726 -2.1841 -0.8513  0.7694
  603MOL0     H81356   7.216   1.056   9.382 -1.5861  0.0149  0.1730
  603MOL0     H81357   7.365   0.717   9.465  1.7909  0.6287 -1.0723
  603MOL0     H81358   7.205   0.718   9.388  0.3422 -0.1322 -0.7431
  603MOL0     H81359   7.282   0.906   9.230 -0.4370  0.9932  0.6209
  603MOL0     H81360   7.433   0.905   9.304  0.5290 -0.8884  0.5632
  603MOL0     H81361   7.420   0.766   9.089  0.1531 -1.7854  0.0536
  603MOL0     H81362   7.278   0.698   9.144  0.9810 -0.0516 -0.7460
  603MOL0     H81363   7.493   0.557   9.129  0.9857  0.3399 -0.8525
  603MOL0     H81364   7.428   0.544   9.289  1.0825 -0.1877  0.6113
  603MOL0     H81365   7.817   0.739   9.389 -2.2318  0.5519 -1.7016
  603MOL0     H81366   8.028   0.601   9.404  1.1878 -0.4841 -1.2383
  603MOL0     H81367   7.965  -0.011   9.279 -0.5907  2.5798  0.3751
  603MOL0     H81368   8.120  -0.230   9.300 -1.6798 -0.4491  0.6087
  603MOL0     H81369   8.486  -0.369   9.321  3.3302  0.3820 -4.7455
  603MOL0     H81370   8.350  -0.319   9.229 -1.0232  2.1447 -1.1974
  603MOL0     H81371   8.571  -0.220   9.152 -0.7616  1.2450 -0.6830
  603MOL0     H81372   8.462  -0.092   9.202 -0.1570  1.0517  1.4411
  603MOL0     H81373   8.580  -0.020   9.374 -0.9210 -0.9020  2.3506
  603MOL0     H81374   8.647  -0.179   9.420  0.9788 -0.7289 -2.0955
  603MOL0     H81375   8.830  -0.012   9.331  0.7574 -0.5391 -1.4171
  603MOL0     H81376   8.748  -0.010   9.183  0.8535 -0.8567 -0.7152
  603MOL0     H81377   8.801  -0.255   9.147  0.8153  2.2852 -2.9744
  603MOL0     H81378   8.881  -0.263   9.304 -0.6955  0.1927 -1.0136
  603MOL0     H81379   9.047  -0.089   9.251  2.4506 -0.5798 -1.3794
  603MOL0     H81380   9.062  -0.234   9.163 -3.0752 -2.9640  4.6958
  603MOL0     H81381   8.935   0.028   9.069 -0.0269 -1.1305  2.4669
  603MOL0     H81382   8.934  -0.119   8.970 -0.1667 -0.9036 -0.2521
  603MOL0     H81383   9.169  -0.137   8.969  0.8835 -0.1633  1.5002
  603MOL0     H81384   9.121   0.023   8.907 -1.0283 -0.8481 -0.3373
  603MOL0     H81385   8.402   0.005   9.508 -1.2234 -1.2191  0.1767
  603MOL0     H81386   8.253   0.203   9.488 -0.0086 -0.6120  1.4673
  603MOL0     H81387   7.818   0.276   9.219 -2.2354 -0.1786 -1.6674
  603MOL0     H81388   7.625   0.429   9.169  0.3519 -0.4132  1.3366
  603MOL0     H81389   6.270   1.736   9.347 -0.9641 -0.6221 -2.1115
  603MOL0     H81390   6.056   1.799   9.295  1.8832 -2.4483 -0.1824
  603MOL0     H81391   5.790   2.191   9.344 -0.3490  0.5899  0.1367
  603MOL0     H81392   5.573   2.279   9.378 -1.1195  2.3400 -3.4656
  603MOL0     H81393   5.356   2.376   9.330 -0.6014  0.6584  0.2597
  603MOL0     H81394   5.329   2.281   9.482 -5.1405  1.3233  2.0183
  603MOL0     H81395   5.120   2.363   9.466 -0.7148  1.5742 -1.2995
  603MOL0     H81396   5.090   2.205   9.391  1.6875 -1.4113  1.2457
  603MOL0     H81397   5.105   2.478   9.255 -1.9554  0.3993 -3.9438
  603MOL0     H81398   4.971   2.373   9.269  1.1215 -1.9318 -1.0650
  603MOL0     H81399   5.215   2.289   9.124 -0.4635 -2.0043  4.6192
  603MOL0     H81400   5.051   2.224   9.119 -0.6969  0.9583  0.5445
  603MOL0     H81401   4.976   2.539   8.864 -2.5192 -2.7125 -0.9204
  603MOL0     H81402   5.375   1.969   9.177 -0.7281 -0.6422 -0.1354
  603MOL0     H81403   5.586   1.737   9.157 -2.2805  1.2527  0.5152
  603MOL0     H81404   5.505   1.829   9.037 -0.0347  1.4535 -0.1084
  603MOL0     H81405   5.673   1.827   9.020  1.3612  3.3972  0.2503
  604MOL0     O81406   2.029   3.520  11.051 -0.6391  0.8693  0.1930
  604MOL0     C81407   1.905   3.518  11.033 -0.3002 -0.2050  0.4527
  604MOL0     O81408   1.818   3.604  11.095 -0.2552  0.8507 -1.0717
  604MOL0     C81409   1.869   3.713  11.157 -0.1114  0.4038  0.6437
  604MOL0     C81410   1.831   3.743  11.291  0.4088  0.4007  0.5480
  604MOL0     C81411   1.874   3.871  11.346 -0.2842 -0.1511 -0.5377
  604MOL0     C81412   1.955   3.962  11.269  0.5521  0.1903 -0.4939
  604MOL0     O81413   2.017   4.071  11.319 -0.2657 -0.3169 -0.2934
  604MOL0     C81414   2.041   4.078  11.459  0.1252  0.4132 -0.3187
  604MOL0     C81415   2.151   4.179  11.487  0.6050  0.0404  0.4826
  604MOL0     C81416   2.277   4.130  11.417 -0.5004 -0.6272 -0.2902
  604MOL0     C81417   2.397   4.229  11.443  0.3905  0.4441 -1.0315
  604MOL0     C81418   2.515   4.163  11.376 -0.1850  0.4170 -0.9858
  604MOL0     C81419   2.643   4.247  11.403 -0.2747 -0.2399 -0.1356
  604MOL0     C81420   2.757   4.199  11.316  0.4131 -0.5445 -0.6048
  604MOL0     C81421   2.887   4.242  11.372 -0.1644 -0.1123 -0.7270
  604MOL0     N81422   3.001   4.221  11.290 -0.7226 -0.3804 -0.4368
  604MOL0     C81423   3.076   4.112  11.273 -0.2854  1.1870  0.0803
  604MOL0     C81424   3.175   4.154  11.196  0.3675  0.5861 -0.4937
  604MOL0     C81425   3.297   4.067  11.168 -0.8721  0.0990 -0.0500
  604MOL0     C81426   3.386   4.060  11.290 -0.0587 -0.2475  0.3766
  604MOL0     C81427   3.502   3.967  11.248 -0.2218 -0.1469  1.0117
  604MOL0     C81428   3.601   3.947  11.365  0.0370  0.6207 -0.1663
  604MOL0     O81429   3.693   3.863  11.306 -0.1793  0.4822  0.3455
  604MOL0     C81430   3.826   3.865  11.350  0.9203 -0.2760 -0.0045
  604MOL0     C81431   3.876   3.945  11.455  0.2204  0.1233 -0.0169
  604MOL0     C81432   4.014   3.958  11.470 -0.2934  0.2942 -0.2396
  604MOL0     C81433   4.098   3.888  11.388 -0.8083 -0.6472  0.5468
  604MOL0     C81434   4.244   3.905  11.403  0.2979 -0.1909 -0.3254
  604MOL0     O81435   4.295   3.993  11.487  0.2588  0.3712 -0.4857
  604MOL0     C81436   4.427   4.016  11.511  0.1763  0.1770 -0.0389
  604MOL0     C81437   4.534   4.002  11.421 -0.0045 -0.7672 -1.1581
  604MOL0     C81438   4.655   4.056  11.453 -0.3406  0.3837  0.1606
  604MOL0     C81439   4.682   4.126  11.573 -0.0940  0.2276 -0.2446
  604MOL0     O81440   4.810   4.167  11.588  0.1415 -0.5184 -0.3154
  604MOL0     C81441   4.852   4.242  11.709 -1.1029  0.0852  0.0603
  604MOL0     C81442   4.981   4.318  11.669 -1.2666  0.1693 -0.1183
  604MOL0     C81443   5.085   4.219  11.620  0.4011  0.4542  0.1974
  604MOL0     C81444   5.221   4.294  11.599  1.1014 -0.3622 -0.0373
  604MOL0     C81445   5.318   4.232  11.502  0.7010 -0.6849 -1.1132
  604MOL0     C81446   5.442   4.306  11.478 -0.5924  0.2177  0.3785
  604MOL0     C81447   5.540   4.246  11.379 -0.8176  0.4182  0.4952
  604MOL0     C81448   5.675   4.322  11.373 -0.5568  0.1973  0.3565
  604MOL0    Cl81449   5.807   4.228  11.284 -0.5363 -0.1360 -0.2100
  604MOL0     C81450   4.574   4.138  11.668 -0.7567  0.5083  0.6473
  604MOL0     C81451   4.451   4.087  11.634  0.3963 -0.1609  0.2794
  604MOL0     O81452   4.312   3.830  11.343  0.0716  1.3612  0.6420
  604MOL0     C81453   4.046   3.790  11.297 -0.0708  0.5686  0.1207
  604MOL0     C81454   3.909   3.775  11.279 -0.2884 -0.2881  0.2486
  604MOL0     N81455   3.161   4.285  11.176  0.8345 -0.2575  0.2928
  604MOL0     N81456   3.049   4.324  11.231 -0.5574 -0.2580  0.0487
  604MOL0     C81457   1.976   3.926  11.135 -0.6284  0.5468  0.4145
  604MOL0     C81458   1.943   3.811  11.082  0.3214  0.0020  0.0752
  604MOL0     C81459   1.849   3.419  10.933  0.2790 -0.0820  0.0397
  604MOL0     C81460   1.708   3.401  10.922  0.6103 -0.7890 -0.4188
  604MOL0     C81461   1.646   3.337  10.819 -0.1311  1.0166  0.3754
  604MOL0     C81462   1.730   3.297  10.716 -0.1409  0.9945  0.8622
  604MOL0     O81463   1.669   3.246  10.603  0.3474  0.0352  0.9429
  604MOL0     C81464   1.731   3.293  10.485 -0.3079  1.0341  1.7039
  604MOL0     C81465   1.668   3.207  10.376  0.2370  0.4077 -0.1479
  604MOL0     C81466   1.678   3.283  10.248 -0.5385  0.6768 -0.0289
  604MOL0     C81467   1.820   3.258  10.196 -0.3313  0.2138  0.1280
  604MOL0     C81468   1.837   3.320  10.069 -0.3755  0.1576  0.2070
  604MOL0     C81469   1.842   3.369   9.961 -0.1616 -0.4515  0.1635
  604MOL0     C81470   1.864   3.293  10.729  0.0340 -0.1609  0.2486
  604MOL0     C81471   1.927   3.350  10.836  0.0170 -1.2244  0.4117
  604MOL0     C81472   2.078   3.353  10.816 -0.2086  0.3185  0.2642
  604MOL0     H81473   1.771   3.672  11.347 -0.8302  0.3962 -0.7294
  604MOL0     H81474   1.852   3.896  11.449 -0.8440 -0.1289 -0.6571
  604MOL0     H81475   1.951   4.089  11.520  0.3863 -3.2259  0.9923
  604MOL0     H81476   2.082   3.980  11.488 -2.5875 -0.1674  1.9606
  604MOL0     H81477   2.174   4.183  11.594 -0.1943 -0.7542  0.6915
  604MOL0     H81478   2.125   4.277  11.447  0.7673 -0.2459 -0.3418
  604MOL0     H81479   2.255   4.127  11.310  0.1163 -3.0453 -0.4062
  604MOL0     H81480   2.316   4.033  11.448 -1.2466 -1.1455 -0.9458
  604MOL0     H81481   2.377   4.330  11.405 -1.9452  1.9607  3.4253
  604MOL0     H81482   2.416   4.238  11.550  1.6563 -1.9634 -0.9988
  604MOL0     H81483   2.524   4.066  11.426 -0.3780  0.7768 -0.2362
  604MOL0     H81484   2.502   4.152  11.268  1.4697  1.9404 -1.3837
  604MOL0     H81485   2.621   4.349  11.370 -0.5847 -0.7580 -1.6127
  604MOL0     H81486   2.662   4.256  11.510  0.5809  3.3147 -0.4417
  604MOL0     H81487   2.754   4.240  11.215  1.1585 -2.9248 -1.6519
  604MOL0     H81488   2.747   4.090  11.311 -0.9573 -0.5761  1.3799
  604MOL0     H81489   2.877   4.340  11.420 -3.8943 -0.9123  0.4857
  604MOL0     H81490   2.910   4.173  11.454 -0.3448 -1.2286 -1.5890
  604MOL0     H81491   3.064   4.021  11.331 -0.1286  1.7350  0.9854
  604MOL0     H81492   3.262   3.975  11.119 -2.0038 -0.2785  1.4074
  604MOL0     H81493   3.347   4.128  11.091 -1.2305  0.4544 -0.0048
  604MOL0     H81494   3.425   4.155  11.327  1.1396  0.1161 -1.6406
  604MOL0     H81495   3.323   4.018  11.369 -1.3702 -1.5239 -1.2638
  604MOL0     H81496   3.556   4.008  11.162 -0.9680 -0.6136  0.3062
  604MOL0     H81497   3.452   3.870  11.239  1.1692 -0.7280 -1.5435
  604MOL0     H81498   3.548   3.914  11.454 -1.3305  3.6377  0.2863
  604MOL0     H81499   3.648   4.041  11.397  2.4391 -0.1722 -1.1214
  604MOL0     H81500   3.813   4.011  11.515 -0.1695 -2.8140  3.1249
  604MOL0     H81501   4.062   4.026  11.539  2.0527  0.6553 -2.0929
  604MOL0     H81502   4.531   3.946  11.327  0.1656 -3.8373  0.5370
  604MOL0     H81503   4.732   4.044  11.377 -1.5622  0.2242 -1.0946
  604MOL0     H81504   4.774   4.310  11.743  0.8589  1.7154  1.5931
  604MOL0     H81505   4.869   4.164  11.784  0.5162  1.8301  1.6428
  604MOL0     H81506   4.956   4.393  11.594 -2.1981 -0.8585 -0.8608
  604MOL0     H81507   5.016   4.366  11.761 -2.0085  2.2812 -0.8910
  604MOL0     H81508   5.097   4.140  11.695 -0.9558 -0.5689 -0.6182
  604MOL0     H81509   5.042   4.187  11.525  0.4543  0.6327  0.1134
  604MOL0     H81510   5.273   4.305  11.694 -1.2721 -1.4289  1.4695
  604MOL0     H81511   5.200   4.396  11.564 -0.2685 -0.2768  0.9290
  604MOL0     H81512   5.268   4.207  11.408  1.5688 -5.3994 -0.5845
  604MOL0     H81513   5.343   4.141  11.558  1.8483  1.0503  1.3724
  604MOL0     H81514   5.416   4.401  11.431 -0.3114  0.1875  0.1573
  604MOL0     H81515   5.496   4.308  11.573  0.5688 -2.4925 -0.1343
  604MOL0     H81516   5.482   4.255  11.286 -2.4769 -1.2271  1.2931
  604MOL0     H81517   5.553   4.139  11.396 -2.1141 -0.2467 -2.1072
  604MOL0     H81518   5.657   4.418  11.323 -3.6137  1.1669  2.9239
  604MOL0     H81519   5.710   4.329  11.477 -0.7246 -2.4978  0.6734
  604MOL0     H81520   4.597   4.196  11.757 -0.1352  0.1595  0.7228
  604MOL0     H81521   4.370   4.105  11.704 -0.3144 -3.4286  0.4637
  604MOL0     H81522   4.116   3.730  11.240  1.7170  1.4942  1.2437
  604MOL0     H81523   3.868   3.699  11.213 -0.0196 -2.1501  2.0985
  604MOL0     H81524   2.033   4.001  11.081 -1.0479  1.0156  0.6235
  604MOL0     H81525   1.970   3.785  10.981 -0.3027 -1.7916  0.3268
  604MOL0     H81526   1.642   3.447  10.994  1.4337  0.5929 -0.5093
  604MOL0     H81527   1.539   3.345  10.807 -0.3188 -0.6949  0.7201
  604MOL0     H81528   1.840   3.281  10.481 -0.3036  1.2292  1.0864
  604MOL0     H81529   1.697   3.397  10.477 -3.1383  0.2288  2.2619
  604MOL0     H81530   1.564   3.180  10.397  0.5040 -1.2656 -0.7938
  604MOL0     H81531   1.721   3.112  10.374  1.9223  1.3213 -1.1997
  604MOL0     H81532   1.649   3.388  10.248 -0.1139  0.7986  0.3123
  604MOL0     H81533   1.609   3.233  10.179 -0.4813 -0.2038  0.5352
  604MOL0     H81534   1.896   3.299  10.262 -0.4011  2.9622 -1.3644
  604MOL0     H81535   1.839   3.151  10.181 -0.1286  0.3079 -0.2927
  604MOL0     H81536   1.865   3.412   9.865  1.2522 -0.6829  0.3909
  604MOL0     H81537   1.925   3.234  10.662 -0.2952 -2.7920  2.0782
  604MOL0     H81538   2.106   3.271  10.750 -0.8879  1.2081 -1.2005
  604MOL0     H81539   2.098   3.446  10.761  1.1155 -0.2612 -0.2632
  604MOL0     H81540   2.134   3.336  10.908  1.1305 -0.6120 -0.6862
  605MOL0     O81541  10.978   9.768   2.599 -0.3444  0.3597  0.3444
  605MOL0     C81542  10.912   9.864   2.557  0.2508 -1.1323  0.2566
  605MOL0     O81543  10.917   9.927   2.434  0.4348 -0.7807 -0.0410
  605MOL0     C81544  11.034   9.924   2.364  0.7976  0.2150 -0.7415
  605MOL0     C81545  11.031   9.943   2.228  1.0941 -0.7144  0.7237
  605MOL0     C81546  11.146   9.960   2.153  0.8860  0.3453  0.2197
  605MOL0     C81547  11.263   9.982   2.228 -1.3219  0.4308  0.8690
  605MOL0     O81548  11.385  10.010   2.168  0.0375 -0.0184 -0.5632
  605MOL0     C81549  11.407  10.000   2.030  0.2187  0.8475  0.0239
  605MOL0     C81550  11.556  10.030   2.012 -0.0140 -0.9686 -0.7867
  605MOL0     C81551  11.651   9.917   2.063  0.1650 -0.0163 -0.9737
  605MOL0     C81552  11.794   9.954   2.046  0.0882 -0.6258  0.0933
  605MOL0     C81553  11.873   9.854   2.120 -0.7265  1.1694 -0.3151
  605MOL0     C81554  12.026   9.895   2.134  0.4963  0.1634 -0.3047
  605MOL0     C81555  12.114   9.777   2.160 -0.1914  0.3179 -0.4766
  605MOL0     C81556  12.159   9.713   2.020  0.1127  0.9104  0.2269
  605MOL0     N81557  12.258   9.789   1.943  0.8266  0.2207  1.2890
  605MOL0     C81558  12.379   9.831   1.996  0.6814  0.7912  0.5714
  605MOL0     C81559  12.431   9.928   1.907  0.3487 -0.0855  0.2255
  605MOL0     C81560  12.567   9.996   1.916 -0.2581 -0.5736  0.2993
  605MOL0     C81561  12.671   9.926   2.000  0.5845 -0.8038 -0.1621
  605MOL0     C81562  12.773  10.020   2.077 -0.9090 -0.8443  0.2194
  605MOL0     C81563  12.909   9.955   2.103 -0.1703  0.6224 -1.1617
  605MOL0     O81564  13.001  10.051   2.160 -0.4299  0.5054 -0.8646
  605MOL0     C81565  13.115  10.012   2.223 -0.4674 -0.4976 -0.6857
  605MOL0     C81566  13.193  10.112   2.271  0.0355 -0.2190 -0.6916
  605MOL0     C81567  13.319  10.083   2.326  0.0466  0.9222  0.8391
  605MOL0     C81568  13.361   9.946   2.340  0.2579 -0.6933 -1.0452
  605MOL0     C81569  13.498   9.914   2.381  0.0356 -0.2586  0.6753
  605MOL0     O81570  13.590  10.009   2.355  0.0477  0.7140  0.2434
  605MOL0     C81571  13.712  10.014   2.416  0.0246  0.0848 -0.2365
  605MOL0     C81572  13.727   9.981   2.555  0.5463 -0.1739 -0.2272
  605MOL0     C81573  13.843   9.996   2.617 -0.5190  0.1693 -0.2476
  605MOL0     C81574  13.950  10.050   2.541  0.0837 -1.2501 -0.8687
  605MOL0     O81575  14.068  10.095   2.593  0.0571 -0.1248  0.7147
  605MOL0     C81576  14.092  10.132   2.727  0.3663 -0.1671  0.4821
  605MOL0     C81577  14.023  10.269   2.753 -0.0458 -0.3900  0.6537
  605MOL0     C81578  14.045  10.314   2.899  1.0083 -0.0051 -0.2025
  605MOL0     C81579  14.042  10.464   2.924  0.4882  0.3980 -0.0373
  605MOL0     C81580  14.041  10.509   3.074  0.4345  0.3148 -0.2110
  605MOL0     C81581  14.044  10.661   3.081  0.3022  0.2359  0.2796
  605MOL0     C81582  14.061  10.718   3.214  0.1136  0.3337 -1.0146
  605MOL0     C81583  14.176  10.668   3.304 -0.0281  1.1223  0.3932
  605MOL0    Cl81584  14.328  10.709   3.236  0.0120 -0.1736  0.0018
  605MOL0     C81585  13.944  10.080   2.407 -0.8574  0.1734 -0.0513
  605MOL0     C81586  13.823  10.062   2.341  0.5173  1.0347  0.5450
  605MOL0     O81587  13.508   9.810   2.438  0.4180 -0.2172 -0.1196
  605MOL0     C81588  13.272   9.845   2.300  0.1872  0.3525 -0.4495
  605MOL0     C81589  13.153   9.885   2.238  0.2512  0.1521  0.6707
  605MOL0     N81590  12.343   9.938   1.803 -0.5433 -0.0932 -0.1485
  605MOL0     N81591  12.240   9.863   1.828  0.8414  0.4762 -1.0081
  605MOL0     C81592  11.270   9.964   2.365 -0.3002  1.1089  0.2738
  605MOL0     C81593  11.155   9.924   2.427 -0.4874 -0.1329  0.3411
  605MOL0     C81594  10.796   9.902   2.654  0.3241  0.2524 -0.3604
  605MOL0     C81595  10.699  10.005   2.610 -0.9721  0.8477  0.3618
  605MOL0     C81596  10.600  10.058   2.687 -0.2756  0.1083  0.6655
  605MOL0     C81597  10.571  10.022   2.812  0.0350  1.0093  0.5945
  605MOL0     O81598  10.481  10.076   2.902 -0.4799 -0.2071  0.0361
  605MOL0     C81599  10.375  10.164   2.849  0.2990 -0.5056 -0.5152
  605MOL0     C81600  10.256  10.185   2.940  0.5460 -0.8373 -0.0513
  605MOL0     C81601  10.296  10.183   3.085  0.2848  0.8120 -0.4059
  605MOL0     C81602  10.297  10.037   3.137 -0.1179 -0.3468  0.3844
  605MOL0     C81603  10.269  10.044   3.287  0.0022  0.5971  0.4761
  605MOL0     C81604  10.241  10.043   3.405 -1.5185 -0.2841 -0.6945
  605MOL0     C81605  10.668   9.927   2.867  0.2851 -0.2696 -0.3792
  605MOL0     C81606  10.777   9.868   2.792 -0.1139 -0.1170  0.0922
  605MOL0     C81607  10.859   9.775   2.875  0.4274 -0.1852  0.2351
  605MOL0     H81608  10.938   9.942   2.173 -0.2704  2.1438  2.7790
  605MOL0     H81609  11.144   9.969   2.045  1.0226 -1.5462  0.0288
  605MOL0     H81610  11.372   9.903   1.995 -1.2104  1.7183 -1.0245
  605MOL0     H81611  11.351  10.073   1.972  0.7746 -0.8137 -2.7448
  605MOL0     H81612  11.578  10.128   2.055  0.4275 -2.2866  2.2848
  605MOL0     H81613  11.575  10.035   1.904 -1.0085 -0.1302 -0.9343
  605MOL0     H81614  11.627   9.822   2.016 -2.5708  0.0013  0.2256
  605MOL0     H81615  11.639   9.901   2.170 -2.8259  0.1721 -1.1854
  605MOL0     H81616  11.837   9.956   1.945  0.9030  0.9650  0.4358
  605MOL0     H81617  11.815  10.053   2.088  2.6213 -0.4667 -1.3113
  605MOL0     H81618  11.841   9.823   2.220 -0.7432 -1.3969 -1.0402
  605MOL0     H81619  11.861   9.765   2.056  1.7316  1.5459 -1.4318
  605MOL0     H81620  12.051   9.942   2.038 -1.7195 -0.1755 -1.1127
  605MOL0     H81621  12.031   9.974   2.210 -0.2481  1.3331 -1.4260
  605MOL0     H81622  12.052   9.715   2.226  1.5981 -2.3230 -1.1403
  605MOL0     H81623  12.204   9.802   2.217 -0.2169  1.4939 -0.9181
  605MOL0     H81624  12.215   9.622   2.043 -0.8885 -0.0504 -1.0254
  605MOL0     H81625  12.072   9.687   1.959 -1.0565  0.8973  1.8323
  605MOL0     H81626  12.430   9.806   2.088 -0.7880 -0.9396  0.9586
  605MOL0     H81627  12.608  10.011   1.816 -0.2016 -2.0152  0.0799
  605MOL0     H81628  12.554  10.094   1.963  0.8559 -0.7249  0.9823
  605MOL0     H81629  12.624   9.857   2.071  0.4687 -0.9728 -0.4029
  605MOL0     H81630  12.727   9.870   1.925 -2.4610  0.5679 -3.7266
  605MOL0     H81631  12.727  10.073   2.162  1.9228 -0.0219  1.3599
  605MOL0     H81632  12.801  10.095   2.002  0.5550 -2.5090 -0.9802
  605MOL0     H81633  12.957   9.922   2.010  1.8848  0.5381 -0.1297
  605MOL0     H81634  12.890   9.870   2.170  1.2795  1.4084  0.3241
  605MOL0     H81635  13.162  10.215   2.272  0.5660 -0.0289 -1.6743
  605MOL0     H81636  13.383  10.167   2.351  1.1684 -0.1867  1.8139
  605MOL0     H81637  13.640   9.931   2.597  0.5010  0.3304  0.3032
  605MOL0     H81638  13.852   9.966   2.721 -0.0946  1.3413  0.0657
  605MOL0     H81639  14.040  10.064   2.795  1.6062  0.5144  2.1856
  605MOL0     H81640  14.197  10.133   2.757  0.1082  2.9601  1.6773
  605MOL0     H81641  14.061  10.340   2.679 -1.4052 -0.5476 -0.2296
  605MOL0     H81642  13.917  10.250   2.732  0.3512 -1.1888 -0.8288
  605MOL0     H81643  13.966  10.274   2.963  0.9038  0.3984 -0.0780
  605MOL0     H81644  14.138  10.272   2.938  0.8468  1.3521  1.8102
  605MOL0     H81645  13.951  10.504   2.879 -1.8647 -3.7099  0.6078
  605MOL0     H81646  14.138  10.500   2.884  0.4076  0.6847  0.0271
  605MOL0     H81647  14.114  10.448   3.127  0.5620  1.4774  1.0282
  605MOL0     H81648  13.948  10.476   3.121  0.1574  0.4477 -0.6585
  605MOL0     H81649  14.130  10.695   3.023 -0.0510  2.7795  1.1205
  605MOL0     H81650  13.950  10.694   3.036 -1.4094 -2.3123  1.7410
  605MOL0     H81651  13.971  10.706   3.274 -0.3378  0.2571 -1.6975
  605MOL0     H81652  14.075  10.826   3.215 -0.3553  0.4033  1.0294
  605MOL0     H81653  14.167  10.702   3.407  0.6955  1.5724  0.3102
  605MOL0     H81654  14.172  10.559   3.320  1.6701  1.0446  0.4295
  605MOL0     H81655  14.034  10.112   2.355 -1.5557 -1.8490 -2.7715
  605MOL0     H81656  13.807  10.102   2.241  0.0608 -0.3707  0.0280
  605MOL0     H81657  13.295   9.739   2.309 -0.3929  0.1509 -1.1832
  605MOL0     H81658  13.085   9.809   2.200  2.3035 -0.7001 -1.5797
  605MOL0     H81659  11.358   9.988   2.423 -1.4487  1.0748  2.0884
  605MOL0     H81660  11.168   9.911   2.534  2.6286  0.4306  0.1152
  605MOL0     H81661  10.703  10.052   2.513  0.0125  2.2960  1.0589
  605MOL0     H81662  10.543  10.134   2.636 -0.0686 -0.4876 -0.4726
  605MOL0     H81663  10.340  10.128   2.751  0.0225 -2.1652  0.1528
  605MOL0     H81664  10.418  10.263   2.836  2.1848 -1.1061  0.8306
  605MOL0     H81665  10.168  10.126   2.914 -2.1707  2.5079  0.7687
  605MOL0     H81666  10.216  10.286   2.924  0.0508 -0.9323  0.5625
  605MOL0     H81667  10.219  10.237   3.141 -1.6571  1.6129 -3.5640
  605MOL0     H81668  10.393  10.231   3.101 -0.2317  1.9211 -0.4665
  605MOL0     H81669  10.236   9.966   3.081  2.6748 -0.9244 -2.2265
  605MOL0     H81670  10.396   9.992   3.125 -0.4907 -0.8861 -0.8492
  605MOL0     H81671  10.242  10.038   3.512 -2.3582  1.2741 -0.5727
  605MOL0     H81672  10.655   9.883   2.966 -1.9993  1.6569  0.2452
  605MOL0     H81673  10.811   9.747   2.969 -3.2667 -0.8710 -1.6583
  605MOL0     H81674  10.879   9.676   2.832 -1.0299 -0.8336  0.9883
  605MOL0     H81675  10.953   9.820   2.905 -1.3400  4.2392 -0.1229
  606MOL0     O81676  11.024   0.321   4.059  0.0694  0.2008  0.1945
  606MOL0     C81677  11.048   0.225   3.988  0.4317  0.7467 -0.0261
  606MOL0     O81678  11.160   0.205   3.917 -0.4395 -0.3566 -0.2288
  606MOL0     C81679  11.258   0.300   3.944  0.1324  0.1119 -0.0315
  606MOL0     C81680  11.326   0.307   4.062 -0.5337 -0.2674 -0.5499
  606MOL0     C81681  11.426   0.404   4.073 -0.0541  0.5195  0.2600
  606MOL0     C81682  11.448   0.505   3.976  0.0266  0.0309 -0.3163
  606MOL0     O81683  11.540   0.603   4.019 -0.2432 -0.0372  0.2414
  606MOL0     C81684  11.546   0.729   3.943 -0.1618 -0.1869 -0.0874
  606MOL0     C81685  11.601   0.851   4.012 -0.3293 -0.0903  0.1958
  606MOL0     C81686  11.746   0.828   4.055 -0.3208 -0.5933 -0.2075
  606MOL0     C81687  11.822   0.961   4.080  0.0114 -0.4356 -0.5938
  606MOL0     C81688  11.956   0.922   4.153  0.8854  0.1404 -0.2076
  606MOL0     C81689  12.045   1.039   4.198 -0.2364  0.3108  0.7545
  606MOL0     C81690  12.103   1.129   4.096  0.6494 -0.1725  0.2574
  606MOL0     C81691  12.175   1.239   4.177  0.1328 -0.0605  0.2182
  606MOL0     N81692  12.290   1.298   4.111  0.0686 -1.1023 -0.3628
  606MOL0     C81693  12.293   1.409   4.030  0.6586  0.1316  0.4300
  606MOL0     C81694  12.427   1.416   4.000 -0.6457  0.0971  0.5587
  606MOL0     C81695  12.494   1.532   3.933 -0.3912  0.8737  0.9078
  606MOL0     C81696  12.640   1.498   3.872  0.8230  0.3272 -1.0287
  606MOL0     C81697  12.714   1.639   3.852 -1.0830 -0.5379  0.1734
  606MOL0     C81698  12.863   1.614   3.812  0.5628 -0.0540 -0.6358
  606MOL0     O81699  12.928   1.562   3.927  0.4595 -0.5484  0.0770
  606MOL0     C81700  13.061   1.578   3.940 -0.1329  0.2469  0.2202
  606MOL0     C81701  13.115   1.551   4.064 -0.6017 -0.4880  0.1184
  606MOL0     C81702  13.254   1.561   4.093 -0.1137  0.0917  0.1629
  606MOL0     C81703  13.342   1.606   3.998  0.7175 -0.4929  0.7000
  606MOL0     C81704  13.491   1.618   4.016 -0.7069 -0.0403  0.6707
  606MOL0     O81705  13.578   1.646   3.905  0.3837  0.3488 -0.1471
  606MOL0     C81706  13.714   1.681   3.922  0.3953  0.0355  0.0352
  606MOL0     C81707  13.790   1.671   3.797  0.0612 -0.5878  0.1629
  606MOL0     C81708  13.928   1.696   3.808 -0.0220 -1.4807 -0.5125
  606MOL0     C81709  13.983   1.747   3.929 -0.9142 -0.4101  0.4295
  606MOL0     O81710  14.114   1.801   3.928 -1.0616  0.0606 -0.6295
  606MOL0     C81711  14.162   1.858   3.810  0.2975 -0.1677  0.0669
  606MOL0     C81712  14.293   1.928   3.855  0.0077  0.3244 -0.6673
  606MOL0     C81713  14.263   2.045   3.958  0.1510 -0.5067  0.9525
  606MOL0     C81714  14.315   1.999   4.092 -0.0925 -0.3025  0.4282
  606MOL0     C81715  14.457   1.984   4.110 -0.5309 -1.1077  0.1189
  606MOL0     C81716  14.502   1.974   4.256  0.2693  0.6683 -0.5673
  606MOL0     C81717  14.659   1.965   4.270 -0.0845  0.2376 -0.3987
  606MOL0     C81718  14.705   1.960   4.415 -0.0879 -0.0799  0.7446
  606MOL0    Cl81719  14.870   1.898   4.425 -0.0667 -0.3131 -0.2980
  606MOL0     C81720  13.913   1.753   4.044 -0.4160  0.0394  0.0921
  606MOL0     C81721  13.780   1.730   4.044  0.8635 -0.3476 -0.3147
  606MOL0     O81722  13.523   1.620   4.137 -0.8459  0.0378  0.9189
  606MOL0     C81723  13.289   1.634   3.870  0.3169  0.6797 -0.7336
  606MOL0     C81724  13.152   1.634   3.847  0.1132 -0.3702  0.3353
  606MOL0     N81725  12.503   1.313   4.062  0.6556  0.3110  0.3216
  606MOL0     N81726  12.407   1.243   4.128 -0.9178 -0.2688  0.1473
  606MOL0     C81727  11.372   0.496   3.858 -0.0991  1.0485  0.6090
  606MOL0     C81728  11.278   0.390   3.845  0.5830  0.7627  0.7966
  606MOL0     C81729  10.929   0.131   3.953 -0.7088 -0.3496  0.7370
  606MOL0     C81730  10.945   0.046   3.840  0.6480 -0.5333 -0.1309
  606MOL0     C81731  10.855  -0.051   3.806  0.1656 -0.2718  0.1866
  606MOL0     C81732  10.752  -0.078   3.896  0.4106 -0.1676 -0.6176
  606MOL0     O81733  10.673  -0.184   3.858 -0.1447  0.4656  0.2453
  606MOL0     C81734  10.575  -0.222   3.957  0.3577  0.3311 -0.2874
  606MOL0     C81735  10.496  -0.336   3.901  0.0376  0.3461  0.2509
  606MOL0     C81736  10.405  -0.292   3.795 -0.3730 -0.1628  0.3098
  606MOL0     C81737  10.293  -0.395   3.772 -0.1591  0.0257 -0.4869
  606MOL0     C81738  10.329  -0.489   3.666  0.1779 -0.7088 -0.1664
  606MOL0     C81739  10.381  -0.551   3.576 -0.2608  0.2693 -0.5960
  606MOL0     C81740  10.739   0.004   4.008  0.0968 -0.7322  0.8338
  606MOL0     C81741  10.819   0.109   4.037  0.2924  0.2550  0.0860
  606MOL0     C81742  10.796   0.196   4.157  0.5505  1.0954  0.3374
  606MOL0     H81743  11.302   0.239   4.144  0.1247  0.1141 -0.0357
  606MOL0     H81744  11.471   0.418   4.171 -3.3636  4.6389  1.4778
  606MOL0     H81745  11.607   0.712   3.854 -1.5092 -1.6718 -0.7704
  606MOL0     H81746  11.448   0.754   3.902  0.9574 -0.5396 -3.2520
  606MOL0     H81747  11.544   0.880   4.101  0.1591  3.1489 -0.4288
  606MOL0     H81748  11.579   0.938   3.950 -3.4601 -1.4637 -0.8632
  606MOL0     H81749  11.801   0.777   3.975 -1.1015 -3.7871  1.1376
  606MOL0     H81750  11.746   0.781   4.154  1.9756  3.2956  1.9106
  606MOL0     H81751  11.829   1.020   3.988 -0.5927 -1.1875 -1.1373
  606MOL0     H81752  11.748   1.015   4.140  0.7674 -0.1760  0.1198
  606MOL0     H81753  11.934   0.855   4.237 -1.6197  1.3873  0.2392
  606MOL0     H81754  12.010   0.860   4.081  0.9148 -0.0423 -0.0289
  606MOL0     H81755  11.981   1.091   4.270 -0.3110 -0.4768  1.2686
  606MOL0     H81756  12.123   0.997   4.262 -1.1684 -1.8610  0.5317
  606MOL0     H81757  12.017   1.170   4.043  0.8458  0.7382  0.6261
  606MOL0     H81758  12.169   1.086   4.020  1.2206 -1.4806  1.4362
  606MOL0     H81759  12.104   1.318   4.201 -0.3709 -1.4073  3.9253
  606MOL0     H81760  12.204   1.210   4.279 -3.1986  1.2038  1.6563
  606MOL0     H81761  12.213   1.477   4.002  0.9406  1.2080  2.0977
  606MOL0     H81762  12.427   1.574   3.858 -1.2173 -0.4923  0.8427
  606MOL0     H81763  12.497   1.614   4.004 -0.9417 -0.3283  2.3674
  606MOL0     H81764  12.707   1.436   3.932 -0.6624  1.8939  2.5510
  606MOL0     H81765  12.623   1.460   3.770 -1.1473  1.9127 -1.3663
  606MOL0     H81766  12.703   1.698   3.943  1.8229  0.1129  0.1788
  606MOL0     H81767  12.665   1.688   3.767  0.6297 -1.0382 -1.1483
  606MOL0     H81768  12.907   1.710   3.785 -1.4312  1.1326  0.1275
  606MOL0     H81769  12.860   1.541   3.731 -0.0688 -1.2489  0.4271
  606MOL0     H81770  13.049   1.519   4.143 -0.0036 -2.6264 -0.1932
  606MOL0     H81771  13.283   1.528   4.192  0.0984 -4.4173 -1.1993
  606MOL0     H81772  13.739   1.630   3.710  1.6664  1.8797 -2.1120
  606MOL0     H81773  13.994   1.681   3.724  0.5098 -2.7909  0.1213
  606MOL0     H81774  14.187   1.768   3.753  0.7027 -2.0492  2.9988
  606MOL0     H81775  14.096   1.929   3.761  1.9317 -0.3465 -2.6056
  606MOL0     H81776  14.360   1.849   3.889 -1.3652 -0.7615 -0.3689
  606MOL0     H81777  14.344   1.967   3.766  0.5436  0.2723 -0.3874
  606MOL0     H81778  14.316   2.134   3.925 -0.6210 -0.5778 -0.5202
  606MOL0     H81779  14.156   2.067   3.956  0.3587  0.5121 -0.3983
  606MOL0     H81780  14.268   1.905   4.122  0.8737 -0.1730  2.5044
  606MOL0     H81781  14.264   2.070   4.158  3.9429 -0.0739  3.6619
  606MOL0     H81782  14.498   2.073   4.062 -1.9713  0.0461  0.9600
  606MOL0     H81783  14.505   1.899   4.060  0.0433 -0.7273  0.0063
  606MOL0     H81784  14.464   2.058   4.315 -1.4647 -0.8509  0.5865
  606MOL0     H81785  14.446   1.892   4.302 -2.3583  0.1466 -4.2600
  606MOL0     H81786  14.705   2.042   4.208  5.1323 -1.9475  0.2095
  606MOL0     H81787  14.695   1.875   4.221 -0.2655  0.7016 -1.3983
  606MOL0     H81788  14.716   2.061   4.457  2.9536  0.9087 -1.9918
  606MOL0     H81789  14.633   1.909   4.481  2.7164 -4.7637  0.6705
  606MOL0     H81790  13.960   1.806   4.126  1.2250  1.3102 -1.5825
  606MOL0     H81791  13.720   1.751   4.132  0.9307 -1.6420  0.0668
  606MOL0     H81792  13.352   1.641   3.781 -1.3985 -0.1648 -2.0725
  606MOL0     H81793  13.121   1.662   3.747 -2.6296 -0.7127  0.9983
  606MOL0     H81794  11.389   0.575   3.785  0.2459  0.7219  0.3257
  606MOL0     H81795  11.219   0.391   3.754  1.9061 -0.5246 -0.1059
  606MOL0     H81796  11.031   0.068   3.777  0.1214  0.8328 -0.3929
  606MOL0     H81797  10.882  -0.114   3.722  1.0363  0.8389 -0.3997
  606MOL0     H81798  10.510  -0.135   3.960  1.9424  1.5317  0.4689
  606MOL0     H81799  10.622  -0.245   4.053  0.1876  3.3896  0.6206
  606MOL0     H81800  10.434  -0.371   3.985 -0.7582  1.1994  0.0427
  606MOL0     H81801  10.558  -0.422   3.876  1.3018  1.1869  0.4368
  606MOL0     H81802  10.458  -0.273   3.702  0.3588  0.5547  0.8624
  606MOL0     H81803  10.357  -0.197   3.821  0.6371 -0.3697  3.3351
  606MOL0     H81804  10.279  -0.459   3.860  0.9574 -2.1952 -1.8096
  606MOL0     H81805  10.203  -0.342   3.740 -1.0424  0.2233  2.0600
  606MOL0     H81806  10.443  -0.593   3.500  1.8665 -1.4628  1.9196
  606MOL0     H81807  10.666   0.006   4.089  1.1244  0.4784  1.7761
  606MOL0     H81808  10.760   0.296   4.129 -2.7472 -0.2625 -0.6550
  606MOL0     H81809  10.720   0.160   4.226  1.4952 -2.9995 -0.5222
  606MOL0     H81810  10.886   0.198   4.220 -0.3182  0.2729  1.6337
  607MOL0     O81811   3.780   1.225  10.806  0.3724  0.3387  0.1553
  607MOL0     C81812   3.811   1.140  10.718 -0.2109 -0.4347  0.0444
  607MOL0     O81813   3.902   1.161  10.614  0.2225  0.4039 -1.0488
  607MOL0     C81814   3.964   1.282  10.599  0.3404  0.0974  0.3695
  607MOL0     C81815   4.097   1.288  10.548  0.6177  0.2331  0.5387
  607MOL0     C81816   4.168   1.403  10.539 -0.6851 -0.2233 -0.2194
  607MOL0     C81817   4.110   1.527  10.567  0.3987  1.0619 -0.6560
  607MOL0     O81818   4.160   1.657  10.554 -0.5847 -0.2053  0.2110
  607MOL0     C81819   4.301   1.654  10.563  0.0734  0.3776 -0.0522
  607MOL0     C81820   4.358   1.788  10.565 -0.6468  0.6516  0.4902
  607MOL0     C81821   4.488   1.829  10.497  0.3540  0.7146  0.3162
  607MOL0     C81822   4.513   1.782  10.356  0.4940  0.3110 -0.4790
  607MOL0     C81823   4.627   1.862  10.294  1.1663 -0.3905  0.5882
  607MOL0     C81824   4.672   1.817  10.153  0.9126  0.2527 -0.2780
  607MOL0     C81825   4.728   1.671  10.144  0.3541  0.7672 -0.3667
  607MOL0     C81826   4.762   1.628  10.002 -0.4227 -0.2920  0.2314
  607MOL0     N81827   4.784   1.479  10.010 -0.1202  0.4878 -0.5234
  607MOL0     C81828   4.885   1.417  10.083 -0.3940  0.1914  0.2096
  607MOL0     C81829   4.857   1.281  10.079 -0.4962 -0.7164  0.3855
  607MOL0     C81830   4.921   1.169  10.152 -0.0749  0.0271  0.0974
  607MOL0     C81831   5.039   1.212  10.235 -0.4757 -0.4025  0.6923
  607MOL0     C81832   5.085   1.111  10.336 -0.0126  0.3729  0.0463
  607MOL0     C81833   5.208   1.158  10.404  0.1252 -0.3770 -1.1405
  607MOL0     O81834   5.331   1.161  10.316 -0.2425 -0.1001  0.6921
  607MOL0     C81835   5.451   1.141  10.388  0.3892  0.2125 -0.3988
  607MOL0     C81836   5.561   1.087  10.314  0.2165 -0.5414  0.7107
  607MOL0     C81837   5.684   1.070  10.375 -0.1237 -0.0518 -0.6369
  607MOL0     C81838   5.707   1.103  10.509 -0.1920 -0.5234 -0.2235
  607MOL0     C81839   5.835   1.077  10.576  0.7058 -0.3517 -0.1235
  607MOL0     O81840   5.922   1.003  10.513 -0.1166  0.1889 -0.0124
  607MOL0     C81841   6.051   0.984  10.555 -1.1747 -0.1961  0.2468
  607MOL0     C81842   6.119   0.865  10.524  1.1194  0.0403 -0.5501
  607MOL0     C81843   6.255   0.846  10.561 -0.3521  0.8073 -0.2708
  607MOL0     C81844   6.322   0.944  10.633  0.7744  0.0781 -0.2848
  607MOL0     O81845   6.450   0.933  10.667 -0.0686 -0.4139 -0.9755
  607MOL0     C81846   6.485   0.872  10.794 -0.4333 -0.0296 -0.5995
  607MOL0     C81847   6.620   0.813  10.770  0.1743 -0.4291 -0.8793
  607MOL0     C81848   6.617   0.685  10.684  0.1278  0.7642 -0.8017
  607MOL0     C81849   6.528   0.573  10.756  0.6477 -0.4204 -0.2717
  607MOL0     C81850   6.523   0.455  10.666  0.1026 -0.1086  0.7213
  607MOL0     C81851   6.658   0.381  10.663  0.5343 -0.8288 -0.3027
  607MOL0     C81852   6.671   0.266  10.554 -0.0917 -0.4364 -0.5728
  607MOL0     C81853   6.792   0.171  10.598  0.5601  0.3282 -0.8609
  607MOL0    Cl81854   6.739   0.088  10.747 -0.1087  0.1951  0.3480
  607MOL0     C81855   6.258   1.063  10.660 -0.0936 -0.6897  0.2227
  607MOL0     C81856   6.129   1.089  10.618 -0.5299 -0.0681 -0.5488
  607MOL0     O81857   5.843   1.122  10.690  0.1876 -0.5351  0.3947
  607MOL0     C81858   5.596   1.147  10.587  0.3233  0.2335  0.1517
  607MOL0     C81859   5.471   1.168  10.523 -0.3269 -0.9829  0.1935
  607MOL0     N81860   4.752   1.271   9.987  0.0699  0.1845 -0.0789
  607MOL0     N81861   4.708   1.383   9.952 -0.3785  0.5292  0.7750
  607MOL0     C81862   3.974   1.525  10.602 -0.9923 -0.1286  0.8584
  607MOL0     C81863   3.901   1.414  10.618  0.7450  0.8733  1.0764
  607MOL0     C81864   3.743   1.008  10.720 -0.3104  0.0891 -0.0605
  607MOL0     C81865   3.745   0.931  10.839 -0.2745  0.8997 -0.5389
  607MOL0     C81866   3.667   0.815  10.844 -0.5484 -0.4991  0.3407
  607MOL0     C81867   3.599   0.763  10.733 -0.0976  0.0097 -0.5427
  607MOL0     O81868   3.526   0.642  10.754 -0.3050  0.1703  0.4587
  607MOL0     C81869   3.440   0.591  10.647 -0.6607 -0.4407  0.3839
  607MOL0     C81870   3.369   0.458  10.682 -0.2286 -0.6233 -0.5147
  607MOL0     C81871   3.276   0.423  10.564 -0.1390  0.0281 -0.3625
  607MOL0     C81872   3.184   0.306  10.590 -0.5440 -0.6019  0.4561
  607MOL0     C81873   3.117   0.290  10.461 -0.1319  0.5369  1.1921
  607MOL0     C81874   3.049   0.283  10.358  0.7019 -0.6776 -0.0114
  607MOL0     C81875   3.607   0.829  10.611 -0.2867  0.2189  0.2969
  607MOL0     C81876   3.676   0.954  10.610  1.0004 -0.5719  0.2876
  607MOL0     C81877   3.673   1.006  10.470 -0.1227 -0.4390 -0.3023
  607MOL0     H81878   4.149   1.198  10.517  0.2174 -0.0467  0.6730
  607MOL0     H81879   4.272   1.396  10.509 -0.6794  2.5431 -1.1104
  607MOL0     H81880   4.334   1.600  10.652  0.6330  1.4009  0.3772
  607MOL0     H81881   4.340   1.608  10.472  0.8773 -0.9364  0.9243
  607MOL0     H81882   4.348   1.828  10.666 -2.9926 -0.0250  0.5836
  607MOL0     H81883   4.290   1.854  10.510 -0.5965 -0.4765 -0.9735
  607MOL0     H81884   4.567   1.793  10.563  0.6142  4.4959  2.3153
  607MOL0     H81885   4.489   1.938  10.504 -0.5921  0.7726 -0.3403
  607MOL0     H81886   4.529   1.674  10.362 -1.2920 -0.0432 -1.5619
  607MOL0     H81887   4.426   1.796  10.291 -0.9791  0.4135  1.4258
  607MOL0     H81888   4.598   1.968  10.293  2.3531 -0.0399  1.4616
  607MOL0     H81889   4.720   1.852  10.351  3.0807 -0.3312 -2.3456
  607MOL0     H81890   4.582   1.831  10.092  0.9582  1.6049 -0.0701
  607MOL0     H81891   4.742   1.889  10.109 -0.7451  2.9661  1.1994
  607MOL0     H81892   4.649   1.604  10.178 -0.8026  1.7396 -1.0439
  607MOL0     H81893   4.818   1.672  10.206  1.2225  1.7285 -1.5953
  607MOL0     H81894   4.680   1.654   9.933  0.4830  1.9450 -0.0796
  607MOL0     H81895   4.848   1.677   9.954 -0.3330  0.5315  1.2010
  607MOL0     H81896   4.961   1.461  10.146  0.2123  0.0730 -0.4381
  607MOL0     H81897   4.846   1.124  10.219  0.1738  0.0334  0.3796
  607MOL0     H81898   4.937   1.092  10.076  0.5743 -1.1032  1.3134
  607MOL0     H81899   5.117   1.242  10.165  0.2462 -0.3108  1.5174
  607MOL0     H81900   4.998   1.296  10.292  2.2371  0.0681  2.1020
  607MOL0     H81901   5.095   1.007  10.303 -1.3545 -0.5714  2.4038
  607MOL0     H81902   5.007   1.102  10.412  0.0632  1.7302  0.2999
  607MOL0     H81903   5.228   1.089  10.487 -1.5591  0.2792 -0.1429
  607MOL0     H81904   5.182   1.258  10.441 -0.5392 -1.1274  0.5285
  607MOL0     H81905   5.546   1.045  10.215 -0.9906  0.8174  0.2675
  607MOL0     H81906   5.768   1.029  10.320  0.0960 -0.3261 -0.1027
  607MOL0     H81907   6.073   0.785  10.466  2.8357 -0.8041 -0.8306
  607MOL0     H81908   6.310   0.756  10.539 -1.6940 -0.8517  2.5685
  607MOL0     H81909   6.481   0.956  10.864 -1.7800 -0.5729 -0.0126
  607MOL0     H81910   6.416   0.795  10.829  0.8541 -1.1615 -0.4571
  607MOL0     H81911   6.677   0.897  10.728 -0.8802  2.2268  2.5295
  607MOL0     H81912   6.658   0.793  10.871 -1.1011 -0.2308 -0.3454
  607MOL0     H81913   6.584   0.706  10.582  0.7363 -0.1304 -1.1888
  607MOL0     H81914   6.714   0.635  10.675 -1.5401 -2.5553 -1.8004
  607MOL0     H81915   6.426   0.608  10.773  1.3743  0.7937  2.0009
  607MOL0     H81916   6.584   0.555  10.849  0.4235  2.2791  0.4584
  607MOL0     H81917   6.497   0.501  10.570  1.4840  2.7905  1.6371
  607MOL0     H81918   6.449   0.378  10.690 -3.2471  2.0312 -1.8190
  607MOL0     H81919   6.743   0.448  10.644  0.4408 -0.5241  0.3548
  607MOL0     H81920   6.675   0.329  10.757 -0.5470 -1.6107 -0.5159
  607MOL0     H81921   6.690   0.305  10.454  1.9826  0.0777 -0.0109
  607MOL0     H81922   6.578   0.208  10.551 -0.3024 -0.2354  1.1765
  607MOL0     H81923   6.816   0.103  10.515  0.9893  0.1195 -0.5718
  607MOL0     H81924   6.889   0.220  10.607  0.4477  0.5858 -1.0422
  607MOL0     H81925   6.321   1.139  10.704  0.2518  0.9721 -2.8360
  607MOL0     H81926   6.068   1.178  10.633 -1.0274 -0.3616 -0.7837
  607MOL0     H81927   5.608   1.166  10.693  1.0639  1.3234 -0.1152
  607MOL0     H81928   5.395   1.215  10.584 -0.8290 -0.3497 -0.8796
  607MOL0     H81929   3.928   1.622  10.623  1.2525  1.4111 -0.8605
  607MOL0     H81930   3.800   1.434  10.651  0.6042  1.1707  0.4743
  607MOL0     H81931   3.804   0.963  10.925 -0.1697 -1.8886  0.5018
  607MOL0     H81932   3.677   0.764  10.940  1.1348 -0.1663  0.3881
  607MOL0     H81933   3.497   0.573  10.555 -2.2840  1.3182 -1.0414
  607MOL0     H81934   3.380   0.680  10.624 -1.4930 -0.6736  1.5983
  607MOL0     H81935   3.318   0.477  10.777 -0.6850  0.3073 -0.9263
  607MOL0     H81936   3.440   0.376  10.689 -0.7836 -1.2955 -2.3242
  607MOL0     H81937   3.343   0.409  10.479  1.5243  0.8768  0.7624
  607MOL0     H81938   3.215   0.510  10.539  0.3800  0.3566 -0.4873
  607MOL0     H81939   3.233   0.221  10.637 -0.5868 -0.9439 -0.1107
  607MOL0     H81940   3.112   0.340  10.665  1.4639  1.0429  1.7568
  607MOL0     H81941   2.980   0.283  10.276 -0.3064 -0.6469  0.8177
  607MOL0     H81942   3.555   0.791  10.524 -0.0951 -2.3398  1.2059
  607MOL0     H81943   3.581   0.980  10.418 -0.4907 -0.7041  0.4675
  607MOL0     H81944   3.676   1.115  10.481  0.1901 -0.5549  0.8487
  607MOL0     H81945   3.760   0.979  10.408 -0.1612  1.4450 -1.2608
  608MOL0     O81946   9.595   2.879   2.510  0.0418  0.4965  0.2318
  608MOL0     C81947   9.538   2.803   2.589 -0.1098 -0.4892 -0.3247
  608MOL0     O81948   9.468   2.855   2.698  0.3186  0.4260 -0.3963
  608MOL0     C81949   9.435   2.993   2.697  0.6723  0.5288  0.5754
  608MOL0     C81950   9.418   3.071   2.813  0.1487  0.0625 -0.2209
  608MOL0     C81951   9.379   3.206   2.810  0.5980  0.6160 -0.5835
  608MOL0     C81952   9.349   3.273   2.695  0.0410  0.0009  0.1110
  608MOL0     O81953   9.311   3.396   2.698  0.2047  0.0924 -0.7522
  608MOL0     C81954   9.193   3.445   2.626  0.5114 -0.2251  0.1580
  608MOL0     C81955   9.154   3.586   2.684 -0.6959 -0.1771  0.7645
  608MOL0     C81956   9.059   3.586   2.809 -1.1088 -0.4457 -0.4309
  608MOL0     C81957   8.918   3.541   2.767 -0.2248 -0.9222  0.2867
  608MOL0     C81958   8.817   3.598   2.865  0.2059 -0.3996 -0.0283
  608MOL0     C81959   8.680   3.527   2.850  0.1145 -0.0655  0.7944
  608MOL0     C81960   8.566   3.601   2.928 -0.4456 -0.3218  0.0925
  608MOL0     C81961   8.565   3.567   3.076  0.9210 -0.2464 -0.4589
  608MOL0     N81962   8.672   3.609   3.160  0.0243  0.3094 -0.1326
  608MOL0     C81963   8.736   3.535   3.251  0.6293 -0.3003 -0.6487
  608MOL0     C81964   8.821   3.623   3.315 -0.1591 -0.0028  0.3365
  608MOL0     C81965   8.927   3.579   3.405 -0.2002 -0.2724 -0.2489
  608MOL0     C81966   9.020   3.475   3.345 -0.1589 -0.3555 -0.0535
  608MOL0     C81967   9.099   3.520   3.222 -0.0674 -0.5544  0.6776
  608MOL0     C81968   9.200   3.631   3.257  0.5677 -0.2781 -0.0151
  608MOL0     O81969   9.267   3.676   3.136 -0.2362  0.0034 -0.3790
  608MOL0     C81970   9.366   3.599   3.083 -0.0340  0.8094 -0.3204
  608MOL0     C81971   9.434   3.643   2.969 -0.5306  0.2335  0.4292
  608MOL0     C81972   9.535   3.569   2.909  0.2062 -0.2930 -0.1704
  608MOL0     C81973   9.579   3.446   2.968  0.4037 -0.2311 -0.0984
  608MOL0     C81974   9.695   3.373   2.915  0.1738  0.1766 -0.0269
  608MOL0     O81975   9.717   3.246   2.976  0.0018 -0.2220 -0.7327
  608MOL0     C81976   9.813   3.158   2.942  0.4140  0.4269  0.6091
  608MOL0     C81977   9.903   3.162   2.830 -0.0784  0.3188 -0.1190
  608MOL0     C81978  10.010   3.070   2.819 -0.1630 -0.1678  0.2879
  608MOL0     C81979  10.033   2.982   2.925  0.8315  1.1375  0.7371
  608MOL0     O81980  10.131   2.895   2.927  0.3904  0.6659  0.0974
  608MOL0     C81981  10.247   2.905   2.845 -0.2953  0.0548 -0.4426
  608MOL0     C81982  10.344   2.789   2.878  0.5715 -0.0949 -0.2147
  608MOL0     C81983  10.449   2.829   2.987  0.4084  0.0698  0.1152
  608MOL0     C81984  10.529   2.705   3.017  0.2196  0.2908 -0.6563
  608MOL0     C81985  10.643   2.730   3.121  0.6621 -0.6837 -0.2490
  608MOL0     C81986  10.725   2.605   3.146  0.6315 -0.0207 -0.7235
  608MOL0     C81987  10.843   2.643   3.237  0.4834 -0.2494 -0.6225
  608MOL0     C81988  10.913   2.523   3.287  0.1422  0.0436  0.2661
  608MOL0    Cl81989  10.966   2.406   3.163  0.2673 -0.0892 -0.0918
  608MOL0     C81990   9.937   2.962   3.025  0.5330 -0.7308 -0.2408
  608MOL0     C81991   9.826   3.046   3.031 -0.2635 -0.1415 -0.2769
  608MOL0     O81992   9.761   3.419   2.825  0.5804  0.2296  0.6506
  608MOL0     C81993   9.504   3.402   3.084 -0.2935  0.0135 -0.1287
  608MOL0     C81994   9.399   3.479   3.135 -0.2323 -0.5459 -0.1129
  608MOL0     N81995   8.807   3.740   3.255 -0.1904  0.4383 -0.2318
  608MOL0     N81996   8.731   3.729   3.155  0.0777  0.1867  0.2874
  608MOL0     C81997   9.353   3.198   2.577 -0.8349 -0.3890  0.2098
  608MOL0     C81998   9.396   3.060   2.573  0.7807 -0.0727  0.7262
  608MOL0     C81999   9.548   2.657   2.574 -0.1587 -0.0774 -0.3512
  608MOL0     C82000   9.557   2.586   2.694  0.3667  0.3504  0.4943
  608MOL0     C82001   9.576   2.448   2.689 -1.2840  0.6661 -0.2267
  608MOL0     C82002   9.595   2.375   2.571 -0.5524 -0.7308 -0.5798
  608MOL0     O82003   9.634   2.245   2.570 -0.5437 -0.3813 -0.5080
  608MOL0     C82004   9.567   2.163   2.662 -0.3293  0.8441 -0.2113
  608MOL0     C82005   9.665   2.063   2.727  0.5140 -0.6921  0.0867
  608MOL0     C82006   9.738   2.143   2.835 -0.7740  0.2252  0.4257
  608MOL0     C82007   9.821   2.043   2.928  0.2628  0.3430  0.2958
  608MOL0     C82008   9.741   1.958   3.012  0.4069  0.4035  0.3136
  608MOL0     C82009   9.667   1.879   3.077  0.3525 -0.2286  0.7872
  608MOL0     C82010   9.588   2.449   2.456  0.1354  0.7830 -0.5697
  608MOL0     C82011   9.558   2.581   2.452  0.0759  0.6019  0.1558
  608MOL0     C82012   9.539   2.650   2.321  0.6494 -0.0902  0.6373
  608MOL0     H82013   9.442   3.013   2.901 -0.4276 -1.2004 -0.8673
  608MOL0     H82014   9.373   3.269   2.899  0.5763 -0.3812  0.1376
  608MOL0     H82015   9.209   3.458   2.519 -1.6689  0.2392 -0.1568
  608MOL0     H82016   9.112   3.371   2.626  1.2728 -1.1835 -2.9926
  608MOL0     H82017   9.105   3.638   2.602 -1.6978 -0.9882  0.8313
  608MOL0     H82018   9.244   3.640   2.716  0.3690 -0.3098 -1.8199
  608MOL0     H82019   9.054   3.687   2.849 -0.4214 -0.5418 -0.0857
  608MOL0     H82020   9.100   3.518   2.885  2.1155  2.8025  1.0400
  608MOL0     H82021   8.903   3.577   2.664  0.3341  1.2202  0.9094
  608MOL0     H82022   8.920   3.432   2.760  1.9320 -0.9142 -0.1479
  608MOL0     H82023   8.856   3.577   2.965 -1.4274  0.0093  0.7164
  608MOL0     H82024   8.810   3.707   2.858 -1.4642 -0.3896  1.2982
  608MOL0     H82025   8.648   3.535   2.745 -3.4348  1.0609  1.8017
  608MOL0     H82026   8.689   3.419   2.859  1.1179 -0.1529 -0.7465
  608MOL0     H82027   8.468   3.569   2.891  0.2967 -1.7949 -0.6704
  608MOL0     H82028   8.570   3.710   2.919  2.0609 -0.3021  0.5697
  608MOL0     H82029   8.481   3.628   3.111  2.0827  2.3759 -1.9286
  608MOL0     H82030   8.553   3.459   3.083  0.0145 -0.1587 -0.5117
  608MOL0     H82031   8.719   3.429   3.269 -0.5258 -0.2995 -1.6202
  608MOL0     H82032   8.979   3.665   3.447 -3.2407  0.7623  1.7406
  608MOL0     H82033   8.879   3.536   3.494 -0.4599 -0.3996 -0.4479
  608MOL0     H82034   9.087   3.454   3.429 -2.8256 -0.1984  2.2381
  608MOL0     H82035   8.966   3.381   3.335  0.0203 -1.1983  4.6193
  608MOL0     H82036   9.034   3.566   3.148  1.5269  2.1688  0.8105
  608MOL0     H82037   9.150   3.432   3.182 -1.0635 -2.1357  2.6389
  608MOL0     H82038   9.270   3.586   3.329 -1.2265 -2.8308  0.2529
  608MOL0     H82039   9.150   3.716   3.304 -1.9142 -0.5999 -1.9091
  608MOL0     H82040   9.415   3.742   2.927  0.0629 -1.1348 -3.4909
  608MOL0     H82041   9.586   3.601   2.819  1.7788 -0.2886  0.6867
  608MOL0     H82042   9.890   3.233   2.749  2.4170 -1.4469 -2.2776
  608MOL0     H82043  10.081   3.087   2.739 -0.5787  1.2529  0.1846
  608MOL0     H82044  10.207   2.899   2.743 -1.8996 -1.9353  0.2317
  608MOL0     H82045  10.305   2.998   2.850  0.2711 -0.3404  0.3647
  608MOL0     H82046  10.286   2.705   2.916  0.0982 -0.8152 -2.3547
  608MOL0     H82047  10.402   2.790   2.785  1.5096  0.9120  0.3589
  608MOL0     H82048  10.515   2.907   2.948  2.1729 -2.5700 -2.6420
  608MOL0     H82049  10.408   2.864   3.082 -0.1266 -0.7546  0.1987
  608MOL0     H82050  10.567   2.655   2.927  0.5798 -2.4865  0.9075
  608MOL0     H82051  10.464   2.633   3.067 -0.1748  0.7557 -0.4876
  608MOL0     H82052  10.594   2.767   3.212 -2.8236  0.1015 -2.2768
  608MOL0     H82053  10.711   2.807   3.085 -0.7970  1.0549  0.5519
  608MOL0     H82054  10.664   2.524   3.187  0.6733 -0.3152 -1.2322
  608MOL0     H82055  10.761   2.576   3.047 -0.3473 -1.6118 -0.6456
  608MOL0     H82056  10.805   2.694   3.326  1.3357 -1.1059  0.2508
  608MOL0     H82057  10.916   2.706   3.187  0.2333  0.2069 -0.4225
  608MOL0     H82058  11.004   2.559   3.334  0.0701 -1.8586  1.9967
  608MOL0     H82059  10.850   2.467   3.358 -0.2737 -0.8803 -0.7916
  608MOL0     H82060   9.950   2.877   3.090 -0.5810  0.7149  1.9962
  608MOL0     H82061   9.765   3.030   3.120 -1.3840  0.2757 -0.9492
  608MOL0     H82062   9.526   3.299   3.111  2.0416  0.3100 -0.6984
  608MOL0     H82063   9.359   3.433   3.225 -1.4682  3.8949  1.8756
  608MOL0     H82064   9.319   3.241   2.484 -2.0698  0.5380  1.0569
  608MOL0     H82065   9.386   3.012   2.477  1.0456 -1.9463  1.5927
  608MOL0     H82066   9.536   2.642   2.785  0.4387  1.8857 -0.4051
  608MOL0     H82067   9.585   2.390   2.780  2.4044 -2.0450 -2.0407
  608MOL0     H82068   9.506   2.094   2.603  4.0483 -0.6318 -3.5027
  608MOL0     H82069   9.501   2.203   2.740  0.6002 -0.0098  1.0549
  608MOL0     H82070   9.734   2.029   2.649 -0.2156 -0.6456 -0.5993
  608MOL0     H82071   9.624   1.976   2.781  0.6949  0.8804  2.9386
  608MOL0     H82072   9.684   2.216   2.896  1.2603  2.0226  0.1832
  608MOL0     H82073   9.809   2.206   2.780 -0.7046 -0.9088 -0.8296
  608MOL0     H82074   9.889   1.977   2.874 -1.7628 -2.5504  1.0346
  608MOL0     H82075   9.885   2.101   2.995  0.4639 -0.4074  0.7722
  608MOL0     H82076   9.610   1.813   3.139  0.3287 -1.1429 -0.1788
  608MOL0     H82077   9.602   2.399   2.360  1.6213 -0.4502  0.2455
  608MOL0     H82078   9.606   2.735   2.302 -0.4157  0.2805 -1.9229
  608MOL0     H82079   9.557   2.590   2.231  1.9469 -1.0334  1.4868
  608MOL0     H82080   9.436   2.687   2.321  0.2257 -1.1834  2.0660
  609MOL0     O82081   8.490   9.762  11.238  0.1894  0.1767  0.1305
  609MOL0     C82082   8.421   9.863  11.196 -0.3166  0.6345 -0.1385
  609MOL0     O82083   8.461   9.992  11.186  0.1300 -0.3065  0.3580
  609MOL0     C82084   8.599  10.018  11.161  0.2189 -0.8281  0.2391
  609MOL0     C82085   8.646  10.136  11.221  0.1940  0.0488  0.4059
  609MOL0     C82086   8.769  10.188  11.191  0.8721  0.0693 -0.6824
  609MOL0     C82087   8.849  10.126  11.098 -0.3209 -0.6759  0.4535
  609MOL0     O82088   8.968  10.183  11.061 -0.2352 -0.0344 -0.3972
  609MOL0     C82089   9.039  10.212  11.181 -0.4304  0.3991 -1.0030
  609MOL0     C82090   9.187  10.226  11.146  0.3520 -0.7160  0.0635
  609MOL0     C82091   9.229  10.373  11.108 -0.0581  0.4321 -0.0647
  609MOL0     C82092   9.382  10.372  11.097 -1.1159  0.1474 -0.5856
  609MOL0     C82093   9.433  10.508  11.070 -0.2964 -0.1075 -0.2017
  609MOL0     C82094   9.589  10.508  11.088  0.3675  0.5656  0.2198
  609MOL0     C82095   9.654  10.655  11.095  0.4409  0.2071 -0.0989
  609MOL0     C82096   9.806  10.662  11.129  0.2306  0.0747  0.1000
  609MOL0     N82097   9.889  10.607  11.022 -0.2090  0.0056 -0.2298
  609MOL0     C82098   9.946  10.482  11.019 -0.5988  0.3574 -0.5144
  609MOL0     C82099  10.017  10.484  10.899  0.4138 -0.7849  0.2164
  609MOL0     C82100  10.096  10.368  10.851 -0.4406  0.3589  0.4682
  609MOL0     C82101  10.232  10.392  10.785 -0.1103  0.0473 -0.3375
  609MOL0     C82102  10.352  10.434  10.883  1.0497  0.0233  0.3863
  609MOL0     C82103  10.388  10.325  10.988 -0.4043 -0.4146  0.3883
  609MOL0     O82104  10.508  10.362  11.057  0.4074  0.6721  0.4901
  609MOL0     C82105  10.631  10.359  10.997 -0.6213 -0.0166 -0.8506
  609MOL0     C82106  10.738  10.387  11.076  1.1410  0.5594  0.3718
  609MOL0     C82107  10.864  10.368  11.032 -0.6447 -0.0727  0.6890
  609MOL0     C82108  10.891  10.333  10.897 -0.5492 -0.0725  0.5933
  609MOL0     C82109  11.027  10.323  10.843 -0.1142  0.1901 -0.9717
  609MOL0     O82110  11.038  10.318  10.705  0.4401  0.0453 -0.5900
  609MOL0     C82111  11.163  10.316  10.660  0.4613  0.0031  0.4623
  609MOL0     C82112  11.222  10.198  10.614  0.6394  0.4323 -0.0038
  609MOL0     C82113  11.358  10.185  10.581  0.5955  0.3260 -0.5685
  609MOL0     C82114  11.434  10.302  10.571 -0.5090 -0.3894 -0.2421
  609MOL0     O82115  11.572  10.311  10.548 -0.5572  0.0264 -0.3055
  609MOL0     C82116  11.637  10.188  10.556  0.5614  0.4280  0.9590
  609MOL0     C82117  11.786  10.196  10.575  0.3632  0.3368 -0.4897
  609MOL0     C82118  11.854  10.063  10.628 -1.0504  0.3716 -0.3098
  609MOL0     C82119  12.006  10.084  10.634  0.5440 -0.3598 -0.7345
  609MOL0     C82120  12.083   9.954  10.638 -0.3609 -0.1310 -0.0294
  609MOL0     C82121  12.231   9.996  10.663  0.0686 -0.3507  0.1016
  609MOL0     C82122  12.325   9.879  10.678 -0.4016 -0.1331 -0.2217
  609MOL0     C82123  12.462   9.955  10.695  0.7889 -0.3814 -0.8336
  609MOL0    Cl82124  12.585   9.841  10.765 -0.6191 -0.0880 -0.1084
  609MOL0     C82125  11.370  10.423  10.601 -1.1005 -0.1646 -0.3124
  609MOL0     C82126  11.235  10.427  10.644 -0.4821 -0.8907 -0.4949
  609MOL0     O82127  11.122  10.328  10.918  0.1651 -0.4482 -0.6042
  609MOL0     C82128  10.781  10.301  10.812 -0.5824  0.2483  0.5708
  609MOL0     C82129  10.648  10.309  10.865  0.1257  1.3491  0.1257
  609MOL0     N82130  10.008  10.612  10.842  1.1111 -0.1768  0.1303
  609MOL0     N82131   9.927  10.681  10.916  0.1573 -0.2787 -0.1537
  609MOL0     C82132   8.809  10.002  11.043 -1.2151 -0.4689 -0.1971
  609MOL0     C82133   8.686   9.951  11.067  0.1046  1.1418  0.0599
  609MOL0     C82134   8.281   9.847  11.168  1.0375 -0.4803  0.7943
  609MOL0     C82135   8.222   9.942  11.085  0.5500 -0.5462  0.4506
  609MOL0     C82136   8.084   9.937  11.055  0.6475 -0.1443  0.0174
  609MOL0     C82137   8.002   9.843  11.099  0.0447  0.8881 -0.5319
  609MOL0     O82138   7.866   9.845  11.058  0.2217  0.4367 -0.3219
  609MOL0     C82139   7.769   9.776  11.130  0.2978  0.1225  0.3682
  609MOL0     C82140   7.627   9.831  11.105 -0.5116  0.0228  1.1521
  609MOL0     C82141   7.616   9.959  11.181  0.0551  0.2081 -0.1821
  609MOL0     C82142   7.471   9.994  11.182  1.1914 -0.6704 -1.0793
  609MOL0     C82143   7.448  10.118  11.269 -0.3166 -0.0647 -0.6817
  609MOL0     C82144   7.413  10.217  11.338 -0.7913  0.0689  0.1582
  609MOL0     C82145   8.057   9.747  11.182  0.0085  0.0046 -0.6315
  609MOL0     C82146   8.194   9.740  11.216 -0.3827 -0.2247 -0.4688
  609MOL0     C82147   8.225   9.627  11.318 -0.3166  0.5693  0.7489
  609MOL0     H82148   8.576  10.189  11.285  0.5137 -1.6955  2.3218
  609MOL0     H82149   8.808  10.279  11.235  1.9420 -0.5845 -0.2320
  609MOL0     H82150   8.997  10.299  11.231 -1.0082 -0.9257  0.9260
  609MOL0     H82151   9.026  10.132  11.254  1.0236 -0.3076 -1.4804
  609MOL0     H82152   9.207  10.165  11.057  1.4561 -1.1207  0.5751
  609MOL0     H82153   9.251  10.205  11.232 -0.0306  1.4625  0.9490
  609MOL0     H82154   9.185  10.440  11.182 -3.2486 -0.5456 -0.9192
  609MOL0     H82155   9.198  10.400  11.006  2.2693 -0.1703 -1.0069
  609MOL0     H82156   9.427  10.344  11.193 -0.3518 -2.2461 -1.5617
  609MOL0     H82157   9.412  10.298  11.021 -1.7501 -1.0029  0.2528
  609MOL0     H82158   9.393  10.542  10.975 -0.9984  1.2602  0.5547
  609MOL0     H82159   9.386  10.569  11.148 -0.0365  1.0103 -0.8929
  609MOL0     H82160   9.610  10.458  11.182 -0.2157  0.6138  0.3811
  609MOL0     H82161   9.638  10.438  11.019 -0.4822  0.7965 -0.6535
  609MOL0     H82162   9.602  10.712  11.172 -0.9085 -2.8170  1.4331
  609MOL0     H82163   9.646  10.705  10.998  0.4656 -3.3243 -2.1110
  609MOL0     H82164   9.838  10.766  11.138 -0.0716  0.1515  0.2706
  609MOL0     H82165   9.830  10.602  11.218 -0.9150 -0.6897 -0.0893
  609MOL0     H82166   9.940  10.398  11.086 -1.1234  0.4205 -0.4774
  609MOL0     H82167  10.119  10.306  10.939 -2.3102 -1.8104 -0.4711
  609MOL0     H82168  10.027  10.316  10.785 -1.4883 -0.2096  1.9581
  609MOL0     H82169  10.267  10.303  10.733  1.5499 -0.2095  1.1290
  609MOL0     H82170  10.203  10.461  10.705 -2.4865 -0.4793 -0.0081
  609MOL0     H82171  10.332  10.528  10.935  0.7824  0.2776 -0.1638
  609MOL0     H82172  10.436  10.465  10.820 -2.2070  1.0518 -3.9077
  609MOL0     H82173  10.408  10.231  10.936 -0.9101 -1.0790  1.3648
  609MOL0     H82174  10.303  10.304  11.053 -1.3239 -2.5176 -1.3631
  609MOL0     H82175  10.711  10.401  11.180  0.6055 -5.4313  1.3599
  609MOL0     H82176  10.953  10.386  11.091  1.7938  0.4155 -2.8085
  609MOL0     H82177  11.164  10.106  10.609  0.6301  0.2863  2.0216
  609MOL0     H82178  11.397  10.087  10.555  0.7812 -0.1167  1.2544
  609MOL0     H82179  11.595  10.130  10.639  0.8714  0.8575  1.4182
  609MOL0     H82180  11.620  10.146  10.456  0.4092  1.1136  0.6896
  609MOL0     H82181  11.841  10.239  10.491  1.1758 -0.7768 -0.5553
  609MOL0     H82182  11.803  10.275  10.649 -3.5691  0.2917  0.6738
  609MOL0     H82183  11.815  10.038  10.727 -2.3988 -1.9019 -1.3344
  609MOL0     H82184  11.821   9.973  10.575 -1.8468 -1.7792  3.4407
  609MOL0     H82185  12.034  10.151  10.715  4.3755 -0.7466 -1.5520
  609MOL0     H82186  12.041  10.135  10.543 -1.9800  2.6167 -0.2057
  609MOL0     H82187  12.061   9.904  10.543 -1.0742  1.9827 -1.0440
  609MOL0     H82188  12.049   9.887  10.717  1.3224  1.8900  2.5385
  609MOL0     H82189  12.267  10.058  10.581 -1.3640  0.6691  0.2194
  609MOL0     H82190  12.228  10.052  10.757  0.1071  0.4192 -0.3535
  609MOL0     H82191  12.318   9.814  10.590 -1.7894 -2.3696  1.4225
  609MOL0     H82192  12.310   9.814  10.765 -1.3436 -2.9875 -2.3845
  609MOL0     H82193  12.487   9.999  10.598 -1.6109 -0.5550 -1.6108
  609MOL0     H82194  12.445  10.035  10.767 -0.0524 -0.9073 -0.4261
  609MOL0     H82195  11.440  10.505  10.602 -0.0272 -1.0602  0.0024
  609MOL0     H82196  11.194  10.524  10.673  2.7549  0.2964  0.5723
  609MOL0     H82197  10.792  10.276  10.707 -2.1023  2.5915 -0.2369
  609MOL0     H82198  10.571  10.300  10.790  1.7494  2.3062 -1.7506
  609MOL0     H82199   8.876   9.945  10.979  3.0339  1.2494  2.3154
  609MOL0     H82200   8.661   9.849  11.037  0.4813  0.6161  1.4564
  609MOL0     H82201   8.275  10.020  11.031  0.8634 -0.8892  0.2491
  609MOL0     H82202   8.041  10.020  11.000  0.5846  0.4497  0.9368
  609MOL0     H82203   7.779   9.762  11.238  0.8270 -1.5570  0.1403
  609MOL0     H82204   7.775   9.672  11.096 -0.1440  0.6055 -1.2605
  609MOL0     H82205   7.558   9.755  11.144 -0.6587 -0.7156 -0.4354
  609MOL0     H82206   7.613   9.837  10.996  0.8151  0.2312  0.9778
  609MOL0     H82207   7.677  10.032  11.127  0.1843 -1.0186 -1.7921
  609MOL0     H82208   7.644   9.947  11.286 -3.0848  3.0651  1.1994
  609MOL0     H82209   7.438  10.006  11.078 -2.0310 -2.3580 -0.3860
  609MOL0     H82210   7.412   9.920  11.237 -0.7509  2.0601  0.8031
  609MOL0     H82211   7.363  10.303  11.379 -3.2994 -1.0652 -0.3485
  609MOL0     H82212   7.996   9.675  11.235 -0.1667  0.6862  0.1226
  609MOL0     H82213   8.153   9.618  11.399  0.3149  0.7048  1.3354
  609MOL0     H82214   8.226   9.533  11.263  3.1359 -1.2072  3.4498
  609MOL0     H82215   8.321   9.641  11.369  0.9540  2.2036 -1.8973
  610MOL0     O82216   8.725   8.259   7.738 -0.7267  0.7231  0.3853
  610MOL0     C82217   8.767   8.184   7.830 -0.1144  0.2813 -0.3036
  610MOL0     O82218   8.893   8.193   7.882  0.0087  0.0366 -0.5760
  610MOL0     C82219   9.004   8.234   7.815  0.5086 -0.2674  0.4120
  610MOL0     C82220   9.059   8.168   7.705 -0.8194  0.3950 -0.1466
  610MOL0     C82221   9.185   8.211   7.640  0.2642  0.1014  0.0601
  610MOL0     C82222   9.256   8.315   7.692 -0.1116 -0.5223 -0.0195
  610MOL0     O82223   9.371   8.342   7.622  0.0040 -0.0818  0.1732
  610MOL0     C82224   9.430   8.468   7.641  0.6159  0.6582 -0.0073
  610MOL0     C82225   9.542   8.478   7.550  0.4995 -0.5034  0.8574
  610MOL0     C82226   9.660   8.394   7.583  0.3546  0.1925 -0.6043
  610MOL0     C82227   9.773   8.402   7.490  0.2624 -0.0790 -1.1393
  610MOL0     C82228   9.887   8.322   7.545 -0.1702  0.1749  0.1288
  610MOL0     C82229   9.988   8.313   7.428 -0.0083  0.4118  0.1338
  610MOL0     C82230  10.127   8.244   7.473  0.2068  0.5074  0.8557
  610MOL0     C82231  10.217   8.325   7.561  0.9986  0.0872  0.0053
  610MOL0     N82232  10.339   8.244   7.603  0.1611  0.6205 -0.4441
  610MOL0     C82233  10.451   8.215   7.534  0.2539  0.7911  0.6480
  610MOL0     C82234  10.536   8.172   7.630  0.2991  0.2799 -0.1641
  610MOL0     C82235  10.670   8.104   7.616 -0.1047  0.3515  0.2663
  610MOL0     C82236  10.661   7.956   7.641 -0.3725 -0.6425  1.4252
  610MOL0     C82237  10.795   7.899   7.651  0.3390  0.2633 -0.1385
  610MOL0     C82238  10.878   7.934   7.766  0.2739  0.1327  0.0771
  610MOL0     O82239  11.013   7.882   7.749 -0.4460  0.3173  0.3517
  610MOL0     C82240  11.109   7.954   7.681  1.1460  0.2399  0.0438
  610MOL0     C82241  11.233   7.892   7.660  0.7458 -0.9316  0.1306
  610MOL0     C82242  11.332   7.960   7.591 -0.1902  0.5632 -0.2429
  610MOL0     C82243  11.317   8.088   7.531 -1.0535 -0.3382 -0.7267
  610MOL0     C82244  11.417   8.138   7.430  0.4572 -0.4475  0.7885
  610MOL0     O82245  11.533   8.085   7.428 -0.3087  0.0502 -0.0899
  610MOL0     C82246  11.628   8.142   7.341  0.1039  0.4692 -0.2005
  610MOL0     C82247  11.622   8.113   7.206  0.2039  0.7199  0.3580
  610MOL0     C82248  11.723   8.169   7.126 -0.1996 -1.1582  0.6713
  610MOL0     C82249  11.827   8.235   7.173 -0.0490 -0.1973 -0.0666
  610MOL0     O82250  11.924   8.252   7.078  0.5194  0.3828  0.0220
  610MOL0     C82251  12.057   8.239   7.127 -0.2371 -0.1387  0.7916
  610MOL0     C82252  12.120   8.364   7.075 -1.0248 -0.3559  0.7200
  610MOL0     C82253  12.223   8.405   7.175 -0.8635 -0.1207 -0.4326
  610MOL0     C82254  12.312   8.523   7.117  0.0060 -0.1739 -0.6052
  610MOL0     C82255  12.408   8.608   7.207  0.2433  0.2294  0.5104
  610MOL0     C82256  12.513   8.512   7.273 -0.1246  0.0552  1.1495
  610MOL0     C82257  12.617   8.590   7.351 -0.4260 -0.1706 -0.3060
  610MOL0     C82258  12.696   8.496   7.430 -0.0397  0.1395  0.2738
  610MOL0    Cl82259  12.860   8.569   7.459  0.2740  0.3722 -0.3487
  610MOL0     C82260  11.830   8.267   7.312  0.0457  0.0680  0.4174
  610MOL0     C82261  11.725   8.228   7.389 -0.3885  0.0307 -0.0135
  610MOL0     O82262  11.377   8.232   7.366 -0.0687 -0.1794 -0.5377
  610MOL0     C82263  11.189   8.150   7.560  0.4274 -0.0430  0.0810
  610MOL0     C82264  11.090   8.078   7.629  0.1881 -0.4670 -0.4271
  610MOL0     N82265  10.473   8.167   7.749  0.5720  0.0149 -0.2177
  610MOL0     N82266  10.345   8.197   7.727 -0.4487 -0.4473 -0.1306
  610MOL0     C82267   9.197   8.386   7.804  0.7202  0.0633  0.4989
  610MOL0     C82268   9.081   8.334   7.870 -0.1577 -0.2639  0.6912
  610MOL0     C82269   8.682   8.062   7.866  0.0872 -0.0449  0.3148
  610MOL0     C82270   8.749   7.955   7.933  0.1759  0.0778  0.7888
  610MOL0     C82271   8.675   7.839   7.967 -0.3866  0.3263  0.0475
  610MOL0     C82272   8.544   7.827   7.924  0.5503  0.6166 -0.2671
  610MOL0     O82273   8.493   7.699   7.951  0.5787 -0.6750 -0.4957
  610MOL0     C82274   8.361   7.662   7.910  0.1080 -0.3101 -0.3484
  610MOL0     C82275   8.254   7.722   8.009 -0.2064 -0.0669 -0.0406
  610MOL0     C82276   8.114   7.675   7.964  0.2786  0.2223  0.9931
  610MOL0     C82277   8.035   7.794   7.897  1.2665  0.5916  0.3391
  610MOL0     C82278   8.096   7.865   7.785  0.7298 -0.5180  0.3062
  610MOL0     C82279   8.152   7.930   7.696 -0.4842  0.1244  0.9827
  610MOL0     C82280   8.477   7.933   7.871  0.0096 -0.8245  0.0750
  610MOL0     C82281   8.543   8.055   7.844 -0.5959 -0.0422  0.5135
  610MOL0     C82282   8.458   8.170   7.781 -0.1197  0.1118 -0.1984
  610MOL0     H82283   9.008   8.086   7.657 -1.2104  1.7339 -2.1349
  610MOL0     H82284   9.214   8.165   7.546  1.9927 -0.3264  0.7613
  610MOL0     H82285   9.351   8.541   7.622  1.5315  1.4415 -0.9329
  610MOL0     H82286   9.455   8.480   7.747 -2.6472 -1.7576  1.1898
  610MOL0     H82287   9.582   8.580   7.548  1.7879 -0.9968  0.0188
  610MOL0     H82288   9.510   8.459   7.448 -0.2779 -1.9701  1.3427
  610MOL0     H82289   9.633   8.289   7.595 -0.5794  0.6343  1.7410
  610MOL0     H82290   9.685   8.436   7.681 -0.9600  0.2840 -0.2946
  610MOL0     H82291   9.748   8.364   7.390  1.2051 -2.7415 -0.4379
  610MOL0     H82292   9.817   8.501   7.474  3.4536 -1.6779 -3.7926
  610MOL0     H82293   9.921   8.378   7.632 -2.0106  0.4748  0.7152
  610MOL0     H82294   9.850   8.220   7.559  4.1711 -2.0460 -2.5930
  610MOL0     H82295   9.953   8.249   7.346  0.0338 -0.1995  0.5881
  610MOL0     H82296   9.999   8.412   7.384 -1.1184  0.8400  0.7883
  610MOL0     H82297  10.180   8.215   7.382 -2.1591 -2.5199  0.2608
  610MOL0     H82298  10.107   8.151   7.527 -0.1592 -1.2087 -2.0336
  610MOL0     H82299  10.242   8.412   7.500 -1.0470  0.3565 -0.5160
  610MOL0     H82300  10.162   8.359   7.649  3.7043  0.3578  1.6914
  610MOL0     H82301  10.469   8.237   7.429  3.5224 -1.2280  0.6167
  610MOL0     H82302  10.714   8.128   7.518 -1.2779  0.1377 -0.3284
  610MOL0     H82303  10.741   8.150   7.685  1.5555  0.7335 -1.5877
  610MOL0     H82304  10.606   7.932   7.733  0.3999 -2.1760  1.5390
  610MOL0     H82305  10.604   7.921   7.555  1.8339 -0.9329  0.0009
  610MOL0     H82306  10.841   7.933   7.558 -0.6154  2.8511  0.2663
  610MOL0     H82307  10.768   7.793   7.646 -0.4464  0.5043 -1.6612
  610MOL0     H82308  10.841   7.894   7.861  0.0123  0.1995  0.0039
  610MOL0     H82309  10.880   8.043   7.768 -2.0358  0.6271 -5.4673
  610MOL0     H82310  11.273   7.799   7.698  2.6224  0.4747  1.8220
  610MOL0     H82311  11.424   7.902   7.582 -1.3459 -2.0365  2.7996
  610MOL0     H82312  11.552   8.043   7.160  3.5169 -0.8084 -2.9313
  610MOL0     H82313  11.724   8.147   7.020 -0.3184 -1.1248  0.6624
  610MOL0     H82314  12.060   8.228   7.236  1.6143  2.9028  1.1569
  610MOL0     H82315  12.097   8.152   7.075 -3.8807 -0.3856 -2.0136
  610MOL0     H82316  12.167   8.340   6.979 -1.2801 -0.5551  0.6450
  610MOL0     H82317  12.047   8.444   7.058 -1.0641 -0.4373  0.4946
  610MOL0     H82318  12.173   8.425   7.270  0.4674 -1.4668  0.6046
  610MOL0     H82319  12.285   8.315   7.181  0.7528  0.9817 -0.0788
  610MOL0     H82320  12.249   8.594   7.062 -1.0657  1.1889  2.2043
  610MOL0     H82321  12.375   8.471   7.044 -1.3862  0.1086 -2.0647
  610MOL0     H82322  12.342   8.654   7.281 -2.1863 -0.2238 -1.2887
  610MOL0     H82323  12.448   8.691   7.148  1.3416 -0.4434  0.2556
  610MOL0     H82324  12.472   8.430   7.333 -0.4220  0.6698  1.8052
  610MOL0     H82325  12.560   8.462   7.188  1.4118 -1.0758  2.5840
  610MOL0     H82326  12.559   8.658   7.414 -0.3180 -0.4569  0.1056
  610MOL0     H82327  12.679   8.650   7.283 -0.2437 -0.1243 -0.0977
  610MOL0     H82328  12.650   8.475   7.527 -1.7405  2.2549 -0.0221
  610MOL0     H82329  12.705   8.398   7.381 -0.9901  1.1061 -1.9364
  610MOL0     H82330  11.921   8.320   7.335 -1.8728  3.5277  0.8252
  610MOL0     H82331  11.720   8.242   7.496  0.9056 -0.6551  0.1565
  610MOL0     H82332  11.165   8.243   7.509 -3.4232 -1.0049 -0.1477
  610MOL0     H82333  11.001   8.140   7.642  2.0361  2.3222 -0.1718
  610MOL0     H82334   9.241   8.474   7.849 -1.9650  0.0605  3.4989
  610MOL0     H82335   9.040   8.388   7.955 -2.2594 -0.7552  0.0579
  610MOL0     H82336   8.854   7.953   7.962 -0.0654 -1.0641  1.6831
  610MOL0     H82337   8.728   7.753   8.006 -1.1858 -0.9321 -1.5485
  610MOL0     H82338   8.345   7.554   7.906 -0.6242 -0.1686 -2.9314
  610MOL0     H82339   8.351   7.703   7.809  2.2573  2.8824  0.5799
  610MOL0     H82340   8.256   7.831   8.016 -0.1785 -0.0893  0.3122
  610MOL0     H82341   8.290   7.691   8.107 -0.3287 -3.0538 -0.8230
  610MOL0     H82342   8.055   7.628   8.043  0.7781 -4.2249 -0.9634
  610MOL0     H82343   8.116   7.598   7.886 -0.2321  0.4679  0.7296
  610MOL0     H82344   7.947   7.743   7.856  2.6780 -0.8649 -1.0044
  610MOL0     H82345   7.986   7.866   7.964 -1.1840 -1.2078  0.6281
  610MOL0     H82346   8.199   7.998   7.628  2.2859 -3.9458 -1.6273
  610MOL0     H82347   8.375   7.933   7.833  0.1227  4.9296 -1.1142
  610MOL0     H82348   8.472   8.260   7.842 -2.7244  0.8790 -0.6035
  610MOL0     H82349   8.490   8.193   7.679 -1.1931 -0.6406 -0.7182
  610MOL0     H82350   8.352   8.148   7.769 -0.6109  2.4424 -0.6624
  611MOL0     O82351   3.142   4.247   9.257  0.4032  0.3910 -0.1659
  611MOL0     C82352   3.066   4.338   9.273 -0.2731 -0.0940  0.6014
  611MOL0     O82353   3.102   4.468   9.256  0.3950  0.5238 -0.3075
  611MOL0     C82354   3.193   4.508   9.161 -0.5027 -0.2604 -0.0496
  611MOL0     C82355   3.154   4.606   9.063  0.0660 -0.4605  0.0726
  611MOL0     C82356   3.236   4.641   8.950  0.0894  0.2794 -0.3262
  611MOL0     C82357   3.358   4.564   8.942 -0.1720  0.4850  0.0158
  611MOL0     O82358   3.457   4.576   8.844  0.4201  0.1440  0.1104
  611MOL0     C82359   3.395   4.593   8.709  0.7873  0.0423 -0.4607
  611MOL0     C82360   3.456   4.719   8.642 -0.0659 -0.2782  0.3933
  611MOL0     C82361   3.368   4.839   8.629 -0.1840 -0.7488 -0.1164
  611MOL0     C82362   3.429   4.946   8.543  0.0783 -0.5529 -0.0201
  611MOL0     C82363   3.341   5.065   8.520 -0.1457 -0.0974  0.0051
  611MOL0     C82364   3.408   5.150   8.415  0.3841 -0.0525 -0.0885
  611MOL0     C82365   3.399   5.092   8.267 -0.6020  0.0350 -0.6442
  611MOL0     C82366   3.490   5.165   8.166 -0.2821 -1.0794  0.4967
  611MOL0     N82367   3.631   5.142   8.184 -1.0400  0.2275 -0.1737
  611MOL0     C82368   3.685   5.025   8.224  0.2335  0.3566 -0.4035
  611MOL0     C82369   3.815   5.050   8.255 -0.9348  0.6210 -0.3478
  611MOL0     C82370   3.922   4.962   8.318 -0.2801  0.1006 -0.3793
  611MOL0     C82371   4.053   4.982   8.246 -0.0719 -0.8788 -0.5142
  611MOL0     C82372   4.168   4.908   8.328  0.7056 -0.0053 -0.8690
  611MOL0     C82373   4.302   4.909   8.263 -0.2060 -0.9187 -0.1698
  611MOL0     O82374   4.354   5.040   8.281 -0.3607  0.2957  0.1046
  611MOL0     C82375   4.479   5.083   8.241  0.0302  0.4059  0.2623
  611MOL0     C82376   4.554   5.037   8.129 -0.3834 -0.1514 -0.5669
  611MOL0     C82377   4.680   5.093   8.099  0.6929  0.0188 -0.1164
  611MOL0     C82378   4.735   5.190   8.183  0.1676 -0.0329  0.1846
  611MOL0     C82379   4.866   5.252   8.141  0.6191  0.0686  0.0971
  611MOL0     O82380   4.906   5.230   8.011 -0.6921 -1.1427  0.3831
  611MOL0     C82381   5.033   5.283   7.982  0.2776  0.1350 -1.0511
  611MOL0     C82382   5.038   5.386   7.900  0.2028 -0.0146 -0.1643
  611MOL0     C82383   5.155   5.444   7.847  0.1326  0.4157  0.0038
  611MOL0     C82384   5.274   5.385   7.894 -0.9383 -0.6397  1.8276
  611MOL0     O82385   5.388   5.439   7.838 -0.4819  0.1307  0.2053
  611MOL0     C82386   5.511   5.430   7.915 -0.4523 -0.0122  0.4339
  611MOL0     C82387   5.637   5.492   7.854  0.2095  0.9947 -0.3324
  611MOL0     C82388   5.761   5.452   7.943 -0.3358 -0.4603 -0.0718
  611MOL0     C82389   5.891   5.495   7.871 -0.3243 -0.0853 -1.1272
  611MOL0     C82390   6.012   5.451   7.942 -0.5378 -0.3923  1.3030
  611MOL0     C82391   6.133   5.486   7.861 -0.5295 -0.2708  0.4535
  611MOL0     C82392   6.263   5.448   7.935  0.1930  0.3057 -0.6444
  611MOL0     C82393   6.389   5.490   7.858 -0.1404  0.3910  0.0679
  611MOL0    Cl82394   6.407   5.667   7.848  0.1097 -0.2283 -0.1731
  611MOL0     C82395   5.277   5.275   7.980  1.0393  0.8085  0.4318
  611MOL0     C82396   5.153   5.221   8.028  0.5848  0.0341 -0.0307
  611MOL0     O82397   4.916   5.325   8.223 -0.1818 -0.7455  0.6429
  611MOL0     C82398   4.669   5.246   8.289 -0.0982  0.0037 -0.1438
  611MOL0     C82399   4.536   5.189   8.311 -0.4335  0.1357 -0.5000
  611MOL0     N82400   3.827   5.190   8.230  0.7847  0.4563 -1.2872
  611MOL0     N82401   3.721   5.238   8.178 -0.5548 -0.3240 -0.2846
  611MOL0     C82402   3.397   4.464   9.034  0.6170 -0.7626  0.0845
  611MOL0     C82403   3.317   4.443   9.143 -0.1595  0.4962  0.2973
  611MOL0     C82404   2.922   4.313   9.326  0.4059  1.4338 -0.8646
  611MOL0     C82405   2.836   4.420   9.331  0.9173  0.3646 -0.6338
  611MOL0     C82406   2.708   4.419   9.383 -0.7743  0.6850  0.1719
  611MOL0     C82407   2.658   4.303   9.450  0.3304 -0.5630  1.3022
  611MOL0     O82408   2.537   4.282   9.517  0.4580 -0.0827 -0.5737
  611MOL0     C82409   2.472   4.408   9.540  0.6450  0.8487  0.2395
  611MOL0     C82410   2.359   4.383   9.640  0.0821  0.7660  0.0858
  611MOL0     C82411   2.420   4.363   9.779  0.3705 -0.5261 -1.0256
  611MOL0     C82412   2.325   4.343   9.900  0.5193 -0.6876 -0.4967
  611MOL0     C82413   2.397   4.338  10.033  0.6638 -0.4807 -0.5241
  611MOL0     C82414   2.477   4.335  10.122 -0.3190 -0.1334 -0.1440
  611MOL0     C82415   2.744   4.188   9.441  0.0279 -0.6529  0.5717
  611MOL0     C82416   2.875   4.193   9.385 -0.5059 -0.4951  0.1531
  611MOL0     C82417   2.955   4.064   9.397  0.3861 -0.4559 -0.7528
  611MOL0     H82418   3.051   4.638   9.078  0.4964  0.5452  1.0378
  611MOL0     H82419   3.215   4.720   8.878  1.2495 -0.2837 -1.3114
  611MOL0     H82420   3.418   4.511   8.640 -0.2999 -2.4925  1.9793
  611MOL0     H82421   3.287   4.604   8.711  1.0653  5.1735  0.2711
  611MOL0     H82422   3.487   4.692   8.541 -2.2936  0.2475 -0.4895
  611MOL0     H82423   3.539   4.753   8.705 -0.7726 -2.2243  2.4858
  611MOL0     H82424   3.336   4.872   8.728  0.8103 -1.3612  0.4259
  611MOL0     H82425   3.279   4.806   8.574 -0.3030 -0.8292  0.1222
  611MOL0     H82426   3.519   4.980   8.594  0.7051 -0.1754 -1.3383
  611MOL0     H82427   3.453   4.900   8.447  1.3835  1.4354 -0.7200
  611MOL0     H82428   3.243   5.032   8.485  0.1421 -1.2479  0.2692
  611MOL0     H82429   3.335   5.113   8.619 -0.6382  0.4590 -0.2894
  611MOL0     H82430   3.373   5.253   8.416  0.0600 -0.1522  1.1808
  611MOL0     H82431   3.515   5.157   8.437  0.8852 -4.3769 -0.2565
  611MOL0     H82432   3.296   5.106   8.232 -1.5356 -2.3691  0.8680
  611MOL0     H82433   3.418   4.984   8.272  1.6739  0.4345  2.6179
  611MOL0     H82434   3.471   5.130   8.064 -1.8389 -3.4605  1.5025
  611MOL0     H82435   3.466   5.271   8.153  1.5112 -0.7647 -0.5848
  611MOL0     H82436   3.641   4.926   8.240  2.5075 -0.6042  0.2921
  611MOL0     H82437   3.931   4.972   8.426  0.5900 -0.1610 -0.4190
  611MOL0     H82438   3.897   4.858   8.294 -0.8208 -0.3197  1.7698
  611MOL0     H82439   4.037   4.945   8.144 -1.3583  0.0820 -0.6875
  611MOL0     H82440   4.075   5.089   8.240  0.1029 -0.8333  0.7553
  611MOL0     H82441   4.141   4.802   8.326  2.2860 -0.4818  0.4060
  611MOL0     H82442   4.171   4.952   8.428  1.4815  2.2219 -1.8052
  611MOL0     H82443   4.285   4.893   8.156  0.7565 -0.8973 -0.3363
  611MOL0     H82444   4.382   4.847   8.305  0.2810 -1.0772 -1.3145
  611MOL0     H82445   4.518   4.965   8.056 -2.2705  0.1367  0.0332
  611MOL0     H82446   4.729   5.063   8.007  1.1824  0.1682  0.0931
  611MOL0     H82447   4.947   5.439   7.873 -0.1886  1.2010  3.1422
  611MOL0     H82448   5.158   5.529   7.780  1.8390  0.3443 -0.0555
  611MOL0     H82449   5.487   5.498   7.997  0.7568 -0.1348  0.9044
  611MOL0     H82450   5.538   5.325   7.925 -0.6174 -0.4865 -2.8140
  611MOL0     H82451   5.649   5.441   7.758 -0.7904  0.6503 -0.2818
  611MOL0     H82452   5.620   5.598   7.830  0.7986  1.7715  2.3601
  611MOL0     H82453   5.751   5.493   8.044  2.0934  0.3040 -0.0745
  611MOL0     H82454   5.758   5.343   7.953 -3.4310 -0.2395  4.3613
  611MOL0     H82455   5.895   5.604   7.859  0.4379 -0.0737 -0.8348
  611MOL0     H82456   5.892   5.454   7.770  1.1662 -2.1798 -0.3223
  611MOL0     H82457   6.003   5.343   7.957 -0.7367 -0.5263  0.2613
  611MOL0     H82458   6.023   5.507   8.035  3.0413 -1.4883  1.6978
  611MOL0     H82459   6.133   5.447   7.758 -0.5637 -1.4001  0.8649
  611MOL0     H82460   6.144   5.594   7.845 -0.9338 -0.4070 -0.8875
  611MOL0     H82461   6.261   5.339   7.936  0.0604  0.3102  0.4493
  611MOL0     H82462   6.260   5.492   8.035 -1.6675  0.7072 -0.8526
  611MOL0     H82463   6.474   5.446   7.910 -0.1658  0.1009 -0.1353
  611MOL0     H82464   6.380   5.445   7.758  1.0699  1.1099 -0.3946
  611MOL0     H82465   5.366   5.225   8.017 -0.6056 -0.1280  3.3930
  611MOL0     H82466   5.164   5.139   8.098  0.6596 -0.5757 -0.7376
  611MOL0     H82467   4.710   5.323   8.353  1.9715  0.7928 -2.2789
  611MOL0     H82468   4.477   5.225   8.394 -0.3592 -1.5889  0.3610
  611MOL0     H82469   3.488   4.407   9.017  1.3446 -0.1218  1.6666
  611MOL0     H82470   3.348   4.373   9.221 -1.4202 -2.0460 -1.3449
  611MOL0     H82471   2.860   4.516   9.287 -0.1243  1.6644  1.5031
  611MOL0     H82472   2.649   4.510   9.383 -0.7460  0.7806  2.7361
  611MOL0     H82473   2.424   4.438   9.446  0.4875 -0.9238 -0.2767
  611MOL0     H82474   2.539   4.492   9.561 -0.5976  1.9563 -0.0428
  611MOL0     H82475   2.310   4.289   9.613  1.6753 -0.5660  1.6076
  611MOL0     H82476   2.294   4.471   9.639 -0.3868  0.4475 -2.1782
  611MOL0     H82477   2.472   4.455   9.809 -1.5112 -0.1981  1.6340
  611MOL0     H82478   2.499   4.289   9.785 -1.2736 -2.2688  1.8259
  611MOL0     H82479   2.244   4.417   9.895  0.2752 -0.9869 -0.9305
  611MOL0     H82480   2.272   4.248   9.890 -0.6853 -0.1459  0.5074
  611MOL0     H82481   2.539   4.335  10.209  1.5933  1.0744 -1.4352
  611MOL0     H82482   2.716   4.097   9.493  0.3900 -0.8984  0.3486
  611MOL0     H82483   3.004   4.036   9.304  3.2670  2.4125 -0.2847
  611MOL0     H82484   3.041   4.096   9.456 -0.6932 -0.4526  0.8988
  611MOL0     H82485   2.900   3.983   9.445  0.0696 -0.1388 -0.5700
  612MOL0     O82486   0.159   6.435  10.486  0.7081 -0.3344  0.4007
  612MOL0     C82487   0.056   6.481  10.437 -0.1033 -0.9087 -0.6716
  612MOL0     O82488  -0.028   6.571  10.496  0.1859 -0.1163  0.3466
  612MOL0     C82489  -0.032   6.564  10.630  0.2562  0.4495 -0.3084
  612MOL0     C82490   0.069   6.616  10.708 -0.2197 -0.6474  0.3135
  612MOL0     C82491   0.073   6.601  10.845 -0.2727 -1.0000 -0.2450
  612MOL0     C82492  -0.036   6.549  10.913 -0.1732 -0.3656  0.1901
  612MOL0     O82493  -0.011   6.563  11.050  0.4998  0.1041 -0.0769
  612MOL0     C82494  -0.105   6.482  11.120 -1.1188  0.1615 -1.2672
  612MOL0     C82495  -0.078   6.502  11.273  0.1251  0.2603 -0.1337
  612MOL0     C82496   0.033   6.410  11.320  0.8470  0.9199 -0.6231
  612MOL0     C82497   0.056   6.432  11.467  0.1551  0.0452  0.2764
  612MOL0     C82498   0.175   6.341  11.492 -0.7831  0.5049  1.1835
  612MOL0     C82499   0.247   6.393  11.616 -0.0699  1.1062 -0.5013
  612MOL0     C82500   0.351   6.288  11.663 -0.1324  0.2173 -0.6743
  612MOL0     C82501   0.490   6.328  11.608 -0.0776  0.2810 -0.2085
  612MOL0     N82502   0.539   6.446  11.671  0.3260  0.8151 -0.2201
  612MOL0     C82503   0.656   6.512  11.643  0.5134 -1.0841 -0.7174
  612MOL0     C82504   0.672   6.595  11.755  0.4172 -0.1428  1.0647
  612MOL0     C82505   0.789   6.690  11.762  0.6494  0.1143 -0.4507
  612MOL0     C82506   0.919   6.620  11.787  0.6822  0.1487 -0.3259
  612MOL0     C82507   1.027   6.714  11.819 -0.6823  0.2966 -0.0071
  612MOL0     C82508   1.007   6.776  11.961  0.1855  0.1035  0.6144
  612MOL0     O82509   1.000   6.682  12.059  0.2737 -0.1138 -0.1824
  612MOL0     C82510   1.112   6.612  12.104 -0.1716  1.0258 -0.2180
  612MOL0     C82511   1.250   6.633  12.069 -0.6892  0.0298  0.5458
  612MOL0     C82512   1.352   6.546  12.120 -0.8494  0.7297 -0.1958
  612MOL0     C82513   1.319   6.436  12.197  0.4106  0.3469 -1.2377
  612MOL0     C82514   1.419   6.343  12.246 -0.6304  0.7307  0.8409
  612MOL0     O82515   1.553   6.384  12.219  0.3361 -0.7696 -0.2471
  612MOL0     C82516   1.655   6.293  12.237 -0.4425 -0.3174  0.3004
  612MOL0     C82517   1.713   6.280  12.361  0.1370  0.3073  0.1330
  612MOL0     C82518   1.820   6.181  12.363 -0.1931 -0.1805  0.0050
  612MOL0     C82519   1.866   6.104  12.258 -0.5967  0.2454 -0.1265
  612MOL0     O82520   1.971   6.017  12.263 -0.7688  0.5121 -0.1709
  612MOL0     C82521   2.012   5.966  12.381 -0.1082  0.2560 -0.4799
  612MOL0     C82522   2.109   5.847  12.364 -0.0548 -0.1274  0.0997
  612MOL0     C82523   2.042   5.719  12.310 -0.0010 -0.0000 -0.1839
  612MOL0     C82524   2.132   5.592  12.319  0.2322 -0.0678  0.8404
  612MOL0     C82525   2.071   5.463  12.267 -0.6262  0.1417 -0.1321
  612MOL0     C82526   2.139   5.328  12.277 -0.3126 -0.5321 -0.3771
  612MOL0     C82527   2.145   5.288  12.424  0.7456 -0.2967 -0.5636
  612MOL0     C82528   2.240   5.172  12.436  0.3100  0.8362  0.3055
  612MOL0    Cl82529   2.409   5.218  12.400 -0.6016 -0.0232 -0.0765
  612MOL0     C82530   1.791   6.119  12.142 -0.7207  0.5093 -0.2566
  612MOL0     C82531   1.704   6.218  12.125 -0.1210  0.1226 -1.1362
  612MOL0     O82532   1.385   6.235  12.290 -0.5813 -0.0023 -0.0239
  612MOL0     C82533   1.183   6.415  12.227  0.2343 -0.1111  0.4125
  612MOL0     C82534   1.084   6.506  12.188 -0.3769 -0.3051 -0.0151
  612MOL0     N82535   0.565   6.580  11.844 -0.8445  0.1534  0.2897
  612MOL0     N82536   0.493   6.497  11.789  0.8408  1.2440 -0.1811
  612MOL0     C82537  -0.142   6.490  10.835  0.4705 -0.3405  0.2392
  612MOL0     C82538  -0.131   6.484  10.693  1.0195 -0.4299 -1.1075
  612MOL0     C82539   0.037   6.432  10.292  0.5439  0.4360 -0.9016
  612MOL0     C82540  -0.055   6.509  10.211  0.0870 -0.3118 -0.3458
  612MOL0     C82541  -0.089   6.475  10.077 -0.1550  0.0910  0.7835
  612MOL0     C82542  -0.016   6.381  10.009  0.2710 -0.1590  0.3567
  612MOL0     O82543  -0.048   6.360   9.879 -0.2445 -0.0271  0.0046
  612MOL0     C82544   0.034   6.281   9.803  0.3477 -0.0399 -0.9811
  612MOL0     C82545   0.022   6.327   9.657  0.0451 -0.0427  0.1128
  612MOL0     C82546   0.147   6.303   9.567 -0.2026  0.1275 -0.3977
  612MOL0     C82547   0.258   6.406   9.601  0.7429  0.5046 -0.6810
  612MOL0     C82548   0.205   6.538   9.572 -0.4524 -0.2158  0.7830
  612MOL0     C82549   0.184   6.657   9.547 -0.5600 -0.4608 -0.2851
  612MOL0     C82550   0.069   6.300  10.091 -0.5449 -1.0526  0.2814
  612MOL0     C82551   0.087   6.319  10.230 -0.2240  0.0891 -0.6771
  612MOL0     C82552   0.168   6.222  10.303  0.4302  0.3640  0.2365
  612MOL0     H82553   0.159   6.654  10.661 -0.9892 -2.1414 -2.6005
  612MOL0     H82554   0.162   6.635  10.897  0.9696 -2.2319 -1.4905
  612MOL0     H82555  -0.204   6.524  11.101 -1.7407 -0.0546  1.1534
  612MOL0     H82556  -0.099   6.375  11.100 -0.4328  0.0234 -0.3693
  612MOL0     H82557  -0.167   6.479  11.332  0.0227 -0.5205 -0.5777
  612MOL0     H82558  -0.042   6.602  11.300  3.8572 -1.3615  1.5478
  612MOL0     H82559   0.123   6.437  11.263  1.0973 -0.0528 -0.7019
  612MOL0     H82560   0.010   6.304  11.306 -1.3170  1.2512  0.0505
  612MOL0     H82561   0.080   6.533  11.499  0.1924 -0.4025  1.7717
  612MOL0     H82562  -0.029   6.396  11.527 -1.4201 -1.7613 -2.7912
  612MOL0     H82563   0.156   6.233  11.491 -0.2493  0.3961 -0.3160
  612MOL0     H82564   0.248   6.339  11.410  0.6693 -0.3055  2.4428
  612MOL0     H82565   0.292   6.488  11.589  0.3345  0.5341 -1.9116
  612MOL0     H82566   0.175   6.411  11.697 -2.1910 -1.3761 -1.6982
  612MOL0     H82567   0.323   6.184  11.642  1.1606 -1.0235  2.9483
  612MOL0     H82568   0.354   6.282  11.772  1.0099 -2.2471 -0.7683
  612MOL0     H82569   0.558   6.244  11.626 -0.4830  0.1630  0.8956
  612MOL0     H82570   0.487   6.348  11.501 -2.8712 -1.3242 -0.5429
  612MOL0     H82571   0.726   6.502  11.560  3.2439 -0.6134  1.3735
  612MOL0     H82572   0.800   6.742  11.666 -1.0412  1.7270  0.1740
  612MOL0     H82573   0.763   6.763  11.839  3.0782  0.5193  0.0657
  612MOL0     H82574   0.910   6.542  11.864  0.5854 -0.2760 -0.7627
  612MOL0     H82575   0.941   6.564  11.696  2.1716  2.6747 -1.6422
  612MOL0     H82576   1.017   6.791  11.741 -0.9921  2.7624  2.3086
  612MOL0     H82577   1.129   6.675  11.812  0.4566  2.5175  2.5290
  612MOL0     H82578   0.913   6.832  11.964  0.1914  0.0747  2.8461
  612MOL0     H82579   1.095   6.840  11.956  1.2351 -1.3698 -2.6465
  612MOL0     H82580   1.273   6.716  12.003 -0.8772 -1.2419 -1.1844
  612MOL0     H82581   1.456   6.562  12.092 -0.4331 -1.3488  0.0232
  612MOL0     H82582   1.665   6.316  12.451 -0.5726  1.2224 -0.5994
  612MOL0     H82583   1.856   6.158  12.463 -2.8351 -3.5757  0.3579
  612MOL0     H82584   2.053   6.044  12.446 -2.0529  0.6068  0.4012
  612MOL0     H82585   1.928   5.930  12.441 -0.9674 -0.2255 -1.9175
  612MOL0     H82586   2.196   5.861  12.298  0.1496 -3.0302 -0.3875
  612MOL0     H82587   2.150   5.808  12.458  8.0909 -0.1950 -2.6703
  612MOL0     H82588   1.949   5.700  12.364 -1.0767 -2.2279 -2.5867
  612MOL0     H82589   2.017   5.726  12.204  3.1079  2.6224 -0.9165
  612MOL0     H82590   2.157   5.582  12.425  1.3813  1.2777  0.7253
  612MOL0     H82591   2.219   5.610  12.256 -0.2965  0.9750  0.3887
  612MOL0     H82592   2.056   5.483  12.161  1.4707  2.7694 -0.0560
  612MOL0     H82593   1.981   5.451  12.327  1.2435 -2.8265  2.4130
  612MOL0     H82594   2.078   5.255  12.222 -0.6077 -1.7797  1.5214
  612MOL0     H82595   2.236   5.324  12.227 -0.3528 -1.8733 -0.3883
  612MOL0     H82596   2.044   5.251  12.446  1.1072  0.0238  1.8880
  612MOL0     H82597   2.172   5.366  12.496 -0.0358  1.0503 -1.6886
  612MOL0     H82598   2.213   5.124  12.530 -1.4638 -1.5821 -1.2923
  612MOL0     H82599   2.211   5.105  12.354  1.8950  1.0405 -0.4692
  612MOL0     H82600   1.810   6.048  12.062  2.1778  2.1394 -1.1521
  612MOL0     H82601   1.642   6.254  12.044 -1.3194  3.1463  0.9178
  612MOL0     H82602   1.155   6.332  12.291  0.5192 -0.3393  0.2465
  612MOL0     H82603   0.982   6.492  12.222 -0.2894 -3.0190 -0.6225
  612MOL0     H82604  -0.222   6.434  10.883  1.7650 -1.9539  0.6069
  612MOL0     H82605  -0.208   6.433  10.636 -0.2943 -0.6130  0.7466
  612MOL0     H82606  -0.094   6.597  10.261  0.1634  0.5652 -1.7481
  612MOL0     H82607  -0.166   6.530  10.024 -1.0556 -0.7169  1.2295
  612MOL0     H82608  -0.000   6.179   9.825 -0.7279  0.8946  2.3110
  612MOL0     H82609   0.140   6.281   9.830 -0.2079 -2.2259  1.6267
  612MOL0     H82610  -0.009   6.432   9.655 -0.3002 -0.0825 -3.6470
  612MOL0     H82611  -0.062   6.272   9.612 -1.2687 -0.7733  3.1523
  612MOL0     H82612   0.122   6.313   9.462 -1.1687 -1.5337 -0.3521
  612MOL0     H82613   0.176   6.198   9.577  0.7917  0.5381  1.5492
  612MOL0     H82614   0.289   6.388   9.705  0.7342 -3.9490 -1.2549
  612MOL0     H82615   0.346   6.384   9.540  1.4208 -0.0016  0.4379
  612MOL0     H82616   0.161   6.761   9.530 -0.5830 -0.0005  2.1581
  612MOL0     H82617   0.105   6.211  10.041  0.5437 -2.6645  3.6923
  612MOL0     H82618   0.164   6.131  10.242 -0.2975  1.1282 -0.8939
  612MOL0     H82619   0.274   6.252  10.306  0.6376  0.2535 -2.8772
  612MOL0     H82620   0.120   6.214  10.400 -2.7903  1.8662 -1.0955
  613MOL0     O82621   5.530   7.464   9.097 -0.3655 -0.1401  0.0069
  613MOL0     C82622   5.443   7.535   9.036 -0.2936 -0.3007  0.8350
  613MOL0     O82623   5.470   7.628   8.947 -0.2741  0.1802  0.8223
  613MOL0     C82624   5.598   7.644   8.900  0.1152  0.6235 -0.1365
  613MOL0     C82625   5.655   7.778   8.911  0.1326  0.0504 -0.3482
  613MOL0     C82626   5.781   7.803   8.885 -0.2154  0.3765  0.3037
  613MOL0     C82627   5.869   7.707   8.825  0.6854  0.5939 -0.7102
  613MOL0     O82628   5.999   7.731   8.789  0.3573 -0.5362 -0.5816
  613MOL0     C82629   6.075   7.842   8.844  0.0349 -0.2412 -0.1055
  613MOL0     C82630   6.224   7.812   8.800  0.6700 -0.9738 -0.6593
  613MOL0     C82631   6.285   7.692   8.867  0.2480  0.0363  0.0823
  613MOL0     C82632   6.394   7.623   8.777  1.0814  0.3744 -1.3497
  613MOL0     C82633   6.529   7.691   8.784 -0.0766  0.1021 -0.4054
  613MOL0     C82634   6.647   7.615   8.726 -0.8362  0.2515  1.6066
  613MOL0     C82635   6.782   7.685   8.728  1.0376  0.0817  0.2025
  613MOL0     C82636   6.816   7.707   8.877  0.4029 -0.0133  0.1805
  613MOL0     N82637   6.957   7.737   8.882  0.0426  0.0070  0.5958
  613MOL0     C82638   7.029   7.848   8.845  1.5468 -0.0895 -0.8551
  613MOL0     C82639   7.162   7.820   8.880 -0.5040 -0.9185  0.8698
  613MOL0     C82640   7.286   7.913   8.852 -0.1620  0.2614  0.0361
  613MOL0     C82641   7.341   7.896   8.705  0.4514 -0.1496 -0.0488
  613MOL0     C82642   7.382   7.761   8.676 -0.2185 -0.1918  0.4329
  613MOL0     C82643   7.518   7.727   8.728  0.3545  0.2997 -0.2279
  613MOL0     O82644   7.541   7.701   8.869  0.3772 -0.2108 -0.2044
  613MOL0     C82645   7.665   7.667   8.913  0.2217 -0.5177 -0.8574
  613MOL0     C82646   7.789   7.681   8.847 -0.7180 -0.8750 -0.0012
  613MOL0     C82647   7.913   7.646   8.901 -0.6973  0.3313  0.3635
  613MOL0     C82648   7.913   7.597   9.036 -0.0400  0.0778 -0.5199
  613MOL0     C82649   8.040   7.546   9.099  0.3812  0.7281 -0.1096
  613MOL0     O82650   8.152   7.579   9.027 -0.6427  1.0619  0.3880
  613MOL0     C82651   8.274   7.544   9.089 -0.2874  0.4735  0.4369
  613MOL0     C82652   8.301   7.406   9.102  0.0064 -0.3096 -0.1332
  613MOL0     C82653   8.425   7.371   9.145  0.1902  1.0506 -0.2115
  613MOL0     C82654   8.521   7.452   9.193  0.1986 -1.0889 -0.2621
  613MOL0     O82655   8.651   7.429   9.241 -0.1552 -0.5687 -0.3245
  613MOL0     C82656   8.711   7.309   9.200  0.5558 -0.0986 -0.5168
  613MOL0     C82657   8.863   7.319   9.230  0.1694 -0.7660 -0.5333
  613MOL0     C82658   8.944   7.206   9.195 -0.6664  0.0844 -0.7101
  613MOL0     C82659   9.085   7.244   9.220 -0.4424 -0.2528 -0.1304
  613MOL0     C82660   9.181   7.136   9.212  0.8124  0.8508  0.6691
  613MOL0     C82661   9.323   7.180   9.253 -0.0888  0.0727 -0.1167
  613MOL0     C82662   9.391   7.288   9.167  0.2225  0.3676 -0.1439
  613MOL0     C82663   9.536   7.292   9.199  0.1570 -0.2846  0.3825
  613MOL0    Cl82664   9.620   7.136   9.156  0.3012 -0.5025  0.1819
  613MOL0     C82665   8.486   7.587   9.191 -0.4272  0.3718  0.8339
  613MOL0     C82666   8.367   7.636   9.146  0.3270  0.8528  0.2416
  613MOL0     O82667   8.036   7.483   9.200 -0.3509 -0.1341 -0.5574
  613MOL0     C82668   7.788   7.588   9.108  0.0124  0.3409  0.2379
  613MOL0     C82669   7.666   7.604   9.040 -0.4988 -0.0789  0.4405
  613MOL0     N82670   7.172   7.684   8.932 -0.4202 -1.2635 -0.0558
  613MOL0     N82671   7.046   7.638   8.928  0.2476 -0.5473  0.4531
  613MOL0     C82672   5.818   7.582   8.808 -0.1871 -0.4572  0.4388
  613MOL0     C82673   5.693   7.540   8.849  0.7501 -0.4949 -0.4212
  613MOL0     C82674   5.302   7.523   9.068 -0.3771 -0.3988 -0.9538
  613MOL0     C82675   5.234   7.643   9.054 -0.0760 -0.7262 -0.9300
  613MOL0     C82676   5.106   7.658   9.092  0.0626 -0.1833  0.0277
  613MOL0     C82677   5.033   7.541   9.140  0.1789 -0.6407 -0.1743
  613MOL0     O82678   4.896   7.568   9.147 -0.0886  0.1213 -0.4437
  613MOL0     C82679   4.820   7.450   9.151  0.0911  0.2286  0.1306
  613MOL0     C82680   4.679   7.496   9.177  0.0641 -0.0890  0.0525
  613MOL0     C82681   4.658   7.562   9.312  0.3872  0.6795 -1.1581
  613MOL0     C82682   4.508   7.568   9.352  0.6961  0.0853  0.2698
  613MOL0     C82683   4.483   7.666   9.456  0.7487 -0.0262  0.2708
  613MOL0     C82684   4.468   7.744   9.545 -0.0515 -0.4298 -0.0774
  613MOL0     C82685   5.101   7.421   9.149 -0.1240  0.2267 -0.3506
  613MOL0     C82686   5.236   7.408   9.114 -0.0685 -0.7816  0.1236
  613MOL0     C82687   5.299   7.268   9.118 -0.2239 -0.0535  0.1293
  613MOL0     H82688   5.592   7.855   8.955 -0.1818  0.6406 -1.7682
  613MOL0     H82689   5.821   7.900   8.913 -1.4182  1.0265 -0.1898
  613MOL0     H82690   6.043   7.930   8.788 -1.2366 -0.6583 -0.0653
  613MOL0     H82691   6.074   7.868   8.951 -2.7221  0.3360 -0.1952
  613MOL0     H82692   6.287   7.899   8.820  0.6756 -0.1302 -3.8122
  613MOL0     H82693   6.219   7.806   8.691  3.0553  1.3029 -1.0001
  613MOL0     H82694   6.208   7.622   8.900  1.7070 -2.9841 -2.4422
  613MOL0     H82695   6.334   7.726   8.959  3.7156  1.1250 -1.9786
  613MOL0     H82696   6.403   7.523   8.822 -1.9015  1.1688  1.3320
  613MOL0     H82697   6.356   7.613   8.675 -0.0566  0.5598 -0.9610
  613MOL0     H82698   6.523   7.790   8.738  1.1825 -1.0104 -3.2438
  613MOL0     H82699   6.552   7.709   8.889 -2.0701  1.0687 -0.1071
  613MOL0     H82700   6.665   7.523   8.782  2.0709  1.3155  2.5926
  613MOL0     H82701   6.630   7.590   8.620  1.8410  3.3796  0.2810
  613MOL0     H82702   6.777   7.783   8.680  2.1086 -0.0989 -0.2933
  613MOL0     H82703   6.863   7.629   8.680 -0.8885 -1.1587 -1.7784
  613MOL0     H82704   6.755   7.787   8.921  0.7332  1.2244 -1.4959
  613MOL0     H82705   6.803   7.610   8.926  1.7817  0.4308  1.5164
  613MOL0     H82706   7.000   7.945   8.808  3.3974 -0.4522 -3.5997
  613MOL0     H82707   7.238   8.010   8.867  0.3545  0.9431 -2.3135
  613MOL0     H82708   7.364   7.898   8.927 -2.8893 -3.0469  2.5284
  613MOL0     H82709   7.259   7.923   8.639  1.3379  2.5765 -0.1846
  613MOL0     H82710   7.423   7.968   8.690  0.6867 -0.3352  0.3282
  613MOL0     H82711   7.390   7.753   8.568  2.5158  2.7196  0.3060
  613MOL0     H82712   7.313   7.683   8.712 -0.1035 -0.8831 -0.8002
  613MOL0     H82713   7.589   7.808   8.706  3.8631 -1.8471  2.1179
  613MOL0     H82714   7.550   7.640   8.670 -1.7427  0.0023 -0.9970
  613MOL0     H82715   7.803   7.737   8.756 -2.3795 -2.1259 -1.0828
  613MOL0     H82716   8.002   7.646   8.838  0.6086  2.8695  2.0140
  613MOL0     H82717   8.210   7.348   9.086 -2.2030  1.3377  4.6543
  613MOL0     H82718   8.442   7.264   9.153 -0.9782  0.8352 -0.3958
  613MOL0     H82719   8.665   7.227   9.256 -1.3274  0.4198 -1.2260
  613MOL0     H82720   8.707   7.292   9.092  2.6728  1.9426 -0.9707
  613MOL0     H82721   8.907   7.406   9.181 -3.6012  1.9581  0.4160
  613MOL0     H82722   8.879   7.330   9.338 -0.0873  1.0798 -0.6572
  613MOL0     H82723   8.930   7.116   9.257  1.0787 -1.2561 -2.1641
  613MOL0     H82724   8.929   7.167   9.094 -2.8515 -0.1671 -0.3530
  613MOL0     H82725   9.096   7.286   9.320  2.9339 -0.3009 -0.3550
  613MOL0     H82726   9.104   7.321   9.144 -3.0806  0.0332 -0.6085
  613MOL0     H82727   9.173   7.090   9.113  1.0196  2.0500  0.0813
  613MOL0     H82728   9.152   7.057   9.283  1.2698  0.4788  0.4458
  613MOL0     H82729   9.332   7.224   9.353  0.6756  1.5005 -0.7753
  613MOL0     H82730   9.395   7.097   9.257  1.1964  1.1549  0.1985
  613MOL0     H82731   9.343   7.386   9.177  2.5821  1.7790 -1.6793
  613MOL0     H82732   9.357   7.263   9.066 -3.6180  1.2517  0.7654
  613MOL0     H82733   9.584   7.374   9.144 -2.0370  1.6937  1.2588
  613MOL0     H82734   9.537   7.308   9.307 -2.8419  0.4649  0.3970
  613MOL0     H82735   8.565   7.655   9.222 -0.3100  0.9842 -0.6985
  613MOL0     H82736   8.353   7.742   9.126  2.0650  0.9636 -0.6128
  613MOL0     H82737   7.785   7.549   9.209 -1.6052  0.8220  0.4028
  613MOL0     H82738   7.566   7.592   9.081 -0.2981 -0.3489  0.8525
  613MOL0     H82739   5.894   7.513   8.774  1.4437  0.0972  2.7576
  613MOL0     H82740   5.666   7.435   8.851 -2.9571  0.3092 -0.6055
  613MOL0     H82741   5.279   7.736   9.019 -0.9194  1.2987  2.8715
  613MOL0     H82742   5.067   7.758   9.081  2.8186  1.0156  0.4347
  613MOL0     H82743   4.850   7.372   9.222  0.1100 -0.1512 -0.2880
  613MOL0     H82744   4.818   7.407   9.050 -3.8467 -1.4964  0.7589
  613MOL0     H82745   4.617   7.408   9.158  0.9083 -0.7239  0.1842
  613MOL0     H82746   4.665   7.565   9.094  1.1031  3.1358  2.3431
  613MOL0     H82747   4.708   7.659   9.316 -1.1046  1.4369  1.3232
  613MOL0     H82748   4.706   7.506   9.393 -2.8996 -1.2689 -0.3534
  613MOL0     H82749   4.447   7.578   9.261 -1.8175 -1.4942  1.6425
  613MOL0     H82750   4.474   7.471   9.388  0.8563  0.5549  1.7460
  613MOL0     H82751   4.458   7.811   9.627  1.7379 -0.6789  0.3766
  613MOL0     H82752   5.052   7.327   9.171 -2.0659  1.0412 -1.0190
  613MOL0     H82753   5.226   7.186   9.109 -0.2759 -0.6718  4.1306
  613MOL0     H82754   5.379   7.253   9.046 -1.6976  2.3257 -2.2019
  613MOL0     H82755   5.329   7.267   9.223  1.3226 -0.1144 -0.2987
  614MOL0     O82756   9.545   3.016  10.452  0.7224  0.3005 -0.7149
  614MOL0     C82757   9.490   3.116  10.494  0.7755 -0.9344  0.3096
  614MOL0     O82758   9.560   3.239  10.523 -0.1514  0.4065 -0.1517
  614MOL0     C82759   9.700   3.245  10.524  0.4616 -0.9446  0.6023
  614MOL0     C82760   9.767   3.352  10.457  0.2277  0.0909 -0.0420
  614MOL0     C82761   9.908   3.355  10.458 -0.8090 -0.2398  0.8985
  614MOL0     C82762   9.986   3.252  10.505 -0.2285 -0.6458  0.0803
  614MOL0     O82763  10.116   3.261  10.468 -0.2348  0.4170  0.0401
  614MOL0     C82764  10.213   3.167  10.506 -0.2446  0.7996 -0.0614
  614MOL0     C82765  10.349   3.237  10.535  0.1224 -0.3020  0.6417
  614MOL0     C82766  10.333   3.320  10.665 -1.1636  0.7634 -0.4402
  614MOL0     C82767  10.453   3.406  10.700  0.6338 -0.3863 -0.1520
  614MOL0     C82768  10.563   3.325  10.764  0.6747  0.2911  0.0207
  614MOL0     C82769  10.684   3.408  10.806 -0.5526  0.9823 -0.3796
  614MOL0     C82770  10.649   3.534  10.886  0.4494 -0.3256 -0.3982
  614MOL0     C82771  10.769   3.624  10.900  0.1278 -0.2328  0.2884
  614MOL0     N82772  10.872   3.579  10.988  0.3991  0.1462 -0.3793
  614MOL0     C82773  10.848   3.527  11.114  0.9405  0.2407 -0.1901
  614MOL0     C82774  10.972   3.494  11.150 -0.0532  0.7747  1.0424
  614MOL0     C82775  11.023   3.420  11.270  0.0177  1.2015 -0.6611
  614MOL0     C82776  11.011   3.495  11.397 -0.8410  0.5823 -0.2098
  614MOL0     C82777  11.125   3.607  11.401 -0.8058  0.7054  0.6683
  614MOL0     C82778  11.141   3.662  11.538 -0.5802  0.1520 -0.3442
  614MOL0     O82779  11.255   3.754  11.547  0.0506  0.0966  0.1087
  614MOL0     C82780  11.377   3.698  11.527  0.7689 -0.6538  0.0275
  614MOL0     C82781  11.420   3.572  11.588  0.1043 -0.1286 -0.3113
  614MOL0     C82782  11.543   3.515  11.555  0.8628  0.6519  0.4503
  614MOL0     C82783  11.622   3.570  11.461 -0.4457  1.3510 -0.0940
  614MOL0     C82784  11.760   3.516  11.422  0.0804  0.5666 -0.0042
  614MOL0     O82785  11.775   3.382  11.443  0.0312 -0.4387  0.0666
  614MOL0     C82786  11.898   3.327  11.424 -0.0615 -0.1995 -0.5683
  614MOL0     C82787  11.922   3.270  11.304  0.0389  0.3987 -0.0198
  614MOL0     C82788  12.049   3.222  11.271  0.1456 -0.1474  0.0445
  614MOL0     C82789  12.158   3.230  11.355  0.0374  0.9235 -0.2267
  614MOL0     O82790  12.293   3.203  11.331 -0.4425  0.2155 -0.3908
  614MOL0     C82791  12.325   3.156  11.195 -1.0667 -0.2929 -0.6996
  614MOL0     C82792  12.473   3.150  11.162  0.6415 -0.6417  0.5106
  614MOL0     C82793  12.564   3.099  11.268 -0.1618  0.3529 -0.1910
  614MOL0     C82794  12.566   2.949  11.265 -0.1315  0.0365 -0.2690
  614MOL0     C82795  12.632   2.881  11.141 -0.5369  0.0584  0.6412
  614MOL0     C82796  12.774   2.932  11.108 -0.2029 -0.1041  1.3140
  614MOL0     C82797  12.830   2.857  10.988  0.6690 -0.1687 -0.4611
  614MOL0     C82798  12.974   2.891  10.953 -1.2128 -0.1695 -0.5587
  614MOL0    Cl82799  13.063   2.950  11.098  0.2159  0.1295 -0.1951
  614MOL0     C82800  12.135   3.289  11.477  0.8199  0.4552  0.5852
  614MOL0     C82801  12.008   3.347  11.510 -1.1708  0.1880  0.1145
  614MOL0     O82802  11.849   3.589  11.373  0.8568  0.0866  0.2452
  614MOL0     C82803  11.582   3.688  11.394  0.2932  0.7840  0.3859
  614MOL0     C82804  11.460   3.757  11.435  0.3611  0.6769  0.2519
  614MOL0     N82805  11.061   3.531  11.061  0.3820  0.2090  0.0408
  614MOL0     N82806  11.003   3.584  10.953 -0.2967 -0.6978 -0.0952
  614MOL0     C82807   9.919   3.145  10.575  1.3701  0.0285 -0.1082
  614MOL0     C82808   9.778   3.141  10.586  0.3056  0.1702 -0.3125
  614MOL0     C82809   9.339   3.107  10.512 -0.0542 -0.3248  0.2153
  614MOL0     C82810   9.285   2.984  10.546 -0.8373 -0.1188  0.6641
  614MOL0     C82811   9.160   2.979  10.585  0.9033  0.5092 -0.3653
  614MOL0     C82812   9.065   3.077  10.577 -0.1752 -0.3065 -0.4892
  614MOL0     O82813   8.940   3.059  10.632 -0.2633 -0.8022 -0.2622
  614MOL0     C82814   8.837   3.159  10.615  0.3230 -0.6020 -0.9366
  614MOL0     C82815   8.784   3.152  10.475  0.6260 -0.4410  0.4003
  614MOL0     C82816   8.638   3.193  10.471  0.9054 -0.5441  0.3038
  614MOL0     C82817   8.576   3.169  10.331  0.2420  0.8585  0.5563
  614MOL0     C82818   8.443   3.218  10.302  0.4614  0.5945  0.3221
  614MOL0     C82819   8.336   3.242  10.272  0.2665  0.9466 -0.8155
  614MOL0     C82820   9.117   3.200  10.526 -0.0458  0.6097  0.4629
  614MOL0     C82821   9.254   3.223  10.506 -0.2526  0.1215 -0.2421
  614MOL0     C82822   9.309   3.361  10.480  0.4951  0.1317  0.3061
  614MOL0     H82823   9.699   3.427  10.418  0.2776 -1.0072 -2.4083
  614MOL0     H82824   9.953   3.441  10.408  0.8171 -2.9159 -2.6628
  614MOL0     H82825  10.188   3.114  10.598  1.4043  1.5740  0.8793
  614MOL0     H82826  10.229   3.090  10.430 -2.1762  0.2142  0.0638
  614MOL0     H82827  10.366   3.294  10.444  0.6177  2.1249  2.1567
  614MOL0     H82828  10.424   3.159  10.554 -0.3546 -1.0998 -0.6678
  614MOL0     H82829  10.301   3.268  10.755 -1.1569  0.6593 -0.4971
  614MOL0     H82830  10.249   3.386  10.643 -1.3148  1.1549  1.1905
  614MOL0     H82831  10.495   3.457  10.612  2.8769 -1.1991  0.3695
  614MOL0     H82832  10.419   3.486  10.767 -2.3571 -0.2782 -1.6343
  614MOL0     H82833  10.530   3.273  10.855  2.1416  0.3904  0.6486
  614MOL0     H82834  10.600   3.248  10.695 -0.2640  0.1020 -0.2796
  614MOL0     H82835  10.749   3.349  10.871  2.2322  4.1993  0.0501
  614MOL0     H82836  10.743   3.431  10.716 -0.9705  2.0415 -0.3862
  614MOL0     H82837  10.606   3.506  10.983 -0.1612  0.2706 -0.4959
  614MOL0     H82838  10.575   3.593  10.832  0.8996 -1.2488 -2.0848
  614MOL0     H82839  10.803   3.646  10.799 -3.7547  2.2074 -0.6858
  614MOL0     H82840  10.742   3.720  10.945  1.4244  0.5590 -0.5519
  614MOL0     H82841  10.760   3.485  11.161  0.8524  0.7437  0.0988
  614MOL0     H82842  10.970   3.325  11.281 -2.1578  2.5347  1.1916
  614MOL0     H82843  11.126   3.387  11.251 -0.5691  0.1816 -2.3124
  614MOL0     H82844  10.913   3.541  11.411 -2.0455 -0.6837 -3.5522
  614MOL0     H82845  11.034   3.416  11.469  1.0143  0.9718 -0.3182
  614MOL0     H82846  11.092   3.688  11.336 -3.6661  0.5434  1.7493
  614MOL0     H82847  11.220   3.568  11.362 -0.4400 -0.0505  2.2440
  614MOL0     H82848  11.155   3.574  11.601  1.7174  0.2069 -0.6754
  614MOL0     H82849  11.055   3.715  11.580 -1.6961 -0.1809 -2.1167
  614MOL0     H82850  11.370   3.522  11.670  0.4676 -0.8651 -0.5278
  614MOL0     H82851  11.583   3.430  11.609 -0.3092 -1.0515 -1.2396
  614MOL0     H82852  11.845   3.272  11.227 -0.3659  3.7533  0.3406
  614MOL0     H82853  12.065   3.170  11.177  1.8500  1.1374 -0.4098
  614MOL0     H82854  12.294   3.051  11.193  2.7037 -1.6198  1.9446
  614MOL0     H82855  12.275   3.221  11.123  1.5224  0.2520 -2.1189
  614MOL0     H82856  12.481   3.104  11.063  1.5171  0.9361 -0.2002
  614MOL0     H82857  12.499   3.253  11.136 -0.5263 -0.4837 -0.0987
  614MOL0     H82858  12.668   3.128  11.254 -0.2784  1.5220  1.1039
  614MOL0     H82859  12.534   3.130  11.369 -1.5827 -2.8322  0.4759
  614MOL0     H82860  12.464   2.914  11.282 -0.5659 -1.5139 -4.7273
  614MOL0     H82861  12.632   2.924  11.349 -0.7873  3.2653  1.3873
  614MOL0     H82862  12.564   2.881  11.056 -0.0422  1.0598  0.2335
  614MOL0     H82863  12.637   2.773  11.159 -3.1268 -0.2471 -0.0612
  614MOL0     H82864  12.786   3.036  11.077  2.6686 -1.7153 -4.4071
  614MOL0     H82865  12.841   2.915  11.193  1.8496 -1.5623 -0.4993
  614MOL0     H82866  12.767   2.887  10.903 -1.4467 -0.6688  0.8641
  614MOL0     H82867  12.835   2.749  11.002 -1.0758 -0.0806  1.1989
  614MOL0     H82868  13.021   2.802  10.909 -0.0935 -0.6171  1.4222
  614MOL0     H82869  12.968   2.968  10.877 -0.8290  0.4904  0.0682
  614MOL0     H82870  12.215   3.315  11.545  1.1451 -2.8603  1.6422
  614MOL0     H82871  11.987   3.392  11.607 -0.4168  0.8262 -0.0121
  614MOL0     H82872  11.655   3.740  11.334  1.7522 -2.1872 -0.5726
  614MOL0     H82873  11.434   3.852  11.391  0.3014  0.3585 -0.4173
  614MOL0     H82874   9.967   3.055  10.615  0.9182 -0.1868 -0.0438
  614MOL0     H82875   9.739   3.053  10.638  2.0459  0.1167  0.9984
  614MOL0     H82876   9.349   2.897  10.541 -1.3929 -0.5647  1.2086
  614MOL0     H82877   9.126   2.885  10.627 -2.8474  2.4395  1.4280
  614MOL0     H82878   8.863   3.261  10.645  1.2393 -1.3363  0.9191
  614MOL0     H82879   8.758   3.127  10.682  1.0418  0.9358  0.7269
  614MOL0     H82880   8.788   3.048  10.439 -1.3359  0.2272 -2.0557
  614MOL0     H82881   8.851   3.214  10.415 -0.4395  1.1598  0.8024
  614MOL0     H82882   8.634   3.298  10.504 -1.1718 -0.1884 -0.9444
  614MOL0     H82883   8.590   3.141  10.554  0.2831  1.8442  1.5336
  614MOL0     H82884   8.641   3.217  10.257  0.8125  2.5486  2.0876
  614MOL0     H82885   8.579   3.061  10.314 -0.7838  0.8661  0.2504
  614MOL0     H82886   8.234   3.244  10.240 -0.3138  0.1578  0.8659
  614MOL0     H82887   9.055   3.288  10.518 -0.4852  0.1521 -2.1647
  614MOL0     H82888   9.361   3.374  10.385  0.9629 -1.7697  0.2784
  614MOL0     H82889   9.223   3.429  10.486  0.1750 -0.3384  1.1930
  614MOL0     H82890   9.379   3.389  10.560 -0.2667 -1.3285  1.5242
  615MOL0     O82891   2.588   5.248   8.243 -0.1093  0.1013  0.1930
  615MOL0     C82892   2.564   5.137   8.290 -0.9069 -0.5826  0.5341
  615MOL0     O82893   2.640   5.077   8.386 -0.3662  0.0804  0.4509
  615MOL0     C82894   2.734   5.159   8.450 -0.0315  0.2437  0.0520
  615MOL0     C82895   2.698   5.257   8.538 -0.3192 -0.5402 -1.3523
  615MOL0     C82896   2.795   5.334   8.594 -0.7851  0.6602  0.4159
  615MOL0     C82897   2.935   5.317   8.568  0.3773 -0.1157  0.3329
  615MOL0     O82898   3.025   5.401   8.622  0.1113 -0.1201  0.3442
  615MOL0     C82899   3.001   5.488   8.727  0.5909  0.0559  0.3483
  615MOL0     C82900   3.125   5.527   8.806 -0.9461  0.4683  0.3132
  615MOL0     C82901   3.173   5.427   8.909  0.7515  0.2294 -0.1774
  615MOL0     C82902   3.309   5.481   8.970  0.1763 -0.4148  0.1694
  615MOL0     C82903   3.346   5.428   9.107 -0.2864 -0.1841 -0.2600
  615MOL0     C82904   3.447   5.514   9.176  0.0027 -0.4351  0.2015
  615MOL0     C82905   3.593   5.538   9.123  0.1960 -0.4167 -0.4346
  615MOL0     C82906   3.671   5.408   9.101  0.0238 -0.5345 -0.4063
  615MOL0     N82907   3.700   5.345   9.230 -0.3513 -0.1977  0.4727
  615MOL0     C82908   3.789   5.400   9.318  0.2024 -0.2325  0.5906
  615MOL0     C82909   3.744   5.347   9.436 -0.3630 -0.3434  0.0979
  615MOL0     C82910   3.808   5.367   9.571 -0.4615 -0.4594 -0.1945
  615MOL0     C82911   3.957   5.311   9.574  0.3891 -0.3106 -0.0481
  615MOL0     C82912   4.017   5.312   9.717  0.3959  0.0410  0.6149
  615MOL0     C82913   4.165   5.271   9.739  0.3589  0.1884  0.0722
  615MOL0     O82914   4.253   5.344   9.642  0.0259  0.4995 -0.3379
  615MOL0     C82915   4.334   5.442   9.688 -0.1693 -0.2022 -0.0198
  615MOL0     C82916   4.433   5.494   9.602  0.3789 -0.1898 -0.6612
  615MOL0     C82917   4.524   5.583   9.647  0.1886 -0.1409 -0.8168
  615MOL0     C82918   4.519   5.634   9.781 -0.7515 -0.2897  0.2442
  615MOL0     C82919   4.622   5.742   9.828 -0.0309 -0.4586  0.3964
  615MOL0     O82920   4.710   5.781   9.727 -0.2700  0.5901 -0.3798
  615MOL0     C82921   4.776   5.893   9.748 -0.2674  0.1186 -0.2402
  615MOL0     C82922   4.714   6.020   9.759 -0.1728  0.9437  0.7703
  615MOL0     C82923   4.792   6.134   9.774  0.0808 -0.0146 -0.2198
  615MOL0     C82924   4.929   6.130   9.776 -0.2450  0.1630  0.3661
  615MOL0     O82925   4.991   6.253   9.784  0.6312  0.1204  0.0413
  615MOL0     C82926   5.130   6.260   9.800  0.1783  0.7042  0.4154
  615MOL0     C82927   5.177   6.402   9.782 -0.8021  0.2001  0.4716
  615MOL0     C82928   5.298   6.419   9.682  0.1199 -0.1580 -0.6683
  615MOL0     C82929   5.352   6.561   9.675  0.2917  1.3116 -0.1811
  615MOL0     C82930   5.474   6.555   9.587 -0.0520 -0.2768  0.5409
  615MOL0     C82931   5.538   6.692   9.571  0.0420 -0.2715  0.2829
  615MOL0     C82932   5.665   6.704   9.479  0.1910 -0.3697  0.0794
  615MOL0     C82933   5.732   6.833   9.502  0.0506  0.1367 -0.0246
  615MOL0    Cl82934   5.869   6.848   9.397 -0.1357 -0.1836  0.4279
  615MOL0     C82935   4.985   6.006   9.778 -0.7628  0.4306  1.1551
  615MOL0     C82936   4.916   5.883   9.772 -0.2966  0.4724 -0.1787
  615MOL0     O82937   4.614   5.788   9.941 -0.5534  0.7081  0.4567
  615MOL0     C82938   4.417   5.592   9.866 -0.6470  0.5733  0.3175
  615MOL0     C82939   4.323   5.502   9.817 -0.6903 -0.1951  1.3280
  615MOL0     N82940   3.652   5.243   9.409  0.0126  0.2689 -0.3359
  615MOL0     N82941   3.618   5.254   9.289  0.3813 -0.5454  0.7124
  615MOL0     C82942   2.972   5.218   8.472  0.1103  0.4067 -0.8382
  615MOL0     C82943   2.867   5.137   8.418  0.0759 -0.7815  0.2775
  615MOL0     C82944   2.445   5.058   8.247 -1.1177 -0.4820 -0.1767
  615MOL0     C82945   2.398   5.091   8.119  0.0271  0.4743  0.1846
  615MOL0     C82946   2.293   5.017   8.062 -0.8502 -0.2617 -0.3711
  615MOL0     C82947   2.226   4.923   8.134 -0.1703 -0.7523  0.1417
  615MOL0     O82948   2.116   4.865   8.072  0.2132  0.3774 -1.0721
  615MOL0     C82949   2.148   4.730   8.047 -0.5974  0.2578  1.1716
  615MOL0     C82950   2.017   4.651   8.007  1.1797 -0.2922  0.2464
  615MOL0     C82951   1.916   4.613   8.121 -0.8230  0.2915 -0.4339
  615MOL0     C82952   1.798   4.537   8.070 -0.0336 -0.3771  0.5519
  615MOL0     C82953   1.693   4.613   8.002  0.1555  0.5636 -0.6193
  615MOL0     C82954   1.595   4.669   7.953 -0.0721  0.3970 -0.9308
  615MOL0     C82955   2.266   4.893   8.263  0.7453  0.2403  0.5956
  615MOL0     C82956   2.370   4.958   8.324 -0.9727  0.5247  0.2763
  615MOL0     C82957   2.403   4.925   8.465  1.3674 -0.2480 -0.3246
  615MOL0     H82958   2.594   5.273   8.562  0.3317  2.5071 -0.0040
  615MOL0     H82959   2.763   5.421   8.650  2.1762  1.4768  1.0577
  615MOL0     H82960   2.959   5.576   8.679  1.0345  1.0593  1.7309
  615MOL0     H82961   2.921   5.461   8.798 -0.1401  0.1418 -0.4228
  615MOL0     H82962   3.109   5.620   8.861 -0.4843 -0.2272  1.6738
  615MOL0     H82963   3.207   5.536   8.734 -2.6234 -0.1107 -1.7771
  615MOL0     H82964   3.185   5.327   8.866  2.1699 -1.1895  3.1427
  615MOL0     H82965   3.090   5.419   8.979 -0.7519 -1.7656 -2.0288
  615MOL0     H82966   3.391   5.451   8.904 -0.1955 -1.1807  0.0475
  615MOL0     H82967   3.301   5.590   8.967  3.2978  0.2666  5.0336
  615MOL0     H82968   3.255   5.421   9.166 -2.3941 -0.3305 -3.2934
  615MOL0     H82969   3.391   5.329   9.092  1.1061  0.6703 -2.1466
  615MOL0     H82970   3.408   5.615   9.196  1.7551  0.0133  1.6083
  615MOL0     H82971   3.464   5.466   9.272  1.1801  0.6258  0.5543
  615MOL0     H82972   3.642   5.610   9.189  0.9093 -1.2374 -0.0606
  615MOL0     H82973   3.589   5.590   9.027 -0.9053 -1.4915 -0.9993
  615MOL0     H82974   3.610   5.343   9.038 -1.7914 -0.2552  0.9669
  615MOL0     H82975   3.771   5.430   9.063  0.9521  1.2101  2.6483
  615MOL0     H82976   3.868   5.471   9.298 -0.0929 -0.1855 -0.4497
  615MOL0     H82977   3.808   5.472   9.601 -1.2148 -0.7565  0.9211
  615MOL0     H82978   3.755   5.310   9.648 -0.0032  1.1835  1.4079
  615MOL0     H82979   3.947   5.208   9.540  0.2477  0.2816 -1.9209
  615MOL0     H82980   4.023   5.368   9.508 -3.0421  1.7212 -2.0586
  615MOL0     H82981   3.951   5.254   9.782  0.2425 -0.8727 -0.3247
  615MOL0     H82982   4.025   5.415   9.754 -0.5674 -0.0357  1.0602
  615MOL0     H82983   4.173   5.162   9.734 -2.6533 -0.2170  1.9441
  615MOL0     H82984   4.191   5.285   9.844 -3.8600 -1.6792  1.5534
  615MOL0     H82985   4.444   5.452   9.502 -2.4655  1.3821 -1.7375
  615MOL0     H82986   4.608   5.609   9.583 -0.7528  1.8944 -1.2949
  615MOL0     H82987   4.605   6.018   9.755 -0.3037  0.9442  3.1214
  615MOL0     H82988   4.741   6.230   9.770 -2.1530 -1.1490 -1.5800
  615MOL0     H82989   5.165   6.224   9.897  1.1310  1.6614  0.4509
  615MOL0     H82990   5.172   6.203   9.716 -0.8628  1.4524 -0.6491
  615MOL0     H82991   5.094   6.458   9.740 -1.2095 -0.5185  0.2955
  615MOL0     H82992   5.213   6.450   9.873  0.5685 -0.8935  0.5508
  615MOL0     H82993   5.367   6.343   9.719 -0.3424 -1.1806 -1.8565
  615MOL0     H82994   5.260   6.388   9.585 -0.6267  1.2249 -0.8488
  615MOL0     H82995   5.386   6.593   9.774  0.9636 -1.5599  0.6012
  615MOL0     H82996   5.277   6.626   9.629  0.5041  1.3359 -0.4955
  615MOL0     H82997   5.449   6.515   9.488 -1.3240  2.1944 -0.2169
  615MOL0     H82998   5.545   6.492   9.641  1.1003  0.9793  0.5121
  615MOL0     H82999   5.468   6.773   9.548 -1.7524 -2.2868 -1.8085
  615MOL0     H83000   5.590   6.712   9.665 -0.0382 -0.8322  0.4446
  615MOL0     H83001   5.623   6.715   9.378 -1.4315 -3.7438  0.2473
  615MOL0     H83002   5.741   6.625   9.484 -1.7886 -2.3295  0.4006
  615MOL0     H83003   5.661   6.915   9.488 -1.5649 -1.2813 -0.5067
  615MOL0     H83004   5.762   6.836   9.607 -0.6205  2.3732  0.1487
  615MOL0     H83005   5.092   6.008   9.800 -0.0699  0.4516 -1.7750
  615MOL0     H83006   4.959   5.784   9.781  0.8610  1.0855  1.5568
  615MOL0     H83007   4.416   5.625   9.970  0.2400 -2.4259  1.3780
  615MOL0     H83008   4.246   5.478   9.890 -1.9855 -2.7575 -0.7112
  615MOL0     H83009   3.078   5.196   8.465 -0.4253 -2.2759 -1.7146
  615MOL0     H83010   2.884   5.056   8.347  1.9193  1.0012 -1.4460
  615MOL0     H83011   2.437   5.167   8.052 -0.4057 -0.8586 -1.6591
  615MOL0     H83012   2.258   5.030   7.960 -1.0510 -0.9918 -0.4025
  615MOL0     H83013   2.183   4.685   8.140 -1.0037 -0.9091  0.7731
  615MOL0     H83014   2.214   4.723   7.960 -3.6610  1.7434 -1.5267
  615MOL0     H83015   2.054   4.560   7.958 -3.0966 -0.5459 -3.1144
  615MOL0     H83016   1.954   4.710   7.941 -1.2321 -0.9767  1.7950
  615MOL0     H83017   1.891   4.708   8.170 -0.1821 -0.0480  0.5865
  615MOL0     H83018   1.968   4.557   8.200 -0.8362  3.5215  2.0827
  615MOL0     H83019   1.828   4.455   8.004 -1.3082  1.3371 -2.3694
  615MOL0     H83020   1.755   4.492   8.160  1.0852 -1.7694  0.4243
  615MOL0     H83021   1.511   4.733   7.934  1.5395  3.3081  1.0771
  615MOL0     H83022   2.207   4.817   8.314  3.1022 -3.0615 -1.1725
  615MOL0     H83023   2.316   4.884   8.519  0.7830  0.4794 -0.6941
  615MOL0     H83024   2.485   4.853   8.455 -0.2274 -2.0917 -0.7367
  615MOL0     H83025   2.439   5.018   8.510 -0.6031  0.6613 -0.5134
  616MOL0     O83026   0.815   4.771   2.942 -0.0329 -0.0116  0.5126
  616MOL0     C83027   0.721   4.788   3.021 -0.2025 -0.2154 -0.2673
  616MOL0     O83028   0.743   4.816   3.150 -0.3231 -0.3220 -0.2699
  616MOL0     C83029   0.869   4.817   3.208 -0.5690  0.1687  0.5792
  616MOL0     C83030   0.891   4.924   3.286 -0.5984  0.0180 -0.0710
  616MOL0     C83031   1.025   4.953   3.337  0.2575 -0.2430 -0.0769
  616MOL0     C83032   1.130   4.869   3.303 -0.4493 -0.2684 -0.2295
  616MOL0     O83033   1.259   4.889   3.344 -0.4426 -0.2838  0.1112
  616MOL0     C83034   1.282   4.966   3.461  0.2780  0.6728  0.2730
  616MOL0     C83035   1.422   4.948   3.504  0.4528 -0.3499  0.0272
  616MOL0     C83036   1.445   5.033   3.627  0.3450 -0.6827  0.2547
  616MOL0     C83037   1.584   5.060   3.658 -0.0830 -0.0415  0.5618
  616MOL0     C83038   1.597   5.154   3.780 -0.8607  0.4020  0.2648
  616MOL0     C83039   1.699   5.118   3.887  0.0485  0.2514 -0.2677
  616MOL0     C83040   1.842   5.151   3.851 -0.0378  0.5427  0.9345
  616MOL0     C83041   1.938   5.104   3.959 -0.0267 -0.6825 -0.0548
  616MOL0     N83042   2.076   5.114   3.907  0.2705  0.9681 -0.3003
  616MOL0     C83043   2.167   5.214   3.924  0.0940  0.0311 -0.1617
  616MOL0     C83044   2.277   5.163   3.862  0.1593 -0.3052 -0.5626
  616MOL0     C83045   2.394   5.248   3.858 -0.7637 -0.1178  0.6364
  616MOL0     C83046   2.391   5.302   3.716 -0.4730 -0.4560 -0.3575
  616MOL0     C83047   2.511   5.399   3.689  1.0200  0.8229  0.9080
  616MOL0     C83048   2.639   5.320   3.687 -0.5202  0.0425 -0.5247
  616MOL0     O83049   2.648   5.232   3.572  0.2554 -0.4839 -0.4846
  616MOL0     C83050   2.769   5.222   3.497  0.1120 -0.2936 -0.1703
  616MOL0     C83051   2.755   5.196   3.360  0.1511 -0.8636  0.6437
  616MOL0     C83052   2.870   5.186   3.277  0.3650 -0.5637  1.0067
  616MOL0     C83053   2.998   5.204   3.330  0.4350 -0.0519  0.9161
  616MOL0     C83054   3.114   5.192   3.243  0.9506  0.0881 -0.7627
  616MOL0     O83055   3.097   5.194   3.111  0.2680 -0.4893 -0.0787
  616MOL0     C83056   3.213   5.187   3.038 -0.6548  0.7915  0.0154
  616MOL0     C83057   3.286   5.304   3.012  0.7194 -0.1847  0.4128
  616MOL0     C83058   3.380   5.311   2.911  0.3537 -0.4168  0.0708
  616MOL0     C83059   3.424   5.192   2.847 -0.9128  0.2373  0.5787
  616MOL0     O83060   3.530   5.193   2.763  0.1609  0.4777 -0.0250
  616MOL0     C83061   3.576   5.079   2.705 -0.9256 -0.4735  0.3416
  616MOL0     C83062   3.695   5.103   2.627 -0.6624  0.3390 -0.6891
  616MOL0     C83063   3.757   4.974   2.577  0.6303 -0.2586 -0.1877
  616MOL0     C83064   3.840   4.982   2.444 -0.3927  0.0855  0.0336
  616MOL0     C83065   3.754   4.995   2.321 -0.2653 -0.0054 -0.4641
  616MOL0     C83066   3.670   4.868   2.290  0.1298  0.9796 -0.0395
  616MOL0     C83067   3.582   4.887   2.165  0.4482  0.3718  0.7063
  616MOL0     C83068   3.634   4.803   2.057  0.5203  0.5744  0.7686
  616MOL0    Cl83069   3.800   4.846   2.004 -0.1120 -0.3648 -0.4604
  616MOL0     C83070   3.370   5.069   2.896 -0.5324  0.2517  0.9999
  616MOL0     C83071   3.261   5.069   2.984  0.0221  0.3104  0.4339
  616MOL0     O83072   3.220   5.186   3.307  0.2023 -0.6574 -0.5170
  616MOL0     C83073   3.005   5.218   3.471  1.2734  0.2890  0.5924
  616MOL0     C83074   2.894   5.214   3.552  0.2294 -0.5502 -0.3280
  616MOL0     N83075   2.253   5.038   3.816  0.3407 -0.0891 -0.3213
  616MOL0     N83076   2.133   5.010   3.840 -0.8149  0.9626  0.1595
  616MOL0     C83077   1.107   4.765   3.225  0.0462  0.4345  0.1749
  616MOL0     C83078   0.975   4.731   3.174 -0.7101 -0.0431 -0.7938
  616MOL0     C83079   0.580   4.772   2.972  0.0855  0.0342 -1.3777
  616MOL0     C83080   0.479   4.819   3.060  0.1948  0.1464  0.0713
  616MOL0     C83081   0.341   4.812   3.020  0.7895  0.1488  0.0717
  616MOL0     C83082   0.305   4.755   2.900  0.5084  0.9267 -0.7359
  616MOL0     O83083   0.186   4.758   2.831  0.0767 -0.0266  0.8570
  616MOL0     C83084   0.072   4.772   2.910  0.4463 -0.6510  0.4968
  616MOL0     C83085  -0.062   4.727   2.853  0.1167 -0.2038  0.0828
  616MOL0     C83086  -0.091   4.773   2.707 -0.8422  0.2409  1.0315
  616MOL0     C83087  -0.221   4.727   2.638  0.0579  0.6097  0.2092
  616MOL0     C83088  -0.237   4.774   2.500 -0.3448  0.0613 -0.9125
  616MOL0     C83089  -0.256   4.802   2.387  0.6037 -0.8531 -0.5521
  616MOL0     C83090   0.405   4.709   2.826 -0.3849 -0.5599  0.0812
  616MOL0     C83091   0.542   4.715   2.857 -0.2075 -0.7075 -0.6972
  616MOL0     C83092   0.640   4.644   2.763  0.6291  0.8602  0.6322
  616MOL0     H83093   0.808   4.992   3.302 -1.6914 -1.4166  0.4496
  616MOL0     H83094   1.043   5.024   3.416 -0.8319 -2.1100  1.9688
  616MOL0     H83095   1.256   5.071   3.442 -0.7143  0.7022  1.6026
  616MOL0     H83096   1.210   4.923   3.532  1.3823 -2.5254 -0.3925
  616MOL0     H83097   1.488   4.973   3.420  1.4026  0.6309  1.0439
  616MOL0     H83098   1.448   4.846   3.534  4.6504  0.8685  1.1862
  616MOL0     H83099   1.391   4.976   3.703  0.6767 -0.4898  0.6338
  616MOL0     H83100   1.398   5.129   3.605  0.6267  0.4150  3.8323
  616MOL0     H83101   1.628   4.960   3.671  1.7466  0.5194 -0.9220
  616MOL0     H83102   1.637   5.107   3.575  1.2767 -2.9849 -0.3591
  616MOL0     H83103   1.628   5.247   3.731 -0.3968 -1.6112 -3.6500
  616MOL0     H83104   1.499   5.169   3.827 -1.2949  2.4474 -1.1910
  616MOL0     H83105   1.662   5.169   3.976 -0.9482 -2.3819  0.9283
  616MOL0     H83106   1.695   5.011   3.909  0.1103 -0.4140 -3.1787
  616MOL0     H83107   1.861   5.255   3.821 -1.1602  0.3002 -0.7262
  616MOL0     H83108   1.860   5.094   3.759 -1.6921  0.9212  0.3303
  616MOL0     H83109   1.931   5.163   4.051  0.2649 -2.6952  1.3509
  616MOL0     H83110   1.901   5.004   3.986  2.2227 -2.2396 -2.2553
  616MOL0     H83111   2.152   5.302   3.985 -0.7902  2.0030 -3.0060
  616MOL0     H83112   2.393   5.317   3.943 -2.0595 -1.4627  1.7888
  616MOL0     H83113   2.480   5.182   3.869 -0.1432  0.4470 -0.6627
  616MOL0     H83114   2.382   5.226   3.638 -0.4157 -1.6926  0.8055
  616MOL0     H83115   2.299   5.359   3.700  0.5241  1.4545  0.4250
  616MOL0     H83116   2.517   5.472   3.770 -0.2600  2.0966 -0.0812
  616MOL0     H83117   2.492   5.467   3.605 -0.2614 -0.0288  0.4576
  616MOL0     H83118   2.663   5.263   3.777 -0.7444 -0.1659 -0.5960
  616MOL0     H83119   2.717   5.395   3.678  1.7835 -1.5352  3.5696
  616MOL0     H83120   2.653   5.194   3.321  0.1328 -2.8600  0.7102
  616MOL0     H83121   2.858   5.172   3.170  1.6549  3.1182  0.2029
  616MOL0     H83122   3.257   5.398   3.057 -2.2244 -0.2325 -1.1322
  616MOL0     H83123   3.430   5.406   2.894 -0.7593  0.0965 -0.4662
  616MOL0     H83124   3.599   5.004   2.782  0.2959  1.1149  1.5979
  616MOL0     H83125   3.502   5.044   2.634  0.0914 -3.8323  0.7677
  616MOL0     H83126   3.683   5.176   2.546  0.3271 -0.3103 -1.4411
  616MOL0     H83127   3.777   5.143   2.687  1.6855 -2.8988 -1.4803
  616MOL0     H83128   3.826   4.933   2.652  0.7014 -2.2175 -1.2627
  616MOL0     H83129   3.674   4.904   2.561 -1.4818  2.3359 -1.4502
  616MOL0     H83130   3.921   4.910   2.433  2.5961  3.4393 -2.0004
  616MOL0     H83131   3.898   5.073   2.462 -1.4206  0.8819 -0.5694
  616MOL0     H83132   3.822   5.012   2.238 -1.6239  1.2478 -1.3644
  616MOL0     H83133   3.693   5.085   2.325  2.7665  2.2019 -0.5904
  616MOL0     H83134   3.738   4.783   2.284  0.8222  1.5289 -0.1407
  616MOL0     H83135   3.605   4.849   2.376  0.5865  1.1702  0.3505
  616MOL0     H83136   3.586   4.989   2.128  1.9550 -0.8564 -2.9963
  616MOL0     H83137   3.479   4.852   2.179  1.0361 -1.0972  1.6301
  616MOL0     H83138   3.625   4.696   2.076  1.5156 -1.1235 -5.7745
  616MOL0     H83139   3.570   4.823   1.970  1.3165 -1.4831 -0.3639
  616MOL0     H83140   3.412   4.972   2.875  1.0558  1.0885  0.1341
  616MOL0     H83141   3.207   4.979   3.014 -5.1237  1.2069 -4.5105
  616MOL0     H83142   3.101   5.216   3.522  0.2224 -1.2083  2.6495
  616MOL0     H83143   2.902   5.227   3.660  3.4500 -1.8069 -0.3043
  616MOL0     H83144   1.188   4.699   3.199 -0.7707 -0.5049 -0.0638
  616MOL0     H83145   0.962   4.643   3.112  1.8303 -0.2529 -1.1428
  616MOL0     H83146   0.506   4.865   3.155  0.7985 -3.6871  1.9379
  616MOL0     H83147   0.261   4.857   3.078 -0.8788  0.3405 -2.2356
  616MOL0     H83148   0.062   4.879   2.930  1.2618 -0.6515  0.9353
  616MOL0     H83149   0.082   4.715   3.003 -1.0355 -1.7529  0.0259
  616MOL0     H83150  -0.148   4.753   2.916  1.5409  0.7663  1.7371
  616MOL0     H83151  -0.067   4.617   2.852 -0.4665 -0.1993  1.1414
  616MOL0     H83152  -0.002   4.732   2.659 -0.9588  0.5754  0.5258
  616MOL0     H83153  -0.095   4.882   2.704  2.3383  0.4042 -0.5429
  616MOL0     H83154  -0.217   4.618   2.642 -0.2844  0.6373  1.7917
  616MOL0     H83155  -0.304   4.762   2.699 -0.7996 -0.1077 -0.5197
  616MOL0     H83156  -0.259   4.816   2.281  0.7211  1.5546 -0.2925
  616MOL0     H83157   0.371   4.678   2.728 -0.5369 -0.4289  0.0923
  616MOL0     H83158   0.681   4.729   2.709 -1.4349  1.5920  0.1313
  616MOL0     H83159   0.713   4.590   2.824 -0.6321 -1.7758 -0.0429
  616MOL0     H83160   0.590   4.563   2.710  2.8425 -0.1163 -0.0845
  617MOL0     O83161   2.198   8.440   7.213 -0.5786 -0.1390  0.2580
  617MOL0     C83162   2.171   8.323   7.178  0.2368 -0.1196  0.3632
  617MOL0     O83163   2.252   8.225   7.145  0.3235 -0.4676  0.3595
  617MOL0     C83164   2.393   8.240   7.150 -0.5493  0.0851 -0.4351
  617MOL0     C83165   2.461   8.124   7.178 -0.5174 -0.3048  0.2290
  617MOL0     C83166   2.606   8.117   7.180 -0.1701 -0.8664  0.5757
  617MOL0     C83167   2.676   8.236   7.159 -0.0742  0.4201  0.3576
  617MOL0     O83168   2.811   8.252   7.154 -0.3131  0.5434  0.1740
  617MOL0     C83169   2.896   8.136   7.185 -0.3548 -0.2048 -0.2189
  617MOL0     C83170   2.984   8.178   7.303 -0.2692 -0.1874  0.2998
  617MOL0     C83171   3.100   8.095   7.340 -0.2442  0.0011  0.2258
  617MOL0     C83172   3.223   8.099   7.246 -0.0593  0.8477 -0.3046
  617MOL0     C83173   3.347   8.028   7.315  0.7088 -0.3125  0.0427
  617MOL0     C83174   3.484   8.091   7.279  0.3973  0.6758  0.0426
  617MOL0     C83175   3.595   8.018   7.351  0.5939  0.9772 -0.0948
  617MOL0     C83176   3.727   8.074   7.301 -0.6367  0.1285 -0.2643
  617MOL0     N83177   3.836   8.041   7.397 -0.3043 -0.2808 -0.0309
  617MOL0     C83178   3.969   8.013   7.364  0.9243  0.0688  0.2077
  617MOL0     C83179   4.032   7.992   7.485  0.5038 -0.3068  0.5236
  617MOL0     C83180   4.175   7.940   7.509  0.2093 -0.4335 -0.6710
  617MOL0     C83181   4.287   8.018   7.444  0.8998 -0.4587 -1.5058
  617MOL0     C83182   4.276   8.168   7.478 -0.8447 -0.6044 -0.7187
  617MOL0     C83183   4.418   8.225   7.474  0.9444 -0.0774 -0.6174
  617MOL0     O83184   4.477   8.219   7.341 -0.3265 -0.4493 -0.0998
  617MOL0     C83185   4.568   8.117   7.334  0.3729  0.6202  0.6851
  617MOL0     C83186   4.697   8.124   7.393 -0.2470  0.1790  0.0955
  617MOL0     C83187   4.792   8.024   7.367  0.0534  0.0612  1.1554
  617MOL0     C83188   4.764   7.905   7.288 -0.3054 -0.1149  0.9007
  617MOL0     C83189   4.868   7.800   7.267 -0.6154  0.0459  0.5874
  617MOL0     O83190   4.960   7.799   7.366  0.8199 -0.2191  0.4349
  617MOL0     C83191   5.053   7.700   7.372  0.2115  0.3834  1.3878
  617MOL0     C83192   5.017   7.605   7.468 -0.0555  0.0996  0.5701
  617MOL0     C83193   5.118   7.506   7.497  0.5436  0.7699  0.6272
  617MOL0     C83194   5.246   7.488   7.432  0.3108 -0.3732 -0.3764
  617MOL0     O83195   5.337   7.394   7.455 -0.7498 -0.2028 -0.0581
  617MOL0     C83196   5.328   7.337   7.585  0.3904  0.1811 -0.2233
  617MOL0     C83197   5.421   7.211   7.606  0.3156  0.3844  0.9815
  617MOL0     C83198   5.554   7.228   7.537 -0.6242 -0.1836  0.6639
  617MOL0     C83199   5.637   7.106   7.551 -0.4493 -0.3488  0.1032
  617MOL0     C83200   5.765   7.122   7.455  0.1899 -0.5045  0.1778
  617MOL0     C83201   5.874   7.005   7.446  0.3544 -0.4630  0.2097
  617MOL0     C83202   5.908   6.942   7.580 -0.7774 -0.3122 -0.6021
  617MOL0     C83203   5.989   6.812   7.567  0.5270  0.7029 -0.0624
  617MOL0    Cl83204   6.032   6.716   7.718  0.3418 -0.4886  0.1297
  617MOL0     C83205   5.270   7.585   7.330  0.5043 -0.3242  0.2142
  617MOL0     C83206   5.177   7.694   7.308  0.0373  0.4083 -0.1919
  617MOL0     O83207   4.880   7.736   7.166  0.4671  0.2215  0.4838
  617MOL0     C83208   4.637   7.898   7.224  0.5403 -0.7348 -0.4207
  617MOL0     C83209   4.544   8.006   7.243 -0.5094  0.4867 -0.4021
  617MOL0     N83210   3.938   8.030   7.587 -0.2098 -0.7955  0.4999
  617MOL0     N83211   3.823   8.055   7.528 -0.1940 -0.2339 -0.2822
  617MOL0     C83212   2.607   8.352   7.130 -0.1259 -0.2083  0.2718
  617MOL0     C83213   2.469   8.353   7.119  0.3430 -0.3308  0.5541
  617MOL0     C83214   2.022   8.308   7.149 -0.8599  0.4093  0.3177
  617MOL0     C83215   1.931   8.397   7.200 -0.2853 -0.1210  0.0114
  617MOL0     C83216   1.800   8.397   7.180  1.0296 -0.9260  0.2932
  617MOL0     C83217   1.748   8.298   7.102  0.1724  0.7587 -0.5249
  617MOL0     O83218   1.606   8.290   7.098 -0.0920  0.5233 -0.7507
  617MOL0     C83219   1.548   8.217   6.994  0.8991  0.8698 -0.3347
  617MOL0     C83220   1.393   8.243   6.980  0.1712 -0.0838 -0.5088
  617MOL0     C83221   1.316   8.177   7.099 -0.7238  0.1324  1.1095
  617MOL0     C83222   1.168   8.151   7.059 -0.2210  0.9942  0.4539
  617MOL0     C83223   1.158   8.052   6.955 -0.2387 -0.1604 -0.2195
  617MOL0     C83224   1.145   7.985   6.851  0.0509  0.1934  0.8782
  617MOL0     C83225   1.831   8.191   7.056  0.3154 -0.7511  0.0481
  617MOL0     C83226   1.969   8.194   7.072 -0.3092  1.3656  0.1011
  617MOL0     C83227   2.056   8.074   7.027 -0.7261  0.1599 -0.9930
  617MOL0     H83228   2.404   8.032   7.185  4.1159 -3.8066 -1.9556
  617MOL0     H83229   2.655   8.020   7.189 -2.2634 -2.2178 -1.6075
  617MOL0     H83230   2.856   8.041   7.221  0.7434 -0.4381  0.4425
  617MOL0     H83231   2.960   8.106   7.101 -0.8771 -2.4834  0.1462
  617MOL0     H83232   2.918   8.184   7.391  0.9618  1.2803  1.1818
  617MOL0     H83233   3.035   8.274   7.291  0.4665  0.2573  4.9281
  617MOL0     H83234   3.076   7.992   7.369  0.3612 -1.1935 -3.0773
  617MOL0     H83235   3.144   8.147   7.425 -0.4212  1.2754 -0.4333
  617MOL0     H83236   3.200   8.041   7.156  0.1588 -0.7315  0.6249
  617MOL0     H83237   3.251   8.205   7.237  0.8982  0.8661  2.0315
  617MOL0     H83238   3.334   8.026   7.423 -0.5079  0.3310 -0.0725
  617MOL0     H83239   3.351   7.923   7.286 -2.4811 -0.5943  0.3056
  617MOL0     H83240   3.501   8.077   7.172  4.6521  0.2359  0.6066
  617MOL0     H83241   3.483   8.195   7.311 -0.3162  0.4524  0.7740
  617MOL0     H83242   3.594   7.913   7.319  1.8203  1.2519 -1.1063
  617MOL0     H83243   3.596   8.029   7.460 -1.6887 -2.9256  0.5141
  617MOL0     H83244   3.748   8.041   7.198  1.5293  1.5959 -0.3427
  617MOL0     H83245   3.726   8.183   7.295 -0.7988  0.3190  2.3796
  617MOL0     H83246   4.010   7.999   7.265 -1.6463 -1.3748 -0.7765
  617MOL0     H83247   4.187   7.947   7.618  0.7643  0.5860 -0.7818
  617MOL0     H83248   4.177   7.836   7.475 -2.1477 -0.2126 -1.7097
  617MOL0     H83249   4.376   7.981   7.495 -0.3869  1.5574  2.5912
  617MOL0     H83250   4.289   8.009   7.335  2.7521 -0.8455 -1.4786
  617MOL0     H83251   4.249   8.178   7.583  2.4265 -1.4514  0.2951
  617MOL0     H83252   4.207   8.221   7.411 -1.9572  0.0876  0.9169
  617MOL0     H83253   4.478   8.180   7.553  2.0372  0.7289 -0.9636
  617MOL0     H83254   4.418   8.332   7.497 -0.7484 -0.1738  0.0319
  617MOL0     H83255   4.724   8.221   7.434  3.2134 -0.3833 -0.5527
  617MOL0     H83256   4.894   8.041   7.400  1.8450 -2.2256 -2.5620
  617MOL0     H83257   4.926   7.593   7.525 -0.9669 -1.0792 -1.0230
  617MOL0     H83258   5.089   7.425   7.564  2.9372 -1.6793 -1.0975
  617MOL0     H83259   5.368   7.414   7.652 -1.8151 -0.9332  2.5567
  617MOL0     H83260   5.230   7.309   7.623  0.0296 -2.1526 -2.5852
  617MOL0     H83261   5.433   7.190   7.712 -0.1946 -0.5477  0.8679
  617MOL0     H83262   5.369   7.123   7.565  1.6542  1.1273 -2.7337
  617MOL0     H83263   5.530   7.233   7.431  1.1088 -1.9814  0.1251
  617MOL0     H83264   5.609   7.310   7.585  2.5853 -2.0714  0.4926
  617MOL0     H83265   5.577   7.020   7.522 -0.3492 -0.7258  0.9685
  617MOL0     H83266   5.669   7.102   7.656 -0.4588  1.1441  0.1823
  617MOL0     H83267   5.816   7.212   7.493 -1.4475  1.4558 -1.9812
  617MOL0     H83268   5.735   7.150   7.354  3.6904  2.2997 -0.3007
  617MOL0     H83269   5.837   6.925   7.382 -0.2309  1.0258 -1.3734
  617MOL0     H83270   5.958   7.058   7.399 -2.4556  3.1673 -1.1751
  617MOL0     H83271   5.814   6.933   7.636  0.8327  4.6606  3.8021
  617MOL0     H83272   5.970   7.013   7.638  0.3337 -0.2582 -1.8111
  617MOL0     H83273   5.933   6.747   7.499  2.2226 -2.0445  0.9810
  617MOL0     H83274   6.082   6.832   7.513  0.2930  0.3497 -0.5963
  617MOL0     H83275   5.353   7.587   7.260  0.5678  2.0009  0.2709
  617MOL0     H83276   5.191   7.771   7.233 -0.0802 -2.1070 -3.0331
  617MOL0     H83277   4.611   7.812   7.162 -0.3991  1.7123 -3.7295
  617MOL0     H83278   4.464   8.017   7.171 -2.9415  0.8580  2.1783
  617MOL0     H83279   2.668   8.429   7.083 -2.2941  0.6602 -1.2558
  617MOL0     H83280   2.421   8.441   7.077  1.4732 -0.5286 -1.2488
  617MOL0     H83281   1.969   8.477   7.262  0.6945  0.7991 -1.7071
  617MOL0     H83282   1.727   8.464   7.224  0.4348  0.3496 -2.4602
  617MOL0     H83283   1.566   8.112   7.017 -0.2597  0.9219  0.9104
  617MOL0     H83284   1.596   8.238   6.898  0.8207 -1.1777 -0.8743
  617MOL0     H83285   1.351   8.203   6.887 -3.1538 -0.8943  1.2117
  617MOL0     H83286   1.377   8.351   6.989 -1.0830 -0.3808  1.3074
  617MOL0     H83287   1.325   8.242   7.187 -0.6731  4.7122 -1.9454
  617MOL0     H83288   1.366   8.082   7.120  0.0699  0.4613  0.7339
  617MOL0     H83289   1.104   8.114   7.140  0.0067  0.6828  0.4942
  617MOL0     H83290   1.129   8.248   7.028  0.4590  1.3879  0.8033
  617MOL0     H83291   1.128   7.920   6.768  0.4411 -0.7762  1.5489
  617MOL0     H83292   1.789   8.108   6.999 -2.3440 -0.2033  1.0511
  617MOL0     H83293   2.077   8.005   7.109 -1.2935  0.5477 -0.5158
  617MOL0     H83294   1.999   8.007   6.962  0.3973 -0.9009 -0.9203
  617MOL0     H83295   2.148   8.103   6.976  0.3629  0.2684  0.9357
  618MOL0     O83296   7.103  11.243  10.070  0.6110  0.6001  0.5258
  618MOL0     C83297   7.068  11.347  10.016 -0.0811 -0.2084  0.9422
  618MOL0     O83298   7.144  11.422   9.933 -0.2832 -0.5471  0.1985
  618MOL0     C83299   7.271  11.378   9.891  0.9896 -0.2305 -0.4504
  618MOL0     C83300   7.313  11.369   9.755 -0.4425  0.0062 -0.3154
  618MOL0     C83301   7.447  11.332   9.725  0.2987 -0.8728  0.5846
  618MOL0     C83302   7.537  11.300   9.830 -0.1400  0.0887  0.4979
  618MOL0     O83303   7.670  11.266   9.818 -0.3709  0.5167 -0.5997
  618MOL0     C83304   7.726  11.268   9.691 -0.5466  0.3074  0.1604
  618MOL0     C83305   7.883  11.241   9.694  0.2526 -0.2396  0.8870
  618MOL0     C83306   7.970  11.317   9.797  0.1636 -0.6847 -0.2013
  618MOL0     C83307   8.125  11.333   9.766 -0.2761 -0.0357 -0.4076
  618MOL0     C83308   8.207  11.389   9.884  0.2004 -0.4169 -0.6875
  618MOL0     C83309   8.218  11.274   9.985  0.2402  0.2954 -0.1133
  618MOL0     C83310   8.268  11.323  10.122 -1.1161 -0.1340 -0.9826
  618MOL0     C83311   8.252  11.219  10.240  0.3616  0.2887 -0.7055
  618MOL0     N83312   8.292  11.277  10.374  0.2045  0.2446  0.2114
  618MOL0     C83313   8.417  11.318  10.409 -0.3444 -0.5662 -0.4458
  618MOL0     C83314   8.408  11.367  10.535  0.3047 -0.1509  0.0868
  618MOL0     C83315   8.517  11.429  10.626 -0.0168 -0.4001  0.2089
  618MOL0     C83316   8.624  11.327  10.671 -0.3539 -0.7309  0.6550
  618MOL0     C83317   8.698  11.360  10.796 -0.0161  0.4658 -1.1604
  618MOL0     C83318   8.783  11.239  10.836 -0.4081  0.6040 -0.3021
  618MOL0     O83319   8.908  11.232  10.764 -0.5658  0.0035  0.4296
  618MOL0     C83320   9.024  11.296  10.804  0.4012  0.0240  0.1851
  618MOL0     C83321   9.037  11.400  10.893  0.4348 -0.6484  0.1595
  618MOL0     C83322   9.165  11.455  10.926 -0.4030 -1.1042  0.8040
  618MOL0     C83323   9.283  11.402  10.871 -0.9222  0.0715  0.4970
  618MOL0     C83324   9.418  11.453  10.918 -0.1306 -0.0177 -0.2812
  618MOL0     O83325   9.517  11.449  10.824 -0.3844  0.1025 -0.4527
  618MOL0     C83326   9.648  11.466  10.866 -0.2519  1.0639 -0.3655
  618MOL0     C83327   9.726  11.569  10.815 -0.0562 -0.1122 -0.1685
  618MOL0     C83328   9.857  11.581  10.856  0.1639 -0.7067  0.1020
  618MOL0     C83329   9.919  11.494  10.943 -0.9294  0.6511 -0.3895
  618MOL0     O83330  10.055  11.512  10.971 -0.2135  0.3309  0.1109
  618MOL0     C83331  10.124  11.410  11.056  0.7799 -0.0895  0.9191
  618MOL0     C83332  10.272  11.432  11.070 -0.3517  0.8175  0.0002
  618MOL0     C83333  10.335  11.467  10.936  0.3158 -0.0936 -0.2916
  618MOL0     C83334  10.486  11.457  10.929  0.9391 -0.4189  0.1323
  618MOL0     C83335  10.546  11.312  10.920  0.5500 -0.3754 -0.5477
  618MOL0     C83336  10.696  11.307  10.905  0.5068 -0.4010 -0.9870
  618MOL0     C83337  10.752  11.372  10.776 -0.5017 -0.5090 -0.6258
  618MOL0     C83338  10.899  11.351  10.761 -1.0443 -1.0040  0.2768
  618MOL0    Cl83339  10.984  11.455  10.645 -0.7146  0.1049  0.4448
  618MOL0     C83340   9.844  11.386  10.991  0.3413 -0.2403  0.7978
  618MOL0     C83341   9.704  11.375  10.954 -0.3846  0.0995 -0.0271
  618MOL0     O83342   9.432  11.499  11.036 -0.0559  0.4829  0.1627
  618MOL0     C83343   9.266  11.313  10.766 -0.8072 -0.8286  0.0645
  618MOL0     C83344   9.139  11.259  10.744  0.7300  0.4061 -0.4451
  618MOL0     N83345   8.267  11.371  10.568  0.2041  0.4904  0.0449
  618MOL0     N83346   8.205  11.323  10.465 -0.2726  0.0978  0.2219
  618MOL0     C83347   7.494  11.320   9.959  0.1060  0.3322  0.4165
  618MOL0     C83348   7.364  11.359   9.991 -0.0485  0.4709 -0.7222
  618MOL0     C83349   6.931  11.407  10.055 -0.4190  0.5131 -0.3783
  618MOL0     C83350   6.904  11.541  10.018 -0.0933 -1.5249 -0.5548
  618MOL0     C83351   6.776  11.594  10.049 -0.0756 -0.3616 -0.3733
  618MOL0     C83352   6.683  11.520  10.112  0.8995  0.3069 -0.6295
  618MOL0     O83353   6.558  11.549  10.152  0.3305 -0.0681  0.1320
  618MOL0     C83354   6.506  11.682  10.137 -0.1490  0.3546  1.1144
  618MOL0     C83355   6.393  11.709  10.234 -0.1030  0.3269  0.4353
  618MOL0     C83356   6.270  11.649  10.183  1.0174  0.1702  0.3062
  618MOL0     C83357   6.139  11.682  10.256 -0.3406 -0.5497  0.0775
  618MOL0     C83358   6.150  11.648  10.400 -0.3869  0.4894  0.0317
  618MOL0     C83359   6.163  11.631  10.520 -0.1490  0.7485  0.3926
  618MOL0     C83360   6.713  11.388  10.157  0.4398  0.0760  1.2879
  618MOL0     C83361   6.839  11.332  10.131 -0.1193  0.1632 -1.1685
  618MOL0     C83362   6.845  11.189  10.166  0.2238  0.1183  0.6182
  618MOL0     H83363   7.256  11.377   9.663 -0.2859 -1.6447 -0.5951
  618MOL0     H83364   7.472  11.327   9.619 -1.2930  2.0259 -0.0108
  618MOL0     H83365   7.695  11.178   9.638  1.5450 -0.6088  0.4102
  618MOL0     H83366   7.712  11.360   9.633  0.8931  0.5709  0.2018
  618MOL0     H83367   7.916  11.266   9.592  0.1709 -2.0527  0.3916
  618MOL0     H83368   7.911  11.136   9.700  1.6875 -0.5353 -4.6750
  618MOL0     H83369   7.956  11.253   9.885  1.7893 -1.0607 -0.1913
  618MOL0     H83370   7.925  11.416   9.812  0.8806  0.3554 -4.0035
  618MOL0     H83371   8.159  11.235   9.729 -2.9752 -0.8521 -0.9077
  618MOL0     H83372   8.152  11.391   9.677 -0.3374 -0.5324 -0.7595
  618MOL0     H83373   8.307  11.428   9.861  1.0055 -3.0796 -2.0147
  618MOL0     H83374   8.157  11.477   9.926 -0.8982  0.7398 -4.0647
  618MOL0     H83375   8.123  11.223  10.002  0.6727 -0.3354  0.4602
  618MOL0     H83376   8.273  11.191   9.939  0.0140 -0.4850  0.9842
  618MOL0     H83377   8.221  11.416  10.154  0.2820 -0.5475  2.7120
  618MOL0     H83378   8.374  11.342  10.100 -0.9273 -0.0256 -0.0051
  618MOL0     H83379   8.149  11.183  10.248 -0.1422  1.3980 -1.8718
  618MOL0     H83380   8.314  11.131  10.218 -0.5606 -1.0768  1.7753
  618MOL0     H83381   8.506  11.306  10.348 -0.5206 -3.1885 -0.2983
  618MOL0     H83382   8.562  11.515  10.576 -1.0482 -1.3731 -2.5870
  618MOL0     H83383   8.479  11.474  10.717  0.3478  1.3258 -0.4585
  618MOL0     H83384   8.586  11.227  10.694  2.0097 -1.4961  1.4940
  618MOL0     H83385   8.702  11.318  10.595 -0.4903  0.6656  0.3266
  618MOL0     H83386   8.622  11.378  10.873  1.3121  0.1676  0.2585
  618MOL0     H83387   8.765  11.446  10.789 -1.1741  1.4317 -0.8649
  618MOL0     H83388   8.729  11.145  10.824  1.1364 -0.5137  0.9956
  618MOL0     H83389   8.809  11.265  10.939  2.0015  3.1063 -1.3869
  618MOL0     H83390   8.943  11.439  10.931 -0.4687 -0.5530 -2.0417
  618MOL0     H83391   9.174  11.548  10.982  1.6885 -0.1874 -0.9451
  618MOL0     H83392   9.689  11.629  10.732 -0.6311 -1.0338 -0.5948
  618MOL0     H83393   9.909  11.666  10.813  0.7848  0.3989  2.8420
  618MOL0     H83394  10.083  11.399  11.157 -0.1140 -3.0799  0.3184
  618MOL0     H83395  10.110  11.314  11.006 -0.3582  0.0095  1.0205
  618MOL0     H83396  10.287  11.512  11.143  0.2564 -2.2114  3.5013
  618MOL0     H83397  10.319  11.343  11.112 -5.0089 -0.8939  2.2919
  618MOL0     H83398  10.296  11.404  10.855 -0.4966 -0.4045  0.3224
  618MOL0     H83399  10.300  11.566  10.905 -0.3631 -0.2083  0.0750
  618MOL0     H83400  10.519  11.513  11.016  1.2285  2.7792 -1.8554
  618MOL0     H83401  10.511  11.508  10.835 -3.6343 -0.0659 -1.1582
  618MOL0     H83402  10.490  11.255  10.845 -1.9774  2.0857 -0.6944
  618MOL0     H83403  10.514  11.273  11.017 -0.8761  1.5889 -0.1666
  618MOL0     H83404  10.736  11.353  10.996 -2.6807 -2.3710  1.6484
  618MOL0     H83405  10.722  11.200  10.910  1.3229 -0.2082 -0.8777
  618MOL0     H83406  10.748  11.481  10.771  0.1334 -0.5259 -1.8285
  618MOL0     H83407  10.695  11.339  10.690 -2.2099 -0.1762  0.3418
  618MOL0     H83408  10.954  11.369  10.853 -1.2904  0.5237  0.1407
  618MOL0     H83409  10.917  11.248  10.728 -1.3345 -0.9375 -0.0992
  618MOL0     H83410   9.887  11.303  11.045  0.8193 -0.5340 -0.0228
  618MOL0     H83411   9.638  11.295  10.988 -1.9511  1.7080  0.8577
  618MOL0     H83412   9.352  11.277  10.712  0.4820 -0.3007  1.6638
  618MOL0     H83413   9.120  11.178  10.674 -2.4760  1.9870 -1.6238
  618MOL0     H83414   7.550  11.304  10.051 -0.9395  1.7032  1.3325
  618MOL0     H83415   7.336  11.363  10.096  2.2830 -1.3146  0.0581
  618MOL0     H83416   6.981  11.595   9.965 -1.2713  3.4709  2.1933
  618MOL0     H83417   6.773  11.696  10.013 -0.6169 -0.4485 -0.5869
  618MOL0     H83418   6.478  11.709  10.035 -0.1741 -0.9920  0.7415
  618MOL0     H83419   6.587  11.750  10.164 -1.3115  2.1984  0.1400
  618MOL0     H83420   6.368  11.816  10.230 -0.9510  0.1005 -0.9374
  618MOL0     H83421   6.420  11.675  10.335  1.8876  2.9502  0.9031
  618MOL0     H83422   6.285  11.540  10.185 -2.0747 -0.3393  1.1309
  618MOL0     H83423   6.240  11.677  10.081 -1.0550 -0.9725  0.5314
  618MOL0     H83424   6.121  11.789  10.239 -2.0887 -0.7680  0.3424
  618MOL0     H83425   6.051  11.639  10.208 -1.3523  0.0768  1.2993
  618MOL0     H83426   6.203  11.612  10.617 -0.9063 -0.8347  0.4301
  618MOL0     H83427   6.633  11.335  10.208  0.7600  0.4579  2.2125
  618MOL0     H83428   6.930  11.174  10.233  2.2583  1.1428 -1.6066
  618MOL0     H83429   6.753  11.152  10.212 -0.4314  0.7725 -0.1294
  618MOL0     H83430   6.857  11.133  10.073  0.9731  4.1069 -1.9127
  619MOL0     O83431   6.378   1.462  10.131  0.4711 -0.0582  0.9466
  619MOL0     C83432   6.330   1.470  10.241  0.0400  0.0287 -0.1444
  619MOL0     O83433   6.394   1.414  10.353  0.7904  0.3850 -0.0797
  619MOL0     C83434   6.501   1.331  10.341  1.1968  0.5864 -0.3292
  619MOL0     C83435   6.611   1.356  10.251 -0.1919 -0.2834 -1.1551
  619MOL0     C83436   6.714   1.261  10.241 -0.5388  0.7468 -0.1652
  619MOL0     C83437   6.713   1.145  10.323  0.0092 -0.2902 -0.7599
  619MOL0     O83438   6.811   1.050  10.306  0.4494 -0.4553  1.0612
  619MOL0     C83439   6.791   0.920  10.360 -0.3955 -0.7078  0.2464
  619MOL0     C83440   6.912   0.837  10.325  0.5274  0.2958  0.4434
  619MOL0     C83441   6.897   0.691  10.389  0.1674  0.0325 -0.5134
  619MOL0     C83442   6.976   0.578  10.323 -0.7153 -0.5595  0.2812
  619MOL0     C83443   6.968   0.454  10.404  0.0278  0.8870  0.4624
  619MOL0     C83444   7.025   0.327  10.339  0.4605 -0.1825  0.6478
  619MOL0     C83445   7.174   0.351  10.288  0.7901 -0.1001 -1.3221
  619MOL0     C83446   7.231   0.213  10.269 -0.0820  0.0351  0.4241
  619MOL0     N83447   7.266   0.126  10.383 -0.0771  0.8607  0.1250
  619MOL0     C83448   7.208  -0.000  10.404  0.8504 -0.3489 -0.3502
  619MOL0     C83449   7.284  -0.061  10.503  0.8659  0.8521 -0.1512
  619MOL0     C83450   7.273  -0.200  10.552  0.0029  0.2090 -0.4169
  619MOL0     C83451   7.145  -0.222  10.633 -0.7666 -0.1684  0.0894
  619MOL0     C83452   7.081  -0.363  10.604  0.5222 -0.4365  0.2468
  619MOL0     C83453   7.173  -0.485  10.611 -0.6036 -0.0552  1.0204
  619MOL0     O83454   7.111  -0.604  10.555  0.3303 -0.0409  0.0048
  619MOL0     C83455   7.192  -0.718  10.551  0.0054 -0.1470 -0.4996
  619MOL0     C83456   7.332  -0.714  10.561  0.4966 -0.1489 -0.1599
  619MOL0     C83457   7.400  -0.832  10.553 -1.5069 -0.3782  0.1623
  619MOL0     C83458   7.334  -0.964  10.541 -0.0108 -0.5044  0.1947
  619MOL0     C83459   7.412  -1.086  10.542  0.2301 -0.0671 -0.6840
  619MOL0     O83460   7.530  -1.073  10.607  0.2711 -0.0577 -0.1231
  619MOL0     C83461   7.628  -1.167  10.598  0.1524  0.1584  0.2579
  619MOL0     C83462   7.747  -1.135  10.524  0.5300 -0.0266 -0.0152
  619MOL0     C83463   7.838  -1.245  10.508  0.5105  0.2263 -0.8236
  619MOL0     C83464   7.827  -1.357  10.575  0.1384  0.3860  0.0770
  619MOL0     O83465   7.927  -1.446  10.555  0.2680  0.2704 -0.1218
  619MOL0     C83466   7.896  -1.584  10.542  0.6092 -0.5723  0.1788
  619MOL0     C83467   8.003  -1.674  10.599 -0.1538  0.1228 -0.6297
  619MOL0     C83468   8.020  -1.662  10.754  0.1308 -0.0738 -0.8231
  619MOL0     C83469   8.129  -1.748  10.814  0.4583 -0.7891 -0.2015
  619MOL0     C83470   8.253  -1.657  10.840 -0.8384  0.0049  0.6859
  619MOL0     C83471   8.368  -1.754  10.878 -0.0998 -0.4091 -0.1804
  619MOL0     C83472   8.493  -1.670  10.884 -0.1017  0.3309  1.0677
  619MOL0     C83473   8.613  -1.764  10.914 -0.1399  0.6429 -0.8990
  619MOL0    Cl83474   8.773  -1.679  10.892  0.0723 -0.2339  0.0781
  619MOL0     C83475   7.720  -1.378  10.666 -0.5991 -0.0029 -0.2608
  619MOL0     C83476   7.618  -1.289  10.672  0.5586  0.1127  1.0402
  619MOL0     O83477   7.367  -1.187  10.482 -0.7992  0.1451  0.1555
  619MOL0     C83478   7.199  -0.962  10.513 -0.4262  0.1250  0.7559
  619MOL0     C83479   7.134  -0.842  10.521 -0.2129 -0.4429  0.7564
  619MOL0     N83480   7.376   0.038  10.549  0.2359 -0.2043 -0.9715
  619MOL0     N83481   7.357   0.145  10.478 -0.0684  0.9759 -0.6144
  619MOL0     C83482   6.607   1.126  10.413 -0.6247 -0.0030 -0.7541
  619MOL0     C83483   6.506   1.219  10.424  0.1621 -0.0241 -0.0867
  619MOL0     C83484   6.194   1.529  10.247 -0.8227  0.4971  0.6471
  619MOL0     C83485   6.138   1.610  10.134 -0.2913 -0.0178  0.4585
  619MOL0     C83486   6.005   1.659  10.145 -0.7485 -0.6604  0.5506
  619MOL0     C83487   5.913   1.614  10.246  0.2063 -0.3844 -0.4778
  619MOL0     O83488   5.787   1.654  10.264  0.3897 -0.1678  0.2475
  619MOL0     C83489   5.753   1.787  10.218  0.8830  0.1237 -0.0728
  619MOL0     C83490   5.615   1.830  10.277 -0.3553  0.2940 -0.3857
  619MOL0     C83491   5.607   1.834  10.435  0.9283  0.2932  0.0734
  619MOL0     C83492   5.704   1.922  10.509 -0.2872  0.1060  0.3297
  619MOL0     C83493   5.646   2.057  10.526  0.1955 -0.4717 -0.2576
  619MOL0     C83494   5.595   2.164  10.536 -0.0515 -0.6692  0.2630
  619MOL0     C83495   5.965   1.538  10.351 -0.5326  0.0676 -0.4552
  619MOL0     C83496   6.099   1.492  10.348  0.0768 -0.0899 -0.3667
  619MOL0     C83497   6.139   1.410  10.468  0.1084  0.7917 -0.3381
  619MOL0     H83498   6.611   1.453  10.202  1.0969  1.5290  2.1199
  619MOL0     H83499   6.807   1.269  10.186 -0.3675  1.7153  0.2335
  619MOL0     H83500   6.788   0.911  10.469  0.6457 -2.7313  0.1416
  619MOL0     H83501   6.702   0.867  10.325  1.1152 -3.6571  0.6026
  619MOL0     H83502   7.000   0.884  10.369 -0.6891  1.1077  2.1497
  619MOL0     H83503   6.924   0.827  10.216  0.1487  1.2607  0.3030
  619MOL0     H83504   6.793   0.657  10.384  0.2750 -0.2487 -0.9273
  619MOL0     H83505   6.921   0.696  10.495 -0.1317  0.3365 -0.4589
  619MOL0     H83506   6.937   0.573  10.221  0.6423  1.5385 -0.4131
  619MOL0     H83507   7.082   0.604  10.319 -0.9755  0.4135 -1.3467
  619MOL0     H83508   7.018   0.474  10.499  1.9887 -0.6503 -0.1776
  619MOL0     H83509   6.863   0.433  10.425 -0.2376  2.3949  0.7753
  619MOL0     H83510   7.027   0.255  10.421  1.1351 -1.0405 -0.0893
  619MOL0     H83511   6.962   0.297  10.254 -0.2771  1.6138  0.5084
  619MOL0     H83512   7.229   0.410  10.361 -0.7135  1.3606 -1.3143
  619MOL0     H83513   7.173   0.413  10.197  1.9031  0.5798 -0.8931
  619MOL0     H83514   7.151   0.162  10.214 -1.3608 -0.6182  2.7661
  619MOL0     H83515   7.323   0.236  10.214 -1.3192  2.4128 -0.8209
  619MOL0     H83516   7.123  -0.044  10.352  0.2646  1.0228 -0.5960
  619MOL0     H83517   7.273  -0.265  10.464 -0.5131  1.0038 -1.0129
  619MOL0     H83518   7.363  -0.229  10.608 -0.6101  1.5313  1.3779
  619MOL0     H83519   7.166  -0.229  10.740 -1.5369 -0.9607  0.1973
  619MOL0     H83520   7.072  -0.148  10.599  0.4293 -0.2108 -2.8924
  619MOL0     H83521   7.039  -0.358  10.503 -0.4463  0.0844  0.6635
  619MOL0     H83522   6.995  -0.381  10.670  1.6056 -2.3418  1.2352
  619MOL0     H83523   7.197  -0.503  10.717  1.6483 -1.2278  0.3741
  619MOL0     H83524   7.261  -0.455  10.554 -1.1618  2.2028  1.2440
  619MOL0     H83525   7.391  -0.624  10.576  0.7552 -0.4404  0.6388
  619MOL0     H83526   7.507  -0.820  10.567 -1.8257  0.2332  2.3145
  619MOL0     H83527   7.760  -1.043  10.467 -1.1847  0.0023 -0.3955
  619MOL0     H83528   7.926  -1.249  10.446  0.7594 -1.0690 -0.4101
  619MOL0     H83529   7.800  -1.612  10.585 -1.8556  0.7257 -3.8943
  619MOL0     H83530   7.871  -1.592  10.436 -1.0332  1.4635  0.3424
  619MOL0     H83531   7.973  -1.778  10.578 -4.0926  1.4082 -2.2816
  619MOL0     H83532   8.099  -1.653  10.552  1.9735 -0.4009  3.1521
  619MOL0     H83533   8.040  -1.564  10.799 -2.0576 -0.0360  0.2184
  619MOL0     H83534   7.929  -1.695  10.806  2.0713 -2.0225  1.5720
  619MOL0     H83535   8.155  -1.822  10.738 -1.2516 -0.5383 -1.0802
  619MOL0     H83536   8.089  -1.798  10.903 -0.5869 -0.8368 -0.6867
  619MOL0     H83537   8.244  -1.582  10.919  0.6420  0.1640  0.7267
  619MOL0     H83538   8.275  -1.600  10.750 -0.5571 -1.0873  0.0482
  619MOL0     H83539   8.358  -1.814  10.968  0.8821 -0.1798  0.0962
  619MOL0     H83540   8.375  -1.836  10.806  0.1856 -3.2221  2.8172
  619MOL0     H83541   8.488  -1.591  10.959  0.7081 -0.1926  1.6806
  619MOL0     H83542   8.505  -1.628  10.784 -2.7746 -0.8488  0.1506
  619MOL0     H83543   8.600  -1.810  11.012 -0.2414  2.1859 -0.1600
  619MOL0     H83544   8.596  -1.842  10.839 -3.4059  1.5604 -1.2610
  619MOL0     H83545   7.733  -1.461  10.736  0.0338  0.1206 -0.2295
  619MOL0     H83546   7.537  -1.295  10.744  0.4279  0.8481  0.9656
  619MOL0     H83547   7.150  -1.057  10.493  0.5771 -0.2711  0.0765
  619MOL0     H83548   7.025  -0.849  10.518 -0.5041  2.5358  1.2990
  619MOL0     H83549   6.602   1.042  10.481 -2.1888  1.0160  0.4669
  619MOL0     H83550   6.427   1.200  10.496  0.5951  3.5140  1.5393
  619MOL0     H83551   6.202   1.647  10.054  0.7962 -0.1350  1.2443
  619MOL0     H83552   5.965   1.722  10.066  0.4458  2.9301  2.5724
  619MOL0     H83553   5.743   1.773  10.110  3.0454  0.4957 -0.3654
  619MOL0     H83554   5.830   1.861  10.240  0.5118 -0.1220  2.3162
  619MOL0     H83555   5.531   1.765  10.253 -0.4592 -0.6372  2.2034
  619MOL0     H83556   5.591   1.932  10.246 -0.3995  0.7169  0.9509
  619MOL0     H83557   5.625   1.733  10.472  1.8272  0.7105  0.8076
  619MOL0     H83558   5.506   1.860  10.469  1.3526  1.9195  0.1877
  619MOL0     H83559   5.733   1.873  10.602 -0.2261 -1.4402 -0.4641
  619MOL0     H83560   5.794   1.942  10.449  0.6394 -0.7198  1.3929
  619MOL0     H83561   5.558   2.264  10.537  2.6447  0.4040 -0.0637
  619MOL0     H83562   5.900   1.508  10.433 -0.6154 -0.4347 -0.7018
  619MOL0     H83563   6.214   1.463  10.526 -1.0381  2.3318 -0.1834
  619MOL0     H83564   6.055   1.380  10.531 -0.6488 -1.0468 -2.1099
  619MOL0     H83565   6.188   1.317  10.438 -0.5436 -0.0114  0.9804
  620MOL0     O83566  11.252   1.726   6.003  0.2470 -1.5065  0.0698
  620MOL0     C83567  11.209   1.845   6.017  0.0407 -0.4577 -1.0520
  620MOL0     O83568  11.260   1.936   6.106  0.7444  0.1950 -0.7499
  620MOL0     C83569  11.387   1.913   6.136 -0.2549 -0.3865 -0.0028
  620MOL0     C83570  11.419   1.866   6.259 -0.1653  0.1128 -0.6963
  620MOL0     C83571  11.553   1.848   6.293 -0.2196 -0.2158  0.3121
  620MOL0     C83572  11.656   1.864   6.197  0.4144 -0.6030 -0.4161
  620MOL0     O83573  11.779   1.817   6.240  0.0702  0.3987  0.3314
  620MOL0     C83574  11.896   1.824   6.156 -0.0901 -0.4517 -0.3855
  620MOL0     C83575  12.010   1.921   6.216 -0.1879  0.3001 -0.2192
  620MOL0     C83576  12.099   1.997   6.114 -0.3097 -1.1627 -0.0590
  620MOL0     C83577  12.203   2.063   6.210 -0.2098 -0.7564  0.6447
  620MOL0     C83578  12.269   2.176   6.145  0.5055 -0.2993  0.4999
  620MOL0     C83579  12.364   2.235   6.240 -0.1948 -0.1949 -0.8876
  620MOL0     C83580  12.433   2.342   6.159  0.1097 -0.6869 -0.6021
  620MOL0     C83581  12.543   2.418   6.231 -0.5026  0.2883 -0.5012
  620MOL0     N83582  12.658   2.335   6.266  0.0972  0.5269 -0.2469
  620MOL0     C83583  12.689   2.284   6.390  0.1781 -0.7115  0.0354
  620MOL0     C83584  12.813   2.237   6.388 -0.2702  0.0921 -0.2810
  620MOL0     C83585  12.879   2.189   6.506 -0.0170  0.0403  1.0385
  620MOL0     C83586  12.982   2.280   6.565  0.7373  0.1217  0.1974
  620MOL0     C83587  13.051   2.209   6.681 -0.2316  0.0470  0.8877
  620MOL0     C83588  13.169   2.307   6.733 -0.1310  0.0121  0.9334
  620MOL0     O83589  13.288   2.317   6.648  0.5547  0.0180  0.6255
  620MOL0     C83590  13.403   2.369   6.696  0.1324  0.8240  0.6660
  620MOL0     C83591  13.494   2.404   6.603 -0.8075 -0.1693  0.1366
  620MOL0     C83592  13.620   2.443   6.633 -0.5668  0.1033  0.8573
  620MOL0     C83593  13.654   2.475   6.768  0.0222  0.0686 -0.0356
  620MOL0     C83594  13.791   2.516   6.804  0.2801 -0.3408 -0.2792
  620MOL0     O83595  13.831   2.479   6.927 -0.4019  0.2782 -0.7624
  620MOL0     C83596  13.959   2.525   6.955  0.1990 -1.3886 -0.6405
  620MOL0     C83597  13.960   2.611   7.059  0.0854 -0.5652 -0.8890
  620MOL0     C83598  14.078   2.667   7.105 -0.0911  0.2722 -0.0848
  620MOL0     C83599  14.205   2.639   7.050 -0.1764 -0.1218  0.5375
  620MOL0     O83600  14.328   2.696   7.075 -0.4298  0.2457 -0.6427
  620MOL0     C83601  14.324   2.793   7.180  0.0099  0.3226  0.4984
  620MOL0     C83602  14.449   2.874   7.181  0.7031 -0.1383 -0.4876
  620MOL0     C83603  14.573   2.790   7.210 -0.4736  1.1787  0.6981
  620MOL0     C83604  14.686   2.883   7.245  0.3796  0.7051  0.4173
  620MOL0     C83605  14.815   2.801   7.257  0.5514  0.6216 -0.7082
  620MOL0     C83606  14.933   2.890   7.295 -0.2754  0.8226  0.4753
  620MOL0     C83607  14.969   2.993   7.197  1.2797  0.0378  1.0488
  620MOL0     C83608  15.101   3.060   7.243  0.3804  0.0380  0.5052
  620MOL0    Cl83609  15.242   2.970   7.190 -0.4159  0.2130 -0.0041
  620MOL0     C83610  14.195   2.540   6.949 -0.1621 -0.7437 -0.3844
  620MOL0     C83611  14.082   2.478   6.906 -0.5251 -0.2049  0.0295
  620MOL0     O83612  13.864   2.562   6.715  0.0304  0.1322 -0.3367
  620MOL0     C83613  13.554   2.452   6.865  0.5480 -0.0685  0.0718
  620MOL0     C83614  13.432   2.392   6.833  0.3327  0.4540 -0.2358
  620MOL0     N83615  12.860   2.257   6.263  0.0274  0.3441  1.0694
  620MOL0     N83616  12.774   2.322   6.192 -0.2824  0.1590 -0.0416
  620MOL0     C83617  11.627   1.919   6.075  0.7831  0.5184  0.4254
  620MOL0     C83618  11.487   1.949   6.046 -0.7271 -0.0486 -0.4567
  620MOL0     C83619  11.088   1.886   5.935 -0.1615 -0.3490  0.0379
  620MOL0     C83620  10.987   1.785   5.913 -0.9668  0.5331 -0.4054
  620MOL0     C83621  10.873   1.802   5.845 -0.6531  0.2191 -0.5395
  620MOL0     C83622  10.844   1.926   5.790 -0.5442  0.4107 -0.2205
  620MOL0     O83623  10.731   1.944   5.712  0.2564 -0.3129 -0.4283
  620MOL0     C83624  10.611   1.867   5.734 -0.8534  0.2412  0.2665
  620MOL0     C83625  10.538   1.904   5.866 -0.2991  0.6080  0.2072
  620MOL0     C83626  10.438   1.795   5.899 -0.1691 -0.2330 -0.6837
  620MOL0     C83627  10.351   1.749   5.783  0.5493 -0.0919  0.1774
  620MOL0     C83628  10.244   1.651   5.813  0.0925 -0.1520 -0.0131
  620MOL0     C83629  10.150   1.577   5.813 -1.2488  0.0383 -0.2182
  620MOL0     C83630  10.946   2.026   5.793  0.8816  0.1834  0.2965
  620MOL0     C83631  11.058   2.009   5.866 -0.9200  0.3878  0.0518
  620MOL0     C83632  11.162   2.122   5.881 -0.3274 -0.1554  0.1567
  620MOL0     H83633  11.332   1.830   6.312  1.0428 -0.9525  0.6625
  620MOL0     H83634  11.587   1.817   6.391  0.7825  2.3774  0.8892
  620MOL0     H83635  11.944   1.726   6.145  2.2264  0.3195  1.9450
  620MOL0     H83636  11.879   1.872   6.059  0.5503 -1.1153 -0.8299
  620MOL0     H83637  12.078   1.856   6.271 -3.3215 -2.6196  0.5227
  620MOL0     H83638  11.959   1.991   6.284 -1.3718  0.2109 -0.9817
  620MOL0     H83639  12.050   2.071   6.051 -1.5734 -0.4763  1.6352
  620MOL0     H83640  12.146   1.920   6.052  1.1749 -0.3035 -0.0318
  620MOL0     H83641  12.159   2.100   6.303  0.5955 -0.5493  0.9512
  620MOL0     H83642  12.282   1.990   6.228 -0.8694 -1.5796  0.2837
  620MOL0     H83643  12.312   2.142   6.050 -1.3933  1.4578 -1.0797
  620MOL0     H83644  12.201   2.256   6.116  1.9598  1.2734  1.2802
  620MOL0     H83645  12.324   2.290   6.326 -0.1539  0.6307 -1.3819
  620MOL0     H83646  12.437   2.163   6.276  0.1019 -1.0578 -3.0438
  620MOL0     H83647  12.358   2.416   6.129  1.7573 -0.3688 -4.5928
  620MOL0     H83648  12.468   2.302   6.063 -1.8209  1.9700 -2.5727
  620MOL0     H83649  12.577   2.495   6.161 -1.4246  0.1538 -1.1139
  620MOL0     H83650  12.499   2.461   6.322  1.9546 -1.2828  1.5772
  620MOL0     H83651  12.632   2.295   6.482  0.6270 -3.0215  0.6548
  620MOL0     H83652  12.811   2.160   6.587 -1.2522  2.3175  0.9015
  620MOL0     H83653  12.930   2.096   6.481  0.2802  0.7021 -0.9968
  620MOL0     H83654  13.052   2.303   6.484  0.5700  0.2264  0.0824
  620MOL0     H83655  12.952   2.379   6.599  3.3207  1.3334 -0.8151
  620MOL0     H83656  13.091   2.115   6.640 -0.5762 -0.2545  1.2344
  620MOL0     H83657  12.984   2.184   6.764 -0.5865  0.1394  0.6310
  620MOL0     H83658  13.193   2.279   6.835 -1.2793 -1.6133  0.7846
  620MOL0     H83659  13.128   2.408   6.745  0.1622  0.1894  0.4711
  620MOL0     H83660  13.470   2.394   6.498 -0.1981  1.3964 -0.1938
  620MOL0     H83661  13.693   2.448   6.553 -2.2853 -0.6727 -0.8434
  620MOL0     H83662  13.866   2.654   7.092 -0.3221 -0.8950 -1.6073
  620MOL0     H83663  14.067   2.738   7.186  0.7292 -0.9116  1.0906
  620MOL0     H83664  14.251   2.866   7.145  1.1692 -0.4454 -4.0680
  620MOL0     H83665  14.298   2.751   7.278 -1.9087  2.9583  1.2305
  620MOL0     H83666  14.449   2.918   7.081 -0.8297  0.1491 -0.3916
  620MOL0     H83667  14.423   2.956   7.249  0.1040  0.3588 -1.2959
  620MOL0     H83668  14.555   2.721   7.293 -0.3941 -3.5099 -2.7847
  620MOL0     H83669  14.594   2.725   7.124 -0.4403  2.1183 -0.0179
  620MOL0     H83670  14.669   2.934   7.341  0.4864 -1.1535  1.4818
  620MOL0     H83671  14.708   2.945   7.158  0.7133  1.3895  0.9857
  620MOL0     H83672  14.838   2.759   7.158  0.5893 -0.7439 -0.1454
  620MOL0     H83673  14.803   2.729   7.338 -1.8795  0.7653 -0.8739
  620MOL0     H83674  14.905   2.933   7.392 -1.6089  1.7658 -0.2963
  620MOL0     H83675  15.024   2.832   7.311  0.0161  0.7224 -1.3666
  620MOL0     H83676  14.892   3.071   7.193 -0.0013 -1.2297  0.1195
  620MOL0     H83677  14.980   2.947   7.099  1.5258  0.0667  1.0613
  620MOL0     H83678  15.109   3.162   7.202  1.3217 -0.8121 -1.5587
  620MOL0     H83679  15.098   3.060   7.352  2.1196 -3.7569  0.6980
  620MOL0     H83680  14.296   2.516   6.915  1.1948  2.1181  1.2861
  620MOL0     H83681  14.078   2.395   6.836  1.2043  0.6357 -1.1464
  620MOL0     H83682  13.578   2.471   6.969  4.1691 -0.9705 -0.4502
  620MOL0     H83683  13.365   2.368   6.915  0.9041  3.0804  1.1016
  620MOL0     H83684  11.702   1.936   5.999  3.4920 -2.3722  2.2200
  620MOL0     H83685  11.455   1.990   5.951  1.1248  1.5721 -0.4280
  620MOL0     H83686  11.001   1.685   5.954 -0.8901 -0.5800 -2.9355
  620MOL0     H83687  10.818   1.711   5.822  0.7028 -0.3896 -1.5382
  620MOL0     H83688  10.635   1.760   5.742  0.2951  0.4896  0.2217
  620MOL0     H83689  10.547   1.870   5.645  2.8004 -0.9137 -2.6735
  620MOL0     H83690  10.484   1.998   5.852 -0.7036  0.7784  2.4959
  620MOL0     H83691  10.610   1.920   5.947 -1.1067 -1.3072  1.3778
  620MOL0     H83692  10.364   1.839   5.966 -0.5484 -1.5680 -0.2003
  620MOL0     H83693  10.481   1.706   5.947  0.9367 -0.0693 -1.3457
  620MOL0     H83694  10.307   1.838   5.736  1.0598  1.1685  1.9680
  620MOL0     H83695  10.408   1.701   5.704 -1.7745 -0.4824 -1.3663
  620MOL0     H83696  10.068   1.508   5.822 -1.7243  0.3362 -1.9147
  620MOL0     H83697  10.923   2.124   5.752  0.4559  0.4437  1.1255
  620MOL0     H83698  11.260   2.096   5.839  0.1094  0.8367  0.5320
  620MOL0     H83699  11.131   2.209   5.823  0.4768 -0.4729 -0.7850
  620MOL0     H83700  11.187   2.147   5.984  0.9186 -0.5710 -0.0266
  621MOL0     O83701   9.773   1.859   8.644 -0.3845  0.5190  0.3388
  621MOL0     C83702   9.832   1.762   8.620  0.2832  0.3045  0.6415
  621MOL0     O83703   9.779   1.638   8.637 -0.3660 -0.2890  1.1650
  621MOL0     C83704   9.659   1.606   8.696 -0.4871  0.2032  0.2020
  621MOL0     C83705   9.551   1.689   8.722  0.1875  0.1565  0.3636
  621MOL0     C83706   9.428   1.637   8.766  0.7573 -0.0341 -0.3977
  621MOL0     C83707   9.410   1.501   8.806  0.0160 -0.3955  0.9740
  621MOL0     O83708   9.287   1.475   8.851  0.4641 -0.4104  0.0063
  621MOL0     C83709   9.261   1.336   8.896  0.3415 -0.4778 -0.4804
  621MOL0     C83710   9.118   1.343   8.950  0.4400 -0.6151 -0.2345
  621MOL0     C83711   9.062   1.207   9.004 -0.0268  0.6480  0.5977
  621MOL0     C83712   9.098   1.086   8.905 -0.3117 -0.5738  0.8149
  621MOL0     C83713   9.014   0.955   8.929 -0.7076  0.1913  0.1719
  621MOL0     C83714   9.040   0.889   9.063 -0.3217  0.7655 -0.5364
  621MOL0     C83715   8.971   0.754   9.084 -0.1131  0.0852 -0.0120
  621MOL0     C83716   8.814   0.748   9.043 -0.2268 -0.8814  0.6367
  621MOL0     N83717   8.728   0.816   9.135 -0.9498 -0.2517  0.9819
  621MOL0     C83718   8.667   0.760   9.235 -0.3780  0.6200 -0.2406
  621MOL0     C83719   8.589   0.851   9.292 -0.6999  0.0880  0.1591
  621MOL0     C83720   8.502   0.829   9.403  0.1940 -0.7733 -0.8427
  621MOL0     C83721   8.461   0.949   9.485  0.1476 -0.4976 -0.9013
  621MOL0     C83722   8.561   1.003   9.590  0.1249 -0.5150  0.0981
  621MOL0     C83723   8.684   1.070   9.534 -0.1868 -0.1283 -0.2456
  621MOL0     O83724   8.760   1.121   9.647 -0.5312  0.1315  0.0208
  621MOL0     C83725   8.860   1.204   9.624 -0.4452  1.1702 -0.2098
  621MOL0     C83726   8.931   1.226   9.500  0.0018 -0.1837  0.1066
  621MOL0     C83727   9.059   1.287   9.505  0.4548  1.1556 -0.6294
  621MOL0     C83728   9.112   1.325   9.626 -0.2416  0.2156  0.4314
  621MOL0     C83729   9.248   1.378   9.641  0.3480  0.2104 -0.0606
  621MOL0     O83730   9.311   1.409   9.528 -0.6913 -0.5545 -0.0406
  621MOL0     C83731   9.431   1.475   9.530 -0.5304  0.0796  0.3619
  621MOL0     C83732   9.543   1.437   9.614  0.5770  0.1334 -0.4650
  621MOL0     C83733   9.662   1.511   9.617  0.1681  0.2560 -0.4415
  621MOL0     C83734   9.674   1.624   9.532 -0.1404  0.0293 -0.3551
  621MOL0     O83735   9.801   1.690   9.540  0.6120  0.3170 -0.4924
  621MOL0     C83736   9.827   1.798   9.453 -0.1320 -0.4622  0.5132
  621MOL0     C83737   9.970   1.842   9.478  0.2746  0.3749  0.2481
  621MOL0     C83738  10.082   1.742   9.450  1.3863 -0.6887 -0.2128
  621MOL0     C83739  10.215   1.810   9.473  0.0288 -0.9183 -0.3657
  621MOL0     C83740  10.344   1.729   9.450 -0.0199 -0.6589 -0.3438
  621MOL0     C83741  10.470   1.798   9.511 -0.3369 -0.5348 -0.2931
  621MOL0     C83742  10.592   1.702   9.491 -0.5399  0.9048  0.6236
  621MOL0     C83743  10.596   1.640   9.350  0.0810 -0.1588 -0.0193
  621MOL0    Cl83744  10.769   1.586   9.320 -0.1460  0.0190 -0.6815
  621MOL0     C83745   9.576   1.644   9.434  0.3580 -1.9751 -0.4913
  621MOL0     C83746   9.459   1.573   9.436  0.0210  0.1496 -0.5824
  621MOL0     O83747   9.287   1.401   9.757 -0.1132  0.3504 -0.0013
  621MOL0     C83748   9.040   1.307   9.742 -0.5839  0.3493 -0.0147
  621MOL0     C83749   8.918   1.243   9.748 -0.0491 -0.2649  0.2751
  621MOL0     N83750   8.592   0.966   9.218 -0.7366 -0.1128 -0.5450
  621MOL0     N83751   8.679   0.943   9.126 -0.1958 -0.9306 -0.5023
  621MOL0     C83752   9.520   1.416   8.789  0.3135  0.3176 -0.1357
  621MOL0     C83753   9.644   1.465   8.739  0.8176  0.2079 -0.7706
  621MOL0     C83754   9.977   1.768   8.586  0.8198  0.2694  0.0348
  621MOL0     C83755  10.060   1.654   8.627  0.4530 -0.5187  0.0523
  621MOL0     C83756  10.193   1.648   8.599  0.1945  1.2114 -0.2733
  621MOL0     C83757  10.251   1.745   8.525 -0.2164 -0.4351  0.7428
  621MOL0     O83758  10.381   1.754   8.483 -0.6068 -0.1156 -0.1158
  621MOL0     C83759  10.453   1.631   8.454  0.7184 -0.1877 -0.3229
  621MOL0     C83760  10.564   1.641   8.548 -0.1407  0.3092  0.2887
  621MOL0     C83761  10.671   1.536   8.540 -0.6217  0.2212 -0.2508
  621MOL0     C83762  10.796   1.600   8.485 -0.1649 -0.5639  0.5650
  621MOL0     C83763  10.917   1.521   8.497  0.6771  0.4888 -0.4777
  621MOL0     C83764  11.022   1.454   8.504  0.3182  0.1742  0.2712
  621MOL0     C83765  10.175   1.866   8.491 -0.4146  0.3686  0.1796
  621MOL0     C83766  10.040   1.873   8.521 -0.6637  0.2906 -0.1852
  621MOL0     C83767   9.955   2.000   8.487  0.1913  0.9302  0.4657
  621MOL0     H83768   9.550   1.789   8.681 -1.7111  0.2209  0.4974
  621MOL0     H83769   9.339   1.699   8.766  0.5810 -0.2671 -1.1769
  621MOL0     H83770   9.274   1.267   8.812 -1.2283  0.7278 -1.7848
  621MOL0     H83771   9.336   1.305   8.970  0.6264  1.3681  0.0676
  621MOL0     H83772   9.050   1.388   8.877 -1.1800  0.1255  1.6474
  621MOL0     H83773   9.118   1.407   9.039  1.5965 -0.7504 -0.1178
  621MOL0     H83774   8.953   1.218   9.010 -0.0731  0.6019 -0.1157
  621MOL0     H83775   9.107   1.187   9.102  0.4003 -2.1119 -0.0587
  621MOL0     H83776   9.084   1.120   8.802  0.5262 -0.9622  0.5598
  621MOL0     H83777   9.203   1.062   8.925 -0.4016 -1.4995  0.2112
  621MOL0     H83778   8.906   0.966   8.910 -0.5128 -2.5581 -3.7728
  621MOL0     H83779   9.043   0.896   8.842 -1.4746  2.6162 -1.8868
  621MOL0     H83780   9.147   0.875   9.081 -0.4268 -0.6494 -0.8532
  621MOL0     H83781   9.016   0.963   9.140  2.1723  2.3681 -1.1782
  621MOL0     H83782   8.983   0.735   9.191  0.1296  1.6837  0.2736
  621MOL0     H83783   9.021   0.684   9.017 -1.3600 -2.2857  1.3993
  621MOL0     H83784   8.791   0.797   8.948 -3.1389 -0.0849  1.6658
  621MOL0     H83785   8.777   0.645   9.035  0.3951 -1.0134 -0.7343
  621MOL0     H83786   8.670   0.655   9.259  1.1828  0.8401  0.7002
  621MOL0     H83787   8.407   0.807   9.352  0.2924  1.8488 -2.3622
  621MOL0     H83788   8.532   0.743   9.464 -1.1692 -0.1505  0.8098
  621MOL0     H83789   8.424   1.034   9.427  1.2082  1.2152  0.8142
  621MOL0     H83790   8.376   0.920   9.547 -0.5246  0.2178 -1.4827
  621MOL0     H83791   8.580   0.925   9.664 -0.0170 -0.0215  0.6668
  621MOL0     H83792   8.516   1.083   9.650  2.7073  2.7024 -1.8861
  621MOL0     H83793   8.657   1.155   9.471  0.1387 -0.6053 -1.0318
  621MOL0     H83794   8.746   1.008   9.469 -0.4926  1.3247 -2.0025
  621MOL0     H83795   8.901   1.199   9.399 -1.6486  0.5843  0.3624
  621MOL0     H83796   9.112   1.294   9.410  0.7522 -0.4787 -0.6137
  621MOL0     H83797   9.524   1.369   9.696  0.4344  0.1905 -0.4490
  621MOL0     H83798   9.742   1.488   9.686 -2.0025 -0.9850  1.8442
  621MOL0     H83799   9.829   1.766   9.348 -1.7138  0.7686  0.0646
  621MOL0     H83800   9.756   1.879   9.473 -0.7647 -1.1904  1.2813
  621MOL0     H83801   9.986   1.937   9.426 -1.6898 -0.4633 -2.0774
  621MOL0     H83802   9.976   1.871   9.583  1.3418 -1.9292  0.8917
  621MOL0     H83803  10.067   1.657   9.518 -1.1569 -0.2184 -0.0815
  621MOL0     H83804  10.081   1.712   9.345 -1.4291 -0.3580 -0.3551
  621MOL0     H83805  10.204   1.861   9.569 -4.0455 -2.3237  0.0838
  621MOL0     H83806  10.218   1.892   9.400 -1.3803 -1.0142 -0.5452
  621MOL0     H83807  10.363   1.715   9.343  1.9290 -1.7748  0.0933
  621MOL0     H83808  10.350   1.631   9.498  4.6415  0.6947  2.4727
  621MOL0     H83809  10.502   1.889   9.460 -0.7124 -0.3426 -0.1926
  621MOL0     H83810  10.451   1.809   9.618  2.3777 -3.5082  0.6688
  621MOL0     H83811  10.578   1.625   9.567 -1.7621  0.3949 -0.0850
  621MOL0     H83812  10.678   1.765   9.512  0.4781 -0.0398 -0.6128
  621MOL0     H83813  10.525   1.561   9.322 -0.5958  0.3717  0.1813
  621MOL0     H83814  10.569   1.720   9.281  0.7071 -1.0854 -1.3646
  621MOL0     H83815   9.591   1.713   9.352 -1.2023 -0.6167  0.2878
  621MOL0     H83816   9.379   1.580   9.364  0.1772  0.7673 -0.7045
  621MOL0     H83817   9.077   1.333   9.841 -0.5898 -1.3533  0.4783
  621MOL0     H83818   8.880   1.209   9.845 -2.3149 -2.3283 -1.2149
  621MOL0     H83819   9.520   1.309   8.809  1.5512  0.0918 -1.1423
  621MOL0     H83820   9.719   1.394   8.706  2.2111  1.2868 -0.0503
  621MOL0     H83821  10.009   1.577   8.685  0.0507  0.5180  1.1156
  621MOL0     H83822  10.254   1.567   8.638 -1.2348 -0.7293 -1.8906
  621MOL0     H83823  10.482   1.619   8.349 -1.8882 -2.1905 -0.9383
  621MOL0     H83824  10.411   1.536   8.489  1.8665  0.0990  2.0427
  621MOL0     H83825  10.518   1.634   8.647  0.9038 -0.0314  0.7691
  621MOL0     H83826  10.615   1.738   8.537 -0.7514  0.5823 -0.1552
  621MOL0     H83827  10.648   1.449   8.477 -0.5507 -0.7994  1.0891
  621MOL0     H83828  10.693   1.512   8.644  0.3750  3.6133  0.4344
  621MOL0     H83829  10.769   1.623   8.381  0.1079 -0.2607  0.5591
  621MOL0     H83830  10.814   1.693   8.540 -0.7687 -0.1755  0.1260
  621MOL0     H83831  11.121   1.414   8.508  1.4724  2.6282 -1.2991
  621MOL0     H83832  10.220   1.950   8.440 -1.3082  0.5026 -0.4113
  621MOL0     H83833   9.918   2.050   8.576 -1.2518  0.8768 -0.0794
  621MOL0     H83834  10.015   2.076   8.435 -0.3992  0.6407 -0.6832
  621MOL0     H83835   9.874   1.967   8.421  1.3165 -1.5782  0.2199
  622MOL0     O83836   4.524  10.374   5.388  0.9377 -0.1083  0.7773
  622MOL0     C83837   4.478  10.363   5.271  1.1627  0.8672  0.4806
  622MOL0     O83838   4.555  10.330   5.161 -0.1952  0.9254  0.5687
  622MOL0     C83839   4.672  10.268   5.179  0.2485  0.5290  0.8201
  622MOL0     C83840   4.770  10.318   5.102 -0.4507 -0.1983 -0.6872
  622MOL0     C83841   4.890  10.238   5.094  0.2296 -0.9890 -0.2634
  622MOL0     C83842   4.911  10.121   5.173 -0.2825  0.2258 -0.0514
  622MOL0     O83843   5.026  10.050   5.170  0.8643 -0.0095  0.1993
  622MOL0     C83844   5.135  10.110   5.097 -0.1382 -0.7610 -0.3706
  622MOL0     C83845   5.263  10.034   5.136  1.3767 -0.0896  0.1895
  622MOL0     C83846   5.241   9.887   5.116 -0.6291  0.4266 -0.6564
  622MOL0     C83847   5.374   9.816   5.151  0.4003  0.2953 -0.1745
  622MOL0     C83848   5.367   9.733   5.273 -0.4335 -0.2993 -0.1392
  622MOL0     C83849   5.496   9.658   5.298  0.0403  0.7685 -0.7135
  622MOL0     C83850   5.489   9.574   5.428  0.4655 -0.1883  0.0828
  622MOL0     C83851   5.614   9.492   5.449 -0.2726 -0.1604  0.4078
  622MOL0     N83852   5.642   9.394   5.344 -0.3731  0.3226 -0.0853
  622MOL0     C83853   5.557   9.296   5.304 -0.2931 -0.1157 -0.1108
  622MOL0     C83854   5.632   9.208   5.242  0.0559  0.1450  0.5528
  622MOL0     C83855   5.577   9.076   5.199 -0.2370 -0.4447  0.6708
  622MOL0     C83856   5.681   9.003   5.106  0.4259 -1.0714 -0.9082
  622MOL0     C83857   5.730   9.091   4.982 -1.4062 -0.2761  0.0017
  622MOL0     C83858   5.627   9.178   4.920 -0.5571  0.0594  0.8040
  622MOL0     O83859   5.515   9.107   4.883  0.6852  0.3910  0.5723
  622MOL0     C83860   5.420   9.165   4.790 -0.6218  0.4490 -0.0820
  622MOL0     C83861   5.394   9.300   4.775  0.4510 -0.4978  0.0537
  622MOL0     C83862   5.285   9.351   4.695 -0.8637  0.2008 -0.4886
  622MOL0     C83863   5.203   9.255   4.627 -0.8173 -0.2901  0.1315
  622MOL0     C83864   5.076   9.298   4.568 -0.6209  0.4358  0.2857
  622MOL0     O83865   5.029   9.423   4.607  0.4787 -0.2148 -0.4326
  622MOL0     C83866   4.910   9.476   4.578 -0.2073  0.0896  0.3117
  622MOL0     C83867   4.783   9.413   4.594  0.1601  0.8456 -0.0188
  622MOL0     C83868   4.660   9.472   4.557  0.0315 -0.5344  1.1055
  622MOL0     C83869   4.667   9.611   4.526  0.3156 -0.7306  0.5744
  622MOL0     O83870   4.560   9.676   4.471  0.3056 -0.3321 -0.3363
  622MOL0     C83871   4.434   9.645   4.528  0.5762 -0.1526 -0.5526
  622MOL0     C83872   4.313   9.721   4.467 -0.4024  0.4346 -0.9821
  622MOL0     C83873   4.326   9.873   4.485 -0.1401  1.4284 -0.7251
  622MOL0     C83874   4.237   9.917   4.603  0.6288 -0.2641 -0.0630
  622MOL0     C83875   4.227  10.072   4.618 -0.3703  0.4521  0.6751
  622MOL0     C83876   4.175  10.120   4.750  0.2287  0.6683 -0.3437
  622MOL0     C83877   4.031  10.085   4.765  0.2167 -0.2268  0.4426
  622MOL0     C83878   3.967  10.158   4.879 -0.0018 -0.1536  0.4238
  622MOL0    Cl83879   3.783  10.140   4.877  0.3583  0.3398  0.0201
  622MOL0     C83880   4.785   9.680   4.529 -0.0125 -0.3243  0.1842
  622MOL0     C83881   4.911   9.612   4.557 -0.1192  0.1722  0.1667
  622MOL0     O83882   5.014   9.211   4.496 -0.0860 -0.2371 -0.7085
  622MOL0     C83883   5.236   9.114   4.626 -0.4676  0.0946 -0.7656
  622MOL0     C83884   5.339   9.070   4.715 -0.2897 -0.7818  1.0958
  622MOL0     N83885   5.767   9.239   5.264  0.1279  0.2361 -0.4806
  622MOL0     N83886   5.767   9.358   5.321 -0.4917  0.2199  0.9830
  622MOL0     C83887   4.812  10.078   5.256  0.8873 -0.8196  0.0131
  622MOL0     C83888   4.688  10.147   5.256 -0.2167 -1.1949  0.6895
  622MOL0     C83889   4.339  10.419   5.243  0.0827  0.2281 -0.6241
  622MOL0     C83890   4.301  10.525   5.323  0.6347  0.0323  0.1783
  622MOL0     C83891   4.168  10.580   5.305 -0.2835  0.1420 -0.4998
  622MOL0     C83892   4.074  10.538   5.216 -0.3038 -0.3663 -0.2965
  622MOL0     O83893   3.952  10.602   5.209  0.0274 -0.2512 -0.0956
  622MOL0     C83894   3.867  10.592   5.095  1.6951  0.7676 -0.3832
  622MOL0     C83895   3.748  10.689   5.120 -0.6480  0.5874  0.1491
  622MOL0     C83896   3.633  10.682   5.011 -0.1686  0.1425 -0.4739
  622MOL0     C83897   3.521  10.774   5.037  0.6086 -0.8934  0.4624
  622MOL0     C83898   3.413  10.764   4.941  0.7159 -0.0546  0.1406
  622MOL0     C83899   3.313  10.753   4.870  0.3458 -0.0515  0.1341
  622MOL0     C83900   4.116  10.439   5.128  0.4973  0.1985  0.3841
  622MOL0     C83901   4.243  10.380   5.138 -1.1030  0.1025 -0.2357
  622MOL0     C83902   4.287  10.276   5.030  0.3462  0.5163  0.4413
  622MOL0     H83903   4.740  10.396   5.033 -0.3074 -0.1778 -0.7260
  622MOL0     H83904   4.964  10.272   5.023 -1.3936 -1.0628 -2.0706
  622MOL0     H83905   5.126  10.118   4.988 -0.5265 -1.5758 -0.4093
  622MOL0     H83906   5.154  10.208   5.142 -0.4303 -1.1676  0.6528
  622MOL0     H83907   5.293  10.068   5.236 -0.3930  0.3257  0.6091
  622MOL0     H83908   5.348  10.061   5.072  1.7120 -3.9785 -1.2558
  622MOL0     H83909   5.223   9.868   5.010  1.2060  0.2701 -0.9832
  622MOL0     H83910   5.161   9.845   5.177  0.6179 -1.6936 -0.3968
  622MOL0     H83911   5.390   9.742   5.072 -0.8181  0.3924 -0.5410
  622MOL0     H83912   5.469   9.870   5.144  0.6474 -0.4122 -3.7692
  622MOL0     H83913   5.338   9.801   5.353 -0.2519  1.4571 -1.5116
  622MOL0     H83914   5.290   9.656   5.262  0.9883 -1.9111  0.6215
  622MOL0     H83915   5.509   9.584   5.219 -1.2047  0.0841 -0.3071
  622MOL0     H83916   5.578   9.730   5.305  1.9714 -1.2292 -1.5016
  622MOL0     H83917   5.403   9.509   5.411  0.8763 -0.5360 -0.7227
  622MOL0     H83918   5.470   9.638   5.515 -2.3598 -3.1519  1.8379
  622MOL0     H83919   5.697   9.563   5.450  1.2501 -1.8538  2.2978
  622MOL0     H83920   5.610   9.439   5.545  1.2271  0.9576  1.1389
  622MOL0     H83921   5.450   9.279   5.315 -0.7234  2.6047  0.8582
  622MOL0     H83922   5.549   9.018   5.287 -0.5219  0.6763  1.3447
  622MOL0     H83923   5.483   9.098   5.148  0.8331  0.4614 -1.0194
  622MOL0     H83924   5.772   8.982   5.162  1.0250  1.7689 -0.6673
  622MOL0     H83925   5.642   8.908   5.069  2.0002 -2.4591  0.8147
  622MOL0     H83926   5.785   9.027   4.911  0.8214  3.6588 -2.1695
  622MOL0     H83927   5.807   9.160   5.019 -0.3564  0.1143 -2.6655
  622MOL0     H83928   5.662   9.214   4.822 -2.1557 -2.8681 -0.9804
  622MOL0     H83929   5.612   9.262   4.988 -0.5718 -0.2016  1.1231
  622MOL0     H83930   5.451   9.377   4.826  0.4781  0.7037 -1.7079
  622MOL0     H83931   5.250   9.454   4.694 -0.8075  0.2164 -2.1248
  622MOL0     H83932   4.776   9.320   4.649  1.2795  0.5796 -0.3048
  622MOL0     H83933   4.574   9.407   4.549  0.0338 -0.3176 -1.4585
  622MOL0     H83934   4.421   9.537   4.529 -1.0254  0.0139  0.5573
  622MOL0     H83935   4.437   9.665   4.635 -0.1510  0.9706 -0.7197
  622MOL0     H83936   4.298   9.704   4.360  0.0496  2.1705 -1.3492
  622MOL0     H83937   4.228   9.690   4.528  0.6360  1.4863  1.0936
  622MOL0     H83938   4.429   9.910   4.482  0.9166 -0.8953  2.0398
  622MOL0     H83939   4.275   9.915   4.398 -1.8368  0.0131 -0.4464
  622MOL0     H83940   4.282   9.875   4.694 -2.2048 -0.9799  1.1174
  622MOL0     H83941   4.137   9.879   4.585  1.1891 -2.0375  0.3904
  622MOL0     H83942   4.170  10.107   4.531 -1.7342 -1.9175  0.5048
  622MOL0     H83943   4.330  10.106   4.605  0.0970 -0.3454  2.1233
  622MOL0     H83944   4.239  10.072   4.824  0.7016  1.0824 -0.4788
  622MOL0     H83945   4.195  10.228   4.750  2.5296  0.3251 -1.9008
  622MOL0     H83946   4.020   9.978   4.783 -1.4658 -0.4758 -1.5982
  622MOL0     H83947   3.982  10.089   4.667  3.3892 -2.1184 -1.3919
  622MOL0     H83948   4.014  10.119   4.970  0.6450 -2.3822 -0.7824
  622MOL0     H83949   3.996  10.263   4.869 -1.6620  0.5199  2.2218
  622MOL0     H83950   4.788   9.786   4.507 -2.3759 -0.3220 -0.4291
  622MOL0     H83951   5.010   9.655   4.547  2.0554 -4.5395 -1.6129
  622MOL0     H83952   5.169   9.048   4.571  0.6699 -1.5435 -0.2534
  622MOL0     H83953   5.375   8.969   4.732  1.8785 -0.3366 -0.3665
  622MOL0     H83954   4.819   9.988   5.315 -4.5152 -0.3973  1.8557
  622MOL0     H83955   4.601  10.117   5.313 -1.3717  1.3587  0.3862
  622MOL0     H83956   4.366  10.568   5.398  0.8853 -2.3147  1.3759
  622MOL0     H83957   4.131  10.644   5.384  2.0215  0.7689  0.1386
  622MOL0     H83958   3.827  10.492   5.081  2.2471  0.4629  0.1679
  622MOL0     H83959   3.924  10.611   5.004  0.6902 -2.6311 -1.8521
  622MOL0     H83960   3.784  10.790   5.141 -0.1520  0.0908  1.9002
  622MOL0     H83961   3.706  10.667   5.219  1.1636  0.9094  1.0212
  622MOL0     H83962   3.599  10.578   5.007  0.9517 -0.2037 -1.9852
  622MOL0     H83963   3.689  10.704   4.919  1.6395 -3.2002 -0.3433
  622MOL0     H83964   3.478  10.762   5.137 -1.8106  0.8671 -0.2565
  622MOL0     H83965   3.560  10.876   5.029 -1.0913 -0.1071  1.6055
  622MOL0     H83966   3.241  10.751   4.790  0.8305 -0.6771 -0.3041
  622MOL0     H83967   4.050  10.401   5.050  2.7010  2.5667 -2.9446
  622MOL0     H83968   4.389  10.241   5.045 -0.2364 -0.5802  2.1580
  622MOL0     H83969   4.224  10.188   5.047 -0.4208  1.3082  1.9829
  622MOL0     H83970   4.263  10.319   4.933 -3.4764 -0.1529  0.9276
  623MOL0     O83971   9.139   4.410   8.456 -0.3667 -0.7336 -0.1942
  623MOL0     C83972   9.119   4.507   8.385  0.0658 -0.1601  0.4859
  623MOL0     O83973   9.205   4.611   8.344 -0.0017 -0.3391  0.0868
  623MOL0     C83974   9.336   4.589   8.390 -0.3964 -0.7013  0.8898
  623MOL0     C83975   9.427   4.518   8.309 -1.2833 -0.0735  0.3941
  623MOL0     C83976   9.545   4.483   8.358 -1.6057  0.1803 -0.2222
  623MOL0     C83977   9.587   4.533   8.485 -0.1696 -0.1068  0.0334
  623MOL0     O83978   9.710   4.508   8.548 -0.3607 -0.4529 -0.6489
  623MOL0     C83979   9.822   4.493   8.459  0.0095 -0.5123 -0.0124
  623MOL0     C83980   9.926   4.412   8.529  0.2723 -0.2438  0.6387
  623MOL0     C83981  10.044   4.404   8.441 -0.6125  0.0660  0.5693
  623MOL0     C83982  10.176   4.367   8.514  0.1447  0.7613  0.4241
  623MOL0     C83983  10.289   4.353   8.414  0.0507  0.4625 -0.1713
  623MOL0     C83984  10.430   4.361   8.479  0.1645 -0.1318  0.4636
  623MOL0     C83985  10.532   4.304   8.379  0.4567 -0.0880  0.2349
  623MOL0     C83986  10.671   4.343   8.439 -0.2341  0.3862 -0.0727
  623MOL0     N83987  10.780   4.289   8.348 -0.0901 -0.7820 -0.1974
  623MOL0     C83988  10.872   4.191   8.377 -0.5026 -0.2830 -0.0317
  623MOL0     C83989  10.976   4.214   8.290 -0.4457  0.0352  0.3654
  623MOL0     C83990  11.105   4.135   8.300 -0.1556 -0.9120 -0.6724
  623MOL0     C83991  11.216   4.243   8.315 -0.5823 -0.4543 -0.6865
  623MOL0     C83992  11.356   4.193   8.353  0.2376 -0.2448 -0.0444
  623MOL0     C83993  11.472   4.291   8.336 -0.3116 -0.1444  0.0848
  623MOL0     O83994  11.461   4.413   8.410 -0.1259  0.2077 -0.9779
  623MOL0     C83995  11.574   4.479   8.439 -0.8224 -0.3538  0.0409
  623MOL0     C83996  11.650   4.446   8.543 -0.0616 -0.2055 -0.2847
  623MOL0     C83997  11.781   4.493   8.552 -0.0350 -0.1641 -0.4186
  623MOL0     C83998  11.827   4.596   8.471 -0.7410  0.7358 -0.3280
  623MOL0     C83999  11.952   4.663   8.499 -0.4532 -0.3660  0.5303
  623MOL0     O84000  11.980   4.781   8.425  0.6929  0.2709 -0.1962
  623MOL0     C84001  12.024   4.893   8.489  0.0086  0.1755  0.1743
  623MOL0     C84002  11.929   4.973   8.553  0.3603 -0.7474  0.4721
  623MOL0     C84003  11.964   5.094   8.606  0.2835 -0.2740  0.1314
  623MOL0     C84004  12.099   5.135   8.590  0.1515 -0.7784 -0.4251
  623MOL0     O84005  12.121   5.261   8.628 -0.5180 -0.0180 -0.5257
  623MOL0     C84006  12.253   5.307   8.626  0.1696 -0.8951  0.2337
  623MOL0     C84007  12.254   5.436   8.701  0.0362 -0.3153 -0.0650
  623MOL0     C84008  12.393   5.507   8.694 -0.7746  0.1614 -0.2803
  623MOL0     C84009  12.383   5.664   8.720 -0.2448 -0.0939  0.8308
  623MOL0     C84010  12.325   5.700   8.867 -0.5083  0.0430  0.8147
  623MOL0     C84011  12.291   5.846   8.890 -0.5277 -1.0002  0.9029
  623MOL0     C84012  12.207   5.914   8.782  0.1941 -0.0289  1.0148
  623MOL0     C84013  12.176   6.057   8.809 -0.9268  0.3780 -0.0580
  623MOL0    Cl84014  12.144   6.100   8.973 -0.4418 -0.1385  0.3007
  623MOL0     C84015  12.190   5.057   8.523  1.1449  0.0158 -0.7780
  623MOL0     C84016  12.152   4.926   8.471  0.2380 -0.7304  0.1805
  623MOL0     O84017  12.024   4.628   8.595 -0.8562 -0.3464 -0.3611
  623MOL0     C84018  11.748   4.630   8.362 -1.1240  0.6763  0.2317
  623MOL0     C84019  11.620   4.564   8.342  0.2425  0.2713  1.6445
  623MOL0     N84020  10.943   4.324   8.217 -0.1756 -0.3753 -0.1565
  623MOL0     N84021  10.832   4.368   8.246  0.7794  0.5577 -0.7743
  623MOL0     C84022   9.505   4.612   8.562  1.4359 -0.3423 -0.2360
  623MOL0     C84023   9.375   4.637   8.515 -0.5935  0.7174 -0.7053
  623MOL0     C84024   8.976   4.518   8.344  0.5585 -0.7427  0.4713
  623MOL0     C84025   8.928   4.648   8.313 -1.0512 -0.7645  0.2903
  623MOL0     C84026   8.798   4.664   8.290  0.4143 -0.0782  0.1087
  623MOL0     C84027   8.699   4.564   8.292  0.1535 -0.3256 -0.5358
  623MOL0     O84028   8.563   4.601   8.276  0.2267 -0.3707  0.2901
  623MOL0     C84029   8.471   4.486   8.263 -0.4297 -0.1874 -0.2703
  623MOL0     C84030   8.342   4.533   8.206 -0.4216  0.5730  0.1640
  623MOL0     C84031   8.222   4.463   8.281  0.0621 -0.2034 -0.0305
  623MOL0     C84032   8.085   4.514   8.231 -0.1409  0.8194 -0.0253
  623MOL0     C84033   7.971   4.457   8.301 -0.3129 -0.5031  0.7995
  623MOL0     C84034   7.863   4.424   8.348  0.6689 -0.4220  0.4413
  623MOL0     C84035   8.739   4.442   8.334  0.8626  1.0808  0.1119
  623MOL0     C84036   8.874   4.411   8.361 -0.2447  0.6013  0.6459
  623MOL0     C84037   8.902   4.267   8.390  0.2692 -0.1461  0.4613
  623MOL0     H84038   9.402   4.490   8.207 -0.7730  1.2521 -0.1217
  623MOL0     H84039   9.603   4.419   8.292 -2.7875 -1.6700  0.4502
  623MOL0     H84040   9.795   4.445   8.364 -3.6059 -1.5384  1.3816
  623MOL0     H84041   9.859   4.594   8.439 -0.4218 -0.4216 -0.3502
  623MOL0     H84042   9.881   4.314   8.544 -1.2964  0.2551 -0.6292
  623MOL0     H84043   9.952   4.459   8.625  0.8079  0.2264  0.2718
  623MOL0     H84044  10.061   4.498   8.387  1.6692 -1.3347 -1.3532
  623MOL0     H84045  10.018   4.323   8.372 -2.7684  1.6612 -0.6354
  623MOL0     H84046  10.195   4.451   8.582 -0.6654 -0.3162  2.0581
  623MOL0     H84047  10.148   4.281   8.576 -2.1178  1.1844  0.0510
  623MOL0     H84048  10.287   4.256   8.363 -2.5790 -0.0901  0.8253
  623MOL0     H84049  10.274   4.430   8.338 -1.0875  2.6270  2.1173
  623MOL0     H84050  10.451   4.467   8.497 -0.0254 -0.0400  0.1553
  623MOL0     H84051  10.438   4.302   8.571 -2.1148 -1.3913 -0.0683
  623MOL0     H84052  10.524   4.348   8.279 -4.6784 -0.3962  0.2431
  623MOL0     H84053  10.536   4.195   8.371  3.4041 -0.1706  1.4602
  623MOL0     H84054  10.680   4.450   8.455 -0.4538  0.3190  0.5316
  623MOL0     H84055  10.682   4.295   8.537  2.5103 -0.4417 -0.6966
  623MOL0     H84056  10.872   4.116   8.455  0.6190  0.0058  0.2802
  623MOL0     H84057  11.108   4.058   8.378  3.1702 -2.7403 -2.3501
  623MOL0     H84058  11.139   4.082   8.211  0.8267 -1.1416 -0.1773
  623MOL0     H84059  11.224   4.300   8.222  0.7312 -0.3126 -0.4971
  623MOL0     H84060  11.172   4.312   8.388 -1.4654 -2.3501  0.6525
  623MOL0     H84061  11.377   4.103   8.295 -0.7113 -0.1939 -0.4776
  623MOL0     H84062  11.365   4.155   8.455  3.4698  1.4850  0.4780
  623MOL0     H84063  11.480   4.313   8.229 -0.9235  4.1187  0.7470
  623MOL0     H84064  11.560   4.236   8.370  0.7260  1.4127  0.0442
  623MOL0     H84065  11.609   4.370   8.609 -1.3082 -2.7593 -3.7431
  623MOL0     H84066  11.835   4.442   8.631  1.5820  0.6763 -0.9511
  623MOL0     H84067  11.824   4.948   8.553 -0.3720  1.9384  0.9925
  623MOL0     H84068  11.891   5.161   8.649  1.4443 -0.0939  1.9092
  623MOL0     H84069  12.325   5.237   8.669 -0.2358 -0.6706  1.2900
  623MOL0     H84070  12.281   5.313   8.520 -2.8005 -0.4745 -0.5984
  623MOL0     H84071  12.170   5.496   8.662  0.9357 -0.6209 -2.6923
  623MOL0     H84072  12.236   5.420   8.808 -0.1625 -1.6414 -0.2805
  623MOL0     H84073  12.466   5.466   8.765  0.6083 -2.3866 -2.9365
  623MOL0     H84074  12.438   5.499   8.594 -0.1252  3.1070 -0.3278
  623MOL0     H84075  12.321   5.697   8.636 -0.5774 -0.0808  1.0753
  623MOL0     H84076  12.486   5.700   8.714  0.3347 -1.8794 -1.2041
  623MOL0     H84077  12.395   5.659   8.940 -1.7271 -0.1667  1.9127
  623MOL0     H84078  12.239   5.636   8.889  0.5101 -1.0223  1.8645
  623MOL0     H84079  12.237   5.851   8.985 -3.2712 -2.2245 -0.4691
  623MOL0     H84080  12.383   5.905   8.888 -1.1352 -0.0244  0.9566
  623MOL0     H84081  12.114   5.858   8.771  1.6549 -2.0997 -2.8695
  623MOL0     H84082  12.257   5.906   8.685 -1.4594 -0.8981  0.1858
  623MOL0     H84083  12.267   6.110   8.779 -2.0735  2.9116  0.6413
  623MOL0     H84084  12.096   6.089   8.740 -0.4798  4.3130  0.9950
  623MOL0     H84085  12.293   5.090   8.513  0.8676  0.9569 -0.7040
  623MOL0     H84086  12.215   4.850   8.426 -0.5308  0.1236 -2.5850
  623MOL0     H84087  11.785   4.693   8.282 -2.1527  1.5402  0.4088
  623MOL0     H84088  11.557   4.600   8.260  0.3072  3.2054  2.7478
  623MOL0     H84089   9.534   4.647   8.660 -1.8392  0.8353  0.4386
  623MOL0     H84090   9.299   4.689   8.573 -1.0749 -1.8620  1.1748
  623MOL0     H84091   8.994   4.735   8.305  2.2087 -3.0688 -0.0838
  623MOL0     H84092   8.766   4.767   8.275  0.5339  0.0116  0.4624
  623MOL0     H84093   8.446   4.451   8.364  2.8603  0.8872  1.0453
  623MOL0     H84094   8.505   4.404   8.199 -2.3549 -2.0469  0.9498
  623MOL0     H84095   8.347   4.527   8.097  0.9221 -0.1842  0.2495
  623MOL0     H84096   8.328   4.640   8.223 -0.4387  0.3666  1.5536
  623MOL0     H84097   8.229   4.495   8.386 -0.0875 -0.2174 -0.0174
  623MOL0     H84098   8.221   4.354   8.265 -0.0914 -0.0266 -1.3217
  623MOL0     H84099   8.084   4.623   8.229 -0.4216  0.8165 -0.0501
  623MOL0     H84100   8.082   4.479   8.128  2.1466 -4.4601  1.3501
  623MOL0     H84101   7.763   4.402   8.379  1.1876 -1.4145  1.4607
  623MOL0     H84102   8.668   4.365   8.362  1.7867  1.2268  3.2376
  623MOL0     H84103   8.830   4.198   8.343 -0.4245  0.7649  0.1618
  623MOL0     H84104   9.000   4.236   8.354  1.6711  3.1806  1.0897
  623MOL0     H84105   8.896   4.261   8.499  2.9660  2.4731  0.8722
  624MOL0     O84106   1.040   0.800   0.135 -0.7165 -0.3493 -0.3241
  624MOL0     C84107   1.048   0.779   0.256  1.0490  0.8240 -0.8557
  624MOL0     O84108   1.168   0.777   0.327  0.4415  0.4100 -0.1747
  624MOL0     C84109   1.279   0.793   0.244  0.0920  0.3120 -0.6621
  624MOL0     C84110   1.328   0.921   0.208  0.2816 -0.6016  0.3614
  624MOL0     C84111   1.450   0.937   0.141 -1.0621 -0.3595  0.5840
  624MOL0     C84112   1.522   0.828   0.099  0.4878  0.1634 -0.1770
  624MOL0     O84113   1.645   0.851   0.039 -0.0587  0.1479 -0.5199
  624MOL0     C84114   1.759   0.797   0.102  0.3888 -0.3109  0.1451
  624MOL0     C84115   1.901   0.825   0.040 -0.6334  0.1092  1.3750
  624MOL0     C84116   1.940   0.977   0.030  0.1294  0.3866  0.7630
  624MOL0     C84117   2.088   0.998  -0.015 -0.0345  0.7985  0.5437
  624MOL0     C84118   2.177   0.990   0.107 -0.0109  0.1307  0.6618
  624MOL0     C84119   2.332   1.017   0.070 -0.1103  0.3763 -0.0208
  624MOL0     C84120   2.428   0.957   0.171  0.2925 -0.6857 -0.0050
  624MOL0     C84121   2.413   1.027   0.311  0.0749  0.6260  0.2331
  624MOL0     N84122   2.530   1.005   0.397  0.5485  0.6277 -0.0175
  624MOL0     C84123   2.653   1.035   0.368 -0.4423 -0.2018  0.5205
  624MOL0     C84124   2.725   0.991   0.473 -0.1196  0.2399 -0.6909
  624MOL0     C84125   2.877   1.002   0.500  0.2088 -0.4512 -0.6757
  624MOL0     C84126   2.912   1.150   0.544  0.1933 -0.1925  0.4260
  624MOL0     C84127   2.950   1.254   0.433  0.3260 -0.1224  0.6368
  624MOL0     C84128   2.964   1.393   0.503  0.8892 -0.0090  0.4041
  624MOL0     O84129   2.999   1.486   0.393 -0.7448 -0.0065 -0.4049
  624MOL0     C84130   3.054   1.606   0.436  0.0085 -0.0059 -0.4180
  624MOL0     C84131   3.042   1.662   0.566 -0.4324  0.5186  0.3101
  624MOL0     C84132   3.102   1.783   0.598 -0.8548 -0.2418  0.4203
  624MOL0     C84133   3.179   1.854   0.495 -0.1839  0.4839  0.9879
  624MOL0     C84134   3.233   1.986   0.515  0.5063 -0.6447 -0.6672
  624MOL0     O84135   3.174   2.056   0.622  0.7320  1.1215  0.6645
  624MOL0     C84136   3.239   2.173   0.648  0.1956  0.1306 -0.3220
  624MOL0     C84137   3.246   2.280   0.559 -0.3696  0.4221 -0.3459
  624MOL0     C84138   3.295   2.406   0.592 -0.2449 -0.0270 -0.5810
  624MOL0     C84139   3.344   2.433   0.719  0.5679  0.0627 -0.3659
  624MOL0     O84140   3.381   2.566   0.737  0.0109  0.6511 -0.2282
  624MOL0     C84141   3.396   2.610   0.876  0.4673  0.1440 -0.5705
  624MOL0     C84142   3.467   2.742   0.883  0.7279  0.5572  0.2519
  624MOL0     C84143   3.609   2.736   0.820  0.0269  0.3647 -0.7303
  624MOL0     C84144   3.647   2.878   0.792 -0.0164  0.4357  0.1946
  624MOL0     C84145   3.794   2.896   0.743 -0.1430 -0.4264  0.1889
  624MOL0     C84146   3.901   2.840   0.834  0.1996  0.4639  0.2801
  624MOL0     C84147   4.043   2.883   0.791  0.1467 -0.3588  0.5225
  624MOL0     C84148   4.141   2.797   0.869  0.1091 -0.6220  0.5565
  624MOL0    Cl84149   4.121   2.802   1.044  0.9153 -0.2722  0.2880
  624MOL0     C84150   3.346   2.323   0.807 -0.7861  0.1825  0.5115
  624MOL0     C84151   3.294   2.189   0.780 -0.7242  1.0268  0.2211
  624MOL0     O84152   3.331   2.031   0.450 -0.4729  0.6789 -1.0344
  624MOL0     C84153   3.192   1.792   0.365 -0.2356  0.2390 -0.1492
  624MOL0     C84154   3.125   1.671   0.339 -0.5712 -0.9194  0.0903
  624MOL0     N84155   2.641   0.934   0.568  0.8242  0.2524 -0.1631
  624MOL0     N84156   2.523   0.938   0.521 -0.3426 -0.1528  0.4655
  624MOL0     C84157   1.481   0.705   0.147  0.3292  0.2721 -0.9683
  624MOL0     C84158   1.363   0.679   0.216 -0.2424  0.2086 -0.2150
  624MOL0     C84159   0.917   0.793   0.338  1.1184  0.8992  0.5064
  624MOL0     C84160   0.925   0.767   0.482 -0.5338 -0.5208  0.6571
  624MOL0     C84161   0.818   0.793   0.560  1.2051  1.0433 -0.5700
  624MOL0     C84162   0.693   0.818   0.513 -0.1456 -0.1232  0.1438
  624MOL0     O84163   0.579   0.844   0.595  0.1438  0.2371  0.3332
  624MOL0     C84164   0.583   0.818   0.733 -0.3921 -0.4656  0.5803
  624MOL0     C84165   0.459   0.858   0.802  0.9996 -0.0930 -0.9570
  624MOL0     C84166   0.350   0.752   0.775  0.9289  0.8755  0.1515
  624MOL0     C84167   0.203   0.797   0.831 -0.6818  0.0745 -0.4172
  624MOL0     C84168   0.209   0.786   0.981 -0.1630 -0.3754 -0.8739
  624MOL0     C84169   0.215   0.774   1.104  0.0738 -0.4138  0.5459
  624MOL0     C84170   0.669   0.809   0.372 -0.5364  0.3233 -0.6298
  624MOL0     C84171   0.781   0.815   0.283 -0.1008  0.9121 -0.2793
  624MOL0     C84172   0.759   0.851   0.143  1.2432 -0.4884 -0.7057
  624MOL0     H84173   1.263   1.004   0.235 -0.3309 -0.2054 -2.0905
  624MOL0     H84174   1.484   1.034   0.107 -0.3657 -1.3049 -1.5824
  624MOL0     H84175   1.767   0.832   0.205  1.4191 -0.1108  0.0113
  624MOL0     H84176   1.740   0.690   0.116 -1.1073  0.0625  1.1518
  624MOL0     H84177   1.916   0.780  -0.059  1.9922 -1.5343  2.4472
  624MOL0     H84178   1.977   0.788   0.108  1.7624  1.7949 -0.2224
  624MOL0     H84179   1.931   1.021   0.130 -2.5508  0.5793  0.4907
  624MOL0     H84180   1.868   1.029  -0.034 -0.1448 -2.1455 -1.1342
  624MOL0     H84181   2.108   0.928  -0.097 -3.8950 -0.6273  0.5810
  624MOL0     H84182   2.095   1.097  -0.060 -0.5396 -0.1842 -1.8844
  624MOL0     H84183   2.143   1.063   0.181 -1.6616  1.4632 -1.3299
  624MOL0     H84184   2.170   0.891   0.153  1.4974 -1.3829 -2.1275
  624MOL0     H84185   2.352   0.989  -0.034 -0.2936 -0.5443  0.1800
  624MOL0     H84186   2.354   1.124   0.076  0.4014  0.2250  1.0951
  624MOL0     H84187   2.529   0.970   0.132  0.0088 -1.1104 -0.9199
  624MOL0     H84188   2.408   0.850   0.179  1.9325 -1.0077  0.0528
  624MOL0     H84189   2.407   1.135   0.296 -1.2152  0.8043  1.8584
  624MOL0     H84190   2.318   1.002   0.359 -0.2194 -0.3450 -0.8054
  624MOL0     H84191   2.709   1.083   0.288  1.6763 -1.8029  0.9257
  624MOL0     H84192   2.912   0.926   0.570 -0.9997 -1.7819 -1.4477
  624MOL0     H84193   2.933   0.994   0.407  0.5474  0.2263 -0.5403
  624MOL0     H84194   2.830   1.181   0.609 -2.2208 -4.7178 -0.0194
  624MOL0     H84195   2.999   1.131   0.607  0.9588  2.2672  0.1939
  624MOL0     H84196   2.869   1.266   0.360  0.1635  2.5034  1.1500
  624MOL0     H84197   3.046   1.219   0.394  0.3407  0.4134  0.1791
  624MOL0     H84198   3.040   1.391   0.582  1.7317  0.9760 -0.3581
  624MOL0     H84199   2.865   1.412   0.545  0.5933 -0.2882 -0.1496
  624MOL0     H84200   3.005   1.597   0.645  2.1801  1.9589  2.9313
  624MOL0     H84201   3.104   1.822   0.699  1.4628 -1.7181  1.0252
  624MOL0     H84202   3.227   2.274   0.452 -0.5284 -1.9675 -0.2299
  624MOL0     H84203   3.303   2.486   0.519 -0.2974  2.1314  1.5984
  624MOL0     H84204   3.295   2.627   0.914  0.8456  1.8196 -0.2469
  624MOL0     H84205   3.445   2.533   0.936  0.4633  2.5762  2.8042
  624MOL0     H84206   3.407   2.815   0.829  2.0560  0.5978 -1.2670
  624MOL0     H84207   3.465   2.765   0.990  0.5485  0.4653  0.2678
  624MOL0     H84208   3.685   2.690   0.883 -1.5875 -1.0527  0.2853
  624MOL0     H84209   3.596   2.688   0.723 -1.2327 -1.5457  0.3011
  624MOL0     H84210   3.633   2.932   0.886 -1.5673  2.9845 -1.3883
  624MOL0     H84211   3.573   2.918   0.723 -0.6888 -1.3277 -0.1431
  624MOL0     H84212   3.812   3.003   0.731  3.4967 -1.0662 -1.1569
  624MOL0     H84213   3.794   2.844   0.647  4.4194 -2.9730  1.2348
  624MOL0     H84214   3.882   2.866   0.938  3.3109  0.6378  0.9032
  624MOL0     H84215   3.899   2.731   0.836  3.8288  0.1663 -2.3866
  624MOL0     H84216   4.049   2.990   0.812  0.6158 -0.1481 -0.6490
  624MOL0     H84217   4.057   2.868   0.684  4.3350  0.7631  0.7518
  624MOL0     H84218   4.118   2.696   0.835  0.0918 -1.0424  1.7617
  624MOL0     H84219   4.245   2.817   0.840  0.0339 -2.6692 -1.3627
  624MOL0     H84220   3.385   2.330   0.908 -0.0642 -0.4089  0.2845
  624MOL0     H84221   3.307   2.103   0.846 -1.0826  0.6177 -0.2333
  624MOL0     H84222   3.267   1.828   0.296  1.1827  0.3962  1.3990
  624MOL0     H84223   3.136   1.630   0.239  1.6663  0.0136 -0.0945
  624MOL0     H84224   1.533   0.612   0.128  1.0864  0.8528 -1.8227
  624MOL0     H84225   1.350   0.578   0.253  2.3527 -0.1978 -0.2556
  624MOL0     H84226   1.019   0.730   0.523 -0.4871 -0.2067  0.8331
  624MOL0     H84227   0.834   0.766   0.664  1.1581 -1.8277 -1.2101
  624MOL0     H84228   0.657   0.894   0.762 -0.7993  0.2724 -0.2753
  624MOL0     H84229   0.627   0.719   0.752  0.7058 -0.8595 -3.1789
  624MOL0     H84230   0.420   0.950   0.757 -0.1671 -0.8065 -1.4215
  624MOL0     H84231   0.478   0.882   0.907  0.9542  1.3841 -1.2557
  624MOL0     H84232   0.372   0.651   0.810 -2.6152 -0.6021 -1.3282
  624MOL0     H84233   0.336   0.740   0.667  2.4919 -0.1837  0.0302
  624MOL0     H84234   0.192   0.900   0.797  4.3168  1.3089  0.8212
  624MOL0     H84235   0.125   0.738   0.783 -1.5314  0.9731 -0.1586
  624MOL0     H84236   0.216   0.776   1.211 -1.2313  1.2415  0.5672
  624MOL0     H84237   0.565   0.813   0.341 -0.7585 -0.9630 -0.1038
  624MOL0     H84238   0.770   0.755   0.092  1.0606 -2.9860  3.4764
  624MOL0     H84239   0.655   0.884   0.134  1.5691  0.5963 -0.5858
  624MOL0     H84240   0.819   0.925   0.090  0.3555  0.1364 -0.8713
  625MOL0     O84241   9.296   3.563   9.959 -0.0417 -0.0656 -0.3070
  625MOL0     C84242   9.259   3.465  10.023  0.2746 -0.3395 -0.1994
  625MOL0     O84243   9.342   3.401  10.121 -0.4980  0.2114  0.1127
  625MOL0     C84244   9.473   3.441  10.125  0.5727 -1.0962  1.0294
  625MOL0     C84245   9.577   3.382  10.055 -0.4690  1.6527 -0.6472
  625MOL0     C84246   9.703   3.433  10.049 -0.3575  0.3650  0.2339
  625MOL0     C84247   9.728   3.547  10.121  0.0993  0.0040 -0.6402
  625MOL0     O84248   9.860   3.593  10.098  0.1542  0.5023  0.0667
  625MOL0     C84249   9.880   3.719  10.164 -1.0414  0.3155 -0.3043
  625MOL0     C84250  10.010   3.782  10.110  0.0468 -0.3529 -0.3105
  625MOL0     C84251  10.077   3.867  10.220 -0.4620  0.4352 -0.1366
  625MOL0     C84252  10.217   3.923  10.174  0.2865 -0.6072  0.6691
  625MOL0     C84253  10.271   4.032  10.276 -0.5254 -0.3459  0.3952
  625MOL0     C84254  10.421   4.056  10.250 -0.7850 -0.1675 -0.0722
  625MOL0     C84255  10.468   4.195  10.313 -0.8277 -0.6996 -0.2876
  625MOL0     C84256  10.592   4.265  10.256 -0.2493  0.3568  0.3003
  625MOL0     N84257  10.711   4.184  10.254  0.1355  0.1620  0.3224
  625MOL0     C84258  10.826   4.207  10.183 -0.2780 -0.5430  0.0421
  625MOL0     C84259  10.909   4.119  10.239 -0.2963  0.0779  0.0009
  625MOL0     C84260  11.053   4.078  10.182  0.0700 -0.0647  0.5843
  625MOL0     C84261  11.180   4.148  10.242 -0.0911 -0.1195 -0.1967
  625MOL0     C84262  11.304   4.078  10.202  0.2220  0.2855 -0.0448
  625MOL0     C84263  11.318   3.971  10.315  0.0045  0.0403 -0.2660
  625MOL0     O84264  11.407   3.868  10.264  0.1637  0.1264 -0.3702
  625MOL0     C84265  11.542   3.893  10.262 -0.2573 -0.3262 -0.1944
  625MOL0     C84266  11.614   4.006  10.320  0.4811  0.5017  0.3211
  625MOL0     C84267  11.747   4.009  10.322  0.3999 -0.3107  0.3357
  625MOL0     C84268  11.829   3.909  10.278 -0.8992 -0.2535  0.8446
  625MOL0     C84269  11.974   3.932  10.300  0.1452  0.1547 -0.6408
  625MOL0     O84270  12.055   3.830  10.270  0.1992 -0.1172 -0.5104
  625MOL0     C84271  12.185   3.838  10.311 -0.1772 -0.7667  0.1225
  625MOL0     C84272  12.273   3.798  10.212  0.9329  0.6958 -0.2998
  625MOL0     C84273  12.408   3.789  10.236 -0.6969 -0.4252 -0.1153
  625MOL0     C84274  12.465   3.833  10.357 -0.6648  0.2568  0.5209
  625MOL0     O84275  12.599   3.819  10.362  0.1280 -0.5236  0.2218
  625MOL0     C84276  12.668   3.852  10.482  0.1201  0.6092 -0.1763
  625MOL0     C84277  12.782   3.757  10.500  0.2025 -0.1292  0.0641
  625MOL0     C84278  12.749   3.613  10.475  0.0847 -0.1356  0.5229
  625MOL0     C84279  12.682   3.553  10.593 -1.3898 -0.4897  0.4692
  625MOL0     C84280  12.625   3.416  10.559  0.4172 -1.0354  0.0034
  625MOL0     C84281  12.526   3.349  10.664 -0.3134 -0.2384  0.1976
  625MOL0     C84282  12.467   3.220  10.602 -0.8105 -0.1080  0.3828
  625MOL0     C84283  12.567   3.098  10.605  0.3407  0.2379  0.1659
  625MOL0    Cl84284  12.603   3.036  10.766 -0.2978  0.4623  0.0611
  625MOL0     C84285  12.376   3.889  10.449 -0.4205 -0.7326 -0.0147
  625MOL0     C84286  12.232   3.879  10.434 -0.2100  0.3384 -0.5635
  625MOL0     O84287  12.014   4.037  10.349 -0.0359 -0.4555  0.0825
  625MOL0     C84288  11.766   3.798  10.216 -1.2382 -1.1082  0.0183
  625MOL0     C84289  11.628   3.789  10.208  0.1152  0.0283  0.1370
  625MOL0     N84290  10.863   4.055  10.342  0.0360 -0.8149 -0.2103
  625MOL0     N84291  10.745   4.099  10.353  0.0221  0.1300  0.5041
  625MOL0     C84292   9.628   3.610  10.195 -0.2099  0.1413 -0.8877
  625MOL0     C84293   9.499   3.549  10.204  0.6713 -0.2245 -0.3821
  625MOL0     C84294   9.122   3.421  10.008  0.5087 -1.1704  0.6163
  625MOL0     C84295   9.076   3.327  10.102  0.2783 -0.1161 -0.1923
  625MOL0     C84296   8.941   3.277  10.089 -0.2547 -0.0177  0.0766
  625MOL0     C84297   8.862   3.324   9.991  0.0835 -0.3910  0.7150
  625MOL0     O84298   8.732   3.275   9.990 -0.0182  0.1928 -0.0048
  625MOL0     C84299   8.630   3.303   9.893  0.6227 -0.8336  0.7166
  625MOL0     C84300   8.490   3.250   9.942 -0.2634 -0.1420 -0.6124
  625MOL0     C84301   8.405   3.258   9.817  0.3132 -0.0146 -0.1573
  625MOL0     C84302   8.264   3.204   9.852  0.6347 -0.6439 -0.1793
  625MOL0     C84303   8.173   3.305   9.899 -0.4718  0.5756  0.1477
  625MOL0     C84304   8.103   3.396   9.921  0.3255  0.0614  0.4959
  625MOL0     C84305   8.913   3.410   9.888 -0.0239 -0.5188 -1.0100
  625MOL0     C84306   9.044   3.453   9.890  0.0162 -0.4653 -0.5686
  625MOL0     C84307   9.089   3.532   9.767 -0.3513 -0.3956  0.2338
  625MOL0     H84308   9.541   3.290  10.012  0.2413  0.6812  0.7749
  625MOL0     H84309   9.786   3.388   9.995 -1.7215  0.5810 -2.1911
  625MOL0     H84310   9.800   3.792  10.147 -1.7547  0.2891  2.4927
  625MOL0     H84311   9.892   3.693  10.270  2.5961 -2.4492 -1.1963
  625MOL0     H84312   9.985   3.846  10.025 -0.4511 -2.3982 -1.7772
  625MOL0     H84313  10.085   3.710  10.075 -0.6065 -2.0615  1.6225
  625MOL0     H84314  10.096   3.812  10.313  1.8621 -1.1262 -1.4351
  625MOL0     H84315  10.007   3.947  10.246  1.3933  1.1117  3.4712
  625MOL0     H84316  10.277   3.832  10.170  0.0099 -0.7664 -2.3157
  625MOL0     H84317  10.207   3.955  10.069 -0.7306  2.1336  1.5161
  625MOL0     H84318  10.210   4.123  10.269 -0.2428 -0.2539 -1.6508
  625MOL0     H84319  10.275   3.999  10.380  2.0672 -2.3038 -0.2224
  625MOL0     H84320  10.480   3.979  10.300  1.2052 -0.0076 -2.0490
  625MOL0     H84321  10.437   4.067  10.142  1.0761 -0.2580  0.1677
  625MOL0     H84322  10.495   4.173  10.417  1.0709  1.7620 -0.1737
  625MOL0     H84323  10.390   4.270  10.315  0.6489  0.9813 -1.9075
  625MOL0     H84324  10.571   4.300  10.154  2.6650 -1.4264 -1.0271
  625MOL0     H84325  10.608   4.353  10.319 -1.4353  0.1190  0.9625
  625MOL0     H84326  10.846   4.262  10.091 -0.9286  0.1025  0.2827
  625MOL0     H84327  11.065   3.970  10.189  0.5478  0.0197  1.1578
  625MOL0     H84328  11.046   4.098  10.075  5.4249 -2.7496 -0.6382
  625MOL0     H84329  11.176   4.250  10.204  1.5994  0.3944  0.8970
  625MOL0     H84330  11.157   4.154  10.349  1.0975  2.2702 -0.0074
  625MOL0     H84331  11.388   4.148  10.208  3.3791 -3.2606  3.4185
  625MOL0     H84332  11.306   4.038  10.100  1.2237  2.4751 -0.9511
  625MOL0     H84333  11.221   3.925  10.333 -0.1668  0.2116 -0.7263
  625MOL0     H84334  11.351   4.016  10.409 -0.1790 -1.4658  0.5432
  625MOL0     H84335  11.561   4.083  10.375  2.1675  2.7023 -1.0125
  625MOL0     H84336  11.787   4.099  10.369  0.6980 -0.2145 -0.0973
  625MOL0     H84337  12.220   3.756  10.127  0.3942 -1.1908  0.9275
  625MOL0     H84338  12.460   3.738  10.156  0.6681  1.1891 -0.3225
  625MOL0     H84339  12.707   3.954  10.481 -2.3567  1.6504  0.3521
  625MOL0     H84340  12.605   3.838  10.570  1.4252 -2.3562  0.4076
  625MOL0     H84341  12.853   3.789  10.424 -0.1919 -2.2389 -1.2576
  625MOL0     H84342  12.818   3.770  10.603 -2.6186  3.2546  0.8367
  625MOL0     H84343  12.689   3.600  10.385  2.0586  4.0978 -1.6515
  625MOL0     H84344  12.845   3.562  10.459 -0.5186 -0.8611 -0.9825
  625MOL0     H84345  12.606   3.625  10.626 -1.3342  0.2364 -0.8983
  625MOL0     H84346  12.761   3.533  10.666 -0.7970 -0.6760 -0.2153
  625MOL0     H84347  12.701   3.342  10.536 -0.5104 -1.6291 -1.2809
  625MOL0     H84348  12.563   3.425  10.470 -2.7072  1.9522  2.2050
  625MOL0     H84349  12.582   3.332  10.756  2.1004  0.9667 -0.9306
  625MOL0     H84350  12.442   3.418  10.666 -2.4500 -2.6997 -0.1628
  625MOL0     H84351  12.436   3.236  10.499  0.8359  2.1566  0.1546
  625MOL0     H84352  12.385   3.176  10.659  2.7726 -0.8608  5.7422
  625MOL0     H84353  12.541   3.008  10.548 -1.3336  1.1108 -0.5091
  625MOL0     H84354  12.654   3.142  10.556  0.2331 -0.4329 -0.6501
  625MOL0     H84355  12.421   3.929  10.540  1.8612  0.3159 -1.5181
  625MOL0     H84356  12.156   3.914  10.503 -2.9893 -1.0309 -2.6782
  625MOL0     H84357  11.824   3.711  10.187 -0.3285 -0.7232  0.6297
  625MOL0     H84358  11.587   3.699  10.163  1.0884 -0.2468 -0.2191
  625MOL0     H84359   9.635   3.704  10.249  0.8062  0.6030 -1.7916
  625MOL0     H84360   9.425   3.585  10.275 -1.5580 -4.1072 -0.4250
  625MOL0     H84361   9.144   3.301  10.182  0.9955  0.4883 -0.5862
  625MOL0     H84362   8.900   3.205  10.159  1.4545  1.2181  2.5402
  625MOL0     H84363   8.666   3.263   9.798  1.1070 -0.5976  0.7970
  625MOL0     H84364   8.609   3.410   9.887  0.3291 -0.8459 -5.6904
  625MOL0     H84365   8.444   3.303  10.026  0.6841 -2.1472  1.2647
  625MOL0     H84366   8.503   3.152   9.989  0.6371  1.1012  1.8950
  625MOL0     H84367   8.450   3.197   9.738 -1.2052  0.3120 -1.3196
  625MOL0     H84368   8.386   3.359   9.779  1.2762  0.8852  1.6102
  625MOL0     H84369   8.221   3.154   9.765 -0.2287 -0.2899  0.0307
  625MOL0     H84370   8.273   3.126   9.928  1.1992  1.7981  2.4329
  625MOL0     H84371   8.031   3.474   9.933 -2.4779 -2.3589  0.4505
  625MOL0     H84372   8.854   3.441   9.802 -0.8586  0.4267 -0.1359
  625MOL0     H84373   9.091   3.639   9.789  1.9174 -0.7353  2.0958
  625MOL0     H84374   9.181   3.488   9.726 -0.3990 -0.5967  0.3451
  625MOL0     H84375   9.021   3.520   9.683  0.1844  1.1614 -0.4610
  626MOL0     O84376   1.947   7.019   2.864 -0.0024 -0.5640  1.0949
  626MOL0     C84377   1.965   7.010   2.984 -0.1179  0.0949  0.3079
  626MOL0     O84378   2.083   7.040   3.046 -0.0676  0.3183  0.5300
  626MOL0     C84379   2.173   7.134   3.002  0.7627 -0.2768 -0.0841
  626MOL0     C84380   2.159   7.216   2.887  0.8136  0.2652 -0.5538
  626MOL0     C84381   2.250   7.311   2.849 -0.3765 -1.3520 -0.9256
  626MOL0     C84382   2.364   7.335   2.927 -0.2541 -0.1492 -0.5368
  626MOL0     O84383   2.469   7.419   2.899  0.2771  0.1849 -0.7459
  626MOL0     C84384   2.476   7.489   2.773 -0.4916  1.5442  0.3667
  626MOL0     C84385   2.635   7.481   2.752  1.4276 -0.1650 -0.4032
  626MOL0     C84386   2.729   7.552   2.862 -0.2091  0.2840 -0.3148
  626MOL0     C84387   2.873   7.520   2.816 -0.5668  0.5028 -0.2979
  626MOL0     C84388   2.986   7.596   2.887  0.8840 -0.4493  0.4556
  626MOL0     C84389   3.008   7.741   2.833  0.5324 -0.0791 -0.4060
  626MOL0     C84390   3.129   7.834   2.880  0.2238  0.1881  0.3176
  626MOL0     C84391   3.099   7.921   2.999 -0.1909 -0.4038  0.4785
  626MOL0     N84392   3.012   7.861   3.103  0.3063 -0.5020  0.0983
  626MOL0     C84393   2.883   7.885   3.100  0.6440  0.1953 -0.5641
  626MOL0     C84394   2.839   7.859   3.228 -0.1767 -0.4329  0.3137
  626MOL0     C84395   2.700   7.857   3.284  0.7254  0.0187 -0.1336
  626MOL0     C84396   2.597   7.759   3.221  0.5496 -0.8335  0.7411
  626MOL0     C84397   2.457   7.763   3.287  0.0508 -0.9121 -0.4601
  626MOL0     C84398   2.387   7.629   3.265 -0.2198 -0.5705  0.2386
  626MOL0     O84399   2.273   7.634   3.353 -0.0955 -0.2409 -0.9036
  626MOL0     C84400   2.199   7.516   3.375  0.3115  0.5939 -0.2169
  626MOL0     C84401   2.080   7.540   3.447 -0.2305  0.4226  0.1648
  626MOL0     C84402   1.992   7.438   3.489 -0.7133 -0.2481  0.3894
  626MOL0     C84403   2.029   7.303   3.451  0.3135 -0.2786  0.0364
  626MOL0     C84404   1.947   7.193   3.493 -0.1602  0.9744  0.3290
  626MOL0     O84405   1.828   7.227   3.535 -0.1011  0.6265 -0.1984
  626MOL0     C84406   1.750   7.135   3.594  0.0173  0.2391 -0.9075
  626MOL0     C84407   1.612   7.143   3.568 -0.3208 -0.3335  0.6699
  626MOL0     C84408   1.528   7.052   3.615  0.5129 -0.6245 -0.7603
  626MOL0     C84409   1.565   6.947   3.700  0.9951 -0.3117  0.4010
  626MOL0     O84410   1.477   6.861   3.753 -0.0512  0.4901  0.3973
  626MOL0     C84411   1.348   6.830   3.686  0.0746 -0.3739 -0.8492
  626MOL0     C84412   1.287   6.711   3.761 -0.2142  0.0726  0.6086
  626MOL0     C84413   1.162   6.659   3.674 -0.4770  0.7373  0.0869
  626MOL0     C84414   1.094   6.536   3.722  0.3573 -1.2546 -0.4261
  626MOL0     C84415   1.188   6.429   3.733 -0.3309  0.7082 -0.6973
  626MOL0     C84416   1.110   6.295   3.738  0.5136 -0.2806 -0.5651
  626MOL0     C84417   1.195   6.188   3.802  0.7302  0.1651  0.5083
  626MOL0     C84418   1.166   6.049   3.744  0.1625  0.9635 -0.4761
  626MOL0    Cl84419   1.010   5.977   3.788 -0.4798  0.1029 -0.0357
  626MOL0     C84420   1.703   6.934   3.739  0.4809 -0.1694  0.0317
  626MOL0     C84421   1.792   7.026   3.686 -0.5837 -0.5616  0.4180
  626MOL0     O84422   1.991   7.074   3.500 -0.2754 -0.0023 -0.0634
  626MOL0     C84423   2.145   7.272   3.373  0.0203  0.1495 -0.8518
  626MOL0     C84424   2.225   7.380   3.334 -0.0587  0.0119  0.3901
  626MOL0     N84425   2.942   7.796   3.296  0.5687  0.3804 -0.5836
  626MOL0     N84426   3.043   7.789   3.215  0.2958  0.3916  0.0143
  626MOL0     C84427   2.385   7.255   3.037  0.7196  0.2656  0.6304
  626MOL0     C84428   2.284   7.162   3.080 -0.5222  0.1284  0.0987
  626MOL0     C84429   1.878   6.925   3.060 -0.8354 -0.1007 -0.5791
  626MOL0     C84430   1.905   6.907   3.202  0.3179  0.0037 -0.8473
  626MOL0     C84431   1.836   6.816   3.289  0.1894 -0.7862  0.5636
  626MOL0     C84432   1.729   6.740   3.237 -0.1305 -1.0032 -0.5785
  626MOL0     O84433   1.653   6.649   3.311 -0.5494  0.3230 -0.1508
  626MOL0     C84434   1.686   6.647   3.447  0.3911 -0.1839 -0.0222
  626MOL0     C84435   1.570   6.551   3.503 -0.7143 -0.9451  0.4885
  626MOL0     C84436   1.585   6.400   3.462 -0.6476  0.7544  0.5887
  626MOL0     C84437   1.474   6.316   3.520 -0.2197  0.0720  0.1860
  626MOL0     C84438   1.513   6.178   3.520 -0.1755  0.2273 -0.2607
  626MOL0     C84439   1.513   6.053   3.514  0.2543 -0.4930  0.3775
  626MOL0     C84440   1.692   6.766   3.101  0.7925  0.1760 -0.4382
  626MOL0     C84441   1.762   6.858   3.018 -0.0541 -0.3509  0.2006
  626MOL0     C84442   1.709   6.864   2.874  0.5036 -0.5732  1.1214
  626MOL0     H84443   2.085   7.193   2.812  0.8649  1.0786 -0.8566
  626MOL0     H84444   2.224   7.360   2.756 -1.0544 -0.8267 -0.4703
  626MOL0     H84445   2.418   7.439   2.695  2.0312 -2.7507  0.9314
  626MOL0     H84446   2.442   7.592   2.786 -1.3481  1.4114 -0.7119
  626MOL0     H84447   2.658   7.541   2.664 -1.9020  0.1334 -1.2176
  626MOL0     H84448   2.666   7.380   2.724 -0.9551 -1.4905  1.2639
  626MOL0     H84449   2.703   7.525   2.964 -3.1715 -1.4750 -1.3857
  626MOL0     H84450   2.704   7.658   2.849 -0.0563  0.7476  2.6427
  626MOL0     H84451   2.890   7.414   2.839  0.7356  0.8075  0.2712
  626MOL0     H84452   2.892   7.535   2.710 -1.0106 -0.2027 -0.4876
  626MOL0     H84453   2.947   7.607   2.989  0.0338  0.2867  0.0600
  626MOL0     H84454   3.078   7.536   2.890 -0.0004 -2.0453 -1.8687
  626MOL0     H84455   3.015   7.734   2.724 -0.0572 -0.6702 -0.4152
  626MOL0     H84456   2.918   7.798   2.856  1.2345  1.4004 -1.1517
  626MOL0     H84457   3.163   7.896   2.798  1.1845 -0.7007  0.0203
  626MOL0     H84458   3.213   7.768   2.903  1.6399  1.3309 -1.3832
  626MOL0     H84459   3.191   7.948   3.052  1.4541 -0.1124 -2.3339
  626MOL0     H84460   3.053   8.016   2.971  0.8908  0.5021  1.6586
  626MOL0     H84461   2.838   7.936   3.015  1.7874  2.3052  0.0163
  626MOL0     H84462   2.712   7.812   3.383  1.3936 -0.8724 -0.6077
  626MOL0     H84463   2.660   7.959   3.279 -0.5598 -0.3857  1.0937
  626MOL0     H84464   2.586   7.773   3.113 -2.2224  2.9578  1.3104
  626MOL0     H84465   2.642   7.659   3.225  2.9190 -0.0544 -2.5003
  626MOL0     H84466   2.401   7.850   3.252  1.5433  0.0295 -0.6021
  626MOL0     H84467   2.478   7.789   3.391 -1.5969  0.2983 -0.3973
  626MOL0     H84468   2.454   7.546   3.287  1.1573  0.2194 -0.7959
  626MOL0     H84469   2.361   7.631   3.159 -1.4993  2.0408  0.5260
  626MOL0     H84470   2.064   7.641   3.483 -1.3075 -0.4935  2.4346
  626MOL0     H84471   1.900   7.462   3.542 -0.6789 -0.2545  0.4517
  626MOL0     H84472   1.581   7.221   3.499 -0.2565  1.1188  2.2216
  626MOL0     H84473   1.430   7.081   3.576  1.8580  2.8292 -1.9781
  626MOL0     H84474   1.279   6.915   3.683  0.5929  0.0442 -1.1575
  626MOL0     H84475   1.374   6.811   3.581  0.7266 -1.2129 -0.5374
  626MOL0     H84476   1.361   6.633   3.781 -0.1813  0.5068  2.3465
  626MOL0     H84477   1.262   6.738   3.864 -0.9299 -1.6269  0.9009
  626MOL0     H84478   1.088   6.737   3.654 -1.4220 -0.2183 -0.2933
  626MOL0     H84479   1.209   6.631   3.579  1.0352 -0.6949  1.1936
  626MOL0     H84480   1.017   6.511   3.648 -0.9903 -0.5422  0.6759
  626MOL0     H84481   1.045   6.552   3.818  1.2741 -0.4566 -0.0749
  626MOL0     H84482   1.261   6.436   3.813  0.7084 -0.0102 -1.5554
  626MOL0     H84483   1.246   6.424   3.640  0.1344  0.6244 -0.3999
  626MOL0     H84484   1.022   6.304   3.803  1.4823 -1.6063  1.0095
  626MOL0     H84485   1.085   6.255   3.639  0.1218 -1.4669 -0.0112
  626MOL0     H84486   1.181   6.181   3.910  1.3338 -0.4991  0.5487
  626MOL0     H84487   1.301   6.208   3.786  0.5309  1.3706  0.5943
  626MOL0     H84488   1.171   6.061   3.635  0.8710  3.1251 -0.2468
  626MOL0     H84489   1.248   5.980   3.766 -0.6358 -0.4647 -1.7348
  626MOL0     H84490   1.736   6.854   3.805  1.9594  0.9123  0.6490
  626MOL0     H84491   1.896   7.018   3.716 -0.4346  0.5472  0.2485
  626MOL0     H84492   2.161   7.166   3.357 -1.0497 -0.4436  1.5597
  626MOL0     H84493   2.316   7.359   3.277 -2.0713 -0.4207 -2.9470
  626MOL0     H84494   2.475   7.262   3.097  0.5934 -3.5727  1.4876
  626MOL0     H84495   2.312   7.106   3.169  0.4531  2.0156  1.0564
  626MOL0     H84496   1.993   6.952   3.249 -0.2196  0.9605 -0.7277
  626MOL0     H84497   1.875   6.808   3.390 -2.8145 -2.3081  1.6975
  626MOL0     H84498   1.680   6.747   3.490  0.9554  0.1111 -0.6208
  626MOL0     H84499   1.784   6.600   3.463  0.5488  0.8927  2.5588
  626MOL0     H84500   1.476   6.589   3.463 -1.3522 -2.0988  0.8572
  626MOL0     H84501   1.558   6.564   3.611 -2.3241  1.1759  0.1158
  626MOL0     H84502   1.680   6.360   3.499 -0.3771  0.5492 -0.2995
  626MOL0     H84503   1.594   6.388   3.354  1.0904 -2.6620  0.9922
  626MOL0     H84504   1.454   6.350   3.622  1.6544 -2.2495  1.4364
  626MOL0     H84505   1.387   6.330   3.455  0.4598  0.0542 -0.7424
  626MOL0     H84506   1.523   5.946   3.512  2.4654 -0.4948 -4.7479
  626MOL0     H84507   1.599   6.714   3.080  1.2871 -1.3172  0.8438
  626MOL0     H84508   1.613   6.811   2.871  2.7101 -5.0007 -0.8852
  626MOL0     H84509   1.700   6.970   2.847  1.1078  0.1135  3.4067
  626MOL0     H84510   1.785   6.809   2.817  0.0147 -2.1504  1.9306
  627MOL0     O84511   8.410  10.964   1.858 -0.0647  0.5640  0.1330
  627MOL0     C84512   8.464  10.877   1.787 -0.1103 -0.1939 -0.3087
  627MOL0     O84513   8.577  10.811   1.822 -0.6309  0.3457  0.3338
  627MOL0     C84514   8.661  10.849   1.929 -0.2933 -0.0920 -0.2241
  627MOL0     C84515   8.740  10.746   1.989 -0.5829  0.2325 -0.6674
  627MOL0     C84516   8.833  10.777   2.089 -0.2443 -0.3969 -0.4424
  627MOL0     C84517   8.849  10.911   2.128 -0.4635 -0.1500 -0.1444
  627MOL0     O84518   8.952  10.932   2.220 -0.2308 -0.6192  0.1089
  627MOL0     C84519   8.951  11.057   2.289 -0.6316  0.4865  0.3578
  627MOL0     C84520   9.054  11.049   2.402 -0.2650 -0.7655 -0.2239
  627MOL0     C84521   9.200  11.053   2.349  0.6940  0.4275  0.7046
  627MOL0     C84522   9.302  11.038   2.465  0.1811 -0.2236  0.2028
  627MOL0     C84523   9.443  10.992   2.423 -0.3114 -0.0211 -0.0199
  627MOL0     C84524   9.536  11.088   2.361 -0.3584 -0.2227 -0.2021
  627MOL0     C84525   9.664  11.029   2.307 -0.0036 -0.4245  0.8754
  627MOL0     C84526   9.771  11.004   2.419  0.6597  0.1469 -0.2471
  627MOL0     N84527   9.899  10.945   2.371  0.6623  0.6570 -0.7616
  627MOL0     C84528   9.959  10.969   2.247 -1.1861  0.2119  0.7148
  627MOL0     C84529  10.076  10.904   2.259 -0.1239 -0.5182  1.3350
  627MOL0     C84530  10.176  10.874   2.143 -0.4450  0.8936  0.3315
  627MOL0     C84531  10.299  10.955   2.147  0.3134 -0.2394 -0.3844
  627MOL0     C84532  10.380  10.912   2.261 -0.5191 -0.0945 -0.6187
  627MOL0     C84533  10.521  10.972   2.252 -0.0180 -0.3919  0.1978
  627MOL0     O84534  10.597  10.890   2.344  0.0868  0.3965  0.5225
  627MOL0     C84535  10.735  10.887   2.338 -1.3211 -0.0130 -0.5769
  627MOL0     C84536  10.820  10.976   2.274 -0.4578 -0.2561  0.0457
  627MOL0     C84537  10.959  10.961   2.276 -0.5362 -0.3116 -0.3456
  627MOL0     C84538  11.024  10.865   2.358 -0.6363 -0.0936  0.1908
  627MOL0     C84539  11.174  10.841   2.349  0.6085  0.4152  0.0032
  627MOL0     O84540  11.224  10.873   2.225 -0.5500 -0.1192  0.2469
  627MOL0     C84541  11.354  10.853   2.205 -0.0161 -0.7574 -0.4868
  627MOL0     C84542  11.441  10.965   2.225  0.1237 -0.0153  0.0081
  627MOL0     C84543  11.579  10.956   2.207  1.2585 -0.4275 -0.3308
  627MOL0     C84544  11.633  10.835   2.157 -0.0096  0.4793 -0.3641
  627MOL0     O84545  11.772  10.829   2.132 -0.3307 -0.1327  0.7129
  627MOL0     C84546  11.843  10.702   2.111  0.1006 -0.1245 -0.0831
  627MOL0     C84547  11.994  10.711   2.140  0.4328 -0.2835 -0.4403
  627MOL0     C84548  12.063  10.809   2.044  0.0259 -0.1275 -0.7023
  627MOL0     C84549  12.063  10.744   1.908  0.6179 -0.3924  0.5053
  627MOL0     C84550  12.135  10.823   1.799  0.3163  0.3328  0.0325
  627MOL0     C84551  12.279  10.852   1.835  0.2027  0.0516  0.9410
  627MOL0     C84552  12.378  10.729   1.832  0.7358 -0.5374  1.2040
  627MOL0     C84553  12.381  10.653   1.695  0.6186 -0.1195 -0.0871
  627MOL0    Cl84554  12.472  10.497   1.710  0.5017  0.2046 -0.1815
  627MOL0     C84555  11.549  10.718   2.151 -0.0564  0.0945 -0.3237
  627MOL0     C84556  11.414  10.732   2.174  1.1352 -0.5349  0.5161
  627MOL0     O84557  11.229  10.773   2.438  0.3883 -0.1985  0.1579
  627MOL0     C84558  10.944  10.774   2.428  0.5020  0.3986  0.4284
  627MOL0     C84559  10.799  10.785   2.409 -0.6640  0.1671  0.5014
  627MOL0     N84560  10.108  10.881   2.390 -0.8376 -0.7148  0.0934
  627MOL0     N84561   9.993  10.901   2.456  0.7184  0.3376 -1.3410
  627MOL0     C84562   8.761  11.013   2.090  0.1290 -0.6556  0.2496
  627MOL0     C84563   8.673  10.980   1.982  0.1531 -0.6977 -0.4633
  627MOL0     C84564   8.398  10.842   1.655  0.0843 -0.1113  0.3174
  627MOL0     C84565   8.263  10.888   1.633  0.6677 -0.1968 -1.1315
  627MOL0     C84566   8.196  10.862   1.515 -0.6971 -0.8568  0.2418
  627MOL0     C84567   8.259  10.785   1.419 -0.7647 -1.1176  0.6836
  627MOL0     O84568   8.208  10.776   1.291 -0.6439  0.4698  0.6437
  627MOL0     C84569   8.152  10.650   1.241  0.5956  0.2247  0.2430
  627MOL0     C84570   8.003  10.647   1.279  0.1647  0.1359 -0.0576
  627MOL0     C84571   7.914  10.638   1.152  0.6878 -0.5047  0.1884
  627MOL0     C84572   7.776  10.715   1.150  0.6842 -0.4293  0.9993
  627MOL0     C84573   7.695  10.640   1.244 -1.3278 -0.3904  0.6225
  627MOL0     C84574   7.633  10.570   1.316  0.5860 -0.0376 -0.4706
  627MOL0     C84575   8.388  10.740   1.438 -0.1653 -0.0395  0.8306
  627MOL0     C84576   8.460  10.769   1.553 -0.6737  0.3524 -0.1465
  627MOL0     C84577   8.607  10.721   1.545  0.3759  0.6003 -0.7125
  627MOL0     H84578   8.737  10.648   1.943  1.9362  0.1574 -0.8350
  627MOL0     H84579   8.902  10.722   2.151  0.5541  1.1123  0.0676
  627MOL0     H84580   8.964  11.147   2.228  1.3515  0.1520  0.2195
  627MOL0     H84581   8.853  11.059   2.338 -1.1547 -0.4611 -0.5868
  627MOL0     H84582   9.036  10.956   2.458  1.5636  0.2344  2.2609
  627MOL0     H84583   9.032  11.131   2.471 -1.2839 -0.6384 -0.6853
  627MOL0     H84584   9.218  11.149   2.301  1.8527  0.1061  0.4564
  627MOL0     H84585   9.221  10.974   2.277 -2.2119  0.3144 -0.1193
  627MOL0     H84586   9.315  11.136   2.511  0.2593  0.6645 -1.5965
  627MOL0     H84587   9.267  10.965   2.538 -0.3960 -0.8640 -0.6908
  627MOL0     H84588   9.494  10.960   2.514  1.3163 -0.2533 -0.9666
  627MOL0     H84589   9.441  10.914   2.346 -0.8548  1.6805 -1.8352
  627MOL0     H84590   9.480  11.142   2.283 -1.5776 -0.3772  0.5376
  627MOL0     H84591   9.564  11.159   2.439  0.7529  1.6682 -2.2068
  627MOL0     H84592   9.702  11.097   2.230 -2.4024 -2.2297 -2.1454
  627MOL0     H84593   9.638  10.939   2.251 -0.6516 -0.0707  0.5966
  627MOL0     H84594   9.794  11.100   2.468 -1.7452  0.4464  0.4208
  627MOL0     H84595   9.727  10.927   2.483  3.1601 -0.0914  1.3429
  627MOL0     H84596   9.920  11.009   2.155  0.2081  1.0066  0.4370
  627MOL0     H84597  10.198  10.767   2.153 -0.1030  1.0946  2.0860
  627MOL0     H84598  10.120  10.887   2.050  0.1023 -0.0311 -0.1484
  627MOL0     H84599  10.357  10.948   2.055  0.9862 -1.5192  0.1100
  627MOL0     H84600  10.282  11.061   2.166  1.2138 -0.0800 -0.4666
  627MOL0     H84601  10.396  10.804   2.250 -1.0021 -0.2756  0.4132
  627MOL0     H84602  10.332  10.935   2.356  1.7371 -1.7654  1.0513
  627MOL0     H84603  10.515  11.079   2.273 -2.4195  0.3409 -3.4285
  627MOL0     H84604  10.564  10.949   2.154 -0.7029 -2.6706  0.3666
  627MOL0     H84605  10.769  11.052   2.215 -5.1051 -3.0987 -0.1167
  627MOL0     H84606  11.019  11.023   2.210  3.1003 -2.6555  0.4419
  627MOL0     H84607  11.392  11.058   2.251  0.0741 -0.2214  0.6807
  627MOL0     H84608  11.644  11.041   2.223  1.8028 -0.9566  0.3112
  627MOL0     H84609  11.800  10.631   2.183 -0.3564  1.0589  0.8407
  627MOL0     H84610  11.808  10.662   2.015 -1.3059  0.2559  0.2354
  627MOL0     H84611  12.003  10.747   2.243  1.2443 -0.8592 -0.2999
  627MOL0     H84612  12.033  10.609   2.135 -0.0077 -0.4007 -1.7830
  627MOL0     H84613  12.000  10.898   2.051 -1.7925 -1.4395  0.7646
  627MOL0     H84614  12.162  10.823   2.087 -0.1370 -1.0069 -0.0182
  627MOL0     H84615  11.959  10.740   1.873  1.1693  2.2496 -1.8017
  627MOL0     H84616  12.104  10.643   1.923  2.5560  0.5462  1.9421
  627MOL0     H84617  12.079  10.917   1.791 -1.3740 -0.2916  3.0593
  627MOL0     H84618  12.127  10.763   1.708  2.6574 -0.2025  0.1032
  627MOL0     H84619  12.312  10.924   1.760  1.2488 -0.6139  0.7441
  627MOL0     H84620  12.288  10.900   1.933  0.6966 -0.6049  1.2244
  627MOL0     H84621  12.347  10.658   1.910 -1.8153 -0.8442 -0.0030
  627MOL0     H84622  12.470  10.783   1.857  0.0756  0.4986  1.4710
  627MOL0     H84623  12.277  10.636   1.666  0.9197  0.6380 -1.7262
  627MOL0     H84624  12.438  10.716   1.626 -0.6379  2.4260  1.0777
  627MOL0     H84625  11.589  10.620   2.125 -0.6947  0.3748 -2.5716
  627MOL0     H84626  11.355  10.641   2.173 -0.4706  0.4468 -0.5723
  627MOL0     H84627  10.986  10.708   2.504  0.4843 -0.0762  0.0312
  627MOL0     H84628  10.743  10.716   2.471  1.9430 -2.0785  0.5428
  627MOL0     H84629   8.752  11.112   2.133 -5.2232 -0.4029 -0.7657
  627MOL0     H84630   8.610  11.065   1.959 -0.5149 -1.1489 -0.3161
  627MOL0     H84631   8.211  10.935   1.715  1.1075 -0.9512 -0.4037
  627MOL0     H84632   8.094  10.899   1.518  0.6863  4.1551  5.8788
  627MOL0     H84633   8.202  10.569   1.295  0.8337 -1.2055 -2.0134
  627MOL0     H84634   8.162  10.641   1.133 -0.4506  2.3395 -0.0753
  627MOL0     H84635   7.975  10.735   1.338 -1.3838 -0.9228  0.8738
  627MOL0     H84636   7.992  10.558   1.341  1.5759  0.0339  0.0693
  627MOL0     H84637   7.911  10.534   1.118  4.1619 -0.9984  1.0180
  627MOL0     H84638   7.962  10.680   1.063 -0.6371 -0.7350 -0.6749
  627MOL0     H84639   7.783  10.823   1.163  1.5477 -0.1956 -0.9467
  627MOL0     H84640   7.727  10.713   1.052 -0.7870 -0.1534  1.7044
  627MOL0     H84641   7.591  10.511   1.395 -0.5231  0.8335 -0.3734
  627MOL0     H84642   8.423  10.680   1.355 -3.7872 -1.6951  0.3002
  627MOL0     H84643   8.666  10.808   1.573 -1.3601  2.2813 -1.9378
  627MOL0     H84644   8.617  10.629   1.604 -1.5587  0.2626 -0.8304
  627MOL0     H84645   8.633  10.698   1.441  2.1406  0.5533 -0.2917
  628MOL0     O84646   1.653   0.125   3.944  0.1342  0.1719 -0.3207
  628MOL0     C84647   1.594   0.219   3.899 -0.2314  1.2492  0.2290
  628MOL0     O84648   1.649   0.350   3.890  0.1015  0.0083 -0.1231
  628MOL0     C84649   1.775   0.377   3.931 -0.8116  0.6079 -0.6798
  628MOL0     C84650   1.797   0.509   3.963 -0.0445  1.5975 -0.6111
  628MOL0     C84651   1.921   0.557   4.015 -0.1482  0.4592 -0.9524
  628MOL0     C84652   2.022   0.468   4.033 -0.8265  0.0576  0.0319
  628MOL0     O84653   2.139   0.497   4.106 -0.4461 -0.5232 -0.2719
  628MOL0     C84654   2.243   0.559   4.036 -0.8304  1.1624  0.4125
  628MOL0     C84655   2.334   0.650   4.117 -0.8247  0.2499  1.0476
  628MOL0     C84656   2.452   0.678   4.028 -0.3243  0.4237 -0.5670
  628MOL0     C84657   2.555   0.762   4.110 -1.0563 -0.1486  0.5369
  628MOL0     C84658   2.675   0.789   4.009 -0.0274  0.1467  0.5710
  628MOL0     C84659   2.790   0.879   4.073 -0.0055 -0.1936 -0.0140
  628MOL0     C84660   2.883   0.933   3.967  0.0485  0.5616  0.5447
  628MOL0     C84661   3.018   0.965   4.028  0.1083 -0.1549 -0.3703
  628MOL0     N84662   3.091   1.047   3.921  0.2985 -0.3192 -0.6299
  628MOL0     C84663   3.120   1.181   3.930  0.1855 -0.2453  0.3821
  628MOL0     C84664   3.225   1.206   3.853  0.4480  0.3700  0.1325
  628MOL0     C84665   3.294   1.338   3.855  0.3108  0.9495  0.6697
  628MOL0     C84666   3.279   1.442   3.745  0.1378 -0.0509 -1.1086
  628MOL0     C84667   3.358   1.570   3.764 -0.1883  0.0649 -0.4422
  628MOL0     C84668   3.271   1.675   3.838  0.0862  0.2982  0.0230
  628MOL0     O84669   3.347   1.793   3.863 -0.0639  0.3331  0.4959
  628MOL0     C84670   3.445   1.799   3.961  0.5770  0.1716  1.0047
  628MOL0     C84671   3.479   1.698   4.043  0.1514  0.4089 -0.2782
  628MOL0     C84672   3.595   1.708   4.120 -0.1177 -0.8100  0.6661
  628MOL0     C84673   3.672   1.829   4.124 -0.6498  0.8968  0.0323
  628MOL0     C84674   3.797   1.827   4.202  0.3027  0.0559 -1.0504
  628MOL0     O84675   3.848   1.709   4.244 -0.0517 -0.0817 -0.3389
  628MOL0     C84676   3.962   1.697   4.324  0.7350  0.1312  0.4082
  628MOL0     C84677   4.035   1.575   4.305 -0.7921 -0.8893  0.6084
  628MOL0     C84678   4.145   1.544   4.381  0.5945  0.4224 -0.1369
  628MOL0     C84679   4.189   1.631   4.484  0.0136  0.4837 -0.0644
  628MOL0     O84680   4.288   1.601   4.571  0.9092  0.2913  0.3778
  628MOL0     C84681   4.251   1.510   4.670  0.0859 -0.4741  0.1291
  628MOL0     C84682   4.322   1.549   4.800  0.6970 -0.2363 -0.3833
  628MOL0     C84683   4.271   1.481   4.930 -0.1897 -0.0089 -0.4898
  628MOL0     C84684   4.341   1.538   5.062 -0.2074 -0.5554  0.1597
  628MOL0     C84685   4.496   1.505   5.057  0.1267  0.0126 -0.2015
  628MOL0     C84686   4.571   1.549   5.188 -0.6680  0.5794  0.3852
  628MOL0     C84687   4.718   1.508   5.180  0.0024  0.7284 -0.2817
  628MOL0     C84688   4.785   1.540   5.313  1.2803 -0.2645  0.0439
  628MOL0    Cl84689   4.959   1.527   5.310  0.6500  0.6353  0.3385
  628MOL0     C84690   4.130   1.753   4.500 -0.5635 -0.5398 -1.0279
  628MOL0     C84691   4.019   1.788   4.416 -0.1841 -0.8710 -0.2787
  628MOL0     O84692   3.847   1.939   4.230  0.5039  1.0425  0.2549
  628MOL0     C84693   3.632   1.936   4.047 -0.2598 -0.6468 -0.7067
  628MOL0     C84694   3.516   1.920   3.968  0.1642  0.8630  0.6471
  628MOL0     N84695   3.259   1.091   3.783  0.0669 -0.2498 -0.4159
  628MOL0     N84696   3.178   1.004   3.823  0.2525  0.9950  0.0331
  628MOL0     C84697   2.015   0.338   3.984  0.4902  0.2433  0.0712
  628MOL0     C84698   1.891   0.292   3.927  0.0646  0.2791 -0.7872
  628MOL0     C84699   1.453   0.205   3.855 -0.5359  0.8139  0.5378
  628MOL0     C84700   1.394   0.082   3.848 -0.0876 -0.7223  0.3257
  628MOL0     C84701   1.267   0.067   3.792 -0.9504  0.1158 -0.3369
  628MOL0     C84702   1.187   0.173   3.757 -0.0296 -0.3715 -0.3417
  628MOL0     O84703   1.055   0.167   3.707  0.0427 -0.4551  0.2986
  628MOL0     C84704   1.014   0.036   3.662 -0.0471 -0.0637  0.0307
  628MOL0     C84705   0.886   0.046   3.572  0.3274 -1.5838  0.1012
  628MOL0     C84706   0.764   0.076   3.658 -0.1558 -0.4745 -0.1490
  628MOL0     C84707   0.636   0.108   3.573  0.8548 -0.6656  0.8874
  628MOL0     C84708   0.593  -0.012   3.493  0.8284  0.2114  0.1087
  628MOL0     C84709   0.558  -0.088   3.402 -0.6481 -0.1562 -0.6180
  628MOL0     C84710   1.238   0.300   3.777 -0.6426  0.5134 -0.2729
  628MOL0     C84711   1.367   0.314   3.826 -0.5779 -0.5681  1.0317
  628MOL0     C84712   1.402   0.457   3.838 -0.0079  0.5266 -0.5364
  628MOL0     H84713   1.715   0.578   3.945 -1.1663 -0.3856 -3.7839
  628MOL0     H84714   1.935   0.659   4.047  1.2004 -0.1807  0.5924
  628MOL0     H84715   2.306   0.483   3.991 -0.1953  0.8664  1.7422
  628MOL0     H84716   2.193   0.616   3.957  1.0971  0.4695 -1.3640
  628MOL0     H84717   2.356   0.597   4.209 -3.0058 -3.6834 -0.4630
  628MOL0     H84718   2.273   0.736   4.148 -1.1600 -1.4005  5.6253
  628MOL0     H84719   2.427   0.733   3.937  1.6804 -0.5294 -1.7655
  628MOL0     H84720   2.502   0.584   4.002 -2.1639 -1.1361  1.2057
  628MOL0     H84721   2.505   0.854   4.143  1.1302  1.2738  0.1177
  628MOL0     H84722   2.580   0.701   4.197 -1.2127 -2.3507 -0.8751
  628MOL0     H84723   2.714   0.691   3.980 -2.7646 -0.7659 -0.3590
  628MOL0     H84724   2.630   0.830   3.918 -1.8159 -1.0682  0.8531
  628MOL0     H84725   2.747   0.968   4.119  3.8292  1.8632  0.0060
  628MOL0     H84726   2.847   0.831   4.153  0.1990  0.3310  0.1606
  628MOL0     H84727   2.842   1.024   3.921 -2.5110 -1.1718 -0.9150
  628MOL0     H84728   2.892   0.860   3.886  0.0480  2.1133 -0.9084
  628MOL0     H84729   3.005   1.017   4.123 -1.0494 -1.3536  0.1723
  628MOL0     H84730   3.087   0.884   4.054  0.1037 -0.4781 -1.3313
  628MOL0     H84731   3.074   1.250   4.001  2.2612 -0.4222  1.9994
  628MOL0     H84732   3.277   1.380   3.954  0.2094  1.2305  0.5349
  628MOL0     H84733   3.402   1.322   3.863  0.4946  1.7976  0.0726
  628MOL0     H84734   3.328   1.397   3.658  4.1685 -0.6753  1.1973
  628MOL0     H84735   3.173   1.463   3.733 -0.1087 -0.5812  0.0817
  628MOL0     H84736   3.378   1.603   3.662  2.6414 -0.0303  0.0024
  628MOL0     H84737   3.453   1.555   3.817  1.4304 -0.4963 -3.2589
  628MOL0     H84738   3.215   1.636   3.923 -0.2615  1.0782  0.1596
  628MOL0     H84739   3.194   1.702   3.765  0.8899  4.8931  0.5466
  628MOL0     H84740   3.424   1.605   4.037 -1.0287  0.9998  0.8426
  628MOL0     H84741   3.631   1.614   4.160  1.7796 -1.0489 -1.4326
  628MOL0     H84742   4.008   1.508   4.224  3.5700 -3.5501  1.0439
  628MOL0     H84743   4.190   1.447   4.363 -0.2965  0.0939 -0.6477
  628MOL0     H84744   4.146   1.523   4.698  0.5863  0.2013  1.7894
  628MOL0     H84745   4.266   1.407   4.635 -2.1503 -0.1289 -2.1935
  628MOL0     H84746   4.426   1.515   4.795  1.3937  1.7213 -0.1671
  628MOL0     H84747   4.334   1.658   4.801  3.5991 -0.4732  0.0816
  628MOL0     H84748   4.163   1.492   4.936  0.0295  2.9038 -0.1123
  628MOL0     H84749   4.304   1.377   4.923  1.5518  0.2980  1.8114
  628MOL0     H84750   4.291   1.492   5.148 -4.6003 -0.0703 -1.8243
  628MOL0     H84751   4.322   1.644   5.081  3.2212  0.2697 -0.3826
  628MOL0     H84752   4.538   1.559   4.971 -2.3932 -0.7282 -1.9959
  628MOL0     H84753   4.529   1.402   5.044 -0.1291  0.1892 -2.6688
  628MOL0     H84754   4.565   1.658   5.202 -0.0098  0.6098  0.4860
  628MOL0     H84755   4.534   1.498   5.277 -0.0303 -0.0508  0.3022
  628MOL0     H84756   4.769   1.565   5.101 -0.3001  0.7346 -0.4744
  628MOL0     H84757   4.729   1.400   5.167  0.1046  0.6523  0.3906
  628MOL0     H84758   4.771   1.641   5.353  1.0789 -1.0361  2.0395
  628MOL0     H84759   4.743   1.478   5.393 -0.5905  0.0955 -0.5952
  628MOL0     H84760   4.168   1.829   4.567  1.4414 -0.5768 -2.0661
  628MOL0     H84761   3.969   1.882   4.438  1.6350 -0.4453  2.6858
  628MOL0     H84762   3.682   2.032   4.041  1.5692 -1.6688 -3.6495
  628MOL0     H84763   3.481   1.996   3.898 -1.0212 -0.9131 -0.7954
  628MOL0     H84764   2.094   0.266   4.000 -0.7903 -1.7882 -2.0732
  628MOL0     H84765   1.891   0.201   3.867 -2.9320  0.6837 -1.5443
  628MOL0     H84766   1.450  -0.009   3.866  1.1307  0.3491  2.3014
  628MOL0     H84767   1.238  -0.035   3.767  1.4258 -0.9558  0.9415
  628MOL0     H84768   0.993  -0.031   3.746 -0.3913  0.1564  0.1208
  628MOL0     H84769   1.097  -0.014   3.611  0.0380 -1.5092  1.4755
  628MOL0     H84770   0.881  -0.050   3.520  0.1986 -1.0921 -0.8070
  628MOL0     H84771   0.901   0.127   3.501  0.2652  1.1576  2.9745
  628MOL0     H84772   0.779   0.169   3.713 -1.8319  1.0541 -2.1289
  628MOL0     H84773   0.752  -0.004   3.732  0.6660  0.2527  0.8039
  628MOL0     H84774   0.550   0.129   3.636 -0.6446 -1.3047 -0.8765
  628MOL0     H84775   0.643   0.185   3.495 -3.3686  1.1085  2.0020
  628MOL0     H84776   0.530  -0.140   3.312 -0.1820 -0.2772 -0.6952
  628MOL0     H84777   1.176   0.385   3.750 -1.3731 -0.2840 -1.1507
  628MOL0     H84778   1.435   0.475   3.941 -1.0315 -2.8788  0.5183
  628MOL0     H84779   1.485   0.485   3.773 -0.0530  0.2603 -0.7088
  628MOL0     H84780   1.317   0.524   3.821 -0.1555  0.1940 -1.1254
  629MOL0     O84781   4.560   0.501   8.745 -0.0951  0.0593  0.1564
  629MOL0     C84782   4.512   0.596   8.693  0.7362 -0.2230  0.0020
  629MOL0     O84783   4.575   0.676   8.595 -0.1813  0.3300 -0.6710
  629MOL0     C84784   4.714   0.691   8.582  0.7227  0.3331 -0.1305
  629MOL0     C84785   4.755   0.763   8.473  0.0932  0.0432 -0.5369
  629MOL0     C84786   4.887   0.789   8.450 -0.1532 -0.5147  0.4531
  629MOL0     C84787   4.986   0.731   8.531  0.3104 -0.1821 -0.4444
  629MOL0     O84788   5.120   0.741   8.497  0.9406  0.2984  0.3799
  629MOL0     C84789   5.209   0.669   8.589 -0.6121 -0.2507  1.2087
  629MOL0     C84790   5.354   0.705   8.547  1.1611  0.1088 -1.0871
  629MOL0     C84791   5.389   0.628   8.421 -0.4308  0.1621 -0.6615
  629MOL0     C84792   5.520   0.668   8.374 -0.3896 -0.7467 -0.6369
  629MOL0     C84793   5.583   0.593   8.257  0.4381 -0.1222  0.1633
  629MOL0     C84794   5.609   0.447   8.274  0.3069 -0.4638  0.3464
  629MOL0     C84795   5.638   0.386   8.144 -0.6203  0.1399  0.2048
  629MOL0     C84796   5.773   0.431   8.078 -0.1161  0.2459 -0.3052
  629MOL0     N84797   5.878   0.330   8.061  0.3404  0.6140  0.2416
  629MOL0     C84798   5.946   0.257   8.153  0.4473  0.0059 -0.7840
  629MOL0     C84799   6.005   0.164   8.089 -0.3195  1.1840  0.3313
  629MOL0     C84800   6.099   0.065   8.157 -0.3443 -0.9981 -0.1666
  629MOL0     C84801   6.249   0.114   8.154 -0.6145  0.3626 -0.7712
  629MOL0     C84802   6.336   0.057   8.274  0.5291 -1.5335 -0.3769
  629MOL0     C84803   6.484   0.104   8.261  0.5859  0.6468 -0.2088
  629MOL0     O84804   6.489   0.245   8.268  0.1970 -0.4530  0.3173
  629MOL0     C84805   6.611   0.303   8.294 -0.0253 -0.0249 -0.0362
  629MOL0     C84806   6.743   0.252   8.293  0.5702 -0.1274  0.8418
  629MOL0     C84807   6.858   0.325   8.332 -0.1203 -0.6470 -0.6174
  629MOL0     C84808   6.850   0.454   8.377 -0.2846  0.2487 -0.5957
  629MOL0     C84809   6.975   0.522   8.437 -0.5788  0.3149  0.4536
  629MOL0     O84810   7.095   0.448   8.443  0.0868  0.2028 -0.0630
  629MOL0     C84811   7.201   0.504   8.511 -0.4504  0.7083  0.1562
  629MOL0     C84812   7.332   0.488   8.467 -0.7466 -0.8761 -0.0894
  629MOL0     C84813   7.437   0.559   8.535  0.1271 -0.1694 -0.2312
  629MOL0     C84814   7.418   0.632   8.644  0.9671  0.7549 -0.6207
  629MOL0     O84815   7.523   0.692   8.703  0.1758  0.1489 -0.0052
  629MOL0     C84816   7.535   0.693   8.847  0.4126 -0.2644 -1.2985
  629MOL0     C84817   7.677   0.731   8.884 -0.4558  0.0672  0.0126
  629MOL0     C84818   7.785   0.641   8.833 -0.3872  0.4301  0.0295
  629MOL0     C84819   7.921   0.669   8.898  0.1659 -0.1471  0.0134
  629MOL0     C84820   8.031   0.582   8.842 -0.5726  0.3611 -0.0588
  629MOL0     C84821   8.164   0.593   8.920 -0.0020 -0.0530 -0.5331
  629MOL0     C84822   8.225   0.733   8.931 -0.9098  0.5159 -0.8423
  629MOL0     C84823   8.358   0.733   9.008 -0.0814  0.3417 -0.2525
  629MOL0    Cl84824   8.506   0.658   8.927 -0.0169 -0.1840 -0.3214
  629MOL0     C84825   7.288   0.641   8.695 -0.5756  0.1069 -0.1244
  629MOL0     C84826   7.183   0.578   8.631 -1.3737  0.5271  0.8378
  629MOL0     O84827   6.956   0.637   8.479  0.4974 -0.0094 -0.7277
  629MOL0     C84828   6.721   0.518   8.388  0.9182 -0.0287  0.3703
  629MOL0     C84829   6.608   0.434   8.351  0.2884 -0.3245 -0.1014
  629MOL0     N84830   5.967   0.165   7.955 -0.3166  0.3102 -0.1049
  629MOL0     N84831   5.900   0.269   7.938 -0.7330 -0.0015 -0.7323
  629MOL0     C84832   4.937   0.653   8.644  0.3565  0.0372  0.5718
  629MOL0     C84833   4.805   0.632   8.671  0.5387  0.3907 -0.9887
  629MOL0     C84834   4.378   0.630   8.733  0.8277 -0.0909 -0.4059
  629MOL0     C84835   4.332   0.762   8.702  0.3779  0.2485 -0.8440
  629MOL0     C84836   4.202   0.813   8.745 -0.5218 -0.4127 -0.3051
  629MOL0     C84837   4.112   0.724   8.802  0.8632  0.4300 -0.2662
  629MOL0     O84838   3.984   0.743   8.855  0.1049 -0.2566  0.5281
  629MOL0     C84839   3.914   0.856   8.799  0.4249 -0.4095  0.2689
  629MOL0     C84840   3.766   0.834   8.828 -0.0904  0.5902 -0.4377
  629MOL0     C84841   3.720   0.847   8.979  1.1069  0.1290  0.2495
  629MOL0     C84842   3.566   0.822   8.993 -1.5757 -0.7098 -0.1254
  629MOL0     C84843   3.484   0.934   8.933 -0.1203  0.7195 -0.4097
  629MOL0     C84844   3.436   1.033   8.886  0.1319 -0.5611  0.0212
  629MOL0     C84845   4.155   0.591   8.818 -0.6343  0.8675  0.1514
  629MOL0     C84846   4.281   0.540   8.791 -0.2771 -0.6320 -0.1402
  629MOL0     C84847   4.315   0.390   8.824  0.8583  0.0926  0.7971
  629MOL0     H84848   4.678   0.800   8.405 -0.5592  2.2777  1.2801
  629MOL0     H84849   4.911   0.847   8.362  0.0816 -2.0326 -0.5148
  629MOL0     H84850   5.202   0.712   8.689 -2.3097 -0.9586  1.4266
  629MOL0     H84851   5.193   0.561   8.578  0.9785 -0.3001 -1.8821
  629MOL0     H84852   5.424   0.677   8.626 -1.5850  0.0677  1.5413
  629MOL0     H84853   5.355   0.814   8.550  0.6411  0.1051 -0.1133
  629MOL0     H84854   5.311   0.633   8.343 -2.4288 -1.7907  1.0629
  629MOL0     H84855   5.400   0.525   8.455  2.2744  0.7575  0.4504
  629MOL0     H84856   5.520   0.773   8.343 -1.1677  0.4533  2.8912
  629MOL0     H84857   5.598   0.659   8.451  1.1804  1.3344 -1.8738
  629MOL0     H84858   5.513   0.608   8.174  0.0771 -0.1704  0.4590
  629MOL0     H84859   5.674   0.646   8.225 -0.5452  1.6165  0.1036
  629MOL0     H84860   5.691   0.447   8.347  0.3091 -1.8329  0.3776
  629MOL0     H84861   5.524   0.399   8.323 -0.5150 -1.3638 -1.8349
  629MOL0     H84862   5.549   0.415   8.087 -1.5516 -0.5086  1.2812
  629MOL0     H84863   5.637   0.277   8.151  0.0026 -0.0674 -2.1491
  629MOL0     H84864   5.750   0.464   7.976 -0.4656 -1.6205 -0.8650
  629MOL0     H84865   5.805   0.518   8.135 -0.8193  1.3729 -1.5787
  629MOL0     H84866   5.948   0.279   8.259 -1.3073 -0.4588 -0.6154
  629MOL0     H84867   6.066   0.054   8.261  1.1021  0.6813  0.5290
  629MOL0     H84868   6.085  -0.038   8.124 -2.4934 -1.2497  1.3021
  629MOL0     H84869   6.295   0.096   8.056  0.1605  0.7343 -0.4860
  629MOL0     H84870   6.260   0.223   8.157  0.2881  0.3664 -2.6094
  629MOL0     H84871   6.318  -0.050   8.265 -0.1116 -1.4340 -0.3738
  629MOL0     H84872   6.295   0.090   8.370  2.1444 -4.2733  1.3689
  629MOL0     H84873   6.528   0.065   8.168  0.6380 -1.1313  0.5386
  629MOL0     H84874   6.550   0.061   8.336  0.0791 -0.0583 -0.1650
  629MOL0     H84875   6.758   0.157   8.244  1.0596 -0.0419  0.8248
  629MOL0     H84876   6.957   0.284   8.313  0.1040 -0.0226 -0.8285
  629MOL0     H84877   7.347   0.421   8.383  0.3729 -0.7474 -0.0040
  629MOL0     H84878   7.531   0.558   8.482 -0.7410 -1.2495 -1.8173
  629MOL0     H84879   7.478   0.777   8.888 -0.1729 -2.7137  3.6648
  629MOL0     H84880   7.500   0.605   8.903  3.0449 -1.4095 -1.2727
  629MOL0     H84881   7.702   0.826   8.834 -0.7647 -0.4706 -1.1871
  629MOL0     H84882   7.682   0.739   8.993  1.0260  0.3406 -0.0465
  629MOL0     H84883   7.763   0.537   8.856  1.5781  0.2781  1.4916
  629MOL0     H84884   7.784   0.653   8.724  0.3551 -0.9800 -0.1451
  629MOL0     H84885   7.918   0.642   9.004  2.0809  0.7135  0.3322
  629MOL0     H84886   7.939   0.777   8.895  1.6351 -0.3769  0.0519
  629MOL0     H84887   8.049   0.611   8.739 -2.0628 -0.7733 -0.6817
  629MOL0     H84888   7.999   0.478   8.832  0.5924 -0.0908  0.6929
  629MOL0     H84889   8.136   0.559   9.020  1.6528  1.1411  0.3835
  629MOL0     H84890   8.240   0.527   8.877 -0.4569  1.1922 -3.5143
  629MOL0     H84891   8.154   0.785   8.995  0.1441  0.3509  0.4902
  629MOL0     H84892   8.223   0.794   8.839 -0.8167 -2.1550 -2.7268
  629MOL0     H84893   8.383   0.838   9.025 -0.3218  0.6287 -1.5809
  629MOL0     H84894   8.340   0.674   9.099 -0.9296  0.4847 -0.3249
  629MOL0     H84895   7.283   0.704   8.783 -0.1718  2.6601 -1.7928
  629MOL0     H84896   7.089   0.586   8.684 -1.1657 -1.0624  1.4964
  629MOL0     H84897   6.713   0.619   8.428 -3.1300  0.5216 -1.4169
  629MOL0     H84898   6.511   0.479   8.365  0.0177 -0.9374  0.0307
  629MOL0     H84899   5.008   0.613   8.716  3.8496  1.9919 -1.4784
  629MOL0     H84900   4.777   0.578   8.761 -0.8445  2.2654 -0.2257
  629MOL0     H84901   4.405   0.830   8.661  0.9461 -0.3300 -0.8085
  629MOL0     H84902   4.176   0.918   8.737 -0.1903 -0.3855 -1.1079
  629MOL0     H84903   3.937   0.865   8.692  0.6091  1.1035  0.4149
  629MOL0     H84904   3.948   0.951   8.841 -0.0628  1.1175 -2.5411
  629MOL0     H84905   3.726   0.742   8.783 -0.7875  0.1859  0.9707
  629MOL0     H84906   3.714   0.913   8.774 -0.6607  0.7978  0.3958
  629MOL0     H84907   3.737   0.948   9.017  0.8149 -0.6662  2.6722
  629MOL0     H84908   3.775   0.778   9.043 -0.0090 -2.2059 -1.1742
  629MOL0     H84909   3.535   0.733   8.938 -1.5292  0.8810 -2.9488
  629MOL0     H84910   3.547   0.827   9.101  3.8999  0.4027  1.0730
  629MOL0     H84911   3.396   1.123   8.845  3.2809  0.8359 -0.2437
  629MOL0     H84912   4.094   0.513   8.862 -0.4113  0.7141  0.1927
  629MOL0     H84913   4.378   0.393   8.913  0.2327  2.3386  1.2336
  629MOL0     H84914   4.220   0.339   8.844  0.3718  1.2694  1.5734
  629MOL0     H84915   4.364   0.339   8.740  2.1269  0.5029  1.2687
  630MOL0     O84916   7.537   5.213   6.733 -0.3065 -0.2786 -0.4683
  630MOL0     C84917   7.545   5.288   6.635 -0.7308 -1.5097  0.0282
  630MOL0     O84918   7.660   5.340   6.584 -0.1653 -0.3125  0.0461
  630MOL0     C84919   7.770   5.271   6.629 -0.4176  0.3260  0.3388
  630MOL0     C84920   7.849   5.315   6.733  0.1049  0.7270 -0.0452
  630MOL0     C84921   7.961   5.247   6.776  0.7690 -0.6722 -0.2892
  630MOL0     C84922   8.010   5.140   6.712  0.1572  0.9262 -0.3772
  630MOL0     O84923   8.126   5.072   6.729  0.0200 -0.0629  0.1003
  630MOL0     C84924   8.237   5.158   6.746  0.8254 -0.3655 -0.0351
  630MOL0     C84925   8.359   5.068   6.773 -0.5278 -1.2429 -0.0222
  630MOL0     C84926   8.366   5.017   6.921  0.6751  0.3658  0.2149
  630MOL0     C84927   8.510   4.980   6.946  0.9775  0.2403 -0.7166
  630MOL0     C84928   8.522   4.927   7.085  0.1457 -0.1348  1.2680
  630MOL0     C84929   8.661   4.874   7.119  0.9053 -0.6817 -0.4256
  630MOL0     C84930   8.696   4.745   7.054 -0.2509  0.1072 -0.1755
  630MOL0     C84931   8.604   4.624   7.088  0.0162  0.2612  0.2535
  630MOL0     N84932   8.593   4.569   7.218  0.2737  0.2322 -0.8045
  630MOL0     C84933   8.619   4.624   7.345  0.2522 -0.6927  0.0094
  630MOL0     C84934   8.597   4.515   7.426 -0.6241 -0.3645  0.2808
  630MOL0     C84935   8.620   4.495   7.571  0.3321 -0.2706 -0.8149
  630MOL0     C84936   8.756   4.415   7.577 -0.4322 -0.2957 -0.0123
  630MOL0     C84937   8.886   4.486   7.524  0.3085 -0.6639 -0.0702
  630MOL0     C84938   9.018   4.413   7.535 -0.0560 -0.5032  0.0006
  630MOL0     O84939   9.112   4.519   7.503  0.2923 -0.6052 -0.6503
  630MOL0     C84940   9.223   4.492   7.425 -0.4246 -0.3276  0.3468
  630MOL0     C84941   9.295   4.375   7.427 -1.3057  0.0121  0.0923
  630MOL0     C84942   9.406   4.358   7.353  0.1423 -0.6989  0.2699
  630MOL0     C84943   9.461   4.466   7.279  0.0016  0.3382  0.7493
  630MOL0     C84944   9.590   4.424   7.207  0.7754  0.3474  0.1022
  630MOL0     O84945   9.640   4.300   7.209 -0.6064  0.1413 -0.2031
  630MOL0     C84946   9.762   4.260   7.163 -0.7344  0.0472 -0.0783
  630MOL0     C84947   9.810   4.142   7.218 -0.8990  0.1504 -0.2712
  630MOL0     C84948   9.935   4.089   7.186  0.1850 -0.4060  0.1779
  630MOL0     C84949  10.024   4.159   7.101  0.9047 -0.5705 -0.2277
  630MOL0     O84950  10.146   4.104   7.090  0.4616  0.5313  0.1666
  630MOL0     C84951  10.255   4.172   7.020 -0.3023 -0.1140  0.2178
  630MOL0     C84952  10.382   4.104   7.053  0.4682  0.5189  0.1332
  630MOL0     C84953  10.510   4.137   6.973 -0.4928  0.2805 -0.2762
  630MOL0     C84954  10.548   4.284   6.983 -0.3065  0.3631  0.2274
  630MOL0     C84955  10.688   4.316   6.916  0.2787 -0.4511  1.2216
  630MOL0     C84956  10.730   4.237   6.788 -0.3321  0.6897 -0.7240
  630MOL0     C84957  10.648   4.266   6.659  0.0968  0.5790 -1.3986
  630MOL0     C84958  10.745   4.249   6.540 -0.3581  0.2769  0.6166
  630MOL0    Cl84959  10.858   4.387   6.520 -0.2853 -0.0012  0.1648
  630MOL0     C84960   9.976   4.268   7.029 -0.7559 -0.1034 -0.1207
  630MOL0     C84961   9.848   4.316   7.063 -0.0799  0.3340  0.1037
  630MOL0     O84962   9.645   4.522   7.162 -0.5575 -0.4745  0.4361
  630MOL0     C84963   9.393   4.586   7.279 -0.2978 -0.2624 -0.2403
  630MOL0     C84964   9.278   4.598   7.357 -0.6078 -0.2027  0.1221
  630MOL0     N84965   8.548   4.405   7.351 -0.0516 -0.1279 -0.6180
  630MOL0     N84966   8.540   4.445   7.231 -0.1520 -0.2318 -0.3332
  630MOL0     C84967   7.927   5.092   6.606 -0.0615 -0.8678 -0.3848
  630MOL0     C84968   7.808   5.142   6.573  0.7262 -0.6332  0.1208
  630MOL0     C84969   7.417   5.335   6.583 -0.6809  0.1688  0.0484
  630MOL0     C84970   7.401   5.466   6.545 -0.3814 -0.7978  0.4836
  630MOL0     C84971   7.277   5.523   6.508 -0.1790  1.4018 -0.2835
  630MOL0     C84972   7.160   5.437   6.501 -0.2928  0.3003 -0.4819
  630MOL0     O84973   7.036   5.497   6.474 -0.1804 -0.6105  0.2387
  630MOL0     C84974   6.918   5.425   6.467  0.2037  0.2945  0.7193
  630MOL0     C84975   6.799   5.523   6.447  0.1774  0.1058 -1.1526
  630MOL0     C84976   6.782   5.613   6.568 -0.1071 -0.5936  0.3479
  630MOL0     C84977   6.716   5.743   6.537  1.0685  0.0500  0.4426
  630MOL0     C84978   6.581   5.719   6.474 -0.8205 -0.2386 -0.4000
  630MOL0     C84979   6.466   5.686   6.443  0.1995  0.3838 -0.9246
  630MOL0     C84980   7.183   5.302   6.516  0.2536  0.2872 -0.5211
  630MOL0     C84981   7.305   5.254   6.563  1.3798 -0.2253  0.8723
  630MOL0     C84982   7.310   5.106   6.590 -0.3470 -0.8471 -0.4843
  630MOL0     H84983   7.816   5.407   6.780 -0.2066  0.7055 -0.2206
  630MOL0     H84984   8.025   5.293   6.850  0.9874  0.0652 -0.9159
  630MOL0     H84985   8.266   5.211   6.655  0.4597 -1.0597 -0.5651
  630MOL0     H84986   8.236   5.236   6.822 -2.3257  1.7899 -2.0277
  630MOL0     H84987   8.446   5.134   6.766 -1.5364  0.2420  0.8789
  630MOL0     H84988   8.365   4.990   6.696 -0.4653 -1.7744  0.5140
  630MOL0     H84989   8.294   4.935   6.931 -1.6252  2.3246  0.8434
  630MOL0     H84990   8.338   5.096   6.992 -3.6254 -0.3191 -0.3926
  630MOL0     H84991   8.543   4.917   6.863  0.9376 -0.0339 -0.5245
  630MOL0     H84992   8.574   5.069   6.947  0.0138  1.0060  1.7025
  630MOL0     H84993   8.499   5.017   7.144 -0.6200  3.0700 -3.3969
  630MOL0     H84994   8.441   4.853   7.094 -0.2519 -0.6401 -3.6083
  630MOL0     H84995   8.738   4.945   7.085  2.7823 -2.9351 -1.1543
  630MOL0     H84996   8.676   4.868   7.227  1.3494  4.1765  0.0290
  630MOL0     H84997   8.796   4.725   7.094 -0.5709  1.1699  1.2702
  630MOL0     H84998   8.705   4.755   6.946  2.5574 -1.2835 -0.1507
  630MOL0     H84999   8.506   4.629   7.041 -0.0288 -1.2707  0.1534
  630MOL0     H85000   8.652   4.544   7.031  0.5578  0.1023  0.9208
  630MOL0     H85001   8.680   4.708   7.377 -2.3331  1.9903 -1.5994
  630MOL0     H85002   8.637   4.588   7.627 -0.2406 -0.0598 -0.9884
  630MOL0     H85003   8.537   4.441   7.617 -1.3879  2.0880 -0.9911
  630MOL0     H85004   8.768   4.386   7.682 -2.1570 -2.0320 -0.2234
  630MOL0     H85005   8.751   4.324   7.516 -1.1768 -0.0234 -0.3709
  630MOL0     H85006   8.901   4.585   7.569  0.5622 -1.5374  1.8490
  630MOL0     H85007   8.867   4.492   7.416  1.8619  0.7668 -0.3100
  630MOL0     H85008   9.023   4.325   7.471 -1.7125  0.4417 -1.5179
  630MOL0     H85009   9.043   4.378   7.636  0.6399 -0.3997 -0.1276
  630MOL0     H85010   9.268   4.291   7.490  0.3864  0.3278  1.3205
  630MOL0     H85011   9.469   4.271   7.366  0.0736 -0.8534 -0.4047
  630MOL0     H85012   9.754   4.091   7.296  1.1381  0.5565  1.5538
  630MOL0     H85013   9.971   3.994   7.225  1.8352 -0.7694 -2.0044
  630MOL0     H85014  10.232   4.174   6.913 -3.4945  2.4433  0.7885
  630MOL0     H85015  10.253   4.275   7.056  0.0654 -0.5277  1.4620
  630MOL0     H85016  10.411   4.098   7.158 -0.0473 -3.3374  0.2056
  630MOL0     H85017  10.364   3.997   7.038 -1.9518  0.6253  1.6786
  630MOL0     H85018  10.595   4.083   7.017  1.2155  1.0184 -2.4891
  630MOL0     H85019  10.496   4.115   6.867 -0.6973 -0.4352 -0.1058
  630MOL0     H85020  10.545   4.313   7.088 -0.0844  1.7366 -0.1255
  630MOL0     H85021  10.466   4.341   6.938  1.7668  2.9144 -0.5544
  630MOL0     H85022  10.766   4.301   6.992 -0.1174 -0.8392  1.5537
  630MOL0     H85023  10.691   4.424   6.897  1.2080 -0.5885  0.4903
  630MOL0     H85024  10.832   4.271   6.767  0.3605  0.7526  2.2649
  630MOL0     H85025  10.730   4.131   6.813 -0.6465  0.9467  0.4560
  630MOL0     H85026  10.605   4.366   6.661 -0.0911  0.4887  0.1331
  630MOL0     H85027  10.560   4.201   6.655 -1.5563  2.6377 -0.4544
  630MOL0     H85028  10.813   4.163   6.542  2.4202  1.9908 -3.8616
  630MOL0     H85029  10.683   4.250   6.449 -1.1140  2.1814  1.1032
  630MOL0     H85030  10.033   4.315   6.949  0.7054  1.0184  1.4818
  630MOL0     H85031   9.825   4.404   7.004  1.2564  0.5198 -0.1702
  630MOL0     H85032   9.440   4.664   7.219  0.8866 -0.3668  0.5077
  630MOL0     H85033   9.225   4.693   7.360  0.6780  0.5446  3.0561
  630MOL0     H85034   7.965   5.004   6.555 -0.3973 -1.5931  0.5738
  630MOL0     H85035   7.739   5.108   6.496  0.8377 -1.4098  0.3635
  630MOL0     H85036   7.485   5.532   6.559  0.3482 -1.5068 -0.4339
  630MOL0     H85037   7.256   5.630   6.510 -1.1041  1.2176  0.3175
  630MOL0     H85038   6.913   5.373   6.563  0.6435 -0.2259  0.4647
  630MOL0     H85039   6.905   5.362   6.378 -2.0293  2.1503 -0.3994
  630MOL0     H85040   6.709   5.463   6.429 -0.5201  0.0698  1.8806
  630MOL0     H85041   6.823   5.582   6.358  0.7167  0.4758 -0.7733
  630MOL0     H85042   6.885   5.639   6.594  0.1126  1.5314 -2.1825
  630MOL0     H85043   6.732   5.570   6.655 -1.2869  0.4334  0.2146
  630MOL0     H85044   6.707   5.810   6.624  2.7744  1.9785 -0.7590
  630MOL0     H85045   6.773   5.800   6.462 -1.7369  3.4291  0.6105
  630MOL0     H85046   6.366   5.666   6.411 -0.5789  1.3148  0.8043
  630MOL0     H85047   7.098   5.234   6.518 -1.9675  2.8779  1.5438
  630MOL0     H85048   7.227   5.055   6.539 -0.1534  0.8311 -2.6222
  630MOL0     H85049   7.404   5.068   6.548  0.2530  1.4542 -1.3855
  630MOL0     H85050   7.287   5.086   6.695  2.1682  1.2458  0.5796
  631MOL0     O85051   1.187  10.397   3.069  0.3857 -0.0514 -0.3465
  631MOL0     C85052   1.227  10.321   2.982  0.4194  0.3448  0.0434
  631MOL0     O85053   1.360  10.301   2.944 -0.6932 -0.1121  0.8406
  631MOL0     C85054   1.464  10.358   3.018 -0.5994 -0.2070  0.8033
  631MOL0     C85055   1.558  10.431   2.951 -0.3497 -0.0630  1.1790
  631MOL0     C85056   1.675  10.480   3.014  0.2786 -0.7966 -0.0001
  631MOL0     C85057   1.692  10.460   3.148  0.5485 -0.2674 -0.1455
  631MOL0     O85058   1.814  10.510   3.193  0.4544  0.0498  0.4281
  631MOL0     C85059   1.848  10.476   3.326 -0.4699 -0.3903 -0.5675
  631MOL0     C85060   1.978  10.553   3.369 -0.2434  0.5268 -0.2106
  631MOL0     C85061   1.996  10.542   3.527  0.1127 -0.0170  0.1554
  631MOL0     C85062   2.141  10.544   3.574 -0.1677  0.3994 -0.4959
  631MOL0     C85063   2.214  10.684   3.550  0.3820 -0.3782  0.8170
  631MOL0     C85064   2.360  10.669   3.592 -0.2600  0.4892  0.6577
  631MOL0     C85065   2.438  10.799   3.617  0.6298  0.5703 -0.7840
  631MOL0     C85066   2.559  10.780   3.715 -0.6466  1.4623  0.6606
  631MOL0     N85067   2.654  10.886   3.705  0.7028  0.2103 -0.0411
  631MOL0     C85068   2.724  10.927   3.593  0.8522  0.9879 -0.3536
  631MOL0     C85069   2.816  11.008   3.637 -0.3560 -0.6493 -0.1253
  631MOL0     C85070   2.920  11.060   3.547  1.2250 -0.6974  0.9614
  631MOL0     C85071   3.054  10.978   3.554  0.1433 -1.0632 -0.5633
  631MOL0     C85072   3.157  11.047   3.647  0.2830 -0.2425 -0.2171
  631MOL0     C85073   3.269  10.960   3.673  1.1938 -0.0922 -0.8382
  631MOL0     O85074   3.223  10.833   3.719 -0.2516 -0.3245 -0.3098
  631MOL0     C85075   3.318  10.736   3.744 -0.9554  0.2327  1.0102
  631MOL0     C85076   3.267  10.618   3.793  0.2295 -0.6702  0.7561
  631MOL0     C85077   3.348  10.513   3.813  0.3169 -0.1213  0.4807
  631MOL0     C85078   3.486  10.522   3.797  0.2427  0.5100 -0.0580
  631MOL0     C85079   3.576  10.407   3.838  1.0454 -0.0728 -1.0355
  631MOL0     O85080   3.710  10.424   3.829 -0.3036 -0.1312  0.4934
  631MOL0     C85081   3.804  10.342   3.882  0.9951  0.5145 -0.1279
  631MOL0     C85082   3.780  10.213   3.938  0.3692 -0.2508 -0.7312
  631MOL0     C85083   3.892  10.147   3.993  0.4910  0.2583  0.1027
  631MOL0     C85084   4.017  10.199   3.973 -0.4331  0.4155 -0.7200
  631MOL0     O85085   4.120  10.119   4.014 -0.6575 -1.3067 -0.7152
  631MOL0     C85086   4.215  10.159   4.112  0.2651  0.3751  0.6299
  631MOL0     C85087   4.344  10.078   4.089 -0.0629  0.5857 -0.3637
  631MOL0     C85088   4.451  10.137   4.186  0.4965  0.9316  0.6837
  631MOL0     C85089   4.582  10.077   4.146 -0.1096 -0.7834 -0.3222
  631MOL0     C85090   4.681  10.056   4.251 -0.3263  1.0533  0.0555
  631MOL0     C85091   4.815  10.015   4.188  0.8783  0.0651  0.4238
  631MOL0     C85092   4.911  10.005   4.302  0.0736  0.8382  0.2385
  631MOL0     C85093   5.049   9.968   4.256  0.0310 -0.0469 -0.4226
  631MOL0    Cl85094   5.128   9.959   4.404 -0.2595  0.0343 -0.1501
  631MOL0     C85095   4.039  10.309   3.902  0.0101 -0.1092 -0.0887
  631MOL0     C85096   3.931  10.388   3.868 -0.4653 -0.5206  0.4414
  631MOL0     O85097   3.520  10.316   3.894 -0.3738  0.1727 -0.0181
  631MOL0     C85098   3.546  10.641   3.758  0.5542  0.1708  0.0600
  631MOL0     C85099   3.459  10.746   3.719 -0.1763  0.2175  0.2495
  631MOL0     N85100   2.798  11.023   3.774 -0.1243  0.2815  0.0594
  631MOL0     N85101   2.700  10.953   3.813  0.5946 -0.0758  0.7358
  631MOL0     C85102   1.595  10.381   3.216  0.1036 -0.1778  0.2305
  631MOL0     C85103   1.478  10.330   3.160 -0.4282 -0.7360  0.6514
  631MOL0     C85104   1.136  10.234   2.899  0.0009 -0.1772 -0.6421
  631MOL0     C85105   1.180  10.200   2.770 -0.0177 -0.1614 -0.2366
  631MOL0     C85106   1.077  10.156   2.677 -0.1836 -0.2936 -0.5519
  631MOL0     C85107   0.953  10.118   2.724 -0.5380 -0.4955 -0.4706
  631MOL0     O85108   0.868  10.070   2.627 -0.1693 -0.0253 -0.1620
  631MOL0     C85109   0.747   9.997   2.666  0.3745 -0.1513  0.6290
  631MOL0     C85110   0.689   9.926   2.543 -0.3035 -0.3562 -0.8275
  631MOL0     C85111   0.561   9.845   2.588 -0.6396 -0.3013 -0.0341
  631MOL0     C85112   0.582   9.699   2.595  0.4404 -0.0432  0.2762
  631MOL0     C85113   0.556   9.633   2.467 -0.1191  0.6427  0.6781
  631MOL0     C85114   0.522   9.589   2.359 -0.2500 -0.8009  0.0145
  631MOL0     C85115   0.913  10.143   2.858 -0.0208  0.4610 -0.9476
  631MOL0     C85116   1.006  10.198   2.948 -0.0675  0.4437  0.3941
  631MOL0     C85117   0.957  10.219   3.089  0.1982  1.0222  0.4741
  631MOL0     H85118   1.532  10.455   2.849 -0.6803 -2.3383  0.6764
  631MOL0     H85119   1.755  10.532   2.962  1.5768 -0.9743  1.7441
  631MOL0     H85120   1.766  10.515   3.387  0.8867  0.9111  0.4958
  631MOL0     H85121   1.867  10.371   3.349  0.1227 -0.2602 -0.4493
  631MOL0     H85122   1.983  10.657   3.337 -0.7085  0.1997 -1.4123
  631MOL0     H85123   2.062  10.500   3.324  0.0646 -0.1961  1.1495
  631MOL0     H85124   1.953  10.447   3.559  0.6584  0.0177  1.0108
  631MOL0     H85125   1.942  10.628   3.570 -1.8413 -0.8831 -0.4571
  631MOL0     H85126   2.143  10.521   3.681 -1.5499 -3.8908 -1.1914
  631MOL0     H85127   2.200  10.460   3.535  1.5692 -0.3517  3.2146
  631MOL0     H85128   2.203  10.715   3.446  0.8101 -0.1048  0.8542
  631MOL0     H85129   2.168  10.756   3.618  0.5963  1.4048 -0.8456
  631MOL0     H85130   2.358  10.605   3.680 -1.6638  0.3735  0.5750
  631MOL0     H85131   2.407  10.606   3.515 -1.2787  0.4832  0.0185
  631MOL0     H85132   2.370  10.874   3.660  0.7967 -0.6105  1.7005
  631MOL0     H85133   2.474  10.832   3.519  1.3165 -1.6275 -1.3094
  631MOL0     H85134   2.526  10.763   3.818  0.6615 -0.5961  0.8082
  631MOL0     H85135   2.604  10.683   3.691  1.5067  2.4220  0.6908
  631MOL0     H85136   2.726  10.881   3.495  0.1613 -0.3205  0.2198
  631MOL0     H85137   2.880  11.052   3.445 -0.0308 -0.2747  1.4061
  631MOL0     H85138   2.954  11.163   3.558  0.4696  0.0771 -2.7783
  631MOL0     H85139   3.021  10.876   3.575 -1.3751 -0.3629  0.7357
  631MOL0     H85140   3.101  11.000   3.458  3.8207  2.9311  1.7557
  631MOL0     H85141   3.112  11.074   3.743 -0.6191 -0.3709 -0.5994
  631MOL0     H85142   3.201  11.138   3.605 -1.1571  0.1157 -1.0122
  631MOL0     H85143   3.331  10.998   3.755 -0.9624  1.0748  0.3530
  631MOL0     H85144   3.324  10.943   3.581  0.4979 -1.1979 -1.0678
  631MOL0     H85145   3.159  10.610   3.797 -0.5455  2.7299 -3.9628
  631MOL0     H85146   3.310  10.422   3.858 -2.8207  0.4213 -0.8483
  631MOL0     H85147   3.681  10.178   3.965  0.5091 -0.4725 -0.5059
  631MOL0     H85148   3.885  10.047   4.034  0.9466 -0.5605 -1.6945
  631MOL0     H85149   4.239  10.262   4.084 -0.6033  0.3197 -0.3790
  631MOL0     H85150   4.188  10.155   4.218 -0.3038  1.8372  0.5708
  631MOL0     H85151   4.322   9.972   4.109 -0.3452  0.8832  1.0327
  631MOL0     H85152   4.377  10.101   3.987  0.2276 -1.9571 -0.9103
  631MOL0     H85153   4.462  10.245   4.201  0.5386  0.9473  0.5391
  631MOL0     H85154   4.433  10.091   4.284 -2.0808  0.4202  0.0367
  631MOL0     H85155   4.624  10.151   4.077  0.6586  0.9999  1.9302
  631MOL0     H85156   4.573   9.987   4.085  3.8055 -1.4931 -0.0958
  631MOL0     H85157   4.652   9.968   4.311  2.3461 -2.2155 -3.0184
  631MOL0     H85158   4.694  10.142   4.317  3.0701  1.3851 -0.8666
  631MOL0     H85159   4.806   9.919   4.136  1.4069  0.1258  0.2162
  631MOL0     H85160   4.865  10.083   4.118  2.2366  1.2490  2.4457
  631MOL0     H85161   4.865   9.921   4.357  0.5017 -1.3335 -2.5042
  631MOL0     H85162   4.920  10.096   4.361  0.3664  1.2896 -0.4984
  631MOL0     H85163   5.052   9.868   4.212  2.0216 -0.2972  0.1947
  631MOL0     H85164   5.089  10.042   4.186  1.0992  1.4451  1.6526
  631MOL0     H85165   4.142  10.333   3.879  0.0276 -2.5237 -3.2348
  631MOL0     H85166   3.955  10.480   3.816 -1.2450 -0.2860  0.4843
  631MOL0     H85167   3.653  10.653   3.743  0.4313  1.9662  0.3760
  631MOL0     H85168   3.502  10.830   3.664 -0.0579  0.3356  0.5199
  631MOL0     H85169   1.612  10.358   3.321  2.5805  1.9984  0.3934
  631MOL0     H85170   1.406  10.279   3.223 -1.1155 -0.7923 -0.1513
  631MOL0     H85171   1.281  10.208   2.732  0.3699 -1.1432  0.5645
  631MOL0     H85172   1.090  10.161   2.569 -1.2880  0.4655 -0.6669
  631MOL0     H85173   0.673  10.061   2.715 -2.2465 -0.2007 -2.9113
  631MOL0     H85174   0.777   9.917   2.735 -3.4281 -0.4262  2.1847
  631MOL0     H85175   0.760   9.862   2.490 -0.3856 -0.6881 -0.5450
  631MOL0     H85176   0.648   9.994   2.467 -3.2115 -0.7221  0.2689
  631MOL0     H85177   0.478   9.861   2.519 -0.1807  0.2651 -0.4720
  631MOL0     H85178   0.533   9.876   2.689 -0.6786  0.3733 -0.2447
  631MOL0     H85179   0.678   9.666   2.636  0.5565  0.5704  0.5089
  631MOL0     H85180   0.503   9.660   2.660 -0.2063 -1.9904 -1.5822
  631MOL0     H85181   0.489   9.561   2.261 -0.4850  1.3258 -0.5724
  631MOL0     H85182   0.817  10.119   2.903  1.2620 -3.2183  0.2020
  631MOL0     H85183   1.031  10.188   3.162  0.9887 -0.1881 -0.7880
  631MOL0     H85184   0.922  10.321   3.108  2.5690  1.3409  4.0135
  631MOL0     H85185   0.871  10.154   3.108  0.7630  0.0986 -0.0798
  632MOL0     O85186   3.463  11.247   9.346  0.4187 -0.2515 -0.4689
  632MOL0     C85187   3.539  11.177   9.422  1.1944 -0.5775 -0.1760
  632MOL0     O85188   3.671  11.160   9.403  0.3299  0.3327  0.5669
  632MOL0     C85189   3.730  11.196   9.281 -0.4366  0.3565  0.6051
  632MOL0     C85190   3.810  11.098   9.230 -0.9076 -0.8125  0.2496
  632MOL0     C85191   3.896  11.136   9.120 -0.4898  0.2103 -0.1614
  632MOL0     C85192   3.892  11.257   9.065  0.1317  0.5879  0.4891
  632MOL0     O85193   3.957  11.272   8.949  0.3437 -0.3785  0.3720
  632MOL0     C85194   3.980  11.401   8.884 -1.0865 -0.3429  0.6638
  632MOL0     C85195   4.107  11.383   8.805  0.0838 -0.5074 -0.0766
  632MOL0     C85196   4.080  11.324   8.659 -0.4913 -0.1859 -0.7220
  632MOL0     C85197   4.205  11.331   8.569 -0.0848 -0.5011 -0.6968
  632MOL0     C85198   4.185  11.279   8.430 -1.0461 -0.3700 -0.5651
  632MOL0     C85199   4.324  11.250   8.370 -0.1699 -0.0748  0.1681
  632MOL0     C85200   4.304  11.194   8.226 -0.6788  0.3619  0.4332
  632MOL0     C85201   4.446  11.192   8.147 -0.1875 -0.1597  0.9662
  632MOL0     N85202   4.530  11.079   8.193  0.2527  0.1010  0.3777
  632MOL0     C85203   4.651  11.046   8.134  0.5766  0.3369 -0.5142
  632MOL0     C85204   4.688  10.927   8.192 -0.2134 -0.1277 -0.0655
  632MOL0     C85205   4.800  10.834   8.163  0.3140  0.3272  0.2155
  632MOL0     C85206   4.943  10.884   8.164  0.0804  0.2922 -0.5462
  632MOL0     C85207   5.038  10.757   8.156  0.0077 -0.8648 -0.0034
  632MOL0     C85208   5.191  10.801   8.160 -0.5376  0.4858 -0.5360
  632MOL0     O85209   5.212  10.850   8.292 -0.0158 -0.1069  0.0224
  632MOL0     C85210   5.311  10.820   8.376 -0.2868 -0.1754 -0.5014
  632MOL0     C85211   5.425  10.743   8.341 -0.5159 -0.1808 -0.5833
  632MOL0     C85212   5.535  10.745   8.431 -0.4283  0.2754 -0.4353
  632MOL0     C85213   5.531  10.814   8.551  0.0816 -0.3060 -0.6549
  632MOL0     C85214   5.660  10.840   8.630  0.7538 -0.1200  0.6590
  632MOL0     O85215   5.637  10.878   8.763  0.2386 -0.4638  0.7006
  632MOL0     C85216   5.748  10.913   8.822  0.2016 -0.1933  0.2342
  632MOL0     C85217   5.821  10.818   8.892  0.0390 -0.1680  0.7282
  632MOL0     C85218   5.917  10.859   8.984 -0.8482  0.1287 -0.4419
  632MOL0     C85219   5.944  10.998   8.993 -1.0026  0.3195 -0.2254
  632MOL0     O85220   6.037  11.041   9.090 -0.0338  0.2539  0.2631
  632MOL0     C85221   6.166  10.985   9.087 -0.0489 -0.7065 -0.1330
  632MOL0     C85222   6.263  11.097   9.066  0.4996 -0.1849 -0.5800
  632MOL0     C85223   6.260  11.157   8.921  0.0113 -0.0487 -0.3222
  632MOL0     C85224   6.357  11.271   8.927 -0.3460 -0.5409 -0.4809
  632MOL0     C85225   6.377  11.335   8.790  0.2425  0.5285 -1.8393
  632MOL0     C85226   6.470  11.254   8.697 -1.3751 -0.3580 -0.8713
  632MOL0     C85227   6.615  11.251   8.742 -0.7240 -0.3512  0.4951
  632MOL0     C85228   6.690  11.196   8.620 -0.6958  0.3389 -0.7156
  632MOL0    Cl85229   6.756  11.333   8.522 -0.2663 -0.2050  0.4654
  632MOL0     C85230   5.860  11.083   8.932 -0.4091  0.3615  0.4671
  632MOL0     C85231   5.772  11.046   8.832  0.3801 -0.0643 -0.1273
  632MOL0     O85232   5.764  10.825   8.575 -0.2458 -0.0889 -0.0801
  632MOL0     C85233   5.416  10.879   8.586  0.9528 -0.8436 -0.6617
  632MOL0     C85234   5.307  10.887   8.503 -0.0820  0.6651  0.0549
  632MOL0     N85235   4.593  10.896   8.289  0.0413 -0.5148 -0.1077
  632MOL0     N85236   4.495  10.987   8.279 -0.5362  0.5641 -0.6733
  632MOL0     C85237   3.805  11.355   9.122  0.3955 -0.7080  0.5265
  632MOL0     C85238   3.727  11.326   9.228  0.4224 -0.1762 -0.1839
  632MOL0     C85239   3.463  11.116   9.533  0.4214 -0.3741 -0.1396
  632MOL0     C85240   3.329  11.147   9.552  0.6045 -0.4805  0.1904
  632MOL0     C85241   3.254  11.098   9.655  0.1386 -0.5469 -0.9566
  632MOL0     C85242   3.309  11.013   9.753 -0.0253 -0.1738 -0.5618
  632MOL0     O85243   3.249  10.966   9.870 -0.5635  0.3128 -0.8049
  632MOL0     C85244   3.108  11.000   9.887 -1.0728 -0.6115  0.5410
  632MOL0     C85245   3.020  10.899   9.814  0.0837  0.8469 -0.2360
  632MOL0     C85246   2.871  10.936   9.808  0.5907 -0.6388  1.0739
  632MOL0     C85247   2.789  10.810   9.777  0.5724  0.1305 -0.5397
  632MOL0     C85248   2.792  10.703   9.876 -0.1247  0.0468 -0.7284
  632MOL0     C85249   2.784  10.630   9.970 -0.5333  1.1740  0.2811
  632MOL0     C85250   3.441  10.986   9.732 -0.1360 -0.1342  0.4849
  632MOL0     C85251   3.520  11.034   9.624  0.5982 -0.2676 -0.2497
  632MOL0     C85252   3.660  10.978   9.626 -0.2742 -0.1367 -0.4804
  632MOL0     H85253   3.829  11.003   9.280  2.1098 -0.1906  0.4235
  632MOL0     H85254   3.962  11.063   9.075 -0.8468  0.7218 -1.5522
  632MOL0     H85255   3.895  11.453   8.837 -0.7878 -1.6452 -1.4210
  632MOL0     H85256   4.021  11.468   8.961  4.9281  0.9746 -3.0080
  632MOL0     H85257   4.173  11.325   8.869 -0.9380 -1.2541  0.3389
  632MOL0     H85258   4.143  11.484   8.785 -1.4406 -0.2511 -1.7667
  632MOL0     H85259   3.996  11.377   8.614  2.1134  2.7137 -2.5452
  632MOL0     H85260   4.052  11.219   8.675  1.1484 -0.5899 -0.2870
  632MOL0     H85261   4.231  11.438   8.574  2.3556 -1.1069  2.2051
  632MOL0     H85262   4.280  11.273   8.624  0.1354 -1.6815 -2.1743
  632MOL0     H85263   4.124  11.188   8.434  0.5740 -1.4712  1.1891
  632MOL0     H85264   4.146  11.369   8.381  1.1030  0.8506 -0.1617
  632MOL0     H85265   4.386  11.338   8.357  2.1987 -1.8138 -1.1104
  632MOL0     H85266   4.377  11.180   8.436 -2.3756  0.4392  2.7023
  632MOL0     H85267   4.232  11.258   8.175  0.3796  1.8614  0.7403
  632MOL0     H85268   4.271  11.090   8.233  1.5835 -0.5366 -1.0617
  632MOL0     H85269   4.422  11.189   8.040  2.7196  0.2575  0.2002
  632MOL0     H85270   4.498  11.288   8.159  0.0872  0.6125 -4.0963
  632MOL0     H85271   4.694  11.100   8.050  1.9671  0.8786  0.5080
  632MOL0     H85272   4.805  10.754   8.237  1.5759 -0.6000 -0.8252
  632MOL0     H85273   4.777  10.777   8.073 -2.8272 -2.5910  2.6201
  632MOL0     H85274   4.957  10.956   8.083 -2.0180  3.1242  1.4031
  632MOL0     H85275   4.964  10.931   8.261  2.1786 -1.7880  0.1200
  632MOL0     H85276   5.007  10.700   8.068 -0.4206 -0.4523 -0.1263
  632MOL0     H85277   5.024  10.693   8.244 -3.8995 -3.8605 -2.4539
  632MOL0     H85278   5.205  10.867   8.074 -1.4654  0.9927 -0.3010
  632MOL0     H85279   5.268  10.725   8.141 -0.2334  1.0286 -1.6056
  632MOL0     H85280   5.438  10.709   8.239 -0.4609 -1.7051 -0.0936
  632MOL0     H85281   5.628  10.694   8.406 -1.6221 -1.5428 -1.4116
  632MOL0     H85282   5.799  10.714   8.875  1.0123 -0.0597 -1.4767
  632MOL0     H85283   5.976  10.784   9.035 -0.7358  0.8569  0.5092
  632MOL0     H85284   6.182  10.940   9.185  0.8725  0.9709  0.5276
  632MOL0     H85285   6.174  10.914   9.004 -1.3258  0.0773 -0.9625
  632MOL0     H85286   6.214  11.171   9.130 -2.2180 -2.0045 -0.3888
  632MOL0     H85287   6.367  11.070   9.083  0.2417 -2.6978 -2.4658
  632MOL0     H85288   6.301  11.080   8.855 -0.8686 -0.1987 -0.7141
  632MOL0     H85289   6.159  11.187   8.889  0.7272  2.2657 -0.6163
  632MOL0     H85290   6.451  11.228   8.964 -1.6529 -0.9251  2.7357
  632MOL0     H85291   6.312  11.348   8.990 -0.1466 -0.9280  0.1445
  632MOL0     H85292   6.428  11.431   8.803  0.9416 -0.1891  2.0194
  632MOL0     H85293   6.278  11.345   8.746  0.2783  0.2467 -1.9867
  632MOL0     H85294   6.436  11.150   8.699  2.5508 -1.8554  2.6228
  632MOL0     H85295   6.469  11.300   8.598 -0.7019  0.7858 -0.3677
  632MOL0     H85296   6.631  11.177   8.820 -1.8562 -2.0749 -0.8467
  632MOL0     H85297   6.651  11.352   8.765 -1.2702  0.3286 -1.4097
  632MOL0     H85298   6.784  11.143   8.634  0.4814  0.8564 -5.0246
  632MOL0     H85299   6.622  11.137   8.557  0.8610 -2.3300 -0.0384
  632MOL0     H85300   5.871  11.188   8.957  2.0603 -0.1557  1.9043
  632MOL0     H85301   5.710  11.115   8.775 -0.4541  1.1368  2.1186
  632MOL0     H85302   5.413  10.919   8.687 -1.5071 -0.0213 -1.0047
  632MOL0     H85303   5.219  10.944   8.530 -0.2573  0.6615 -0.5156
  632MOL0     H85304   3.795  11.451   9.072 -2.9849 -1.9050 -1.4133
  632MOL0     H85305   3.664  11.397   9.282 -2.3702 -2.6926  0.0796
  632MOL0     H85306   3.267  11.206   9.485 -0.4203 -2.7752 -0.9926
  632MOL0     H85307   3.151  11.133   9.655  0.1723 -0.0963 -4.2166
  632MOL0     H85308   3.089  11.100   9.847 -2.0825 -1.9612 -2.7120
  632MOL0     H85309   3.084  11.013   9.993  1.0001  2.6729  0.7489
  632MOL0     H85310   3.030  10.804   9.868 -1.5901  0.2322 -0.9499
  632MOL0     H85311   3.055  10.884   9.712  3.2193 -3.0012  1.1518
  632MOL0     H85312   2.845  11.015   9.738  0.0001  0.4029  2.4115
  632MOL0     H85313   2.833  10.964   9.907 -0.5230 -3.0043  1.3963
  632MOL0     H85314   2.685  10.839   9.759 -0.3472 -0.6617  2.8769
  632MOL0     H85315   2.827  10.763   9.685 -0.2748  0.2324 -0.9511
  632MOL0     H85316   2.765  10.585  10.065 -0.8425  0.3202 -0.1768
  632MOL0     H85317   3.483  10.925   9.811  2.8803  1.5000  0.3014
  632MOL0     H85318   3.671  10.880   9.675 -0.5122 -1.9565 -3.7960
  632MOL0     H85319   3.695  10.973   9.523  2.5735  2.8218  0.1885
  632MOL0     H85320   3.723  11.048   9.681  1.2717 -1.5110 -0.4080
  633MOL0     O85321   2.892   1.794   9.373  0.1978  0.0327  0.1150
  633MOL0     C85322   2.798   1.846   9.313 -0.3600 -0.0615  0.2737
  633MOL0     O85323   2.816   1.939   9.215 -0.0526  0.0302 -0.1227
  633MOL0     C85324   2.935   1.982   9.162  0.5251  0.1133 -1.7018
  633MOL0     C85325   2.934   2.025   9.029 -0.3923  0.2914 -0.7476
  633MOL0     C85326   3.051   2.073   8.973  0.1457  0.5082 -1.4373
  633MOL0     C85327   3.174   2.075   9.041 -0.1163  0.6568 -0.5134
  633MOL0     O85328   3.292   2.120   8.993 -0.3466  0.5941  0.0277
  633MOL0     C85329   3.300   2.238   8.904 -0.2241  0.8247  0.2322
  633MOL0     C85330   3.447   2.272   8.875 -0.7455  0.6560 -0.2458
  633MOL0     C85331   3.515   2.152   8.806 -0.6319  0.2693 -0.1009
  633MOL0     C85332   3.665   2.194   8.766  0.5736 -0.3408 -0.4607
  633MOL0     C85333   3.754   2.088   8.701 -0.6294 -0.3537  0.5026
  633MOL0     C85334   3.723   2.048   8.558  0.7344 -0.0257 -0.7009
  633MOL0     C85335   3.823   1.939   8.521 -0.0716 -0.4205 -0.3235
  633MOL0     C85336   3.798   1.880   8.391  0.1971 -0.0197 -0.0242
  633MOL0     N85337   3.808   1.960   8.271  0.2607 -0.5242  0.8065
  633MOL0     C85338   3.906   2.056   8.254 -0.1489  0.3567  0.1851
  633MOL0     C85339   3.900   2.085   8.120 -0.0001 -0.1237 -0.2599
  633MOL0     C85340   4.002   2.171   8.044 -0.3915 -0.3660 -0.9268
  633MOL0     C85341   3.962   2.316   8.037  0.4514 -0.0007  0.0505
  633MOL0     C85342   4.086   2.397   7.987  0.7344 -0.4106  0.5711
  633MOL0     C85343   4.039   2.539   7.965  0.8521  0.1230 -0.1073
  633MOL0     O85344   4.141   2.624   7.915  0.5858  0.1957 -0.4810
  633MOL0     C85345   4.263   2.615   7.967  0.4287  0.1441 -0.2554
  633MOL0     C85346   4.280   2.674   8.094  0.0467 -0.1940 -0.1262
  633MOL0     C85347   4.406   2.677   8.159 -1.4341  0.2420  0.2932
  633MOL0     C85348   4.527   2.629   8.098  0.6599 -0.1896 -0.2071
  633MOL0     C85349   4.666   2.624   8.152 -0.5855 -0.3113 -0.5632
  633MOL0     O85350   4.766   2.563   8.084  0.3429  0.0090 -0.6841
  633MOL0     C85351   4.881   2.519   8.138  0.4280  0.2034 -0.4319
  633MOL0     C85352   4.882   2.404   8.220 -0.0407  0.4387  0.1883
  633MOL0     C85353   5.016   2.359   8.263  0.6278  0.7869 -0.7496
  633MOL0     C85354   5.132   2.437   8.235 -0.6453  0.6880 -0.3462
  633MOL0     O85355   5.263   2.391   8.260 -0.4372 -0.1329  0.0558
  633MOL0     C85356   5.291   2.307   8.379  0.1253 -0.6257 -0.1498
  633MOL0     C85357   5.433   2.255   8.384 -0.1421  0.5565 -0.1738
  633MOL0     C85358   5.444   2.124   8.299 -0.6376  0.1161 -0.3171
  633MOL0     C85359   5.577   2.050   8.318 -0.2153 -0.4764  0.0716
  633MOL0     C85360   5.609   1.958   8.199  1.1115  0.1296  0.1648
  633MOL0     C85361   5.717   1.860   8.243 -0.7259  0.7699 -0.1902
  633MOL0     C85362   5.741   1.768   8.122 -0.5047  0.2881 -0.2771
  633MOL0     C85363   5.869   1.684   8.121  0.2427  0.6634  0.0958
  633MOL0    Cl85364   5.860   1.533   8.219 -0.3998 -0.1448  0.3703
  633MOL0     C85365   5.123   2.544   8.156 -0.4465 -0.7455  0.6052
  633MOL0     C85366   5.000   2.582   8.102  0.7029  0.4660 -0.1476
  633MOL0     O85367   4.677   2.664   8.269  0.4458  0.2302 -0.1599
  633MOL0     C85368   4.506   2.580   7.963 -0.4821 -0.5399  0.0446
  633MOL0     C85369   4.378   2.568   7.903  0.4265 -0.5391  0.1803
  633MOL0     N85370   3.795   2.021   8.058  0.0513 -0.0932 -0.1138
  633MOL0     N85371   3.738   1.948   8.153  0.2116  0.2098 -1.3989
  633MOL0     C85372   3.163   2.050   9.178 -0.3114 -0.7152 -1.0905
  633MOL0     C85373   3.050   2.003   9.241  0.9855  0.1649  0.5619
  633MOL0     C85374   2.656   1.832   9.359 -0.7391  1.1072  0.0527
  633MOL0     C85375   2.610   1.702   9.383  0.6689  0.4141  0.0842
  633MOL0     C85376   2.473   1.680   9.420 -0.8055 -0.3973 -0.0761
  633MOL0     C85377   2.377   1.785   9.423 -0.4959 -0.1561 -0.7779
  633MOL0     O85378   2.239   1.785   9.435 -0.5414  0.1369  0.2442
  633MOL0     C85379   2.183   1.658   9.389 -0.0563  0.2046  0.4101
  633MOL0     C85380   2.032   1.676   9.375  0.2428 -0.2766 -0.1913
  633MOL0     C85381   1.957   1.727   9.506 -0.7908  0.3222 -0.1080
  633MOL0     C85382   1.802   1.729   9.483  0.0251 -0.7052  0.1297
  633MOL0     C85383   1.741   1.604   9.524  0.5725 -0.3514  0.5375
  633MOL0     C85384   1.698   1.498   9.563  0.2505 -1.1987 -0.5079
  633MOL0     C85385   2.435   1.907   9.406 -0.0441  0.4907  0.9737
  633MOL0     C85386   2.567   1.934   9.375  0.6328  0.2703  0.1996
  633MOL0     C85387   2.602   2.084   9.347 -0.1422  0.1503 -1.3973
  633MOL0     H85388   2.843   2.032   8.971 -0.8336  2.2144  0.1000
  633MOL0     H85389   3.055   2.084   8.865 -1.7545 -0.5724 -1.6595
  633MOL0     H85390   3.252   2.223   8.807  0.2364  1.7724 -0.1468
  633MOL0     H85391   3.250   2.327   8.944  0.8933  0.2714  3.1297
  633MOL0     H85392   3.493   2.278   8.974  1.4029 -1.7353 -0.9815
  633MOL0     H85393   3.456   2.363   8.815  0.2008  0.1808 -0.8455
  633MOL0     H85394   3.463   2.130   8.712  0.5209 -1.9405 -0.2881
  633MOL0     H85395   3.526   2.062   8.867  1.3106 -0.2661 -1.1527
  633MOL0     H85396   3.661   2.281   8.700  0.3170 -0.2007 -0.2637
  633MOL0     H85397   3.720   2.230   8.853  2.1623 -0.1381 -1.5022
  633MOL0     H85398   3.858   2.121   8.702 -0.1565 -1.3886 -2.6527
  633MOL0     H85399   3.747   1.998   8.762 -2.5877 -0.2641  0.4825
  633MOL0     H85400   3.621   2.008   8.554  0.2251  0.7790  1.8860
  633MOL0     H85401   3.725   2.137   8.495 -5.3836 -0.0451 -1.5423
  633MOL0     H85402   3.829   1.866   8.602 -0.2046 -0.4887 -0.3759
  633MOL0     H85403   3.924   1.982   8.521 -0.9840  1.8980 -1.3183
  633MOL0     H85404   3.873   1.801   8.378  0.4509  0.1092  0.5890
  633MOL0     H85405   3.701   1.831   8.399 -0.5993  1.7949  3.6645
  633MOL0     H85406   3.982   2.099   8.319  1.1824 -2.8228  0.9113
  633MOL0     H85407   4.100   2.163   8.092 -1.0687  3.2016  1.4336
  633MOL0     H85408   4.005   2.141   7.938  0.8239  2.1845 -1.7036
  633MOL0     H85409   3.878   2.317   7.967 -0.4109  1.8049  1.0222
  633MOL0     H85410   3.933   2.367   8.130 -0.9933  1.6752 -1.2499
  633MOL0     H85411   4.116   2.353   7.891  0.3868  0.1740  0.1849
  633MOL0     H85412   4.163   2.389   8.064  2.0944  0.6383 -0.6214
  633MOL0     H85413   3.997   2.581   8.056 -1.8203  1.8906 -2.0086
  633MOL0     H85414   3.960   2.526   7.890 -0.2746  0.7075  0.9465
  633MOL0     H85415   4.211   2.722   8.162 -0.0386 -1.1709  0.4989
  633MOL0     H85416   4.410   2.717   8.260 -0.7539  0.2131  0.2855
  633MOL0     H85417   4.795   2.355   8.264  1.0273 -3.4072 -1.5552
  633MOL0     H85418   5.022   2.264   8.315  1.1017 -0.3590 -2.8015
  633MOL0     H85419   5.262   2.374   8.460 -1.4496 -0.5100 -0.7801
  633MOL0     H85420   5.219   2.226   8.392 -2.8574  2.1239  2.2916
  633MOL0     H85421   5.497   2.335   8.345 -0.6181  2.4040  2.5745
  633MOL0     H85422   5.468   2.240   8.487 -2.7907 -0.9524  0.6010
  633MOL0     H85423   5.363   2.052   8.315 -2.0415  1.5070 -0.9985
  633MOL0     H85424   5.435   2.151   8.194  0.7746  2.0752  0.0098
  633MOL0     H85425   5.569   1.987   8.407 -0.9768  0.6940  0.8608
  633MOL0     H85426   5.665   2.114   8.322  0.3698 -1.0836 -1.8564
  633MOL0     H85427   5.637   2.014   8.109  3.3034 -0.7371  0.2432
  633MOL0     H85428   5.523   1.894   8.175  0.4239  1.2335 -0.4252
  633MOL0     H85429   5.813   1.908   8.265  0.6100 -0.6046 -2.6391
  633MOL0     H85430   5.688   1.804   8.332 -1.2536 -0.6352 -1.2187
  633MOL0     H85431   5.738   1.841   8.041  1.1317  1.1258  0.3595
  633MOL0     H85432   5.659   1.696   8.113 -0.6769  0.5997 -1.2914
  633MOL0     H85433   5.894   1.665   8.016  0.7390  0.2777  0.2808
  633MOL0     H85434   5.948   1.740   8.171 -0.4336 -1.1035  3.4318
  633MOL0     H85435   5.210   2.603   8.128 -2.3633  1.3095 -1.4708
  633MOL0     H85436   5.004   2.663   8.030 -0.7509  2.0435  1.4485
  633MOL0     H85437   4.590   2.550   7.902 -1.0318 -0.6119 -0.6948
  633MOL0     H85438   4.367   2.531   7.802 -0.1276  2.5008 -0.9847
  633MOL0     H85439   3.254   2.074   9.232 -0.5766 -1.5825 -0.2329
  633MOL0     H85440   3.040   1.978   9.347  2.9398  0.6711  0.9074
  633MOL0     H85441   2.678   1.618   9.371 -1.7658 -1.7834  0.6946
  633MOL0     H85442   2.443   1.577   9.441  2.7901 -1.2416  1.6000
  633MOL0     H85443   2.210   1.581   9.462 -0.8701 -1.6406 -1.1380
  633MOL0     H85444   2.235   1.624   9.299 -1.2935  2.6044 -1.3228
  633MOL0     H85445   1.988   1.584   9.335  2.2413 -1.5095  0.2816
  633MOL0     H85446   2.014   1.748   9.295  0.4062  0.8815  0.7967
  633MOL0     H85447   1.989   1.829   9.529  1.6004 -0.0808 -1.3919
  633MOL0     H85448   1.977   1.660   9.590 -0.9801 -0.4772 -0.6926
  633MOL0     H85449   1.754   1.792   9.558 -2.5002 -2.2197 -0.0931
  633MOL0     H85450   1.767   1.757   9.384 -0.6228  1.8421  1.0039
  633MOL0     H85451   1.668   1.403   9.602 -1.2917 -0.0311  1.2797
  633MOL0     H85452   2.363   1.988   9.407  0.5324  1.6941 -5.8754
  633MOL0     H85453   2.523   2.155   9.376  0.1265  0.6412 -1.8455
  633MOL0     H85454   2.690   2.123   9.399 -1.5332  0.7134  0.7046
  633MOL0     H85455   2.602   2.108   9.240 -1.8993  0.4895 -1.3531
  634MOL0     O85456   4.408   5.274   2.515 -0.3792 -0.1405  0.9147
  634MOL0     C85457   4.385   5.381   2.576 -0.6302 -0.0488 -0.6038
  634MOL0     O85458   4.461   5.497   2.570  0.1483 -0.4059  0.0367
  634MOL0     C85459   4.518   5.511   2.446  0.2864 -0.0573  0.9986
  634MOL0     C85460   4.457   5.596   2.351 -0.1083 -0.6140 -0.2416
  634MOL0     C85461   4.530   5.653   2.242 -0.6991 -0.2618 -0.4226
  634MOL0     C85462   4.660   5.606   2.228  0.0742  0.0982 -0.1393
  634MOL0     O85463   4.723   5.653   2.116  0.9623  0.2843  0.2944
  634MOL0     C85464   4.828   5.568   2.069  0.2647 -0.0984 -0.3670
  634MOL0     C85465   4.842   5.579   1.922  0.5076 -0.3006 -0.3605
  634MOL0     C85466   4.838   5.719   1.865  0.3292 -0.2808  0.6727
  634MOL0     C85467   4.946   5.809   1.928  0.7730 -0.8193  0.5977
  634MOL0     C85468   5.086   5.758   1.895 -0.1156  0.7238 -0.0702
  634MOL0     C85469   5.189   5.843   1.975  0.0456  0.3928 -0.3475
  634MOL0     C85470   5.212   5.977   1.918 -0.1024 -0.5556  0.6146
  634MOL0     C85471   5.280   5.980   1.783  0.8113 -0.1132 -0.0568
  634MOL0     N85472   5.423   5.971   1.791 -0.9475  0.6052 -0.1708
  634MOL0     C85473   5.511   6.060   1.839  0.0924  0.7375 -0.1416
  634MOL0     C85474   5.632   5.996   1.829 -0.8954 -0.0766 -1.0520
  634MOL0     C85475   5.764   6.063   1.861  0.3269 -0.2436  0.3559
  634MOL0     C85476   5.880   6.019   1.763  1.0857  0.3506 -0.1283
  634MOL0     C85477   6.010   6.046   1.820  0.5881 -0.5703 -0.0248
  634MOL0     C85478   6.119   6.018   1.732 -0.8090  0.2802  0.0610
  634MOL0     O85479   6.231   6.100   1.781  0.8656 -0.0163  1.6838
  634MOL0     C85480   6.352   6.078   1.715 -0.4642 -0.2905  0.2415
  634MOL0     C85481   6.468   6.124   1.783 -0.1968  0.5394  1.1552
  634MOL0     C85482   6.593   6.113   1.728  0.7104  0.1508  0.3862
  634MOL0     C85483   6.607   6.069   1.595  0.6177 -0.4402 -0.1528
  634MOL0     C85484   6.738   6.052   1.541  0.3445 -0.2262  0.4637
  634MOL0     O85485   6.844   6.108   1.609 -0.5001 -0.2756  0.2625
  634MOL0     C85486   6.972   6.067   1.580 -0.0873 -0.0984  0.9218
  634MOL0     C85487   7.025   6.078   1.451  0.3452  0.3917  0.6046
  634MOL0     C85488   7.155   6.036   1.414 -0.5700 -0.2328  0.1954
  634MOL0     C85489   7.221   5.959   1.509 -0.1562  0.0526 -0.3839
  634MOL0     O85490   7.345   5.897   1.494 -0.0198 -0.0565  0.1187
  634MOL0     C85491   7.390   5.895   1.359 -0.3307 -0.4233  0.2444
  634MOL0     C85492   7.530   5.835   1.344  0.7212 -0.4254  0.1759
  634MOL0     C85493   7.638   5.929   1.374 -0.4342  0.4810 -0.3409
  634MOL0     C85494   7.773   5.859   1.345 -0.0124  0.5460  0.1526
  634MOL0     C85495   7.889   5.939   1.402 -0.1053  0.2861 -0.0198
  634MOL0     C85496   8.016   5.866   1.349  0.2505 -0.2136  0.5659
  634MOL0     C85497   8.154   5.931   1.375 -0.1710  0.0868 -0.2847
  634MOL0     C85498   8.255   5.853   1.283  1.0584  0.8278 -0.3788
  634MOL0    Cl85499   8.419   5.926   1.278  0.3017 -0.0942  0.2518
  634MOL0     C85500   7.176   5.945   1.641 -0.2505 -0.9629  0.4469
  634MOL0     C85501   7.044   5.998   1.678  0.3017 -0.3223  0.2120
  634MOL0     O85502   6.750   5.980   1.438 -0.1599 -0.4180  0.1353
  634MOL0     C85503   6.491   6.035   1.522 -0.7398  0.1349 -0.0463
  634MOL0     C85504   6.365   6.037   1.582 -0.5919  0.1361 -0.2969
  634MOL0     N85505   5.613   5.879   1.757 -0.3326 -0.5381 -0.1983
  634MOL0     N85506   5.492   5.859   1.742  0.3129 -0.3913 -0.3177
  634MOL0     C85507   4.715   5.505   2.317  0.5532  0.3389 -0.2463
  634MOL0     C85508   4.648   5.460   2.424 -0.2920 -0.5289  0.4608
  634MOL0     C85509   4.266   5.375   2.669  1.1478 -0.4391 -0.1468
  634MOL0     C85510   4.182   5.256   2.654 -0.3940 -0.6804 -0.2014
  634MOL0     C85511   4.071   5.237   2.735  0.2794  0.0922 -0.0987
  634MOL0     C85512   4.041   5.317   2.845  0.2738 -0.0186  0.2493
  634MOL0     O85513   3.933   5.279   2.917 -0.0484  0.0452 -0.2333
  634MOL0     C85514   3.862   5.363   3.011  0.7020  0.1180 -1.3434
  634MOL0     C85515   3.749   5.283   3.086  0.1822  0.1075  0.0845
  634MOL0     C85516   3.703   5.354   3.206  0.6102 -0.5998 -0.2339
  634MOL0     C85517   3.628   5.495   3.184 -1.2767  0.2913 -0.4228
  634MOL0     C85518   3.489   5.487   3.223 -0.7031 -0.0544 -0.0317
  634MOL0     C85519   3.375   5.481   3.264  0.3636 -0.7044 -0.3460
  634MOL0     C85520   4.129   5.425   2.866  0.3168 -0.9773  0.0085
  634MOL0     C85521   4.245   5.459   2.781  0.4834  0.3258  0.0260
  634MOL0     C85522   4.319   5.581   2.820 -0.1472 -0.6303 -0.2976
  634MOL0     H85523   4.359   5.636   2.373  0.6802  0.2169  2.0064
  634MOL0     H85524   4.499   5.738   2.182  1.6782  1.6583  0.8287
  634MOL0     H85525   4.926   5.592   2.110  0.5636  1.1589 -1.7113
  634MOL0     H85526   4.797   5.467   2.096 -1.6626  1.1508  2.5705
  634MOL0     H85527   4.757   5.530   1.873 -0.6496  2.0520 -0.8522
  634MOL0     H85528   4.935   5.530   1.895  3.3796  4.5733 -0.5309
  634MOL0     H85529   4.741   5.770   1.864  1.2983  1.8014 -2.8562
  634MOL0     H85530   4.853   5.707   1.757  1.4960 -0.7433  0.8635
  634MOL0     H85531   4.932   5.909   1.887 -2.7079 -1.2262  0.5042
  634MOL0     H85532   4.925   5.820   2.035 -0.0098 -1.6659  0.5457
  634MOL0     H85533   5.100   5.654   1.928 -1.8297  0.5971  0.3277
  634MOL0     H85534   5.101   5.757   1.786 -3.0080  2.4014 -0.5938
  634MOL0     H85535   5.156   5.864   2.077 -0.1370  0.1021 -0.3451
  634MOL0     H85536   5.279   5.782   1.980  0.4516  0.9762 -0.5202
  634MOL0     H85537   5.271   6.034   1.990 -0.2211 -0.5379  0.6985
  634MOL0     H85538   5.118   6.033   1.913  0.6774  0.7412 -0.3011
  634MOL0     H85539   5.240   5.902   1.717  0.8612 -1.1288  1.0732
  634MOL0     H85540   5.253   6.070   1.727 -0.9466 -1.5407 -1.6643
  634MOL0     H85541   5.500   6.166   1.863  0.8695  0.9890 -0.8293
  634MOL0     H85542   5.743   6.170   1.850  0.3581 -0.4389 -2.3869
  634MOL0     H85543   5.792   6.035   1.963  0.4240  0.5630  0.5572
  634MOL0     H85544   5.880   5.911   1.745 -0.5330 -0.3396  3.3058
  634MOL0     H85545   5.866   6.067   1.665 -0.5703  0.3897  0.1004
  634MOL0     H85546   6.025   5.989   1.911  0.4633  0.2839  0.5433
  634MOL0     H85547   6.018   6.152   1.845 -2.3636  0.8180 -3.8311
  634MOL0     H85548   6.090   6.063   1.637  0.0511 -1.5493 -1.1275
  634MOL0     H85549   6.132   5.910   1.718 -0.0087  0.6295 -2.1809
  634MOL0     H85550   6.464   6.166   1.883 -1.4395  0.9813  0.9386
  634MOL0     H85551   6.682   6.128   1.787  0.4486 -0.3370  0.9066
  634MOL0     H85552   6.961   6.124   1.376 -0.9238 -0.2603  1.2493
  634MOL0     H85553   7.190   6.048   1.312  2.4420 -3.8682  0.5935
  634MOL0     H85554   7.314   5.833   1.310 -0.5923 -0.8098  1.1220
  634MOL0     H85555   7.402   5.989   1.306  3.5601 -1.0234 -0.2006
  634MOL0     H85556   7.525   5.754   1.418 -0.7979  1.7471  2.6506
  634MOL0     H85557   7.529   5.794   1.243 -1.3138  0.3897 -0.1770
  634MOL0     H85558   7.647   6.024   1.320 -1.9828  1.8710  1.6621
  634MOL0     H85559   7.638   5.968   1.476  1.6843 -0.1074 -0.0633
  634MOL0     H85560   7.779   5.839   1.238 -2.3029 -0.7286  0.2205
  634MOL0     H85561   7.772   5.768   1.405  2.7209 -0.5716 -1.2810
  634MOL0     H85562   7.880   5.965   1.508 -1.3200  2.5586 -0.6126
  634MOL0     H85563   7.887   6.035   1.348 -0.6369 -0.6693 -1.7857
  634MOL0     H85564   8.016   5.768   1.399  0.8792 -1.2693 -1.4088
  634MOL0     H85565   8.003   5.841   1.243  2.7352 -2.0577  0.6019
  634MOL0     H85566   8.172   5.925   1.482  0.3499 -0.0875 -0.3814
  634MOL0     H85567   8.157   6.034   1.339 -1.1357  0.1090 -0.3404
  634MOL0     H85568   8.254   5.749   1.317 -2.0222  1.3163  1.4162
  634MOL0     H85569   8.219   5.849   1.180  2.6026 -3.2300 -0.9320
  634MOL0     H85570   7.239   5.903   1.719 -1.7258  0.2783  2.4072
  634MOL0     H85571   6.990   5.977   1.770 -0.4327 -0.9815 -0.3475
  634MOL0     H85572   6.507   6.012   1.417 -0.8367  1.0845 -0.2825
  634MOL0     H85573   6.281   6.012   1.518 -1.3617 -0.5990  0.9554
  634MOL0     H85574   4.817   5.467   2.323 -0.7965 -3.5329  4.1912
  634MOL0     H85575   4.701   5.393   2.490  0.6549 -0.1516  0.0980
  634MOL0     H85576   4.202   5.181   2.578  1.2326  1.3444 -1.8833
  634MOL0     H85577   4.000   5.163   2.701 -2.0352  2.9460 -1.9519
  634MOL0     H85578   3.801   5.430   2.951 -1.6881 -2.6140 -2.1902
  634MOL0     H85579   3.931   5.400   3.088  0.2941  0.2460 -1.0380
  634MOL0     H85580   3.787   5.186   3.119 -1.1978  0.1394  1.9289
  634MOL0     H85581   3.661   5.266   3.023  0.1836  1.1275 -0.2112
  634MOL0     H85582   3.795   5.368   3.265  0.3732  1.1781 -0.2186
  634MOL0     H85583   3.633   5.289   3.259  2.1095 -2.8774 -0.8879
  634MOL0     H85584   3.674   5.577   3.240 -1.1393 -2.7580  4.6239
  634MOL0     H85585   3.634   5.518   3.078  0.8864  1.4848 -0.1058
  634MOL0     H85586   3.281   5.462   3.310 -0.4276  1.8651 -0.6954
  634MOL0     H85587   4.104   5.490   2.950  0.2860 -0.3232 -0.4965
  634MOL0     H85588   4.384   5.560   2.905 -2.6852 -2.4227  1.3330
  634MOL0     H85589   4.370   5.634   2.739 -0.6351  0.0315 -0.1785
  634MOL0     H85590   4.246   5.652   2.860  0.1289 -1.1744  1.2207
  635MOL0     O85591   2.580   7.497   5.968 -0.3609 -0.4732 -0.0861
  635MOL0     C85592   2.533   7.463   5.861  0.2645 -0.0692  0.1721
  635MOL0     O85593   2.617   7.415   5.753  0.6426  0.6767 -0.1514
  635MOL0     C85594   2.752   7.440   5.742  0.3254  0.0850 -0.0214
  635MOL0     C85595   2.828   7.373   5.649  0.5825  0.4091 -0.4702
  635MOL0     C85596   2.967   7.394   5.630 -0.2527 -0.1996  0.0065
  635MOL0     C85597   3.031   7.498   5.705 -0.7653 -0.1896 -0.5698
  635MOL0     O85598   3.167   7.525   5.677  0.3399  0.6880 -0.5936
  635MOL0     C85599   3.238   7.608   5.769 -0.2408  0.0742  0.3935
  635MOL0     C85600   3.395   7.600   5.754 -0.6695  1.0928  0.4126
  635MOL0     C85601   3.463   7.487   5.835  0.1557 -0.6662 -0.0601
  635MOL0     C85602   3.619   7.494   5.843 -0.0448 -0.6064 -0.2310
  635MOL0     C85603   3.661   7.360   5.909 -0.4126 -0.6358 -0.0008
  635MOL0     C85604   3.811   7.371   5.931  0.4965 -0.2332  0.0487
  635MOL0     C85605   3.858   7.265   6.036 -0.3521  0.2180  0.0467
  635MOL0     C85606   4.005   7.285   6.095 -1.0975 -0.3445  0.5656
  635MOL0     N85607   4.108   7.260   5.994 -0.1204 -0.0046 -0.5840
  635MOL0     C85608   4.172   7.347   5.907  0.5483 -0.1757 -0.7426
  635MOL0     C85609   4.266   7.280   5.843 -0.2502 -0.3809  0.3137
  635MOL0     C85610   4.355   7.323   5.740 -0.4679 -0.9860  0.4554
  635MOL0     C85611   4.453   7.427   5.787 -0.2343  0.1981 -0.0458
  635MOL0     C85612   4.545   7.379   5.911  0.6078  0.8287 -0.6075
  635MOL0     C85613   4.669   7.470   5.924  1.0399 -0.7117  0.5988
  635MOL0     O85614   4.637   7.608   5.893 -0.9582  0.6045  0.6876
  635MOL0     C85615   4.734   7.697   5.898  0.5095 -1.0347  1.2780
  635MOL0     C85616   4.854   7.668   5.967  0.6337  0.0102 -0.6960
  635MOL0     C85617   4.955   7.764   5.974  0.0677  0.4352  0.5125
  635MOL0     C85618   4.953   7.876   5.908 -0.2800 -0.0414  0.2005
  635MOL0     C85619   5.065   7.974   5.916 -1.1629 -0.7206 -0.0133
  635MOL0     O85620   5.179   7.939   5.980  0.0688  0.4553 -0.6025
  635MOL0     C85621   5.291   8.011   5.939  0.0709  0.2826 -0.8461
  635MOL0     C85622   5.342   8.112   6.018  0.0805 -0.0417  0.6266
  635MOL0     C85623   5.461   8.181   5.982 -0.6163  0.3468  0.4062
  635MOL0     C85624   5.533   8.146   5.866  0.1055 -0.5914 -0.1066
  635MOL0     O85625   5.643   8.210   5.833 -0.1172  0.0805  0.6478
  635MOL0     C85626   5.734   8.161   5.727 -0.1796  0.0478 -1.0806
  635MOL0     C85627   5.873   8.226   5.751 -0.0896  0.1898 -0.7473
  635MOL0     C85628   5.903   8.369   5.695  0.2474 -0.4237 -1.1171
  635MOL0     C85629   5.817   8.481   5.768 -0.9461 -0.0847  1.1600
  635MOL0     C85630   5.851   8.506   5.910 -0.3510 -0.2330  0.0741
  635MOL0     C85631   5.786   8.637   5.966  0.6809 -0.4396 -0.0708
  635MOL0     C85632   5.766   8.633   6.114 -0.0521 -0.4880 -0.9329
  635MOL0     C85633   5.700   8.755   6.177  0.2100 -0.2152  0.2129
  635MOL0    Cl85634   5.771   8.796   6.345  0.1734 -0.1318 -0.2613
  635MOL0     C85635   5.480   8.042   5.791  0.2906 -0.3323  0.2953
  635MOL0     C85636   5.372   7.969   5.835 -0.2340 -0.3058 -0.8257
  635MOL0     O85637   5.052   8.077   5.844 -0.3922  0.3407 -0.0678
  635MOL0     C85638   4.836   7.909   5.824 -0.1893 -0.5779  0.2456
  635MOL0     C85639   4.733   7.820   5.828  0.3148  0.1425 -0.2952
  635MOL0     N85640   4.268   7.156   5.892  0.0876  0.2001  0.5291
  635MOL0     N85641   4.180   7.143   5.990 -0.0897 -0.5957  0.3387
  635MOL0     C85642   2.952   7.577   5.788 -0.1626  0.0830  0.5302
  635MOL0     C85643   2.819   7.543   5.820  0.3522  0.9454 -0.3452
  635MOL0     C85644   2.387   7.466   5.854 -0.6404 -0.2192 -0.5411
  635MOL0     C85645   2.309   7.418   5.964  0.1988  0.5138  0.8963
  635MOL0     C85646   2.168   7.414   5.972 -0.7546  0.7508 -0.4847
  635MOL0     C85647   2.109   7.449   5.862 -0.2159  0.6675  0.0078
  635MOL0     O85648   1.970   7.439   5.873  0.4122 -0.2577 -0.1344
  635MOL0     C85649   1.905   7.442   5.742 -0.2551 -0.2321  0.5942
  635MOL0     C85650   1.763   7.381   5.754  0.4004 -0.2531  0.5327
  635MOL0     C85651   1.772   7.231   5.797  0.0021 -0.9729 -0.4738
  635MOL0     C85652   1.653   7.210   5.877  0.7157 -0.9944  1.0033
  635MOL0     C85653   1.633   7.064   5.898  0.2834 -0.8833  0.3786
  635MOL0     C85654   1.602   6.953   5.924  0.3897  0.0111  0.2162
  635MOL0     C85655   2.180   7.495   5.745 -0.8397 -0.2458  0.3322
  635MOL0     C85656   2.320   7.495   5.740  0.7116 -0.2860  1.0162
  635MOL0     C85657   2.377   7.544   5.611 -0.3476  0.4797 -0.4401
  635MOL0     H85658   2.772   7.300   5.590  0.8750 -0.4562  0.2989
  635MOL0     H85659   3.021   7.341   5.552 -0.4069  0.4036 -0.5202
  635MOL0     H85660   3.210   7.713   5.752  1.4993  0.4435 -0.4064
  635MOL0     H85661   3.207   7.586   5.871 -2.6967  1.5874  0.0739
  635MOL0     H85662   3.443   7.694   5.785 -0.1102  0.4158  1.7027
  635MOL0     H85663   3.416   7.585   5.648 -1.5214 -1.4853  0.5369
  635MOL0     H85664   3.431   7.392   5.791 -0.0812 -0.0376 -1.3171
  635MOL0     H85665   3.417   7.491   5.934 -1.0431  1.6069 -0.6209
  635MOL0     H85666   3.671   7.507   5.748 -0.5114 -0.5999 -0.4880
  635MOL0     H85667   3.641   7.571   5.918  0.8699 -0.4342 -0.6691
  635MOL0     H85668   3.613   7.358   6.007 -1.4778 -0.8492 -0.5184
  635MOL0     H85669   3.643   7.268   5.852  2.4316 -1.0951 -0.3088
  635MOL0     H85670   3.873   7.364   5.841 -0.7806 -0.4496 -0.8370
  635MOL0     H85671   3.831   7.476   5.956  1.1932 -0.0264 -1.3295
  635MOL0     H85672   3.852   7.165   5.991  0.1897  0.0795  0.2707
  635MOL0     H85673   3.785   7.258   6.117  0.2106 -1.5894  0.4448
  635MOL0     H85674   4.005   7.388   6.132 -0.6215 -0.1286 -0.0069
  635MOL0     H85675   4.008   7.213   6.177 -0.5159 -4.0361 -2.4230
  635MOL0     H85676   4.145   7.451   5.897  2.4926  0.2486 -2.2092
  635MOL0     H85677   4.402   7.237   5.692 -3.1291 -3.0652  1.3100
  635MOL0     H85678   4.297   7.378   5.665  0.5314  2.0606  1.7338
  635MOL0     H85679   4.518   7.452   5.702  1.9898  1.0690  1.8081
  635MOL0     H85680   4.397   7.518   5.812 -4.6043 -2.7319  2.0749
  635MOL0     H85681   4.577   7.275   5.897 -2.4952 -0.1041 -1.4615
  635MOL0     H85682   4.487   7.391   6.003  1.3196  1.3025 -0.2061
  635MOL0     H85683   4.744   7.432   5.855 -1.9128  0.1422 -3.5113
  635MOL0     H85684   4.697   7.460   6.029 -2.6263  0.9064  1.9140
  635MOL0     H85685   4.872   7.574   6.018  1.0048 -1.4075 -3.2907
  635MOL0     H85686   5.045   7.727   6.022 -0.1499  0.0742  0.6436
  635MOL0     H85687   5.284   8.133   6.108  0.0744 -1.4740  0.9836
  635MOL0     H85688   5.491   8.272   6.033 -0.6505  0.8602 -0.4686
  635MOL0     H85689   5.754   8.056   5.748 -0.4390  0.1564 -0.2172
  635MOL0     H85690   5.691   8.181   5.629  0.5682  1.5578 -1.1225
  635MOL0     H85691   5.903   8.215   5.855 -0.2589  0.7980 -0.6304
  635MOL0     H85692   5.931   8.156   5.690  0.9741 -0.3948  0.8592
  635MOL0     H85693   6.007   8.382   5.728 -0.2309 -2.2819  1.4276
  635MOL0     H85694   5.876   8.365   5.589 -0.4729 -0.6395 -0.9304
  635MOL0     H85695   5.712   8.456   5.748 -0.4829  0.9773 -3.6990
  635MOL0     H85696   5.843   8.572   5.714  2.4769 -1.5131  0.0913
  635MOL0     H85697   5.959   8.521   5.920 -0.6304  0.8951  2.0595
  635MOL0     H85698   5.824   8.412   5.959  1.3110 -1.5449 -1.3831
  635MOL0     H85699   5.845   8.722   5.932 -2.3397  1.7903 -0.1409
  635MOL0     H85700   5.683   8.643   5.928 -0.6464 -1.3223  3.0315
  635MOL0     H85701   5.855   8.603   6.170 -1.8926 -2.9014  0.9241
  635MOL0     H85702   5.700   8.547   6.125 -0.9594  0.2249 -0.6360
  635MOL0     H85703   5.717   8.837   6.106 -3.2160  0.8845  0.4655
  635MOL0     H85704   5.594   8.730   6.179 -0.4335  2.1612 -0.5293
  635MOL0     H85705   5.519   7.993   5.702 -2.9533 -2.5499 -0.0747
  635MOL0     H85706   5.332   7.885   5.780  0.6484  0.3839 -2.5837
  635MOL0     H85707   4.820   8.004   5.773 -0.0539 -0.4232  0.4892
  635MOL0     H85708   4.655   7.829   5.753  1.8272 -1.3827 -2.1434
  635MOL0     H85709   2.994   7.667   5.832  1.3766 -0.2523 -0.1926
  635MOL0     H85710   2.759   7.607   5.883  0.6152  0.0917  0.8105
  635MOL0     H85711   2.364   7.390   6.053 -0.2711 -1.1825  0.6785
  635MOL0     H85712   2.115   7.379   6.059  0.8647 -2.3682 -0.6036
  635MOL0     H85713   1.971   7.379   5.682 -1.0350 -0.8496  0.3646
  635MOL0     H85714   1.912   7.543   5.700 -2.0731 -0.2741  0.0993
  635MOL0     H85715   1.705   7.384   5.661  0.6891  0.3173  0.3665
  635MOL0     H85716   1.705   7.437   5.828  0.8437 -1.0698  1.5226
  635MOL0     H85717   1.862   7.213   5.855 -1.4126  1.4137  2.7860
  635MOL0     H85718   1.781   7.168   5.708  4.1392 -1.9798  0.4742
  635MOL0     H85719   1.663   7.272   5.967 -0.0624  1.7270 -0.6659
  635MOL0     H85720   1.562   7.244   5.826  1.4960 -0.0054  0.2495
  635MOL0     H85721   1.585   6.853   5.956  0.7930  0.2561  1.2223
  635MOL0     H85722   2.135   7.535   5.655 -0.1522  0.8710  0.4794
  635MOL0     H85723   2.309   7.616   5.564  0.4397  0.7460 -1.1941
  635MOL0     H85724   2.475   7.588   5.634  0.3633 -1.3603  0.2768
  635MOL0     H85725   2.391   7.450   5.556  0.6144 -1.3530  2.7041
  636MOL0     O85726  11.213  10.311   9.769 -0.4383 -0.5861  0.2534
  636MOL0     C85727  11.151  10.321   9.877 -0.1330 -0.1598 -0.0599
  636MOL0     O85728  11.209  10.298   9.998  0.2621  0.5259 -0.1095
  636MOL0     C85729  11.338  10.279  10.026  0.4736  0.1590 -0.6369
  636MOL0     C85730  11.385  10.332  10.154  0.2489  0.2044 -0.5867
  636MOL0     C85731  11.515  10.320  10.198 -0.3194 -0.2546  0.1051
  636MOL0     C85732  11.613  10.262  10.120  0.2694 -0.1636 -0.3945
  636MOL0     O85733  11.743  10.257  10.163  0.1691 -0.0644  0.2805
  636MOL0     C85734  11.794  10.123  10.184  0.2512  0.1248  1.0460
  636MOL0     C85735  11.944  10.116  10.191 -0.5506  0.1845  0.1942
  636MOL0     C85736  11.984   9.968  10.199  0.2318 -1.8069 -0.1240
  636MOL0     C85737  12.137   9.956  10.208 -0.5030  0.3106 -0.5756
  636MOL0     C85738  12.180   9.805  10.225  0.1054 -0.1779 -0.7306
  636MOL0     C85739  12.322   9.796  10.177  0.0013  0.6049  0.2508
  636MOL0     C85740  12.417   9.880  10.273  0.1575 -0.1421 -0.3130
  636MOL0     C85741  12.565   9.841  10.234 -0.7870 -0.7785  0.0194
  636MOL0     N85742  12.652   9.946  10.290 -0.0178 -0.0241 -0.1039
  636MOL0     C85743  12.704   9.948  10.412 -0.3963 -0.4971 -0.7244
  636MOL0     C85744  12.749  10.070  10.437 -0.1367  0.8324  0.1651
  636MOL0     C85745  12.812  10.111  10.571 -0.6946  0.0467  0.9092
  636MOL0     C85746  12.966  10.097  10.553 -0.0946 -0.3262 -0.7258
  636MOL0     C85747  13.045  10.224  10.526  0.1490  0.4039  0.1278
  636MOL0     C85748  13.190  10.191  10.495  0.1405  0.4583  1.2758
  636MOL0     O85749  13.263  10.164  10.614 -0.4438 -0.1211 -0.1662
  636MOL0     C85750  13.383  10.105  10.598  0.6792 -0.2964  0.4466
  636MOL0     C85751  13.392   9.964  10.571  0.1171 -1.0574  0.4028
  636MOL0     C85752  13.521   9.924  10.529 -0.4151  0.2289 -0.1373
  636MOL0     C85753  13.630  10.013  10.522 -1.0119 -0.2456  0.7090
  636MOL0     C85754  13.763   9.961  10.479  0.6899 -0.4469  0.5825
  636MOL0     O85755  13.869  10.044  10.508 -0.3998 -0.1946 -0.0086
  636MOL0     C85756  13.987   9.995  10.470  0.1322 -0.1813 -0.2455
  636MOL0     C85757  14.026   9.987  10.333  0.1127  0.3759 -0.1635
  636MOL0     C85758  14.153   9.959  10.298 -0.1129 -0.1015 -0.4114
  636MOL0     C85759  14.250   9.929  10.397 -0.0859  0.3934  0.1826
  636MOL0     O85760  14.373   9.889  10.352  0.2907  0.7070 -0.4083
  636MOL0     C85761  14.486   9.921  10.432 -0.0104  0.6251 -0.4725
  636MOL0     C85762  14.605   9.975  10.345  0.3217  0.3919  0.0580
  636MOL0     C85763  14.723  10.000  10.430 -0.2203 -0.9674  0.0880
  636MOL0     C85764  14.837  10.044  10.340 -0.2842  0.1399  0.0847
  636MOL0     C85765  14.953  10.074  10.434 -0.0788  0.1924 -0.0269
  636MOL0     C85766  15.060  10.142  10.363  0.2213 -0.0111 -0.6463
  636MOL0     C85767  15.178  10.171  10.465 -0.8832  0.8208  0.7836
  636MOL0     C85768  15.283  10.260  10.403 -0.4417  0.1989  0.4213
  636MOL0    Cl85769  15.452  10.261  10.484 -0.5863  0.5484  0.3345
  636MOL0     C85770  14.213   9.923  10.533 -0.4080 -0.5445 -0.4605
  636MOL0     C85771  14.086   9.965  10.572  0.1096  0.1531  0.1595
  636MOL0     O85772  13.774   9.844  10.437  1.1143  0.2261  0.1101
  636MOL0     C85773  13.624  10.143  10.571 -0.1057  0.4297  0.2404
  636MOL0     C85774  13.492  10.194  10.603 -0.0852 -0.4928  0.4230
  636MOL0     N85775  12.724  10.146  10.320 -0.4105  0.0243  0.7428
  636MOL0     N85776  12.662  10.071  10.230 -0.0368 -0.1996  0.0092
  636MOL0     C85777  11.574  10.215   9.994 -0.6369 -0.1386  1.0096
  636MOL0     C85778  11.436  10.213   9.956  0.1709 -0.3500 -0.6387
  636MOL0     C85779  11.011  10.373   9.879  0.2071  0.1068  1.1990
  636MOL0     C85780  10.943  10.381  10.009  0.2070  1.1756  1.0984
  636MOL0     C85781  10.811  10.417  10.011  0.6350 -0.2053  0.9372
  636MOL0     C85782  10.739  10.452   9.902  0.2341  0.2036 -0.3539
  636MOL0     O85783  10.608  10.486   9.922 -0.1569  0.5956 -0.7622
  636MOL0     C85784  10.516  10.452   9.812 -1.3039  0.1540 -0.1861
  636MOL0     C85785  10.369  10.441   9.860 -1.2079  0.0115  0.1665
  636MOL0     C85786  10.348  10.328   9.950 -0.0872  0.4809 -0.7223
  636MOL0     C85787  10.196  10.281   9.951 -0.0606 -0.2537  0.1720
  636MOL0     C85788  10.116  10.376  10.031  0.6392 -0.0118 -0.3530
  636MOL0     C85789  10.042  10.445  10.103  0.3086  0.2856  0.4780
  636MOL0     C85790  10.800  10.442   9.778 -1.5008 -0.1748 -0.6159
  636MOL0     C85791  10.935  10.411   9.765  0.0025 -0.3832 -0.3802
  636MOL0     C85792  10.993  10.440   9.630 -0.4604 -0.4127  0.1373
  636MOL0     H85793  11.312  10.382  10.216 -2.4875 -0.2393 -3.2403
  636MOL0     H85794  11.554  10.370  10.286 -2.7249  1.6949  0.1643
  636MOL0     H85795  11.764  10.086  10.282  1.8199 -0.6956  1.2483
  636MOL0     H85796  11.771  10.051  10.105  0.6035 -1.4973  2.3649
  636MOL0     H85797  11.980  10.163  10.283 -1.6242  1.7746 -0.1557
  636MOL0     H85798  11.984  10.168  10.104 -1.6025 -1.1245 -1.1264
  636MOL0     H85799  11.943   9.915  10.114 -1.6572 -1.3567  0.4624
  636MOL0     H85800  11.936   9.929  10.289 -0.1152  3.7834  2.5404
  636MOL0     H85801  12.192   9.990  10.121  1.0153 -1.6086 -0.4378
  636MOL0     H85802  12.178  10.012  10.293  0.4887  0.3834 -1.0910
  636MOL0     H85803  12.181   9.784  10.332  0.2974 -0.8043 -0.8544
  636MOL0     H85804  12.114   9.739  10.168  0.7788  0.1610 -1.9404
  636MOL0     H85805  12.350   9.691  10.178  0.3096  0.6820 -0.1790
  636MOL0     H85806  12.326   9.833  10.074  1.6913 -2.0174 -0.7272
  636MOL0     H85807  12.408   9.844  10.376 -0.6717 -0.7032 -0.5736
  636MOL0     H85808  12.402   9.988  10.271 -1.1729 -0.3106 -0.2407
  636MOL0     H85809  12.602   9.745  10.270 -0.5201 -1.5013 -2.0162
  636MOL0     H85810  12.593   9.836  10.128 -2.2262  0.8682 -0.4954
  636MOL0     H85811  12.700   9.857  10.472 -0.5111  0.3541  0.5946
  636MOL0     H85812  12.805  10.217  10.597  2.9557  0.7688 -0.4036
  636MOL0     H85813  12.782  10.046  10.653 -1.0226  0.3816  1.0566
  636MOL0     H85814  13.008  10.060  10.647  1.5164 -0.0496 -1.3076
  636MOL0     H85815  12.979  10.030  10.468  0.7956  2.0501 -2.5944
  636MOL0     H85816  13.047  10.305  10.599 -0.9808  1.9168 -1.4346
  636MOL0     H85817  12.998  10.264  10.435  1.0925 -0.6770 -0.8770
  636MOL0     H85818  13.238  10.276  10.445  1.9469 -2.1584 -1.8358
  636MOL0     H85819  13.197  10.127  10.407  0.2994  0.4340  1.3048
  636MOL0     H85820  13.299   9.909  10.558  0.6386 -1.7021 -0.7835
  636MOL0     H85821  13.534   9.818  10.512 -0.7859 -0.0150  0.9866
  636MOL0     H85822  13.952  10.010  10.257  1.4977 -0.4188 -1.8191
  636MOL0     H85823  14.185   9.963  10.195  1.1973 -0.2438 -0.0339
  636MOL0     H85824  14.467   9.982  10.520 -1.4419 -1.6539  0.8983
  636MOL0     H85825  14.527   9.829  10.475  2.9007  2.1676  0.3505
  636MOL0     H85826  14.616   9.896  10.270 -4.4663 -0.9577  0.4069
  636MOL0     H85827  14.571  10.067  10.296 -0.0441  0.5510  0.5924
  636MOL0     H85828  14.690  10.073  10.504 -0.0891  1.7299 -2.3508
  636MOL0     H85829  14.753   9.914  10.492 -1.1328  0.3941  2.5762
  636MOL0     H85830  14.804  10.128  10.277  1.8866  0.3840 -0.8143
  636MOL0     H85831  14.867   9.963  10.273  0.5391 -0.5898  1.3125
  636MOL0     H85832  15.000   9.984  10.475 -2.9733 -0.8642  1.2178
  636MOL0     H85833  14.928  10.124  10.529 -1.3523 -2.5885  1.2007
  636MOL0     H85834  15.097  10.073  10.286 -1.2779 -2.1227  0.4637
  636MOL0     H85835  15.027  10.240  10.326 -0.1920 -0.0448 -0.3626
  636MOL0     H85836  15.227  10.078  10.496  0.0961  1.3910  0.9986
  636MOL0     H85837  15.142  10.208  10.562  1.8537 -0.7160  2.5284
  636MOL0     H85838  15.291  10.233  10.297 -3.1131 -3.3407  0.9143
  636MOL0     H85839  15.241  10.361  10.400 -0.9621 -0.0043  0.6337
  636MOL0     H85840  14.295   9.899  10.599  1.0651  4.0095 -0.3112
  636MOL0     H85841  14.066   9.952  10.678  1.0491 -0.6474  0.2455
  636MOL0     H85842  13.709  10.208  10.587  2.4461 -1.9683 -2.2858
  636MOL0     H85843  13.481  10.301  10.622  1.3618  0.4535 -3.1580
  636MOL0     H85844  11.644  10.188   9.915  3.2075  1.2100  3.6427
  636MOL0     H85845  11.399  10.155   9.873  0.4426 -4.0687  1.6208
  636MOL0     H85846  10.981  10.353  10.106 -1.1831 -1.6783  0.9242
  636MOL0     H85847  10.759  10.407  10.106 -2.3349  1.3961 -0.3861
  636MOL0     H85848  10.550  10.359   9.766  0.2115  0.1820  0.7835
  636MOL0     H85849  10.526  10.529   9.734  2.5887  3.0260  2.6829
  636MOL0     H85850  10.311  10.412   9.772 -0.6420 -1.1810  0.1694
  636MOL0     H85851  10.329  10.529   9.911 -0.8319  1.2193 -1.5573
  636MOL0     H85852  10.370  10.353  10.054  0.8703  0.8708 -1.0022
  636MOL0     H85853  10.423  10.252   9.928  2.6305  2.4164  1.1066
  636MOL0     H85854  10.159  10.281   9.848  2.4012  4.6272 -1.0136
  636MOL0     H85855  10.190  10.186  10.004  0.6368 -0.2029  0.3454
  636MOL0     H85856   9.995  10.507  10.177 -2.4923  0.0475 -0.9766
  636MOL0     H85857  10.748  10.481   9.691 -2.3230 -2.9330 -1.4579
  636MOL0     H85858  10.913  10.469   9.561  1.4475  0.3052 -1.9027
  636MOL0     H85859  11.060  10.526   9.636 -0.2632 -0.5025 -0.5791
  636MOL0     H85860  11.037  10.352   9.581 -0.0214  0.2991 -0.7807
  637MOL0     O85861   7.091   8.836   0.512 -0.3273 -0.2499  0.2637
  637MOL0     C85862   7.070   8.920   0.600 -0.0726 -0.2827 -0.0856
  637MOL0     O85863   7.143   8.928   0.718  0.6515  1.0136  0.2099
  637MOL0     C85864   7.251   8.845   0.712  0.1113 -0.7508  0.3504
  637MOL0     C85865   7.374   8.890   0.668 -0.4904 -0.8191  0.6772
  637MOL0     C85866   7.479   8.796   0.657  0.0516 -0.1451 -0.4969
  637MOL0     C85867   7.470   8.654   0.688  0.4714 -0.3710 -0.1070
  637MOL0     O85868   7.567   8.561   0.693 -0.4700  0.4502 -0.4377
  637MOL0     C85869   7.701   8.614   0.694 -0.3771 -0.2451  0.1040
  637MOL0     C85870   7.807   8.502   0.703  0.4253  0.4982 -1.0536
  637MOL0     C85871   7.787   8.432   0.846  0.4218 -0.4664 -0.2106
  637MOL0     C85872   7.901   8.343   0.890 -0.3719 -0.4936  0.1996
  637MOL0     C85873   8.016   8.407   0.974 -0.7421 -0.3438 -0.6056
  637MOL0     C85874   8.102   8.283   1.010 -0.4148 -0.2770 -0.0889
  637MOL0     C85875   8.238   8.325   1.063 -1.0450 -0.2421 -0.3079
  637MOL0     C85876   8.328   8.208   1.105  0.3082  0.0213  0.6942
  637MOL0     N85877   8.435   8.244   1.198  0.3963 -0.8749  0.0706
  637MOL0     C85878   8.547   8.289   1.146 -0.3983 -0.1561 -0.5254
  637MOL0     C85879   8.643   8.269   1.244  0.8514 -0.2039 -0.0478
  637MOL0     C85880   8.782   8.309   1.238 -0.2944 -0.0788  0.7142
  637MOL0     C85881   8.829   8.296   1.085  0.3874 -0.7372 -0.3395
  637MOL0     C85882   8.985   8.302   1.082  0.2741 -0.7556  1.0320
  637MOL0     C85883   9.038   8.294   0.932 -1.6407 -0.1119  0.4163
  637MOL0     O85884   9.055   8.421   0.874  0.0906 -0.2311  0.0984
  637MOL0     C85885   9.179   8.477   0.892  0.1444  0.2751  0.0672
  637MOL0     C85886   9.273   8.447   0.994 -0.6024 -0.4203 -0.5486
  637MOL0     C85887   9.394   8.507   0.989  0.1861  0.4727 -0.3075
  637MOL0     C85888   9.429   8.590   0.883  0.4184  0.3118 -0.2758
  637MOL0     C85889   9.576   8.624   0.880  0.6016 -0.3902  0.2469
  637MOL0     O85890   9.664   8.525   0.900 -0.1369  0.6672 -0.2915
  637MOL0     C85891   9.775   8.515   0.824  0.3859  0.5039 -0.0213
  637MOL0     C85892   9.886   8.444   0.873  0.0031 -0.3489 -0.9116
  637MOL0     C85893  10.003   8.427   0.803  0.0009 -0.6990  1.0065
  637MOL0     C85894  10.023   8.489   0.677 -0.2420  0.1697  1.1059
  637MOL0     O85895  10.138   8.474   0.600 -0.3665 -0.9334  0.7539
  637MOL0     C85896  10.232   8.366   0.627 -0.6563  0.1084 -0.3313
  637MOL0     C85897  10.373   8.409   0.589 -0.0295  0.5713 -1.0223
  637MOL0     C85898  10.479   8.327   0.656  0.8267  0.1507  0.5400
  637MOL0     C85899  10.623   8.376   0.630 -0.8538 -0.1022  0.9752
  637MOL0     C85900  10.660   8.505   0.708  1.0531 -0.3479 -0.1773
  637MOL0     C85901  10.741   8.611   0.626  0.5247 -0.2695 -0.0165
  637MOL0     C85902  10.881   8.564   0.558 -0.8423 -0.2133 -0.3217
  637MOL0     C85903  10.980   8.494   0.648  0.2650 -0.4655 -0.0020
  637MOL0    Cl85904  11.145   8.468   0.591  0.5240  0.1827 -0.4064
  637MOL0     C85905   9.918   8.562   0.625 -0.0400  0.2171  0.6167
  637MOL0     C85906   9.795   8.573   0.693  0.5610  0.5251 -0.7178
  637MOL0     O85907   9.608   8.736   0.832 -0.1724 -0.2112  0.3486
  637MOL0     C85908   9.334   8.632   0.792 -0.3006 -1.2043 -0.8948
  637MOL0     C85909   9.210   8.581   0.803  0.0486  0.7978 -0.5662
  637MOL0     N85910   8.579   8.223   1.357  0.8940 -0.3967  0.1790
  637MOL0     N85911   8.451   8.209   1.330  0.2052 -0.3645 -0.0566
  637MOL0     C85912   7.349   8.609   0.732 -0.4878 -0.9066 -0.8324
  637MOL0     C85913   7.240   8.697   0.740  0.0592 -1.2151  0.7631
  637MOL0     C85914   6.952   9.000   0.578 -0.5570 -0.3483 -1.2401
  637MOL0     C85915   6.899   9.019   0.452 -0.6932  0.2997 -1.7765
  637MOL0     C85916   6.781   9.090   0.431 -0.0252 -0.1354 -0.6864
  637MOL0     C85917   6.725   9.167   0.534 -0.2363 -0.6170  0.4192
  637MOL0     O85918   6.607   9.236   0.530 -0.1040 -0.0301  0.0919
  637MOL0     C85919   6.524   9.238   0.406  0.1852  0.1322 -0.0597
  637MOL0     C85920   6.407   9.142   0.413  0.6352  0.0933  0.5024
  637MOL0     C85921   6.323   9.139   0.284  0.3202  0.3339  0.9551
  637MOL0     C85922   6.376   9.042   0.186 -0.3872  0.0604 -0.1331
  637MOL0     C85923   6.358   8.901   0.234  0.4164  0.1310  0.3025
  637MOL0     C85924   6.325   8.784   0.232  0.7320 -0.3967 -0.7042
  637MOL0     C85925   6.777   9.148   0.656  0.2363  0.5974  0.0665
  637MOL0     C85926   6.890   9.066   0.684  0.3056  0.5467 -0.1633
  637MOL0     C85927   6.914   9.049   0.827  0.0921 -0.3372 -0.7584
  637MOL0     H85928   7.392   8.995   0.645  0.2128 -1.4813 -2.1239
  637MOL0     H85929   7.567   8.843   0.616  2.0274 -4.2162 -1.4217
  637MOL0     H85930   7.715   8.676   0.604 -1.2890  1.5396  1.1342
  637MOL0     H85931   7.726   8.677   0.780  0.1140 -0.1891 -0.0763
  637MOL0     H85932   7.910   8.539   0.704  0.8570 -0.6284 -2.1871
  637MOL0     H85933   7.813   8.433   0.619  2.3183  0.3231 -0.8137
  637MOL0     H85934   7.702   8.363   0.851  0.3176 -0.4263 -1.1818
  637MOL0     H85935   7.760   8.503   0.925 -0.8009 -2.3855  1.1900
  637MOL0     H85936   7.860   8.258   0.945 -1.1274 -0.5489 -0.4339
  637MOL0     H85937   7.943   8.293   0.802  0.8650 -3.2489  2.2129
  637MOL0     H85938   8.081   8.480   0.925  2.9734 -0.9724  2.8539
  637MOL0     H85939   7.986   8.468   1.061  2.0098  1.2179 -0.6273
  637MOL0     H85940   8.045   8.214   1.074 -2.5593  1.3100 -0.1909
  637MOL0     H85941   8.127   8.231   0.917 -0.0275  0.1158 -0.2065
  637MOL0     H85942   8.213   8.383   1.152  2.4419  1.2617 -0.1664
  637MOL0     H85943   8.295   8.386   0.992  1.1964  0.5405  2.0298
  637MOL0     H85944   8.263   8.134   1.154 -1.1621 -0.6365 -2.0194
  637MOL0     H85945   8.366   8.168   1.010 -1.1466 -3.2612  1.3230
  637MOL0     H85946   8.567   8.345   1.055 -2.8585  1.9716  0.1083
  637MOL0     H85947   8.781   8.409   1.282 -1.8457 -1.2500  3.6374
  637MOL0     H85948   8.845   8.238   1.293 -1.0765 -1.1929  0.2194
  637MOL0     H85949   8.783   8.215   1.027 -1.0266  0.4950 -0.9898
  637MOL0     H85950   8.793   8.376   1.020  1.4263 -0.6125 -0.7699
  637MOL0     H85951   9.022   8.210   1.127  1.5355 -0.4986  0.5693
  637MOL0     H85952   9.025   8.390   1.133 -1.2877  0.4144  0.3329
  637MOL0     H85953   8.971   8.228   0.876  0.8514 -1.6520 -0.8994
  637MOL0     H85954   9.135   8.247   0.948 -0.8819  1.1299 -0.3829
  637MOL0     H85955   9.256   8.377   1.075 -0.4916 -0.4080 -0.5140
  637MOL0     H85956   9.460   8.485   1.073 -0.2437 -0.6777 -0.2488
  637MOL0     H85957   9.868   8.400   0.970 -0.4593 -0.6029 -1.1070
  637MOL0     H85958  10.080   8.376   0.858  0.9785  0.0032  0.3286
  637MOL0     H85959  10.230   8.320   0.726  1.2716 -2.1623 -1.2515
  637MOL0     H85960  10.204   8.284   0.560 -1.4791  1.0425 -1.1855
  637MOL0     H85961  10.396   8.417   0.482  2.9974  3.4770 -0.3289
  637MOL0     H85962  10.387   8.509   0.631  0.4878  0.4330 -0.8566
  637MOL0     H85963  10.462   8.314   0.764  1.6140 -0.6039  0.5911
  637MOL0     H85964  10.469   8.226   0.614  1.2898 -0.8972  2.7909
  637MOL0     H85965  10.635   8.393   0.523 -1.6835 -1.1963  0.6942
  637MOL0     H85966  10.696   8.300   0.658 -3.0227 -2.2562  1.1589
  637MOL0     H85967  10.719   8.479   0.796 -0.3335  0.4864  1.0542
  637MOL0     H85968  10.569   8.560   0.734  0.5092 -1.1170 -0.4077
  637MOL0     H85969  10.685   8.651   0.541 -1.8229 -1.0501  1.1027
  637MOL0     H85970  10.755   8.696   0.693 -0.4272  2.6096 -3.1669
  637MOL0     H85971  10.927   8.653   0.514  1.0799 -2.4422 -3.1239
  637MOL0     H85972  10.870   8.495   0.474  2.7578  0.3098 -1.3777
  637MOL0     H85973  10.985   8.549   0.742 -0.3666 -2.0505  1.0097
  637MOL0     H85974  10.944   8.393   0.672  1.7725 -1.5362 -1.9549
  637MOL0     H85975   9.930   8.619   0.533 -1.6540 -2.1517 -1.1807
  637MOL0     H85976   9.711   8.631   0.654  1.1083  2.7841  1.2444
  637MOL0     H85977   9.369   8.697   0.712  3.2328  1.8483  2.7308
  637MOL0     H85978   9.146   8.619   0.724 -0.9354  1.4335  0.5045
  637MOL0     H85979   7.327   8.507   0.760 -3.2518 -0.4010 -0.7983
  637MOL0     H85980   7.148   8.651   0.776  1.0035 -0.6178  4.2611
  637MOL0     H85981   6.955   8.984   0.366  0.9752 -1.3411 -0.1273
  637MOL0     H85982   6.750   9.101   0.327 -0.9602  0.2956 -0.3782
  637MOL0     H85983   6.583   9.215   0.316 -2.2533  0.7418 -1.9096
  637MOL0     H85984   6.469   9.332   0.400 -1.9980 -1.1516 -1.7495
  637MOL0     H85985   6.336   9.169   0.491 -0.4373  1.2586 -0.8126
  637MOL0     H85986   6.451   9.052   0.458 -0.8626  0.5882  3.1586
  637MOL0     H85987   6.319   9.240   0.244  2.2046  0.2687  0.4953
  637MOL0     H85988   6.220   9.113   0.310  0.8351 -0.2106  2.6423
  637MOL0     H85989   6.350   9.051   0.080  3.9137 -1.1213 -1.4813
  637MOL0     H85990   6.484   9.058   0.179 -0.0625 -1.8875 -0.0633
  637MOL0     H85991   6.302   8.680   0.237  2.9711 -0.8852  1.9487
  637MOL0     H85992   6.740   9.210   0.737  2.3625  0.3607  1.2856
  637MOL0     H85993   6.831   9.088   0.885 -1.0459 -1.0299 -1.8541
  637MOL0     H85994   6.915   8.941   0.848 -1.1995 -0.1388  0.3708
  637MOL0     H85995   7.011   9.095   0.847  2.0000 -3.0237 -2.9516
  638MOL0     O85996   2.085   4.738   0.566  0.1544  0.5716 -0.7192
  638MOL0     C85997   2.003   4.793   0.643  0.1250 -0.0286  0.5597
  638MOL0     O85998   2.037   4.869   0.747  0.1710 -0.4065 -0.4887
  638MOL0     C85999   2.173   4.908   0.745  0.8532 -0.0796 -0.3418
  638MOL0     C86000   2.255   4.866   0.845  0.2370  0.7824 -0.9064
  638MOL0     C86001   2.388   4.913   0.855  0.6833  0.3963  0.7902
  638MOL0     C86002   2.445   4.989   0.750  0.3745 -0.3558 -0.6554
  638MOL0     O86003   2.576   5.018   0.761 -0.0837  0.2669  0.4190
  638MOL0     C86004   2.646   5.105   0.670 -0.2135  0.0080  0.2966
  638MOL0     C86005   2.795   5.115   0.711 -0.0406 -0.3582  0.1936
  638MOL0     C86006   2.887   4.991   0.689  0.6172 -0.2104 -0.0209
  638MOL0     C86007   3.031   5.034   0.721  0.6868 -0.3433  0.2856
  638MOL0     C86008   3.136   4.919   0.718 -0.0385  0.3097 -0.5122
  638MOL0     C86009   3.126   4.835   0.589  0.3478 -0.0665  0.1827
  638MOL0     C86010   3.237   4.727   0.574 -0.0761 -0.2014 -0.6751
  638MOL0     C86011   3.378   4.790   0.555 -0.5182  0.2823 -0.1804
  638MOL0     N86012   3.490   4.697   0.545  0.0543  0.0137  0.4962
  638MOL0     C86013   3.546   4.660   0.419 -0.3063 -0.2564 -0.0994
  638MOL0     C86014   3.652   4.587   0.440  0.5602  0.9522 -0.0697
  638MOL0     C86015   3.729   4.527   0.324 -1.4618 -0.2124 -0.4802
  638MOL0     C86016   3.869   4.595   0.311 -0.2088  0.5552  0.0544
  638MOL0     C86017   3.971   4.536   0.404  0.4496 -0.2018 -0.0287
  638MOL0     C86018   4.111   4.608   0.395 -0.0514  0.0735 -0.2713
  638MOL0     O86019   4.213   4.517   0.433  0.0041 -0.7238 -0.4107
  638MOL0     C86020   4.342   4.572   0.420 -0.0602  0.9397  0.5137
  638MOL0     C86021   4.379   4.693   0.363  1.5462  0.2090  0.0127
  638MOL0     C86022   4.512   4.744   0.364  0.4665  0.1781  0.7972
  638MOL0     C86023   4.617   4.668   0.423  0.3748 -0.7739 -0.7859
  638MOL0     C86024   4.757   4.718   0.422  0.0020 -0.1054  0.4376
  638MOL0     O86025   4.849   4.626   0.395  0.8688 -0.1972  0.2621
  638MOL0     C86026   4.953   4.679   0.316 -0.2055  0.9061  0.3834
  638MOL0     C86027   5.086   4.671   0.365 -0.2188 -0.3678 -0.1110
  638MOL0     C86028   5.187   4.733   0.290 -1.1306 -0.1874  0.0404
  638MOL0     C86029   5.165   4.787   0.164  0.6103 -0.6431 -0.0371
  638MOL0     O86030   5.258   4.830   0.079  0.4229 -0.2519 -0.7992
  638MOL0     C86031   5.391   4.839   0.117 -0.7937 -0.1880  0.3560
  638MOL0     C86032   5.461   4.705   0.078  0.6365 -0.0603 -0.0068
  638MOL0     C86033   5.612   4.694   0.113 -0.8963  0.4030  0.0191
  638MOL0     C86034   5.624   4.658   0.252 -0.0835 -0.5323 -0.2834
  638MOL0     C86035   5.768   4.625   0.301 -0.1944 -1.2046  0.4933
  638MOL0     C86036   5.757   4.586   0.456  0.4837 -1.1533 -0.0292
  638MOL0     C86037   5.894   4.556   0.504 -0.5605  0.3021 -0.0647
  638MOL0     C86038   5.916   4.408   0.516 -0.7647  0.2702  0.0387
  638MOL0    Cl86039   5.905   4.314   0.366 -0.1759 -0.1068  0.1643
  638MOL0     C86040   5.033   4.782   0.120 -0.1203 -0.9795  0.1830
  638MOL0     C86041   4.929   4.729   0.190 -0.1563 -0.4198  0.1502
  638MOL0     O86042   4.778   4.840   0.416 -1.0024 -0.1044 -0.1431
  638MOL0     C86043   4.580   4.539   0.465 -0.3401 -0.3380  0.7041
  638MOL0     C86044   4.448   4.495   0.463  0.5669 -0.1333 -0.4729
  638MOL0     N86045   3.675   4.578   0.580  0.5127 -0.2453  0.0827
  638MOL0     N86046   3.583   4.650   0.636  0.0868  0.6522 -0.5016
  638MOL0     C86047   2.361   5.024   0.644  1.0830  0.2644  1.2066
  638MOL0     C86048   2.227   4.985   0.634  0.2360 -1.0203 -0.2751
  638MOL0     C86049   1.852   4.791   0.607  0.2711  0.4279 -0.4810
  638MOL0     C86050   1.759   4.768   0.711 -0.4853  0.4830  0.2192
  638MOL0     C86051   1.620   4.780   0.683 -0.5740  0.4460 -0.3563
  638MOL0     C86052   1.571   4.827   0.561  0.8692  0.0980 -0.1976
  638MOL0     O86053   1.439   4.850   0.547 -0.5621 -0.2091  1.2684
  638MOL0     C86054   1.347   4.809   0.654 -0.5342  0.1120 -0.2146
  638MOL0     C86055   1.203   4.840   0.622  0.0423 -0.4776 -0.3910
  638MOL0     C86056   1.148   4.752   0.504  0.0703  0.1944 -0.5995
  638MOL0     C86057   1.146   4.599   0.533 -0.0856  0.3601 -0.5734
  638MOL0     C86058   1.079   4.526   0.431  0.2506  0.5680  0.1913
  638MOL0     C86059   1.018   4.501   0.330  0.0206  0.1579  0.8136
  638MOL0     C86060   1.665   4.857   0.464  0.4759  0.7726  0.8328
  638MOL0     C86061   1.804   4.841   0.481 -0.3915  0.7269  0.1671
  638MOL0     C86062   1.888   4.886   0.366  0.3533 -0.0569 -0.2113
  638MOL0     H86063   2.216   4.809   0.929  1.0045  1.2679 -0.1990
  638MOL0     H86064   2.442   4.897   0.948  2.0158  3.3680  0.6422
  638MOL0     H86065   2.634   5.064   0.570 -2.6008 -1.7678  1.1938
  638MOL0     H86066   2.592   5.201   0.668 -1.3676 -0.6143  0.5149
  638MOL0     H86067   2.812   5.135   0.817  0.9488  0.3257 -0.0756
  638MOL0     H86068   2.833   5.200   0.653 -0.7839 -0.2901 -0.2020
  638MOL0     H86069   2.871   4.958   0.586  0.0063  0.7339 -0.2361
  638MOL0     H86070   2.854   4.899   0.738 -1.5816  0.1205 -0.7670
  638MOL0     H86071   3.067   5.119   0.663 -0.8914 -0.5333 -1.0315
  638MOL0     H86072   3.020   5.058   0.827 -1.9889 -0.8090  0.1764
  638MOL0     H86073   3.235   4.965   0.721  1.3080 -2.3781  1.6443
  638MOL0     H86074   3.128   4.860   0.810  3.0159 -0.9829 -0.9555
  638MOL0     H86075   3.030   4.782   0.578  0.3301 -0.4045  1.6937
  638MOL0     H86076   3.134   4.896   0.498  3.2412  0.5381  0.7528
  638MOL0     H86077   3.214   4.659   0.492 -1.6123 -0.6525  0.0758
  638MOL0     H86078   3.234   4.660   0.661 -1.5835 -2.2131 -2.1884
  638MOL0     H86079   3.383   4.850   0.464 -2.0062 -1.7750 -1.7154
  638MOL0     H86080   3.410   4.859   0.634  1.1835  2.5053 -2.6302
  638MOL0     H86081   3.496   4.685   0.326  0.5474 -1.7826 -1.0120
  638MOL0     H86082   3.737   4.420   0.346 -2.2133 -0.3277 -0.7501
  638MOL0     H86083   3.672   4.541   0.232  3.8426 -0.3238 -4.2763
  638MOL0     H86084   3.906   4.580   0.209 -2.3372 -1.0422 -0.5732
  638MOL0     H86085   3.866   4.702   0.334  1.9313  1.3888 -2.9643
  638MOL0     H86086   3.982   4.433   0.369 -0.5312 -0.4090  0.2427
  638MOL0     H86087   3.941   4.545   0.509  2.0903 -0.9606  0.5384
  638MOL0     H86088   4.110   4.693   0.463 -1.4811 -1.1209  1.3010
  638MOL0     H86089   4.129   4.638   0.292  2.0423 -0.0498  0.0194
  638MOL0     H86090   4.306   4.756   0.313  1.9791 -0.1816 -1.1576
  638MOL0     H86091   4.520   4.841   0.317  2.2207 -0.6944 -0.8280
  638MOL0     H86092   5.131   4.623   0.452  0.9697  3.2397  1.4350
  638MOL0     H86093   5.290   4.722   0.322 -0.3595  0.6425 -1.9804
  638MOL0     H86094   5.433   4.916   0.052 -2.4658  0.3218 -0.1719
  638MOL0     H86095   5.409   4.876   0.219  2.6079  1.8557 -0.8049
  638MOL0     H86096   5.405   4.625   0.128  2.5427 -1.6848 -0.3199
  638MOL0     H86097   5.436   4.691  -0.028 -1.4525  0.2641  0.3972
  638MOL0     H86098   5.649   4.614   0.048 -1.8712  0.8164 -1.0751
  638MOL0     H86099   5.659   4.792   0.102 -1.5748  1.2150  3.2980
  638MOL0     H86100   5.563   4.571   0.276  0.5088 -0.1609  2.9909
  638MOL0     H86101   5.577   4.741   0.304 -0.0855  0.1225 -1.2899
  638MOL0     H86102   5.837   4.707   0.281  0.2817 -1.2959  1.6701
  638MOL0     H86103   5.812   4.542   0.246  2.2925 -0.0254  0.5953
  638MOL0     H86104   5.720   4.659   0.528  0.5727 -1.5285  0.4055
  638MOL0     H86105   5.695   4.496   0.459  1.3853 -1.7849  2.2413
  638MOL0     H86106   5.899   4.591   0.608 -4.9929  0.5127  0.3036
  638MOL0     H86107   5.968   4.600   0.437 -0.2169 -1.3778 -0.8483
  638MOL0     H86108   6.017   4.402   0.558 -0.6693  1.7785  0.0798
  638MOL0     H86109   5.844   4.367   0.588 -0.3826 -0.2672  0.1205
  638MOL0     H86110   5.000   4.816   0.022 -0.9044 -1.7894  0.1504
  638MOL0     H86111   4.835   4.739   0.138  1.5884  2.2355 -2.8342
  638MOL0     H86112   4.655   4.476   0.510  0.4182 -1.0226 -1.3760
  638MOL0     H86113   4.423   4.392   0.489  1.2286  0.7040  4.3870
  638MOL0     H86114   2.393   5.073   0.553 -3.3163  0.1119 -0.6623
  638MOL0     H86115   2.158   5.014   0.555 -1.6722 -0.2384  1.5918
  638MOL0     H86116   1.812   4.742   0.802  4.5943 -3.7660 -3.3085
  638MOL0     H86117   1.562   4.777   0.774 -0.3216 -1.3462 -0.2088
  638MOL0     H86118   1.362   4.877   0.738 -2.2403 -0.2094  0.3854
  638MOL0     H86119   1.362   4.703   0.675 -4.5003 -0.4897  0.3935
  638MOL0     H86120   1.194   4.944   0.591  1.6646 -0.0270  0.5204
  638MOL0     H86121   1.138   4.829   0.709  1.0667  1.2676  0.6514
  638MOL0     H86122   1.195   4.766   0.406 -0.0448 -1.9090 -0.9911
  638MOL0     H86123   1.045   4.787   0.495  1.6171  5.2520 -2.4628
  638MOL0     H86124   1.250   4.569   0.548 -0.2634  0.5652  1.2873
  638MOL0     H86125   1.084   4.575   0.620 -0.2859  0.8080 -0.5903
  638MOL0     H86126   0.970   4.491   0.235  1.5373 -1.4456  0.1605
  638MOL0     H86127   1.630   4.892   0.367  1.0469  0.3453  0.4583
  638MOL0     H86128   1.832   4.936   0.287 -0.0788  0.6737  0.5399
  638MOL0     H86129   1.962   4.955   0.405 -1.1727  1.8871 -0.5625
  638MOL0     H86130   1.941   4.803   0.318  0.1603 -0.1870 -0.2018
  639MOL0     O86131   3.356   1.298   0.944 -0.2763 -0.4657 -0.3027
  639MOL0     C86132   3.329   1.308   0.818  0.2742  0.2865 -0.6041
  639MOL0     O86133   3.349   1.420   0.731  0.3090  0.0156 -0.9861
  639MOL0     C86134   3.403   1.541   0.755 -0.0975 -0.8327  0.6354
  639MOL0     C86135   3.469   1.577   0.875 -0.1199 -0.1780  0.3536
  639MOL0     C86136   3.535   1.704   0.887  0.1677  0.6162 -0.6012
  639MOL0     C86137   3.537   1.795   0.781  0.5511 -0.3930  0.7076
  639MOL0     O86138   3.591   1.922   0.802 -0.5417  0.9255 -0.1971
  639MOL0     C86139   3.627   1.990   0.693 -0.6775 -0.7583 -0.1588
  639MOL0     C86140   3.700   2.121   0.718 -0.1711  0.0042 -0.4133
  639MOL0     C86141   3.855   2.124   0.724  0.0488  0.6754  0.0287
  639MOL0     C86142   3.919   2.104   0.586 -0.4122  0.1628  0.3590
  639MOL0     C86143   4.046   2.186   0.562  0.5414  0.2994 -0.2235
  639MOL0     C86144   4.093   2.183   0.409  0.8305 -0.0677 -0.7578
  639MOL0     C86145   4.238   2.200   0.384 -0.0241  0.5312 -0.5793
  639MOL0     C86146   4.261   2.224   0.233 -0.4184  0.1876  0.3315
  639MOL0     N86147   4.388   2.285   0.187 -0.9598  0.0750  0.6740
  639MOL0     C86148   4.446   2.399   0.245 -0.3730  0.3801  0.0105
  639MOL0     C86149   4.566   2.413   0.183  0.3721 -0.3213  0.0056
  639MOL0     C86150   4.668   2.523   0.213  0.2139  0.0112  0.3291
  639MOL0     C86151   4.694   2.612   0.093  0.1223 -0.3635  0.1623
  639MOL0     C86152   4.777   2.734   0.131 -0.5887  0.2991 -0.9767
  639MOL0     C86153   4.923   2.697   0.168  0.7941 -0.7259  0.5127
  639MOL0     O86154   4.994   2.646   0.051  0.0783 -0.3597  0.4035
  639MOL0     C86155   5.117   2.602   0.070 -0.5488  0.2273 -0.5885
  639MOL0     C86156   5.178   2.539  -0.042 -0.0568 -0.8583  0.6266
  639MOL0     C86157   5.317   2.509  -0.040 -0.7085  0.4312 -0.5422
  639MOL0     C86158   5.396   2.547   0.076 -0.4595  0.8515 -0.2244
  639MOL0     C86159   5.541   2.541   0.057  0.0412  0.4441 -0.2679
  639MOL0     O86160   5.611   2.559   0.173  0.2158 -0.3627  0.0678
  639MOL0     C86161   5.749   2.583   0.174 -0.0459  0.1331 -0.0036
  639MOL0     C86162   5.824   2.499   0.260 -0.3156 -0.5911  0.0366
  639MOL0     C86163   5.962   2.522   0.264  1.1279 -0.4889  1.6596
  639MOL0     C86164   6.029   2.601   0.169 -0.3152  0.7633 -0.1173
  639MOL0     O86165   6.167   2.608   0.178 -0.1354 -0.0053 -0.8110
  639MOL0     C86166   6.228   2.705   0.088  0.1630 -0.0704  0.2407
  639MOL0     C86167   6.381   2.700   0.126 -0.1544  0.5727 -0.3448
  639MOL0     C86168   6.397   2.714   0.276 -0.8743  0.2091 -0.6718
  639MOL0     C86169   6.540   2.728   0.326 -0.0248 -1.2383  0.3265
  639MOL0     C86170   6.525   2.753   0.472 -0.3745  0.3129  1.0987
  639MOL0     C86171   6.660   2.791   0.519  1.0116 -0.1584  0.6126
  639MOL0     C86172   6.670   2.945   0.506  0.1070  0.3121  0.1660
  639MOL0     C86173   6.812   2.992   0.528 -0.1002 -0.5949  0.2306
  639MOL0    Cl86174   6.920   2.920   0.396  0.3359 -0.0914  0.0567
  639MOL0     C86175   5.953   2.673   0.074 -0.1948  0.0226 -0.7695
  639MOL0     C86176   5.816   2.670   0.081 -0.8463 -0.0422 -0.0043
  639MOL0     O86177   5.589   2.509  -0.055 -0.6536 -0.5250  0.1653
  639MOL0     C86178   5.334   2.592   0.195  0.7430  0.1631 -0.1682
  639MOL0     C86179   5.194   2.618   0.189 -0.3875 -0.2172  0.2413
  639MOL0     N86180   4.568   2.318   0.087  0.1338 -0.0547  0.3344
  639MOL0     N86181   4.472   2.242   0.089  0.0520  0.4298 -0.0539
  639MOL0     C86182   3.470   1.762   0.665  0.1421  0.0182  0.0041
  639MOL0     C86183   3.406   1.642   0.654  0.7307 -0.0232  0.4713
  639MOL0     C86184   3.285   1.184   0.743  0.2811  0.9652  0.5216
  639MOL0     C86185   3.294   1.187   0.598  0.2987  0.4283 -0.0884
  639MOL0     C86186   3.248   1.079   0.525 -1.0516 -0.6140  0.8571
  639MOL0     C86187   3.213   0.957   0.580  0.0088  0.3843 -0.7174
  639MOL0     O86188   3.177   0.852   0.496 -0.4926  0.2405 -0.8500
  639MOL0     C86189   3.198   0.720   0.540 -0.4072 -0.9408 -0.7539
  639MOL0     C86190   3.197   0.634   0.415 -0.3507 -0.7576  0.4650
  639MOL0     C86191   3.318   0.675   0.329  0.7492  0.6447 -0.7646
  639MOL0     C86192   3.339   0.603   0.203 -0.0852 -0.2625  0.5771
  639MOL0     C86193   3.221   0.539   0.141 -0.9983  0.0525  0.0357
  639MOL0     C86194   3.129   0.476   0.094  0.2588 -0.1121  0.6328
  639MOL0     C86195   3.227   0.947   0.720  0.5625  0.3615 -0.4142
  639MOL0     C86196   3.253   1.057   0.803 -0.8020 -0.4418  0.3342
  639MOL0     C86197   3.257   1.032   0.947  0.1087 -0.3025  0.3665
  639MOL0     H86198   3.474   1.513   0.963  2.7194 -1.8530 -0.8709
  639MOL0     H86199   3.598   1.721   0.974 -0.5974  0.8823 -0.0969
  639MOL0     H86200   3.682   1.926   0.623 -0.1289 -2.9367  2.1280
  639MOL0     H86201   3.531   2.018   0.647  0.3468 -0.9254 -2.5190
  639MOL0     H86202   3.659   2.158   0.812  0.8436 -0.2554  0.1524
  639MOL0     H86203   3.674   2.200   0.647  1.0029  1.4811  0.7429
  639MOL0     H86204   3.901   2.059   0.799  0.0871  0.1990 -0.4039
  639MOL0     H86205   3.888   2.223   0.758  3.6431 -0.4426  0.2284
  639MOL0     H86206   3.947   2.001   0.563  0.2598  0.9144 -2.6744
  639MOL0     H86207   3.846   2.135   0.510  0.8292 -0.8174 -1.2958
  639MOL0     H86208   4.033   2.289   0.594 -1.8948  0.0111 -0.1082
  639MOL0     H86209   4.126   2.148   0.626  2.3190  1.8220 -1.4326
  639MOL0     H86210   4.053   2.095   0.357  2.6321 -2.4030  1.5401
  639MOL0     H86211   4.031   2.258   0.360 -2.5591 -1.6257  0.8081
  639MOL0     H86212   4.292   2.114   0.424 -0.9071  2.0178  4.5803
  639MOL0     H86213   4.272   2.287   0.442  3.2005 -0.3073 -1.0197
  639MOL0     H86214   4.254   2.123   0.192  2.1717  0.4309 -0.9035
  639MOL0     H86215   4.174   2.277   0.196  0.9670  1.9283 -0.5871
  639MOL0     H86216   4.413   2.447   0.336  1.0338  0.0066  0.7389
  639MOL0     H86217   4.628   2.581   0.297  0.5957  0.5803  0.1229
  639MOL0     H86218   4.761   2.474   0.244 -0.0005  0.1300  1.1891
  639MOL0     H86219   4.751   2.546   0.026 -1.0396 -0.5342 -0.6957
  639MOL0     H86220   4.596   2.636   0.051  1.7405  3.1052 -2.0236
  639MOL0     H86221   4.728   2.800   0.203  1.5370  2.4364 -1.3602
  639MOL0     H86222   4.779   2.801   0.045 -5.3032 -1.0357 -2.4442
  639MOL0     H86223   4.918   2.616   0.241 -3.2851 -1.5777 -0.4762
  639MOL0     H86224   4.968   2.789   0.207  3.5339 -0.7931 -2.0829
  639MOL0     H86225   5.112   2.528  -0.128 -0.8405 -1.1303  1.2555
  639MOL0     H86226   5.358   2.451  -0.122  1.0908 -3.2314  2.6214
  639MOL0     H86227   5.779   2.438   0.337 -1.9303  0.5117  0.0143
  639MOL0     H86228   6.004   2.456   0.339 -1.1954  1.1557  4.6202
  639MOL0     H86229   6.223   2.676  -0.017  0.2253 -1.2901  0.5515
  639MOL0     H86230   6.196   2.807   0.110  1.1667  0.2992  0.0161
  639MOL0     H86231   6.422   2.604   0.094 -0.1199  0.1060  1.0439
  639MOL0     H86232   6.431   2.780   0.070 -1.7762  0.4087 -2.1226
  639MOL0     H86233   6.340   2.801   0.311 -2.8944 -1.6560  0.9118
  639MOL0     H86234   6.353   2.625   0.322  2.1250 -0.5622  0.9397
  639MOL0     H86235   6.567   2.816   0.268 -1.7065 -0.7362  0.2747
  639MOL0     H86236   6.609   2.645   0.307  0.6639 -0.1607 -2.1683
  639MOL0     H86237   6.497   2.659   0.520 -0.4476 -1.0639 -1.4180
  639MOL0     H86238   6.442   2.819   0.499 -1.4670 -1.1499  1.4598
  639MOL0     H86239   6.688   2.765   0.621  1.7745  1.5284  0.8530
  639MOL0     H86240   6.739   2.749   0.456  2.6101  1.6764  1.2917
  639MOL0     H86241   6.596   2.990   0.573  2.3241  2.0580  1.5594
  639MOL0     H86242   6.644   2.986   0.408  0.8621 -0.2641 -0.2822
  639MOL0     H86243   6.822   3.100   0.519  5.0421 -1.0347 -3.6175
  639MOL0     H86244   6.849   2.963   0.627  2.1494  0.5139 -0.2286
  639MOL0     H86245   6.001   2.733  -0.003  1.4686 -1.6098 -1.0695
  639MOL0     H86246   5.767   2.739   0.013  1.4271  0.5522 -1.1465
  639MOL0     H86247   5.372   2.622   0.292 -1.5712  0.0607  0.8351
  639MOL0     H86248   5.133   2.647   0.275 -0.4186  0.0809  0.1205
  639MOL0     H86249   3.467   1.823   0.575 -0.1407  1.8681  1.2215
  639MOL0     H86250   3.367   1.623   0.554  1.5845 -0.6882  0.2541
  639MOL0     H86251   3.326   1.281   0.555  2.7540  1.4765  3.5383
  639MOL0     H86252   3.237   1.094   0.418 -1.8515 -3.0953  0.5145
  639MOL0     H86253   3.110   0.696   0.601 -0.9064  1.7380 -0.2872
  639MOL0     H86254   3.287   0.715   0.603 -1.0802  1.7864  0.5873
  639MOL0     H86255   3.107   0.642   0.353 -0.7286 -1.0388  0.9718
  639MOL0     H86256   3.208   0.526   0.429  2.9280 -0.4771  0.8270
  639MOL0     H86257   3.407   0.686   0.391  0.2799  2.2140 -0.3208
  639MOL0     H86258   3.296   0.779   0.303 -0.6165  0.6820  0.4201
  639MOL0     H86259   3.388   0.665   0.127 -0.7986 -3.4553 -2.7672
  639MOL0     H86260   3.415   0.528   0.226  0.3677  0.1222  0.3582
  639MOL0     H86261   3.050   0.421   0.047 -1.6473  2.4055  0.6844
  639MOL0     H86262   3.206   0.849   0.762 -3.2573  0.9395 -0.6124
  639MOL0     H86263   3.223   0.935   0.984 -4.6982  1.9011  2.7295
  639MOL0     H86264   3.358   1.040   0.989  0.6877  0.3895 -1.0894
  639MOL0     H86265   3.202   1.111   0.999  3.2943  0.5638  2.7739
  640MOL0     O86266   0.667   1.073   1.100  0.9511  0.0918  0.2804
  640MOL0     C86267   0.650   1.170   1.029  0.5845 -1.0201  0.5943
  640MOL0     O86268   0.748   1.248   0.975  0.6152 -0.1757  0.1921
  640MOL0     C86269   0.880   1.215   1.005  0.9508 -0.3216 -0.3174
  640MOL0     C86270   0.953   1.256   1.118  0.8928 -0.8376  0.5783
  640MOL0     C86271   1.086   1.227   1.131 -0.5522 -0.0541  0.1859
  640MOL0     C86272   1.143   1.132   1.050 -0.4887 -0.2246 -0.1531
  640MOL0     O86273   1.277   1.097   1.067  0.4860  0.5227 -0.3535
  640MOL0     C86274   1.347   1.067   0.952 -1.6038  0.6763 -0.4038
  640MOL0     C86275   1.501   1.098   0.975  0.1100 -0.3614 -0.9175
  640MOL0     C86276   1.581   1.072   0.847 -0.1660  0.5740 -0.6108
  640MOL0     C86277   1.715   1.152   0.848  0.6670 -0.2740  0.2925
  640MOL0     C86278   1.806   1.137   0.721  0.7655 -0.2735 -0.9372
  640MOL0     C86279   1.940   1.184   0.757 -0.7967  0.3521 -0.0020
  640MOL0     C86280   2.031   1.191   0.628 -0.6353  0.3813 -0.1047
  640MOL0     C86281   2.167   1.251   0.658 -0.2761  0.3330  0.4036
  640MOL0     N86282   2.225   1.202   0.783 -1.0737  0.4171 -0.4347
  640MOL0     C86283   2.311   1.092   0.788 -0.7175 -0.3132  0.1743
  640MOL0     C86284   2.344   1.075   0.922 -0.9795 -0.0950  0.2933
  640MOL0     C86285   2.442   0.972   0.978 -0.2683 -1.0080 -0.2980
  640MOL0     C86286   2.578   1.041   0.997  0.4570 -0.2261  0.3580
  640MOL0     C86287   2.617   1.134   0.882  0.9606 -0.1630  0.1109
  640MOL0     C86288   2.758   1.191   0.902  0.6369 -0.3247 -0.1808
  640MOL0     O86289   2.763   1.321   0.842  0.4569  0.5249  1.1029
  640MOL0     C86290   2.853   1.407   0.881 -1.0650  0.2569  0.8994
  640MOL0     C86291   2.822   1.541   0.865  0.4850 -0.0579 -0.2417
  640MOL0     C86292   2.908   1.636   0.904 -0.1672 -0.4631 -0.4936
  640MOL0     C86293   3.029   1.611   0.974 -0.3049 -0.4712  0.2154
  640MOL0     C86294   3.120   1.718   1.031 -0.1340  0.6237  0.3902
  640MOL0     O86295   3.200   1.690   1.143 -0.1674 -0.6955  0.5081
  640MOL0     C86296   3.278   1.787   1.212 -0.2144  0.1819  0.8819
  640MOL0     C86297   3.367   1.877   1.137  0.4596  0.0794 -0.1089
  640MOL0     C86298   3.454   1.963   1.203  0.4666 -0.6709  1.2094
  640MOL0     C86299   3.460   1.962   1.341  0.2721 -0.0977  0.1417
  640MOL0     O86300   3.556   2.034   1.404  0.6559 -0.0579  0.0185
  640MOL0     C86301   3.534   2.056   1.550  0.6908  0.3248  0.8370
  640MOL0     C86302   3.628   2.156   1.612  0.2082 -0.6725 -0.9998
  640MOL0     C86303   3.775   2.139   1.584 -0.0565 -0.4811  0.0188
  640MOL0     C86304   3.829   2.006   1.610  0.0723 -1.1307 -0.1251
  640MOL0     C86305   3.970   1.984   1.575  0.2052 -0.2307  0.7379
  640MOL0     C86306   4.019   1.847   1.618  0.1765  0.4162  0.6387
  640MOL0     C86307   4.140   1.821   1.530  0.0522  0.6428  0.2933
  640MOL0     C86308   4.210   1.679   1.544  0.4070 -0.2828 -0.5268
  640MOL0    Cl86309   4.337   1.661   1.423  0.1303  0.1715  0.1695
  640MOL0     C86310   3.384   1.856   1.412 -0.5141 -0.4221  0.0806
  640MOL0     C86311   3.292   1.782   1.345  0.9264 -0.1865 -0.1477
  640MOL0     O86312   3.125   1.825   0.966  0.0298  0.2265  0.4737
  640MOL0     C86313   3.066   1.480   0.990  0.4478 -1.0886  0.7835
  640MOL0     C86314   2.979   1.377   0.930 -0.5324  0.2369 -0.1720
  640MOL0     N86315   2.286   1.177   0.990  0.0029  0.1159 -0.2550
  640MOL0     N86316   2.220   1.252   0.911  0.2471 -0.1902  1.3791
  640MOL0     C86317   1.065   1.083   0.944 -1.1703  0.5915 -0.7048
  640MOL0     C86318   0.941   1.131   0.908 -0.2765  0.1946 -0.2987
  640MOL0     C86319   0.512   1.195   0.978  1.0478 -0.2377 -0.0863
  640MOL0     C86320   0.496   1.233   0.843 -0.3740 -0.2453 -0.7712
  640MOL0     C86321   0.365   1.243   0.779  0.1606  0.4564  0.5872
  640MOL0     C86322   0.248   1.213   0.843 -0.5733 -0.4926  0.4991
  640MOL0     O86323   0.134   1.187   0.773  0.0311  0.4313  0.3736
  640MOL0     C86324   0.074   1.303   0.706  0.9696 -0.7312 -0.4899
  640MOL0     C86325  -0.040   1.355   0.796 -0.2793 -0.0832  0.5880
  640MOL0     C86326  -0.159   1.269   0.816 -0.2379  0.1020 -0.4403
  640MOL0     C86327  -0.253   1.338   0.917 -0.5323 -0.0190 -0.1211
  640MOL0     C86328  -0.382   1.270   0.922 -0.5228  0.1141  0.0156
  640MOL0     C86329  -0.481   1.209   0.941  0.6454 -0.9303  0.2809
  640MOL0     C86330   0.262   1.180   0.982 -0.7169  0.2050 -0.2814
  640MOL0     C86331   0.387   1.169   1.040 -0.6046  0.1556  0.3653
  640MOL0     C86332   0.378   1.102   1.177  0.5703  0.0976  0.6962
  640MOL0     H86333   0.905   1.313   1.197  1.2972 -0.7964  0.8005
  640MOL0     H86334   1.141   1.271   1.214  0.7093 -2.9063  0.9759
  640MOL0     H86335   1.332   0.963   0.924  0.8162 -0.6354  2.5505
  640MOL0     H86336   1.308   1.128   0.870 -1.0643 -0.6871 -1.7123
  640MOL0     H86337   1.551   1.043   1.054 -1.3285 -1.7419 -0.9170
  640MOL0     H86338   1.509   1.205   0.996 -1.0042 -0.6178  1.0623
  640MOL0     H86339   1.520   1.117   0.767 -0.7182 -0.5715 -0.8661
  640MOL0     H86340   1.603   0.968   0.822 -1.8200  0.1611 -0.5185
  640MOL0     H86341   1.690   1.256   0.869 -1.1300 -0.2536 -1.6130
  640MOL0     H86342   1.767   1.113   0.936 -1.0429  0.8106  1.8308
  640MOL0     H86343   1.804   1.032   0.689 -0.2264 -0.3883 -0.5465
  640MOL0     H86344   1.756   1.197   0.644 -0.8039 -0.0404  0.1986
  640MOL0     H86345   1.933   1.287   0.791 -2.1925  0.1826  0.2892
  640MOL0     H86346   1.966   1.113   0.836  0.6110  0.7924 -0.0376
  640MOL0     H86347   1.979   1.248   0.550 -0.2406  0.0432 -0.6194
  640MOL0     H86348   2.039   1.087   0.593  0.0149  0.0171  1.0500
  640MOL0     H86349   2.232   1.226   0.574 -1.9883  0.0423 -0.8702
  640MOL0     H86350   2.149   1.357   0.675 -2.1768 -0.1950  2.0462
  640MOL0     H86351   2.334   1.025   0.706  1.8052 -1.8571  2.0165
  640MOL0     H86352   2.413   0.957   1.083  1.7161  0.2570  0.4875
  640MOL0     H86353   2.449   0.879   0.921  0.9822 -1.9546  1.3001
  640MOL0     H86354   2.589   1.100   1.088  2.9484  1.8222 -1.1241
  640MOL0     H86355   2.662   0.972   1.006  0.4806 -0.0646  1.4801
  640MOL0     H86356   2.548   1.218   0.892  1.2827 -0.1132  2.2123
  640MOL0     H86357   2.592   1.096   0.782  0.3894 -1.2293  0.6458
  640MOL0     H86358   2.827   1.120   0.855 -1.4615 -2.4604 -0.2193
  640MOL0     H86359   2.788   1.196   1.008 -0.1807 -3.5097  0.2969
  640MOL0     H86360   2.731   1.577   0.817  0.9445 -0.6831 -1.6245
  640MOL0     H86361   2.878   1.740   0.898  0.2161 -0.3207 -0.0721
  640MOL0     H86362   3.347   1.882   1.031 -2.1991  0.2541  0.3380
  640MOL0     H86363   3.529   2.018   1.147  1.4152 -2.6483  0.4345
  640MOL0     H86364   3.431   2.090   1.565 -0.1426 -0.7034 -1.9318
  640MOL0     H86365   3.547   1.957   1.595 -0.5509 -0.0066  0.5107
  640MOL0     H86366   3.609   2.260   1.583  1.0129 -0.6978 -1.6425
  640MOL0     H86367   3.614   2.156   1.721  1.0774 -0.4624 -0.8813
  640MOL0     H86368   3.789   2.159   1.478  0.3791  0.2740  0.2124
  640MOL0     H86369   3.829   2.211   1.646  0.1118 -0.8877  0.3468
  640MOL0     H86370   3.763   1.924   1.579 -1.7493  0.5097 -0.7873
  640MOL0     H86371   3.836   1.992   1.718 -0.7288  1.4209  0.3255
  640MOL0     H86372   4.033   2.066   1.611  1.0100 -0.0525 -1.0230
  640MOL0     H86373   3.979   1.996   1.467  0.9106 -2.2504  0.5379
  640MOL0     H86374   4.050   1.831   1.721 -0.9720  0.1952  0.9633
  640MOL0     H86375   3.938   1.775   1.603  1.6526 -1.5439  1.5435
  640MOL0     H86376   4.222   1.893   1.545  0.2142  0.8269 -1.2791
  640MOL0     H86377   4.108   1.826   1.425 -2.1415 -1.9123  0.7232
  640MOL0     H86378   4.260   1.660   1.640 -0.7450 -0.2826  0.0923
  640MOL0     H86379   4.140   1.596   1.534 -1.2609  0.6451  2.3480
  640MOL0     H86380   3.388   1.836   1.518 -0.3319  0.1576  0.1875
  640MOL0     H86381   3.219   1.731   1.406  1.1882  0.3224  0.6030
  640MOL0     H86382   3.163   1.450   1.029  0.3304 -2.0011  0.4082
  640MOL0     H86383   3.010   1.275   0.946 -2.8866 -0.2327  2.1384
  640MOL0     H86384   1.104   1.006   0.879 -1.2674 -2.1302  2.2098
  640MOL0     H86385   0.894   1.086   0.821  0.2839 -1.4631  0.2074
  640MOL0     H86386   0.586   1.237   0.783 -1.6785  1.5765 -2.7472
  640MOL0     H86387   0.374   1.276   0.676  1.1319  1.0906  0.8618
  640MOL0     H86388   0.037   1.283   0.605 -0.1936  4.1093 -1.2945
  640MOL0     H86389   0.149   1.382   0.696  1.6363 -1.4988 -1.6857
  640MOL0     H86390  -0.075   1.450   0.755  1.6208  0.9615  1.2417
  640MOL0     H86391   0.005   1.387   0.890 -0.4591  1.5990  0.1364
  640MOL0     H86392  -0.138   1.176   0.870  3.5434  0.4751 -0.9565
  640MOL0     H86393  -0.207   1.239   0.723 -1.1698  2.2441 -0.7064
  640MOL0     H86394  -0.204   1.318   1.013 -0.7522  0.5551  0.1122
  640MOL0     H86395  -0.262   1.446   0.902  1.4660  0.2501  0.3316
  640MOL0     H86396  -0.577   1.164   0.951  0.4465 -0.7808 -0.7706
  640MOL0     H86397   0.171   1.141   1.028 -0.4354 -0.5431 -0.3442
  640MOL0     H86398   0.406   0.997   1.171 -2.0887 -0.6028 -3.0142
  640MOL0     H86399   0.448   1.157   1.241  0.9129 -0.1677  0.5506
  640MOL0     H86400   0.273   1.095   1.207 -0.2929  1.6047 -1.6896
  641MOL0     O86401   9.539   9.236   5.526  0.5360  0.3724  0.6064
  641MOL0     C86402   9.631   9.219   5.449  0.9050 -1.0925 -0.5249
  641MOL0     O86403   9.667   9.100   5.404 -0.5899  0.4356  0.5311
  641MOL0     C86404   9.597   8.995   5.449 -0.7129 -0.0004 -0.5391
  641MOL0     C86405   9.536   8.905   5.355  0.2696  0.4630  0.2650
  641MOL0     C86406   9.474   8.789   5.401 -0.3106  0.0933  0.3078
  641MOL0     C86407   9.473   8.753   5.533 -0.1994  0.9283  0.3457
  641MOL0     O86408   9.393   8.656   5.586  0.0599  0.1883 -0.7771
  641MOL0     C86409   9.254   8.642   5.556 -0.8687  0.9758  0.0317
  641MOL0     C86410   9.175   8.629   5.692  0.1819  0.0948 -0.1161
  641MOL0     C86411   9.186   8.761   5.771 -0.0413  0.1464 -0.4141
  641MOL0     C86412   9.141   8.734   5.911 -0.5929 -0.0061 -0.3490
  641MOL0     C86413   9.182   8.839   6.011  0.4071 -0.6325 -0.2741
  641MOL0     C86414   9.104   8.831   6.148 -0.9184  0.7456 -0.1801
  641MOL0     C86415   9.157   8.942   6.234  0.9054  0.2601  0.9834
  641MOL0     C86416   9.072   9.068   6.220 -0.5070 -0.1974  0.1467
  641MOL0     N86417   9.134   9.176   6.304 -0.3286  0.4404 -0.4562
  641MOL0     C86418   9.152   9.166   6.443  0.3785 -0.2089 -1.0735
  641MOL0     C86419   9.216   9.279   6.484 -0.4091 -0.1863  0.1188
  641MOL0     C86420   9.265   9.301   6.621  0.4606 -0.7456 -0.4407
  641MOL0     C86421   9.401   9.238   6.665 -0.2563  0.2335  0.3107
  641MOL0     C86422   9.445   9.275   6.804  0.9282 -0.3971  0.1673
  641MOL0     C86423   9.557   9.199   6.870 -0.3917 -0.0918 -0.1401
  641MOL0     O86424   9.679   9.271   6.858  0.1520  0.3319 -0.0218
  641MOL0     C86425   9.795   9.211   6.899 -0.0337 -0.5356  0.5828
  641MOL0     C86426   9.911   9.281   6.857  0.0831  0.0574  0.4741
  641MOL0     C86427  10.043   9.239   6.880 -0.6882  0.4540 -1.3058
  641MOL0     C86428  10.060   9.115   6.948  0.3923  0.8077 -1.0495
  641MOL0     C86429  10.191   9.062   6.978  0.2440  0.6936 -0.4612
  641MOL0     O86430  10.288   9.153   6.974 -0.7985 -0.2282 -1.0881
  641MOL0     C86431  10.411   9.125   7.037  0.8802 -0.2788  0.2359
  641MOL0     C86432  10.421   9.040   7.146  0.3651  0.4237 -0.2258
  641MOL0     C86433  10.543   9.008   7.208  0.0037  0.0054  1.2983
  641MOL0     C86434  10.659   9.061   7.149  0.0202  0.2044  0.2640
  641MOL0     O86435  10.784   9.036   7.206 -0.1974 -0.2643 -0.6004
  641MOL0     C86436  10.825   8.898   7.200 -0.7830 -0.0700  0.5452
  641MOL0     C86437  10.977   8.895   7.234  0.5605 -0.6020  0.1105
  641MOL0     C86438  11.020   8.754   7.225  0.9164 -0.5966 -0.3872
  641MOL0     C86439  11.169   8.746   7.245 -0.3460 -1.2853 -0.5416
  641MOL0     C86440  11.214   8.603   7.270  0.2634 -0.1914  0.1065
  641MOL0     C86441  11.356   8.598   7.320 -0.2932 -1.2645  0.3803
  641MOL0     C86442  11.458   8.590   7.200  0.0278 -0.9027 -0.0536
  641MOL0     C86443  11.593   8.537   7.244 -0.3617 -0.6248 -0.1689
  641MOL0    Cl86444  11.663   8.620   7.383 -0.5268  0.3369  0.1566
  641MOL0     C86445  10.654   9.146   7.038 -0.7023  0.5724 -0.4871
  641MOL0     C86446  10.527   9.170   6.984  0.2692  0.3441 -0.4643
  641MOL0     O86447  10.205   8.941   7.008  0.0390  0.1351  0.8078
  641MOL0     C86448   9.949   9.041   6.984 -0.1064 -0.3494 -0.4807
  641MOL0     C86449   9.814   9.084   6.958 -0.8677  0.4711  0.5266
  641MOL0     N86450   9.247   9.351   6.366 -0.1126  0.5849  0.1744
  641MOL0     N86451   9.201   9.297   6.267  0.1807  0.1890 -0.1416
  641MOL0     C86452   9.539   8.833   5.627 -0.0617  0.0109 -0.3108
  641MOL0     C86453   9.603   8.945   5.585 -0.4517  0.4605 -0.2846
  641MOL0     C86454   9.701   9.347   5.400  0.3140  0.0434  0.9526
  641MOL0     C86455   9.807   9.323   5.310  0.0782  0.1883 -0.0725
  641MOL0     C86456   9.879   9.424   5.259 -1.0677  0.1456  0.3340
  641MOL0     C86457   9.856   9.560   5.281  1.1101  1.0864 -0.1522
  641MOL0     O86458   9.920   9.656   5.222 -0.5903 -0.4069  0.2623
  641MOL0     C86459  10.040   9.694   5.290  0.2745 -0.0405  0.0097
  641MOL0     C86460  10.163   9.637   5.207 -0.0799 -0.5187  0.6065
  641MOL0     C86461  10.297   9.680   5.265 -0.2465  0.5955  0.5949
  641MOL0     C86462  10.401   9.669   5.163  0.6476 -0.3862 -0.5445
  641MOL0     C86463  10.524   9.711   5.225 -0.4599  0.6627  0.6906
  641MOL0     C86464  10.632   9.726   5.281  0.2996  0.0787  0.0289
  641MOL0     C86465   9.755   9.582   5.376  0.0870  0.4521 -0.0180
  641MOL0     C86466   9.677   9.478   5.437  0.8642 -0.2006  0.2977
  641MOL0     C86467   9.564   9.525   5.517 -0.3118  0.5987  1.0108
  641MOL0     H86468   9.538   8.928   5.250  0.7700 -2.3943 -0.4521
  641MOL0     H86469   9.421   8.716   5.341  3.1181 -1.7068 -0.7722
  641MOL0     H86470   9.221   8.726   5.494  0.3878 -0.7986 -3.2944
  641MOL0     H86471   9.238   8.552   5.496  2.4513 -0.9544  1.7852
  641MOL0     H86472   9.212   8.545   5.752 -2.4111 -2.6090 -2.0520
  641MOL0     H86473   9.071   8.612   5.663  0.0093 -0.3908  0.7665
  641MOL0     H86474   9.138   8.850   5.729 -1.2331  1.8384  3.9106
  641MOL0     H86475   9.291   8.792   5.776  0.2325 -0.8819  0.4081
  641MOL0     H86476   9.032   8.730   5.924 -0.4494 -1.3185  0.6144
  641MOL0     H86477   9.180   8.635   5.936 -0.3124 -0.1686 -1.3820
  641MOL0     H86478   9.289   8.823   6.024 -0.1305 -4.5839  0.5150
  641MOL0     H86479   9.163   8.940   5.975  0.5953 -0.4638  0.0965
  641MOL0     H86480   8.996   8.838   6.131 -0.9248 -1.5474 -1.4548
  641MOL0     H86481   9.132   8.738   6.198  1.0060  2.4743  2.2138
  641MOL0     H86482   9.258   8.969   6.201  0.4625 -0.1670 -0.8763
  641MOL0     H86483   9.152   8.913   6.339 -0.4698  0.1512  0.9107
  641MOL0     H86484   9.050   9.091   6.116  1.1088 -2.7241 -0.8520
  641MOL0     H86485   8.975   9.068   6.272 -1.0495  0.4476 -0.8444
  641MOL0     H86486   9.111   9.083   6.499 -1.5180 -0.2000 -2.3383
  641MOL0     H86487   9.264   9.410   6.632  0.1290 -0.8837  1.2740
  641MOL0     H86488   9.182   9.258   6.679  0.9124  2.6278  3.1538
  641MOL0     H86489   9.392   9.129   6.672  2.3418  0.0684  3.0824
  641MOL0     H86490   9.486   9.272   6.606  1.4483 -1.7845  1.4498
  641MOL0     H86491   9.355   9.265   6.866  3.8638  0.5258  5.2304
  641MOL0     H86492   9.463   9.382   6.794  2.1174 -0.6510 -0.7251
  641MOL0     H86493   9.564   9.108   6.810  2.2831 -0.5160  0.6941
  641MOL0     H86494   9.531   9.177   6.974  2.5243  4.7079  1.9466
  641MOL0     H86495   9.909   9.377   6.807  1.1530  0.9045  1.9708
  641MOL0     H86496  10.122   9.307   6.852 -0.7021  1.2691  0.4683
  641MOL0     H86497  10.332   9.000   7.194 -0.3143 -2.1488 -3.2407
  641MOL0     H86498  10.544   8.942   7.294  0.8109 -5.2830 -2.3193
  641MOL0     H86499  10.770   8.842   7.276  1.3348  0.6547  2.7201
  641MOL0     H86500  10.813   8.855   7.100  0.6332  1.4131 -0.3066
  641MOL0     H86501  11.031   8.962   7.166 -2.0755  1.7054  0.1084
  641MOL0     H86502  10.976   8.932   7.337 -1.1724 -0.0794 -0.0548
  641MOL0     H86503  10.968   8.700   7.304 -0.3838  2.9630  1.3958
  641MOL0     H86504  11.005   8.719   7.122  1.1351 -0.3710 -0.4965
  641MOL0     H86505  11.187   8.795   7.341  0.4132 -2.4727 -0.0592
  641MOL0     H86506  11.220   8.796   7.162 -0.1947  1.5614  1.1455
  641MOL0     H86507  11.211   8.533   7.186  1.8921 -2.1555  1.5982
  641MOL0     H86508  11.150   8.552   7.343 -1.7018  0.5705 -0.9969
  641MOL0     H86509  11.386   8.679   7.386  1.0616  0.5178 -2.2160
  641MOL0     H86510  11.369   8.502   7.371 -0.4881 -1.5995 -0.1909
  641MOL0     H86511  11.474   8.689   7.157 -1.2517 -0.1743  1.0578
  641MOL0     H86512  11.420   8.517   7.128 -4.0442  1.8500 -1.0107
  641MOL0     H86513  11.571   8.433   7.270 -0.2567 -1.0865 -1.7949
  641MOL0     H86514  11.660   8.538   7.157  3.0325 -1.2825  2.2565
  641MOL0     H86515  10.743   9.191   6.997 -0.6956  1.3613  0.3660
  641MOL0     H86516  10.525   9.233   6.895  1.6057 -0.6753 -1.2623
  641MOL0     H86517   9.968   8.939   7.017 -0.2505 -0.0612  0.5035
  641MOL0     H86518   9.737   9.010   6.977 -1.0270  0.8690  1.4898
  641MOL0     H86519   9.522   8.824   5.734 -1.5065 -1.9954 -0.6458
  641MOL0     H86520   9.648   9.009   5.661 -1.1380 -1.5501  1.9327
  641MOL0     H86521   9.832   9.224   5.272  0.0037  0.7595 -1.6951
  641MOL0     H86522   9.953   9.406   5.181 -1.4442  1.4798 -0.3714
  641MOL0     H86523  10.045   9.654   5.392  2.4287 -0.2719 -0.1354
  641MOL0     H86524  10.061   9.802   5.298 -1.7752  0.3609  0.3781
  641MOL0     H86525  10.163   9.671   5.103  2.0179  1.4992  1.1959
  641MOL0     H86526  10.153   9.528   5.215 -3.2763 -0.4246 -0.7012
  641MOL0     H86527  10.333   9.619   5.349  1.8788  0.2302 -0.5254
  641MOL0     H86528  10.292   9.782   5.302  0.4988  0.2270  1.7680
  641MOL0     H86529  10.412   9.568   5.124 -2.1096  0.0504 -2.6984
  641MOL0     H86530  10.375   9.738   5.082  0.2969  0.3736  0.1964
  641MOL0     H86531  10.727   9.731   5.330  0.7715 -1.8307 -0.5916
  641MOL0     H86532   9.722   9.681   5.404 -0.8998 -0.3358  1.8061
  641MOL0     H86533   9.538   9.460   5.602 -1.9955 -1.0344 -0.6395
  641MOL0     H86534   9.587   9.622   5.561  0.9460  1.4689 -1.4084
  641MOL0     H86535   9.470   9.530   5.460  0.3910  1.2088 -0.1304
  642MOL0     O86536  10.339   8.575  11.138  0.3026  0.3483  0.1237
  642MOL0     C86537  10.309   8.551  11.255 -0.5381  0.6643  0.7194
  642MOL0     O86538  10.401   8.572  11.353 -0.4711  0.0110 -0.6076
  642MOL0     C86539  10.539   8.589  11.337  0.2139 -0.4179  0.1848
  642MOL0     C86540  10.618   8.541  11.227 -0.4504  0.2944  0.9350
  642MOL0     C86541  10.756   8.551  11.223 -0.8334 -0.0067  1.2227
  642MOL0     C86542  10.822   8.611  11.333  0.1897  0.9806  0.0969
  642MOL0     O86543  10.952   8.619  11.327  1.1905 -0.3328  0.0749
  642MOL0     C86544  11.006   8.743  11.375 -0.0858  0.2433  0.7019
  642MOL0     C86545  11.078   8.711  11.505  0.2159  0.8650 -0.2327
  642MOL0     C86546  11.167   8.830  11.544 -1.2632  0.5368  0.2826
  642MOL0     C86547  11.247   8.793  11.674  1.2380 -0.6537  1.2440
  642MOL0     C86548  11.378   8.874  11.681 -0.3331 -0.6740 -0.5372
  642MOL0     C86549  11.452   8.828  11.799 -0.3265 -0.3770 -0.9870
  642MOL0     C86550  11.574   8.917  11.831 -0.9860  0.5734 -0.1148
  642MOL0     C86551  11.691   8.903  11.727 -0.3324 -0.4812 -0.5781
  642MOL0     N86552  11.817   8.969  11.763  0.1920  0.3074  0.2333
  642MOL0     C86553  11.860   9.095  11.759 -0.6506  0.0653 -0.1277
  642MOL0     C86554  11.978   9.101  11.822 -1.4916  0.6571 -0.3540
  642MOL0     C86555  12.053   9.219  11.869 -0.2053 -0.8110  0.4471
  642MOL0     C86556  12.161   9.265  11.770 -0.9736  0.5788  0.3393
  642MOL0     C86557  12.253   9.360  11.846  0.0113 -0.4061  0.3162
  642MOL0     C86558  12.382   9.396  11.771  0.3885 -0.4396 -0.7106
  642MOL0     O86559  12.462   9.287  11.746  0.3999 -0.4059 -0.1082
  642MOL0     C86560  12.596   9.318  11.744 -1.0216  0.6117  0.0934
  642MOL0     C86561  12.643   9.361  11.625  0.3816  0.0276  0.2992
  642MOL0     C86562  12.781   9.391  11.608  0.7989  0.4529 -0.8218
  642MOL0     C86563  12.873   9.391  11.717  0.0736 -0.7837  0.8325
  642MOL0     C86564  13.025   9.423  11.713 -0.9103  0.4490 -0.8529
  642MOL0     O86565  13.063   9.495  11.603 -0.5973 -0.5463 -0.1057
  642MOL0     C86566  13.202   9.522  11.594 -0.0029 -0.7083 -0.1579
  642MOL0     C86567  13.282   9.466  11.490  0.4331 -0.5802  0.6651
  642MOL0     C86568  13.410   9.522  11.470  0.0316 -0.3759 -0.5434
  642MOL0     C86569  13.466   9.612  11.560  1.2788 -0.0653 -0.0419
  642MOL0     O86570  13.593   9.647  11.529  0.1331 -0.6168  0.2753
  642MOL0     C86571  13.629   9.784  11.567  0.6903  0.3331  0.5968
  642MOL0     C86572  13.614   9.875  11.451  0.5452 -0.3780 -0.2220
  642MOL0     C86573  13.640  10.024  11.483 -0.2043  0.2220  0.2163
  642MOL0     C86574  13.615  10.119  11.368  0.4242 -0.1493  0.0947
  642MOL0     C86575  13.637  10.263  11.402 -0.1609  0.0471  0.2256
  642MOL0     C86576  13.782  10.297  11.382  0.2840 -0.2341  0.2542
  642MOL0     C86577  13.794  10.441  11.415 -0.3940  0.0231  0.6602
  642MOL0     C86578  13.936  10.487  11.396  0.1682 -0.3429 -0.0527
  642MOL0    Cl86579  13.933  10.658  11.451  0.2654  0.0986 -0.4817
  642MOL0     C86580  13.389   9.647  11.675 -1.1364 -1.0898  0.6733
  642MOL0     C86581  13.257   9.614  11.685  0.4160  0.2110 -0.6249
  642MOL0     O86582  13.090   9.399  11.815 -0.4023 -0.0974  0.1872
  642MOL0     C86583  12.816   9.348  11.838 -0.1291  0.0113  1.1449
  642MOL0     C86584  12.682   9.306  11.845 -0.1958 -0.1972 -0.3229
  642MOL0     N86585  12.012   8.967  11.843 -0.3448  0.5598  0.0805
  642MOL0     N86586  11.917   8.892  11.812 -0.2979 -0.1174  0.9353
  642MOL0     C86587  10.745   8.655  11.447 -0.6382  0.9881  0.1293
  642MOL0     C86588  10.612   8.636  11.451  0.1584  0.0923  0.0693
  642MOL0     C86589  10.170   8.496  11.291 -0.2347 -0.8020 -0.4096
  642MOL0     C86590  10.157   8.422  11.412  1.0494  0.0001  0.2465
  642MOL0     C86591  10.025   8.380  11.460  0.6470  0.2699 -0.1174
  642MOL0     C86592   9.906   8.386  11.377 -0.1988 -0.4603  0.1484
  642MOL0     O86593   9.786   8.340  11.431 -0.4953 -0.6509  0.3241
  642MOL0     C86594   9.664   8.402  11.396  0.7977 -0.3804 -0.5781
  642MOL0     C86595   9.588   8.309  11.305  0.2763 -0.8621  0.9728
  642MOL0     C86596   9.439   8.342  11.288 -0.6349  0.8767 -0.2863
  642MOL0     C86597   9.341   8.287  11.388 -0.6578 -0.5571  0.6382
  642MOL0     C86598   9.207   8.337  11.353 -0.4877 -0.3292 -0.4544
  642MOL0     C86599   9.101   8.363  11.303  0.7308 -0.0203 -0.2107
  642MOL0     C86600   9.928   8.449  11.252  0.4683  1.0585  0.8577
  642MOL0     C86601  10.054   8.505  11.204  0.4397  0.8991 -0.9351
  642MOL0     C86602  10.069   8.561  11.067 -0.0434 -0.3754 -0.9038
  642MOL0     H86603  10.565   8.484  11.152 -2.4738  0.4311  2.1868
  642MOL0     H86604  10.805   8.514  11.134 -0.6039 -4.0638  2.8076
  642MOL0     H86605  11.080   8.771  11.299 -1.0187 -0.6249 -0.5785
  642MOL0     H86606  10.938   8.825  11.398 -1.4059 -0.5517 -0.2498
  642MOL0     H86607  11.135   8.617  11.506  0.0554  0.6585  3.3790
  642MOL0     H86608  11.001   8.692  11.580 -0.3732 -3.7549 -1.7023
  642MOL0     H86609  11.113   8.921  11.573  0.0346  0.9355  1.5897
  642MOL0     H86610  11.238   8.845  11.462  2.5183 -3.6069  2.4314
  642MOL0     H86611  11.184   8.819  11.759 -0.1498 -3.1946  1.1118
  642MOL0     H86612  11.269   8.686  11.676  0.6122 -0.7882  1.1985
  642MOL0     H86613  11.434   8.854  11.589 -2.6321 -0.0152 -2.1751
  642MOL0     H86614  11.354   8.981  11.684 -1.5392 -0.9410  1.2905
  642MOL0     H86615  11.384   8.839  11.884  0.5655  2.5125 -0.5193
  642MOL0     H86616  11.477   8.722  11.798  1.3421 -0.0179 -0.5828
  642MOL0     H86617  11.617   8.878  11.923  0.4151 -1.7622 -1.6471
  642MOL0     H86618  11.539   9.020  11.847 -2.0817 -0.1917  3.0433
  642MOL0     H86619  11.699   8.800  11.693 -0.9079 -0.2398 -1.4906
  642MOL0     H86620  11.650   8.948  11.637  0.2959 -0.7831 -1.0197
  642MOL0     H86621  11.824   9.192  11.726  2.0216  0.2859 -2.7510
  642MOL0     H86622  11.992   9.309  11.879  0.9979 -0.0201  1.0326
  642MOL0     H86623  12.088   9.197  11.971 -2.7794  2.3180  2.1708
  642MOL0     H86624  12.222   9.183  11.731 -0.0148  2.7981 -3.2087
  642MOL0     H86625  12.117   9.314  11.683 -1.8407  0.6456  0.8013
  642MOL0     H86626  12.281   9.311  11.940 -1.3524 -2.5022 -0.2981
  642MOL0     H86627  12.202   9.453  11.874 -1.0216 -0.9219  0.2213
  642MOL0     H86628  12.432   9.474  11.829 -0.4732 -1.3305  1.3268
  642MOL0     H86629  12.349   9.443  11.677 -1.6744 -1.4242 -0.5349
  642MOL0     H86630  12.588   9.348  11.532  3.1830 -1.5539 -1.3018
  642MOL0     H86631  12.825   9.414  11.512 -0.5581  1.1048 -1.3069
  642MOL0     H86632  13.226   9.387  11.442  0.5836 -2.0956  2.8087
  642MOL0     H86633  13.473   9.498  11.385 -0.8469 -0.8316 -1.0869
  642MOL0     H86634  13.573   9.820  11.654 -1.7567 -0.4461 -0.5854
  642MOL0     H86635  13.736   9.785  11.590  0.5279 -2.1675  1.7968
  642MOL0     H86636  13.682   9.836  11.374  1.3631 -1.3127  0.9557
  642MOL0     H86637  13.514   9.870  11.408  0.2091  2.5321 -0.0035
  642MOL0     H86638  13.568  10.041  11.563  1.5874  0.8132  1.7625
  642MOL0     H86639  13.744  10.043  11.509  0.0509 -2.0923  1.1624
  642MOL0     H86640  13.508  10.116  11.347  0.0427  2.4767  1.2247
  642MOL0     H86641  13.667  10.092  11.275  1.5011 -0.5508  0.7874
  642MOL0     H86642  13.607  10.279  11.506  1.8459  3.2431  0.4530
  642MOL0     H86643  13.582  10.331  11.335  2.1596  1.4286 -0.4014
  642MOL0     H86644  13.850  10.232  11.439 -1.2197 -1.4810  0.6982
  642MOL0     H86645  13.797  10.273  11.276  2.1007  2.0695 -0.0941
  642MOL0     H86646  13.753  10.468  11.513 -1.1274  4.2754 -0.5754
  642MOL0     H86647  13.723  10.493  11.349  2.1682  3.1968  0.1478
  642MOL0     H86648  14.005  10.430  11.458 -0.8195  0.3807  1.7675
  642MOL0     H86649  13.967  10.495  11.291  2.7200  1.9135  0.7678
  642MOL0     H86650  13.444   9.716  11.737 -0.8425  0.5698 -1.2990
  642MOL0     H86651  13.193   9.653  11.764 -0.0712 -0.4703 -0.6747
  642MOL0     H86652  12.871   9.337  11.932 -0.8336  2.1076  1.8680
  642MOL0     H86653  12.651   9.272  11.944 -0.1747  0.4092 -0.1002
  642MOL0     H86654  10.791   8.708  11.529 -2.4473  3.2438 -0.2138
  642MOL0     H86655  10.557   8.666  11.540 -1.9901 -1.5867 -0.6334
  642MOL0     H86656  10.250   8.422  11.468  1.4820  0.6504 -0.4635
  642MOL0     H86657  10.002   8.340  11.558 -0.3740 -0.5933 -0.6840
  642MOL0     H86658   9.672   8.502  11.352  3.2384  1.2035  3.0130
  642MOL0     H86659   9.601   8.419  11.483 -1.2165 -1.8532 -1.6588
  642MOL0     H86660   9.594   8.202  11.324 -1.0278 -1.3994 -1.1805
  642MOL0     H86661   9.636   8.323  11.208  1.9472 -0.5152  1.8202
  642MOL0     H86662   9.404   8.314  11.188 -2.8284  0.3192  0.5738
  642MOL0     H86663   9.443   8.451  11.297  0.5981  0.6942  2.3162
  642MOL0     H86664   9.345   8.178  11.381 -2.5598 -0.6647  0.6860
  642MOL0     H86665   9.355   8.323  11.490  2.7815 -1.1175  0.4985
  642MOL0     H86666   9.018   8.385  11.238  0.5186 -1.5841 -0.4955
  642MOL0     H86667   9.845   8.463  11.184  1.6247  0.5654 -0.7092
  642MOL0     H86668  10.156   8.521  11.013  0.1597  2.0528 -2.5397
  642MOL0     H86669   9.981   8.547  11.003  0.9669  1.8568 -2.9499
  642MOL0     H86670  10.099   8.666  11.070  0.7390 -0.6028 -0.2332
  643MOL0     O86671  10.664   6.974   1.444  0.0416 -0.1805  0.1247
  643MOL0     C86672  10.639   7.043   1.539 -0.0374 -1.0766 -1.7059
  643MOL0     O86673  10.727   7.100   1.635  0.0543 -0.5717  0.4109
  643MOL0     C86674  10.852   7.062   1.620 -0.4298 -0.3664  0.4452
  643MOL0     C86675  10.891   6.925   1.602  0.0385  0.1530  0.0041
  643MOL0     C86676  11.028   6.889   1.596 -0.5028 -0.1442  0.0692
  643MOL0     C86677  11.131   6.980   1.620 -0.3178  0.4011 -0.1023
  643MOL0     O86678  11.253   6.920   1.630  0.6472 -0.6164  0.2170
  643MOL0     C86679  11.376   6.993   1.590 -0.3140 -0.2325 -0.4473
  643MOL0     C86680  11.361   7.078   1.464  0.0572 -0.3214  0.2003
  643MOL0     C86681  11.479   7.167   1.434 -0.2441  0.0506  0.2428
  643MOL0     C86682  11.614   7.098   1.398  0.0466 -0.5996 -1.0856
  643MOL0     C86683  11.709   7.201   1.337  1.2564  0.1920  0.0730
  643MOL0     C86684  11.848   7.202   1.394  0.9561 -0.8280 -0.8908
  643MOL0     C86685  11.908   7.068   1.400 -0.0949 -0.0495 -0.5326
  643MOL0     C86686  12.067   7.080   1.401  0.0238 -0.0452 -0.6361
  643MOL0     N86687  12.138   7.065   1.278 -0.8850  0.1303 -0.2505
  643MOL0     C86688  12.252   6.993   1.258 -0.0928  0.0730  0.2917
  643MOL0     C86689  12.298   7.039   1.143  0.1613 -0.9235  0.1516
  643MOL0     C86690  12.426   6.979   1.082  0.6365  0.0244 -0.4657
  643MOL0     C86691  12.552   7.058   1.095  0.4172  0.6248 -0.6569
  643MOL0     C86692  12.612   7.066   1.239  0.7787  0.2002 -0.1478
  643MOL0     C86693  12.737   7.153   1.235 -0.1834  0.2125  0.0787
  643MOL0     O86694  12.763   7.196   1.363 -0.2058 -0.3900  0.0457
  643MOL0     C86695  12.831   7.125   1.454 -0.0741  0.4080 -0.4487
  643MOL0     C86696  12.840   7.177   1.590 -0.3008 -0.1474  0.7165
  643MOL0     C86697  12.898   7.102   1.692  0.0046 -0.2189  0.0759
  643MOL0     C86698  12.953   6.977   1.669  0.8261 -0.1358  0.0088
  643MOL0     C86699  13.012   6.894   1.776  0.3157  0.2332 -0.3019
  643MOL0     O86700  13.003   6.958   1.900 -0.5409  0.0790 -0.6378
  643MOL0     C86701  13.066   6.896   2.003 -0.1307 -0.4611 -0.0350
  643MOL0     C86702  12.995   6.837   2.103 -0.1673  0.3196 -0.9111
  643MOL0     C86703  13.056   6.793   2.224  0.2349 -0.5847  0.4344
  643MOL0     C86704  13.192   6.809   2.242 -0.0149 -0.4802 -1.1143
  643MOL0     O86705  13.245   6.773   2.365  0.0565  0.1502  0.0465
  643MOL0     C86706  13.378   6.728   2.377  0.6188  0.5670 -0.4281
  643MOL0     C86707  13.409   6.703   2.526  0.7362 -0.2700  0.6242
  643MOL0     C86708  13.511   6.599   2.548 -0.1367 -0.0262  0.1594
  643MOL0     C86709  13.644   6.644   2.469 -1.2778 -0.1865 -0.0863
  643MOL0     C86710  13.766   6.552   2.526 -0.0457 -0.4864  0.2105
  643MOL0     C86711  13.904   6.570   2.453 -0.4430 -0.7524 -1.0265
  643MOL0     C86712  14.016   6.480   2.510 -0.1723  0.5208  0.0705
  643MOL0     C86713  14.014   6.336   2.447  0.5155 -0.6688 -0.5477
  643MOL0    Cl86714  13.886   6.231   2.505 -0.1243  0.1353  0.2550
  643MOL0     C86715  13.263   6.879   2.144 -0.3768 -0.1503 -0.1121
  643MOL0     C86716  13.198   6.929   2.024 -0.4878  0.7442  0.6049
  643MOL0     O86717  13.066   6.782   1.759 -0.1843  0.7873  0.1326
  643MOL0     C86718  12.961   6.932   1.534 -0.0478  0.5531 -0.5533
  643MOL0     C86719  12.896   7.000   1.429  0.1148 -1.2992  0.3970
  643MOL0     N86720  12.207   7.136   1.088 -0.2807 -0.7787 -1.1438
  643MOL0     N86721  12.111   7.143   1.168  0.4265  0.1188  0.1794
  643MOL0     C86722  11.098   7.114   1.653  0.2944  0.0622  1.1603
  643MOL0     C86723  10.959   7.153   1.657  0.4356 -0.9496  0.1450
  643MOL0     C86724  10.497   7.080   1.556 -0.5396  0.2112 -0.3903
  643MOL0     C86725  10.471   7.184   1.649 -0.8748 -0.4343  0.5616
  643MOL0     C86726  10.339   7.212   1.683 -0.1795  0.0474 -0.1449
  643MOL0     C86727  10.230   7.146   1.621  1.6445 -0.1001  1.0062
  643MOL0     O86728  10.094   7.184   1.644 -0.2230 -0.5466 -0.3316
  643MOL0     C86729  10.034   7.149   1.767  0.1744  0.6143 -0.1835
  643MOL0     C86730   9.896   7.087   1.748  0.6953 -0.6178  0.0527
  643MOL0     C86731   9.796   7.194   1.694 -0.5748 -0.6309  0.3646
  643MOL0     C86732   9.659   7.141   1.670  1.0331  0.6875  0.0040
  643MOL0     C86733   9.661   7.002   1.621 -0.0367  0.4122  0.2799
  643MOL0     C86734   9.685   6.895   1.568  1.3817 -0.1559  0.0965
  643MOL0     C86735  10.257   7.044   1.531 -0.1377  0.1012  0.4898
  643MOL0     C86736  10.389   7.014   1.497 -0.6084  0.3058 -0.2920
  643MOL0     C86737  10.409   6.897   1.394  0.9564 -0.0198  0.3936
  643MOL0     H86738  10.804   6.861   1.590 -0.5938  1.1210 -0.7193
  643MOL0     H86739  11.052   6.788   1.562  0.2752 -0.6605  1.9677
  643MOL0     H86740  11.398   7.058   1.674 -0.3053 -1.2233  0.3314
  643MOL0     H86741  11.454   6.919   1.572  2.6327  2.9566 -1.8215
  643MOL0     H86742  11.268   7.136   1.461 -1.0091 -1.6912  3.0090
  643MOL0     H86743  11.356   7.001   1.387  1.5214  0.9737 -1.2651
  643MOL0     H86744  11.498   7.228   1.523  1.9983 -1.5341  0.9331
  643MOL0     H86745  11.446   7.226   1.347  0.5239  1.8373  1.1118
  643MOL0     H86746  11.664   7.060   1.487  2.1704  0.1945 -1.8640
  643MOL0     H86747  11.596   7.017   1.327 -0.6477  1.2126 -3.0832
  643MOL0     H86748  11.699   7.192   1.229  0.8401  2.5478 -0.1304
  643MOL0     H86749  11.674   7.304   1.345 -0.5250 -0.4941  1.9293
  643MOL0     H86750  11.911   7.267   1.332  1.7852  0.3548  1.1055
  643MOL0     H86751  11.831   7.244   1.493 -1.6396 -1.5109 -0.9887
  643MOL0     H86752  11.895   7.006   1.310  3.4420 -2.5577  0.4731
  643MOL0     H86753  11.883   7.013   1.491  0.0887 -1.8276 -1.5089
  643MOL0     H86754  12.102   7.176   1.440  0.4666 -1.3151  2.3490
  643MOL0     H86755  12.106   7.007   1.472 -0.3655  0.0580 -0.3102
  643MOL0     H86756  12.304   6.925   1.325 -1.6493  0.6183  2.1397
  643MOL0     H86757  12.443   6.882   1.131 -1.7672 -0.7308 -0.9627
  643MOL0     H86758  12.407   6.960   0.976  1.9039  2.6591 -1.2461
  643MOL0     H86759  12.619   7.010   1.023 -0.0514  1.6131 -1.7872
  643MOL0     H86760  12.534   7.161   1.063 -0.0579  0.5630 -0.6017
  643MOL0     H86761  12.629   6.968   1.286 -2.0745 -1.4530 -2.2295
  643MOL0     H86762  12.536   7.100   1.309  0.1527 -0.4231 -0.5155
  643MOL0     H86763  12.721   7.246   1.179  0.0784  1.1724  1.5321
  643MOL0     H86764  12.816   7.092   1.192 -0.3367 -1.0441  1.5197
  643MOL0     H86765  12.803   7.277   1.607 -2.7160 -0.9614  0.6582
  643MOL0     H86766  12.923   7.153   1.785  4.2542 -0.6569 -0.6031
  643MOL0     H86767  12.888   6.842   2.088 -0.3767  0.1218  0.4392
  643MOL0     H86768  12.995   6.745   2.300  0.9414 -1.8385  0.2366
  643MOL0     H86769  13.389   6.631   2.328  1.5360  0.4604 -0.0160
  643MOL0     H86770  13.447   6.805   2.342  0.0265  0.6435 -1.4607
  643MOL0     H86771  13.436   6.801   2.566  1.6405 -0.5239  0.6568
  643MOL0     H86772  13.317   6.669   2.575  1.5627 -0.9730  1.7123
  643MOL0     H86773  13.538   6.590   2.654  3.6526  0.6203 -0.6112
  643MOL0     H86774  13.483   6.504   2.502  1.1049 -0.1953 -0.2864
  643MOL0     H86775  13.677   6.747   2.483 -2.0196  0.0087  0.2818
  643MOL0     H86776  13.646   6.640   2.360 -0.2062  2.7528 -0.2624
  643MOL0     H86777  13.748   6.444   2.519  2.0381 -0.7993 -1.2255
  643MOL0     H86778  13.774   6.579   2.632 -2.3792  3.6400 -0.4587
  643MOL0     H86779  13.900   6.557   2.345  0.6358  1.5014 -1.4059
  643MOL0     H86780  13.932   6.674   2.476 -0.5401 -0.9411 -0.0090
  643MOL0     H86781  14.023   6.482   2.620 -0.5389  0.4825  0.0956
  643MOL0     H86782  14.110   6.517   2.469  0.2348 -2.7382 -2.3180
  643MOL0     H86783  14.008   6.348   2.338 -1.0641  0.9455 -0.3480
  643MOL0     H86784  14.113   6.297   2.472  1.5063  1.4325 -0.9818
  643MOL0     H86785  13.370   6.895   2.151 -0.5329  0.7836  0.3060
  643MOL0     H86786  13.254   6.994   1.958 -0.9883 -1.1062 -1.8029
  643MOL0     H86787  13.019   6.842   1.515  1.5953  1.2523  0.8880
  643MOL0     H86788  12.907   6.962   1.328  2.1004  2.4311 -0.9621
  643MOL0     H86789  11.176   7.184   1.684  0.2483  1.1333 -0.9688
  643MOL0     H86790  10.930   7.256   1.675  2.1466  0.0871 -2.4684
  643MOL0     H86791  10.549   7.237   1.702  0.1235 -3.2411  2.0921
  643MOL0     H86792  10.333   7.304   1.741 -1.2659 -0.8430  1.2257
  643MOL0     H86793  10.039   7.224   1.846  1.7458  0.8853 -0.5044
  643MOL0     H86794  10.102   7.073   1.807  0.1089  0.8498  0.3908
  643MOL0     H86795   9.848   7.053   1.840 -3.4839  0.1157 -1.5791
  643MOL0     H86796   9.918   6.999   1.687  0.9008 -0.2211 -0.4539
  643MOL0     H86797   9.838   7.239   1.604  1.4410 -0.4863  1.3046
  643MOL0     H86798   9.784   7.270   1.772  1.7773 -0.0941  0.2849
  643MOL0     H86799   9.593   7.148   1.757  1.1997  0.6608  0.1325
  643MOL0     H86800   9.616   7.207   1.594  1.4565 -0.8760 -1.6722
  643MOL0     H86801   9.716   6.798   1.533  0.0179 -0.6046  0.0870
  643MOL0     H86802  10.174   6.994   1.482  0.5273  0.2035 -0.7771
  643MOL0     H86803  10.454   6.814   1.448 -2.8144 -0.6231  3.0178
  643MOL0     H86804  10.312   6.860   1.359  0.5516  0.3969  1.0650
  643MOL0     H86805  10.457   6.920   1.298  1.4094 -1.2887  0.3033
  644MOL0     O86806   6.533   7.903   7.459  0.3495  0.5326 -0.0766
  644MOL0     C86807   6.488   7.908   7.348  0.1018  0.6568 -0.0408
  644MOL0     O86808   6.571   7.907   7.234 -0.8690  0.4330  0.3762
  644MOL0     C86809   6.705   7.866   7.263 -0.7204 -1.0954 -0.0951
  644MOL0     C86810   6.747   7.741   7.306  0.5598  0.5272  0.4335
  644MOL0     C86811   6.882   7.705   7.339  0.6388 -0.2765  0.2303
  644MOL0     C86812   6.982   7.801   7.328  0.0889 -0.2783  0.4324
  644MOL0     O86813   7.119   7.786   7.354 -0.1391 -0.0736 -0.2234
  644MOL0     C86814   7.171   7.658   7.399  0.5573  0.6375 -0.1857
  644MOL0     C86815   7.319   7.678   7.432 -0.0313 -0.4243  0.1663
  644MOL0     C86816   7.391   7.552   7.483  0.3869  0.4167  0.5902
  644MOL0     C86817   7.531   7.579   7.538  0.3646  0.1611  0.4314
  644MOL0     C86818   7.626   7.618   7.424 -0.2859 -0.0456  0.2885
  644MOL0     C86819   7.762   7.635   7.473 -0.4087 -0.0215  0.1208
  644MOL0     C86820   7.847   7.510   7.505  0.2122  0.7449  0.0781
  644MOL0     C86821   7.960   7.531   7.609  0.0925  1.0256  0.2808
  644MOL0     N86822   8.043   7.412   7.619  0.0888 -0.5844  0.3390
  644MOL0     C86823   8.138   7.381   7.529  0.1381 -0.1291 -0.1772
  644MOL0     C86824   8.212   7.281   7.588 -0.3171  0.0997 -1.0929
  644MOL0     C86825   8.320   7.201   7.534 -1.3048  0.4730  0.0092
  644MOL0     C86826   8.439   7.162   7.623  0.4405  0.1079 -0.1464
  644MOL0     C86827   8.490   7.295   7.692  0.5042  0.5496 -0.1404
  644MOL0     C86828   8.598   7.350   7.610  0.3059 -0.4712 -0.1220
  644MOL0     O86829   8.603   7.491   7.645 -0.3467 -0.3400  0.3753
  644MOL0     C86830   8.698   7.570   7.586 -0.2312  0.9074 -0.1091
  644MOL0     C86831   8.812   7.509   7.527 -0.5875  0.1094  0.7316
  644MOL0     C86832   8.920   7.597   7.481 -0.2836 -0.4698 -0.5301
  644MOL0     C86833   8.903   7.745   7.482  0.2409 -0.0263  0.2323
  644MOL0     C86834   9.020   7.836   7.429  0.4070 -0.4191  0.3998
  644MOL0     O86835   9.127   7.776   7.365  0.0331 -0.4318 -0.8300
  644MOL0     C86836   9.235   7.858   7.331 -0.0174  0.2240 -0.6278
  644MOL0     C86837   9.225   7.991   7.284  0.1851 -0.0639 -0.5203
  644MOL0     C86838   9.343   8.070   7.248  1.1057 -0.8581 -0.7635
  644MOL0     C86839   9.467   8.023   7.272 -0.1727 -0.5145  0.5182
  644MOL0     O86840   9.575   8.111   7.261  0.3216  0.3123 -0.0459
  644MOL0     C86841   9.706   8.065   7.295  1.0112  0.0162  0.2037
  644MOL0     C86842   9.762   7.970   7.193  0.5686  0.0883  0.1138
  644MOL0     C86843   9.914   7.969   7.212  0.4737 -0.0361 -0.4513
  644MOL0     C86844   9.994   7.897   7.103  0.5120 -0.2909  0.2375
  644MOL0     C86845  10.141   7.908   7.117 -0.1775 -0.6140 -0.2245
  644MOL0     C86846  10.204   7.791   7.202 -0.1666  0.7052 -0.1468
  644MOL0     C86847  10.345   7.822   7.234 -0.5390 -1.0701 -0.1588
  644MOL0     C86848  10.425   7.706   7.297 -0.6209 -0.0498 -0.5792
  644MOL0    Cl86849  10.601   7.748   7.334 -0.0336  0.3932 -0.0608
  644MOL0     C86850   9.478   7.887   7.309 -0.1834 -0.0025 -0.0902
  644MOL0     C86851   9.370   7.799   7.333 -0.9192 -0.1561  0.1078
  644MOL0     O86852   9.003   7.955   7.456  0.2304  0.0809  0.0027
  644MOL0     C86853   8.781   7.797   7.537  0.0913  0.3137 -0.6935
  644MOL0     C86854   8.689   7.704   7.586  0.7379 -0.7017  0.2943
  644MOL0     N86855   8.170   7.274   7.723  0.8136  0.0848  0.3947
  644MOL0     N86856   8.068   7.350   7.738 -1.4776  0.5408 -0.1886
  644MOL0     C86857   6.944   7.927   7.280 -0.2966 -0.6836 -0.6947
  644MOL0     C86858   6.812   7.961   7.250  0.2299 -0.3507  0.7015
  644MOL0     C86859   6.340   7.915   7.310 -0.4736  0.6796  0.2988
  644MOL0     C86860   6.297   7.845   7.194 -0.1853  0.5954 -0.6128
  644MOL0     C86861   6.166   7.838   7.163  0.8077 -0.3282  0.4570
  644MOL0     C86862   6.069   7.900   7.240 -0.2268 -0.2776 -0.1835
  644MOL0     O86863   5.930   7.895   7.206  0.0602 -0.6790  0.4731
  644MOL0     C86864   5.894   7.832   7.088  0.6591  0.0152  0.9769
  644MOL0     C86865   5.742   7.830   7.081  0.8349 -0.2041  0.3618
  644MOL0     C86866   5.687   7.975   7.090 -0.0142 -0.4263 -0.2311
  644MOL0     C86867   5.545   7.980   7.126  0.7810 -0.1224  0.4574
  644MOL0     C86868   5.510   7.937   7.263 -0.1897 -0.8886 -0.8292
  644MOL0     C86869   5.489   7.908   7.379  0.2914 -0.1583  0.2830
  644MOL0     C86870   6.114   7.971   7.351  0.6200  0.1486  0.2071
  644MOL0     C86871   6.246   7.979   7.388  0.5168 -0.0678 -0.7476
  644MOL0     C86872   6.292   8.080   7.489  0.0963  0.6451  0.8278
  644MOL0     H86873   6.680   7.655   7.308  1.9819 -0.6112  0.8933
  644MOL0     H86874   6.905   7.600   7.355 -0.6801 -0.3012  2.4901
  644MOL0     H86875   7.126   7.620   7.491 -2.7579  0.4988 -1.6948
  644MOL0     H86876   7.167   7.574   7.329  2.8453  1.4622 -1.4095
  644MOL0     H86877   7.344   7.763   7.497 -0.6815  1.7987 -2.2986
  644MOL0     H86878   7.363   7.703   7.335 -0.8437  1.5138  0.2396
  644MOL0     H86879   7.402   7.477   7.404  1.7701 -0.3855  1.5142
  644MOL0     H86880   7.321   7.516   7.559 -2.2843  0.6910 -1.5901
  644MOL0     H86881   7.532   7.655   7.617 -0.4934 -1.1573  1.7805
  644MOL0     H86882   7.565   7.488   7.590 -0.6352  0.8342  2.3767
  644MOL0     H86883   7.627   7.541   7.347 -0.4331  0.0767  0.1624
  644MOL0     H86884   7.598   7.716   7.384  0.8633  1.2459  2.4774
  644MOL0     H86885   7.824   7.700   7.410  0.8410 -0.0259  1.2912
  644MOL0     H86886   7.753   7.693   7.565 -0.1246  3.1053 -1.6687
  644MOL0     H86887   7.886   7.473   7.411 -0.1682  0.8525 -0.1262
  644MOL0     H86888   7.787   7.433   7.556  3.1243 -0.8784  1.2782
  644MOL0     H86889   8.025   7.604   7.560  2.5498 -2.9253 -3.0021
  644MOL0     H86890   7.926   7.572   7.704  0.7869 -0.9667  1.4353
  644MOL0     H86891   8.159   7.423   7.432 -0.7091  3.3978  1.0213
  644MOL0     H86892   8.277   7.104   7.506 -0.4315 -0.4105  1.5768
  644MOL0     H86893   8.354   7.259   7.448 -0.7497 -1.8936 -1.4558
  644MOL0     H86894   8.408   7.094   7.702 -0.6909 -1.2546 -1.6986
  644MOL0     H86895   8.514   7.110   7.563 -1.9961 -1.4117 -2.0385
  644MOL0     H86896   8.514   7.280   7.798 -0.7476  0.8172  0.1978
  644MOL0     H86897   8.410   7.370   7.698  0.3916  0.3552  0.9709
  644MOL0     H86898   8.568   7.352   7.505  0.4614  3.1580 -0.2299
  644MOL0     H86899   8.689   7.290   7.624  0.1388 -0.3722  1.6580
  644MOL0     H86900   8.833   7.403   7.532 -1.3026 -0.2149 -1.6369
  644MOL0     H86901   9.008   7.552   7.436  0.6548 -0.7474  1.4464
  644MOL0     H86902   9.124   8.025   7.262  0.7995  1.4825 -1.0644
  644MOL0     H86903   9.329   8.173   7.218  0.0737 -0.2826  1.5098
  644MOL0     H86904   9.777   8.147   7.305  0.2541  0.7861 -0.5631
  644MOL0     H86905   9.697   8.022   7.396  0.1672  2.1304  1.0806
  644MOL0     H86906   9.730   7.865   7.204  1.4099 -0.4633 -2.1740
  644MOL0     H86907   9.722   7.999   7.095  0.3396 -1.4349 -0.2685
  644MOL0     H86908   9.940   8.074   7.196 -2.1186  0.5265 -1.4515
  644MOL0     H86909   9.935   7.940   7.316 -0.3660  0.9362  0.0107
  644MOL0     H86910   9.970   7.952   7.012  2.5771  2.7539  1.3708
  644MOL0     H86911   9.972   7.790   7.097  1.9237 -0.6377  0.9079
  644MOL0     H86912  10.169   8.005   7.158 -3.7754 -0.1292  1.5360
  644MOL0     H86913  10.184   7.908   7.017  2.2410  1.1936  0.7209
  644MOL0     H86914  10.153   7.791   7.299 -0.1168  0.8625 -0.1202
  644MOL0     H86915  10.200   7.697   7.146 -1.0180  0.2216  0.6908
  644MOL0     H86916  10.344   7.902   7.309 -2.8554  0.2545 -1.5025
  644MOL0     H86917  10.393   7.861   7.144  1.5501 -0.8172  0.9927
  644MOL0     H86918  10.377   7.669   7.389 -1.6120 -0.4283 -1.2324
  644MOL0     H86919  10.436   7.634   7.215  0.8745 -0.3528 -0.1440
  644MOL0     H86920   9.574   7.845   7.336 -0.4234 -0.0299  0.7697
  644MOL0     H86921   9.391   7.699   7.372  0.7400  0.1202  0.0193
  644MOL0     H86922   8.757   7.903   7.548  2.0379  0.7337 -0.1453
  644MOL0     H86923   8.597   7.746   7.625  1.0462  0.7649 -0.4811
  644MOL0     H86924   7.028   7.994   7.264 -1.6122  1.3098  0.3381
  644MOL0     H86925   6.795   8.052   7.193  0.9837 -1.8648 -2.1802
  644MOL0     H86926   6.377   7.794   7.142  0.8287 -0.3142  1.6643
  644MOL0     H86927   6.142   7.779   7.075  1.8005 -0.6598  0.3860
  644MOL0     H86928   5.929   7.729   7.084 -0.0792 -0.2246 -3.0149
  644MOL0     H86929   5.931   7.885   7.000 -1.4772 -1.1537 -0.7483
  644MOL0     H86930   5.710   7.771   7.167  0.3691 -0.3533  0.0953
  644MOL0     H86931   5.700   7.791   6.988 -0.3506  0.7276  0.4792
  644MOL0     H86932   5.696   8.031   6.997  1.5482  0.8913  0.6628
  644MOL0     H86933   5.751   8.035   7.155  1.6747 -0.9053 -1.3786
  644MOL0     H86934   5.504   8.080   7.113  0.4208 -0.3694 -0.3624
  644MOL0     H86935   5.498   7.916   7.050 -0.3201  0.5833  0.5144
  644MOL0     H86936   5.488   7.889   7.485 -0.2824  0.2448  0.3575
  644MOL0     H86937   6.044   8.031   7.406  2.7738  1.5319  1.5961
  644MOL0     H86938   6.365   8.153   7.453  3.5947 -2.5541  0.7968
  644MOL0     H86939   6.208   8.131   7.536  0.2175  0.8765  0.7935
  644MOL0     H86940   6.332   8.024   7.575  0.6238 -3.2279 -1.6949
  645MOL0     O86941   0.773  10.295   6.294 -0.6350  0.9521  0.5605
  645MOL0     C86942   0.762  10.405   6.336 -0.0012 -0.5256 -0.2376
  645MOL0     O86943   0.861  10.499   6.345  0.2368 -0.1623  0.2964
  645MOL0     C86944   0.985  10.468   6.289 -0.2748 -0.6187  0.0728
  645MOL0     C86945   1.017  10.537   6.171 -0.1414 -0.1001 -0.8467
  645MOL0     C86946   1.139  10.507   6.105 -0.7306  0.0030 -0.1293
  645MOL0     C86947   1.237  10.420   6.158 -0.1939 -0.3411 -0.0615
  645MOL0     O86948   1.362  10.404   6.092 -0.2743 -0.5796  0.1520
  645MOL0     C86949   1.364  10.344   5.961 -0.5345  0.3145  0.0099
  645MOL0     C86950   1.506  10.295   5.931  0.5819 -0.0130 -0.4524
  645MOL0     C86951   1.612  10.406   5.916  0.9223 -0.7429 -1.0247
  645MOL0     C86952   1.749  10.349   5.886 -0.0855 -0.1546 -0.5840
  645MOL0     C86953   1.860  10.452   5.905  0.8572  0.9955 -0.4777
  645MOL0     C86954   1.987  10.372   5.858 -0.3994  0.3223 -0.0164
  645MOL0     C86955   2.116  10.449   5.891 -0.3001 -0.9841  0.2758
  645MOL0     C86956   2.227  10.346   5.886  0.1204  0.4059 -0.4992
  645MOL0     N86957   2.364  10.392   5.884  0.2602 -0.4091 -1.0089
  645MOL0     C86958   2.466  10.332   5.945 -0.4296 -0.0349  0.5835
  645MOL0     C86959   2.575  10.397   5.904 -0.3841  0.2146  0.8306
  645MOL0     C86960   2.713  10.365   5.956  1.1125  0.1544 -0.2613
  645MOL0     C86961   2.743  10.213   5.956 -0.9649  0.3968 -0.4556
  645MOL0     C86962   2.893  10.177   5.963  0.2242  0.1888 -0.2588
  645MOL0     C86963   2.971  10.190   5.831  0.0026  0.4069  0.7619
  645MOL0     O86964   2.912  10.130   5.719  0.6979  0.1904 -0.3728
  645MOL0     C86965   2.892   9.994   5.704 -0.3403 -0.9078 -0.2220
  645MOL0     C86966   2.832   9.963   5.577 -0.1433 -1.1398 -1.3856
  645MOL0     C86967   2.825   9.829   5.528  0.2551  0.1689 -0.0986
  645MOL0     C86968   2.886   9.736   5.612 -0.3418  0.9503  0.2358
  645MOL0     C86969   2.880   9.599   5.561  0.6702  1.3504  0.0413
  645MOL0     O86970   2.786   9.571   5.463 -0.6229 -0.3585 -0.2883
  645MOL0     C86971   2.761   9.441   5.431  0.1726 -0.1972  0.2302
  645MOL0     C86972   2.840   9.369   5.334  0.8670 -0.1820  0.7705
  645MOL0     C86973   2.813   9.234   5.301  0.0819 -0.1418 -1.4914
  645MOL0     C86974   2.716   9.170   5.379  0.7753 -0.0120 -0.3914
  645MOL0     O86975   2.667   9.048   5.340 -0.3108 -0.1915  0.3717
  645MOL0     C86976   2.619   9.033   5.208  0.2814  0.0014  0.3065
  645MOL0     C86977   2.472   9.084   5.215 -0.5999  0.1483  0.5880
  645MOL0     C86978   2.373   8.970   5.258  0.8688  0.0743 -0.0552
  645MOL0     C86979   2.375   8.964   5.413  0.5399  0.4647 -0.4119
  645MOL0     C86980   2.279   9.067   5.475 -0.8582  0.1699 -1.1166
  645MOL0     C86981   2.278   9.068   5.623  0.1015  0.2895 -0.1495
  645MOL0     C86982   2.170   9.168   5.673 -0.0024 -0.0916  0.5716
  645MOL0     C86983   2.192   9.309   5.623  0.6409 -0.3526 -0.3780
  645MOL0    Cl86984   2.092   9.404   5.734  0.0670 -0.1481  0.5789
  645MOL0     C86985   2.634   9.241   5.470 -0.5029 -1.2121  0.0784
  645MOL0     C86986   2.662   9.379   5.500  1.2162 -0.0636  0.4672
  645MOL0     O86987   2.947   9.517   5.615  0.0343  0.6294  0.4738
  645MOL0     C86988   2.944   9.765   5.742 -0.6254  0.3188  0.1234
  645MOL0     C86989   2.957   9.893   5.781 -0.3074 -0.2439 -0.0013
  645MOL0     N86990   2.541  10.501   5.821  0.7595  0.1348  0.2815
  645MOL0     N86991   2.409  10.505   5.814  0.3342  0.4123  0.0756
  645MOL0     C86992   1.206  10.358   6.282 -0.0278 -0.9806 -0.1141
  645MOL0     C86993   1.073  10.370   6.335 -0.1127  0.5553 -0.7024
  645MOL0     C86994   0.641  10.443   6.411 -0.5646 -0.1642 -0.1312
  645MOL0     C86995   0.637  10.560   6.501 -0.0293  0.2412  0.5038
  645MOL0     C86996   0.521  10.593   6.583 -0.5150  0.4377  0.0948
  645MOL0     C86997   0.404  10.515   6.572  1.1283 -0.8201  0.1859
  645MOL0     O86998   0.286  10.538   6.636  0.4925  0.0293 -0.0670
  645MOL0     C86999   0.282  10.631   6.742 -1.6268  0.1133 -0.2732
  645MOL0     C87000   0.152  10.599   6.819 -0.2825  0.0551  0.1389
  645MOL0     C87001   0.023  10.600   6.727 -0.8914  1.0251  0.1734
  645MOL0     C87002   0.003  10.728   6.640  0.4779 -0.6131 -0.1611
  645MOL0     C87003   0.012  10.850   6.725  0.0451 -0.4067  0.3300
  645MOL0     C87004   0.017  10.944   6.809  0.1956  0.2116 -0.5809
  645MOL0     C87005   0.398  10.414   6.475 -0.7858 -0.0507 -0.0700
  645MOL0     C87006   0.513  10.372   6.401  0.6313 -0.2188 -1.0536
  645MOL0     C87007   0.504  10.240   6.325 -0.3275 -0.0929  0.1838
  645MOL0     H87008   0.942  10.606   6.134  0.4537  0.3847 -1.1668
  645MOL0     H87009   1.156  10.555   6.009  1.7883 -2.2487 -0.9164
  645MOL0     H87010   1.288  10.265   5.958 -0.5698  0.1562  2.5275
  645MOL0     H87011   1.347  10.424   5.888 -0.7080 -0.1173 -0.4291
  645MOL0     H87012   1.500  10.222   5.850 -0.1538  2.6762 -2.9751
  645MOL0     H87013   1.543  10.237   6.016 -2.5798  2.6083  3.0288
  645MOL0     H87014   1.610  10.478   5.998 -0.4284  0.3591 -1.9686
  645MOL0     H87015   1.582  10.471   5.834  2.3469 -0.1679 -1.1098
  645MOL0     H87016   1.770  10.254   5.937 -0.3206 -1.7211 -3.2134
  645MOL0     H87017   1.737  10.330   5.779  1.9577  0.9849 -1.0621
  645MOL0     H87018   1.843  10.537   5.838  1.2683  0.2766 -1.5146
  645MOL0     H87019   1.864  10.496   6.005  0.0575  2.0025 -0.8645
  645MOL0     H87020   2.000  10.286   5.925 -2.3705  0.0221  0.0558
  645MOL0     H87021   1.972  10.350   5.753 -1.0496 -0.6268  0.2674
  645MOL0     H87022   2.111  10.496   5.990 -1.9429 -0.9498  0.2090
  645MOL0     H87023   2.141  10.526   5.817 -0.5636  0.8020  1.9678
  645MOL0     H87024   2.217  10.284   5.975 -0.5426  1.2583  0.0493
  645MOL0     H87025   2.203  10.288   5.796  0.0670 -0.3788  0.0179
  645MOL0     H87026   2.462  10.249   6.015 -0.1022 -0.9526 -0.4791
  645MOL0     H87027   2.791  10.425   5.909  1.4556  0.8925  1.1760
  645MOL0     H87028   2.703  10.396   6.061 -0.9260 -2.6224  0.4961
  645MOL0     H87029   2.704  10.170   6.049  0.3147  1.3270  0.5442
  645MOL0     H87030   2.700  10.167   5.866  1.4273 -0.5708 -1.1970
  645MOL0     H87031   2.911  10.075   5.998  2.9386 -1.0049 -4.3737
  645MOL0     H87032   2.934  10.255   6.027 -0.4926  2.8139 -2.7719
  645MOL0     H87033   3.072  10.148   5.842  0.1752  0.7342  0.4476
  645MOL0     H87034   2.977  10.298   5.816  0.4885  0.2376 -0.3881
  645MOL0     H87035   2.815  10.040   5.502  0.9744 -0.9090 -1.4211
  645MOL0     H87036   2.787   9.809   5.429 -0.4472 -1.5940  0.4900
  645MOL0     H87037   2.917   9.424   5.280 -0.4682  0.3655 -0.6345
  645MOL0     H87038   2.872   9.180   5.227  1.5877 -2.1679  0.9938
  645MOL0     H87039   2.686   9.067   5.128 -0.0564 -0.4935 -0.1914
  645MOL0     H87040   2.621   8.927   5.180  6.9887 -0.3556  0.6436
  645MOL0     H87041   2.462   9.185   5.255 -0.8577  0.4737 -0.2780
  645MOL0     H87042   2.439   9.096   5.112 -0.5838  0.1831  0.5874
  645MOL0     H87043   2.274   8.990   5.217  1.2490  0.0187 -1.0232
  645MOL0     H87044   2.395   8.876   5.207  0.4876  0.2060 -0.4627
  645MOL0     H87045   2.476   8.972   5.454  0.8574 -1.3659 -0.7747
  645MOL0     H87046   2.357   8.862   5.450  1.5093  0.5081  0.2411
  645MOL0     H87047   2.175   9.046   5.447 -2.1677  1.8063  1.9951
  645MOL0     H87048   2.301   9.168   5.439 -1.7817  0.3088 -1.3257
  645MOL0     H87049   2.251   8.972   5.669  0.5619  0.3776  0.3192
  645MOL0     H87050   2.376   9.098   5.662 -0.2070  0.5098  0.4733
  645MOL0     H87051   2.170   9.173   5.782  2.0580  0.7021  0.5823
  645MOL0     H87052   2.077   9.125   5.633  0.7878 -3.2654  1.9201
  645MOL0     H87053   2.297   9.338   5.630  0.7572 -0.9395  0.4163
  645MOL0     H87054   2.156   9.316   5.520  1.9849 -0.4014 -0.8644
  645MOL0     H87055   2.545   9.206   5.521 -1.6602  2.3099  0.7496
  645MOL0     H87056   2.598   9.444   5.559 -1.0812 -0.4293 -1.4976
  645MOL0     H87057   2.974   9.692   5.816 -1.5706  0.6719  0.8720
  645MOL0     H87058   3.013   9.919   5.871 -0.6759 -0.5386  0.3208
  645MOL0     H87059   1.281  10.291   6.323  1.3331  2.0060  2.7600
  645MOL0     H87060   1.042  10.306   6.417  0.0213 -0.0538 -1.1204
  645MOL0     H87061   0.731  10.615   6.499  1.4501 -2.0941 -2.1974
  645MOL0     H87062   0.526  10.677   6.652 -0.7300  0.2455  0.3466
  645MOL0     H87063   0.287  10.733   6.706  0.6964  2.1225  4.7137
  645MOL0     H87064   0.371  10.612   6.803 -1.1885 -0.4902 -1.0774
  645MOL0     H87065   0.143  10.668   6.904 -0.7442  0.6308 -0.3631
  645MOL0     H87066   0.158  10.497   6.857 -2.1903 -0.7015 -1.4236
  645MOL0     H87067  -0.060  10.583   6.796 -1.2101 -1.0860 -0.6574
  645MOL0     H87068   0.027  10.515   6.659 -2.4244  0.8163  0.3040
  645MOL0     H87069   0.071  10.745   6.556  0.2169  2.4934  0.1534
  645MOL0     H87070  -0.091  10.727   6.583  1.8664  1.5849 -2.7007
  645MOL0     H87071   0.029  11.025   6.877  2.1496  1.5339 -2.3725
  645MOL0     H87072   0.307  10.358   6.460 -0.3175 -0.9898  0.4962
  645MOL0     H87073   0.543  10.250   6.223 -1.1421  2.1060  0.0390
  645MOL0     H87074   0.550  10.158   6.381  0.1389  1.0043  1.4799
  645MOL0     H87075   0.399  10.210   6.318  0.5354 -3.1390 -1.5463
  646MOL0     O87076  10.009  10.200   2.653 -0.3643 -0.2834 -0.2457
  646MOL0     C87077   9.950  10.130   2.574  1.1451  0.0507  0.0750
  646MOL0     O87078  10.004  10.052   2.478  0.1653  0.2607 -0.6322
  646MOL0     C87079  10.140  10.060   2.453  0.2580  0.6305  0.8529
  646MOL0     C87080  10.212   9.944   2.452  0.6959 -0.0520 -0.2423
  646MOL0     C87081  10.346   9.952   2.405 -0.3711 -0.7140  0.1248
  646MOL0     C87082  10.408  10.077   2.381  0.4389  0.9986 -0.0449
  646MOL0     O87083  10.538  10.072   2.343  0.7541 -0.7502 -0.0058
  646MOL0     C87084  10.543  10.121   2.206  0.0959  0.0711 -0.3884
  646MOL0     C87085  10.691  10.109   2.166 -0.1439  0.6838 -1.1690
  646MOL0     C87086  10.723  10.127   2.017 -0.4915 -0.2788  0.3648
  646MOL0     C87087  10.877  10.125   1.988 -0.0315  0.1943 -0.1025
  646MOL0     C87088  10.924  10.182   1.855  0.3215 -0.1664 -0.1466
  646MOL0     C87089  11.066  10.146   1.839  0.0553 -0.4095  0.7874
  646MOL0     C87090  11.112  10.191   1.705 -0.7064 -0.2171 -0.2703
  646MOL0     C87091  11.260  10.174   1.688 -1.5690  0.1613 -0.4052
  646MOL0     N87092  11.341  10.289   1.750 -0.2352  0.8150  0.1610
  646MOL0     C87093  11.387  10.401   1.676  0.6600  0.2538  0.1011
  646MOL0     C87094  11.490  10.453   1.750 -0.5840  0.3128  0.2089
  646MOL0     C87095  11.585  10.564   1.714 -0.5215  0.2470  0.4128
  646MOL0     C87096  11.726  10.500   1.682 -0.6075 -0.9507  0.0201
  646MOL0     C87097  11.834  10.600   1.625  0.4601  0.1167  0.1253
  646MOL0     C87098  11.842  10.605   1.471 -0.4862 -0.1986 -0.2981
  646MOL0     O87099  11.970  10.663   1.435 -0.8399 -0.5621  0.1152
  646MOL0     C87100  11.978  10.801   1.432  0.0902 -0.3788  0.2415
  646MOL0     C87101  11.865  10.888   1.412 -0.3679  0.7101 -0.2986
  646MOL0     C87102  11.876  11.025   1.414  0.3533 -0.2270 -0.4613
  646MOL0     C87103  11.992  11.097   1.447  0.3962  0.4655  0.5034
  646MOL0     C87104  12.005  11.240   1.471  0.1916 -0.8464  0.4565
  646MOL0     O87105  12.132  11.283   1.508  0.2279  0.7462  0.8198
  646MOL0     C87106  12.151  11.421   1.522 -0.0072  0.3309 -0.7243
  646MOL0     C87107  12.156  11.499   1.416  0.1339 -0.2801 -0.3575
  646MOL0     C87108  12.187  11.634   1.426 -0.0561  0.4633 -0.1791
  646MOL0     C87109  12.204  11.701   1.543 -0.3971  0.2163  0.2639
  646MOL0     O87110  12.219  11.833   1.545  0.0170 -0.1623  0.3044
  646MOL0     C87111  12.224  11.904   1.665  0.1206  0.0253 -0.5889
  646MOL0     C87112  12.247  12.048   1.619 -0.3265  0.1682  0.2454
  646MOL0     C87113  12.114  12.098   1.561  0.9647 -0.1925  0.2458
  646MOL0     C87114  12.059  12.209   1.650 -0.0764  0.1045 -0.4328
  646MOL0     C87115  11.926  12.267   1.607 -0.0849 -0.3011  0.0550
  646MOL0     C87116  11.818  12.158   1.574  0.3364  0.7901 -0.4276
  646MOL0     C87117  11.682  12.225   1.564  0.0475  0.6729 -0.3275
  646MOL0     C87118  11.573  12.127   1.592 -0.3988 -0.0286 -0.2751
  646MOL0    Cl87119  11.596  11.977   1.488 -0.1920 -0.0756 -0.2757
  646MOL0     C87120  12.202  11.616   1.659  0.9403  0.2969 -0.4817
  646MOL0     C87121  12.179  11.477   1.645 -0.4779 -1.6963 -0.3695
  646MOL0     O87122  11.906  11.317   1.457 -0.1759 -0.1826  0.1920
  646MOL0     C87123  12.107  11.006   1.455 -0.2796 -0.2068  1.3295
  646MOL0     C87124  12.099  10.865   1.447 -0.8102  0.2347 -0.1567
  646MOL0     N87125  11.504  10.374   1.863 -0.3117  0.5485 -0.1783
  646MOL0     N87126  11.412  10.281   1.866 -0.5657  0.3147  0.1791
  646MOL0     C87127  10.335  10.193   2.404  0.2230 -0.2037  1.0403
  646MOL0     C87128  10.202  10.181   2.441  0.2430  0.0524 -0.3380
  646MOL0     C87129   9.802  10.128   2.571  0.7719  0.6498  0.2984
  646MOL0     C87130   9.728  10.074   2.458  0.2322  0.9339  0.6280
  646MOL0     C87131   9.589  10.084   2.444 -0.2766 -0.0768  0.0721
  646MOL0     C87132   9.512  10.152   2.542  0.3605 -0.0032  0.9785
  646MOL0     O87133   9.378  10.163   2.541 -0.8321 -0.3325  0.8366
  646MOL0     C87134   9.307  10.288   2.560  0.0263  0.2959 -0.2152
  646MOL0     C87135   9.162  10.275   2.513 -1.0653 -0.0101 -0.1874
  646MOL0     C87136   9.074  10.192   2.599  0.7032 -0.1807  0.4276
  646MOL0     C87137   9.022  10.252   2.726  1.3280  0.5763 -0.1020
  646MOL0     C87138   8.971  10.147   2.815  0.0793 -0.0749  0.1149
  646MOL0     C87139   8.924  10.058   2.880 -0.8982  0.0417 -0.6173
  646MOL0     C87140   9.576  10.198   2.658  0.5174 -0.2495 -0.3629
  646MOL0     C87141   9.722  10.193   2.674  0.9252 -0.5863  0.3914
  646MOL0     C87142   9.768  10.235   2.816 -0.3761 -0.4077  1.2748
  646MOL0     H87143  10.173   9.843   2.462  1.8609 -0.4081  1.0248
  646MOL0     H87144  10.414   9.868   2.400  2.1180  1.1829 -0.0995
  646MOL0     H87145  10.489  10.055   2.138 -0.1926 -1.0071  0.8483
  646MOL0     H87146  10.504  10.223   2.197  0.4221  0.1463 -0.9775
  646MOL0     H87147  10.728  10.010   2.196  2.1473  1.5552 -0.8683
  646MOL0     H87148  10.748  10.184   2.222 -3.6033  3.2987 -0.8579
  646MOL0     H87149  10.684  10.223   1.983  0.8182  1.4851  3.4190
  646MOL0     H87150  10.673  10.059   1.948 -1.0881  2.8534 -2.5472
  646MOL0     H87151  10.930  10.181   2.066 -2.5920  1.9523  0.5036
  646MOL0     H87152  10.907  10.020   1.984 -3.3527 -0.9443  1.4044
  646MOL0     H87153  10.870  10.132   1.774 -0.0767 -2.3644  1.4077
  646MOL0     H87154  10.903  10.290   1.860  0.4963 -0.1570  0.5616
  646MOL0     H87155  11.122  10.201   1.915  2.9685 -0.5220 -1.1315
  646MOL0     H87156  11.077  10.037   1.846  1.3379 -0.1785  4.2714
  646MOL0     H87157  11.081  10.295   1.691 -1.2737 -0.0488  1.8730
  646MOL0     H87158  11.053  10.136   1.631 -2.5874  1.8738 -0.4228
  646MOL0     H87159  11.292  10.079   1.734 -0.5569  0.3666 -0.6541
  646MOL0     H87160  11.274  10.154   1.581 -0.6775 -0.2291 -0.2339
  646MOL0     H87161  11.352  10.452   1.586  0.9225  1.3558  0.6032
  646MOL0     H87162  11.533  10.621   1.636 -2.6975 -0.5805  1.1746
  646MOL0     H87163  11.591  10.641   1.790  1.2287 -2.0047  2.7315
  646MOL0     H87164  11.764  10.456   1.775 -0.6965 -0.0858  0.4719
  646MOL0     H87165  11.701  10.420   1.611 -2.5340 -0.0699 -0.3593
  646MOL0     H87166  11.930  10.563   1.661 -0.0489 -0.1497  1.2484
  646MOL0     H87167  11.826  10.706   1.650  1.5013  0.6372 -1.6093
  646MOL0     H87168  11.761  10.651   1.415  0.5591 -1.0627 -2.6280
  646MOL0     H87169  11.846  10.499   1.442  0.9439  0.3317 -2.2089
  646MOL0     H87170  11.766  10.844   1.400 -0.5755  0.7186  1.2655
  646MOL0     H87171  11.780  11.075   1.408 -1.0548 -2.5018  1.3862
  646MOL0     H87172  12.142  11.450   1.320  0.3524  1.8901 -1.5560
  646MOL0     H87173  12.193  11.683   1.329  0.2071  0.1230 -0.3338
  646MOL0     H87174  12.141  11.889   1.734  0.6517  1.6785  0.4908
  646MOL0     H87175  12.313  11.865   1.716  0.7859 -0.8094 -2.2971
  646MOL0     H87176  12.279  12.113   1.701 -0.5281 -1.7220  1.9097
  646MOL0     H87177  12.332  12.038   1.552 -0.3098 -1.1384  0.4314
  646MOL0     H87178  12.127  12.139   1.460 -2.5975  4.1025  1.2035
  646MOL0     H87179  12.041  12.019   1.545 -0.3511  1.1021 -0.3274
  646MOL0     H87180  12.129  12.292   1.663 -1.3273  0.8084  2.8819
  646MOL0     H87181  12.048  12.170   1.752  0.3293  1.9392  0.3563
  646MOL0     H87182  11.949  12.328   1.519  1.6863 -0.7357  0.1859
  646MOL0     H87183  11.894  12.322   1.696 -0.3402  0.4730 -0.5030
  646MOL0     H87184  11.839  12.106   1.480 -2.1574 -0.2674 -0.4751
  646MOL0     H87185  11.807  12.090   1.659 -1.9511  0.0080 -1.2489
  646MOL0     H87186  11.674  12.245   1.456  0.3119  0.7067 -0.3412
  646MOL0     H87187  11.672  12.313   1.628 -0.6118  0.5820 -0.2941
  646MOL0     H87188  11.579  12.103   1.698 -2.4142  1.6466  0.2851
  646MOL0     H87189  11.477  12.171   1.562  1.9530  3.2536 -4.1111
  646MOL0     H87190  12.210  11.649   1.762 -2.0046  0.6688 -0.2793
  646MOL0     H87191  12.169  11.421   1.738  0.8304 -0.4376  0.5877
  646MOL0     H87192  12.210  11.031   1.478 -0.3367  2.3306 -0.7491
  646MOL0     H87193  12.187  10.803   1.466 -0.9199 -0.4971 -1.8531
  646MOL0     H87194  10.389  10.284   2.381 -0.4193 -0.0383  0.1269
  646MOL0     H87195  10.134  10.266   2.451 -0.7130 -0.6188 -0.9958
  646MOL0     H87196   9.784  10.014   2.387 -2.3613 -0.3780 -0.4514
  646MOL0     H87197   9.527  10.043   2.365 -0.6611  2.3480 -0.9963
  646MOL0     H87198   9.358  10.366   2.502 -0.6276 -0.8930 -2.4758
  646MOL0     H87199   9.322  10.308   2.667  1.6976 -2.0438  0.0686
  646MOL0     H87200   9.165  10.232   2.413 -1.3187 -1.6072  0.4589
  646MOL0     H87201   9.137  10.382   2.504  3.1485  0.9651 -3.1005
  646MOL0     H87202   9.131  10.100   2.616  3.0526  0.6468 -2.0870
  646MOL0     H87203   8.994  10.159   2.533 -1.9610  1.1018  2.8026
  646MOL0     H87204   9.104  10.304   2.776  0.0909  1.2969  1.2657
  646MOL0     H87205   8.939  10.319   2.702  3.2180  2.7341 -0.8453
  646MOL0     H87206   8.872   9.977   2.928 -0.3178 -1.1357 -1.8918
  646MOL0     H87207   9.505  10.238   2.729 -0.5777 -0.1671 -1.4662
  646MOL0     H87208   9.854  10.302   2.812 -0.4946 -0.3224 -0.4931
  646MOL0     H87209   9.686  10.293   2.861 -0.9226  1.7913 -2.2081
  646MOL0     H87210   9.801  10.147   2.873 -2.1818 -1.9268  0.0816
  647MOL0     O87211   9.305   0.468   3.806 -0.0318  0.3306 -0.4098
  647MOL0     C87212   9.364   0.566   3.767  0.3442 -0.7448  0.3141
  647MOL0     O87213   9.494   0.605   3.806 -0.7918 -0.0974  1.1264
  647MOL0     C87214   9.558   0.549   3.911  0.0790  0.8035  0.6540
  647MOL0     C87215   9.534   0.551   4.052 -0.6247 -0.5270 -0.3304
  647MOL0     C87216   9.612   0.490   4.145 -0.3589  0.1737 -0.5022
  647MOL0     C87217   9.725   0.425   4.100 -0.0780 -1.0851 -0.5167
  647MOL0     O87218   9.819   0.384   4.189  0.3837  0.9114  0.6711
  647MOL0     C87219   9.934   0.469   4.207 -0.3854  0.0210  0.3901
  647MOL0     C87220  10.034   0.452   4.097 -0.1538  0.2129  0.3704
  647MOL0     C87221  10.159   0.530   4.143  0.2468 -0.7167 -0.3375
  647MOL0     C87222  10.263   0.535   4.032  0.2365  0.0502 -0.1500
  647MOL0     C87223  10.370   0.644   4.043  0.7218  0.6343  0.1917
  647MOL0     C87224  10.483   0.597   4.149  0.1790  0.3272  0.0884
  647MOL0     C87225  10.605   0.689   4.154  0.6585  0.0746  0.5160
  647MOL0     C87226  10.705   0.645   4.263 -0.8612 -0.3101 -0.6749
  647MOL0     N87227  10.837   0.709   4.237 -0.0352  0.2588 -0.1282
  647MOL0     C87228  10.946   0.640   4.190 -0.9206 -0.8442 -0.1109
  647MOL0     C87229  11.048   0.731   4.188  0.2857 -0.5758  0.4307
  647MOL0     C87230  11.188   0.704   4.143  0.2376  0.5534 -0.1878
  647MOL0     C87231  11.301   0.744   4.237 -0.2846  0.9675  0.2549
  647MOL0     C87232  11.341   0.636   4.341 -0.1338  0.8106  0.2192
  647MOL0     C87233  11.468   0.655   4.413 -0.5238  0.4388  0.8800
  647MOL0     O87234  11.590   0.627   4.342 -0.3256  0.4214  0.4599
  647MOL0     C87235  11.710   0.631   4.421 -0.2159  0.1485  0.6438
  647MOL0     C87236  11.824   0.586   4.352  0.3667  0.0172  0.8856
  647MOL0     C87237  11.955   0.585   4.407 -0.1143  0.3512  0.0760
  647MOL0     C87238  11.975   0.632   4.538  0.2106 -0.6306 -0.7180
  647MOL0     C87239  12.102   0.647   4.608 -0.7929 -0.4108  0.2644
  647MOL0     O87240  12.219   0.607   4.538 -0.1017 -0.3882  0.8802
  647MOL0     C87241  12.342   0.652   4.587  0.6341  0.4929 -0.6000
  647MOL0     C87242  12.369   0.794   4.600  0.6747  0.2527 -0.0982
  647MOL0     C87243  12.501   0.839   4.641  0.2744  0.0560 -0.0045
  647MOL0     C87244  12.598   0.747   4.679  0.9835 -0.1442  0.0256
  647MOL0     O87245  12.714   0.776   4.742 -0.7772 -0.7298  0.9695
  647MOL0     C87246  12.772   0.905   4.712  0.3771  0.8374 -0.4548
  647MOL0     C87247  12.925   0.904   4.749  0.4100  0.2550  0.1307
  647MOL0     C87248  12.996   1.036   4.723  0.1439 -0.6294 -0.5501
  647MOL0     C87249  13.129   1.050   4.793  0.0755  0.2319 -0.2564
  647MOL0     C87250  13.149   1.013   4.945  0.2507  0.4513  0.4734
  647MOL0     C87251  13.053   1.107   5.028 -0.2544  0.3644  0.2217
  647MOL0     C87252  13.065   1.103   5.177 -0.0143 -1.2768  0.1547
  647MOL0     C87253  12.952   1.197   5.236 -0.2783  0.7303  0.0559
  647MOL0    Cl87254  12.972   1.363   5.209  0.1635  0.1633  0.2957
  647MOL0     C87255  12.564   0.610   4.677 -0.9185 -0.3692 -0.1562
  647MOL0     C87256  12.439   0.569   4.628 -0.1138  0.7631  0.7261
  647MOL0     O87257  12.104   0.693   4.719  0.2007 -0.2911 -0.2072
  647MOL0     C87258  11.855   0.679   4.609 -0.2069  0.1277  0.0905
  647MOL0     C87259  11.723   0.669   4.556  0.6565  0.4737  0.0099
  647MOL0     N87260  11.004   0.850   4.241 -0.4412  0.5254  0.2067
  647MOL0     N87261  10.876   0.835   4.262  0.7908 -0.0538 -0.6825
  647MOL0     C87262   9.752   0.417   3.963  0.4918 -0.1026 -0.5125
  647MOL0     C87263   9.670   0.484   3.872 -0.3676  0.7825 -0.1186
  647MOL0     C87264   9.288   0.634   3.652 -0.0697 -1.4001 -0.2318
  647MOL0     C87265   9.329   0.768   3.619 -0.0838 -0.2467 -0.7749
  647MOL0     C87266   9.259   0.852   3.537 -0.4579  0.1404  1.2393
  647MOL0     C87267   9.153   0.796   3.464  0.4607 -0.3379 -0.6074
  647MOL0     O87268   9.074   0.866   3.378 -0.1995  0.5116  0.8938
  647MOL0     C87269   9.127   0.993   3.321  0.1581  0.0469 -0.0454
  647MOL0     C87270   9.086   1.113   3.405 -0.2840  0.9050 -0.4625
  647MOL0     C87271   8.941   1.125   3.383 -0.4312  0.9789 -1.2514
  647MOL0     C87272   8.886   1.255   3.435  0.1843  0.5151 -0.2152
  647MOL0     C87273   8.739   1.265   3.415 -0.1708  0.7471  0.4683
  647MOL0     C87274   8.621   1.289   3.407 -0.1272  0.9949 -0.8994
  647MOL0     C87275   9.105   0.669   3.493  0.6451  0.9014 -0.2952
  647MOL0     C87276   9.174   0.589   3.590  0.8520 -0.6963 -0.3891
  647MOL0     C87277   9.117   0.450   3.616  0.9464  0.9705 -0.3325
  647MOL0     H87278   9.443   0.600   4.085 -0.5580 -1.4555  1.3017
  647MOL0     H87279   9.583   0.511   4.247  0.4127  2.1428 -0.6523
  647MOL0     H87280   9.898   0.572   4.208 -0.2813  0.1041 -1.3397
  647MOL0     H87281   9.986   0.436   4.297 -0.8118 -0.8182  0.3438
  647MOL0     H87282   9.992   0.486   4.002 -0.0838 -1.7445 -0.3964
  647MOL0     H87283  10.074   0.352   4.080 -1.0369  0.1010 -1.1758
  647MOL0     H87284  10.195   0.496   4.241 -0.9459 -0.5160  0.1954
  647MOL0     H87285  10.124   0.632   4.163  0.0922 -0.7195 -0.6008
  647MOL0     H87286  10.314   0.439   4.021 -1.8351 -0.8708 -2.7993
  647MOL0     H87287  10.211   0.551   3.937  2.1109 -3.1252 -1.9271
  647MOL0     H87288  10.420   0.674   3.950  2.6438  1.8812  1.5575
  647MOL0     H87289  10.314   0.732   4.075  0.9803  1.3771 -1.3343
  647MOL0     H87290  10.435   0.582   4.247 -0.3038 -0.1573 -0.2138
  647MOL0     H87291  10.523   0.504   4.109  1.0823  1.5577 -1.9960
  647MOL0     H87292  10.569   0.789   4.181  1.7924  0.5263  0.3944
  647MOL0     H87293  10.648   0.680   4.054  1.1183 -0.4395  0.7574
  647MOL0     H87294  10.668   0.682   4.359  0.5429  4.9622 -1.8688
  647MOL0     H87295  10.723   0.537   4.269 -0.7525 -0.2703 -0.1994
  647MOL0     H87296  10.943   0.534   4.168  0.8968 -1.9509  4.0365
  647MOL0     H87297  11.219   0.602   4.118  0.1774  0.6506 -0.6729
  647MOL0     H87298  11.202   0.763   4.052 -0.1155  0.8602 -0.0446
  647MOL0     H87299  11.379   0.768   4.165 -1.7426 -1.2153 -2.2128
  647MOL0     H87300  11.274   0.829   4.300 -2.6566 -0.1232  0.8416
  647MOL0     H87301  11.349   0.542   4.286 -0.5122  1.7626 -1.5616
  647MOL0     H87302  11.258   0.624   4.412  0.4998 -1.3930  0.6500
  647MOL0     H87303  11.460   0.585   4.497  0.6241 -2.5211 -1.3352
  647MOL0     H87304  11.461   0.759   4.447 -1.6381  0.7411 -0.2110
  647MOL0     H87305  11.805   0.565   4.248 -0.2009  0.7471  0.8308
  647MOL0     H87306  12.041   0.549   4.350 -0.3031  3.9418 -2.8845
  647MOL0     H87307  12.291   0.868   4.589 -0.1891 -0.3836  1.4906
  647MOL0     H87308  12.496   0.944   4.668  0.4115 -0.4595  2.2942
  647MOL0     H87309  12.764   0.927   4.605  0.7045 -0.4246 -0.7465
  647MOL0     H87310  12.715   0.982   4.765 -1.6451  1.2665 -3.0515
  647MOL0     H87311  12.931   0.876   4.855 -1.4769 -0.6606  0.0429
  647MOL0     H87312  12.970   0.825   4.689  3.3870  1.4768  0.5930
  647MOL0     H87313  13.010   1.033   4.614 -1.2863 -0.3382 -0.7655
  647MOL0     H87314  12.946   1.122   4.768  1.1351 -0.6151  0.5783
  647MOL0     H87315  13.161   1.152   4.767  1.6890 -0.1449  0.1002
  647MOL0     H87316  13.198   0.982   4.742 -0.5493  0.8122 -1.9395
  647MOL0     H87317  13.252   1.026   4.981  0.4307  0.9302 -0.1976
  647MOL0     H87318  13.123   0.908   4.963 -1.1918  0.2540 -2.2471
  647MOL0     H87319  13.068   1.211   4.997  0.4034 -0.5055 -2.7242
  647MOL0     H87320  12.949   1.080   5.005 -0.0473 -0.9781  0.7642
  647MOL0     H87321  13.158   1.149   5.212 -1.2242 -0.2992  2.2750
  647MOL0     H87322  13.054   0.999   5.209  0.9613 -1.8535 -1.2869
  647MOL0     H87323  12.849   1.162   5.224 -0.1560  0.1362  0.6916
  647MOL0     H87324  12.964   1.185   5.344 -0.6604  0.5166  0.0746
  647MOL0     H87325  12.629   0.531   4.714 -2.1602 -0.8625  1.0428
  647MOL0     H87326  12.418   0.463   4.637  1.0537  0.5961  1.9505
  647MOL0     H87327  11.860   0.718   4.709 -0.0807 -0.5984  0.3787
  647MOL0     H87328  11.638   0.706   4.612  0.4199  0.8567 -0.6004
  647MOL0     H87329   9.841   0.366   3.927  0.3334 -1.6328  1.1325
  647MOL0     H87330   9.692   0.475   3.766 -2.0397 -0.3262 -0.4077
  647MOL0     H87331   9.417   0.820   3.655 -0.2826 -0.8261  0.6075
  647MOL0     H87332   9.296   0.952   3.518 -0.6081 -0.1991 -1.1435
  647MOL0     H87333   9.089   0.996   3.218  1.8605 -0.4649 -0.7223
  647MOL0     H87334   9.236   0.990   3.314  0.3448  1.5668  1.4777
  647MOL0     H87335   9.147   1.198   3.374  0.2102  0.3843 -0.9185
  647MOL0     H87336   9.103   1.082   3.509 -0.9870  0.4507 -0.4772
  647MOL0     H87337   8.889   1.042   3.432 -0.7919  2.0453  0.2115
  647MOL0     H87338   8.914   1.116   3.277  0.9867  0.4548 -1.5939
  647MOL0     H87339   8.909   1.268   3.541  0.4562  0.9590 -0.3273
  647MOL0     H87340   8.924   1.342   3.381 -0.7095  2.0202  1.4637
  647MOL0     H87341   8.516   1.309   3.394 -0.3288  0.7379  0.1971
  647MOL0     H87342   9.011   0.625   3.459  0.4820  0.2105  0.9776
  647MOL0     H87343   9.192   0.372   3.623  0.8724  0.7227 -1.9236
  647MOL0     H87344   9.067   0.458   3.713  1.1737 -0.7098 -0.0554
  647MOL0     H87345   9.051   0.427   3.532 -1.1890 -0.8624  1.7017
  648MOL0     O87346   4.953   3.517   8.878  0.5877 -0.4699 -0.1357
  648MOL0     C87347   5.018   3.413   8.877 -0.4330 -0.4013 -0.5591
  648MOL0     O87348   5.146   3.393   8.826 -0.1778 -0.3040 -0.4823
  648MOL0     C87349   5.207   3.495   8.755 -1.4868  0.7527  0.7384
  648MOL0     C87350   5.347   3.492   8.765 -0.7849 -0.5217  0.3025
  648MOL0     C87351   5.425   3.598   8.705 -0.3840  0.5697  0.3250
  648MOL0     C87352   5.364   3.699   8.639  0.8284 -0.7546 -0.8049
  648MOL0     O87353   5.446   3.795   8.581  0.0897  0.0771 -0.2247
  648MOL0     C87354   5.385   3.911   8.537  0.2687  0.2757 -0.2025
  648MOL0     C87355   5.487   4.012   8.496 -0.0852 -0.3364  0.1542
  648MOL0     C87356   5.587   4.057   8.607  0.5339  0.1995 -0.3410
  648MOL0     C87357   5.521   4.165   8.697 -0.3663 -0.0569 -0.7690
  648MOL0     C87358   5.627   4.213   8.806  0.3427 -0.1583 -0.2143
  648MOL0     C87359   5.712   4.322   8.764 -0.2043 -0.6158  0.2931
  648MOL0     C87360   5.784   4.388   8.892 -0.6157  0.4142  0.7269
  648MOL0     C87361   5.863   4.503   8.842 -2.2386 -1.2176  0.0240
  648MOL0     N87362   5.965   4.567   8.935 -0.0385 -0.3922  0.4504
  648MOL0     C87363   6.086   4.520   8.977  1.3247 -0.0948  0.5097
  648MOL0     C87364   6.132   4.607   9.063 -0.1270  1.0113 -0.6156
  648MOL0     C87365   6.264   4.594   9.143  0.5142 -0.0455  0.4990
  648MOL0     C87366   6.356   4.706   9.105 -0.3005  0.2819 -0.2270
  648MOL0     C87367   6.466   4.705   9.209 -0.9331 -0.4000 -0.7542
  648MOL0     C87368   6.559   4.830   9.200 -0.1995 -0.3383  0.2744
  648MOL0     O87369   6.631   4.836   9.071 -0.1475 -0.3576 -0.4199
  648MOL0     C87370   6.739   4.757   9.055 -0.5348  0.1820  0.8864
  648MOL0     C87371   6.852   4.766   9.143 -0.2091  1.0865  0.1078
  648MOL0     C87372   6.963   4.681   9.132  0.0146  0.3902  0.1246
  648MOL0     C87373   6.972   4.587   9.026 -0.5841  0.2858  0.2779
  648MOL0     C87374   7.092   4.508   9.000 -0.1248  0.2004 -0.3980
  648MOL0     O87375   7.206   4.558   9.044 -0.9522  0.2162 -0.3383
  648MOL0     C87376   7.321   4.481   9.048  0.3355  0.7399  0.7990
  648MOL0     C87377   7.346   4.414   9.173  0.3715 -0.2643  0.1720
  648MOL0     C87378   7.470   4.349   9.195 -0.0716  1.1446 -0.6631
  648MOL0     C87379   7.566   4.341   9.092  0.9921  0.1335  0.2034
  648MOL0     O87380   7.679   4.268   9.102  0.0305 -0.8073  0.0006
  648MOL0     C87381   7.713   4.196   9.218  0.1323  0.1282 -0.4955
  648MOL0     C87382   7.836   4.109   9.217  0.4196 -0.0603  0.2870
  648MOL0     C87383   7.955   4.207   9.203 -0.1135  0.5201  0.3407
  648MOL0     C87384   8.084   4.116   9.186  0.6012 -0.3718 -0.3898
  648MOL0     C87385   8.195   4.219   9.207  0.3536 -0.0994  0.5844
  648MOL0     C87386   8.329   4.158   9.173  0.2676  0.0821 -0.5140
  648MOL0     C87387   8.440   4.262   9.207  0.5012 -0.1048  0.1210
  648MOL0     C87388   8.580   4.222   9.171  0.5619 -0.2495  0.3119
  648MOL0    Cl87389   8.630   4.060   9.217  0.0507  0.0242 -0.4702
  648MOL0     C87390   7.542   4.412   8.969  0.6256  0.1108 -0.3234
  648MOL0     C87391   7.423   4.486   8.952  0.4838  0.4349 -0.2687
  648MOL0     O87392   7.081   4.398   8.958 -0.1788  0.4680 -0.1079
  648MOL0     C87393   6.863   4.574   8.937 -0.4546 -1.0518 -0.6865
  648MOL0     C87394   6.752   4.654   8.961  0.4323 -0.2093 -1.5082
  648MOL0     N87395   6.035   4.708   9.079  0.5845  0.4419  0.4158
  648MOL0     N87396   5.938   4.683   8.995  0.0855 -0.5858 -0.3613
  648MOL0     C87397   5.224   3.693   8.609  0.9461 -0.1597 -0.0461
  648MOL0     C87398   5.145   3.586   8.664  0.0058  0.2112  0.0280
  648MOL0     C87399   4.950   3.298   8.945 -0.2079  0.5822  0.1098
  648MOL0     C87400   5.033   3.184   8.982 -0.6964 -0.7961  0.8510
  648MOL0     C87401   4.982   3.071   9.045 -0.0344 -0.4738  0.0901
  648MOL0     C87402   4.844   3.069   9.079 -0.5328  0.0593 -0.1873
  648MOL0     O87403   4.789   2.966   9.154  0.2336  0.3590  0.2911
  648MOL0     C87404   4.884   2.862   9.184 -0.1034 -0.3120 -0.9754
  648MOL0     C87405   4.793   2.775   9.262 -0.6096 -0.2688 -1.0183
  648MOL0     C87406   4.860   2.644   9.306 -0.3092  0.4435 -0.3441
  648MOL0     C87407   4.808   2.575   9.432 -0.0283  0.3524  0.1082
  648MOL0     C87408   4.794   2.660   9.560 -0.4936  0.0848 -0.6125
  648MOL0     C87409   4.780   2.727   9.658  0.4199 -0.3013  0.4287
  648MOL0     C87410   4.760   3.170   9.025  0.5399 -0.9396 -0.4782
  648MOL0     C87411   4.809   3.291   8.973 -0.7735  0.9317  0.1468
  648MOL0     C87412   4.711   3.396   8.935  0.3262  0.8462  0.1899
  648MOL0     H87413   5.394   3.406   8.813 -1.0505  0.1911  1.9053
  648MOL0     H87414   5.533   3.600   8.716 -0.3608  0.2089  0.1794
  648MOL0     H87415   5.327   3.876   8.451  1.0539 -4.6302  0.9252
  648MOL0     H87416   5.319   3.940   8.620 -0.8335  0.9397 -1.2847
  648MOL0     H87417   5.438   4.096   8.446  1.8578  1.8450  1.7203
  648MOL0     H87418   5.548   3.971   8.414 -0.7672 -1.4650  0.1794
  648MOL0     H87419   5.678   4.100   8.564 -0.5479  1.2002 -1.7158
  648MOL0     H87420   5.615   3.971   8.667 -2.2746 -0.9446 -0.5279
  648MOL0     H87421   5.483   4.252   8.641  0.0204  0.4402 -0.2711
  648MOL0     H87422   5.433   4.123   8.746  0.4801 -1.5442 -0.4845
  648MOL0     H87423   5.580   4.240   8.901 -0.2935 -0.6773 -0.3732
  648MOL0     H87424   5.686   4.126   8.834 -1.4094 -1.1869  0.4989
  648MOL0     H87425   5.779   4.281   8.688 -1.8511 -2.7806 -0.0782
  648MOL0     H87426   5.649   4.402   8.725  0.6224  1.3231  2.6259
  648MOL0     H87427   5.861   4.317   8.922  3.2614  3.8382 -0.1128
  648MOL0     H87428   5.713   4.423   8.966 -0.6970 -0.8762  1.2862
  648MOL0     H87429   5.924   4.473   8.756 -0.1985 -0.0859  1.0285
  648MOL0     H87430   5.795   4.577   8.799 -0.2966  0.7760  0.2175
  648MOL0     H87431   6.127   4.430   8.933 -1.8751 -1.4085 -0.1204
  648MOL0     H87432   6.232   4.599   9.248  0.1648 -0.1303  0.3981
  648MOL0     H87433   6.309   4.496   9.124  0.7552  0.0026  0.8071
  648MOL0     H87434   6.398   4.692   9.004 -3.6393 -1.1734 -1.5412
  648MOL0     H87435   6.312   4.806   9.105 -0.5052  0.2034 -1.0273
  648MOL0     H87436   6.528   4.617   9.189  0.2849  0.5587 -1.3763
  648MOL0     H87437   6.426   4.699   9.311  3.9965  0.9078  1.5675
  648MOL0     H87438   6.620   4.834   9.291  0.9410  0.5670 -0.5039
  648MOL0     H87439   6.491   4.915   9.210  0.8671  0.7543 -1.2704
  648MOL0     H87440   6.854   4.858   9.201 -1.1905  3.8791 -3.8582
  648MOL0     H87441   7.055   4.685   9.189  1.0527 -0.8930 -1.3876
  648MOL0     H87442   7.273   4.414   9.253 -0.8253 -5.1467 -0.5796
  648MOL0     H87443   7.476   4.293   9.288 -4.3404 -0.1862 -0.9443
  648MOL0     H87444   7.720   4.272   9.297 -0.3975 -1.0554  0.7225
  648MOL0     H87445   7.628   4.134   9.250 -1.0475  2.0250  0.2097
  648MOL0     H87446   7.845   4.049   9.308  0.2616 -0.6586 -0.0873
  648MOL0     H87447   7.817   4.042   9.132 -0.1166 -2.3338  2.1188
  648MOL0     H87448   7.945   4.283   9.125 -3.2710 -0.0730  0.0541
  648MOL0     H87449   7.958   4.259   9.300  2.0567  1.4106 -0.1398
  648MOL0     H87450   8.097   4.056   9.095  1.7630  4.4503 -3.8263
  648MOL0     H87451   8.077   4.044   9.268 -0.9228 -1.1179 -1.1243
  648MOL0     H87452   8.188   4.265   9.306  0.2673  1.4390 -0.1124
  648MOL0     H87453   8.188   4.302   9.136  0.8175 -1.4967 -1.1840
  648MOL0     H87454   8.349   4.062   9.222  2.7961 -0.5239 -2.5576
  648MOL0     H87455   8.328   4.135   9.066  0.6492 -1.8485 -0.1451
  648MOL0     H87456   8.431   4.278   9.315 -1.4868  2.7829 -0.3681
  648MOL0     H87457   8.417   4.355   9.155 -0.8735  0.8366  2.2890
  648MOL0     H87458   8.595   4.228   9.063  0.2543  1.3094  0.3306
  648MOL0     H87459   8.650   4.298   9.207  2.1842 -0.8321 -1.4437
  648MOL0     H87460   7.613   4.425   8.888  0.0421  0.1945 -0.8273
  648MOL0     H87461   7.404   4.524   8.852 -0.5173 -0.9581 -0.6336
  648MOL0     H87462   6.858   4.497   8.861 -2.4894 -2.3133  0.6632
  648MOL0     H87463   6.664   4.631   8.901  0.5406 -1.0640 -1.3549
  648MOL0     H87464   5.172   3.758   8.540 -1.1861 -0.6987  0.9749
  648MOL0     H87465   5.040   3.570   8.639 -0.2705  1.6919  0.1598
  648MOL0     H87466   5.139   3.195   8.962 -1.2150  3.0457 -0.6484
  648MOL0     H87467   5.067   3.014   9.081  1.8066  1.5464 -0.7963
  648MOL0     H87468   4.955   2.903   9.256  1.0433 -3.2307 -0.3108
  648MOL0     H87469   4.936   2.809   9.104 -1.3963 -0.7415 -1.5569
  648MOL0     H87470   4.708   2.749   9.199  0.1042 -1.2014 -1.6263
  648MOL0     H87471   4.756   2.825   9.352  0.6467 -0.0858 -0.5782
  648MOL0     H87472   4.967   2.658   9.323  0.2501 -1.9432 -1.3895
  648MOL0     H87473   4.855   2.583   9.215 -1.5136 -0.4501  0.2931
  648MOL0     H87474   4.712   2.532   9.400 -0.4057  1.8215 -0.8397
  648MOL0     H87475   4.868   2.487   9.458 -1.6274 -1.0356 -0.7059
  648MOL0     H87476   4.770   2.776   9.753  0.8384  0.6312 -0.0008
  648MOL0     H87477   4.652   3.156   9.028  0.1690  1.1620 -2.0581
  648MOL0     H87478   4.704   3.424   8.829 -1.3140 -1.8350 -0.5168
  648MOL0     H87479   4.613   3.351   8.954  0.0591  1.0588 -0.6350
  648MOL0     H87480   4.726   3.484   8.998  1.6828  0.0574  1.0242
  649MOL0     O87481   8.220   4.066   0.573 -0.2944  0.5046 -0.2062
  649MOL0     C87482   8.198   4.179   0.539  0.2836 -0.3293  0.2834
  649MOL0     O87483   8.289   4.288   0.551 -0.3121  0.0698  0.3813
  649MOL0     C87484   8.415   4.275   0.594 -0.5609  0.0558 -0.6979
  649MOL0     C87485   8.492   4.164   0.545  0.6265  0.6017  0.4645
  649MOL0     C87486   8.629   4.155   0.591 -0.3554  0.4210 -0.6777
  649MOL0     C87487   8.672   4.225   0.701  0.6348 -0.1349  0.0527
  649MOL0     O87488   8.795   4.227   0.752 -0.4332 -0.1058 -0.0610
  649MOL0     C87489   8.894   4.153   0.677 -0.4348 -0.8013 -0.0997
  649MOL0     C87490   9.028   4.135   0.750 -0.0590  0.2836  0.0151
  649MOL0     C87491   9.133   4.095   0.649  0.0778 -0.9200 -0.9006
  649MOL0     C87492   9.248   4.041   0.733 -0.5229 -0.3682  0.8498
  649MOL0     C87493   9.356   3.971   0.635 -0.0393  0.2146  0.5050
  649MOL0     C87494   9.477   3.920   0.716  0.5846 -0.9200 -0.2418
  649MOL0     C87495   9.564   3.834   0.622 -0.2756  0.5952 -0.3725
  649MOL0     C87496   9.708   3.804   0.677 -0.4153 -0.4911 -0.1172
  649MOL0     N87497   9.793   3.919   0.660 -0.0366  0.6899  0.0120
  649MOL0     C87498   9.784   4.041   0.725  0.3141  0.5310  0.2593
  649MOL0     C87499   9.882   4.111   0.682  0.5381  0.5850  0.1972
  649MOL0     C87500   9.930   4.244   0.725  0.0158  0.3796 -0.7728
  649MOL0     C87501   9.907   4.359   0.626 -0.5486  0.2463 -0.2692
  649MOL0     C87502   9.932   4.506   0.684  0.0882 -1.1840  0.2957
  649MOL0     C87503  10.087   4.528   0.725 -0.6582  0.2212  0.3233
  649MOL0     O87504  10.153   4.542   0.595  0.2433  0.8022 -0.3919
  649MOL0     C87505  10.288   4.549   0.592  0.1857 -0.3536  0.0077
  649MOL0     C87506  10.351   4.623   0.492  0.5150 -0.0397 -0.7469
  649MOL0     C87507  10.488   4.624   0.474 -0.1960 -0.8030  0.2883
  649MOL0     C87508  10.571   4.550   0.563 -0.4631 -0.1929 -0.3543
  649MOL0     C87509  10.715   4.559   0.548  0.2260  0.0272 -0.0393
  649MOL0     O87510  10.761   4.617   0.435 -0.0334 -0.0868  0.3379
  649MOL0     C87511  10.902   4.613   0.405  0.9969  0.1684 -0.9868
  649MOL0     C87512  10.961   4.738   0.382 -0.2339  0.2622 -0.2049
  649MOL0     C87513  11.099   4.749   0.360 -0.0274 -0.0799  0.0418
  649MOL0     C87514  11.175   4.634   0.339 -0.1009 -0.8020  1.0725
  649MOL0     O87515  11.315   4.625   0.328 -0.5636 -0.4914 -0.1613
  649MOL0     C87516  11.364   4.708   0.223 -0.6773  0.2414  0.1758
  649MOL0     C87517  11.518   4.699   0.216  0.5911 -0.3059 -0.8872
  649MOL0     C87518  11.575   4.749   0.355  0.2202  0.3678  0.3727
  649MOL0     C87519  11.718   4.798   0.357  0.7668 -0.4070  0.4481
  649MOL0     C87520  11.758   4.872   0.495 -0.8390  0.4741 -0.7324
  649MOL0     C87521  11.891   4.935   0.514  0.3448  0.0657  0.1154
  649MOL0     C87522  11.914   4.985   0.654  0.2374  0.0169 -0.2341
  649MOL0     C87523  12.030   5.085   0.653  0.1583  0.4361  0.7993
  649MOL0    Cl87524  12.194   5.005   0.622  0.1515  0.1625  0.0253
  649MOL0     C87525  11.109   4.512   0.368  0.8027  0.5345  0.6591
  649MOL0     C87526  10.970   4.500   0.392 -0.6326 -0.2431 -1.2791
  649MOL0     O87527  10.781   4.491   0.629  0.2686  0.3950  0.1791
  649MOL0     C87528  10.510   4.495   0.679 -0.5272 -0.0165  1.0211
  649MOL0     C87529  10.373   4.480   0.682 -0.1943  1.4727 -0.4749
  649MOL0     N87530   9.961   4.039   0.591  0.1087 -0.1862 -0.2045
  649MOL0     N87531   9.898   3.931   0.572  0.2633 -0.0182  0.1233
  649MOL0     C87532   8.594   4.324   0.748  0.8538  0.8498 -0.5596
  649MOL0     C87533   8.463   4.352   0.704 -0.9913 -0.5213  0.0867
  649MOL0     C87534   8.064   4.221   0.495 -0.4522  0.7822 -0.7279
  649MOL0     C87535   8.009   4.344   0.529  0.5551  0.5165 -0.9801
  649MOL0     C87536   7.873   4.385   0.503 -1.6083 -0.4669 -0.7409
  649MOL0     C87537   7.789   4.302   0.429  0.1361  0.5099 -0.7831
  649MOL0     O87538   7.655   4.316   0.401  0.0572  0.5334 -0.7447
  649MOL0     C87539   7.588   4.447   0.411 -1.0066 -0.0698  0.1817
  649MOL0     C87540   7.438   4.427   0.442 -0.6771  0.2211 -0.2953
  649MOL0     C87541   7.362   4.364   0.319  0.2840 -0.6600  0.3362
  649MOL0     C87542   7.215   4.380   0.353  0.2583  0.3905 -0.9806
  649MOL0     C87543   7.181   4.281   0.452  0.2800  0.4592  0.3820
  649MOL0     C87544   7.151   4.213   0.552 -0.3171  0.4999  1.0986
  649MOL0     C87545   7.843   4.176   0.394 -0.0304 -0.1104 -0.3726
  649MOL0     C87546   7.968   4.134   0.423 -0.7316 -0.0217 -1.1410
  649MOL0     C87547   8.005   3.986   0.396  0.1778 -0.3953  0.0288
  649MOL0     H87548   8.458   4.107   0.460  0.9964  1.3649 -0.2124
  649MOL0     H87549   8.692   4.090   0.531  2.4762  1.8077  0.5961
  649MOL0     H87550   8.858   4.056   0.644 -1.0719 -0.5434 -0.1681
  649MOL0     H87551   8.919   4.209   0.587 -0.9754  0.8046  0.7140
  649MOL0     H87552   9.012   4.060   0.828 -0.0256  2.2117  1.9635
  649MOL0     H87553   9.053   4.223   0.810 -0.1259 -0.4040  1.0895
  649MOL0     H87554   9.165   4.184   0.595 -1.3859  0.3740  0.2729
  649MOL0     H87555   9.099   4.019   0.578  0.3235 -1.5683 -0.3417
  649MOL0     H87556   9.287   4.127   0.788 -1.6568  0.4017  0.4742
  649MOL0     H87557   9.224   3.967   0.809  1.4932 -0.0532  1.8645
  649MOL0     H87558   9.321   3.880   0.586  2.1194 -1.1639  1.3419
  649MOL0     H87559   9.380   4.043   0.556  0.1722  0.8480  1.1285
  649MOL0     H87560   9.533   4.000   0.764 -2.9665  0.9235  1.1423
  649MOL0     H87561   9.432   3.863   0.798 -2.1267  1.8270  0.3610
  649MOL0     H87562   9.581   3.879   0.524  0.6984 -0.1268 -0.5450
  649MOL0     H87563   9.514   3.739   0.599 -0.2948  0.6055 -0.3732
  649MOL0     H87564   9.699   3.769   0.780  1.1026  0.6268  0.4302
  649MOL0     H87565   9.751   3.724   0.614 -0.0237 -0.4304  0.0711
  649MOL0     H87566   9.733   4.062   0.818 -1.0882 -2.6597  0.3402
  649MOL0     H87567   9.894   4.271   0.825  2.6514  3.8922 -0.5893
  649MOL0     H87568  10.037   4.243   0.746 -0.2429 -0.4619  0.6480
  649MOL0     H87569   9.979   4.349   0.544 -0.0261  0.6034  0.1434
  649MOL0     H87570   9.805   4.370   0.589  0.0580  2.4964 -1.4340
  649MOL0     H87571   9.875   4.540   0.770 -1.1019  0.2105 -0.9875
  649MOL0     H87572   9.911   4.584   0.609 -0.1420 -0.3276  1.2278
  649MOL0     H87573  10.132   4.449   0.785  3.0211  0.3268 -1.9604
  649MOL0     H87574  10.091   4.622   0.782 -0.0054  1.2580 -1.3287
  649MOL0     H87575  10.281   4.668   0.423  1.6539  3.3033  0.0719
  649MOL0     H87576  10.535   4.671   0.389 -0.7431 -0.0304  0.4064
  649MOL0     H87577  10.915   4.835   0.395  1.2035  0.9369  0.0837
  649MOL0     H87578  11.132   4.852   0.358 -0.6291  0.1358  0.7346
  649MOL0     H87579  11.322   4.670   0.130 -1.1219  3.3148 -1.0079
  649MOL0     H87580  11.344   4.813   0.248  1.7572  0.0188  3.9433
  649MOL0     H87581  11.558   4.599   0.196  3.4507  0.4188  0.6825
  649MOL0     H87582  11.550   4.762   0.132  2.6546 -0.0331  0.0327
  649MOL0     H87583  11.510   4.834   0.380 -1.5765  0.0696 -2.7633
  649MOL0     H87584  11.565   4.675   0.435  0.3494  1.3115  1.2836
  649MOL0     H87585  11.735   4.867   0.274  1.6667  1.3139  1.9870
  649MOL0     H87586  11.789   4.715   0.347  1.6045  0.5162 -1.8296
  649MOL0     H87587  11.752   4.801   0.578  0.1816  0.0877 -0.9669
  649MOL0     H87588  11.683   4.949   0.509 -1.6163 -0.7118  2.5318
  649MOL0     H87589  11.968   4.860   0.494  1.4023  1.2259 -0.3372
  649MOL0     H87590  11.912   5.016   0.443 -1.8754  0.0503 -0.6498
  649MOL0     H87591  11.933   4.899   0.719 -1.7420  0.8889  1.6177
  649MOL0     H87592  11.819   5.020   0.695 -0.5026  0.6716 -2.3597
  649MOL0     H87593  12.014   5.148   0.565 -0.1448  1.4152  1.5306
  649MOL0     H87594  12.037   5.154   0.737  3.1882 -1.3758  2.2036
  649MOL0     H87595  11.187   4.437   0.373  0.1459 -0.1729  0.4146
  649MOL0     H87596  10.932   4.400   0.410 -1.2100 -0.0305 -1.3012
  649MOL0     H87597  10.568   4.441   0.753  1.8825  0.4904 -0.3845
  649MOL0     H87598  10.340   4.407   0.755 -0.5181  0.7033 -1.3667
  649MOL0     H87599   8.636   4.383   0.829  2.3117 -0.9844  0.0757
  649MOL0     H87600   8.419   4.434   0.760  0.3404  0.7806 -0.6780
  649MOL0     H87601   8.074   4.413   0.581  3.7053 -2.2649 -0.8704
  649MOL0     H87602   7.854   4.490   0.524  3.3925  0.8758 -1.5015
  649MOL0     H87603   7.594   4.501   0.315  1.5260  2.1646  1.4771
  649MOL0     H87604   7.631   4.509   0.490 -0.0578  0.0276 -0.3899
  649MOL0     H87605   7.400   4.528   0.462 -2.4283 -0.3223 -0.7608
  649MOL0     H87606   7.428   4.373   0.536  3.1658  1.1631  0.8225
  649MOL0     H87607   7.397   4.262   0.297  0.2055 -0.8738  1.1645
  649MOL0     H87608   7.389   4.410   0.224  2.8820 -1.6803  0.4938
  649MOL0     H87609   7.202   4.481   0.395  0.5486 -0.4202  1.2217
  649MOL0     H87610   7.151   4.367   0.265  2.3204  2.2218 -2.8788
  649MOL0     H87611   7.109   4.155   0.632 -2.0222  1.4904  0.9655
  649MOL0     H87612   7.784   4.106   0.335 -0.4638  0.7375 -0.9673
  649MOL0     H87613   7.985   3.926   0.486  0.4776 -0.7853 -0.1610
  649MOL0     H87614   7.950   3.938   0.315  0.1237  0.7101 -0.6079
  649MOL0     H87615   8.113   3.979   0.375  0.0705 -0.9947 -0.3419
  650MOL0     O87616   2.986  10.489   8.330  0.1954 -0.3059  0.6461
  650MOL0     C87617   3.039  10.573   8.401 -0.0955  0.3596 -0.3281
  650MOL0     O87618   2.988  10.605   8.523  0.1966 -0.0198  0.2756
  650MOL0     C87619   2.851  10.592   8.558 -0.2187  0.0072 -1.1230
  650MOL0     C87620   2.818  10.604   8.694  0.5367 -0.1232 -0.1885
  650MOL0     C87621   2.684  10.598   8.741 -0.5094 -0.5210  0.6084
  650MOL0     C87622   2.583  10.571   8.656  0.0070 -0.2501 -0.1431
  650MOL0     O87623   2.451  10.545   8.695 -1.0035  1.2561 -0.4163
  650MOL0     C87624   2.411  10.604   8.818  0.5105  0.3488  0.1266
  650MOL0     C87625   2.261  10.596   8.822  0.3441 -0.0848  0.0314
  650MOL0     C87626   2.203  10.472   8.883 -0.3926 -0.6029  0.2216
  650MOL0     C87627   2.216  10.350   8.799 -0.2439  0.7622  0.4247
  650MOL0     C87628   2.156  10.216   8.854 -1.7396 -0.0746 -0.6453
  650MOL0     C87629   1.999  10.209   8.879  0.0548 -0.9496  0.6427
  650MOL0     C87630   1.973  10.151   9.019  0.1561  0.5045  0.2759
  650MOL0     C87631   1.844  10.214   9.068  0.5697  0.4453 -0.5782
  650MOL0     N87632   1.867  10.358   9.115 -0.5520  0.3961  0.3260
  650MOL0     C87633   1.944  10.400   9.218 -0.2200  0.1218 -1.1872
  650MOL0     C87634   1.944  10.532   9.223  0.0193 -0.1170 -0.5140
  650MOL0     C87635   2.041  10.629   9.301  0.2566  0.1229  0.5832
  650MOL0     C87636   2.189  10.621   9.275 -0.0674 -0.3617  0.4534
  650MOL0     C87637   2.243  10.748   9.215  0.3141 -0.7694  1.2693
  650MOL0     C87638   2.401  10.728   9.203  0.2815  0.3439  0.1854
  650MOL0     O87639   2.463  10.819   9.292 -0.2955  0.0336  0.0449
  650MOL0     C87640   2.606  10.830   9.296  0.0838  0.1420  0.0700
  650MOL0     C87641   2.688  10.801   9.189  0.3871 -0.7965  0.1636
  650MOL0     C87642   2.830  10.791   9.202  0.8586 -0.5756  0.5500
  650MOL0     C87643   2.885  10.840   9.323 -0.3463 -0.3799  0.4342
  650MOL0     C87644   3.031  10.838   9.350  0.0995  0.1027 -0.5471
  650MOL0     O87645   3.102  10.749   9.274 -0.0167 -0.8040 -0.6282
  650MOL0     C87646   3.236  10.744   9.292 -0.6367 -0.4111  0.4106
  650MOL0     C87647   3.328  10.837   9.241  0.0032  0.7165 -0.3638
  650MOL0     C87648   3.468  10.831   9.271  0.5688 -0.1247  0.2147
  650MOL0     C87649   3.513  10.736   9.356 -0.0220  0.2636 -0.4576
  650MOL0     O87650   3.650  10.731   9.385 -0.0131 -0.3680 -0.6156
  650MOL0     C87651   3.714  10.640   9.479 -0.0804 -0.5974 -0.5336
  650MOL0     C87652   3.765  10.514   9.400  0.4517 -0.6663 -0.3844
  650MOL0     C87653   3.838  10.435   9.504  0.5800 -0.4066 -0.2851
  650MOL0     C87654   3.920  10.317   9.454  0.1590 -0.4230  0.1313
  650MOL0     C87655   4.030  10.354   9.350 -0.5770  0.3163 -0.0142
  650MOL0     C87656   4.096  10.215   9.310 -0.2943 -0.8101 -0.2515
  650MOL0     C87657   4.177  10.247   9.179 -0.5128 -0.1954 -0.6220
  650MOL0     C87658   4.259  10.122   9.142  0.2699 -0.4817  0.8616
  650MOL0    Cl87659   4.147   9.993   9.106  0.2172  0.1652 -0.1957
  650MOL0     C87660   3.419  10.637   9.404 -0.1107 -0.0163 -0.0687
  650MOL0     C87661   3.283  10.642   9.373 -0.3139 -0.7758 -0.4942
  650MOL0     O87662   3.073  10.908   9.445 -1.0218 -0.1898 -0.6211
  650MOL0     C87663   2.796  10.895   9.425  0.7487  0.2426  0.1062
  650MOL0     C87664   2.659  10.883   9.415 -0.2990  0.1560 -0.1129
  650MOL0     N87665   1.866  10.560   9.115  0.1086 -0.0348 -0.0369
  650MOL0     N87666   1.821  10.457   9.042  0.2838 -0.0601  0.3442
  650MOL0     C87667   2.608  10.573   8.521  0.1227 -1.2038 -0.3549
  650MOL0     C87668   2.740  10.585   8.468 -0.6624 -0.5787 -0.1057
  650MOL0     C87669   3.176  10.624   8.375 -0.3170  0.9652  0.7700
  650MOL0     C87670   3.249  10.672   8.484 -0.5720  0.5052 -0.0315
  650MOL0     C87671   3.385  10.715   8.477 -0.0707  1.5005  1.1162
  650MOL0     C87672   3.456  10.703   8.361 -0.7029  0.8927  0.6718
  650MOL0     O87673   3.586  10.747   8.371 -0.9531  0.6676 -0.4886
  650MOL0     C87674   3.634  10.811   8.252  0.1168  0.8319  0.6405
  650MOL0     C87675   3.717  10.725   8.161  0.3294  0.5301 -0.1337
  650MOL0     C87676   3.845  10.676   8.232  0.1728 -0.1855  0.0797
  650MOL0     C87677   3.940  10.603   8.137 -0.0929  0.5932  0.2369
  650MOL0     C87678   4.082  10.581   8.166 -0.2035 -0.1077  0.1319
  650MOL0     C87679   4.199  10.575   8.188  0.0629 -1.3277  1.3775
  650MOL0     C87680   3.386  10.658   8.244 -0.3512  0.2633 -0.2617
  650MOL0     C87681   3.246  10.619   8.250 -0.2945  0.3631  0.3511
  650MOL0     C87682   3.177  10.557   8.131 -0.4949 -0.2719 -0.1015
  650MOL0     H87683   2.897  10.611   8.768  0.2009  0.5064  0.1155
  650MOL0     H87684   2.666  10.604   8.848  1.3195 -3.0229  1.1502
  650MOL0     H87685   2.453  10.561   8.909  1.0849  0.7044  0.0407
  650MOL0     H87686   2.446  10.708   8.811 -0.8114  0.8353  0.5066
  650MOL0     H87687   2.212  10.609   8.724  0.1438 -2.4845 -0.2588
  650MOL0     H87688   2.214  10.676   8.880  1.4448  2.5687 -2.4851
  650MOL0     H87689   2.098  10.494   8.903 -0.1726 -0.7568  1.6265
  650MOL0     H87690   2.244  10.451   8.982  0.5667 -0.9375 -0.2331
  650MOL0     H87691   2.162  10.380   8.709  1.1705 -0.9544 -1.0746
  650MOL0     H87692   2.323  10.338   8.778 -1.0539  0.0823 -4.2669
  650MOL0     H87693   2.180  10.138   8.781 -0.1971 -1.2712  1.0429
  650MOL0     H87694   2.216  10.192   8.942 -0.6229  0.3725 -1.2768
  650MOL0     H87695   1.967  10.314   8.873  0.6858 -0.8423 -3.4885
  650MOL0     H87696   1.949  10.169   8.791 -1.5129  2.7913 -0.3940
  650MOL0     H87697   2.059  10.155   9.085 -0.1221  0.6738  0.6326
  650MOL0     H87698   1.945  10.045   9.016  1.0595  0.2097  1.5131
  650MOL0     H87699   1.768  10.204   8.990 -0.2869 -4.3688  0.5290
  650MOL0     H87700   1.807  10.163   9.158  2.0169 -0.2230 -0.3220
  650MOL0     H87701   2.009  10.342   9.283 -1.7443 -1.9097 -1.3812
  650MOL0     H87702   2.006  10.731   9.278  0.3165  0.4272  1.7629
  650MOL0     H87703   2.014  10.606   9.404 -0.5975  0.5771  0.4802
  650MOL0     H87704   2.241  10.602   9.370  0.8632  1.1124  0.2671
  650MOL0     H87705   2.212  10.532   9.215 -1.5165 -1.5076  1.5214
  650MOL0     H87706   2.201  10.834   9.269 -0.7346  0.1933 -0.9318
  650MOL0     H87707   2.202  10.755   9.114  0.8500 -0.8028  1.0459
  650MOL0     H87708   2.430  10.741   9.098  0.4767 -0.8881  0.0740
  650MOL0     H87709   2.427  10.626   9.234  0.1672  0.7511  1.6969
  650MOL0     H87710   2.638  10.770   9.097 -1.0148  0.7214  0.3817
  650MOL0     H87711   2.885  10.750   9.119 -1.7190 -0.3664 -1.3858
  650MOL0     H87712   3.291  10.916   9.176 -1.4406  0.2162 -0.1823
  650MOL0     H87713   3.530  10.913   9.239  1.6344 -0.8610  0.3211
  650MOL0     H87714   3.802  10.692   9.519  0.3173 -2.7798  1.6781
  650MOL0     H87715   3.654  10.613   9.566  1.3799 -2.0463  0.0874
  650MOL0     H87716   3.683  10.460   9.350 -0.4175 -0.6767  1.0080
  650MOL0     H87717   3.819  10.557   9.315 -3.2777  1.3091 -2.0374
  650MOL0     H87718   3.910  10.503   9.550  0.8647 -0.4519 -0.6623
  650MOL0     H87719   3.773  10.406   9.588  0.0789  0.6722 -0.2789
  650MOL0     H87720   3.853  10.245   9.405  2.9568 -2.0154 -1.5977
  650MOL0     H87721   3.964  10.272   9.543  2.1864  0.3082 -0.4617
  650MOL0     H87722   4.109  10.418   9.390  1.7743 -1.2682 -1.8567
  650MOL0     H87723   3.993  10.405   9.260 -0.8676  0.7419  0.3374
  650MOL0     H87724   4.166  10.194   9.392  1.3834  0.7549 -1.2107
  650MOL0     H87725   4.024  10.136   9.288 -0.0981 -1.0263 -0.1315
  650MOL0     H87726   4.242  10.333   9.199 -0.9285 -0.0828  0.3234
  650MOL0     H87727   4.118  10.264   9.088  1.5929 -3.6958 -2.8614
  650MOL0     H87728   4.315  10.155   9.054 -2.6290 -1.0084 -1.3508
  650MOL0     H87729   4.331  10.090   9.217  1.9638  0.6988 -0.1994
  650MOL0     H87730   3.459  10.554   9.462 -0.0375 -3.3882 -4.4880
  650MOL0     H87731   3.215  10.573   9.420 -0.0337 -1.5611 -1.2206
  650MOL0     H87732   2.824  10.942   9.519 -0.9699 -1.4482  1.5657
  650MOL0     H87733   2.586  10.919   9.487  0.6353  1.0094  0.4318
  650MOL0     H87734   2.526  10.580   8.450 -0.4941  1.6544  0.4871
  650MOL0     H87735   2.759  10.577   8.362  1.1349 -1.6686  0.2465
  650MOL0     H87736   3.199  10.684   8.580  2.4286 -0.6463  1.8283
  650MOL0     H87737   3.440  10.762   8.558 -0.9285  1.3582  1.7911
  650MOL0     H87738   3.694  10.897   8.283  0.1320  0.3217  2.1440
  650MOL0     H87739   3.554  10.843   8.185  3.0089  3.8026 -1.6979
  650MOL0     H87740   3.727  10.768   8.061 -0.4185 -1.1839 -0.9882
  650MOL0     H87741   3.665  10.630   8.145  2.5580 -0.5064 -1.7432
  650MOL0     H87742   3.817  10.616   8.319 -1.3031  0.4593  0.0869
  650MOL0     H87743   3.904  10.758   8.274 -2.8713  2.4918 -0.4189
  650MOL0     H87744   3.901  10.502   8.121  0.8313  0.5120 -1.8698
  650MOL0     H87745   3.947  10.650   8.038  1.5320  1.5826  0.7809
  650MOL0     H87746   4.304  10.587   8.200 -0.0545 -1.6647  3.1314
  650MOL0     H87747   3.446  10.655   8.154  1.0430  0.7984  0.6284
  650MOL0     H87748   3.092  10.623   8.114 -2.1307 -1.8579  1.4528
  650MOL0     H87749   3.237  10.556   8.040  0.4428 -1.2595  0.4889
  650MOL0     H87750   3.134  10.458   8.150 -0.6880 -0.2671 -0.5206
  651MOL0     O87751   1.926   8.979   4.516 -0.7289 -0.7770  0.3186
  651MOL0     C87752   1.861   8.944   4.414 -0.4867  0.3019  1.0020
  651MOL0     O87753   1.895   8.985   4.284  0.1122 -0.1686  1.0327
  651MOL0     C87754   2.020   9.028   4.251 -0.4881 -0.5399  0.3207
  651MOL0     C87755   2.018   9.120   4.150 -0.3567  0.0336 -0.1395
  651MOL0     C87756   2.137   9.180   4.104 -0.1937 -0.4774  0.3116
  651MOL0     C87757   2.253   9.149   4.169  0.3799  0.4674 -0.3402
  651MOL0     O87758   2.366   9.219   4.134 -0.1830 -0.0221  0.1940
  651MOL0     C87759   2.477   9.142   4.090  0.7745  0.2341 -0.1147
  651MOL0     C87760   2.611   9.216   4.138 -0.1004 -0.4975  0.3774
  651MOL0     C87761   2.609   9.208   4.295  0.3907  0.3387 -0.3896
  651MOL0     C87762   2.677   9.077   4.342  0.3766 -0.0344 -0.5494
  651MOL0     C87763   2.708   9.052   4.495 -0.2702 -0.9121  0.0677
  651MOL0     C87764   2.594   9.003   4.581 -0.2204 -0.4053 -0.3679
  651MOL0     C87765   2.478   9.108   4.585  1.2532  0.4089 -0.8118
  651MOL0     C87766   2.411   9.099   4.720  0.5757 -0.1057 -0.1831
  651MOL0     N87767   2.363   8.969   4.767  0.2727  0.3357 -0.1673
  651MOL0     C87768   2.278   8.881   4.706  0.5179 -0.3731 -0.1960
  651MOL0     C87769   2.266   8.779   4.794 -0.1379 -0.2504 -1.4280
  651MOL0     C87770   2.189   8.652   4.780  0.0003 -0.9741 -0.6512
  651MOL0     C87771   2.275   8.528   4.788  0.4205 -0.0501 -0.0932
  651MOL0     C87772   2.361   8.488   4.665 -0.9109 -0.9377  0.7378
  651MOL0     C87773   2.496   8.563   4.665  1.3190 -0.2179 -0.9539
  651MOL0     O87774   2.599   8.478   4.625  0.0989  0.3178  0.1591
  651MOL0     C87775   2.722   8.532   4.628  0.6074  0.3191 -0.1550
  651MOL0     C87776   2.762   8.660   4.676  0.1381 -0.3958  0.3229
  651MOL0     C87777   2.888   8.702   4.659 -0.2200  0.1914 -0.5873
  651MOL0     C87778   2.984   8.618   4.596  0.7072  0.0632 -0.0021
  651MOL0     C87779   3.121   8.675   4.573  0.0983  0.9441 -0.1774
  651MOL0     O87780   3.140   8.807   4.591  0.1629  0.0352 -0.1233
  651MOL0     C87781   3.266   8.862   4.593  0.4841 -0.2474  0.0335
  651MOL0     C87782   3.394   8.802   4.604  0.2809  0.2085 -0.2395
  651MOL0     C87783   3.509   8.878   4.611  0.0258 -0.0419 -0.2127
  651MOL0     C87784   3.514   9.012   4.588  0.2235 -0.0317 -0.6888
  651MOL0     O87785   3.631   9.080   4.594  0.5906 -0.5385  0.1477
  651MOL0     C87786   3.726   9.042   4.685 -0.6928  0.5452  0.2633
  651MOL0     C87787   3.791   9.169   4.730 -0.2521 -0.3008  0.1413
  651MOL0     C87788   3.922   9.123   4.800  0.4749 -0.8281 -0.1125
  651MOL0     C87789   3.991   9.254   4.849  0.6794  0.1594 -0.3776
  651MOL0     C87790   4.122   9.229   4.931  1.0084  0.0517 -0.0123
  651MOL0     C87791   4.228   9.167   4.845  0.6214 -0.5368 -0.0806
  651MOL0     C87792   4.353   9.128   4.915 -0.1173 -0.3899 -0.0541
  651MOL0     C87793   4.432   9.243   4.956  0.6522 -0.1685  0.9239
  651MOL0    Cl87794   4.497   9.331   4.809 -0.3909  0.2476 -0.3683
  651MOL0     C87795   3.389   9.073   4.563 -1.3603  0.0152 -0.7275
  651MOL0     C87796   3.267   9.006   4.574 -0.0670  0.2571 -0.0821
  651MOL0     O87797   3.198   8.596   4.524  0.5356  0.5282 -0.0212
  651MOL0     C87798   2.944   8.483   4.573 -0.2668 -0.1565 -0.2328
  651MOL0     C87799   2.814   8.449   4.578 -0.1787  0.2358  0.5982
  651MOL0     N87800   2.347   8.806   4.897 -0.1086 -0.2288 -0.1292
  651MOL0     N87801   2.408   8.921   4.884 -0.3116 -0.0882 -0.0520
  651MOL0     C87802   2.253   9.048   4.271 -0.0392 -0.7730  0.9421
  651MOL0     C87803   2.136   8.987   4.313  0.6957  0.9544 -0.4927
  651MOL0     C87804   1.732   8.864   4.423  0.3130  1.0113  0.0581
  651MOL0     C87805   1.655   8.852   4.304 -0.0335  0.9198  0.0220
  651MOL0     C87806   1.530   8.792   4.292  0.4373 -0.2344  0.5275
  651MOL0     C87807   1.483   8.721   4.397  0.6079 -0.1436  1.2838
  651MOL0     O87808   1.361   8.646   4.376 -0.1558 -0.8953 -0.1331
  651MOL0     C87809   1.320   8.554   4.473 -0.0090  0.0834 -0.1027
  651MOL0     C87810   1.207   8.473   4.408  0.1696  0.3785  0.2464
  651MOL0     C87811   1.251   8.394   4.287  0.2793  0.1681  0.0220
  651MOL0     C87812   1.129   8.321   4.235 -0.7767  0.3928  0.6123
  651MOL0     C87813   1.089   8.200   4.314 -0.7084  0.2568 -0.4793
  651MOL0     C87814   1.083   8.092   4.364 -0.7832  1.1508  0.0254
  651MOL0     C87815   1.547   8.740   4.524  0.0390  0.4900  1.1324
  651MOL0     C87816   1.672   8.808   4.536  1.0051 -0.1880 -0.7059
  651MOL0     C87817   1.738   8.814   4.669 -0.1653  0.2978 -1.1252
  651MOL0     H87818   1.918   9.145   4.115 -1.0352 -3.0491 -0.7469
  651MOL0     H87819   2.132   9.256   4.027 -0.9247 -0.0725  0.7501
  651MOL0     H87820   2.471   9.042   4.133 -1.8543 -0.0604 -0.9993
  651MOL0     H87821   2.461   9.134   3.982  0.2508 -0.8176  0.0314
  651MOL0     H87822   2.619   9.322   4.111 -0.9914 -0.2870  0.9022
  651MOL0     H87823   2.698   9.159   4.103  0.0778 -0.6490  1.0519
  651MOL0     H87824   2.511   9.224   4.341  0.9858  0.9852  0.6985
  651MOL0     H87825   2.667   9.287   4.345 -0.8216 -0.6129  2.7926
  651MOL0     H87826   2.604   9.001   4.311 -1.8318  1.2243  1.2664
  651MOL0     H87827   2.774   9.057   4.295  0.9691 -0.2304  0.7246
  651MOL0     H87828   2.777   8.967   4.487 -0.2805 -0.7694 -2.2432
  651MOL0     H87829   2.757   9.137   4.544  0.4163 -1.5276  0.4740
  651MOL0     H87830   2.566   8.903   4.546  0.7421 -0.5319 -0.7850
  651MOL0     H87831   2.624   8.997   4.686 -0.2167  4.0972  0.0701
  651MOL0     H87832   2.416   9.078   4.500  1.2176  1.9405 -1.3613
  651MOL0     H87833   2.510   9.212   4.576 -0.3545  0.9843 -0.1866
  651MOL0     H87834   2.467   9.160   4.792  0.3069 -1.9552  1.6923
  651MOL0     H87835   2.316   9.150   4.705  1.6321  1.8831 -0.5089
  651MOL0     H87836   2.235   8.885   4.606 -0.4709 -0.5286  0.2179
  651MOL0     H87837   2.118   8.642   4.862  1.5566  1.4356  1.1180
  651MOL0     H87838   2.129   8.663   4.689 -1.0001 -0.8324  0.0162
  651MOL0     H87839   2.336   8.518   4.878 -1.9089  2.5556  1.9585
  651MOL0     H87840   2.208   8.443   4.809 -0.6848  1.1317  1.4181
  651MOL0     H87841   2.311   8.500   4.569 -0.8935 -3.8942  0.2583
  651MOL0     H87842   2.395   8.384   4.663  1.5134 -0.2503 -2.8916
  651MOL0     H87843   2.511   8.597   4.768 -2.8630  0.2310 -0.3360
  651MOL0     H87844   2.492   8.652   4.601 -0.7379  1.6385  1.5336
  651MOL0     H87845   2.700   8.723   4.739  2.5503  0.9101  1.5340
  651MOL0     H87846   2.917   8.795   4.706 -1.1265 -0.2355  0.8788
  651MOL0     H87847   3.399   8.694   4.602 -1.9045  0.0301  0.6729
  651MOL0     H87848   3.606   8.830   4.625  0.6002  1.9226  4.9015
  651MOL0     H87849   3.673   8.987   4.763 -2.5429 -0.4520 -1.5770
  651MOL0     H87850   3.795   8.977   4.631 -1.2802  0.9216 -0.9843
  651MOL0     H87851   3.828   9.221   4.641  0.1138 -1.1466 -0.2089
  651MOL0     H87852   3.714   9.233   4.774  0.1632  2.8022 -3.1235
  651MOL0     H87853   3.898   9.062   4.888 -1.7862  2.2664  1.6563
  651MOL0     H87854   3.978   9.068   4.724 -1.4509  1.8759 -3.8751
  651MOL0     H87855   3.919   9.310   4.910  0.5564 -0.2838 -0.1104
  651MOL0     H87856   4.003   9.318   4.761  0.6955 -1.0974 -1.3228
  651MOL0     H87857   4.102   9.161   5.014  0.8100 -3.4563 -2.7070
  651MOL0     H87858   4.156   9.325   4.971  0.7731 -0.6258  1.9374
  651MOL0     H87859   4.186   9.075   4.802 -0.3095  0.1984 -0.7699
  651MOL0     H87860   4.240   9.232   4.758  0.1190  1.0357  0.9911
  651MOL0     H87861   4.418   9.083   4.840 -0.6030  0.8682 -1.2804
  651MOL0     H87862   4.337   9.056   4.995 -1.5919  0.8502  0.8106
  651MOL0     H87863   4.379   9.315   5.019 -2.3648 -0.1610 -1.4014
  651MOL0     H87864   4.516   9.197   5.008  0.2325 -0.9904  0.8903
  651MOL0     H87865   3.373   9.180   4.560 -1.7317 -0.0433 -0.9143
  651MOL0     H87866   3.170   9.053   4.586  0.2512  0.9896 -0.3670
  651MOL0     H87867   3.031   8.431   4.533 -1.2164 -0.6080 -1.8422
  651MOL0     H87868   2.783   8.351   4.546  3.5847 -1.1567  0.7308
  651MOL0     H87869   2.350   9.030   4.316  0.1477 -0.1442  0.8003
  651MOL0     H87870   2.150   8.923   4.399 -1.6910  0.4764 -0.3768
  651MOL0     H87871   1.692   8.895   4.212  0.2332 -0.1877 -0.4126
  651MOL0     H87872   1.484   8.790   4.194  0.3161  2.7025  0.4215
  651MOL0     H87873   1.295   8.606   4.567  1.0897 -2.5040  1.7420
  651MOL0     H87874   1.400   8.487   4.506 -1.8104 -2.0174  0.2777
  651MOL0     H87875   1.126   8.543   4.386  0.0350  0.2055  0.1855
  651MOL0     H87876   1.159   8.404   4.478  0.0472  1.4708  1.2644
  651MOL0     H87877   1.339   8.333   4.309  1.9789  1.9265 -1.5395
  651MOL0     H87878   1.280   8.469   4.213 -0.1087  0.3955  0.0950
  651MOL0     H87879   1.045   8.391   4.226 -0.3112  0.9198  0.2440
  651MOL0     H87880   1.157   8.292   4.133 -1.1638  1.1686  0.2742
  651MOL0     H87881   1.079   7.992   4.402 -2.5861  1.5447  0.9834
  651MOL0     H87882   1.501   8.687   4.607  3.9432 -0.7514  2.7396
  651MOL0     H87883   1.838   8.777   4.647 -0.1623  1.1363 -2.6453
  651MOL0     H87884   1.756   8.915   4.708  0.9435  0.8522 -2.9396
  651MOL0     H87885   1.687   8.746   4.738  0.7432  0.9651  0.2553
  652MOL0     O87886   0.643   6.352   3.862  0.0262 -0.6117 -0.3095
  652MOL0     C87887   0.630   6.235   3.823 -0.7325 -0.0500  0.1952
  652MOL0     O87888   0.626   6.122   3.897  0.1070 -0.0780 -0.4005
  652MOL0     C87889   0.669   6.140   4.025 -0.2882 -0.3210  0.6495
  652MOL0     C87890   0.791   6.208   4.061  0.1241  0.2953 -0.1986
  652MOL0     C87891   0.821   6.224   4.201  0.3082  0.4292  0.2705
  652MOL0     C87892   0.744   6.166   4.295 -0.1003  0.4720  0.2582
  652MOL0     O87893   0.795   6.164   4.424  0.4296 -0.5143  0.5268
  652MOL0     C87894   0.693   6.174   4.528 -0.4954  0.1207 -0.2610
  652MOL0     C87895   0.759   6.114   4.653  0.1342 -0.2608 -0.5245
  652MOL0     C87896   0.826   5.979   4.641  1.0502  0.6337 -0.1816
  652MOL0     C87897   0.731   5.859   4.601 -1.1069 -0.4495 -0.6524
  652MOL0     C87898   0.818   5.727   4.564  1.1056  0.1375  0.1255
  652MOL0     C87899   0.920   5.693   4.669  0.3509 -0.0242  0.1726
  652MOL0     C87900   1.004   5.567   4.630 -0.3439  0.4836 -0.0900
  652MOL0     C87901   1.136   5.543   4.709 -1.3109 -0.6843  0.4220
  652MOL0     N87902   1.236   5.645   4.693 -0.3390  0.0830 -0.3260
  652MOL0     C87903   1.274   5.691   4.563  0.5327 -0.8064 -0.0706
  652MOL0     C87904   1.366   5.785   4.599  0.5932 -1.1085  0.2014
  652MOL0     C87905   1.446   5.869   4.495  0.1911 -0.4559 -0.6467
  652MOL0     C87906   1.600   5.844   4.512  0.2799 -0.1059 -0.2328
  652MOL0     C87907   1.668   5.888   4.642  0.0574 -0.4204 -0.1860
  652MOL0     C87908   1.827   5.887   4.619  0.4477 -0.1617 -0.4786
  652MOL0     O87909   1.880   5.939   4.749 -0.4916  0.0465 -0.2849
  652MOL0     C87910   2.013   5.903   4.772  0.5647  0.1817  0.7844
  652MOL0     C87911   2.071   5.918   4.898  0.1433 -0.3078  0.0029
  652MOL0     C87912   2.205   5.883   4.925 -0.2014  0.0878  0.0879
  652MOL0     C87913   2.291   5.840   4.828  0.1180 -0.4199 -0.0644
  652MOL0     C87914   2.429   5.804   4.850  0.0208  0.8448 -0.5912
  652MOL0     O87915   2.479   5.717   4.760 -0.4342  0.2793  0.3556
  652MOL0     C87916   2.598   5.646   4.778  0.8389 -0.4077  0.0320
  652MOL0     C87917   2.648   5.584   4.893  0.1034  0.2395 -1.0298
  652MOL0     C87918   2.766   5.499   4.894 -0.0935  0.9050  1.2090
  652MOL0     C87919   2.810   5.457   4.770 -0.4718  0.7405 -0.0194
  652MOL0     O87920   2.911   5.366   4.768  0.1019  0.4312  0.2534
  652MOL0     C87921   3.033   5.391   4.842  0.1206  0.1578  0.2732
  652MOL0     C87922   3.137   5.276   4.840 -0.4588  0.1831 -0.0607
  652MOL0     C87923   3.084   5.151   4.918  0.2892 -0.1899  0.1570
  652MOL0     C87924   3.192   5.048   4.956  0.1363 -0.1130 -0.5120
  652MOL0     C87925   3.148   4.956   5.062 -0.2834  0.2484  0.7246
  652MOL0     C87926   3.237   4.828   5.079  0.7145  0.1193  0.1818
  652MOL0     C87927   3.383   4.850   5.139  0.0672 -0.5464 -0.5391
  652MOL0     C87928   3.376   4.909   5.285  0.1272 -0.2541  0.6910
  652MOL0    Cl87929   3.546   4.963   5.316  0.3804  0.3352 -0.1054
  652MOL0     C87930   2.759   5.506   4.647 -1.0701 -0.4279 -0.0991
  652MOL0     C87931   2.660   5.605   4.655  0.0288 -0.2849 -0.0677
  652MOL0     O87932   2.488   5.847   4.957 -0.1320  0.0790  0.4879
  652MOL0     C87933   2.243   5.843   4.700  0.6392  0.1897 -0.5128
  652MOL0     C87934   2.109   5.872   4.669  0.8179  0.9476 -0.5473
  652MOL0     N87935   1.377   5.801   4.738  0.9438  0.4870  0.0388
  652MOL0     N87936   1.308   5.711   4.789  0.5032 -0.3456 -0.4080
  652MOL0     C87937   0.623   6.094   4.255 -0.8002  0.0952 -0.6275
  652MOL0     C87938   0.597   6.073   4.123  0.0010 -0.3638 -0.4164
  652MOL0     C87939   0.608   6.222   3.676 -0.2438  0.9811 -0.0360
  652MOL0     C87940   0.606   6.341   3.595 -0.1312 -0.5887 -0.7840
  652MOL0     C87941   0.555   6.350   3.464  0.0945  0.0833 -0.2246
  652MOL0     C87942   0.537   6.226   3.396  0.8714  0.0481 -1.1982
  652MOL0     O87943   0.484   6.213   3.270  1.2294 -0.6127 -0.0439
  652MOL0     C87944   0.505   6.310   3.166  0.3846 -0.8797 -0.4434
  652MOL0     C87945   0.394   6.408   3.155  0.0825 -1.3557 -0.1577
  652MOL0     C87946   0.278   6.337   3.098  0.5874 -0.3788 -0.1070
  652MOL0     C87947   0.177   6.437   3.062  0.4167  0.3473  0.4477
  652MOL0     C87948   0.051   6.376   3.025 -0.9044  0.1597 -0.0655
  652MOL0     C87949  -0.058   6.328   3.012 -0.2060  0.4925 -0.1062
  652MOL0     C87950   0.551   6.105   3.470  0.4326 -0.0693  0.4956
  652MOL0     C87951   0.580   6.096   3.606 -0.2449  0.2673  0.0556
  652MOL0     C87952   0.586   5.965   3.675 -0.5531 -0.5458  0.2748
  652MOL0     H87953   0.854   6.264   3.992  0.3594 -0.4294 -0.5825
  652MOL0     H87954   0.912   6.260   4.246  1.1601 -1.2700 -0.0058
  652MOL0     H87955   0.678   6.281   4.546 -0.0086  0.1921 -0.2644
  652MOL0     H87956   0.600   6.123   4.499 -0.9175  1.3262 -1.1174
  652MOL0     H87957   0.690   6.117   4.738 -0.7798  1.9327 -1.2506
  652MOL0     H87958   0.835   6.186   4.685 -1.3074  0.9132  0.4504
  652MOL0     H87959   0.847   5.958   4.746 -2.9936 -0.2441  0.6444
  652MOL0     H87960   0.909   5.980   4.570  1.7860 -1.1943  0.5972
  652MOL0     H87961   0.661   5.840   4.683 -0.2059 -0.2299  0.2004
  652MOL0     H87962   0.669   5.885   4.515  0.0227  2.4145 -0.7024
  652MOL0     H87963   0.753   5.642   4.541  0.9073  0.9106 -2.5313
  652MOL0     H87964   0.882   5.757   4.480 -0.8288  2.9376 -0.5069
  652MOL0     H87965   0.991   5.775   4.682 -0.8814  1.2055 -0.6572
  652MOL0     H87966   0.875   5.677   4.768  0.7509  1.9994  0.7224
  652MOL0     H87967   1.042   5.574   4.528  1.6266 -0.9310  0.4683
  652MOL0     H87968   0.943   5.476   4.636  1.2502 -0.6628 -0.7092
  652MOL0     H87969   1.119   5.526   4.815 -0.5833 -4.2192  0.0859
  652MOL0     H87970   1.186   5.453   4.671 -2.5773 -0.2669 -2.5389
  652MOL0     H87971   1.236   5.663   4.465  0.1710  0.1897 -0.2380
  652MOL0     H87972   1.414   5.823   4.401 -3.7352 -3.8167  1.9642
  652MOL0     H87973   1.419   5.975   4.493  2.2842  0.2087  1.3431
  652MOL0     H87974   1.610   5.736   4.500 -1.4830 -0.5118  1.3693
  652MOL0     H87975   1.643   5.902   4.430 -3.6767  3.4898 -0.1319
  652MOL0     H87976   1.633   5.822   4.721  0.7844  1.6555  1.9877
  652MOL0     H87977   1.632   5.984   4.681 -1.4449  0.1956 -2.8345
  652MOL0     H87978   1.863   5.954   4.540  0.6836 -0.3662 -0.5482
  652MOL0     H87979   1.872   5.788   4.607  2.7095  0.8989 -1.3289
  652MOL0     H87980   2.026   5.943   4.994 -0.4412  4.2517 -1.2245
  652MOL0     H87981   2.238   5.884   5.029  1.2995  0.5854 -0.3639
  652MOL0     H87982   2.597   5.584   4.989  1.5288 -1.1225 -0.2183
  652MOL0     H87983   2.803   5.464   4.990  1.7483 -0.1233  0.1865
  652MOL0     H87984   3.084   5.476   4.796  1.8816  2.2301  5.3312
  652MOL0     H87985   3.025   5.416   4.948  0.2967  0.0396  0.3163
  652MOL0     H87986   3.154   5.237   4.739 -1.0717  1.6095 -0.7330
  652MOL0     H87987   3.230   5.303   4.891 -0.3329  0.6226 -0.5228
  652MOL0     H87988   3.029   5.190   5.005  1.8397 -0.4727  1.3029
  652MOL0     H87989   3.004   5.112   4.855 -0.9597  4.0686 -1.2760
  652MOL0     H87990   3.282   5.091   5.001  0.5780  0.1511 -1.6231
  652MOL0     H87991   3.220   4.975   4.879  0.5254 -0.3711 -0.1356
  652MOL0     H87992   3.043   4.927   5.049 -0.1986 -0.6068  1.7805
  652MOL0     H87993   3.144   5.007   5.159  1.8384  0.1179  0.9263
  652MOL0     H87994   3.187   4.755   5.144 -0.5172  2.6670  2.3025
  652MOL0     H87995   3.254   4.775   4.985  2.8812  0.5754  0.2680
  652MOL0     H87996   3.426   4.921   5.068 -0.9911 -0.8346 -1.5025
  652MOL0     H87997   3.439   4.757   5.132 -2.6830 -2.2849 -0.8440
  652MOL0     H87998   3.308   4.995   5.287  1.0756  0.5177  0.5706
  652MOL0     H87999   3.343   4.835   5.359  0.5473  0.8098  1.9964
  652MOL0     H88000   2.809   5.482   4.554  0.6631  3.6228 -0.3790
  652MOL0     H88001   2.616   5.642   4.563 -1.0502 -1.0786  0.1110
  652MOL0     H88002   2.306   5.815   4.616 -1.0154  0.3597 -1.8649
  652MOL0     H88003   2.089   5.876   4.562 -1.7429 -0.3918 -0.1752
  652MOL0     H88004   0.564   6.037   4.326  0.1762 -0.9989 -0.6522
  652MOL0     H88005   0.506   6.020   4.096 -1.7036  3.4351 -3.0188
  652MOL0     H88006   0.629   6.441   3.631  0.2921 -0.4899 -1.3121
  652MOL0     H88007   0.552   6.443   3.409  0.0907 -1.9171 -3.9080
  652MOL0     H88008   0.512   6.265   3.067 -4.4262 -1.6817 -0.6644
  652MOL0     H88009   0.601   6.358   3.188  0.5496 -1.5126  0.2545
  652MOL0     H88010   0.429   6.489   3.090 -1.0498 -1.3714 -0.8125
  652MOL0     H88011   0.363   6.447   3.252  1.8148  1.1310 -0.5251
  652MOL0     H88012   0.229   6.269   3.168  0.3877 -1.0887 -0.9228
  652MOL0     H88013   0.307   6.280   3.009  0.8608 -0.3909 -0.0102
  652MOL0     H88014   0.174   6.517   3.135 -0.8485  0.3026  0.4621
  652MOL0     H88015   0.208   6.491   2.972  1.4697 -1.2757 -0.2182
  652MOL0     H88016  -0.159   6.292   3.001 -2.0965  3.8718  3.7918
  652MOL0     H88017   0.516   6.019   3.414 -0.8377  0.5096  0.3551
  652MOL0     H88018   0.524   5.961   3.765 -3.9522 -0.7110 -1.8948
  652MOL0     H88019   0.550   5.885   3.610 -0.1731  0.7514 -1.6224
  652MOL0     H88020   0.689   5.941   3.702 -0.5072 -0.8853 -0.1910
  653MOL0     O88021   3.908  10.967   2.454 -0.2184  0.8566 -0.1159
  653MOL0     C88022   3.829  10.881   2.410  1.0044 -0.0776 -1.1217
  653MOL0     O88023   3.862  10.764   2.335 -0.0529  0.1268 -0.2801
  653MOL0     C88024   3.969  10.758   2.249 -0.5352 -0.3244  0.5788
  653MOL0     C88025   4.007  10.629   2.215  0.4464 -0.0777  1.3268
  653MOL0     C88026   4.105  10.610   2.107  0.0851 -0.5904 -0.3199
  653MOL0     C88027   4.169  10.719   2.045 -0.3184 -0.2741 -0.0658
  653MOL0     O88028   4.275  10.690   1.959  0.3819 -0.0506  0.2642
  653MOL0     C88029   4.392  10.770   1.976 -0.1669 -0.1480  0.3551
  653MOL0     C88030   4.510  10.685   1.934 -0.3826  1.4278  0.2553
  653MOL0     C88031   4.641  10.752   1.974  0.2498 -0.1053 -0.4099
  653MOL0     C88032   4.670  10.729   2.119  0.5948 -1.0198 -0.5367
  653MOL0     C88033   4.795  10.813   2.147  0.4991  0.2431  0.8381
  653MOL0     C88034   4.925  10.754   2.080  0.5191  0.0173  0.3194
  653MOL0     C88035   5.055  10.809   2.150 -0.7748  0.3585  0.2963
  653MOL0     C88036   5.177  10.760   2.069 -1.2023 -0.0099  1.1284
  653MOL0     N88037   5.296  10.822   2.133  0.5365  0.1604  0.0951
  653MOL0     C88038   5.343  10.758   2.240 -0.4439  0.5065 -0.7139
  653MOL0     C88039   5.454  10.831   2.282  0.2520 -0.2662  0.2183
  653MOL0     C88040   5.533  10.816   2.397  0.3212  0.5742 -0.1028
  653MOL0     C88041   5.656  10.722   2.362  0.1851  0.3712  0.0686
  653MOL0     C88042   5.715  10.677   2.500  0.2306  0.2763 -0.5403
  653MOL0     C88043   5.859  10.616   2.490 -0.2302 -0.1605 -0.6744
  653MOL0     O88044   5.860  10.535   2.375  0.1442 -0.1576  0.6373
  653MOL0     C88045   5.962  10.455   2.360  0.6193  0.1283  0.4483
  653MOL0     C88046   5.920  10.332   2.318 -0.4245 -0.1815  0.0826
  653MOL0     C88047   6.012  10.238   2.281  0.4073  0.7833 -0.5173
  653MOL0     C88048   6.154  10.264   2.296 -0.2208  0.1012 -0.6157
  653MOL0     C88049   6.248  10.160   2.251 -1.0674 -0.6756 -1.2289
  653MOL0     O88050   6.359  10.214   2.196  0.2763  0.1389  0.9371
  653MOL0     C88051   6.464  10.137   2.174  0.1969  0.2146  0.0996
  653MOL0     C88052   6.472  10.070   2.055 -0.2033 -0.6657 -1.1133
  653MOL0     C88053   6.580   9.991   2.027  0.3745  0.0337  0.2107
  653MOL0     C88054   6.676   9.963   2.119 -0.4272 -0.1238  0.8489
  653MOL0     O88055   6.776   9.879   2.095 -0.5424  0.3180  0.3342
  653MOL0     C88056   6.785   9.760   2.169 -0.2769 -0.1077  0.6376
  653MOL0     C88057   6.867   9.661   2.090  0.0500  0.2922  0.1818
  653MOL0     C88058   7.024   9.686   2.070  0.7322  0.5679 -0.2518
  653MOL0     C88059   7.064   9.776   1.950  0.4089  0.1592 -0.0946
  653MOL0     C88060   7.215   9.815   1.929 -0.3876  0.9192  0.2212
  653MOL0     C88061   7.268   9.928   2.024  0.0688  0.4597 -0.7360
  653MOL0     C88062   7.408   9.919   2.087  0.6150 -0.4971  0.3682
  653MOL0     C88063   7.526   9.968   1.994  0.5456  0.0128  1.1241
  653MOL0    Cl88064   7.677   9.901   2.033  0.0996 -0.2087 -0.2258
  653MOL0     C88065   6.672  10.028   2.245  0.4860  0.4560 -0.6043
  653MOL0     C88066   6.571  10.116   2.270  0.3429 -0.2769  0.2162
  653MOL0     O88067   6.220  10.046   2.263 -0.1853  0.2175  0.2565
  653MOL0     C88068   6.204  10.393   2.353  0.6155 -0.2087 -0.8465
  653MOL0     C88069   6.098  10.481   2.381 -0.4536  0.1074 -0.8978
  653MOL0     N88070   5.464  10.930   2.192 -0.0192 -0.4757 -0.1202
  653MOL0     N88071   5.375  10.929   2.100  0.0005  0.4749  0.9807
  653MOL0     C88072   4.121  10.851   2.079 -0.3338 -0.3697 -0.4979
  653MOL0     C88073   4.018  10.868   2.174 -0.6070  0.4357 -0.3754
  653MOL0     C88074   3.682  10.905   2.441  0.0469  0.8130  0.5014
  653MOL0     C88075   3.645  11.008   2.534 -0.6983  0.6915 -0.3718
  653MOL0     C88076   3.513  11.033   2.567  0.0210 -0.1643 -0.7001
  653MOL0     C88077   3.396  10.971   2.506  1.3750 -0.0110 -0.7262
  653MOL0     O88078   3.266  11.000   2.531 -0.4671  0.5578  0.1206
  653MOL0     C88079   3.247  11.077   2.654 -0.4630 -0.6035  0.0216
  653MOL0     C88080   3.093  11.115   2.665 -0.6371  0.4724  0.5540
  653MOL0     C88081   3.005  10.984   2.689  0.8071  0.6777 -0.5460
  653MOL0     C88082   2.863  11.019   2.707 -0.3398 -0.2457 -0.3255
  653MOL0     C88083   2.794  10.897   2.749 -0.0936  0.0168  0.4029
  653MOL0     C88084   2.732  10.794   2.773 -0.1962 -0.7860  0.1057
  653MOL0     C88085   3.431  10.876   2.405  0.5170  0.7845  0.6654
  653MOL0     C88086   3.564  10.850   2.367  0.9430  0.6171 -0.6093
  653MOL0     C88087   3.573  10.768   2.239  0.0865 -0.1963 -0.2473
  653MOL0     H88088   3.978  10.539   2.269  0.3480 -1.2607 -0.6015
  653MOL0     H88089   4.143  10.513   2.077 -0.9580 -0.6010 -1.7282
  653MOL0     H88090   4.386  10.861   1.916  3.1757 -0.4373 -0.6439
  653MOL0     H88091   4.396  10.797   2.082  2.1264 -3.2581  1.2331
  653MOL0     H88092   4.506  10.680   1.824 -1.1076  0.7467  0.3046
  653MOL0     H88093   4.498  10.583   1.969 -1.5565  2.1182  1.9867
  653MOL0     H88094   4.628  10.859   1.956 -1.4986 -0.1180  0.4800
  653MOL0     H88095   4.717  10.710   1.908 -1.3765  0.6122 -2.8702
  653MOL0     H88096   4.590  10.762   2.185  0.2324  0.6281 -1.7288
  653MOL0     H88097   4.674  10.621   2.138 -1.2385 -1.2851 -1.3791
  653MOL0     H88098   4.784  10.918   2.119  1.6766 -0.1338 -1.2769
  653MOL0     H88099   4.797  10.812   2.256 -0.8722 -0.8226  0.8806
  653MOL0     H88100   4.920  10.647   2.103 -3.3459 -0.2454 -1.0166
  653MOL0     H88101   4.926  10.772   1.972 -0.0967 -2.1922 -0.1118
  653MOL0     H88102   5.055  10.774   2.253 -2.1519  0.0180  0.2093
  653MOL0     H88103   5.056  10.919   2.148  0.2468  0.4052  1.9221
  653MOL0     H88104   5.186  10.651   2.073  0.9226  0.1154  0.7802
  653MOL0     H88105   5.165  10.797   1.967  0.3661  0.2894  1.0282
  653MOL0     H88106   5.301  10.671   2.289 -1.2455 -0.7499 -3.4267
  653MOL0     H88107   5.556  10.915   2.436 -0.6780  0.0661  1.9091
  653MOL0     H88108   5.487  10.773   2.486  0.4732 -0.1885 -0.3811
  653MOL0     H88109   5.618  10.639   2.301  0.5611 -2.5259  3.4798
  653MOL0     H88110   5.740  10.778   2.321  1.5463 -0.0323  2.1676
  653MOL0     H88111   5.655  10.592   2.534  0.3108 -0.4756 -2.2086
  653MOL0     H88112   5.716  10.751   2.581  5.4841  0.7568 -0.7169
  653MOL0     H88113   5.890  10.559   2.578 -2.2572 -0.9051 -0.3885
  653MOL0     H88114   5.931  10.697   2.477  0.6114 -0.4870  1.5846
  653MOL0     H88115   5.813  10.329   2.302 -0.2717 -1.3087 -0.9217
  653MOL0     H88116   5.992  10.139   2.239 -0.8657  0.5340  0.6187
  653MOL0     H88117   6.406  10.095   1.973  3.0629  5.4428 -2.4656
  653MOL0     H88118   6.594   9.948   1.928 -3.2263  3.9257 -2.3469
  653MOL0     H88119   6.823   9.795   2.266 -0.4359  3.2721 -0.3821
  653MOL0     H88120   6.684   9.720   2.181 -0.1363 -0.6267  0.0919
  653MOL0     H88121   6.859   9.570   2.150  2.3599  0.1623  0.3708
  653MOL0     H88122   6.820   9.640   1.994  0.1466 -1.4763  0.4843
  653MOL0     H88123   7.051   9.741   2.162 -0.9437  1.1069 -0.0601
  653MOL0     H88124   7.072   9.588   2.070 -3.5173 -1.7769  1.9002
  653MOL0     H88125   7.018   9.874   1.959  0.9711  0.2417  2.5508
  653MOL0     H88126   7.029   9.728   1.858  0.1835 -0.7770  0.4702
  653MOL0     H88127   7.229   9.843   1.824 -0.4386  0.4830  0.0952
  653MOL0     H88128   7.275   9.725   1.946 -2.0172 -0.1480  0.6001
  653MOL0     H88129   7.269  10.021   1.966  0.5809  1.0592  0.1985
  653MOL0     H88130   7.198   9.954   2.104  0.3186 -2.9810  0.7659
  653MOL0     H88131   7.421   9.814   2.111  4.1896  0.1134  1.6876
  653MOL0     H88132   7.414   9.981   2.177  4.1867 -0.3973  0.1741
  653MOL0     H88133   7.492   9.938   1.895 -0.3119 -0.2806  1.4930
  653MOL0     H88134   7.540  10.077   1.990  4.7814 -0.3404 -3.9223
  653MOL0     H88135   6.735  10.014   2.332 -0.7682 -0.3786  0.2073
  653MOL0     H88136   6.560  10.166   2.365  0.7635  0.7055 -0.2430
  653MOL0     H88137   6.307  10.425   2.363  0.4253  0.5323 -1.2217
  653MOL0     H88138   6.105  10.583   2.417 -0.4354 -0.4340  0.6887
  653MOL0     H88139   4.176  10.937   2.044  2.7378 -1.2768  1.7083
  653MOL0     H88140   3.980  10.968   2.194 -1.3866  0.0845 -0.0708
  653MOL0     H88141   3.713  11.084   2.569 -2.1468  1.7346  0.2852
  653MOL0     H88142   3.505  11.110   2.643 -0.2465 -1.9878  1.2352
  653MOL0     H88143   3.310  11.163   2.679 -2.7802  0.8852  1.0813
  653MOL0     H88144   3.259  11.011   2.740 -1.9133 -1.3016 -0.2730
  653MOL0     H88145   3.059  11.175   2.581  0.3946  0.4823  0.1394
  653MOL0     H88146   3.084  11.185   2.749  0.2699  0.5750  0.5748
  653MOL0     H88147   3.039  10.928   2.777 -0.7870 -1.6109 -1.2957
  653MOL0     H88148   3.011  10.912   2.607 -0.0106 -2.9921  2.3391
  653MOL0     H88149   2.855  11.099   2.781 -1.4505  1.4670 -2.2167
  653MOL0     H88150   2.821  11.055   2.613 -1.9270 -2.3954 -0.5358
  653MOL0     H88151   2.662  10.716   2.790 -2.4094  0.6797 -1.6932
  653MOL0     H88152   3.357  10.829   2.340  2.8251  0.1176 -1.6596
  653MOL0     H88153   3.591  10.664   2.267 -3.2947 -1.3467 -1.6809
  653MOL0     H88154   3.481  10.766   2.180  0.0135 -0.3474 -0.1295
  653MOL0     H88155   3.652  10.802   2.172 -1.4818  1.1865 -1.4999
  654MOL0     O88156   8.756   0.997   6.467  0.6532  0.0527 -0.0967
  654MOL0     C88157   8.732   0.979   6.589 -0.0836  1.0142 -0.8162
  654MOL0     O88158   8.809   0.896   6.668  0.7158 -1.1204  0.0442
  654MOL0     C88159   8.932   0.855   6.626 -0.1445 -0.1633  0.4630
  654MOL0     C88160   9.052   0.899   6.676 -0.0315 -0.2251  0.7043
  654MOL0     C88161   9.174   0.829   6.636  0.3290 -0.5789 -0.4341
  654MOL0     C88162   9.172   0.728   6.545  0.2906  0.1794  0.0609
  654MOL0     O88163   9.286   0.663   6.525 -0.2342  0.5104  0.2151
  654MOL0     C88164   9.348   0.712   6.407  0.5232 -0.1367 -0.2965
  654MOL0     C88165   9.436   0.605   6.371 -0.5329  0.1537 -0.2238
  654MOL0     C88166   9.572   0.608   6.444 -1.4921 -0.3416  0.3482
  654MOL0     C88167   9.660   0.477   6.413  0.4448 -0.3269 -0.3250
  654MOL0     C88168   9.782   0.472   6.509  0.5263  0.0043  0.1769
  654MOL0     C88169   9.869   0.597   6.491  0.7852 -0.3826 -0.2988
  654MOL0     C88170   9.997   0.562   6.542 -0.1008 -0.1241  0.0407
  654MOL0     C88171  10.091   0.679   6.532 -0.0318 -1.0107 -0.4842
  654MOL0     N88172  10.231   0.636   6.570  0.2021  0.3310  0.1153
  654MOL0     C88173  10.257   0.582   6.685 -0.5287 -0.1600 -0.2095
  654MOL0     C88174  10.395   0.570   6.690 -0.9259 -0.4424  0.8983
  654MOL0     C88175  10.486   0.529   6.809  0.5418  0.7980  0.5317
  654MOL0     C88176  10.566   0.403   6.780 -0.6906  0.6843  0.6671
  654MOL0     C88177  10.688   0.415   6.694  0.1835 -0.0746 -0.8892
  654MOL0     C88178  10.747   0.283   6.670  0.0164 -0.2519  0.0291
  654MOL0     O88179  10.874   0.308   6.600 -0.6060  0.0840  0.3613
  654MOL0     C88180  10.986   0.356   6.666  0.1869  0.6474  0.2085
  654MOL0     C88181  11.010   0.348   6.803  1.0264  0.4070  0.1608
  654MOL0     C88182  11.136   0.385   6.843  0.5426  0.3748  0.3409
  654MOL0     C88183  11.243   0.434   6.757  0.5152 -0.9944  0.4626
  654MOL0     C88184  11.378   0.470   6.802  0.7868 -0.6337 -0.3779
  654MOL0     O88185  11.472   0.502   6.715  0.1517  0.0356 -0.4358
  654MOL0     C88186  11.604   0.506   6.745  0.4753  0.2265  0.3124
  654MOL0     C88187  11.688   0.574   6.654 -0.7333 -0.0420  0.4785
  654MOL0     C88188  11.833   0.575   6.672  0.9782 -0.0329  0.6734
  654MOL0     C88189  11.892   0.511   6.785  1.0687 -0.3369  0.3447
  654MOL0     O88190  12.023   0.511   6.821 -0.3544  0.2057 -0.0253
  654MOL0     C88191  12.115   0.590   6.760  0.0841  0.6341 -0.3866
  654MOL0     C88192  12.267   0.548   6.775  0.1047 -0.0134 -0.1443
  654MOL0     C88193  12.361   0.658   6.726 -0.1083 -0.3431  0.5751
  654MOL0     C88194  12.504   0.635   6.782  1.0311  0.6183  1.1435
  654MOL0     C88195  12.587   0.760   6.753  0.6981 -0.3139 -0.4878
  654MOL0     C88196  12.745   0.752   6.780  0.5623  0.0669  0.2796
  654MOL0     C88197  12.811   0.668   6.677  0.5970 -0.3954  1.1651
  654MOL0     C88198  12.959   0.644   6.701 -0.1562  0.3345  0.1061
  654MOL0    Cl88199  13.061   0.786   6.726  0.1970 -0.1002 -0.1665
  654MOL0     C88200  11.805   0.460   6.880  0.0847  0.0392 -0.6367
  654MOL0     C88201  11.667   0.445   6.860  0.3195  0.3833 -0.1263
  654MOL0     O88202  11.391   0.467   6.926  0.4766 -0.5343  0.4793
  654MOL0     C88203  11.216   0.438   6.621  0.0865 -0.6703 -0.9858
  654MOL0     C88204  11.087   0.404   6.584 -0.0152 -0.2431 -0.0316
  654MOL0     N88205  10.440   0.602   6.568  0.4647  0.1514 -0.0023
  654MOL0     N88206  10.344   0.651   6.495 -0.1565 -0.0407 -0.2120
  654MOL0     C88207   9.045   0.692   6.495  0.6858  0.1693 -0.7024
  654MOL0     C88208   8.929   0.749   6.536  0.6427  0.9955 -0.1061
  654MOL0     C88209   8.618   1.056   6.652  0.4915  0.4001 -0.0630
  654MOL0     C88210   8.555   1.002   6.770 -0.1333  0.5836 -0.2712
  654MOL0     C88211   8.449   1.062   6.828  0.8038 -0.1682  0.7254
  654MOL0     C88212   8.392   1.182   6.784  0.0601  0.0208  0.8254
  654MOL0     O88213   8.292   1.258   6.838 -0.0437 -0.3893  1.1295
  654MOL0     C88214   8.235   1.204   6.957 -0.3214 -0.0576 -0.7780
  654MOL0     C88215   8.138   1.090   6.941  0.5346  0.0460 -0.1053
  654MOL0     C88216   7.997   1.150   6.900 -0.4465 -0.0424  0.4153
  654MOL0     C88217   8.006   1.207   6.759  0.0161  0.3887  0.8911
  654MOL0     C88218   7.886   1.258   6.685 -0.3068 -0.4538  0.1155
  654MOL0     C88219   7.783   1.302   6.629  0.4558 -0.7802  0.5197
  654MOL0     C88220   8.455   1.233   6.667 -0.5711 -0.3656  0.0012
  654MOL0     C88221   8.570   1.181   6.614 -0.9171 -0.0967 -0.1762
  654MOL0     C88222   8.633   1.265   6.504 -0.3336 -0.6161 -0.1298
  654MOL0     H88223   9.063   0.972   6.756  1.5684 -2.0891  2.2862
  654MOL0     H88224   9.258   0.875   6.688 -2.8199  0.9659  3.8927
  654MOL0     H88225   9.271   0.731   6.333 -2.0186  1.7577  2.5868
  654MOL0     H88226   9.396   0.804   6.442 -0.8480 -0.2828  2.1476
  654MOL0     H88227   9.439   0.599   6.262  0.7412 -2.1747 -0.1279
  654MOL0     H88228   9.392   0.508   6.398  1.2331 -0.7702 -0.4982
  654MOL0     H88229   9.545   0.612   6.550  2.9914  0.0489  1.6882
  654MOL0     H88230   9.629   0.701   6.437  1.3299 -2.0186 -0.2744
  654MOL0     H88231   9.596   0.388   6.414 -2.2850  1.5019 -1.9487
  654MOL0     H88232   9.693   0.490   6.309 -1.0277  0.7489 -0.6826
  654MOL0     H88233   9.742   0.465   6.611 -0.5242 -2.6414 -0.3337
  654MOL0     H88234   9.836   0.378   6.492  0.8356  0.3143 -0.5714
  654MOL0     H88235   9.875   0.620   6.384 -3.1933  1.0003 -0.3595
  654MOL0     H88236   9.825   0.680   6.548 -4.6134 -0.2907 -3.9013
  654MOL0     H88237  10.031   0.481   6.477 -2.4562  0.1578 -1.6685
  654MOL0     H88238   9.990   0.522   6.644  0.5072 -2.7986 -0.8771
  654MOL0     H88239  10.101   0.719   6.431 -1.1868 -0.4787 -0.4101
  654MOL0     H88240  10.053   0.760   6.595  0.0044 -1.2961 -0.0840
  654MOL0     H88241  10.191   0.562   6.769 -3.4264  2.0962 -1.7641
  654MOL0     H88242  10.538   0.612   6.858 -1.9109  1.2897  2.5385
  654MOL0     H88243  10.417   0.501   6.889 -0.5664  1.3444 -0.2108
  654MOL0     H88244  10.591   0.373   6.882  2.5196 -1.8051 -0.6498
  654MOL0     H88245  10.504   0.325   6.735  0.6067 -0.3766  0.6704
  654MOL0     H88246  10.755   0.473   6.758 -0.9571 -1.3990  1.6833
  654MOL0     H88247  10.666   0.463   6.599  1.5842  1.9732 -0.2542
  654MOL0     H88248  10.687   0.218   6.606  3.4573 -2.6351 -1.1167
  654MOL0     H88249  10.767   0.216   6.755 -0.7883 -0.4264  0.0873
  654MOL0     H88250  10.930   0.309   6.865  2.6346 -1.8186  0.9514
  654MOL0     H88251  11.156   0.381   6.950  0.9124  1.1163  0.3090
  654MOL0     H88252  11.647   0.609   6.560  1.0512  0.7244 -0.0738
  654MOL0     H88253  11.888   0.624   6.592  2.5607 -1.5282  0.7913
  654MOL0     H88254  12.094   0.598   6.653 -1.1140 -0.4178 -0.2513
  654MOL0     H88255  12.109   0.691   6.803  0.3686 -0.1863  1.6974
  654MOL0     H88256  12.291   0.517   6.877  2.7469  1.9731 -0.0651
  654MOL0     H88257  12.269   0.463   6.705 -3.0585  1.1097 -1.8389
  654MOL0     H88258  12.360   0.649   6.617  1.1263 -3.7418  0.7273
  654MOL0     H88259  12.332   0.754   6.769  0.7072 -0.5215  1.5340
  654MOL0     H88260  12.538   0.550   6.722 -0.2156 -1.0620  2.7219
  654MOL0     H88261  12.500   0.595   6.884 -3.1796 -0.0109  0.8936
  654MOL0     H88262  12.546   0.821   6.834 -0.7627 -1.4697 -0.3205
  654MOL0     H88263  12.567   0.800   6.653  2.5367 -0.4942 -0.9683
  654MOL0     H88264  12.779   0.855   6.780 -0.1639  0.3561 -2.0027
  654MOL0     H88265  12.750   0.699   6.876 -0.5085 -0.4817  0.0496
  654MOL0     H88266  12.807   0.721   6.581  1.2303 -2.0255  0.2001
  654MOL0     H88267  12.761   0.571   6.674  1.8451 -1.0776  1.6904
  654MOL0     H88268  12.975   0.584   6.791  0.9629  2.2121  1.2084
  654MOL0     H88269  13.001   0.601   6.609  0.8390  1.0736  0.1994
  654MOL0     H88270  11.835   0.436   6.981 -1.2625 -0.4237 -0.3345
  654MOL0     H88271  11.603   0.392   6.931 -0.5259  0.7567 -0.5944
  654MOL0     H88272  11.273   0.488   6.544 -0.3505  1.0357 -0.2700
  654MOL0     H88273  11.060   0.410   6.479 -1.6953 -3.4663  0.0844
  654MOL0     H88274   9.045   0.606   6.429 -1.7927 -0.8782  0.5087
  654MOL0     H88275   8.835   0.728   6.486  2.0289  1.4003 -3.1617
  654MOL0     H88276   8.600   0.915   6.817 -2.2701  0.5759  1.9306
  654MOL0     H88277   8.417   1.005   6.916  2.4529  0.2117  1.6128
  654MOL0     H88278   8.191   1.283   7.019 -0.3747 -1.0177  0.4635
  654MOL0     H88279   8.309   1.175   7.032 -3.2790  0.4780  2.6559
  654MOL0     H88280   8.134   1.045   7.041 -1.6345  2.6846  1.1072
  654MOL0     H88281   8.166   1.016   6.865 -1.1893 -0.3188 -0.4322
  654MOL0     H88282   7.960   1.215   6.980 -0.5209  0.1123  0.2572
  654MOL0     H88283   7.947   1.053   6.903  1.6284 -1.1290  2.5282
  654MOL0     H88284   8.069   1.296   6.767  0.1853  0.1595  2.5146
  654MOL0     H88285   8.041   1.129   6.691 -2.7886 -1.2549  1.1828
  654MOL0     H88286   7.684   1.327   6.596  1.4800  2.2846 -0.5772
  654MOL0     H88287   8.421   1.330   6.632  1.6924  0.5992  0.3258
  654MOL0     H88288   8.740   1.242   6.493 -0.1523 -0.1030  0.5380
  654MOL0     H88289   8.583   1.240   6.410 -0.7615  1.9882 -0.6530
  654MOL0     H88290   8.615   1.371   6.523 -1.2419 -0.5707 -1.1524
  655MOL0     O88291  11.032   3.511   2.805  0.8428  0.3115  0.4340
  655MOL0     C88292  10.933   3.592   2.827 -0.1252 -0.6365  1.1317
  655MOL0     O88293  10.950   3.718   2.875 -0.6134  0.4373 -0.3803
  655MOL0     C88294  11.073   3.761   2.919  0.5044 -0.5871 -0.6430
  655MOL0     C88295  11.200   3.730   2.872  0.1566  0.0852 -0.4337
  655MOL0     C88296  11.315   3.779   2.935  0.5652 -0.0368  0.1554
  655MOL0     C88297  11.304   3.857   3.057 -0.5344  0.2738  0.0694
  655MOL0     O88298  11.417   3.918   3.114  0.4439  0.4598 -0.6841
  655MOL0     C88299  11.547   3.905   3.053  0.0015 -0.5835  0.1087
  655MOL0     C88300  11.639   4.002   3.130 -0.7605  0.3239  0.6044
  655MOL0     C88301  11.789   3.990   3.090  0.4302  0.3612  0.0011
  655MOL0     C88302  11.875   4.098   3.146 -0.4053  0.1069 -0.1438
  655MOL0     C88303  11.890   4.109   3.305  0.4183  0.0472  0.4119
  655MOL0     C88304  11.978   3.996   3.347 -0.6141  0.6677  0.3885
  655MOL0     C88305  12.128   4.038   3.316 -0.5907 -0.3270  0.0859
  655MOL0     C88306  12.211   3.958   3.412  0.1673 -0.3939 -0.1063
  655MOL0     N88307  12.352   3.997   3.398 -0.0518  0.2054 -0.0623
  655MOL0     C88308  12.407   4.098   3.477 -0.6964  0.6281  0.1238
  655MOL0     C88309  12.540   4.093   3.454 -0.1625  0.9865 -0.7142
  655MOL0     C88310  12.649   4.189   3.501 -0.0678  0.2621  0.3878
  655MOL0     C88311  12.652   4.312   3.404  0.6003  0.6103  0.0744
  655MOL0     C88312  12.722   4.434   3.467 -0.0980  0.1947 -0.0336
  655MOL0     C88313  12.669   4.560   3.392  0.4076 -0.2147 -0.1964
  655MOL0     O88314  12.702   4.572   3.251 -0.4796 -0.3366 -0.0454
  655MOL0     C88315  12.830   4.573   3.218 -0.3358 -0.8779  0.1329
  655MOL0     C88316  12.933   4.599   3.305 -0.8757 -1.1322 -0.0953
  655MOL0     C88317  13.068   4.607   3.249  0.0828 -0.0042  0.3327
  655MOL0     C88318  13.097   4.564   3.122  0.2480 -0.0737  0.5461
  655MOL0     C88319  13.244   4.567   3.080  0.2542 -0.4422 -0.1882
  655MOL0     O88320  13.284   4.501   2.968 -0.0702 -0.0047 -0.4868
  655MOL0     C88321  13.415   4.495   2.937 -0.0319 -0.1673 -0.4104
  655MOL0     C88322  13.492   4.400   3.000  0.1757  0.8466 -0.4079
  655MOL0     C88323  13.626   4.382   2.965  0.3836  0.3518 -0.1292
  655MOL0     C88324  13.684   4.465   2.863  0.0435 -0.1033 -0.2534
  655MOL0     O88325  13.807   4.450   2.805  0.0452 -0.0834 -0.2321
  655MOL0     C88326  13.909   4.406   2.894  1.4468  0.0380 -0.3921
  655MOL0     C88327  13.957   4.263   2.854  0.2059  0.4569 -0.7090
  655MOL0     C88328  13.858   4.169   2.782 -0.0815 -0.4539  0.1626
  655MOL0     C88329  13.861   4.167   2.628  1.0063 -0.4585  0.3145
  655MOL0     C88330  13.800   4.034   2.575  0.5859 -0.6399 -0.2869
  655MOL0     C88331  13.648   4.045   2.583 -0.0650  0.1134 -0.0134
  655MOL0     C88332  13.582   3.946   2.494  0.0413  0.7531  0.5163
  655MOL0     C88333  13.427   3.957   2.503 -0.0078 -0.2568 -0.3886
  655MOL0    Cl88334  13.377   4.077   2.375  0.4485 -0.3688 -0.1373
  655MOL0     C88335  13.605   4.556   2.798 -0.4145  0.5711 -0.5546
  655MOL0     C88336  13.472   4.578   2.842 -0.1089  0.5078  0.6502
  655MOL0     O88337  13.317   4.638   3.149  0.4396  0.1737 -0.2793
  655MOL0     C88338  12.989   4.513   3.049 -0.3836  0.4170  0.4875
  655MOL0     C88339  12.858   4.521   3.093  0.2360  0.5182 -0.5221
  655MOL0     N88340  12.563   3.969   3.378  0.1245  0.6161  0.1767
  655MOL0     N88341  12.449   3.922   3.344  0.5854  0.1273 -0.5698
  655MOL0     C88342  11.181   3.889   3.102  0.3119 -0.3007  1.0262
  655MOL0     C88343  11.065   3.850   3.029 -0.7944  0.6280  0.0451
  655MOL0     C88344  10.793   3.551   2.794 -0.8480 -0.1452 -0.6224
  655MOL0     C88345  10.692   3.652   2.800 -0.1212 -0.0296 -0.9356
  655MOL0     C88346  10.559   3.628   2.769 -0.6977  0.5788  0.0441
  655MOL0     C88347  10.524   3.497   2.750 -0.1017  0.8086  0.0288
  655MOL0     O88348  10.387   3.471   2.721  0.0884 -0.0878 -0.5859
  655MOL0     C88349  10.309   3.434   2.835 -0.0781  0.2623 -0.4541
  655MOL0     C88350  10.162   3.471   2.809  0.4842  0.0138  0.8441
  655MOL0     C88351  10.136   3.628   2.802 -0.1536 -0.4464  0.8190
  655MOL0     C88352   9.988   3.647   2.772  0.0290 -0.7114 -0.6978
  655MOL0     C88353   9.949   3.790   2.763 -0.6005 -0.1173  0.2326
  655MOL0     C88354   9.904   3.904   2.760  0.4277  0.5665  0.3173
  655MOL0     C88355  10.616   3.394   2.745 -0.0078 -0.6350 -0.1364
  655MOL0     C88356  10.748   3.416   2.767 -0.9736 -0.1509  0.3394
  655MOL0     C88357  10.848   3.298   2.772 -0.0920  0.4235 -1.3354
  655MOL0     H88358  11.212   3.669   2.783 -0.7054  2.0057 -1.9489
  655MOL0     H88359  11.405   3.755   2.879  0.8630  0.8800  0.2237
  655MOL0     H88360  11.580   3.801   3.058  0.1471 -0.5552 -0.2240
  655MOL0     H88361  11.536   3.933   2.948 -1.6504  1.3100  0.7215
  655MOL0     H88362  11.620   3.976   3.234 -0.3314 -0.3508  0.5219
  655MOL0     H88363  11.615   4.105   3.100  2.2256  1.9632  3.2568
  655MOL0     H88364  11.797   3.996   2.981  2.4804 -3.4204 -0.2587
  655MOL0     H88365  11.826   3.890   3.116 -0.2038  0.2765  0.5933
  655MOL0     H88366  11.970   4.082   3.094 -0.4253 -3.0315  0.5826
  655MOL0     H88367  11.832   4.194   3.115 -0.4881  1.0316  2.5383
  655MOL0     H88368  11.925   4.210   3.327 -1.7578  0.8182  0.6246
  655MOL0     H88369  11.791   4.105   3.352  1.1307 -0.9041  1.8839
  655MOL0     H88370  11.965   3.981   3.455  1.4507  2.3050  0.9359
  655MOL0     H88371  11.952   3.901   3.299  2.7255  1.5528 -3.7740
  655MOL0     H88372  12.155   4.142   3.337  2.6165 -0.9862 -0.3886
  655MOL0     H88373  12.157   4.011   3.214 -1.2178  0.6584 -0.3729
  655MOL0     H88374  12.193   3.983   3.517 -1.5555  1.8545 -0.8626
  655MOL0     H88375  12.194   3.850   3.403  0.7249 -0.6289  1.2961
  655MOL0     H88376  12.361   4.165   3.549  2.0667  0.5851  2.0965
  655MOL0     H88377  12.630   4.237   3.597  0.4028  2.0670 -0.3776
  655MOL0     H88378  12.752   4.150   3.501  0.3276  1.2525  1.3509
  655MOL0     H88379  12.685   4.305   3.300  0.5531  1.2921  0.0063
  655MOL0     H88380  12.549   4.342   3.383  0.2091 -1.2103 -0.7978
  655MOL0     H88381  12.830   4.416   3.461  0.1439  0.6282  2.0880
  655MOL0     H88382  12.700   4.436   3.574  2.4237 -2.8939  0.7131
  655MOL0     H88383  12.705   4.651   3.440 -1.0123  1.3614 -1.9704
  655MOL0     H88384  12.561   4.571   3.406  0.5130  0.0026  0.4968
  655MOL0     H88385  12.920   4.634   3.407  0.3353 -0.8051 -0.0374
  655MOL0     H88386  13.139   4.649   3.319 -1.1352  0.7748  1.1373
  655MOL0     H88387  13.456   4.333   3.078  1.0676  1.4776  0.5822
  655MOL0     H88388  13.680   4.297   3.004 -1.1097 -0.2765  0.6733
  655MOL0     H88389  13.992   4.475   2.879  1.4511  0.2910  0.7295
  655MOL0     H88390  13.878   4.394   2.998  1.7681 -0.6678 -0.3695
  655MOL0     H88391  14.046   4.273   2.792  1.0551 -0.3087  0.3535
  655MOL0     H88392  13.991   4.208   2.942  4.2039  2.9675 -0.4355
  655MOL0     H88393  13.872   4.063   2.807 -0.4550 -0.8878 -1.4001
  655MOL0     H88394  13.761   4.204   2.817  0.3956 -0.2489  1.3446
  655MOL0     H88395  13.962   4.174   2.588  0.6828 -0.8798 -0.6312
  655MOL0     H88396  13.807   4.255   2.592  0.2221 -0.4706  1.4208
  655MOL0     H88397  13.849   3.942   2.608  4.1121  0.8671 -0.8542
  655MOL0     H88398  13.830   4.028   2.470 -0.3319 -3.4346 -0.4663
  655MOL0     H88399  13.611   4.038   2.686 -2.2266  2.0522 -0.5790
  655MOL0     H88400  13.610   4.142   2.549  1.2315 -0.0161 -1.9880
  655MOL0     H88401  13.614   3.848   2.529  1.3297  0.2006 -1.9921
  655MOL0     H88402  13.617   3.952   2.391  0.1396 -0.4622  0.4694
  655MOL0     H88403  13.380   3.863   2.474  0.8420 -0.3708 -1.4757
  655MOL0     H88404  13.390   3.997   2.598 -0.4999 -2.2594  0.3166
  655MOL0     H88405  13.648   4.612   2.715 -0.6219  0.3800 -0.7927
  655MOL0     H88406  13.394   4.633   2.791 -1.6423 -2.0429  0.0472
  655MOL0     H88407  13.021   4.454   2.963  1.5424  0.7018  0.9529
  655MOL0     H88408  12.779   4.476   3.034 -2.2439  3.7963  0.0436
  655MOL0     H88409  11.163   3.957   3.185 -3.1279  2.3745 -1.6020
  655MOL0     H88410  10.965   3.857   3.071 -0.5123  1.9025  0.5597
  655MOL0     H88411  10.713   3.758   2.815 -0.5093 -0.2980  2.0214
  655MOL0     H88412  10.491   3.712   2.763 -0.3967  0.9221  1.0894
  655MOL0     H88413  10.345   3.491   2.922 -0.2509  0.5862 -0.5911
  655MOL0     H88414  10.315   3.325   2.844 -1.8289 -0.2799 -3.9501
  655MOL0     H88415  10.103   3.427   2.890  0.3120  1.3823  1.5006
  655MOL0     H88416  10.121   3.435   2.715  0.3488  1.5851  0.2750
  655MOL0     H88417  10.203   3.675   2.730 -0.4794 -0.2614  0.6385
  655MOL0     H88418  10.155   3.672   2.901 -0.3189  1.6216 -0.0219
  655MOL0     H88419   9.970   3.605   2.672  0.1844 -0.6511 -0.7514
  655MOL0     H88420   9.928   3.603   2.852  0.2201  0.8677  0.3656
  655MOL0     H88421   9.857   4.000   2.746 -2.2625 -0.8098 -0.8843
  655MOL0     H88422  10.575   3.294   2.729  0.8377 -1.2580  1.2948
  655MOL0     H88423  10.918   3.300   2.855  1.5212  0.2753 -2.6381
  655MOL0     H88424  10.798   3.202   2.790  1.7647 -0.2069  0.9601
  655MOL0     H88425  10.904   3.309   2.679  1.1171  0.7829 -0.5856
  656MOL0     O88426   4.727   4.274  11.209 -0.2704 -0.4617 -0.5660
  656MOL0     C88427   4.672   4.379  11.242 -0.1301 -0.6125 -0.5618
  656MOL0     O88428   4.737   4.494  11.251  0.0657 -0.1080 -0.0038
  656MOL0     C88429   4.862   4.508  11.191  0.2650 -0.1990 -0.9631
  656MOL0     C88430   4.869   4.574  11.068 -0.3773  0.3132  0.3082
  656MOL0     C88431   4.992   4.579  10.994 -0.1850 -0.4505  0.5116
  656MOL0     C88432   5.097   4.513  11.051 -0.0811 -0.7816 -0.3428
  656MOL0     O88433   5.210   4.527  10.972  0.0017  0.3032  0.2198
  656MOL0     C88434   5.323   4.450  11.004  0.0609 -0.1965  0.5398
  656MOL0     C88435   5.429   4.481  10.904 -0.0951  0.6951 -0.0075
  656MOL0     C88436   5.562   4.393  10.913 -0.5158 -0.0190  0.2861
  656MOL0     C88437   5.637   4.378  10.782 -0.4232 -0.5825 -0.0861
  656MOL0     C88438   5.787   4.349  10.801  0.3959 -0.0232 -0.5338
  656MOL0     C88439   5.803   4.226  10.895  0.1137 -0.0366 -0.0286
  656MOL0     C88440   5.951   4.190  10.922 -0.3216 -0.2445 -0.7810
  656MOL0     C88441   5.987   4.047  10.962  0.0215  0.7798  0.2435
  656MOL0     N88442   6.130   4.033  10.986  0.1010  0.1460  0.8544
  656MOL0     C88443   6.197   4.080  11.094 -0.1322  0.2546  0.9587
  656MOL0     C88444   6.320   4.035  11.084  1.0186  0.0347 -0.1683
  656MOL0     C88445   6.424   4.068  11.186 -1.4462 -0.2269 -0.5513
  656MOL0     C88446   6.459   4.216  11.195 -0.1459  0.4239  0.6949
  656MOL0     C88447   6.497   4.259  11.052  0.5894 -0.4231 -0.4379
  656MOL0     C88448   6.513   4.412  11.043  0.3060 -0.1105  0.1130
  656MOL0     O88449   6.564   4.470  11.156 -0.2644 -0.5788 -0.1840
  656MOL0     C88450   6.702   4.480  11.171  0.0775 -0.0106 -0.1226
  656MOL0     C88451   6.813   4.455  11.080 -0.2959  0.2725 -0.2905
  656MOL0     C88452   6.948   4.470  11.119  0.5632 -0.3258 -0.0047
  656MOL0     C88453   6.979   4.512  11.257 -0.5209 -0.1266  0.7631
  656MOL0     C88454   7.120   4.530  11.295  0.2125 -0.3106  0.5753
  656MOL0     O88455   7.216   4.505  11.206 -0.6380  0.6227 -0.1676
  656MOL0     C88456   7.345   4.513  11.253  0.3579 -0.2812  0.5685
  656MOL0     C88457   7.429   4.400  11.245  0.0312  0.7553 -0.9941
  656MOL0     C88458   7.559   4.403  11.288 -0.1819  0.0563 -0.4382
  656MOL0     C88459   7.619   4.528  11.328 -0.7223  0.6958 -0.3437
  656MOL0     O88460   7.749   4.541  11.379  0.2734 -0.2034 -0.0499
  656MOL0     C88461   7.825   4.424  11.381  0.2071  0.1233  0.2062
  656MOL0     C88462   7.960   4.451  11.445  0.3367 -0.1968  0.2162
  656MOL0     C88463   8.058   4.333  11.438  0.1030 -0.4054  0.0966
  656MOL0     C88464   8.194   4.379  11.487  0.1902 -1.4679  0.7842
  656MOL0     C88465   8.302   4.279  11.459  0.3319 -0.0159 -0.2563
  656MOL0     C88466   8.335   4.260  11.307 -0.2612  0.3091 -0.5087
  656MOL0     C88467   8.445   4.165  11.288 -1.1559  0.2996  0.3812
  656MOL0     C88468   8.494   4.168  11.139  1.0974 -0.2100  0.8432
  656MOL0    Cl88469   8.528   4.322  11.064  0.1669 -0.1055 -0.0218
  656MOL0     C88470   7.539   4.642  11.328  0.2943 -0.2468  0.2197
  656MOL0     C88471   7.404   4.634  11.282  0.4312  0.4931 -0.5590
  656MOL0     O88472   7.137   4.551  11.410 -0.3398  0.4228  0.3894
  656MOL0     C88473   6.872   4.525  11.348 -0.0612 -0.0897  0.7236
  656MOL0     C88474   6.741   4.504  11.300 -0.6252 -0.5555  0.0447
  656MOL0     N88475   6.330   3.964  10.966 -0.0824 -0.6918  0.0121
  656MOL0     N88476   6.213   3.959  10.905  0.0418 -0.6432 -0.2604
  656MOL0     C88477   5.098   4.457  11.181 -0.0497 -0.3388  0.4194
  656MOL0     C88478   4.980   4.462  11.250 -0.1264  0.6351  0.2297
  656MOL0     C88479   4.529   4.378  11.278  0.1670  0.4516 -1.4090
  656MOL0     C88480   4.474   4.474  11.367 -0.0631 -0.1747 -0.1332
  656MOL0     C88481   4.343   4.474  11.412 -0.4812  0.5804 -0.2190
  656MOL0     C88482   4.249   4.391  11.356 -0.1035  1.4052  0.2772
  656MOL0     O88483   4.117   4.406  11.395 -0.1128 -0.2301 -0.0408
  656MOL0     C88484   4.023   4.346  11.310  0.4648 -0.9276 -0.1022
  656MOL0     C88485   3.879   4.390  11.350 -0.8909  0.3065 -0.4505
  656MOL0     C88486   3.786   4.295  11.274 -0.3244 -0.3314  0.5923
  656MOL0     C88487   3.770   4.331  11.129  0.7406  0.8224  1.0193
  656MOL0     C88488   3.694   4.226  11.049  0.0761 -0.5494  0.6566
  656MOL0     C88489   3.651   4.148  10.969 -0.3219 -0.4654  0.3673
  656MOL0     C88490   4.296   4.295  11.261 -0.4286 -0.5790  0.2320
  656MOL0     C88491   4.433   4.288  11.220 -0.0081  0.4582 -0.6110
  656MOL0     C88492   4.460   4.194  11.098 -0.0292 -0.2223  0.0553
  656MOL0     H88493   4.784   4.613  11.014  0.5714 -1.3741 -2.6014
  656MOL0     H88494   5.013   4.620  10.896  0.4319  1.7045  1.4807
  656MOL0     H88495   5.367   4.474  11.101  2.5362  0.3509 -0.6442
  656MOL0     H88496   5.292   4.345  10.997 -1.3246  0.2395 -0.2410
  656MOL0     H88497   5.458   4.584  10.926  0.4616  1.4120 -3.5339
  656MOL0     H88498   5.391   4.475  10.801  3.5486 -0.3113 -1.4552
  656MOL0     H88499   5.528   4.299  10.959 -0.6056 -0.7441 -1.2192
  656MOL0     H88500   5.622   4.445  10.989 -1.1954 -0.2599  1.0035
  656MOL0     H88501   5.597   4.298  10.718  1.2616 -0.3593 -1.4951
  656MOL0     H88502   5.628   4.478  10.740 -2.0199  0.1607  1.9168
  656MOL0     H88503   5.853   4.338  10.715  0.8149 -1.1708 -0.0808
  656MOL0     H88504   5.834   4.438  10.844 -1.6145  1.6556 -1.5818
  656MOL0     H88505   5.764   4.251  10.994  1.0137  2.7369 -0.2947
  656MOL0     H88506   5.743   4.147  10.848 -1.9546  1.3543  0.1367
  656MOL0     H88507   5.974   4.243  11.015 -0.8585 -1.9122  0.3424
  656MOL0     H88508   6.018   4.218  10.840  0.2850  0.5170 -0.0430
  656MOL0     H88509   5.934   4.024  11.054 -0.5591  3.1080  0.5556
  656MOL0     H88510   5.951   3.979  10.884  1.5780  0.1557  0.0464
  656MOL0     H88511   6.148   4.146  11.166  0.4707  2.2191 -0.3448
  656MOL0     H88512   6.389   4.030  11.282 -0.9453 -0.9902 -0.6550
  656MOL0     H88513   6.515   4.010  11.165 -1.0440  1.2513 -3.3505
  656MOL0     H88514   6.369   4.263  11.236  0.0743 -0.3684  2.1274
  656MOL0     H88515   6.543   4.214  11.264 -0.6236 -0.7334  1.2632
  656MOL0     H88516   6.425   4.233  10.974  1.4843 -1.6848 -0.8836
  656MOL0     H88517   6.584   4.197  11.030 -0.7634 -3.1634  1.3086
  656MOL0     H88518   6.417   4.464  11.040  0.6556  0.5218 -0.5015
  656MOL0     H88519   6.568   4.439  10.952  0.5878  1.4536  0.7121
  656MOL0     H88520   6.787   4.429  10.978 -0.4251 -0.8610  0.0093
  656MOL0     H88521   7.030   4.464  11.047 -0.2577  2.5936 -1.3015
  656MOL0     H88522   7.378   4.308  11.218  2.4514 -0.4001 -1.8959
  656MOL0     H88523   7.597   4.304  11.312  0.1464 -0.0227 -1.2556
  656MOL0     H88524   7.769   4.346  11.434  0.5223 -0.9083 -0.9466
  656MOL0     H88525   7.842   4.380  11.283  0.1485 -0.1100  0.2991
  656MOL0     H88526   8.008   4.536  11.396  1.1253 -0.3594  0.6799
  656MOL0     H88527   7.951   4.479  11.550  0.8900 -1.3043  0.5753
  656MOL0     H88528   8.020   4.250  11.499  1.6146 -1.0595  0.1821
  656MOL0     H88529   8.070   4.304  11.334 -3.3618 -0.8781 -0.3220
  656MOL0     H88530   8.188   4.405  11.593  1.6304  2.8116  0.0197
  656MOL0     H88531   8.236   4.467  11.437  0.5022 -1.4946  0.9974
  656MOL0     H88532   8.261   4.186  11.498 -0.5540  0.8410  0.9579
  656MOL0     H88533   8.393   4.297  11.517 -0.5428 -0.5526  1.3206
  656MOL0     H88534   8.247   4.229  11.251 -1.1455 -0.0497  1.0388
  656MOL0     H88535   8.372   4.358  11.274  1.5054 -0.0783  0.1731
  656MOL0     H88536   8.411   4.062  11.306 -0.2133 -0.0366  0.2603
  656MOL0     H88537   8.530   4.172  11.356 -2.4462  0.8889  1.9883
  656MOL0     H88538   8.585   4.107  11.129 -0.3173 -2.4103  0.7075
  656MOL0     H88539   8.427   4.115  11.071  0.8971  0.1735  0.7372
  656MOL0     H88540   7.588   4.733  11.361  1.8841  0.1037 -2.7259
  656MOL0     H88541   7.341   4.722  11.276  0.1129  0.2743 -0.4413
  656MOL0     H88542   6.882   4.542  11.454 -2.7170 -4.5431  1.9748
  656MOL0     H88543   6.663   4.522  11.373 -2.0917  0.3560 -1.6711
  656MOL0     H88544   5.175   4.410  11.242  0.0206 -0.5022  0.2064
  656MOL0     H88545   4.986   4.405  11.343  2.2737  1.1003  0.4449
  656MOL0     H88546   4.539   4.553  11.403  0.4568 -1.8848  3.0600
  656MOL0     H88547   4.298   4.544  11.482  0.7964 -0.2423  1.4940
  656MOL0     H88548   4.024   4.237  11.326 -1.0282 -0.9183  0.1239
  656MOL0     H88549   4.034   4.370  11.204  0.0308 -2.3493 -0.4953
  656MOL0     H88550   3.857   4.493  11.322 -2.3778  0.0002 -0.4984
  656MOL0     H88551   3.866   4.363  11.455  1.0040 -2.7837 -0.8951
  656MOL0     H88552   3.690   4.311  11.325 -1.1475  1.5849 -1.4026
  656MOL0     H88553   3.814   4.189  11.282  0.3923 -0.0461  2.1604
  656MOL0     H88554   3.720   4.425  11.104 -1.4977 -0.7700 -0.8488
  656MOL0     H88555   3.868   4.335  11.081  1.0692  1.0953  1.6855
  656MOL0     H88556   3.626   4.075  10.894  3.4821 -1.5809  0.0044
  656MOL0     H88557   4.230   4.218  11.222  1.7362 -3.4318  1.8012
  656MOL0     H88558   4.376   4.132  11.063  0.8860  0.1613 -3.1440
  656MOL0     H88559   4.475   4.258  11.010 -0.8940 -0.1466 -0.0478
  656MOL0     H88560   4.545   4.133  11.126  0.2050  0.5776  1.1160
  657MOL0     O88561   3.973   9.386   6.189  0.5378  0.6271  0.2158
  657MOL0     C88562   3.978   9.496   6.131  0.9206 -0.5158 -0.7426
  657MOL0     O88563   4.079   9.576   6.145 -0.1555  0.3301  0.2155
  657MOL0     C88564   4.185   9.555   6.231  0.1774  0.2630  0.5747
  657MOL0     C88565   4.193   9.633   6.345  0.5299  0.2381  0.0871
  657MOL0     C88566   4.314   9.635   6.423  0.3573 -0.1523 -0.6314
  657MOL0     C88567   4.427   9.557   6.384 -0.7946 -0.6300 -0.3297
  657MOL0     O88568   4.536   9.547   6.470 -0.3058 -0.4432 -0.3103
  657MOL0     C88569   4.667   9.563   6.404 -0.1300  0.1731  0.3886
  657MOL0     C88570   4.763   9.621   6.508  0.1685 -0.3782  0.2549
  657MOL0     C88571   4.880   9.680   6.429  0.0691  0.1079  0.3583
  657MOL0     C88572   4.977   9.741   6.534  0.1470 -0.2415  0.6045
  657MOL0     C88573   5.094   9.809   6.463 -0.8396  0.9173 -0.0705
  657MOL0     C88574   5.172   9.909   6.550  0.4449  0.0275 -1.2269
  657MOL0     C88575   5.107  10.051   6.567 -0.2171  0.8405  0.1553
  657MOL0     C88576   5.158  10.126   6.688 -0.5556 -0.1684  1.0450
  657MOL0     N88577   5.306  10.143   6.695  0.7055  0.2828  0.1946
  657MOL0     C88578   5.372  10.212   6.601  0.2691  0.7689 -0.5430
  657MOL0     C88579   5.499  10.202   6.641  0.0376  0.2411 -0.1496
  657MOL0     C88580   5.618  10.233   6.561 -0.0027 -0.0295  0.6967
  657MOL0     C88581   5.708  10.345   6.626  0.4280 -0.7626  0.5644
  657MOL0     C88582   5.798  10.383   6.509  0.4050 -0.2651  0.8572
  657MOL0     C88583   5.912  10.282   6.498 -0.0667  0.8952 -0.6872
  657MOL0     O88584   5.994  10.329   6.395  0.9639  0.1953  0.1452
  657MOL0     C88585   6.118  10.375   6.427 -0.9595 -0.5393  0.7324
  657MOL0     C88586   6.221  10.379   6.328  0.7668  0.7431  0.6752
  657MOL0     C88587   6.347  10.443   6.345  0.1557  0.4413 -0.0454
  657MOL0     C88588   6.378  10.492   6.473  0.3092  0.3902 -0.6283
  657MOL0     C88589   6.518  10.528   6.510 -0.5888 -0.6024 -0.0107
  657MOL0     O88590   6.590  10.589   6.410 -0.0164 -0.3516 -0.6672
  657MOL0     C88591   6.703  10.653   6.460 -0.7619 -0.3250  0.0749
  657MOL0     C88592   6.707  10.751   6.558 -0.8888 -0.0485 -0.0348
  657MOL0     C88593   6.824  10.810   6.594  0.3724 -0.1989 -0.1224
  657MOL0     C88594   6.948  10.774   6.542  0.0947 -1.0725  0.9300
  657MOL0     O88595   7.061  10.842   6.579 -0.0082 -0.2869 -0.1232
  657MOL0     C88596   7.186  10.788   6.543 -0.4530 -0.1680  0.2677
  657MOL0     C88597   7.317  10.864   6.582  0.2397 -0.0468 -0.1141
  657MOL0     C88598   7.453  10.808   6.529  0.0075 -0.1137 -0.2276
  657MOL0     C88599   7.564  10.897   6.580  0.7102 -0.2591  0.4844
  657MOL0     C88600   7.695  10.823   6.550  0.1645  0.2808  0.4183
  657MOL0     C88601   7.816  10.905   6.600  1.2315 -0.0926  0.9755
  657MOL0     C88602   7.945  10.860   6.540 -0.4376  0.5189 -0.0378
  657MOL0     C88603   8.071  10.936   6.593 -0.7394 -0.1975  0.7116
  657MOL0    Cl88604   8.047  11.097   6.521  0.0452  0.1614  0.0343
  657MOL0     C88605   6.942  10.675   6.445  0.1787 -0.6653 -0.7255
  657MOL0     C88606   6.830  10.604   6.412  0.1035 -0.4475 -1.2333
  657MOL0     O88607   6.553  10.504   6.620  1.1566 -0.9819  0.0504
  657MOL0     C88608   6.269  10.501   6.567  0.5430 -1.6716  0.4019
  657MOL0     C88609   6.139  10.453   6.549 -0.1798 -0.3156  0.5948
  657MOL0     N88610   5.509  10.160   6.770 -0.5619  0.0266  0.0293
  657MOL0     N88611   5.393  10.112   6.793  0.0868 -0.4971 -0.0607
  657MOL0     C88612   4.412   9.468   6.276 -0.5644  0.3039 -0.0225
  657MOL0     C88613   4.287   9.470   6.203 -0.1019  0.1498  0.3609
  657MOL0     C88614   3.862   9.555   6.061 -0.3763  0.7775  0.2366
  657MOL0     C88615   3.743   9.564   6.137 -0.5321  0.5368  0.5232
  657MOL0     C88616   3.630   9.603   6.067 -0.7582 -0.7967  0.0989
  657MOL0     C88617   3.627   9.626   5.928 -0.1744 -0.2690  0.4692
  657MOL0     O88618   3.501   9.640   5.873  0.2306  0.2887 -0.4404
  657MOL0     C88619   3.487   9.716   5.749  0.0456  0.4755 -0.4371
  657MOL0     C88620   3.337   9.732   5.726 -0.5034 -0.5151  0.0550
  657MOL0     C88621   3.271   9.601   5.692 -0.2608 -0.1298  0.0888
  657MOL0     C88622   3.250   9.557   5.546  0.6546 -0.3850  0.9703
  657MOL0     C88623   3.188   9.664   5.465  0.3195  0.3085 -0.2370
  657MOL0     C88624   3.134   9.754   5.401 -0.1182 -0.2466  0.0155
  657MOL0     C88625   3.752   9.625   5.861 -0.5205 -0.1402  0.5461
  657MOL0     C88626   3.868   9.586   5.925  0.3132  0.6776  0.4114
  657MOL0     C88627   3.986   9.552   5.834 -0.0829 -0.1730  0.4225
  657MOL0     H88628   4.103   9.677   6.385 -1.3137 -2.3804 -0.8490
  657MOL0     H88629   4.314   9.702   6.508  3.7791 -0.0706 -0.5567
  657MOL0     H88630   4.707   9.471   6.360 -3.5753  0.3046 -3.5934
  657MOL0     H88631   4.646   9.631   6.322 -2.6240 -0.1744  0.6581
  657MOL0     H88632   4.789   9.546   6.584  0.7799  0.5836  1.0220
  657MOL0     H88633   4.701   9.696   6.557  2.2418  0.5892  1.5594
  657MOL0     H88634   4.829   9.752   6.365  0.0900 -0.6833 -0.5654
  657MOL0     H88635   4.932   9.604   6.368 -1.3446 -1.0874  0.5831
  657MOL0     H88636   4.922   9.812   6.596 -1.1905 -0.5150 -0.2232
  657MOL0     H88637   5.015   9.662   6.600  0.7731 -1.0478 -0.6819
  657MOL0     H88638   5.158   9.734   6.416  1.1084  1.4494  1.5914
  657MOL0     H88639   5.056   9.870   6.380 -3.4959  1.0251  1.1320
  657MOL0     H88640   5.189   9.865   6.649 -1.7817  1.0802 -0.3235
  657MOL0     H88641   5.269   9.922   6.501  1.3958  0.8142  0.7458
  657MOL0     H88642   5.000  10.032   6.579 -0.0612  1.1481  2.5363
  657MOL0     H88643   5.134  10.100   6.473  4.6966 -1.0159  0.2858
  657MOL0     H88644   5.104  10.221   6.684 -1.7643 -0.8810 -0.5395
  657MOL0     H88645   5.110  10.083   6.776 -1.9051 -0.6123  0.1327
  657MOL0     H88646   5.337  10.246   6.505 -2.1802  3.6438  1.1945
  657MOL0     H88647   5.673  10.140   6.547  0.0289  0.0222  0.4797
  657MOL0     H88648   5.586  10.273   6.464  4.5452 -0.5133 -1.2398
  657MOL0     H88649   5.653  10.435   6.654  0.7305  0.8184 -3.3100
  657MOL0     H88650   5.765  10.301   6.709  4.8002  1.1524 -1.1222
  657MOL0     H88651   5.841  10.483   6.524  0.2978 -0.0189 -0.3425
  657MOL0     H88652   5.745  10.398   6.414  1.2512  0.0675  0.4228
  657MOL0     H88653   5.866  10.183   6.487 -7.0108  3.4628  0.5703
  657MOL0     H88654   5.969  10.286   6.592  0.9676  1.0126 -1.3000
  657MOL0     H88655   6.206  10.318   6.239 -0.4220  0.3921  1.0943
  657MOL0     H88656   6.428  10.420   6.276  0.4930 -0.9073  0.7630
  657MOL0     H88657   6.620  10.781   6.616 -0.5759 -2.2399  1.6868
  657MOL0     H88658   6.823  10.878   6.679  0.8665 -2.7589  2.0518
  657MOL0     H88659   7.195  10.685   6.579  1.0767 -0.7324 -1.5201
  657MOL0     H88660   7.193  10.778   6.434  2.4546 -2.4916  0.5438
  657MOL0     H88661   7.312  10.964   6.539  2.9955 -0.3589 -1.3625
  657MOL0     H88662   7.324  10.877   6.690  3.5674  4.1192 -0.5849
  657MOL0     H88663   7.460  10.705   6.565 -1.6819  0.1756  1.0985
  657MOL0     H88664   7.460  10.798   6.420  0.0979  2.9324 -0.5867
  657MOL0     H88665   7.566  10.917   6.687 -0.4708 -0.5669  0.5793
  657MOL0     H88666   7.560  10.990   6.523 -1.0645  0.3984  1.5952
  657MOL0     H88667   7.700  10.814   6.441  2.2410  0.8038  0.4215
  657MOL0     H88668   7.699  10.720   6.585  1.1653  0.2986  0.3863
  657MOL0     H88669   7.808  11.012   6.577  0.5271 -0.8901 -3.3935
  657MOL0     H88670   7.819  10.886   6.707 -2.4822  1.4671  1.5199
  657MOL0     H88671   7.938  10.867   6.431 -0.7919  1.6357  0.0445
  657MOL0     H88672   7.969  10.757   6.570 -0.0143  0.5714 -0.1822
  657MOL0     H88673   8.082  10.945   6.701  3.6316  0.3135  0.3764
  657MOL0     H88674   8.153  10.876   6.553 -1.7648 -1.9770  1.1457
  657MOL0     H88675   7.031  10.636   6.395  0.6691 -1.4755  0.7037
  657MOL0     H88676   6.820  10.533   6.331 -2.1257 -0.1746 -1.2533
  657MOL0     H88677   6.288  10.558   6.657  1.8307 -1.5604  0.0776
  657MOL0     H88678   6.068  10.468   6.629  0.3705  0.5860  0.9307
  657MOL0     H88679   4.495   9.413   6.233 -0.3087  1.3008 -0.8539
  657MOL0     H88680   4.277   9.416   6.110 -1.7481 -0.9875  1.1573
  657MOL0     H88681   3.739   9.531   6.240 -1.5617 -1.2351 -0.0352
  657MOL0     H88682   3.535   9.608   6.118 -0.0454 -0.3748  1.4430
  657MOL0     H88683   3.521   9.654   5.665 -0.7967 -0.8016  0.1455
  657MOL0     H88684   3.539   9.811   5.765  0.1825 -0.0346  2.6962
  657MOL0     H88685   3.309   9.811   5.655  1.2866 -0.7210 -0.9571
  657MOL0     H88686   3.286   9.774   5.813  0.5019 -1.4743  1.1374
  657MOL0     H88687   3.172   9.596   5.737 -0.1009 -1.8507  0.3100
  657MOL0     H88688   3.325   9.516   5.735 -2.0116 -0.5877  1.4799
  657MOL0     H88689   3.341   9.521   5.498  0.2739 -3.0236  2.0434
  657MOL0     H88690   3.178   9.474   5.547  0.4495 -0.2155  0.6585
  657MOL0     H88691   3.078   9.832   5.353  0.5982  0.7135  0.6718
  657MOL0     H88692   3.764   9.663   5.760  4.2922  1.6482  1.5026
  657MOL0     H88693   3.986   9.617   5.746 -0.9299  0.3034  0.7602
  657MOL0     H88694   4.086   9.558   5.879  0.4876 -0.4398 -0.7653
  657MOL0     H88695   3.976   9.448   5.804 -0.0019 -0.8356  2.5468
  658MOL0     O88696   4.632   8.690  11.200  0.9003 -0.6526  0.1203
  658MOL0     C88697   4.628   8.806  11.162 -0.2135  0.0707  0.3033
  658MOL0     O88698   4.514   8.879  11.149 -0.3968  0.5283 -0.4981
  658MOL0     C88699   4.393   8.846  11.198 -0.9418 -0.0631 -0.7348
  658MOL0     C88700   4.288   8.907  11.131 -0.1114  0.7129  0.3219
  658MOL0     C88701   4.159   8.873  11.161 -0.8192 -0.7128  0.1357
  658MOL0     C88702   4.130   8.782  11.266  0.0234  0.0206  0.4490
  658MOL0     O88703   3.998   8.759  11.295 -0.4322  0.0537  0.5519
  658MOL0     C88704   3.980   8.642  11.373 -1.0167  0.3470  0.7811
  658MOL0     C88705   3.835   8.612  11.379  0.9152 -0.4631 -0.2277
  658MOL0     C88706   3.819   8.503  11.486 -0.1500 -0.5157  0.0533
  658MOL0     C88707   3.678   8.451  11.477 -0.0808 -0.9367 -0.0411
  658MOL0     C88708   3.668   8.347  11.588  0.2267 -0.4042 -0.6409
  658MOL0     C88709   3.532   8.264  11.570 -0.5307  0.3266 -0.0069
  658MOL0     C88710   3.498   8.179  11.443  0.6251  0.5516  1.3607
  658MOL0     C88711   3.359   8.099  11.446 -0.0522 -0.5589  0.2518
  658MOL0     N88712   3.372   7.993  11.343  0.3580 -0.0730 -0.1671
  658MOL0     C88713   3.436   7.878  11.365 -1.3011 -0.3025 -0.3588
  658MOL0     C88714   3.472   7.816  11.251  0.4484 -0.6796  0.2959
  658MOL0     C88715   3.525   7.682  11.221 -0.1482  0.2516 -0.0688
  658MOL0     C88716   3.677   7.688  11.244  0.0152 -0.4351 -0.4144
  658MOL0     C88717   3.759   7.568  11.185 -0.3080 -0.2627 -0.4900
  658MOL0     C88718   3.909   7.596  11.202 -1.0919  0.1992 -0.4159
  658MOL0     O88719   3.926   7.608  11.347 -0.6583  0.5858  0.0272
  658MOL0     C88720   4.050   7.588  11.391  0.1009  0.5010 -0.4664
  658MOL0     C88721   4.061   7.608  11.528  0.2064  0.1410  0.0859
  658MOL0     C88722   4.175   7.593  11.595  0.1055 -0.3168  0.0353
  658MOL0     C88723   4.290   7.569  11.529  0.1618 -0.3748  0.4214
  658MOL0     C88724   4.421   7.559  11.607  0.8780  0.6118  0.0762
  658MOL0     O88725   4.533   7.533  11.527 -0.2400 -0.1833 -0.8847
  658MOL0     C88726   4.658   7.551  11.574 -0.1091 -0.3031 -0.5126
  658MOL0     C88727   4.699   7.625  11.696 -0.3756  0.4937  1.1244
  658MOL0     C88728   4.836   7.630  11.734 -1.3508  0.0097 -0.1367
  658MOL0     C88729   4.930   7.537  11.681  0.0979 -0.5239 -0.7290
  658MOL0     O88730   5.056   7.520  11.729  0.5425  0.0622 -0.7691
  658MOL0     C88731   5.077   7.539  11.872  0.1356 -0.2806  0.7447
  658MOL0     C88732   5.191   7.435  11.918 -0.4162 -0.2763  0.4927
  658MOL0     C88733   5.321   7.446  11.841 -0.3323  1.0701  0.5357
  658MOL0     C88734   5.384   7.576  11.877  0.1135  0.0911  0.0321
  658MOL0     C88735   5.519   7.596  11.804  0.2355 -0.6429  0.0551
  658MOL0     C88736   5.565   7.740  11.783 -0.2176  0.2393 -0.4467
  658MOL0     C88737   5.679   7.751  11.675 -0.2638 -0.8634 -0.3864
  658MOL0     C88738   5.820   7.761  11.725 -0.0722 -0.7657  0.0717
  658MOL0    Cl88739   5.848   7.914  11.820  0.1577 -0.0418  0.0840
  658MOL0     C88740   4.884   7.455  11.574 -0.5949 -0.5955 -0.8120
  658MOL0     C88741   4.762   7.476  11.521 -1.0148 -1.0445  0.4730
  658MOL0     O88742   4.416   7.554  11.729  0.0351 -0.8555 -0.1914
  658MOL0     C88743   4.286   7.555  11.390  0.2692 -0.0196  0.2983
  658MOL0     C88744   4.161   7.564  11.313 -0.2591 -0.7315 -0.0179
  658MOL0     N88745   3.414   7.900  11.151  0.6222 -0.0886 -0.1835
  658MOL0     N88746   3.353   8.002  11.209 -0.0199 -0.7417 -0.1709
  658MOL0     C88747   4.240   8.729  11.346  0.4708 -0.2100 -0.4187
  658MOL0     C88748   4.369   8.760  11.303  0.2323  0.3417 -0.4356
  658MOL0     C88749   4.762   8.865  11.121  0.6925 -0.1474 -0.5858
  658MOL0     C88750   4.875   8.850  11.198 -0.1452  0.9372 -0.2238
  658MOL0     C88751   4.994   8.900  11.165  0.1007  0.4343  0.1377
  658MOL0     C88752   5.000   8.997  11.068  0.6903 -0.0624  0.4833
  658MOL0     O88753   5.117   9.047  11.032  0.3354 -0.0601 -0.2306
  658MOL0     C88754   5.229   9.047  11.130  1.0922  0.4037 -0.2709
  658MOL0     C88755   5.350   9.117  11.069  0.3647 -0.3381 -0.5962
  658MOL0     C88756   5.393   9.066  10.932  0.4741  0.0669  0.2460
  658MOL0     C88757   5.410   8.911  10.916 -0.7776 -0.5373  0.0874
  658MOL0     C88758   5.533   8.867  10.990  0.0524  0.3152  0.0287
  658MOL0     C88759   5.628   8.831  11.053  0.1026 -0.2925 -0.7044
  658MOL0     C88760   4.889   9.010  10.983 -0.0579  0.8066 -0.3931
  658MOL0     C88761   4.774   8.947  11.008  0.4742  0.5210 -0.4613
  658MOL0     C88762   4.663   8.963  10.908  0.7543 -0.1411  0.6939
  658MOL0     H88763   4.306   8.978  11.052  0.1330 -0.2335 -0.4867
  658MOL0     H88764   4.077   8.908  11.100  0.1093 -0.1108 -0.7944
  658MOL0     H88765   4.041   8.561  11.332 -0.5389  1.3306 -0.5505
  658MOL0     H88766   4.013   8.655  11.476  0.0945  0.0422  0.4767
  658MOL0     H88767   3.797   8.577  11.282 -0.6735  0.6747 -0.0558
  658MOL0     H88768   3.789   8.708  11.406  0.3575 -1.1643  1.4346
  658MOL0     H88769   3.853   8.553  11.577  3.4830  0.8519 -1.8343
  658MOL0     H88770   3.884   8.418  11.461 -1.4996 -0.8604 -2.7173
  658MOL0     H88771   3.591   8.518  11.475  0.7579  0.1740 -0.1018
  658MOL0     H88772   3.668   8.395  11.384  0.4026  0.4351 -0.9491
  658MOL0     H88773   3.754   8.279  11.594 -1.5998 -2.8859 -1.0171
  658MOL0     H88774   3.665   8.403  11.683 -0.4487 -1.7863  0.1819
  658MOL0     H88775   3.522   8.197  11.656 -1.6560  0.5478  0.0498
  658MOL0     H88776   3.457   8.342  11.586  1.5455  2.0307  2.2556
  658MOL0     H88777   3.584   8.111  11.445  1.3368  1.3463 -0.1829
  658MOL0     H88778   3.502   8.235  11.350 -0.8419  0.2556  1.0963
  658MOL0     H88779   3.350   8.057  11.547 -1.2484 -0.2374  0.2889
  658MOL0     H88780   3.276   8.169  11.430  0.3743 -0.2563 -0.7175
  658MOL0     H88781   3.469   7.849  11.464 -1.3716 -2.5769 -0.9411
  658MOL0     H88782   3.478   7.604  11.282 -2.5134  2.7027  1.4475
  658MOL0     H88783   3.509   7.661  11.115  1.6392 -0.8681 -0.1690
  658MOL0     H88784   3.718   7.781  11.205  1.0519 -0.7107 -0.0036
  658MOL0     H88785   3.688   7.696  11.353 -1.1422  2.0728 -0.3959
  658MOL0     H88786   3.747   7.556  11.077  0.2766 -0.3723 -0.5462
  658MOL0     H88787   3.738   7.472  11.235 -0.5845 -0.2329 -0.5473
  658MOL0     H88788   3.935   7.693  11.158 -0.0770  1.4742  2.6964
  658MOL0     H88789   3.971   7.520  11.154 -0.3557 -1.0271  2.2717
  658MOL0     H88790   3.968   7.616  11.584 -0.3540 -1.6126 -0.5114
  658MOL0     H88791   4.169   7.596  11.703 -1.2998 -0.9807 -0.0039
  658MOL0     H88792   4.628   7.686  11.752  2.2735  3.1384  1.8852
  658MOL0     H88793   4.868   7.691  11.818 -1.6114 -0.8509  0.5953
  658MOL0     H88794   5.107   7.642  11.896  0.7308 -0.5661  1.2408
  658MOL0     H88795   4.987   7.524  11.933 -1.5320 -0.1884 -1.5408
  658MOL0     H88796   5.208   7.454  12.024 -1.8145 -0.5639  0.7869
  658MOL0     H88797   5.164   7.333  11.890 -1.5268 -0.2038  1.2590
  658MOL0     H88798   5.393   7.366  11.860  0.1153  0.4339 -3.1156
  658MOL0     H88799   5.296   7.437  11.735  0.0346 -0.8625  0.5745
  658MOL0     H88800   5.401   7.585  11.984  0.3975  1.3117 -0.0987
  658MOL0     H88801   5.326   7.663  11.843 -0.6958  0.6490  2.6136
  658MOL0     H88802   5.506   7.552  11.705  0.3605  1.4746 -0.9556
  658MOL0     H88803   5.593   7.543  11.864 -0.6495 -1.9994 -0.0112
  658MOL0     H88804   5.476   7.796  11.750 -0.6578 -1.1266 -1.6920
  658MOL0     H88805   5.596   7.771  11.883 -0.2438 -0.7631 -0.1191
  658MOL0     H88806   5.655   7.841  11.618 -2.1141  0.2119  1.9164
  658MOL0     H88807   5.665   7.665  11.608 -1.8048 -0.2815 -0.8582
  658MOL0     H88808   5.841   7.669  11.780 -2.0540 -0.2150  1.8767
  658MOL0     H88809   5.888   7.761  11.640  2.1796  4.4466  1.4157
  658MOL0     H88810   4.955   7.389  11.525  1.4944  0.8251  0.1219
  658MOL0     H88811   4.739   7.410  11.438 -0.4400 -0.1197 -0.4440
  658MOL0     H88812   4.376   7.533  11.334  1.2645  0.2652  1.7137
  658MOL0     H88813   4.166   7.557  11.205 -0.0858  2.4886 -0.3177
  658MOL0     H88814   4.235   8.656  11.427  0.8424 -0.1859 -0.3727
  658MOL0     H88815   4.456   8.731  11.362  1.7854  0.6281 -2.4751
  658MOL0     H88816   4.874   8.793  11.291  1.4461  0.1138 -0.6810
  658MOL0     H88817   5.081   8.889  11.229  1.5487  1.2498 -1.5722
  658MOL0     H88818   5.271   8.950  11.157  0.6984  0.1684 -0.4909
  658MOL0     H88819   5.196   9.094  11.223  1.5109  2.9275 -1.3075
  658MOL0     H88820   5.437   9.106  11.134  0.8410 -0.6272 -1.2665
  658MOL0     H88821   5.329   9.224  11.076  0.0045 -0.5047  3.7080
  658MOL0     H88822   5.490   9.112  10.913  0.6214  0.1500  1.1691
  658MOL0     H88823   5.326   9.114  10.861 -1.0272  0.9205  2.1566
  658MOL0     H88824   5.313   8.864  10.930 -1.4482  0.5233 -0.8414
  658MOL0     H88825   5.430   8.899  10.808 -0.4402 -2.7629  0.3451
  658MOL0     H88826   5.704   8.797  11.121 -1.0049  1.8120  1.7771
  658MOL0     H88827   4.893   9.071  10.894 -1.4928  1.6236  0.0737
  658MOL0     H88828   4.602   8.873  10.896  1.6937 -0.5463 -1.5685
  658MOL0     H88829   4.606   9.047  10.947  0.5078  1.5995 -3.0046
  658MOL0     H88830   4.694   8.987  10.806  1.0504 -2.9757  0.0128
  659MOL0     O88831   0.535   6.562  10.326 -0.6078  0.0110  0.0273
  659MOL0     C88832   0.544   6.630  10.224  0.5327  0.3650  0.0206
  659MOL0     O88833   0.662   6.679  10.163  0.0052 -0.1076  0.4724
  659MOL0     C88834   0.779   6.694  10.244 -0.1942 -0.0210  0.8986
  659MOL0     C88835   0.902   6.663  10.182 -0.0601 -0.2040 -0.2203
  659MOL0     C88836   1.023   6.678  10.257 -0.9601  0.1433  0.1696
  659MOL0     C88837   1.022   6.733  10.386 -0.4013 -0.4749  0.5330
  659MOL0     O88838   1.128   6.768  10.452 -0.1892 -0.1370 -0.2439
  659MOL0     C88839   1.229   6.674  10.482 -0.7533 -0.4132 -0.0310
  659MOL0     C88840   1.177   6.554  10.565 -0.3240 -0.3050  0.5733
  659MOL0     C88841   1.287   6.493  10.658 -0.4997  0.3269  0.2747
  659MOL0     C88842   1.408   6.447  10.571 -0.3685  0.6578  1.1811
  659MOL0     C88843   1.530   6.383  10.644  0.1588 -0.0132 -0.4711
  659MOL0     C88844   1.612   6.504  10.687  0.3760  0.1373  0.1782
  659MOL0     C88845   1.738   6.456  10.756 -0.2399  0.5036  0.2849
  659MOL0     C88846   1.803   6.578  10.827 -0.2381  0.3240  0.8241
  659MOL0     N88847   1.937   6.564  10.881 -0.5322 -0.5091 -0.6540
  659MOL0     C88848   2.026   6.481  10.825 -0.4382 -0.6924  0.5485
  659MOL0     C88849   2.141   6.492  10.895  0.5720 -1.1985  0.2912
  659MOL0     C88850   2.276   6.433  10.868  0.2072 -0.2551  0.3492
  659MOL0     C88851   2.379   6.525  10.805  0.3625  0.6145 -0.3155
  659MOL0     C88852   2.501   6.444  10.748  0.2654  0.9494 -0.2892
  659MOL0     C88853   2.594   6.529  10.655  1.5643 -1.1913 -0.6293
  659MOL0     O88854   2.686   6.438  10.604  1.4374 -0.4257  0.2772
  659MOL0     C88855   2.802   6.474  10.544 -0.3781  0.0675 -0.5067
  659MOL0     C88856   2.895   6.371  10.534  0.6029 -0.3594  0.0797
  659MOL0     C88857   3.025   6.390  10.483  0.1547 -0.2345  0.7976
  659MOL0     C88858   3.061   6.515  10.429  0.6096 -0.1768 -0.1993
  659MOL0     C88859   3.206   6.537  10.401  0.1245  0.1562 -0.5499
  659MOL0     O88860   3.301   6.460  10.457  0.4456  1.4086  0.0039
  659MOL0     C88861   3.435   6.469  10.426 -0.6049 -0.0467 -0.1814
  659MOL0     C88862   3.518   6.361  10.470 -0.4182  0.2972 -0.4693
  659MOL0     C88863   3.660   6.373  10.450 -0.3081  0.3278 -0.2483
  659MOL0     C88864   3.720   6.481  10.398 -0.1226 -0.3077  0.3874
  659MOL0     O88865   3.858   6.478  10.382 -0.1670 -0.7080 -0.3569
  659MOL0     C88866   3.897   6.518  10.251  0.3549 -1.1162  0.7953
  659MOL0     C88867   4.042   6.484  10.217 -0.6198  0.5915 -0.9331
  659MOL0     C88868   4.142   6.568  10.300 -0.6946 -0.5097 -0.4348
  659MOL0     C88869   4.284   6.503  10.282  0.3494  0.3247  0.6353
  659MOL0     C88870   4.389   6.606  10.311  0.2100 -0.2524  0.9257
  659MOL0     C88871   4.526   6.558  10.254 -0.0127  0.1387  0.2734
  659MOL0     C88872   4.627   6.663  10.304 -0.2645 -0.2204 -0.0971
  659MOL0     C88873   4.761   6.614  10.261  0.1546  0.7494  0.1611
  659MOL0    Cl88874   4.892   6.709  10.330  0.3167 -0.3982 -0.0440
  659MOL0     C88875   3.639   6.595  10.370  0.3617  0.0761 -0.4051
  659MOL0     C88876   3.503   6.586  10.375  0.3082  0.9438  0.0325
  659MOL0     O88877   3.225   6.636  10.334  0.1878 -0.2427 -0.3560
  659MOL0     C88878   2.963   6.617  10.437  0.9297  0.3321  0.5078
  659MOL0     C88879   2.833   6.595  10.490 -0.0286 -0.4242 -0.9223
  659MOL0     N88880   2.105   6.560  11.012 -0.9860  0.6613  0.0321
  659MOL0     N88881   1.981   6.603  11.002 -0.6845 -0.1868 -0.8487
  659MOL0     C88882   0.903   6.765  10.439 -0.3221 -0.2580  0.3717
  659MOL0     C88883   0.778   6.741  10.373 -0.3062 -0.3315  1.2037
  659MOL0     C88884   0.415   6.652  10.157 -0.3510  0.6960  0.2725
  659MOL0     C88885   0.407   6.621  10.021  0.0189  1.0229 -0.2608
  659MOL0     C88886   0.301   6.662   9.948  0.0542  0.3679 -1.3370
  659MOL0     C88887   0.191   6.725  10.011  0.0368  0.0876  0.1229
  659MOL0     O88888   0.067   6.767   9.953 -0.4469  0.1601 -0.3756
  659MOL0     C88889   0.039   6.733   9.821  0.4687  0.6367  0.7802
  659MOL0     C88890  -0.112   6.754   9.793 -1.2285  0.3679  0.3127
  659MOL0     C88891  -0.137   6.781   9.644 -0.2918 -0.8887 -0.5118
  659MOL0     C88892  -0.287   6.804   9.622 -1.0136  0.5282 -0.7773
  659MOL0     C88893  -0.301   6.823   9.474  0.3357 -0.1938 -0.2117
  659MOL0     C88894  -0.304   6.840   9.351 -0.3173  0.0023 -0.0607
  659MOL0     C88895   0.193   6.748  10.148  0.8982  0.0653  0.2389
  659MOL0     C88896   0.309   6.714  10.219 -0.3849 -0.2484 -0.7800
  659MOL0     C88897   0.316   6.747  10.366  0.9086 -0.3170 -0.5064
  659MOL0     H88898   0.907   6.607  10.089 -2.2026 -0.4032 -0.2689
  659MOL0     H88899   1.112   6.651  10.201 -0.4736 -2.8697  2.1847
  659MOL0     H88900   1.289   6.635  10.400  2.7912  0.1179  2.1007
  659MOL0     H88901   1.297   6.741  10.537 -0.4250 -0.6078 -0.1974
  659MOL0     H88902   1.121   6.480  10.508 -0.8309  1.1705 -0.9311
  659MOL0     H88903   1.103   6.594  10.634  0.5794  1.0732  0.7863
  659MOL0     H88904   1.253   6.407  10.717  1.3530  0.4930  1.7069
  659MOL0     H88905   1.321   6.564  10.735 -0.2439  1.4260 -0.8178
  659MOL0     H88906   1.375   6.373  10.497 -0.9410  2.8357 -0.8567
  659MOL0     H88907   1.451   6.531  10.516  0.1925  0.3267  1.1050
  659MOL0     H88908   1.505   6.321  10.731 -1.1872  0.3785 -0.5541
  659MOL0     H88909   1.582   6.332  10.563 -0.4461 -1.1697 -0.1691
  659MOL0     H88910   1.632   6.571  10.604 -4.5077  2.2803  0.4235
  659MOL0     H88911   1.552   6.556  10.762 -1.1720  0.2287 -1.1024
  659MOL0     H88912   1.805   6.430  10.674  0.5062  2.3828  0.2307
  659MOL0     H88913   1.722   6.379  10.831  0.2438  1.7566  1.7157
  659MOL0     H88914   1.813   6.642  10.739  1.2617 -0.9040  0.0617
  659MOL0     H88915   1.734   6.623  10.899  0.5685  0.5032  1.5043
  659MOL0     H88916   2.012   6.439  10.726 -1.3608  0.1266  0.3111
  659MOL0     H88917   2.320   6.381  10.954  0.6992 -1.6164 -0.6937
  659MOL0     H88918   2.262   6.347  10.802  0.5835  0.0227 -0.1035
  659MOL0     H88919   2.321   6.563  10.720  0.9565 -0.3476 -1.1746
  659MOL0     H88920   2.409   6.598  10.881 -1.5349 -1.6741  2.8766
  659MOL0     H88921   2.465   6.359  10.690  0.2054  1.6670 -1.3298
  659MOL0     H88922   2.558   6.404  10.832 -1.3088  0.9296  0.8090
  659MOL0     H88923   2.627   6.611  10.719 -1.7395 -1.2926  1.4189
  659MOL0     H88924   2.530   6.574  10.578 -0.1253 -1.2497  0.7086
  659MOL0     H88925   2.873   6.279  10.587 -0.5457 -0.7616 -1.0491
  659MOL0     H88926   3.092   6.305  10.474  3.0631  2.1399 -2.5605
  659MOL0     H88927   3.479   6.269  10.513  0.6562  0.1042  0.1313
  659MOL0     H88928   3.715   6.282  10.474 -0.8045 -0.6760 -2.6350
  659MOL0     H88929   3.831   6.476  10.174  2.0355  0.3054 -1.5695
  659MOL0     H88930   3.881   6.625  10.236  0.4903 -1.0073  1.4204
  659MOL0     H88931   4.049   6.379  10.244  0.4011  0.8884  0.0481
  659MOL0     H88932   4.062   6.492  10.110  0.3447 -0.0860 -0.8114
  659MOL0     H88933   4.145   6.669  10.256  2.1380 -0.7611 -1.0006
  659MOL0     H88934   4.115   6.571  10.406  0.5970 -0.1588 -0.1055
  659MOL0     H88935   4.295   6.464  10.180 -0.2927  0.4688  0.5037
  659MOL0     H88936   4.287   6.410  10.340 -1.0160  1.1009  2.0521
  659MOL0     H88937   4.401   6.611  10.420 -0.6390 -1.0626  1.0737
  659MOL0     H88938   4.364   6.704  10.269  0.0708 -0.4426  0.5647
  659MOL0     H88939   4.554   6.457  10.284  2.2560  0.8687  0.7804
  659MOL0     H88940   4.517   6.560  10.145 -0.9539 -1.5200  0.2897
  659MOL0     H88941   4.627   6.681  10.412 -1.9238 -0.6850  0.0033
  659MOL0     H88942   4.585   6.755  10.263 -0.4826 -0.4654 -0.4297
  659MOL0     H88943   4.773   6.513  10.303  3.7685  1.1922  0.4990
  659MOL0     H88944   4.770   6.617  10.152  0.2475 -2.3462 -0.0105
  659MOL0     H88945   3.694   6.682  10.338  0.6318 -0.8691 -2.6901
  659MOL0     H88946   3.447   6.673  10.341  0.4853  1.6836  1.5409
  659MOL0     H88947   2.978   6.718  10.401 -0.2424  1.5278  3.1120
  659MOL0     H88948   2.747   6.661  10.500 -0.4441 -1.2634  2.3312
  659MOL0     H88949   0.889   6.801  10.540  0.2474 -1.6322  0.9686
  659MOL0     H88950   0.687   6.777  10.419 -2.5557 -1.6352 -1.9198
  659MOL0     H88951   0.496   6.581   9.972  2.3733  1.5353  3.2052
  659MOL0     H88952   0.303   6.642   9.841 -0.8101  1.7303 -1.6213
  659MOL0     H88953   0.060   6.631   9.789 -0.9258  0.4241  0.4903
  659MOL0     H88954   0.107   6.800   9.768  1.4033 -0.8419  0.0667
  659MOL0     H88955  -0.157   6.831   9.857 -0.8620  2.2346 -1.5712
  659MOL0     H88956  -0.173   6.666   9.816 -1.0523 -0.9399 -3.4875
  659MOL0     H88957  -0.120   6.694   9.580 -1.6581 -1.4745 -0.1221
  659MOL0     H88958  -0.082   6.868   9.607 -1.0907  0.0776  0.4812
  659MOL0     H88959  -0.353   6.728   9.664 -0.4793  1.0995  1.1824
  659MOL0     H88960  -0.328   6.894   9.667 -0.9004 -0.4765  1.4734
  659MOL0     H88961  -0.306   6.859   9.246  0.5076  0.2872 -0.0382
  659MOL0     H88962   0.111   6.801  10.195  2.7363  1.0970  2.4706
  659MOL0     H88963   0.383   6.828  10.394  1.2662 -0.1080 -1.9070
  659MOL0     H88964   0.217   6.781  10.399  1.1461 -1.4052  1.4828
  659MOL0     H88965   0.335   6.655  10.422 -1.8884  0.4659  2.0376
  660MOL0     O88966   9.824   1.217   1.924 -0.2847 -0.1698  0.0319
  660MOL0     C88967   9.734   1.237   1.841 -1.0451  0.2539 -0.4050
  660MOL0     O88968   9.705   1.162   1.726  0.2475 -0.4394  0.4410
  660MOL0     C88969   9.807   1.088   1.676 -0.0989 -1.0696 -0.4381
  660MOL0     C88970   9.841   0.971   1.748 -0.0862 -0.8141  0.3490
  660MOL0     C88971   9.948   0.899   1.697  0.3172  0.0369  0.8412
  660MOL0     C88972  10.024   0.944   1.588 -0.8774 -0.1405  0.5439
  660MOL0     O88973  10.131   0.865   1.545  0.6830  0.7241 -0.3150
  660MOL0     C88974  10.215   0.893   1.434 -0.5642 -0.3393  0.6155
  660MOL0     C88975  10.332   0.792   1.408  0.4335 -0.0901  0.7404
  660MOL0     C88976  10.292   0.656   1.358 -0.3946  0.2694 -0.1725
  660MOL0     C88977  10.265   0.662   1.201 -0.1862 -0.4767  0.0288
  660MOL0     C88978  10.211   0.535   1.145  0.0227 -0.1195  0.8118
  660MOL0     C88979  10.307   0.419   1.153  0.0644  0.9699  0.1458
  660MOL0     C88980  10.272   0.301   1.062 -0.1054  0.7461 -0.2820
  660MOL0     C88981  10.389   0.208   1.076 -0.6523  0.3367  0.1637
  660MOL0     N88982  10.512   0.258   1.009  0.2256  1.1750 -0.6691
  660MOL0     C88983  10.542   0.231   0.873 -0.1628 -0.6395  0.1773
  660MOL0     C88984  10.661   0.289   0.857 -0.0354 -0.3757  0.8431
  660MOL0     C88985  10.734   0.288   0.722 -0.1314 -0.0910  0.0441
  660MOL0     C88986  10.867   0.218   0.729 -0.3509 -0.1529  0.5312
  660MOL0     C88987  10.911   0.168   0.590  0.3804  0.8727 -0.5636
  660MOL0     C88988  10.951   0.281   0.500 -0.1520 -0.6319  0.0610
  660MOL0     O88989  11.080   0.335   0.543 -0.0589  0.5337 -0.6274
  660MOL0     C88990  11.125   0.460   0.499  0.8831 -0.2668  0.5574
  660MOL0     C88991  11.248   0.502   0.541  0.1834 -0.4527 -0.0791
  660MOL0     C88992  11.312   0.623   0.487  0.1563 -0.1867 -0.1638
  660MOL0     C88993  11.232   0.708   0.406 -0.0040  0.2295 -0.1166
  660MOL0     C88994  11.279   0.840   0.353 -0.2345  0.2912 -0.7989
  660MOL0     O88995  11.404   0.874   0.393 -0.4636 -0.6098 -0.0261
  660MOL0     C88996  11.460   0.982   0.337 -0.2161 -0.6205  0.0614
  660MOL0     C88997  11.493   1.092   0.419  0.0270 -0.3167  0.2573
  660MOL0     C88998  11.540   1.211   0.353  0.3125 -0.2464 -0.0674
  660MOL0     C88999  11.553   1.223   0.210 -0.7635  0.3661 -0.0822
  660MOL0     O89000  11.594   1.337   0.150 -0.9366  0.2594 -0.0356
  660MOL0     C89001  11.701   1.323   0.058 -0.3197 -0.1746  0.0136
  660MOL0     C89002  11.825   1.377   0.136 -0.5565  0.0832 -0.0093
  660MOL0     C89003  11.907   1.272   0.211  0.9103 -0.0929  0.5162
  660MOL0     C89004  11.892   1.286   0.364  0.1934  0.2174 -0.8326
  660MOL0     C89005  11.998   1.213   0.451  0.7589  0.0186 -0.3947
  660MOL0     C89006  12.144   1.225   0.390 -0.0406  0.6431 -0.3457
  660MOL0     C89007  12.244   1.160   0.484  0.4951 -0.1228  0.1001
  660MOL0     C89008  12.384   1.141   0.425 -0.1672  0.4954 -0.2549
  660MOL0    Cl89009  12.471   1.042   0.538 -0.0152  0.1367 -0.1952
  660MOL0     C89010  11.507   1.112   0.136 -0.3764 -0.6090 -0.3724
  660MOL0     C89011  11.473   0.990   0.196 -0.8826  0.1775  0.8518
  660MOL0     O89012  11.203   0.915   0.294  0.8776 -0.2422 -0.3519
  660MOL0     C89013  11.097   0.667   0.374 -0.5660  0.4153  0.3792
  660MOL0     C89014  11.049   0.545   0.413 -0.5135 -0.1122 -0.5860
  660MOL0     N89015  10.707   0.350   0.975  0.7058  0.2445 -0.0210
  660MOL0     N89016  10.615   0.330   1.068 -0.3741  0.3217  0.0680
  660MOL0     C89017   9.985   1.054   1.512 -0.8514 -0.2990  1.3491
  660MOL0     C89018   9.876   1.132   1.561 -0.5379 -0.3186  0.2632
  660MOL0     C89019   9.635   1.347   1.860  0.3614 -0.8801  0.0204
  660MOL0     C89020   9.623   1.393   1.994  0.2312  0.7871 -0.5073
  660MOL0     C89021   9.514   1.469   2.032 -0.0834  0.1140 -0.2575
  660MOL0     C89022   9.425   1.524   1.939 -0.0663 -0.0108 -0.5724
  660MOL0     O89023   9.325   1.602   1.989  0.4539  0.8800  0.4210
  660MOL0     C89024   9.196   1.596   1.918 -0.0727 -0.4635 -1.1661
  660MOL0     C89025   9.147   1.455   1.910  0.6078 -0.0266 -0.1712
  660MOL0     C89026   8.997   1.443   1.865  0.7452 -0.6431 -0.4271
  660MOL0     C89027   8.920   1.319   1.915 -0.1512  0.2078 -0.0450
  660MOL0     C89028   8.968   1.186   1.871 -0.5110 -0.1395 -0.6387
  660MOL0     C89029   9.009   1.074   1.851 -0.7882 -0.0389  0.1513
  660MOL0     C89030   9.451   1.489   1.802 -0.1012 -0.0098 -0.1849
  660MOL0     C89031   9.549   1.397   1.762 -1.2059  0.0035  1.2465
  660MOL0     C89032   9.579   1.376   1.614  0.8381  0.0150  0.2988
  660MOL0     H89033   9.784   0.932   1.833 -1.4074 -0.8122 -0.5041
  660MOL0     H89034   9.969   0.810   1.756  0.8442 -1.3893 -1.3290
  660MOL0     H89035  10.151   0.891   1.346 -0.7098  0.8068  0.6788
  660MOL0     H89036  10.253   0.996   1.441 -0.2834 -0.2391 -1.6181
  660MOL0     H89037  10.377   0.791   1.508 -2.5442  2.2630  2.3011
  660MOL0     H89038  10.402   0.834   1.335 -0.4071  0.7250  0.3786
  660MOL0     H89039  10.205   0.623   1.415 -0.6093  0.4098 -0.4173
  660MOL0     H89040  10.377   0.589   1.372  0.4471  1.3632  0.1871
  660MOL0     H89041  10.194   0.742   1.178  0.1836 -0.6143 -1.7114
  660MOL0     H89042  10.360   0.692   1.156  0.0128  0.9457  1.3026
  660MOL0     H89043  10.117   0.500   1.190 -1.2856  1.5289 -0.4624
  660MOL0     H89044  10.199   0.541   1.036  0.8637 -4.2389  0.3306
  660MOL0     H89045  10.410   0.454   1.140 -0.3840  2.4901  0.4548
  660MOL0     H89046  10.324   0.381   1.254  4.3423  0.8401 -0.4341
  660MOL0     H89047  10.254   0.336   0.960  0.6423  0.7640 -0.4124
  660MOL0     H89048  10.185   0.256   1.110  1.7503 -1.2603  1.3835
  660MOL0     H89049  10.407   0.190   1.183  1.7313 -5.0179 -0.8013
  660MOL0     H89050  10.385   0.099   1.064  0.2505 -0.2022  3.6675
  660MOL0     H89051  10.492   0.174   0.796  1.6096  0.7293 -2.1159
  660MOL0     H89052  10.675   0.234   0.647 -0.3740  0.5126 -0.2070
  660MOL0     H89053  10.756   0.388   0.682  1.7551 -1.2169 -1.9750
  660MOL0     H89054  10.944   0.289   0.762  0.7292 -1.9874  2.1491
  660MOL0     H89055  10.876   0.136   0.800 -1.2132  0.4782  1.4032
  660MOL0     H89056  10.836   0.102   0.545  1.0887  1.6890 -3.1169
  660MOL0     H89057  10.994   0.100   0.615 -1.1582 -1.3198 -1.0975
  660MOL0     H89058  10.871   0.354   0.489  1.5448  1.6033  1.5889
  660MOL0     H89059  10.973   0.238   0.401  1.1821  2.9888 -1.3716
  660MOL0     H89060  11.302   0.434   0.606  1.9016  0.3477 -0.6267
  660MOL0     H89061  11.413   0.650   0.515  0.2712  0.5778 -1.2075
  660MOL0     H89062  11.467   1.084   0.524  1.3467  0.4319  0.6564
  660MOL0     H89063  11.557   1.301   0.411 -0.8373 -2.0787  3.4305
  660MOL0     H89064  11.705   1.220   0.022 -3.8657 -1.4582  2.6683
  660MOL0     H89065  11.679   1.391  -0.025  1.4742  0.6520  0.1655
  660MOL0     H89066  11.886   1.430   0.062 -2.6239  2.1728 -0.3755
  660MOL0     H89067  11.807   1.461   0.205 -1.1783 -0.1169  0.0853
  660MOL0     H89068  11.882   1.175   0.167  0.3964 -0.1932  1.0323
  660MOL0     H89069  12.009   1.287   0.174 -0.5413  5.1014 -2.3458
  660MOL0     H89070  11.796   1.250   0.401  0.4916  1.0675  0.8256
  660MOL0     H89071  11.908   1.390   0.392  2.2337 -0.9431  2.9733
  660MOL0     H89072  11.960   1.110   0.453  0.5442  0.0839  2.2562
  660MOL0     H89073  11.997   1.246   0.555 -0.0920  1.4719 -0.8263
  660MOL0     H89074  12.167   1.176   0.295 -0.3466 -0.2719  0.0375
  660MOL0     H89075  12.162   1.333   0.386 -0.7808  0.9083  2.0263
  660MOL0     H89076  12.203   1.064   0.517 -0.8123  1.2048  2.5837
  660MOL0     H89077  12.255   1.228   0.569 -0.2870 -0.5412  0.5400
  660MOL0     H89078  12.378   1.079   0.336 -0.0417  0.5934 -0.3318
  660MOL0     H89079  12.422   1.244   0.417 -3.1769  1.6293 -1.6883
  660MOL0     H89080  11.505   1.118   0.028 -2.5855  1.2020 -0.3026
  660MOL0     H89081  11.434   0.915   0.129  2.4288  0.7328 -2.0429
  660MOL0     H89082  11.031   0.722   0.307 -0.3264  0.5004  0.2117
  660MOL0     H89083  10.946   0.519   0.390  0.4556 -1.0634 -4.7496
  660MOL0     H89084  10.035   1.074   1.418  0.1264 -2.9858  1.2188
  660MOL0     H89085   9.849   1.224   1.509  0.3066  0.3286  0.9540
  660MOL0     H89086   9.695   1.366   2.071  0.2084  4.6590  1.0660
  660MOL0     H89087   9.496   1.493   2.136 -0.8775 -3.3983  0.5298
  660MOL0     H89088   9.212   1.645   1.821 -1.8013  0.4713 -1.0142
  660MOL0     H89089   9.135   1.668   1.973 -1.7056 -2.5301 -0.1390
  660MOL0     H89090   9.171   1.404   2.004  1.4868  0.2715 -0.2254
  660MOL0     H89091   9.197   1.396   1.833 -0.3457 -0.2080 -0.6598
  660MOL0     H89092   8.995   1.431   1.756  0.7796  2.1889 -0.8187
  660MOL0     H89093   8.950   1.537   1.894  1.1126  0.0546 -2.0156
  660MOL0     H89094   8.918   1.312   2.024 -0.6888  0.3340 -0.0457
  660MOL0     H89095   8.814   1.334   1.893 -0.1374  1.3179  0.5557
  660MOL0     H89096   9.034   0.978   1.811 -0.0060  0.7682 -1.4288
  660MOL0     H89097   9.377   1.532   1.735 -0.6609  0.7610  0.8921
  660MOL0     H89098   9.529   1.443   1.543  0.8596 -2.6126 -2.4028
  660MOL0     H89099   9.686   1.375   1.592  1.0651  3.5229  0.7561
  660MOL0     H89100   9.545   1.277   1.582  0.6154  0.4574 -0.8722
  661MOL0     O89101   4.916   7.919   8.106  0.2367  0.0669  0.6661
  661MOL0     C89102   4.891   7.981   8.208 -0.6125 -0.6367  0.0434
  661MOL0     O89103   4.985   8.064   8.270  0.6936  0.0650  0.5227
  661MOL0     C89104   5.110   8.062   8.221  0.1027 -0.1150 -0.4888
  661MOL0     C89105   5.163   8.191   8.203  0.7855 -0.2716 -0.1474
  661MOL0     C89106   5.294   8.217   8.168 -0.3955  1.0418 -0.3771
  661MOL0     C89107   5.387   8.108   8.146  0.0611 -0.1362  0.3115
  661MOL0     O89108   5.515   8.129   8.104 -0.3586 -0.1843 -0.2670
  661MOL0     C89109   5.602   8.027   8.060  0.5254 -0.1114 -0.1281
  661MOL0     C89110   5.677   7.971   8.176  0.1268  0.6524 -0.8676
  661MOL0     C89111   5.737   7.834   8.157  0.7564  0.4062 -0.8368
  661MOL0     C89112   5.810   7.787   8.281  0.3374  0.0052 -0.4667
  661MOL0     C89113   5.928   7.703   8.240 -0.5417 -1.0503  0.1470
  661MOL0     C89114   5.981   7.610   8.346  0.4482 -0.3154 -0.2178
  661MOL0     C89115   6.114   7.547   8.311 -0.8394  0.6208  0.5729
  661MOL0     C89116   6.165   7.450   8.413  0.6879  0.6958 -0.7868
  661MOL0     N89117   6.294   7.394   8.362 -0.0085 -0.3965  0.0335
  661MOL0     C89118   6.409   7.470   8.362  0.1682  0.2099  0.2270
  661MOL0     C89119   6.505   7.399   8.299  0.2857  0.1744 -1.1971
  661MOL0     C89120   6.650   7.428   8.298  0.1069 -0.1441  0.5435
  661MOL0     C89121   6.739   7.309   8.256  1.3740 -0.0051 -0.5889
  661MOL0     C89122   6.884   7.338   8.274 -0.2973 -0.0886  0.1605
  661MOL0     C89123   6.974   7.239   8.211  0.5827 -0.3191  0.0540
  661MOL0     O89124   7.113   7.267   8.246 -0.3750  0.1696 -0.1201
  661MOL0     C89125   7.214   7.174   8.204  0.5003 -0.6383  1.4051
  661MOL0     C89126   7.346   7.201   8.230  0.0568 -0.0063 -0.5590
  661MOL0     C89127   7.444   7.120   8.170  0.8808 -0.3819  0.9349
  661MOL0     C89128   7.409   7.011   8.091 -0.9199  0.4400 -1.4005
  661MOL0     C89129   7.515   6.926   8.032  0.1355  0.6979 -0.3407
  661MOL0     O89130   7.636   6.933   8.092 -0.6833  0.7422 -0.1242
  661MOL0     C89131   7.747   6.855   8.063  0.7455  0.2641  0.1879
  661MOL0     C89132   7.772   6.769   7.960 -1.0908  0.6657  0.1999
  661MOL0     C89133   7.892   6.693   7.947 -0.1581  0.8387 -0.2842
  661MOL0     C89134   7.991   6.704   8.048 -0.4133 -0.3771  0.2309
  661MOL0     O89135   8.106   6.628   8.030  0.3913  0.0975  0.0367
  661MOL0     C89136   8.214   6.652   8.113 -0.6239  0.5010  0.0536
  661MOL0     C89137   8.319   6.548   8.105 -0.0333  0.0816  1.1940
  661MOL0     C89138   8.378   6.540   7.959 -0.8806  0.0306  0.3798
  661MOL0     C89139   8.461   6.415   7.926 -0.2715 -0.5344 -0.9035
  661MOL0     C89140   8.586   6.387   8.016 -0.6266 -0.3961 -0.2820
  661MOL0     C89141   8.692   6.497   7.999  0.4110 -0.8288  0.3761
  661MOL0     C89142   8.823   6.473   8.083  0.6082 -0.3837 -0.2826
  661MOL0     C89143   8.911   6.590   8.056 -0.4470  0.3023 -0.3806
  661MOL0    Cl89144   9.070   6.583   8.133 -0.2950  0.0316 -0.2453
  661MOL0     C89145   7.967   6.795   8.150 -0.5081  0.4671  0.2904
  661MOL0     C89146   7.846   6.857   8.163  0.2661  0.5285 -0.2913
  661MOL0     O89147   7.478   6.834   7.951 -0.0340 -0.8378 -1.2093
  661MOL0     C89148   7.274   6.980   8.079  0.0096  0.9899  0.3190
  661MOL0     C89149   7.172   7.057   8.137 -0.2994 -0.0008 -0.2296
  661MOL0     N89150   6.453   7.276   8.263  0.3829  0.6592  0.0109
  661MOL0     N89151   6.322   7.283   8.296 -0.6596  0.2693  0.0768
  661MOL0     C89152   5.335   7.974   8.164 -0.2459 -0.0672 -0.0883
  661MOL0     C89153   5.200   7.956   8.197 -0.4213  0.1287  0.3810
  661MOL0     C89154   4.765   7.967   8.275  1.0286  0.1729  0.1580
  661MOL0     C89155   4.740   8.043   8.391  0.6143 -1.1608 -0.4139
  661MOL0     C89156   4.624   8.030   8.467 -0.0652 -0.0108 -0.4260
  661MOL0     C89157   4.519   7.946   8.433  0.0396  0.6418  0.3125
  661MOL0     O89158   4.418   7.915   8.523 -0.7662  0.7825 -0.3091
  661MOL0     C89159   4.301   7.996   8.495 -0.5949 -0.0908  0.8726
  661MOL0     C89160   4.185   7.920   8.545  0.1843 -0.4107 -0.0121
  661MOL0     C89161   4.062   7.988   8.496  0.2219 -0.2734 -0.2364
  661MOL0     C89162   3.941   7.968   8.591 -0.7007 -0.4340 -0.6357
  661MOL0     C89163   3.919   7.820   8.605  0.4531 -0.6797  0.5492
  661MOL0     C89164   3.913   7.695   8.613 -0.3641 -0.6075 -0.0616
  661MOL0     C89165   4.538   7.879   8.315 -0.1446 -0.6404  0.3567
  661MOL0     C89166   4.650   7.895   8.230 -0.1397 -0.5506 -0.3033
  661MOL0     C89167   4.658   7.804   8.111  0.0940 -0.2930 -1.0162
  661MOL0     H89168   5.097   8.274   8.226 -1.2564 -1.6635 -0.7528
  661MOL0     H89169   5.332   8.319   8.177 -2.9523  1.9417  1.1423
  661MOL0     H89170   5.551   7.946   8.008  2.6472 -1.3244 -0.4462
  661MOL0     H89171   5.670   8.072   7.987 -1.3663  1.9106 -0.7432
  661MOL0     H89172   5.605   7.951   8.255 -2.5968 -0.2556 -3.3946
  661MOL0     H89173   5.756   8.044   8.197 -1.6974  2.4738  0.0503
  661MOL0     H89174   5.806   7.843   8.073  1.9049 -2.2104 -0.2748
  661MOL0     H89175   5.659   7.767   8.120  2.7831 -1.9655 -1.0595
  661MOL0     H89176   5.846   7.871   8.341 -2.2620 -0.5925  2.1423
  661MOL0     H89177   5.748   7.724   8.345  2.6495  0.6665  2.6180
  661MOL0     H89178   5.902   7.643   8.152  1.0750  1.4236 -2.1741
  661MOL0     H89179   6.012   7.767   8.211  0.3276 -1.1737  2.2642
  661MOL0     H89180   5.986   7.657   8.445  1.6549  1.9173 -1.2597
  661MOL0     H89181   5.911   7.526   8.347 -0.6021  0.4738  2.6346
  661MOL0     H89182   6.189   7.624   8.293 -3.7318  3.5104 -0.2636
  661MOL0     H89183   6.109   7.497   8.213  1.2450 -0.4985  0.9827
  661MOL0     H89184   6.174   7.495   8.513 -1.3107  0.9607 -0.6939
  661MOL0     H89185   6.107   7.360   8.434  2.3299  0.0699  1.4936
  661MOL0     H89186   6.420   7.562   8.418 -3.9721 -0.1731  2.0258
  661MOL0     H89187   6.664   7.502   8.219  2.8258  0.5873  1.6059
  661MOL0     H89188   6.674   7.470   8.396 -1.8705  0.1549  0.9520
  661MOL0     H89189   6.712   7.225   8.320  3.2188  0.9330  1.5833
  661MOL0     H89190   6.709   7.280   8.155  2.2175 -2.2827 -0.2353
  661MOL0     H89191   6.899   7.333   8.382  1.8528  0.4033 -0.0569
  661MOL0     H89192   6.917   7.432   8.228  1.6471 -0.1068  1.3705
  661MOL0     H89193   6.964   7.260   8.105  0.5308  1.9812  0.4514
  661MOL0     H89194   6.943   7.141   8.247  1.8923 -0.8414 -0.1677
  661MOL0     H89195   7.360   7.287   8.294 -1.4145  0.5598 -0.9589
  661MOL0     H89196   7.546   7.155   8.182  0.5598  0.8540  0.2077
  661MOL0     H89197   7.708   6.752   7.874  2.1494  0.3509 -2.3817
  661MOL0     H89198   7.917   6.622   7.869 -1.9331  1.2305 -1.2700
  661MOL0     H89199   8.269   6.745   8.093  1.4194 -0.8963 -1.1649
  661MOL0     H89200   8.167   6.644   8.211 -2.5137  0.0830 -0.8445
  661MOL0     H89201   8.403   6.583   8.166  1.1628 -0.0154 -0.3347
  661MOL0     H89202   8.280   6.449   8.131  0.4496 -0.3284  0.4188
  661MOL0     H89203   8.295   6.553   7.889 -1.2473  1.5517  1.0555
  661MOL0     H89204   8.440   6.628   7.938  0.6145 -1.0211  0.2072
  661MOL0     H89205   8.484   6.432   7.820  0.2009 -2.1288 -1.0914
  661MOL0     H89206   8.397   6.327   7.927  2.1544 -2.4119  0.0929
  661MOL0     H89207   8.634   6.291   7.998  2.3914  0.1754  3.4603
  661MOL0     H89208   8.558   6.390   8.122 -2.8815  1.7020 -0.8358
  661MOL0     H89209   8.730   6.494   7.896  2.3545  0.8959  0.9815
  661MOL0     H89210   8.642   6.593   8.013  1.9830  0.1043 -0.2120
  661MOL0     H89211   8.881   6.385   8.053 -2.7472 -2.4027 -1.4187
  661MOL0     H89212   8.806   6.481   8.190 -1.6258  1.6634 -0.7021
  661MOL0     H89213   8.923   6.606   7.949  1.0249 -0.5830 -0.3804
  661MOL0     H89214   8.861   6.683   8.082  1.2436  1.0985  0.1702
  661MOL0     H89215   8.037   6.824   8.228 -2.1383  1.3538  1.4873
  661MOL0     H89216   7.831   6.901   8.261  1.2073  3.1700 -1.2461
  661MOL0     H89217   7.243   6.887   8.033 -1.3172  1.0440  1.0550
  661MOL0     H89218   7.071   7.019   8.126  0.0482 -0.5995 -1.4492
  661MOL0     H89219   5.397   7.887   8.143 -3.4140 -2.1633 -1.4534
  661MOL0     H89220   5.155   7.858   8.209 -1.2195  0.7230  2.9210
  661MOL0     H89221   4.816   8.117   8.415 -0.9944  0.4847 -0.2284
  661MOL0     H89222   4.613   8.098   8.551  1.2076  2.1718 -1.9012
  661MOL0     H89223   4.290   8.018   8.388 -2.9779 -1.2578  0.8069
  661MOL0     H89224   4.305   8.097   8.536 -1.5658  0.6636 -0.7857
  661MOL0     H89225   4.185   7.916   8.654 -0.7346 -2.8554 -0.0366
  661MOL0     H89226   4.189   7.818   8.506 -2.4359 -1.6716  2.5697
  661MOL0     H89227   4.043   7.936   8.402  0.6562 -0.9864  0.0592
  661MOL0     H89228   4.070   8.097   8.496 -0.9108 -0.0584  3.3228
  661MOL0     H89229   3.973   8.007   8.688 -2.4111  1.8447 -0.9077
  661MOL0     H89230   3.853   8.021   8.554  1.1045  1.9558 -1.7614
  661MOL0     H89231   3.899   7.591   8.593  0.8234 -0.5853 -1.1075
  661MOL0     H89232   4.465   7.811   8.273  1.4686 -0.0663 -3.8489
  661MOL0     H89233   4.564   7.749   8.100  0.1024 -1.1311  2.2129
  661MOL0     H89234   4.690   7.860   8.022  2.2010  1.9600  1.0169
  661MOL0     H89235   4.733   7.726   8.129 -0.9653 -1.4868 -1.5532
  662MOL0     O89236   5.220   7.835  10.006  0.4872  0.0116 -0.1556
  662MOL0     C89237   5.159   7.737   9.964  0.7761  0.5274 -0.4170
  662MOL0     O89238   5.217   7.636   9.889 -0.0269  0.4053  0.0490
  662MOL0     C89239   5.350   7.615   9.880  0.3189  0.1391 -0.3836
  662MOL0     C89240   5.406   7.493   9.917  0.2988 -0.5824 -0.2976
  662MOL0     C89241   5.546   7.472   9.903  0.5732 -0.0673  0.6839
  662MOL0     C89242   5.624   7.577   9.850 -0.8919  0.3413 -0.9527
  662MOL0     O89243   5.761   7.556   9.847  0.2111  0.2829 -0.1734
  662MOL0     C89244   5.859   7.642   9.792  0.6848 -0.1051  0.1558
  662MOL0     C89245   5.999   7.604   9.844 -0.6962 -0.5440  0.6515
  662MOL0     C89246   6.112   7.676   9.773  0.7640  0.3545 -0.4813
  662MOL0     C89247   6.248   7.626   9.800  0.0742  0.2730 -0.3382
  662MOL0     C89248   6.354   7.724   9.737 -0.3547 -0.4414  0.3798
  662MOL0     C89249   6.489   7.680   9.755 -0.0700 -0.0880  0.0597
  662MOL0     C89250   6.524   7.549   9.677  0.8436 -0.0108 -0.5058
  662MOL0     C89251   6.671   7.504   9.692 -0.2664 -0.0403 -0.5992
  662MOL0     N89252   6.705   7.427   9.812 -0.3603  0.3595  0.2345
  662MOL0     C89253   6.608   7.378   9.899 -0.3765 -1.0486 -0.4179
  662MOL0     C89254   6.678   7.346  10.003  0.2158  0.3885 -0.1162
  662MOL0     C89255   6.636   7.312  10.140  0.2693  0.0261 -0.4531
  662MOL0     C89256   6.560   7.429  10.218 -0.0533 -0.2643 -0.5590
  662MOL0     C89257   6.637   7.566  10.250 -0.3181 -0.1574  0.4848
  662MOL0     C89258   6.768   7.546  10.320 -0.2506 -0.8393  0.2499
  662MOL0     O89259   6.829   7.677  10.337 -0.0848 -0.2232 -0.1572
  662MOL0     C89260   6.934   7.715  10.254  0.9421  0.6795  0.7080
  662MOL0     C89261   7.002   7.828  10.295 -0.3897 -0.7081  1.5817
  662MOL0     C89262   7.110   7.875  10.229  0.5305  0.0467  1.0122
  662MOL0     C89263   7.150   7.805  10.111  0.2106 -0.2422 -0.0586
  662MOL0     C89264   7.255   7.865  10.022 -0.6117 -0.0942 -1.1511
  662MOL0     O89265   7.270   7.822   9.895 -0.1775 -0.1248  0.0590
  662MOL0     C89266   7.367   7.902   9.834 -0.1710  0.3036 -0.2151
  662MOL0     C89267   7.489   7.838   9.816 -0.7513 -0.9751  0.3662
  662MOL0     C89268   7.597   7.896   9.750  0.2309 -0.9845 -0.6824
  662MOL0     C89269   7.577   8.028   9.702 -0.4714  0.1182  0.3621
  662MOL0     O89270   7.681   8.087   9.638 -0.5348 -0.3246 -0.2593
  662MOL0     C89271   7.779   8.002   9.574  0.1993 -0.2798 -0.1392
  662MOL0     C89272   7.841   8.084   9.462  0.2635  0.8347  0.0713
  662MOL0     C89273   7.908   7.983   9.365 -0.8977  0.3951 -1.5095
  662MOL0     C89274   7.977   8.069   9.255 -1.0450 -0.7240  0.2286
  662MOL0     C89275   8.059   7.977   9.158 -0.0568  0.6452 -0.2785
  662MOL0     C89276   8.070   8.026   9.017  1.0520  0.3287  0.6184
  662MOL0     C89277   8.163   7.935   8.932 -0.0696  0.7210 -0.6947
  662MOL0     C89278   8.173   7.960   8.785 -0.3325  0.2130  0.4258
  662MOL0    Cl89279   8.016   7.989   8.708 -0.1026 -0.2190 -0.6385
  662MOL0     C89280   7.453   8.095   9.714 -0.2829 -0.2170 -0.0431
  662MOL0     C89281   7.348   8.024   9.780 -0.2917 -0.6647  0.6722
  662MOL0     O89282   7.311   7.966  10.071  0.2397 -0.2455 -0.2151
  662MOL0     C89283   7.080   7.692  10.066 -0.3010 -0.6488  0.2204
  662MOL0     C89284   6.972   7.649  10.140  0.2730 -0.3226  0.5385
  662MOL0     N89285   6.817   7.348   9.969  0.5722  0.8040 -0.1932
  662MOL0     N89286   6.830   7.401   9.860 -0.7698 -0.1267  0.2207
  662MOL0     C89287   5.570   7.707   9.820 -0.0168  0.3810  0.4122
  662MOL0     C89288   5.436   7.729   9.839 -1.0098 -0.6956  0.1543
  662MOL0     C89289   5.008   7.730  10.002  0.5699  0.2296 -0.4165
  662MOL0     C89290   4.958   7.858  10.056 -0.8945  0.9144  0.4469
  662MOL0     C89291   4.829   7.854  10.110 -0.5797  0.5551  0.6581
  662MOL0     C89292   4.747   7.742  10.102 -0.0823  0.1806  0.4791
  662MOL0     O89293   4.620   7.756  10.153 -1.1834  0.3559  1.0379
  662MOL0     C89294   4.529   7.648  10.157 -0.4267  0.3248  0.3868
  662MOL0     C89295   4.384   7.706  10.163 -0.5313  0.0143 -0.2134
  662MOL0     C89296   4.353   7.783  10.031 -0.6975 -0.4470 -0.0074
  662MOL0     C89297   4.203   7.804  10.018  0.4307  0.2303  0.4352
  662MOL0     C89298   4.156   7.900  10.114 -1.1688  0.0462  0.4197
  662MOL0     C89299   4.126   7.993  10.179  0.0632  0.8611 -1.0223
  662MOL0     C89300   4.805   7.619  10.062  0.0311  0.0944  0.6893
  662MOL0     C89301   4.929   7.610  10.010  0.2926  0.4776  0.4811
  662MOL0     C89302   4.988   7.472   9.976 -0.2515  0.6849 -0.8305
  662MOL0     H89303   5.349   7.412   9.961  0.9960 -0.2463  1.3165
  662MOL0     H89304   5.590   7.375   9.919 -0.1055 -0.7318 -1.1541
  662MOL0     H89305   5.858   7.630   9.683 -1.6996 -0.8071  0.1796
  662MOL0     H89306   5.827   7.743   9.820 -0.6810 -0.1367 -1.1158
  662MOL0     H89307   6.018   7.497   9.830 -1.7965 -0.6315 -0.3394
  662MOL0     H89308   6.009   7.637   9.948  0.6207 -0.2606  0.4549
  662MOL0     H89309   6.094   7.780   9.801 -2.0660 -0.1053 -0.3630
  662MOL0     H89310   6.086   7.663   9.667  1.7830  1.0928 -0.8401
  662MOL0     H89311   6.263   7.610   9.907 -0.6318 -0.3910 -0.3243
  662MOL0     H89312   6.250   7.538   9.735 -4.1730  0.5636 -1.1331
  662MOL0     H89313   6.330   7.736   9.631  0.5492 -3.1074 -0.2071
  662MOL0     H89314   6.355   7.822   9.786  3.2263 -0.4625  0.5866
  662MOL0     H89315   6.561   7.759   9.731  2.5740 -2.1523  0.6952
  662MOL0     H89316   6.508   7.659   9.860 -0.3851  0.3193  0.2014
  662MOL0     H89317   6.507   7.564   9.569  0.4086  1.6380 -0.2487
  662MOL0     H89318   6.451   7.473   9.707 -0.5078  0.7997 -1.5851
  662MOL0     H89319   6.700   7.452   9.600 -1.8643 -0.5793 -0.8317
  662MOL0     H89320   6.737   7.591   9.693  0.7855 -0.8093 -0.2230
  662MOL0     H89321   6.500   7.384   9.904 -0.5259 -2.8210 -1.0014
  662MOL0     H89322   6.574   7.224  10.119  2.4057 -1.3501 -1.3085
  662MOL0     H89323   6.722   7.269  10.192 -1.1083 -3.7630 -0.9747
  662MOL0     H89324   6.462   7.445  10.173  0.7976  2.9689 -1.5380
  662MOL0     H89325   6.550   7.386  10.318 -2.6269  0.1976 -0.5560
  662MOL0     H89326   6.564   7.630  10.299 -0.6536  0.2768 -0.5650
  662MOL0     H89327   6.670   7.617  10.159  0.3257 -0.3263  0.6113
  662MOL0     H89328   6.836   7.478  10.268  0.5871  1.2039 -1.4688
  662MOL0     H89329   6.754   7.504  10.420  0.3908 -0.4358  0.5137
  662MOL0     H89330   6.966   7.864  10.392 -0.9300  1.0419  0.7834
  662MOL0     H89331   7.160   7.969  10.249  0.5508  0.1994  0.2600
  662MOL0     H89332   7.507   7.740   9.858 -0.6249 -1.2859 -0.3796
  662MOL0     H89333   7.696   7.854   9.743  1.1741  1.0774 -0.4875
  662MOL0     H89334   7.853   7.994   9.654 -2.5263  0.8738  2.6983
  662MOL0     H89335   7.731   7.914   9.530 -2.5128  2.0197 -2.1151
  662MOL0     H89336   7.763   8.138   9.408 -0.2209  2.9566  2.6976
  662MOL0     H89337   7.921   8.152   9.494  0.7141  1.2138 -1.7186
  662MOL0     H89338   7.988   7.931   9.420  1.6110  2.0131 -3.3647
  662MOL0     H89339   7.827   7.918   9.333 -3.0336  1.9965  0.3411
  662MOL0     H89340   8.044   8.146   9.295  2.1740 -2.9180 -0.5224
  662MOL0     H89341   7.897   8.124   9.204 -1.5413  0.0804  1.7984
  662MOL0     H89342   8.011   7.879   9.151  0.1770  0.5075  0.0207
  662MOL0     H89343   8.156   7.961   9.205 -0.5273 -0.3690  0.3893
  662MOL0     H89344   7.968   8.015   8.979  1.5958 -1.3966 -0.4910
  662MOL0     H89345   8.102   8.130   9.013  1.4571  0.2322  1.1919
  662MOL0     H89346   8.133   7.832   8.950  3.6344 -0.8511 -2.5864
  662MOL0     H89347   8.264   7.947   8.971  0.9933  1.8860 -3.5824
  662MOL0     H89348   8.230   8.052   8.770 -2.7476  2.0235  1.6844
  662MOL0     H89349   8.225   7.874   8.742  0.3658 -0.4967  2.5446
  662MOL0     H89350   7.437   8.193   9.671  3.1682  0.6816  0.4622
  662MOL0     H89351   7.248   8.066   9.789 -1.2664 -2.3049 -1.5016
  662MOL0     H89352   7.127   7.626   9.993 -1.8542 -1.3533 -0.1867
  662MOL0     H89353   6.929   7.553  10.113  1.6781 -1.7078  2.9880
  662MOL0     H89354   5.632   7.790   9.786 -0.7877  1.1565  0.8376
  662MOL0     H89355   5.386   7.822   9.813 -0.8815 -1.0277 -1.3846
  662MOL0     H89356   5.005   7.955  10.044  0.2412  0.1767 -1.6224
  662MOL0     H89357   4.795   7.947  10.154  4.5628  1.7105  2.9871
  662MOL0     H89358   4.542   7.588  10.247  1.0315 -0.7031 -0.4602
  662MOL0     H89359   4.532   7.587  10.066  0.8614  0.7723  0.1102
  662MOL0     H89360   4.377   7.766  10.254 -2.8371  0.7180 -0.7928
  662MOL0     H89361   4.320   7.621  10.183 -0.6701 -0.2138 -1.5331
  662MOL0     H89362   4.393   7.728   9.946  0.6980 -0.7501  0.8189
  662MOL0     H89363   4.396   7.883  10.027  1.1591 -1.2313 -0.3678
  662MOL0     H89364   4.186   7.847   9.918  2.8925  4.0263  1.4466
  662MOL0     H89365   4.155   7.707  10.030 -2.7193  1.2212 -2.3289
  662MOL0     H89366   4.085   8.076  10.231 -0.8175 -1.2781  2.0024
  662MOL0     H89367   4.745   7.529  10.065  1.3849 -0.8120  1.8573
  662MOL0     H89368   5.009   7.463   9.869 -0.6482 -3.5288 -0.7315
  662MOL0     H89369   5.076   7.459  10.040 -0.8002  2.8840  0.4527
  662MOL0     H89370   4.915   7.393   9.999 -0.0437  1.3246  2.5839
  663MOL0     O89371   4.659   8.252  10.930  0.1627  0.5656  0.4539
  663MOL0     C89372   4.601   8.327  11.009  0.5200  0.5020  0.4191
  663MOL0     O89373   4.663   8.412  11.092 -0.4623 -0.2796  0.0319
  663MOL0     C89374   4.793   8.443  11.074  0.4419  0.2716 -0.4386
  663MOL0     C89375   4.852   8.463  10.954  0.6319  0.6152  0.4769
  663MOL0     C89376   4.979   8.507  10.941 -0.7130 -0.3495 -0.2857
  663MOL0     C89377   5.053   8.544  11.052  0.0874 -0.1965  0.7384
  663MOL0     O89378   5.182   8.578  11.026 -0.2099  0.8040  1.0231
  663MOL0     C89379   5.281   8.472  11.040 -0.4808 -0.1725 -0.5204
  663MOL0     C89380   5.404   8.493  10.949  0.1372 -0.0375 -1.2505
  663MOL0     C89381   5.522   8.403  10.970  0.3221 -0.6291  0.4070
  663MOL0     C89382   5.645   8.468  10.909 -0.5969 -0.6659 -0.5130
  663MOL0     C89383   5.773   8.401  10.958 -0.7610 -0.9205 -0.3612
  663MOL0     C89384   5.903   8.461  10.911 -0.3685  0.8248 -0.1090
  663MOL0     C89385   5.935   8.433  10.766  0.0434 -0.5944 -0.1394
  663MOL0     C89386   6.081   8.394  10.744  0.0112 -0.6571  0.3763
  663MOL0     N89387   6.177   8.507  10.736  0.1564 -0.4081  1.2324
  663MOL0     C89388   6.297   8.511  10.800  0.0659  0.2075  0.2480
  663MOL0     C89389   6.339   8.640  10.781 -0.2551  1.3142  0.8168
  663MOL0     C89390   6.473   8.695  10.839  0.1544 -0.3125 -0.6353
  663MOL0     C89391   6.593   8.612  10.794 -1.5434  0.3076  0.0435
  663MOL0     C89392   6.627   8.640  10.645  0.3254  0.2811  0.2654
  663MOL0     C89393   6.768   8.602  10.606  0.2937  0.0917  0.2597
  663MOL0     O89394   6.785   8.665  10.474 -0.7244 -0.1947 -0.1589
  663MOL0     C89395   6.901   8.732  10.445 -0.5836  0.7597 -0.2312
  663MOL0     C89396   6.887   8.844  10.367  0.2396  0.6573 -0.3887
  663MOL0     C89397   6.991   8.919  10.340  0.2329 -0.2057  0.2152
  663MOL0     C89398   7.125   8.880  10.372  0.3531 -0.8788  0.5201
  663MOL0     C89399   7.244   8.967  10.326  0.3473  1.3949  0.7091
  663MOL0     O89400   7.358   8.896  10.336  0.6317  0.3172  0.4321
  663MOL0     C89401   7.465   8.939  10.259 -0.7234  0.2007  0.1361
  663MOL0     C89402   7.588   8.921  10.317 -0.4134  0.1585 -0.5761
  663MOL0     C89403   7.708   8.971  10.259  0.5308  0.5260 -0.6525
  663MOL0     C89404   7.700   9.019  10.134  0.0375 -0.5143 -0.5687
  663MOL0     O89405   7.809   9.074  10.073 -0.0724  0.0527  0.1463
  663MOL0     C89406   7.947   9.084  10.131 -0.5390 -0.0635  0.0329
  663MOL0     C89407   7.964   9.211  10.216  0.5492  0.6709 -0.4681
  663MOL0     C89408   8.106   9.223  10.272 -0.0242 -0.4364 -0.3630
  663MOL0     C89409   8.129   9.363  10.337  0.7327  0.0568  0.0923
  663MOL0     C89410   8.275   9.358  10.389  0.3180 -0.4928  0.1805
  663MOL0     C89411   8.315   9.493  10.436 -0.5670  0.0279 -0.0154
  663MOL0     C89412   8.460   9.527  10.416  0.3660 -0.0685  0.5601
  663MOL0     C89413   8.540   9.458  10.531  0.4994  0.3276  0.4035
  663MOL0    Cl89414   8.716   9.487  10.482 -0.0548  0.1071  0.3318
  663MOL0     C89415   7.577   9.021  10.066  0.7840 -1.0246  0.2787
  663MOL0     C89416   7.461   8.997  10.136 -0.0345  0.1029  0.2409
  663MOL0     O89417   7.236   9.077  10.276  0.5219 -0.2533  0.0920
  663MOL0     C89418   7.135   8.760  10.444 -0.2291 -0.0351 -0.2897
  663MOL0     C89419   7.027   8.687  10.480 -0.1878  0.4166 -1.0321
  663MOL0     N89420   6.256   8.704  10.696  0.4761  0.4678 -0.3848
  663MOL0     N89421   6.150   8.626  10.667 -0.4812 -0.5729 -0.3785
  663MOL0     C89422   5.004   8.528  11.181  0.3639 -0.2581 -0.5161
  663MOL0     C89423   4.871   8.479  11.187 -0.1208  0.5350  0.0514
  663MOL0     C89424   4.453   8.327  11.005  0.1005 -0.1767 -0.6068
  663MOL0     C89425   4.394   8.428  11.068 -0.1310  0.6853  0.2916
  663MOL0     C89426   4.260   8.455  11.061 -0.4604 -1.1456  0.1408
  663MOL0     C89427   4.170   8.366  11.004 -0.2952 -0.3952 -0.4188
  663MOL0     O89428   4.032   8.373  10.988 -0.2697  0.2292  0.4704
  663MOL0     C89429   3.981   8.505  10.983  0.1752  0.2576  0.2973
  663MOL0     C89430   3.833   8.502  10.936 -0.6270  0.7755  0.5013
  663MOL0     C89431   3.764   8.631  10.919  0.6616 -0.3928 -0.1417
  663MOL0     C89432   3.632   8.614  10.847 -0.1882 -0.8069 -0.0888
  663MOL0     C89433   3.642   8.580  10.708  0.1269 -0.6269  0.0948
  663MOL0     C89434   3.655   8.579  10.583  0.7063 -0.1934  0.6154
  663MOL0     C89435   4.230   8.251  10.950 -0.3629  0.2347  0.3458
  663MOL0     C89436   4.366   8.227  10.946 -0.5801 -0.5043 -0.2049
  663MOL0     C89437   4.416   8.102  10.881 -0.3833  0.0962  0.4219
  663MOL0     H89438   4.803   8.436  10.861 -0.2488 -0.0084  1.1110
  663MOL0     H89439   5.016   8.518  10.840 -0.0796 -0.6874 -0.0973
  663MOL0     H89440   5.325   8.477  11.140  2.4517 -0.4477 -1.6932
  663MOL0     H89441   5.232   8.378  11.014  0.5086 -1.5410  2.1627
  663MOL0     H89442   5.429   8.596  10.975  0.1773 -0.6651  1.4343
  663MOL0     H89443   5.372   8.491  10.844  0.4046 -2.2595 -1.3434
  663MOL0     H89444   5.495   8.310  10.920  0.5814 -0.3409 -0.2856
  663MOL0     H89445   5.543   8.396  11.077  2.8424  2.1643  0.2476
  663MOL0     H89446   5.655   8.447  10.802  2.0458  1.7967 -0.8539
  663MOL0     H89447   5.654   8.576  10.924  1.7884 -0.2909 -3.5358
  663MOL0     H89448   5.771   8.416  11.067 -1.1807  0.9648 -0.5891
  663MOL0     H89449   5.771   8.294  10.935  0.3499 -0.8815 -0.7019
  663MOL0     H89450   5.904   8.569  10.928  1.9664  1.3976 -2.9970
  663MOL0     H89451   5.984   8.416  10.969 -0.6027 -3.3408 -2.6165
  663MOL0     H89452   5.909   8.523  10.710 -0.7258 -0.7458 -0.0468
  663MOL0     H89453   5.874   8.347  10.736  1.4457 -1.5311 -0.3888
  663MOL0     H89454   6.115   8.319  10.816 -1.9842 -1.0873  0.9160
  663MOL0     H89455   6.090   8.346  10.646 -1.2456 -3.0227  1.3542
  663MOL0     H89456   6.328   8.443  10.880  1.4776 -0.6043 -0.9394
  663MOL0     H89457   6.488   8.800  10.813  1.1613 -0.2490  0.1412
  663MOL0     H89458   6.474   8.692  10.949  1.0331 -3.5909 -0.6177
  663MOL0     H89459   6.676   8.630  10.863 -0.5997  0.2702 -1.0433
  663MOL0     H89460   6.573   8.505  10.800  2.8545 -0.6224  1.1915
  663MOL0     H89461   6.592   8.741  10.624 -0.8353 -0.0153  0.6743
  663MOL0     H89462   6.566   8.569  10.588  2.2619 -1.2318 -0.0069
  663MOL0     H89463   6.786   8.494  10.607 -0.1693 -0.1371 -3.1615
  663MOL0     H89464   6.841   8.649  10.673  2.1267 -1.2328 -0.7216
  663MOL0     H89465   6.785   8.868  10.338 -0.5409 -0.0411  1.6355
  663MOL0     H89466   6.983   9.016  10.292  0.6719  0.3926  1.3289
  663MOL0     H89467   7.579   8.868  10.411 -2.4146 -1.0396 -1.3823
  663MOL0     H89468   7.803   8.952  10.307  1.6738 -0.0343 -2.9959
  663MOL0     H89469   7.971   8.998  10.194  2.6045  0.9287  0.3536
  663MOL0     H89470   8.018   9.089  10.048 -0.6887  1.7408 -0.0300
  663MOL0     H89471   7.948   9.302  10.157 -0.0976 -2.0138 -4.8160
  663MOL0     H89472   7.897   9.208  10.302  2.4404  1.1175  1.1029
  663MOL0     H89473   8.123   9.149  10.350  1.9968  1.6908  1.3622
  663MOL0     H89474   8.183   9.200  10.199  0.2594  1.1967 -0.6345
  663MOL0     H89475   8.072   9.378  10.429  2.4328 -0.4811  1.2953
  663MOL0     H89476   8.100   9.438  10.264  3.1372  2.4769  1.4487
  663MOL0     H89477   8.339   9.326  10.306  1.6527 -2.1931  1.8004
  663MOL0     H89478   8.286   9.281  10.465 -0.4878  1.1316  2.0162
  663MOL0     H89479   8.253   9.564  10.381 -2.1420 -1.5781 -0.4257
  663MOL0     H89480   8.287   9.490  10.542 -0.3628  0.3833  0.0512
  663MOL0     H89481   8.465   9.635  10.434 -4.5219  0.4733  0.0624
  663MOL0     H89482   8.496   9.505  10.315 -0.9580  1.0792 -0.2039
  663MOL0     H89483   8.509   9.493  10.630 -0.8876 -2.2918  0.9863
  663MOL0     H89484   8.501   9.356  10.532 -1.5341  0.9618 -1.8233
  663MOL0     H89485   7.591   9.060   9.965 -0.6230  0.6163  0.6821
  663MOL0     H89486   7.364   9.007  10.088 -0.0417 -0.9314  0.0164
  663MOL0     H89487   7.240   8.740  10.455  0.1710  1.1212 -1.5604
  663MOL0     H89488   7.039   8.603  10.547 -3.8548  0.0300 -0.6499
  663MOL0     H89489   5.060   8.554  11.270 -1.7854  0.1398  0.7869
  663MOL0     H89490   4.816   8.489  11.279 -1.4996  2.2798 -0.9028
  663MOL0     H89491   4.455   8.506  11.113 -0.0169 -0.5382  2.4080
  663MOL0     H89492   4.218   8.545  11.104  2.6082  1.2395 -1.4299
  663MOL0     H89493   4.038   8.558  10.906  0.9892  0.3602  0.9642
  663MOL0     H89494   3.986   8.547  11.083 -1.8043 -1.9051  1.4160
  663MOL0     H89495   3.776   8.447  11.011 -0.7601  3.5450  2.5998
  663MOL0     H89496   3.827   8.437  10.848  2.9835 -1.6206  1.8045
  663MOL0     H89497   3.822   8.697  10.853  2.6021 -1.2623  0.6398
  663MOL0     H89498   3.741   8.680  11.014  2.2398 -1.2241  0.6985
  663MOL0     H89499   3.558   8.550  10.896 -2.0524 -0.2578 -2.0475
  663MOL0     H89500   3.589   8.715  10.843 -0.9239 -0.6397  5.1679
  663MOL0     H89501   3.668   8.584  10.476  0.1328  2.4728  0.6000
  663MOL0     H89502   4.159   8.192  10.893 -1.8871  1.7782  0.5339
  663MOL0     H89503   4.335   8.031  10.860 -1.0174  0.6866  0.8278
  663MOL0     H89504   4.461   8.133  10.786 -1.3294 -3.3797 -1.3558
  663MOL0     H89505   4.492   8.046  10.936  0.8748 -0.8008 -2.0423
  664MOL0     O89506   9.344   8.664   4.709  0.1420 -0.3498 -0.0878
  664MOL0     C89507   9.419   8.762   4.728 -0.6179  0.2719  0.4510
  664MOL0     O89508   9.387   8.876   4.804  0.9807  0.0244 -0.1159
  664MOL0     C89509   9.260   8.876   4.861 -0.4390 -0.0254  0.3981
  664MOL0     C89510   9.236   8.831   4.985 -0.1350  0.6375 -0.8782
  664MOL0     C89511   9.104   8.845   5.039 -0.3225 -0.7331 -0.7286
  664MOL0     C89512   8.993   8.885   4.963  0.2721  0.9000 -0.5760
  664MOL0     O89513   8.871   8.882   5.025 -0.6174  0.2427 -0.2893
  664MOL0     C89514   8.763   8.830   4.951  0.8902 -0.6627  0.8465
  664MOL0     C89515   8.657   8.933   4.924 -0.4685  1.4061 -0.3148
  664MOL0     C89516   8.578   8.992   5.046  0.1426 -0.5450  0.3322
  664MOL0     C89517   8.491   8.889   5.120 -0.2939  0.3827 -0.4477
  664MOL0     C89518   8.392   8.964   5.207  0.1740  0.2869 -0.3052
  664MOL0     C89519   8.465   9.022   5.332 -0.3459  0.2268 -0.4899
  664MOL0     C89520   8.351   9.073   5.426 -0.6571  0.0661  0.4676
  664MOL0     C89521   8.419   9.180   5.517 -0.3176  0.0028  0.2904
  664MOL0     N89522   8.339   9.198   5.642 -0.8427 -0.2716  0.4533
  664MOL0     C89523   8.230   9.281   5.667 -0.2565 -0.0153 -0.1395
  664MOL0     C89524   8.184   9.247   5.789  0.3505  0.2742 -0.1816
  664MOL0     C89525   8.088   9.320   5.876  0.1255  0.6750 -0.6082
  664MOL0     C89526   7.959   9.240   5.898  0.0981 -0.9266 -0.4366
  664MOL0     C89527   7.882   9.308   6.016 -0.2200 -0.8173  0.7771
  664MOL0     C89528   7.816   9.451   5.982  0.2369  0.3759  0.1965
  664MOL0     O89529   7.712   9.441   5.885  0.2917 -0.5596  0.1381
  664MOL0     C89530   7.587   9.416   5.934  0.2119 -0.2671 -0.7905
  664MOL0     C89531   7.558   9.371   6.062  0.2925 -0.1107  0.6021
  664MOL0     C89532   7.427   9.349   6.103  0.7823 -0.9676  0.3648
  664MOL0     C89533   7.318   9.359   6.018 -0.1207  0.4853  1.4153
  664MOL0     C89534   7.175   9.349   6.050  0.0020  0.1887  0.0843
  664MOL0     O89535   7.141   9.321   6.186  0.3773  0.7461  1.4616
  664MOL0     C89536   7.009   9.330   6.217  0.5155 -0.1156  0.2893
  664MOL0     C89537   6.941   9.449   6.210 -0.1953  0.1368 -0.1141
  664MOL0     C89538   6.812   9.456   6.264  0.3188  0.4916  0.7016
  664MOL0     C89539   6.739   9.350   6.317 -0.3438 -0.0017 -0.6931
  664MOL0     O89540   6.622   9.357   6.385  0.6497 -0.2836 -0.1400
  664MOL0     C89541   6.522   9.452   6.346 -0.7301 -0.7377 -0.2966
  664MOL0     C89542   6.405   9.449   6.443  0.3810 -0.0781  0.3092
  664MOL0     C89543   6.320   9.325   6.433  0.7673 -0.1513 -0.2314
  664MOL0     C89544   6.238   9.305   6.559  0.6904  0.3796 -0.3838
  664MOL0     C89545   6.134   9.191   6.542  0.0208  0.2090 -0.0357
  664MOL0     C89546   6.197   9.051   6.520 -0.0067 -0.5364  0.5661
  664MOL0     C89547   6.087   8.948   6.514  0.2527  0.3926  0.2275
  664MOL0     C89548   6.108   8.806   6.464  0.5838  0.2198  0.5998
  664MOL0    Cl89549   6.119   8.816   6.281 -0.4489 -0.2477  0.0316
  664MOL0     C89550   6.806   9.228   6.311 -0.2011  0.2614  0.3389
  664MOL0     C89551   6.941   9.228   6.269 -0.2816  0.8485 -0.3088
  664MOL0     O89552   7.089   9.356   5.963 -0.6721  0.2459 -0.2603
  664MOL0     C89553   7.349   9.420   5.896  0.8464 -0.0313  0.5085
  664MOL0     C89554   7.479   9.436   5.852  0.2966 -0.8336  0.8708
  664MOL0     N89555   8.262   9.140   5.828 -0.2955  0.8039 -0.1883
  664MOL0     N89556   8.355   9.115   5.743  0.1216 -0.8264 -0.1540
  664MOL0     C89557   9.018   8.923   4.831  0.3748  0.0070  0.0994
  664MOL0     C89558   9.149   8.918   4.777  0.3523 -0.0303  0.0794
  664MOL0     C89559   9.566   8.758   4.695  0.4208  0.2820 -0.3177
  664MOL0     C89560   9.653   8.867   4.731 -0.5577  0.8547 -0.1205
  664MOL0     C89561   9.791   8.864   4.699  0.5194  0.3710 -0.1117
  664MOL0     C89562   9.843   8.747   4.648  0.1011  0.6032 -0.0330
  664MOL0     O89563   9.984   8.746   4.629  0.5344  0.4643 -1.4340
  664MOL0     C89564  10.052   8.624   4.640  0.5197 -0.5694 -0.6724
  664MOL0     C89565  10.199   8.642   4.639 -0.8403 -0.2995  0.6228
  664MOL0     C89566  10.243   8.677   4.780 -0.7277  0.6393  0.7483
  664MOL0     C89567  10.388   8.749   4.779  0.4058  0.2892 -0.0954
  664MOL0     C89568  10.397   8.867   4.695  0.0607  0.1630 -0.3445
  664MOL0     C89569  10.403   8.968   4.633 -0.7992 -0.0320  0.6363
  664MOL0     C89570   9.763   8.648   4.605  1.0750  0.4228 -0.2759
  664MOL0     C89571   9.628   8.649   4.621 -0.3866 -0.9422  0.0633
  664MOL0     C89572   9.554   8.523   4.579  0.5969  0.0749  0.5874
  664MOL0     H89573   9.314   8.805   5.055 -2.5130 -0.5828  1.4936
  664MOL0     H89574   9.078   8.806   5.137  1.1837 -0.8667 -0.3576
  664MOL0     H89575   8.782   8.784   4.853 -3.0557  3.1185 -2.0847
  664MOL0     H89576   8.717   8.752   5.011 -0.0312  1.4616  3.0709
  664MOL0     H89577   8.587   8.880   4.859 -0.9897 -0.9508  1.9806
  664MOL0     H89578   8.710   9.012   4.869  0.0849  0.9728 -0.4070
  664MOL0     H89579   8.507   9.070   5.015  1.3274  0.8727  1.0776
  664MOL0     H89580   8.645   9.050   5.111 -1.1112  1.0809  0.2474
  664MOL0     H89581   8.439   8.827   5.048 -2.8119 -1.3271  2.5709
  664MOL0     H89582   8.548   8.816   5.177  0.4410 -1.1243 -2.9750
  664MOL0     H89583   8.343   9.047   5.156 -1.6358 -1.6311 -1.8464
  664MOL0     H89584   8.311   8.895   5.231  1.3025 -0.5760  1.1864
  664MOL0     H89585   8.527   8.946   5.380  0.3305  1.8399  1.2896
  664MOL0     H89586   8.532   9.104   5.304  3.0629 -1.9132  0.7117
  664MOL0     H89587   8.297   8.999   5.486 -0.9968 -1.4259 -1.6105
  664MOL0     H89588   8.265   9.125   5.382  1.0401  1.7594 -0.9896
  664MOL0     H89589   8.514   9.139   5.554 -0.7064 -0.7474  0.4832
  664MOL0     H89590   8.458   9.269   5.468  2.0486 -2.1967 -2.1188
  664MOL0     H89591   8.194   9.371   5.618 -1.2567  0.5577  1.5595
  664MOL0     H89592   8.123   9.349   5.975 -1.7855  2.3444 -0.3510
  664MOL0     H89593   8.057   9.419   5.839 -1.4589  0.5583  0.2979
  664MOL0     H89594   7.897   9.232   5.808  3.3484  0.2700 -2.9754
  664MOL0     H89595   7.984   9.137   5.925  0.8945 -0.3303  1.2759
  664MOL0     H89596   7.960   9.316   6.091 -0.7521 -1.0713  1.3656
  664MOL0     H89597   7.809   9.237   6.055  0.7197 -2.2372  0.0359
  664MOL0     H89598   7.891   9.514   5.933 -0.3899 -0.2626 -1.6808
  664MOL0     H89599   7.777   9.500   6.071  1.7151 -1.4653  1.9429
  664MOL0     H89600   7.626   9.346   6.143 -1.2239  2.3070  2.7882
  664MOL0     H89601   7.397   9.327   6.205 -0.0243  0.0257  0.3533
  664MOL0     H89602   6.993   9.531   6.162 -2.7667  1.6233 -0.5166
  664MOL0     H89603   6.769   9.556   6.260  0.5946  0.5683 -1.6982
  664MOL0     H89604   6.564   9.552   6.358 -0.2842 -1.0748  1.0881
  664MOL0     H89605   6.494   9.428   6.243  2.6894 -2.1241 -1.0437
  664MOL0     H89606   6.453   9.457   6.542  3.8744 -2.9738 -0.9064
  664MOL0     H89607   6.351   9.542   6.427  1.0017  0.0809 -0.9623
  664MOL0     H89608   6.270   9.337   6.337  0.6502  3.0901  0.1467
  664MOL0     H89609   6.391   9.242   6.423  0.6916 -0.0382 -2.0502
  664MOL0     H89610   6.179   9.397   6.571  1.4098  0.9737 -1.3188
  664MOL0     H89611   6.300   9.296   6.649  1.4701  3.1186 -0.5568
  664MOL0     H89612   6.071   9.225   6.459  1.6754 -3.5979 -3.1618
  664MOL0     H89613   6.071   9.181   6.631 -0.2304 -1.3767 -0.3605
  664MOL0     H89614   6.233   9.042   6.417  0.0300 -0.0351  0.5345
  664MOL0     H89615   6.275   9.036   6.596 -1.9959 -2.1660  2.3878
  664MOL0     H89616   6.014   8.983   6.440  0.3271 -1.7529 -0.9301
  664MOL0     H89617   6.048   8.938   6.616 -0.5246 -1.1516 -0.1894
  664MOL0     H89618   6.199   8.758   6.501 -0.5659 -2.7752 -0.2142
  664MOL0     H89619   6.020   8.748   6.492  0.5351  1.2144  2.6551
  664MOL0     H89620   6.778   9.134   6.358 -2.3192 -0.1633 -1.6118
  664MOL0     H89621   7.009   9.143   6.268  0.9717  1.8229 -1.0314
  664MOL0     H89622   7.271   9.433   5.821  0.3575 -3.1904  0.2993
  664MOL0     H89623   7.499   9.460   5.748  0.2261 -1.5412  0.6881
  664MOL0     H89624   8.941   8.963   4.765  0.8756  1.7554  0.5056
  664MOL0     H89625   9.163   8.939   4.671 -1.2212  2.0391  0.2293
  664MOL0     H89626   9.624   8.961   4.778 -0.0875  0.6425  0.6040
  664MOL0     H89627   9.862   8.945   4.711  0.8820  0.2105 -1.0829
  664MOL0     H89628  10.016   8.556   4.562  0.4924 -0.3407 -0.8588
  664MOL0     H89629  10.015   8.578   4.733 -0.3735  1.0206 -0.2103
  664MOL0     H89630  10.222   8.722   4.568 -0.1272 -0.4658  0.6522
  664MOL0     H89631  10.259   8.554   4.613  1.8937  0.3355  4.0400
  664MOL0     H89632  10.253   8.597   4.855  1.1470  1.4574  1.4427
  664MOL0     H89633  10.169   8.745   4.823 -0.7542 -1.0849  3.7412
  664MOL0     H89634  10.406   8.773   4.884 -0.5588 -0.7317  0.3256
  664MOL0     H89635  10.470   8.692   4.735  1.0438  2.2213 -1.5891
  664MOL0     H89636  10.434   9.056   4.581  1.6500 -1.5192 -0.6091
  664MOL0     H89637   9.810   8.559   4.563  1.9282  1.5374 -1.7816
  664MOL0     H89638   9.602   8.471   4.496  1.5974  2.7354 -0.6334
  664MOL0     H89639   9.546   8.465   4.671  1.0067 -1.9884 -0.6278
  664MOL0     H89640   9.452   8.547   4.547 -0.0715  0.1106  2.6283
  665MOL0     O89641   5.159   3.564   0.188  0.1192  0.0959  0.0786
  665MOL0     C89642   5.106   3.637   0.107 -0.3984  0.2405 -0.4437
  665MOL0     O89643   5.178   3.728   0.032 -0.1659 -0.0694  0.1410
  665MOL0     C89644   5.310   3.744   0.062 -0.7175  0.5412 -0.9227
  665MOL0     C89645   5.403   3.656   0.005  0.2834 -0.1443 -0.8759
  665MOL0     C89646   5.532   3.654   0.057  0.0138 -0.3916 -0.3635
  665MOL0     C89647   5.573   3.742   0.160 -0.1599  0.1552  0.5702
  665MOL0     O89648   5.700   3.734   0.208 -1.2128 -0.1883  0.4293
  665MOL0     C89649   5.768   3.860   0.209 -0.1581  0.4759  0.0759
  665MOL0     C89650   5.904   3.827   0.262  0.4409 -1.1399  0.0321
  665MOL0     C89651   5.984   3.956   0.251  0.0104 -0.4357 -0.8301
  665MOL0     C89652   6.130   3.928   0.308  1.2036 -0.7248  0.0719
  665MOL0     C89653   6.220   4.052   0.318  0.4648 -0.6084 -0.0820
  665MOL0     C89654   6.333   4.021   0.414 -1.0105 -1.7287 -0.4501
  665MOL0     C89655   6.461   4.108   0.416  0.1828  0.3705  0.1726
  665MOL0     C89656   6.423   4.236   0.482  0.1237  1.0861 -0.7744
  665MOL0     N89657   6.526   4.345   0.467 -0.2738 -0.3245 -0.8384
  665MOL0     C89658   6.636   4.354   0.546  0.2980 -0.2552 -0.1901
  665MOL0     C89659   6.723   4.429   0.472  0.1484  0.6982 -0.1332
  665MOL0     C89660   6.865   4.470   0.504 -0.0262  0.0034 -0.2568
  665MOL0     C89661   6.877   4.589   0.589  0.5397 -0.0793  0.3539
  665MOL0     C89662   6.858   4.721   0.510  0.2027 -0.4567 -0.8443
  665MOL0     C89663   6.980   4.761   0.435 -0.4293 -0.8256  0.8733
  665MOL0     O89664   7.089   4.759   0.526  0.0302 -0.3276  0.0167
  665MOL0     C89665   7.214   4.776   0.476 -0.0164 -0.1273 -0.4153
  665MOL0     C89666   7.249   4.824   0.349  0.0037  0.1380  0.2979
  665MOL0     C89667   7.386   4.851   0.311  0.1630 -0.0805 -0.2007
  665MOL0     C89668   7.496   4.816   0.401  0.7292  0.3180 -0.1320
  665MOL0     C89669   7.640   4.817   0.369  0.2907 -0.0471 -0.5823
  665MOL0     O89670   7.731   4.786   0.469  0.4171 -0.0474  0.1738
  665MOL0     C89671   7.871   4.773   0.441  0.2041 -0.3015 -0.0066
  665MOL0     C89672   7.934   4.744   0.316 -0.5038 -0.2510  0.5327
  665MOL0     C89673   8.072   4.708   0.322  1.1927 -0.0754  0.3383
  665MOL0     C89674   8.151   4.721   0.438  0.5416  0.6204 -0.8342
  665MOL0     O89675   8.279   4.711   0.420 -0.0887  0.4878  0.1888
  665MOL0     C89676   8.369   4.721   0.527 -0.4898  0.4501  0.1551
  665MOL0     C89677   8.498   4.685   0.463 -0.8347 -0.0381 -0.5458
  665MOL0     C89678   8.615   4.708   0.560 -0.7534  0.6815 -0.4059
  665MOL0     C89679   8.751   4.646   0.510  0.5724  0.7709 -0.0444
  665MOL0     C89680   8.852   4.671   0.622 -0.6795  0.3271  0.0618
  665MOL0     C89681   8.991   4.622   0.575 -0.4004 -0.3718  0.2123
  665MOL0     C89682   9.098   4.673   0.673 -0.0205  0.7131 -0.6186
  665MOL0     C89683   9.239   4.635   0.627  0.0645 -0.0863 -0.6206
  665MOL0    Cl89684   9.270   4.454   0.668 -0.6349 -0.1503 -0.0042
  665MOL0     C89685   8.084   4.741   0.552 -1.1507  0.2359 -0.8840
  665MOL0     C89686   7.952   4.771   0.559  0.5671 -0.6226  0.2727
  665MOL0     O89687   7.662   4.853   0.250  0.2675  0.1525  0.4003
  665MOL0     C89688   7.454   4.766   0.530 -0.2163  0.1243 -0.1691
  665MOL0     C89689   7.321   4.745   0.564  0.9453  0.3115 -0.0110
  665MOL0     N89690   6.653   4.477   0.365 -0.4017  0.3638  0.4368
  665MOL0     N89691   6.537   4.423   0.361  0.1956  0.7490  0.4880
  665MOL0     C89692   5.484   3.834   0.207  0.7744 -0.4786  0.3594
  665MOL0     C89693   5.350   3.832   0.158  0.9614  0.3666 -1.7911
  665MOL0     C89694   4.957   3.616   0.079  0.4392  0.4571 -0.3554
  665MOL0     C89695   4.923   3.495   0.024 -0.2763 -0.6346 -0.0380
  665MOL0     C89696   4.796   3.456  -0.001 -0.2055  0.3033  0.9931
  665MOL0     C89697   4.689   3.541   0.033  0.1817  0.0888  0.7969
  665MOL0     O89698   4.556   3.519   0.037  0.2782 -0.1588 -0.3134
  665MOL0     C89699   4.520   3.376   0.020  0.2481  0.9070 -0.0932
  665MOL0     C89700   4.380   3.344   0.059 -0.0247 -0.3639 -0.5590
  665MOL0     C89701   4.286   3.411  -0.030  0.1105  0.2799 -0.0436
  665MOL0     C89702   4.142   3.350  -0.041 -0.0416  0.1035 -0.1154
  665MOL0     C89703   4.075   3.402  -0.157  0.4629  0.4817  0.2242
  665MOL0     C89704   4.021   3.460  -0.240 -0.8090 -0.1055 -0.6552
  665MOL0     C89705   4.720   3.670   0.090 -0.1350  0.4714 -0.3342
  665MOL0     C89706   4.855   3.709   0.126  0.4937  0.1199 -0.3341
  665MOL0     C89707   4.887   3.843   0.188  1.1382 -0.4878  0.5234
  665MOL0     H89708   5.373   3.597  -0.081 -2.2730  1.9782 -1.5726
  665MOL0     H89709   5.609   3.594   0.010  3.2077  2.4116  0.8844
  665MOL0     H89710   5.771   3.903   0.108 -0.8891  1.4890  0.4746
  665MOL0     H89711   5.731   3.935   0.279  3.5433  1.3129  1.3922
  665MOL0     H89712   5.954   3.745   0.209  0.8670 -1.7779  1.3840
  665MOL0     H89713   5.889   3.796   0.365 -0.0781  2.0006  0.9998
  665MOL0     H89714   5.941   4.030   0.319  0.2055 -0.8201 -0.2747
  665MOL0     H89715   5.981   3.997   0.150 -1.2996 -1.0024 -1.0490
  665MOL0     H89716   6.112   3.873   0.401  4.3673 -0.1621  1.1669
  665MOL0     H89717   6.181   3.848   0.254  1.0143 -1.6041  1.1598
  665MOL0     H89718   6.253   4.076   0.217 -0.6466  0.8526 -0.1313
  665MOL0     H89719   6.166   4.140   0.353 -1.7616 -1.9556  0.1162
  665MOL0     H89720   6.283   4.008   0.511 -0.1972 -2.8552 -0.1645
  665MOL0     H89721   6.359   3.921   0.376 -1.6679 -0.3540 -5.2677
  665MOL0     H89722   6.491   4.128   0.313 -1.0420  0.1068 -0.2520
  665MOL0     H89723   6.539   4.047   0.463 -0.8819 -2.2261 -1.2341
  665MOL0     H89724   6.328   4.278   0.448 -0.2952  1.8054  1.1282
  665MOL0     H89725   6.418   4.223   0.591  2.3128 -0.1953 -0.7806
  665MOL0     H89726   6.665   4.310   0.641  3.8125 -1.5540 -1.6918
  665MOL0     H89727   6.915   4.397   0.568 -2.7489  0.3292  2.4784
  665MOL0     H89728   6.926   4.477   0.414  0.5726 -0.9200  0.0635
  665MOL0     H89729   6.805   4.585   0.671 -0.0055  1.6790 -0.0016
  665MOL0     H89730   6.974   4.581   0.639  0.7354 -0.3959 -0.0701
  665MOL0     H89731   6.842   4.797   0.586 -2.8677  3.1599 -4.6022
  665MOL0     H89732   6.764   4.717   0.454 -0.1948  1.7649 -0.4165
  665MOL0     H89733   6.966   4.866   0.408 -0.6411 -0.6909  1.5000
  665MOL0     H89734   6.995   4.706   0.341  0.7816  0.1124  0.4812
  665MOL0     H89735   7.171   4.860   0.283  0.7528 -0.1886 -0.8079
  665MOL0     H89736   7.403   4.888   0.210  0.0866 -2.3355 -1.1062
  665MOL0     H89737   7.885   4.730   0.220 -0.3644 -0.4581  0.4907
  665MOL0     H89738   8.128   4.686   0.231  0.8940  1.1400 -0.1504
  665MOL0     H89739   8.367   4.824   0.562  1.5765  0.7061 -0.3255
  665MOL0     H89740   8.349   4.659   0.615 -0.5109 -0.3273 -0.3830
  665MOL0     H89741   8.500   4.577   0.443  1.3811 -0.1124 -0.1960
  665MOL0     H89742   8.515   4.750   0.378  2.0917 -0.8823 -0.7134
  665MOL0     H89743   8.632   4.815   0.578 -5.5202  1.9308 -1.7682
  665MOL0     H89744   8.598   4.663   0.658  1.8636 -2.6306 -1.2891
  665MOL0     H89745   8.787   4.690   0.416 -1.5255  3.8595  0.4546
  665MOL0     H89746   8.740   4.539   0.490  0.7285  1.3637 -4.1426
  665MOL0     H89747   8.819   4.627   0.716  0.6898  1.3691  1.0633
  665MOL0     H89748   8.865   4.779   0.635 -1.0566  0.3155  0.5518
  665MOL0     H89749   8.993   4.513   0.565 -2.3805 -0.3194 -1.4764
  665MOL0     H89750   9.012   4.658   0.474 -1.4767  0.3078  0.2125
  665MOL0     H89751   9.079   4.639   0.776 -0.5201  2.3795 -0.1309
  665MOL0     H89752   9.100   4.781   0.690 -0.4600  0.4522  1.3560
  665MOL0     H89753   9.261   4.646   0.520  0.4014 -1.4690 -0.7111
  665MOL0     H89754   9.309   4.689   0.692  0.4281 -2.1631  0.8033
  665MOL0     H89755   8.130   4.740   0.651 -1.3386 -1.2423 -0.7958
  665MOL0     H89756   7.910   4.779   0.659 -0.5300  1.5228 -0.2996
  665MOL0     H89757   7.518   4.729   0.609  0.0117 -0.1446 -0.4785
  665MOL0     H89758   7.289   4.699   0.657  2.2444 -0.3915  0.1025
  665MOL0     H89759   5.508   3.908   0.283 -1.1374  0.5375  0.0278
  665MOL0     H89760   5.274   3.898   0.199  2.4992  2.6123 -2.3756
  665MOL0     H89761   4.999   3.418   0.017 -0.7199 -1.9581  5.0851
  665MOL0     H89762   4.768   3.362  -0.048 -1.0725  0.2891  1.5126
  665MOL0     H89763   4.579   3.308   0.082 -0.4802 -0.6908 -1.0643
  665MOL0     H89764   4.534   3.351  -0.086 -3.2143  2.0801 -0.9815
  665MOL0     H89765   4.360   3.381   0.160  1.6355  2.0825 -1.0305
  665MOL0     H89766   4.377   3.235   0.060  0.0909 -0.3904 -1.7160
  665MOL0     H89767   4.323   3.404  -0.133 -1.5585  4.1594 -1.0655
  665MOL0     H89768   4.283   3.517  -0.005  1.4081 -0.2415  2.7010
  665MOL0     H89769   4.159   3.242  -0.050 -0.5033  0.1034 -1.0685
  665MOL0     H89770   4.081   3.366   0.048  1.0392  0.6351  0.5564
  665MOL0     H89771   3.969   3.520  -0.312 -0.7932 -0.9451 -1.3883
  665MOL0     H89772   4.635   3.726   0.127 -0.0780 -1.1819  2.5858
  665MOL0     H89773   4.980   3.830   0.244  0.4798 -0.5725  1.6155
  665MOL0     H89774   4.885   3.919   0.110 -0.2753 -1.6224 -0.6161
  665MOL0     H89775   4.805   3.868   0.256  0.6886  0.3800 -0.3195
  666MOL0     O89776   9.722   9.916   5.930 -0.3562 -0.7406  0.4896
  666MOL0     C89777   9.714  10.038   5.909 -0.7732  0.5369  0.3871
  666MOL0     O89778   9.816  10.123   5.900  0.0528  0.4982 -0.6676
  666MOL0     C89779   9.947  10.073   5.936  1.2296 -0.4919  0.3632
  666MOL0     C89780  10.020  10.134   6.036 -0.2029 -0.4513 -0.3707
  666MOL0     C89781  10.148  10.088   6.070 -0.7644 -0.5672 -0.0066
  666MOL0     C89782  10.206   9.985   5.987 -0.1940 -0.4712  0.5997
  666MOL0     O89783  10.342   9.952   5.992  0.4474 -0.4089 -0.7794
  666MOL0     C89784  10.429  10.066   6.006  0.6259 -0.3398 -0.3087
  666MOL0     C89785  10.573  10.006   5.991 -0.4272  0.4589  0.0355
  666MOL0     C89786  10.594   9.882   6.083  0.0613 -0.5683 -0.4049
  666MOL0     C89787  10.742   9.854   6.116 -0.0174 -0.2606 -0.0037
  666MOL0     C89788  10.790   9.712   6.094  0.4118  0.1544  0.2481
  666MOL0     C89789  10.695   9.604   6.150  0.1129 -0.6674 -0.4498
  666MOL0     C89790  10.775   9.470   6.161  0.0114  0.2782 -0.5289
  666MOL0     C89791  10.690   9.351   6.198 -0.6441  0.6754  0.2076
  666MOL0     N89792  10.769   9.225   6.194  0.0995  0.0421 -0.5312
  666MOL0     C89793  10.890   9.206   6.255 -0.1682  0.4487  0.0658
  666MOL0     C89794  10.912   9.071   6.245 -0.8139 -0.0925 -0.4126
  666MOL0     C89795  11.048   9.003   6.281 -0.1911 -0.5189 -0.0634
  666MOL0     C89796  11.019   8.861   6.345  0.2426  0.3433  0.0318
  666MOL0     C89797  11.144   8.770   6.318 -0.4687  0.0416 -0.0162
  666MOL0     C89798  11.269   8.809   6.399 -0.3456  0.4005 -0.5986
  666MOL0     O89799  11.390   8.738   6.379 -0.6262  0.7127 -0.7643
  666MOL0     C89800  11.501   8.816   6.350  0.0989  0.1685 -0.1681
  666MOL0     C89801  11.509   8.930   6.274  0.9363 -0.1948  0.1331
  666MOL0     C89802  11.635   8.980   6.235  0.1937  0.1739  0.6060
  666MOL0     C89803  11.754   8.922   6.293  0.6493 -0.2334 -1.0333
  666MOL0     C89804  11.889   8.973   6.258 -0.7025  0.7111 -0.2750
  666MOL0     O89805  11.993   8.924   6.338 -0.6908  0.3574  0.1109
  666MOL0     C89806  12.126   8.971   6.335  0.1617  0.0451 -0.5554
  666MOL0     C89807  12.166   9.104   6.293 -0.2444  0.3365 -0.5236
  666MOL0     C89808  12.304   9.121   6.277  0.7645 -0.6787  0.3898
  666MOL0     C89809  12.400   9.028   6.305  0.1905 -0.3225 -0.0940
  666MOL0     O89810  12.539   9.052   6.284  0.2248  0.0551 -0.9915
  666MOL0     C89811  12.592   9.181   6.335  0.2388  0.6256 -0.1843
  666MOL0     C89812  12.606   9.187   6.492  0.7806 -1.2476  0.5678
  666MOL0     C89813  12.658   9.062   6.546  0.9302  0.6897 -0.5198
  666MOL0     C89814  12.664   9.044   6.701  0.5925 -0.3158  0.1161
  666MOL0     C89815  12.793   9.091   6.752 -0.1195 -0.8566  0.3878
  666MOL0     C89816  12.798   9.090   6.898  0.6729 -0.8129 -0.0223
  666MOL0     C89817  12.926   9.152   6.946  0.0289  0.3297  1.4669
  666MOL0     C89818  12.909   9.202   7.081  0.0019 -0.2134 -0.4926
  666MOL0    Cl89819  12.830   9.083   7.194  0.1212 -0.4737  0.3345
  666MOL0     C89820  12.354   8.903   6.361  0.0079 -0.4908  0.4651
  666MOL0     C89821  12.220   8.876   6.368  0.6929 -0.8521 -0.7181
  666MOL0     O89822  11.904   9.053   6.161 -0.0876 -0.8996  0.3081
  666MOL0     C89823  11.744   8.810   6.371  0.1337 -0.1522  1.0851
  666MOL0     C89824  11.622   8.760   6.397  1.0629 -0.3383 -0.0075
  666MOL0     N89825  10.808   9.014   6.180  0.3898  0.2601 -0.0158
  666MOL0     N89826  10.720   9.106   6.154 -0.6457  0.1662  0.5031
  666MOL0     C89827  10.131   9.921   5.886  0.1978 -0.3165  0.1016
  666MOL0     C89828   9.996   9.959   5.868 -0.1208 -0.1806 -0.5883
  666MOL0     C89829   9.579  10.081   5.859 -0.6112  0.2429 -0.0878
  666MOL0     C89830   9.585  10.193   5.779 -0.8196 -0.3013  0.1906
  666MOL0     C89831   9.469  10.238   5.724 -0.5011 -0.5143 -0.1420
  666MOL0     C89832   9.344  10.190   5.746  0.5229  1.3450 -0.0161
  666MOL0     O89833   9.229  10.233   5.682 -0.0690 -0.1054  1.0958
  666MOL0     C89834   9.199  10.376   5.697 -0.8775  0.0012 -0.0057
  666MOL0     C89835   9.188  10.439   5.563 -0.4547  0.1338 -0.3508
  666MOL0     C89836   9.060  10.389   5.479 -0.2251  0.1556  0.3479
  666MOL0     C89837   8.956  10.494   5.514  0.5503  0.3095 -0.3214
  666MOL0     C89838   8.854  10.467   5.412  0.6096 -0.7009 -0.4891
  666MOL0     C89839   8.776  10.451   5.325  0.0577  0.3863  0.1102
  666MOL0     C89840   9.336  10.074   5.833 -0.5400 -0.4594  0.2886
  666MOL0     C89841   9.456  10.024   5.896 -0.2936  0.7671  0.3729
  666MOL0     C89842   9.439   9.915   5.998  0.2609  0.1254 -0.6604
  666MOL0     H89843   9.980  10.221   6.088  1.2550  0.1356 -0.1877
  666MOL0     H89844  10.208  10.137   6.146 -0.4819 -0.3468 -0.3630
  666MOL0     H89845  10.415  10.140   5.927 -1.2847 -1.8291 -1.4691
  666MOL0     H89846  10.412  10.110   6.105  0.8929 -0.0321 -0.3979
  666MOL0     H89847  10.642  10.089   6.007  2.5791 -1.4989 -1.7950
  666MOL0     H89848  10.588   9.977   5.886 -0.1751 -0.7460  0.3945
  666MOL0     H89849  10.544   9.799   6.032 -1.7189 -0.4079  0.9726
  666MOL0     H89850  10.545   9.895   6.180 -0.0086  1.3763 -0.6670
  666MOL0     H89851  10.798   9.911   6.042 -2.0079 -2.4086 -3.4721
  666MOL0     H89852  10.765   9.886   6.218  0.9717  0.8253 -0.5475
  666MOL0     H89853  10.797   9.692   5.987  1.3571  1.9434 -0.0622
  666MOL0     H89854  10.892   9.708   6.134 -0.3493  0.0233  2.3042
  666MOL0     H89855  10.646   9.619   6.247 -1.5126 -0.0009 -1.3459
  666MOL0     H89856  10.614   9.595   6.077 -2.1017  1.7393  1.5119
  666MOL0     H89857  10.846   9.492   6.242 -2.0719 -0.9337  1.7884
  666MOL0     H89858  10.830   9.443   6.070 -0.2797 -0.3599 -0.5219
  666MOL0     H89859  10.654   9.368   6.300  0.0005  1.1331  0.3613
  666MOL0     H89860  10.603   9.340   6.132 -1.5458  0.3174  1.4299
  666MOL0     H89861  10.957   9.279   6.301  0.4883 -0.5114  0.6688
  666MOL0     H89862  11.101   8.989   6.186 -2.6229  1.0762 -1.8087
  666MOL0     H89863  11.106   9.065   6.349 -1.4545  0.8966 -0.2110
  666MOL0     H89864  11.002   8.862   6.453 -1.0724 -1.7755 -0.0950
  666MOL0     H89865  10.927   8.818   6.303  0.1713  2.9018 -2.7390
  666MOL0     H89866  11.169   8.778   6.212 -2.0775  0.1636 -0.4090
  666MOL0     H89867  11.133   8.664   6.342 -0.3933 -0.1679 -0.8640
  666MOL0     H89868  11.242   8.778   6.501 -4.7246 -0.4717 -1.8079
  666MOL0     H89869  11.276   8.918   6.392 -2.6299  0.6808  0.4433
  666MOL0     H89870  11.424   8.983   6.232  0.5604 -0.0289  1.0878
  666MOL0     H89871  11.660   9.067   6.175  1.6114 -0.1922  0.6462
  666MOL0     H89872  12.096   9.184   6.270  1.1582  2.0590  0.9429
  666MOL0     H89873  12.338   9.221   6.250 -2.9927  0.5824 -0.2729
  666MOL0     H89874  12.692   9.200   6.294 -0.4105  0.1086 -2.1237
  666MOL0     H89875  12.543   9.268   6.292  0.0358  1.1021  0.9843
  666MOL0     H89876  12.659   9.277   6.523  2.2459 -2.1619  0.8289
  666MOL0     H89877  12.506   9.218   6.524  1.6149  1.5953  0.6661
  666MOL0     H89878  12.598   8.976   6.513  0.8109  0.6826 -0.2831
  666MOL0     H89879  12.758   9.045   6.505  0.2111  1.5796 -2.7896
  666MOL0     H89880  12.641   8.941   6.730  1.1724 -1.0119 -1.7543
  666MOL0     H89881  12.588   9.106   6.750  1.2547  0.3596  0.3042
  666MOL0     H89882  12.819   9.184   6.702 -0.1867 -0.6514  0.7336
  666MOL0     H89883  12.859   9.010   6.717  0.6265 -1.2793  2.6269
  666MOL0     H89884  12.708   9.136   6.940  1.6346  0.1521  1.0545
  666MOL0     H89885  12.802   8.984   6.924  0.1117 -1.6391 -2.9518
  666MOL0     H89886  12.950   9.238   6.882  0.1996 -0.0242  1.0560
  666MOL0     H89887  13.005   9.077   6.940 -1.9821 -1.8144  0.3604
  666MOL0     H89888  13.009   9.214   7.123 -0.4353 -0.7724  0.7837
  666MOL0     H89889  12.849   9.294   7.082 -0.1980 -0.3195 -1.7648
  666MOL0     H89890  12.419   8.822   6.394 -2.6261 -2.2998  1.5145
  666MOL0     H89891  12.196   8.781   6.416  1.3186  0.1705  1.8122
  666MOL0     H89892  11.831   8.753   6.403  2.6744  1.2767 -2.6749
  666MOL0     H89893  11.611   8.670   6.457  0.2848  0.3019  0.8448
  666MOL0     H89894  10.187   9.849   5.827 -0.8584 -1.7622  0.8126
  666MOL0     H89895   9.937   9.909   5.792 -1.7022 -1.8777  1.5994
  666MOL0     H89896   9.669  10.253   5.745 -0.1464 -1.5655 -0.4295
  666MOL0     H89897   9.472  10.320   5.652 -0.7829 -0.2778  0.1095
  666MOL0     H89898   9.275  10.434   5.749 -0.2814 -1.1751  0.4882
  666MOL0     H89899   9.105  10.386   5.753 -0.0440  1.5144  1.1545
  666MOL0     H89900   9.285  10.431   5.514 -0.1650 -2.0505  0.5201
  666MOL0     H89901   9.190  10.547   5.580  2.6453 -0.2159  2.3144
  666MOL0     H89902   9.031  10.286   5.502  2.2367 -0.4573  0.9469
  666MOL0     H89903   9.082  10.385   5.372 -2.5585  0.8216 -0.2253
  666MOL0     H89904   8.930  10.480   5.619  4.1866  0.8573  0.8206
  666MOL0     H89905   8.997  10.594   5.498 -0.2516  0.5434 -0.9965
  666MOL0     H89906   8.719  10.437   5.235 -0.1830 -2.5566  0.6226
  666MOL0     H89907   9.239  10.031   5.854 -1.9869  1.1827 -2.4861
  666MOL0     H89908   9.447   9.810   5.968  1.7302 -0.3249  1.0831
  666MOL0     H89909   9.516   9.934   6.074 -0.2149  0.5491 -0.2769
  666MOL0     H89910   9.341   9.922   6.046  0.1999  1.2920 -0.9396
  667MOL0     O89911   6.705   3.554   3.410  0.4198 -0.4346  0.2918
  667MOL0     C89912   6.752   3.441   3.401 -0.1823 -0.5742 -0.6119
  667MOL0     O89913   6.704   3.329   3.330 -0.0607 -0.2274  0.8841
  667MOL0     C89914   6.573   3.322   3.314  0.7578  0.7191 -0.4878
  667MOL0     C89915   6.492   3.353   3.420  0.1844 -0.3987 -0.5781
  667MOL0     C89916   6.357   3.345   3.421  0.3079  0.0933  0.4449
  667MOL0     C89917   6.291   3.287   3.310  0.9650  0.2444 -0.2961
  667MOL0     O89918   6.155   3.280   3.321  0.1910  0.0930 -1.0054
  667MOL0     C89919   6.074   3.223   3.216  0.3814  0.7894  0.2611
  667MOL0     C89920   5.931   3.249   3.238 -0.3044  0.4159 -0.2661
  667MOL0     C89921   5.853   3.200   3.113 -0.2198  0.6336  0.0288
  667MOL0     C89922   5.714   3.246   3.126  0.4601  0.2584 -0.7458
  667MOL0     C89923   5.676   3.393   3.081  0.4966 -0.3628 -0.7394
  667MOL0     C89924   5.699   3.412   2.931  0.6513 -0.3308 -0.8379
  667MOL0     C89925   5.702   3.557   2.888  0.1353 -0.2943  0.1059
  667MOL0     C89926   5.829   3.623   2.946 -0.0881 -1.2350  1.4412
  667MOL0     N89927   5.852   3.753   2.879 -0.9593 -0.5633  0.2709
  667MOL0     C89928   5.955   3.772   2.783  0.2110 -0.2405 -0.7261
  667MOL0     C89929   5.958   3.909   2.768  0.0576  0.6307 -0.1408
  667MOL0     C89930   6.025   3.975   2.663 -0.1016  0.4330 -0.1334
  667MOL0     C89931   6.156   3.895   2.634 -0.0262 -0.7800  0.9073
  667MOL0     C89932   6.264   3.973   2.553 -0.4043 -0.5105 -0.4267
  667MOL0     C89933   6.384   3.885   2.536 -0.4060  0.2399 -0.7251
  667MOL0     O89934   6.495   3.936   2.471  0.0245 -0.1567 -0.0915
  667MOL0     C89935   6.622   3.892   2.511 -0.4378 -0.0729  0.0387
  667MOL0     C89936   6.729   3.959   2.458 -0.6839 -0.2195 -0.5453
  667MOL0     C89937   6.862   3.931   2.499 -0.9800 -0.6726 -0.2653
  667MOL0     C89938   6.893   3.835   2.597  0.2709  0.1838 -0.2160
  667MOL0     C89939   7.030   3.797   2.634 -1.2946 -0.1971 -0.1583
  667MOL0     O89940   7.132   3.841   2.551 -0.8453 -0.2609 -0.0621
  667MOL0     C89941   7.262   3.805   2.579  0.4415  0.2451 -0.0431
  667MOL0     C89942   7.310   3.685   2.537 -0.3267  1.0480  0.2685
  667MOL0     C89943   7.446   3.652   2.555 -0.0371  0.0627 -0.6846
  667MOL0     C89944   7.532   3.752   2.614 -0.5602  0.0338 -0.3411
  667MOL0     O89945   7.671   3.739   2.630  0.2097 -0.6475 -0.3815
  667MOL0     C89946   7.735   3.661   2.534 -0.0403 -0.6242 -0.2886
  667MOL0     C89947   7.885   3.677   2.554 -0.8108  1.0384 -0.3733
  667MOL0     C89948   7.931   3.657   2.694 -0.2277  0.2662 -0.8714
  667MOL0     C89949   8.081   3.637   2.716  0.3765 -0.1540 -0.3174
  667MOL0     C89950   8.173   3.742   2.643 -0.5025 -0.9519 -0.0276
  667MOL0     C89951   8.333   3.738   2.669  0.6309 -1.7286 -0.3318
  667MOL0     C89952   8.402   3.854   2.598  1.2386  0.3960  0.0876
  667MOL0     C89953   8.554   3.842   2.601 -0.9559  0.2093  0.2797
  667MOL0    Cl89954   8.605   3.707   2.490  0.1957 -0.1971 -0.2209
  667MOL0     C89955   7.481   3.869   2.672 -0.0911  0.4763  0.7612
  667MOL0     C89956   7.345   3.893   2.646 -1.1411  0.4402  0.1304
  667MOL0     O89957   7.052   3.732   2.733 -0.4395  0.1105 -0.1237
  667MOL0     C89958   6.781   3.780   2.663 -0.3288  0.1665  0.1932
  667MOL0     C89959   6.653   3.811   2.628 -0.0003  0.1101 -0.5825
  667MOL0     N89960   5.880   3.969   2.866  0.2035 -0.5799 -0.7078
  667MOL0     N89961   5.827   3.875   2.935  0.1805  0.5355  1.1763
  667MOL0     C89962   6.373   3.256   3.201 -0.5100  0.0794  0.2748
  667MOL0     C89963   6.514   3.262   3.207  0.0505  0.3466 -0.0748
  667MOL0     C89964   6.875   3.426   3.479 -0.6473 -0.0046 -0.0906
  667MOL0     C89965   6.968   3.537   3.493 -0.1227  0.4605  0.2875
  667MOL0     C89966   7.090   3.529   3.557 -0.2323  0.0455 -0.8215
  667MOL0     C89967   7.120   3.404   3.620 -0.7457 -1.0926  1.3631
  667MOL0     O89968   7.244   3.389   3.668 -0.7286  0.6056  0.2901
  667MOL0     C89969   7.264   3.297   3.777 -0.6520 -0.1677 -0.2001
  667MOL0     C89970   7.296   3.376   3.894 -0.6745  0.2772 -0.2334
  667MOL0     C89971   7.437   3.438   3.902  0.0737 -0.3543  1.0499
  667MOL0     C89972   7.549   3.358   3.978  0.2315 -0.1215  0.1053
  667MOL0     C89973   7.533   3.354   4.123 -0.5721  0.2476  0.0661
  667MOL0     C89974   7.503   3.341   4.242 -0.6601  0.5617 -0.6466
  667MOL0     C89975   7.038   3.296   3.593 -0.6334 -0.2304 -0.5889
  667MOL0     C89976   6.909   3.306   3.549 -0.3413  0.0295 -0.2529
  667MOL0     C89977   6.815   3.192   3.561 -0.1403  0.4520 -0.0995
  667MOL0     H89978   6.549   3.385   3.507  2.6489  0.1775 -2.3097
  667MOL0     H89979   6.310   3.360   3.518  0.4031 -1.3361  0.7290
  667MOL0     H89980   6.102   3.283   3.129 -0.0787  2.6479  1.3269
  667MOL0     H89981   6.095   3.117   3.202 -3.1458 -0.3187  2.0757
  667MOL0     H89982   5.922   3.357   3.254  0.3804  0.8556 -2.4959
  667MOL0     H89983   5.891   3.196   3.324  0.8791 -2.2262 -1.2474
  667MOL0     H89984   5.854   3.090   3.115  0.0141  0.5119 -2.7226
  667MOL0     H89985   5.910   3.228   3.024  0.5206 -1.3460 -0.1941
  667MOL0     H89986   5.647   3.178   3.072 -0.2336  1.0904 -0.9453
  667MOL0     H89987   5.689   3.247   3.232  1.3697  0.1409 -0.5232
  667MOL0     H89988   5.571   3.416   3.099  0.2407 -2.1876  0.3970
  667MOL0     H89989   5.724   3.471   3.140 -4.8730  1.1741  2.1754
  667MOL0     H89990   5.795   3.367   2.902 -0.2385 -2.5007 -0.6462
  667MOL0     H89991   5.621   3.360   2.874 -1.6628 -0.5652  2.2836
  667MOL0     H89992   5.612   3.610   2.922 -0.3074 -0.9001 -0.1092
  667MOL0     H89993   5.708   3.569   2.779  0.9800  1.0304  0.2718
  667MOL0     H89994   5.821   3.648   3.053  5.0899 -1.8946  2.2787
  667MOL0     H89995   5.917   3.559   2.933  1.0570  0.4186  0.6140
  667MOL0     H89996   6.009   3.695   2.729  0.7912 -1.0358  0.9257
  667MOL0     H89997   5.954   3.978   2.580 -1.7826 -0.4363  1.1945
  667MOL0     H89998   6.049   4.076   2.696  3.4101 -0.7467  1.3786
  667MOL0     H89999   6.201   3.864   2.729 -0.3550 -2.5900  0.5078
  667MOL0     H90000   6.131   3.801   2.584 -1.5422 -1.2265  2.3890
  667MOL0     H90001   6.288   4.064   2.609  2.6586 -1.6684  0.2961
  667MOL0     H90002   6.232   3.991   2.450  1.8366 -2.6917 -1.6136
  667MOL0     H90003   6.351   3.794   2.485  1.1973 -1.7651  1.5858
  667MOL0     H90004   6.409   3.872   2.642  0.4420 -1.6874 -1.1137
  667MOL0     H90005   6.704   4.034   2.383 -0.1786  0.3436 -0.1565
  667MOL0     H90006   6.942   3.985   2.449 -0.4113  2.2812  3.3641
  667MOL0     H90007   7.239   3.614   2.495 -1.2632  3.3936 -2.4294
  667MOL0     H90008   7.480   3.550   2.539 -1.4240 -1.5634  4.5305
  667MOL0     H90009   7.712   3.555   2.547 -1.2179 -0.1020  2.5787
  667MOL0     H90010   7.710   3.698   2.434  0.1554 -0.4531 -0.2751
  667MOL0     H90011   7.948   3.611   2.493  0.4917 -0.7170  2.6446
  667MOL0     H90012   7.924   3.774   2.521  2.4092 -1.3532 -4.7663
  667MOL0     H90013   7.905   3.748   2.749  1.5313  0.3309 -0.1071
  667MOL0     H90014   7.879   3.569   2.733 -2.6309  1.2674 -1.6069
  667MOL0     H90015   8.112   3.539   2.678 -2.2441 -0.8680 -0.8076
  667MOL0     H90016   8.095   3.642   2.824  2.2111 -0.8135 -0.4980
  667MOL0     H90017   8.132   3.842   2.656  1.1429  0.0058 -1.7071
  667MOL0     H90018   8.152   3.712   2.540 -0.8704 -1.5054  0.1986
  667MOL0     H90019   8.346   3.739   2.778 -1.3253 -1.0901 -0.0777
  667MOL0     H90020   8.367   3.642   2.629 -1.0927 -2.9321  0.9024
  667MOL0     H90021   8.368   3.939   2.657 -1.5442 -0.2488 -0.4206
  667MOL0     H90022   8.363   3.871   2.497  0.8351 -0.4768  0.0834
  667MOL0     H90023   8.601   3.935   2.568  0.5029  0.2492  2.2804
  667MOL0     H90024   8.610   3.814   2.691  1.4381 -1.8273 -1.7087
  667MOL0     H90025   7.543   3.931   2.736  0.0578  1.6242 -0.4539
  667MOL0     H90026   7.309   3.981   2.698  2.9701  2.4289 -0.0895
  667MOL0     H90027   6.800   3.702   2.736  0.0459  1.7745  1.8832
  667MOL0     H90028   6.576   3.760   2.684  1.4500 -1.1857  0.3407
  667MOL0     H90029   6.322   3.214   3.115  0.0862  3.0130 -1.6705
  667MOL0     H90030   6.577   3.241   3.121  1.0030  3.1542 -0.1465
  667MOL0     H90031   6.951   3.636   3.453 -0.4076  0.3872  0.2185
  667MOL0     H90032   7.161   3.610   3.570  1.2475 -1.3790  0.2744
  667MOL0     H90033   7.346   3.227   3.761 -0.8450 -0.7079  1.0889
  667MOL0     H90034   7.180   3.231   3.799  0.2288 -0.8258  1.3365
  667MOL0     H90035   7.290   3.306   3.978  1.5316 -2.1047 -1.9267
  667MOL0     H90036   7.227   3.461   3.898 -0.6641  0.4189 -2.3477
  667MOL0     H90037   7.434   3.534   3.954  4.6523  0.2126  0.6879
  667MOL0     H90038   7.476   3.456   3.802  0.6370 -1.4052  1.0614
  667MOL0     H90039   7.528   3.255   3.949 -1.2556 -0.2191  1.3536
  667MOL0     H90040   7.643   3.407   3.950  0.9553 -0.5503  1.6716
  667MOL0     H90041   7.477   3.325   4.345  0.2830 -1.2639 -0.6576
  667MOL0     H90042   7.078   3.200   3.626 -1.4144 -0.4979 -0.3961
  667MOL0     H90043   6.831   3.131   3.650  1.3967 -0.1071 -0.7178
  667MOL0     H90044   6.713   3.229   3.575 -0.8018 -2.1063  3.1856
  667MOL0     H90045   6.820   3.123   3.476 -0.5343 -1.2340  1.1880
  668MOL0     O90046  10.959   1.977   6.936 -0.4566 -0.4745  0.7437
  668MOL0     C90047  10.930   2.054   6.847 -0.0528 -0.0765 -0.7760
  668MOL0     O90048  11.015   2.149   6.796 -0.3099  0.2037  0.4667
  668MOL0     C90049  11.143   2.146   6.836 -0.4078  0.8368 -0.1416
  668MOL0     C90050  11.173   2.246   6.917  0.0178  0.1692 -0.0920
  668MOL0     C90051  11.297   2.268   6.963 -0.8000 -0.3031  0.8586
  668MOL0     C90052  11.394   2.174   6.934 -0.4917  0.3669 -0.5843
  668MOL0     O90053  11.530   2.186   6.968 -0.6602  0.2998 -0.2412
  668MOL0     C90054  11.579   2.318   7.020  0.5356  0.5733  0.5126
  668MOL0     C90055  11.731   2.309   7.033 -0.5126  0.0000  0.4832
  668MOL0     C90056  11.816   2.431   7.063 -0.4928  0.1997  0.6969
  668MOL0     C90057  11.749   2.524   7.170  0.2488  1.1001 -0.5258
  668MOL0     C90058  11.836   2.648   7.197  0.0870 -0.3764 -0.0999
  668MOL0     C90059  11.805   2.715   7.333  0.6062  0.0684 -1.0640
  668MOL0     C90060  11.819   2.871   7.348  1.1158  0.0056 -1.0081
  668MOL0     C90061  11.681   2.948   7.340  0.4844  0.2448  0.4062
  668MOL0     N90062  11.603   2.914   7.218  0.5373 -0.3893 -0.9568
  668MOL0     C90063  11.639   2.977   7.102  0.4892 -1.1745  0.2263
  668MOL0     C90064  11.550   2.925   7.014  0.0131 -0.0716 -0.5048
  668MOL0     C90065  11.549   2.969   6.876  0.3148  0.8431  0.7215
  668MOL0     C90066  11.408   3.012   6.840  0.5620 -0.2914  0.0469
  668MOL0     C90067  11.398   3.089   6.707 -0.7543 -1.0880 -0.4025
  668MOL0     C90068  11.411   3.002   6.578 -0.4990  0.4402 -0.4876
  668MOL0     O90069  11.444   3.075   6.459  0.2830 -0.2936 -0.1459
  668MOL0     C90070  11.572   3.106   6.429 -1.0391  0.3955 -0.6542
  668MOL0     C90071  11.596   3.168   6.313  0.6262 -0.5859  0.2325
  668MOL0     C90072  11.717   3.219   6.277 -0.1534 -0.5166  0.4211
  668MOL0     C90073  11.831   3.211   6.361  0.3817  0.8423  0.1342
  668MOL0     C90074  11.952   3.267   6.316 -0.5576  0.3406  0.0392
  668MOL0     O90075  12.060   3.241   6.392 -0.4756  0.6754  0.6871
  668MOL0     C90076  12.189   3.269   6.352 -0.3668 -0.4051 -0.6172
  668MOL0     C90077  12.286   3.289   6.450  0.9291  0.7556 -0.0497
  668MOL0     C90078  12.417   3.322   6.416  0.2726  0.0286 -0.1530
  668MOL0     C90079  12.460   3.332   6.281  0.4929  0.3276 -0.7686
  668MOL0     O90080  12.593   3.335   6.271 -0.7723  0.2202 -0.1428
  668MOL0     C90081  12.643   3.344   6.136 -0.4924 -0.7779  0.0472
  668MOL0     C90082  12.796   3.342   6.133 -0.7536 -0.4254 -0.3867
  668MOL0     C90083  12.863   3.234   6.213 -0.6039  0.2654 -0.0370
  668MOL0     C90084  13.000   3.292   6.255  0.3421 -0.1016 -0.5125
  668MOL0     C90085  13.108   3.196   6.309 -0.5556  0.3619 -0.7697
  668MOL0     C90086  13.136   3.079   6.213  0.1234  0.2081  0.2968
  668MOL0     C90087  13.178   3.122   6.070 -0.1527 -0.3318 -0.5378
  668MOL0     C90088  13.255   3.019   5.996 -0.6924 -0.0682 -0.0004
  668MOL0    Cl90089  13.167   2.873   5.982  0.5172  0.0703 -0.5758
  668MOL0     C90090  12.362   3.304   6.183 -0.8379  0.9865 -0.0482
  668MOL0     C90091  12.227   3.271   6.218  0.3866  0.6909  0.2604
  668MOL0     O90092  11.947   3.361   6.234  0.2772  0.5805  0.6649
  668MOL0     C90093  11.814   3.130   6.476 -0.7642 -0.0391 -0.5239
  668MOL0     C90094  11.688   3.076   6.513 -0.5414 -0.2486  0.3236
  668MOL0     N90095  11.461   2.837   7.073  0.7881  0.1673  0.0366
  668MOL0     N90096  11.499   2.826   7.198 -0.2538 -0.4959 -0.6335
  668MOL0     C90097  11.364   2.059   6.859 -0.7085 -1.3241 -0.8457
  668MOL0     C90098  11.234   2.050   6.814 -0.2919  0.8763  0.4839
  668MOL0     C90099  10.793   2.048   6.789 -0.4553  0.1491 -0.2106
  668MOL0     C90100  10.768   2.087   6.657  0.8988 -0.5424 -0.3975
  668MOL0     C90101  10.636   2.099   6.601 -0.9285 -0.0556 -0.0744
  668MOL0     C90102  10.533   2.053   6.673  0.0341  0.2829 -0.0181
  668MOL0     O90103  10.413   2.038   6.619 -0.3690 -0.3451 -0.3168
  668MOL0     C90104  10.355   2.153   6.548  0.2745  0.0874 -0.4208
  668MOL0     C90105  10.347   2.278   6.634  0.1814 -0.0900  0.2461
  668MOL0     C90106  10.274   2.248   6.766  0.2561  0.5890  0.3083
  668MOL0     C90107  10.218   2.372   6.835 -0.2988 -0.2110 -0.3004
  668MOL0     C90108  10.329   2.463   6.885  0.3117  0.2286  0.1538
  668MOL0     C90109  10.420   2.528   6.924 -0.2847 -0.9212 -0.6444
  668MOL0     C90110  10.553   2.009   6.805  0.3099  0.4409 -0.0979
  668MOL0     C90111  10.680   2.008   6.870  0.3421 -0.3755  0.1431
  668MOL0     C90112  10.684   1.969   7.017  0.0956  0.1732  0.4105
  668MOL0     H90113  11.100   2.322   6.943 -0.8181 -1.0151  1.1266
  668MOL0     H90114  11.304   2.357   7.026 -0.9206  0.7629 -0.5799
  668MOL0     H90115  11.540   2.396   6.954 -4.8839 -1.5874  0.6829
  668MOL0     H90116  11.530   2.339   7.116  1.8151  0.8651  1.1252
  668MOL0     H90117  11.765   2.261   6.941 -3.5376 -2.8940  0.6850
  668MOL0     H90118  11.747   2.242   7.117  1.4704  0.1958  0.3177
  668MOL0     H90119  11.813   2.492   6.973  0.4813 -1.7779 -0.7403
  668MOL0     H90120  11.914   2.387   7.083 -1.3675 -0.3468  4.6135
  668MOL0     H90121  11.646   2.547   7.141  0.1520 -0.0229 -1.1079
  668MOL0     H90122  11.726   2.473   7.264  1.8213  0.9293 -0.2019
  668MOL0     H90123  11.943   2.622   7.199  0.9566  2.4443 -2.4969
  668MOL0     H90124  11.820   2.719   7.115 -3.5347 -0.8177  0.0745
  668MOL0     H90125  11.707   2.677   7.363  2.2352 -1.7570  2.5613
  668MOL0     H90126  11.877   2.677   7.406  1.3727  0.7508 -1.4517
  668MOL0     H90127  11.881   2.910   7.267 -0.4197 -0.6213 -2.5589
  668MOL0     H90128  11.863   2.906   7.442 -2.2070 -0.5492  0.9133
  668MOL0     H90129  11.611   2.925   7.421 -1.0820 -1.4431 -1.3093
  668MOL0     H90130  11.700   3.055   7.336 -2.1844  0.8391  1.2965
  668MOL0     H90131  11.708   3.057   7.081 -0.7369  0.4236  2.0029
  668MOL0     H90132  11.609   3.059   6.861 -1.2856  2.2220  2.1968
  668MOL0     H90133  11.576   2.894   6.801 -1.8275  1.6071 -0.9151
  668MOL0     H90134  11.334   2.931   6.844  0.0156 -0.0540 -3.0659
  668MOL0     H90135  11.369   3.081   6.916  0.6775 -1.4473  1.1981
  668MOL0     H90136  11.473   3.167   6.719 -1.5181 -0.7172  2.8243
  668MOL0     H90137  11.301   3.137   6.692 -1.3272 -2.1018 -0.0285
  668MOL0     H90138  11.317   2.950   6.556 -1.4741  2.1186 -0.5509
  668MOL0     H90139  11.477   2.918   6.596 -1.6096 -0.0364  1.6790
  668MOL0     H90140  11.502   3.180   6.259  0.1301  0.0745  1.1994
  668MOL0     H90141  11.733   3.277   6.187 -0.5309  0.0177  0.6915
  668MOL0     H90142  12.260   3.277   6.555 -2.3188 -1.0949 -0.8989
  668MOL0     H90143  12.485   3.364   6.490 -2.1637  2.7195  0.7907
  668MOL0     H90144  12.616   3.260   6.072 -0.4191  0.6644 -1.9568
  668MOL0     H90145  12.609   3.438   6.091 -1.3087 -0.0081  2.1319
  668MOL0     H90146  12.827   3.317   6.031  0.6767 -0.7230  0.0986
  668MOL0     H90147  12.830   3.444   6.153 -0.4480 -0.1522 -2.1457
  668MOL0     H90148  12.800   3.212   6.300 -2.4350  0.5272 -1.2507
  668MOL0     H90149  12.866   3.140   6.158  0.6195  1.0451 -1.3623
  668MOL0     H90150  12.980   3.364   6.335  0.6373  1.5783 -1.8934
  668MOL0     H90151  13.047   3.346   6.173 -1.0744  0.7870 -0.7725
  668MOL0     H90152  13.088   3.162   6.411  1.7205  2.1773  0.3997
  668MOL0     H90153  13.195   3.261   6.323 -0.2969  0.0443 -0.8839
  668MOL0     H90154  13.204   3.009   6.261  0.4083  0.3606  0.1205
  668MOL0     H90155  13.043   3.022   6.211  1.1953 -1.6512  1.2473
  668MOL0     H90156  13.244   3.208   6.077  1.1085 -1.3234  0.2508
  668MOL0     H90157  13.091   3.146   6.008 -1.1248 -1.1475  0.4771
  668MOL0     H90158  13.290   3.052   5.898  0.8102  3.0309  1.3956
  668MOL0     H90159  13.346   2.994   6.053  0.3855  3.4696  0.1052
  668MOL0     H90160  12.389   3.298   6.077  0.8832 -0.0701  0.4053
  668MOL0     H90161  12.152   3.253   6.142  2.3680  2.3259 -2.2693
  668MOL0     H90162  11.900   3.104   6.537  1.0398  2.0836 -2.0027
  668MOL0     H90163  11.697   3.023   6.607  1.9290 -0.3604  0.0677
  668MOL0     H90164  11.452   2.000   6.834  0.4786  1.0771 -2.7062
  668MOL0     H90165  11.208   1.965   6.752  1.6197  0.9488 -0.4775
  668MOL0     H90166  10.851   2.119   6.596  0.0179 -0.9222 -1.8364
  668MOL0     H90167  10.622   2.153   6.508  0.7150  1.0813  0.2968
  668MOL0     H90168  10.252   2.124   6.525  1.1047 -1.1604 -2.9271
  668MOL0     H90169  10.403   2.181   6.454 -0.4760  3.4354  0.0924
  668MOL0     H90170  10.300   2.358   6.577 -0.2048 -2.1462 -2.4840
  668MOL0     H90171  10.452   2.303   6.652  0.5152 -1.1915 -0.1132
  668MOL0     H90172  10.332   2.179   6.828 -0.0949  1.6216  1.8381
  668MOL0     H90173  10.183   2.193   6.740 -1.5944  0.5496  5.7225
  668MOL0     H90174  10.167   2.439   6.765  0.9699  2.5084  1.2254
  668MOL0     H90175  10.130   2.351   6.897  0.5722 -2.8868  0.1622
  668MOL0     H90176  10.495   2.600   6.953 -1.3677 -0.4293  1.1048
  668MOL0     H90177  10.467   1.983   6.865 -0.5134 -0.5153 -1.6227
  668MOL0     H90178  10.658   2.044   7.092 -1.0667 -0.3935  0.6017
  668MOL0     H90179  10.608   1.892   7.030 -0.5431  0.5848 -0.7730
  668MOL0     H90180  10.778   1.932   7.061  1.0184  1.7112 -0.1978
  669MOL0     O90181   5.928   5.291   3.301  0.0653  0.5330 -0.6059
  669MOL0     C90182   5.825   5.325   3.352  0.5595 -0.5209 -0.7773
  669MOL0     O90183   5.797   5.281   3.481  0.0335 -0.4532 -0.0926
  669MOL0     C90184   5.883   5.199   3.536 -0.5494 -0.1128  0.2638
  669MOL0     C90185   5.842   5.073   3.576  0.2412  0.1052 -0.4486
  669MOL0     C90186   5.934   4.981   3.633  0.5685 -0.2696 -0.3149
  669MOL0     C90187   6.060   5.021   3.672  0.1351  0.6907 -0.2636
  669MOL0     O90188   6.154   4.936   3.722 -0.4229  0.0555 -0.1112
  669MOL0     C90189   6.111   4.815   3.782  0.6848  0.2757 -0.1053
  669MOL0     C90190   6.216   4.750   3.873 -0.2251 -0.6420  0.1853
  669MOL0     C90191   6.318   4.841   3.934  0.6366 -0.1386 -0.9803
  669MOL0     C90192   6.421   4.767   4.025 -0.1481 -0.0990 -1.1897
  669MOL0     C90193   6.489   4.640   3.976 -0.2114  0.5740  0.3689
  669MOL0     C90194   6.580   4.575   4.074  0.2251 -0.1543 -0.2391
  669MOL0     C90195   6.731   4.630   4.073 -0.2030 -0.5998 -0.8149
  669MOL0     C90196   6.835   4.529   4.124  0.0177 -0.4104  0.3429
  669MOL0     N90197   6.971   4.582   4.110 -0.2791 -0.0256  0.1117
  669MOL0     C90198   7.042   4.665   4.188 -0.0423  0.2385  0.2927
  669MOL0     C90199   7.148   4.712   4.115 -0.1866 -0.2303  1.0855
  669MOL0     C90200   7.241   4.817   4.165  0.0885 -0.6652  0.3570
  669MOL0     C90201   7.288   4.799   4.313 -0.4303  0.1702 -0.2895
  669MOL0     C90202   7.395   4.908   4.342 -0.3142  0.5920  0.1093
  669MOL0     C90203   7.539   4.899   4.288  0.5303  0.8253 -0.6545
  669MOL0     O90204   7.584   4.760   4.296  0.7231 -0.8498  0.1317
  669MOL0     C90205   7.716   4.749   4.327  0.3082  0.1481 -0.0510
  669MOL0     C90206   7.755   4.690   4.443  0.2209 -0.0013 -1.1155
  669MOL0     C90207   7.881   4.637   4.466  0.0245 -0.4784  0.3307
  669MOL0     C90208   7.984   4.663   4.383  0.4923 -0.3026  0.3513
  669MOL0     C90209   8.121   4.606   4.406  0.3601 -0.3957  0.4052
  669MOL0     O90210   8.222   4.659   4.328  0.3709 -0.3358  0.0214
  669MOL0     C90211   8.352   4.621   4.331 -0.4453  0.5911  0.0301
  669MOL0     C90212   8.440   4.700   4.256  1.1207 -0.3897 -0.3087
  669MOL0     C90213   8.575   4.666   4.241 -0.1444 -0.2636  0.2547
  669MOL0     C90214   8.627   4.545   4.291 -0.8168  0.4331  0.0931
  669MOL0     O90215   8.762   4.515   4.273 -0.6377 -0.1584  0.9274
  669MOL0     C90216   8.818   4.407   4.349 -0.4607 -1.1184  0.2847
  669MOL0     C90217   8.968   4.375   4.322  0.4451 -0.1219 -0.4240
  669MOL0     C90218   9.041   4.277   4.408  0.3417  0.0515  0.5520
  669MOL0     C90219   9.193   4.265   4.372  0.1895 -0.2153  0.1094
  669MOL0     C90220   9.263   4.130   4.408 -0.0406 -0.1941 -0.3795
  669MOL0     C90221   9.272   4.105   4.568  1.0855  0.4626 -1.1299
  669MOL0     C90222   9.372   3.998   4.611  1.2328  0.5277  0.5598
  669MOL0     C90223   9.446   4.042   4.739 -0.3377  0.1578 -0.1375
  669MOL0    Cl90224   9.602   4.089   4.675  0.3550 -0.4507 -0.2162
  669MOL0     C90225   8.537   4.462   4.359 -0.5972  0.2487  0.0049
  669MOL0     C90226   8.403   4.495   4.381 -0.4654  0.7558 -0.2648
  669MOL0     O90227   8.135   4.525   4.496 -0.1117 -0.5922 -0.0184
  669MOL0     C90228   7.953   4.748   4.273  0.1240  1.3535  0.2618
  669MOL0     C90229   7.818   4.790   4.242  0.4778  0.7562 -0.7776
  669MOL0     N90230   7.149   4.648   3.991 -0.5132  0.5940  0.4010
  669MOL0     N90231   7.042   4.572   3.993  0.3840 -0.5881  0.6542
  669MOL0     C90232   6.094   5.158   3.654  0.1615 -0.4112 -0.5189
  669MOL0     C90233   6.005   5.240   3.581 -0.4646 -1.0400  0.2617
  669MOL0     C90234   5.721   5.412   3.289 -0.3299 -0.4813 -0.2640
  669MOL0     C90235   5.614   5.464   3.373  0.0636 -0.0402  0.6990
  669MOL0     C90236   5.524   5.562   3.333 -0.5421 -0.1441  0.5542
  669MOL0     C90237   5.535   5.613   3.204  1.4127  0.3953  0.1120
  669MOL0     O90238   5.435   5.701   3.168 -0.3945 -0.3318 -0.2108
  669MOL0     C90239   5.473   5.787   3.071 -0.3629 -0.0102 -0.3752
  669MOL0     C90240   5.373   5.901   3.071 -0.4247  0.2190  0.2792
  669MOL0     C90241   5.414   6.000   2.971 -0.2281 -0.2760 -0.2593
  669MOL0     C90242   5.303   6.087   2.927 -0.7544 -0.7655 -0.4693
  669MOL0     C90243   5.189   6.014   2.861 -0.8062 -0.5095  0.2867
  669MOL0     C90244   5.090   5.970   2.813 -0.0480 -0.2302  0.5280
  669MOL0     C90245   5.630   5.566   3.119  0.1388  0.0356 -0.0408
  669MOL0     C90246   5.728   5.465   3.156 -0.0597 -0.0157 -0.9360
  669MOL0     C90247   5.852   5.440   3.072 -0.0029 -0.1692 -1.9726
  669MOL0     H90248   5.742   5.032   3.565  0.8381 -1.2205 -1.1664
  669MOL0     H90249   5.893   4.884   3.658 -2.0405  0.9719  0.6131
  669MOL0     H90250   6.026   4.844   3.845  1.7807 -1.1801  2.1373
  669MOL0     H90251   6.081   4.742   3.705  1.7768  0.5094 -0.7724
  669MOL0     H90252   6.272   4.676   3.815 -1.3748 -3.3247  2.2697
  669MOL0     H90253   6.168   4.694   3.954 -0.4166 -0.6037  0.0991
  669MOL0     H90254   6.268   4.922   3.988  0.6729 -0.7437  0.0018
  669MOL0     H90255   6.381   4.886   3.858 -0.6726  2.2811 -0.7063
  669MOL0     H90256   6.490   4.847   4.055 -3.6717  2.7433  0.0798
  669MOL0     H90257   6.381   4.737   4.122  2.5610  3.8966  1.5057
  669MOL0     H90258   6.415   4.562   3.959  0.6584 -0.5044  1.3361
  669MOL0     H90259   6.541   4.661   3.882  1.6965 -1.6196  0.8374
  669MOL0     H90260   6.533   4.585   4.173 -3.0360  3.1498 -1.8535
  669MOL0     H90261   6.578   4.466   4.061  0.7491 -0.3383  1.0554
  669MOL0     H90262   6.729   4.727   4.124  2.5650 -1.5702  1.3895
  669MOL0     H90263   6.754   4.653   3.969 -0.4735  1.7855 -0.3901
  669MOL0     H90264   6.806   4.505   4.227  0.5200  0.6215  0.7402
  669MOL0     H90265   6.824   4.438   4.064  0.4513 -1.1890  1.3942
  669MOL0     H90266   7.021   4.703   4.287 -1.0747 -1.9473  0.9760
  669MOL0     H90267   7.328   4.835   4.101  1.4423 -0.8271  2.0597
  669MOL0     H90268   7.191   4.915   4.169 -2.1356 -1.6584 -1.2836
  669MOL0     H90269   7.201   4.811   4.379  1.0892 -0.5134  1.9398
  669MOL0     H90270   7.323   4.697   4.334 -0.9666  0.2321  0.9890
  669MOL0     H90271   7.409   4.915   4.450  0.2758  2.9380 -0.0598
  669MOL0     H90272   7.354   5.005   4.312 -0.4798 -0.2492 -2.7460
  669MOL0     H90273   7.610   4.964   4.339 -0.1391 -0.4024  2.0124
  669MOL0     H90274   7.527   4.927   4.183 -0.0968  2.2516 -0.2304
  669MOL0     H90275   7.685   4.656   4.519 -0.3037  3.0568 -0.1204
  669MOL0     H90276   7.897   4.568   4.548 -1.5117  0.9361  1.8986
  669MOL0     H90277   8.398   4.787   4.205 -1.1347  0.0836  2.1268
  669MOL0     H90278   8.642   4.732   4.188 -0.2091  0.5974  1.2190
  669MOL0     H90279   8.801   4.443   4.451  2.3096  1.4197 -0.0196
  669MOL0     H90280   8.754   4.320   4.328 -0.5942 -1.0169  0.2676
  669MOL0     H90281   8.964   4.344   4.217 -0.8168  1.2086 -0.8009
  669MOL0     H90282   9.025   4.468   4.334 -3.3950  2.2947  1.2226
  669MOL0     H90283   9.032   4.304   4.513  1.7453 -1.1684  1.0219
  669MOL0     H90284   8.998   4.177   4.398  0.5640 -0.4585  3.7872
  669MOL0     H90285   9.237   4.357   4.412 -3.7748  1.1189  1.9313
  669MOL0     H90286   9.199   4.269   4.263 -1.8025  3.3778 -0.0363
  669MOL0     H90287   9.363   4.125   4.364  0.5554  1.4752  0.6828
  669MOL0     H90288   9.203   4.056   4.354 -0.0933 -1.6175  1.5389
  669MOL0     H90289   9.307   4.203   4.600  0.7005  0.3129 -0.2249
  669MOL0     H90290   9.172   4.087   4.607  1.4278  1.4771  0.2826
  669MOL0     H90291   9.428   3.970   4.521 -0.6597 -0.1596 -0.4665
  669MOL0     H90292   9.319   3.905   4.637  1.1220  0.5906  0.5558
  669MOL0     H90293   9.392   4.119   4.795 -0.8922  0.6789 -1.3372
  669MOL0     H90294   9.466   3.953   4.799  0.9571 -0.5494 -1.5293
  669MOL0     H90295   8.565   4.372   4.412 -0.8868  2.2955  3.9302
  669MOL0     H90296   8.343   4.423   4.435 -1.7754  1.2312 -1.0367
  669MOL0     H90297   8.030   4.780   4.204 -0.8903  2.3069 -0.4601
  669MOL0     H90298   7.784   4.811   4.141 -2.2850 -2.8693 -0.8142
  669MOL0     H90299   6.193   5.191   3.684 -0.1625  0.7543 -0.6670
  669MOL0     H90300   6.046   5.338   3.558 -3.7933  0.2729 -0.5364
  669MOL0     H90301   5.608   5.415   3.470  2.3971  0.1462  1.0124
  669MOL0     H90302   5.443   5.607   3.391 -0.0745 -0.3336  1.3713
  669MOL0     H90303   5.469   5.737   2.973  0.0396 -2.7850  0.9409
  669MOL0     H90304   5.579   5.812   3.072  0.1223 -1.9026  0.4406
  669MOL0     H90305   5.357   5.946   3.169 -1.2613  3.1437 -1.0594
  669MOL0     H90306   5.277   5.858   3.039 -0.8125  1.9983 -1.1518
  669MOL0     H90307   5.464   5.961   2.883 -1.2209 -1.5256 -0.2888
  669MOL0     H90308   5.487   6.069   3.014  0.7693 -0.4991 -1.5401
  669MOL0     H90309   5.270   6.130   3.022 -0.3691  0.1521 -0.7348
  669MOL0     H90310   5.336   6.162   2.854  0.1559  3.1259  3.4842
  669MOL0     H90311   5.014   5.920   2.756  1.6758  0.4256 -2.6048
  669MOL0     H90312   5.628   5.611   3.020 -1.6314  2.4046  0.9783
  669MOL0     H90313   5.940   5.474   3.127 -0.1571 -0.5172 -1.5009
  669MOL0     H90314   5.869   5.333   3.054  1.1344  0.0711 -2.3751
  669MOL0     H90315   5.851   5.490   2.975  0.1479  2.8540 -0.5187
  670MOL0     O90316   0.535  10.026   5.333  0.0605  0.1850  0.7149
  670MOL0     C90317   0.498  10.051   5.444 -0.3738  0.2625  0.1480
  670MOL0     O90318   0.578  10.086   5.551 -0.1841 -0.0664  0.6435
  670MOL0     C90319   0.709  10.103   5.536 -0.0787 -0.6557 -0.4914
  670MOL0     C90320   0.768  10.194   5.627 -0.3517  0.5929  0.8073
  670MOL0     C90321   0.908  10.218   5.624 -0.0215 -0.0648 -0.5308
  670MOL0     C90322   0.991  10.161   5.530  0.5868  0.1643  0.7837
  670MOL0     O90323   1.127  10.151   5.521  0.0920  0.3781  0.0395
  670MOL0     C90324   1.186  10.069   5.623 -0.1333 -0.3945  0.0137
  670MOL0     C90325   1.329  10.122   5.626  0.1558 -1.2576  0.1822
  670MOL0     C90326   1.439  10.019   5.667 -0.1457 -0.2470 -0.2839
  670MOL0     C90327   1.576  10.058   5.626 -0.6643 -0.0422  0.0158
  670MOL0     C90328   1.695   9.966   5.674 -0.5457  0.4150 -0.1927
  670MOL0     C90329   1.833  10.007   5.629  0.1215 -0.5742  0.3219
  670MOL0     C90330   1.954   9.949   5.690  0.2515  0.2478 -0.1730
  670MOL0     C90331   1.981   9.994   5.835  0.7519  0.0002 -0.1234
  670MOL0     N90332   2.117   9.955   5.874  0.4281 -0.0227 -0.4826
  670MOL0     C90333   2.149   9.828   5.927  0.0570  0.5304  0.8943
  670MOL0     C90334   2.281   9.847   5.947  0.3631 -0.3123 -0.8527
  670MOL0     C90335   2.389   9.737   5.977  0.7069  0.4230  0.1664
  670MOL0     C90336   2.530   9.798   6.011 -0.0726 -0.6173 -0.1943
  670MOL0     C90337   2.629   9.689   6.023 -0.2584  0.1735 -0.5929
  670MOL0     C90338   2.749   9.741   6.088 -0.1462 -0.0858  0.0194
  670MOL0     O90339   2.859   9.658   6.050  0.8454 -0.1335  0.0368
  670MOL0     C90340   2.980   9.655   6.116  0.0772  0.0137 -0.3658
  670MOL0     C90341   3.075   9.558   6.097 -0.7771 -0.7412  0.2183
  670MOL0     C90342   3.180   9.539   6.188 -0.6017 -0.2058  1.0119
  670MOL0     C90343   3.203   9.631   6.292  0.2392  0.0204  0.7302
  670MOL0     C90344   3.324   9.614   6.385 -0.1329 -0.3783  0.1797
  670MOL0     O90345   3.429   9.522   6.359 -0.3895  0.6631 -0.9750
  670MOL0     C90346   3.537   9.500   6.445 -0.4699 -0.2945 -0.1161
  670MOL0     C90347   3.608   9.380   6.429  0.5633  0.0505  0.1572
  670MOL0     C90348   3.725   9.366   6.505 -0.3793  1.0721  0.1646
  670MOL0     C90349   3.770   9.458   6.593 -0.1285 -0.5427 -0.5577
  670MOL0     O90350   3.880   9.434   6.670 -0.4462 -0.0522  0.6764
  670MOL0     C90351   3.998   9.462   6.594 -0.0750 -0.5662 -0.4293
  670MOL0     C90352   4.109   9.451   6.696 -0.0586 -0.1479 -0.4112
  670MOL0     C90353   4.099   9.568   6.800  0.3286  0.4190 -0.4079
  670MOL0     C90354   4.209   9.562   6.908 -0.1049  0.1957  0.3110
  670MOL0     C90355   4.212   9.675   7.001  1.0827  0.2367 -1.2028
  670MOL0     C90356   4.344   9.700   7.066  0.6180 -0.4258 -0.3183
  670MOL0     C90357   4.387   9.603   7.163  0.5231 -0.3465  1.0850
  670MOL0     C90358   4.506   9.643   7.244  0.3762 -0.5316  0.2949
  670MOL0    Cl90359   4.484   9.788   7.355 -0.1692 -0.1779  0.1169
  670MOL0     C90360   3.700   9.576   6.612  0.4448  0.2958 -0.4470
  670MOL0     C90361   3.588   9.598   6.532 -0.0213  0.4133 -0.6005
  670MOL0     O90362   3.305   9.675   6.494 -0.9795  0.5062 -0.1918
  670MOL0     C90363   3.117   9.738   6.298 -0.2941 -0.2652 -0.2004
  670MOL0     C90364   3.000   9.742   6.221 -0.5794  0.1520  0.7316
  670MOL0     N90365   2.321   9.984   5.924  0.4175 -0.9845  0.4568
  670MOL0     N90366   2.220  10.046   5.867  0.3407  0.4952  0.3065
  670MOL0     C90367   0.930  10.069   5.449  0.2402 -0.1855 -0.3230
  670MOL0     C90368   0.799  10.044   5.448  0.9574  0.1870 -0.2735
  670MOL0     C90369   0.348  10.031   5.481 -0.4718 -0.0433  0.0200
  670MOL0     C90370   0.312  10.041   5.614  0.4685 -0.5309 -0.0163
  670MOL0     C90371   0.181  10.034   5.658  0.0035 -0.3632 -0.7239
  670MOL0     C90372   0.078  10.009   5.568  0.5158  0.6361  0.1515
  670MOL0     O90373  -0.049   9.997   5.612 -0.2743 -0.2162 -0.7206
  670MOL0     C90374  -0.151   9.960   5.518 -0.0561 -0.4587 -0.1105
  670MOL0     C90375  -0.275   9.934   5.600 -0.8824 -0.4215  0.4613
  670MOL0     C90376  -0.267   9.810   5.683  0.3930  0.2097  0.6564
  670MOL0     C90377  -0.408   9.767   5.723  0.6042 -0.2520 -0.4570
  670MOL0     C90378  -0.412   9.624   5.761  0.3137 -0.2058  1.4240
  670MOL0     C90379  -0.412   9.514   5.789 -0.5235 -0.3861 -0.4205
  670MOL0     C90380   0.115   9.983   5.432 -0.1099  0.4846  0.0455
  670MOL0     C90381   0.245  10.001   5.382  1.3877  0.4868 -0.3398
  670MOL0     C90382   0.268   9.984   5.234 -0.5163  0.5760  0.5053
  670MOL0     H90383   0.700  10.252   5.689 -1.4271 -0.5228  0.7259
  670MOL0     H90384   0.961  10.287   5.688 -1.4372 -2.1430  3.2087
  670MOL0     H90385   1.136  10.085   5.719  1.6511  0.0540  0.9075
  670MOL0     H90386   1.188   9.961   5.609 -1.6857 -0.5943  1.1004
  670MOL0     H90387   1.336  10.200   5.703  0.3322 -0.4073 -0.6752
  670MOL0     H90388   1.346  10.157   5.524 -0.4628 -1.0569  0.1409
  670MOL0     H90389   1.417   9.919   5.631  0.9668 -0.1361 -1.3203
  670MOL0     H90390   1.450  10.014   5.776  1.7539  0.6730 -0.3948
  670MOL0     H90391   1.585  10.053   5.517 -0.6749 -2.5406  0.0560
  670MOL0     H90392   1.603  10.156   5.666 -0.1214 -0.7148  1.3613
  670MOL0     H90393   1.696   9.952   5.783 -3.3086 -0.6524 -0.2200
  670MOL0     H90394   1.669   9.870   5.628  0.2366 -0.2899  0.7906
  670MOL0     H90395   1.830   9.980   5.523 -2.4603  0.6962 -0.0323
  670MOL0     H90396   1.849  10.115   5.623  1.5883 -0.8453 -1.4751
  670MOL0     H90397   2.035   9.983   5.626 -1.0008  0.5199 -1.6662
  670MOL0     H90398   1.947   9.840   5.685 -1.6669  0.3161  0.0751
  670MOL0     H90399   1.964  10.101   5.850  0.8307 -0.0365  0.2445
  670MOL0     H90400   1.919   9.931   5.900  1.9674 -2.5363 -1.2809
  670MOL0     H90401   2.088   9.738   5.933  0.3827 -0.1803 -3.2273
  670MOL0     H90402   2.352   9.677   6.061 -2.9176  0.2601 -1.3647
  670MOL0     H90403   2.384   9.677   5.886 -0.9521  1.6150 -0.5772
  670MOL0     H90404   2.559   9.867   5.931  2.9792  0.4766  1.6946
  670MOL0     H90405   2.517   9.845   6.108  1.1343 -0.6509 -0.0089
  670MOL0     H90406   2.651   9.640   5.928 -1.0489  0.7307 -1.0816
  670MOL0     H90407   2.602   9.609   6.092 -1.4495  0.3965 -0.7624
  670MOL0     H90408   2.738   9.744   6.196  0.7959 -1.0056  0.1564
  670MOL0     H90409   2.776   9.838   6.045  2.7523 -1.0167 -0.4427
  670MOL0     H90410   3.076   9.494   6.009  2.2931  1.9269 -1.9279
  670MOL0     H90411   3.251   9.456   6.184  1.4113  1.2970  2.9228
  670MOL0     H90412   3.569   9.306   6.358  1.2317  0.1422 -0.3169
  670MOL0     H90413   3.790   9.280   6.504  4.1585  4.1701 -0.3972
  670MOL0     H90414   4.011   9.399   6.506 -1.6490 -1.9385  0.2616
  670MOL0     H90415   3.997   9.570   6.574 -1.0678 -0.4961 -0.0654
  670MOL0     H90416   4.123   9.356   6.748 -0.2655 -0.2287 -0.5010
  670MOL0     H90417   4.201   9.464   6.639  1.0739 -1.7810  0.9137
  670MOL0     H90418   4.116   9.665   6.753 -1.6459  0.4580 -1.1568
  670MOL0     H90419   4.001   9.582   6.849  1.3049  0.3515  1.6635
  670MOL0     H90420   4.304   9.544   6.855 -0.0436  1.4832 -0.0628
  670MOL0     H90421   4.195   9.475   6.971 -0.3326  1.7610  2.5491
  670MOL0     H90422   4.134   9.668   7.077 -0.7352  0.3098 -2.9711
  670MOL0     H90423   4.183   9.759   6.936  0.9756  1.5288  0.4557
  670MOL0     H90424   4.426   9.702   6.993  2.5512 -0.9928  1.7326
  670MOL0     H90425   4.342   9.799   7.113  2.2493 -0.6806  0.3468
  670MOL0     H90426   4.409   9.506   7.117  1.1069  0.9477 -1.5616
  670MOL0     H90427   4.308   9.593   7.237 -0.2504 -1.1712  0.1793
  670MOL0     H90428   4.546   9.559   7.300  2.5840 -0.6858 -1.3701
  670MOL0     H90429   4.588   9.669   7.177  0.9595 -0.1194  1.1590
  670MOL0     H90430   3.743   9.642   6.686  4.3033 -0.9295 -1.3565
  670MOL0     H90431   3.535   9.692   6.544  1.5786  1.3267 -0.4346
  670MOL0     H90432   3.140   9.815   6.370 -2.0997 -1.1840  1.4446
  670MOL0     H90433   2.925   9.818   6.244 -2.7377 -2.5551  3.5336
  670MOL0     H90434   0.992  10.027   5.370  4.1677 -0.9386  2.8128
  670MOL0     H90435   0.752   9.982   5.373 -0.1681  1.1854 -0.4181
  670MOL0     H90436   0.386  10.061   5.690 -0.6964  0.3070  0.9433
  670MOL0     H90437   0.176  10.054   5.765  0.1491  0.0998 -0.8010
  670MOL0     H90438  -0.117   9.866   5.472  2.4994 -0.2972  1.2496
  670MOL0     H90439  -0.177  10.036   5.445  1.3386  0.2276  0.0793
  670MOL0     H90440  -0.363   9.945   5.536 -1.8566  0.1162  1.8449
  670MOL0     H90441  -0.285  10.017   5.671  1.5028  0.7293 -0.4380
  670MOL0     H90442  -0.200   9.831   5.767  1.7546  1.9732 -0.7828
  670MOL0     H90443  -0.225   9.730   5.622 -1.4986 -1.6597  1.6883
  670MOL0     H90444  -0.435   9.830   5.808  1.6317 -0.6826  0.2127
  670MOL0     H90445  -0.480   9.779   5.641 -0.3125  0.0080  0.3670
  670MOL0     H90446  -0.412   9.410   5.816 -0.4623  0.2632  2.3734
  670MOL0     H90447   0.036   9.958   5.362 -1.3454  1.1089  1.1578
  670MOL0     H90448   0.179   9.969   5.172  1.3008 -1.6223 -1.8173
  670MOL0     H90449   0.319  10.069   5.188  0.4581 -2.1143 -4.0030
  670MOL0     H90450   0.339   9.902   5.220 -0.8721  0.3249  0.1475
  671MOL0     O90451   2.561   4.630   3.238  0.4902 -0.2356 -0.9387
  671MOL0     C90452   2.559   4.744   3.285 -0.4864  0.6735  0.1046
  671MOL0     O90453   2.676   4.808   3.325  0.0673 -0.7596 -0.3678
  671MOL0     C90454   2.803   4.777   3.307 -0.2264  0.4750  0.1965
  671MOL0     C90455   2.861   4.665   3.237  0.2008  0.1236 -0.0100
  671MOL0     C90456   2.996   4.646   3.240  0.0560  0.2127 -0.4627
  671MOL0     C90457   3.087   4.738   3.298 -0.1590 -0.0729 -0.2285
  671MOL0     O90458   3.222   4.712   3.292  0.0829 -0.1726  0.8380
  671MOL0     C90459   3.305   4.828   3.291  0.3257  0.2809  0.1347
  671MOL0     C90460   3.439   4.765   3.271  0.3478  0.9102 -0.1252
  671MOL0     C90461   3.556   4.856   3.299  0.8833 -0.6378 -0.0784
  671MOL0     C90462   3.688   4.791   3.255  0.5240  0.3338 -0.0762
  671MOL0     C90463   3.804   4.878   3.296 -0.2051  0.3791  0.3306
  671MOL0     C90464   3.935   4.826   3.251  0.5751  0.1063 -0.6279
  671MOL0     C90465   4.058   4.913   3.296 -0.9421 -0.8940  0.9656
  671MOL0     C90466   4.069   5.040   3.214  0.0132  0.1263  0.0650
  671MOL0     N90467   4.187   5.124   3.231 -0.4931 -0.3417  0.6552
  671MOL0     C90468   4.186   5.254   3.255 -0.4861  0.4927 -0.5271
  671MOL0     C90469   4.317   5.298   3.268 -0.6022  0.0783  0.2356
  671MOL0     C90470   4.361   5.445   3.291 -0.8740 -0.3056 -0.0237
  671MOL0     C90471   4.512   5.461   3.277  0.1939 -0.8177  0.5756
  671MOL0     C90472   4.557   5.608   3.289  0.4823  0.3851  0.2115
  671MOL0     C90473   4.706   5.620   3.291 -0.0838 -0.1323 -0.6515
  671MOL0     O90474   4.751   5.603   3.424  0.4616  0.4737 -0.7498
  671MOL0     C90475   4.865   5.536   3.459  0.4484  0.3905 -0.6196
  671MOL0     C90476   4.956   5.486   3.373  0.1721 -0.2416 -0.1075
  671MOL0     C90477   5.071   5.426   3.429 -1.5842  0.5029 -0.4917
  671MOL0     C90478   5.088   5.413   3.564  0.9762  0.1080  0.7805
  671MOL0     C90479   5.204   5.342   3.618 -0.3199 -1.0092  0.1006
  671MOL0     O90480   5.227   5.343   3.751  0.1081 -0.1642  0.1840
  671MOL0     C90481   5.325   5.265   3.804 -0.9279  0.3054  0.2326
  671MOL0     C90482   5.289   5.195   3.924 -0.6657 -0.4327  0.5151
  671MOL0     C90483   5.386   5.128   3.996  0.3485 -0.1337  0.1543
  671MOL0     C90484   5.518   5.129   3.959 -0.4012 -0.6309 -0.3923
  671MOL0     O90485   5.606   5.058   4.044  0.3304  0.0652  0.0412
  671MOL0     C90486   5.725   5.136   4.085  1.0971 -0.5187  0.0987
  671MOL0     C90487   5.843   5.107   3.994  0.8965  0.7482  0.7447
  671MOL0     C90488   5.968   5.199   4.000 -0.4781  0.2145 -0.2796
  671MOL0     C90489   6.023   5.211   4.142 -0.5253  0.2182  0.4510
  671MOL0     C90490   6.151   5.296   4.162  0.2438  0.1762 -0.7622
  671MOL0     C90491   6.275   5.263   4.073 -0.4841 -0.6973  0.9140
  671MOL0     C90492   6.390   5.341   4.133 -1.3885  0.5786 -0.6881
  671MOL0     C90493   6.520   5.318   4.056 -0.3365 -0.0979 -0.5231
  671MOL0    Cl90494   6.548   5.142   4.030 -0.2254 -0.8748 -0.6985
  671MOL0     C90495   5.555   5.190   3.836  0.0007  0.1910  0.4923
  671MOL0     C90496   5.461   5.264   3.761  0.2761 -0.0899 -0.4990
  671MOL0     O90497   5.276   5.287   3.538  0.0402 -0.3266  0.6133
  671MOL0     C90498   4.991   5.467   3.658  0.4597 -0.5587  1.0437
  671MOL0     C90499   4.882   5.522   3.598  1.3787 -0.7572 -0.2215
  671MOL0     N90500   4.397   5.188   3.240 -0.4251  0.1508  0.8374
  671MOL0     N90501   4.318   5.083   3.217  0.1443  0.8200 -0.0845
  671MOL0     C90502   3.032   4.849   3.365 -0.3212  0.2061  0.0418
  671MOL0     C90503   2.894   4.866   3.373  0.2462  0.6494  0.3873
  671MOL0     C90504   2.430   4.824   3.316 -0.0458 -0.4344 -0.6282
  671MOL0     C90505   2.447   4.960   3.338 -0.0659 -0.2905 -0.1279
  671MOL0     C90506   2.331   5.038   3.376  0.5143  1.0047 -0.4869
  671MOL0     C90507   2.204   4.978   3.391 -0.5362 -0.4621 -0.4432
  671MOL0     O90508   2.099   5.057   3.412 -0.5395  0.9254 -0.6673
  671MOL0     C90509   1.965   5.014   3.420 -0.6670  0.4496  0.2449
  671MOL0     C90510   1.917   4.995   3.280  0.2749 -0.5372  0.5777
  671MOL0     C90511   1.770   4.984   3.281 -0.5383 -0.8547  0.3077
  671MOL0     C90512   1.720   5.004   3.140  0.0033  0.3608  0.5319
  671MOL0     C90513   1.590   4.939   3.108  0.2947  0.4918 -1.3792
  671MOL0     C90514   1.474   4.889   3.102 -0.7593 -0.3558 -1.2135
  671MOL0     C90515   2.187   4.840   3.361  0.4925  0.3561  0.0004
  671MOL0     C90516   2.300   4.764   3.329  0.6758  1.6917  0.7730
  671MOL0     C90517   2.269   4.611   3.307 -0.2659  0.7487 -0.5041
  671MOL0     H90518   2.805   4.585   3.188 -2.9691  1.9482  0.3246
  671MOL0     H90519   3.033   4.562   3.183 -1.0170 -1.0240  0.5805
  671MOL0     H90520   3.282   4.911   3.224 -2.3423  0.5500  1.2807
  671MOL0     H90521   3.305   4.872   3.391 -0.1754 -2.2320  1.3143
  671MOL0     H90522   3.441   4.735   3.165 -0.2349 -1.9763  0.5966
  671MOL0     H90523   3.444   4.670   3.324 -1.0612  0.1818 -1.2306
  671MOL0     H90524   3.571   4.879   3.404  1.9789 -0.6584 -0.2224
  671MOL0     H90525   3.538   4.955   3.255  3.9333 -0.0806 -0.2682
  671MOL0     H90526   3.697   4.696   3.309  1.1084 -0.2994 -1.2472
  671MOL0     H90527   3.678   4.763   3.150  0.0427 -3.8519  0.9076
  671MOL0     H90528   3.789   4.980   3.261 -1.1322 -0.1511 -0.8934
  671MOL0     H90529   3.809   4.880   3.405 -2.4375 -1.0341  0.5196
  671MOL0     H90530   3.938   4.724   3.288 -1.2467 -0.6857 -2.4453
  671MOL0     H90531   3.938   4.826   3.141 -1.7340  0.0709 -0.7393
  671MOL0     H90532   4.155   4.863   3.289  0.4792  1.7630  0.1887
  671MOL0     H90533   4.044   4.940   3.401 -0.0472  1.6639  0.5020
  671MOL0     H90534   4.061   5.010   3.109  0.6084 -1.2998  0.4053
  671MOL0     H90535   3.977   5.093   3.242 -0.3347  0.0047 -0.8256
  671MOL0     H90536   4.098   5.318   3.259 -0.0049  1.2982 -2.2529
  671MOL0     H90537   4.306   5.517   3.230 -2.9119  0.1149  2.1228
  671MOL0     H90538   4.357   5.464   3.399 -0.1824 -1.6035  0.2598
  671MOL0     H90539   4.564   5.405   3.355  1.6678 -1.2997 -0.7007
  671MOL0     H90540   4.544   5.420   3.181  0.3764 -0.4027  0.4574
  671MOL0     H90541   4.514   5.646   3.382 -1.2083  0.9274 -0.7625
  671MOL0     H90542   4.515   5.666   3.207  3.2103 -0.3599 -1.8715
  671MOL0     H90543   4.728   5.716   3.242  1.1466  0.2239  0.5179
  671MOL0     H90544   4.743   5.542   3.223 -0.5195 -1.5221  0.6552
  671MOL0     H90545   4.939   5.493   3.266  0.3417  2.0935 -0.0194
  671MOL0     H90546   5.153   5.383   3.373 -2.0492  1.4076 -1.9263
  671MOL0     H90547   5.184   5.202   3.948 -1.0135  1.3025 -1.2080
  671MOL0     H90548   5.349   5.065   4.076  1.3139 -0.7319  0.1413
  671MOL0     H90549   5.701   5.243   4.086  1.6393 -0.3782 -0.8315
  671MOL0     H90550   5.751   5.111   4.188  0.5353  1.4148  0.7699
  671MOL0     H90551   5.894   5.012   4.013  3.0728  1.7688  0.3146
  671MOL0     H90552   5.812   5.095   3.890  0.6944 -4.7053  1.1049
  671MOL0     H90553   6.052   5.160   3.941 -0.2752 -0.7729  0.6388
  671MOL0     H90554   5.942   5.294   3.952  0.7879  1.8603  2.1385
  671MOL0     H90555   6.050   5.111   4.179  2.2052  0.5107 -0.5272
  671MOL0     H90556   5.938   5.245   4.202 -1.5932 -0.8939 -0.3777
  671MOL0     H90557   6.183   5.272   4.264  0.4000 -0.8051 -1.0327
  671MOL0     H90558   6.121   5.400   4.148  1.3012  0.6357  0.2138
  671MOL0     H90559   6.290   5.155   4.063  1.7385 -0.4307  0.9590
  671MOL0     H90560   6.267   5.302   3.972  1.9267 -0.8187  0.6255
  671MOL0     H90561   6.425   5.302   4.229 -0.5555 -0.4158 -1.3695
  671MOL0     H90562   6.359   5.444   4.148 -1.5067  0.1516  2.6780
  671MOL0     H90563   6.515   5.379   3.965 -1.4035 -0.7342 -0.9184
  671MOL0     H90564   6.608   5.359   4.106  0.7570 -0.8929 -1.7388
  671MOL0     H90565   5.659   5.194   3.806  0.1517  2.2301  1.1444
  671MOL0     H90566   5.488   5.317   3.671  1.3848  0.9309  0.4073
  671MOL0     H90567   5.006   5.474   3.766 -2.0377  1.4590  1.3589
  671MOL0     H90568   4.802   5.558   3.662 -0.2786 -3.9168 -0.3057
  671MOL0     H90569   3.091   4.933   3.401 -0.1570  1.3401 -2.6732
  671MOL0     H90570   2.858   4.951   3.431  0.6469  1.7343 -0.8903
  671MOL0     H90571   2.544   5.005   3.320  0.1590 -1.8877 -3.9290
  671MOL0     H90572   2.350   5.144   3.386 -1.4042  1.5135 -1.5972
  671MOL0     H90573   1.915   5.093   3.476  2.8046  1.5214  2.0837
  671MOL0     H90574   1.958   4.926   3.485  0.2703  1.2191  1.4139
  671MOL0     H90575   1.961   4.911   3.225 -0.8498  0.9630 -2.9335
  671MOL0     H90576   1.949   5.086   3.228 -0.7804 -2.2274 -3.4696
  671MOL0     H90577   1.728   5.065   3.340  0.9991  1.0188 -1.0099
  671MOL0     H90578   1.737   4.891   3.328  0.4999 -0.7952  1.1933
  671MOL0     H90579   1.712   5.111   3.117  0.3510  0.3285  0.2472
  671MOL0     H90580   1.783   4.956   3.065 -0.6583  3.6969 -2.4949
  671MOL0     H90581   1.380   4.839   3.098 -0.9590 -0.0425 -0.5870
  671MOL0     H90582   2.088   4.796   3.366  0.6036  0.0961 -0.0623
  671MOL0     H90583   2.286   4.577   3.204  1.1445 -1.5439  0.3887
  671MOL0     H90584   2.337   4.555   3.373  0.2032  1.2907 -0.5168
  671MOL0     H90585   2.174   4.571   3.342  0.8230  0.0722  1.8739
  672MOL0     O90586   7.840   6.043   8.073 -0.5304 -0.2519 -0.3712
  672MOL0     C90587   7.841   6.160   8.103 -0.3389  0.9968  0.0832
  672MOL0     O90588   7.937   6.225   8.184 -0.4275  0.3342 -0.0977
  672MOL0     C90589   8.033   6.147   8.242  0.2559 -0.5345  0.1161
  672MOL0     C90590   8.151   6.217   8.265 -0.3238 -0.0006  0.0403
  672MOL0     C90591   8.252   6.163   8.339 -0.1907  0.2304 -0.1168
  672MOL0     C90592   8.248   6.030   8.388 -0.1928  0.2715  0.2449
  672MOL0     O90593   8.337   5.980   8.481  0.2534  0.1325  0.6636
  672MOL0     C90594   8.356   6.062   8.599 -0.5516  0.3592 -0.3370
  672MOL0     C90595   8.320   5.999   8.729 -0.3737 -0.5311  0.5950
  672MOL0     C90596   8.426   5.920   8.796  0.6030 -0.0622  0.0619
  672MOL0     C90597   8.372   5.872   8.935 -0.3657 -0.0520  0.3409
  672MOL0     C90598   8.488   5.820   9.020 -0.3706 -0.0587 -0.2050
  672MOL0     C90599   8.566   5.934   9.090 -0.0052 -1.0949  0.3014
  672MOL0     C90600   8.688   5.884   9.173  0.1850  0.6765  0.6233
  672MOL0     C90601   8.795   5.805   9.099 -0.0564 -0.8244  0.4809
  672MOL0     N90602   8.926   5.805   9.168  0.1188  0.1056  0.0093
  672MOL0     C90603   9.009   5.697   9.159 -0.3943  1.1736  0.1598
  672MOL0     C90604   9.119   5.747   9.227 -0.2735  0.2442  0.6016
  672MOL0     C90605   9.251   5.673   9.233  0.5812 -0.1129  0.4804
  672MOL0     C90606   9.324   5.701   9.095  0.0519 -0.0966  1.1082
  672MOL0     C90607   9.397   5.845   9.070 -0.2915  1.0875 -0.2939
  672MOL0     C90608   9.483   5.892   9.187 -0.7990  0.5500  0.3692
  672MOL0     O90609   9.572   5.994   9.136  0.2037  0.6321  0.4588
  672MOL0     C90610   9.697   5.950   9.097 -0.5617  0.3562 -0.9132
  672MOL0     C90611   9.736   5.835   9.031 -0.1165  0.6518 -0.4657
  672MOL0     C90612   9.870   5.793   9.023  0.0825  0.1918  0.4394
  672MOL0     C90613   9.980   5.867   9.059  0.0836 -0.1364  0.5085
  672MOL0     C90614  10.112   5.809   9.058  0.3462  0.4392  0.0772
  672MOL0     O90615  10.134   5.694   8.991  0.9198 -0.2052  0.2929
  672MOL0     C90616  10.265   5.640   8.964  0.1124  0.0474 -0.1970
  672MOL0     C90617  10.345   5.594   9.065 -0.0297 -0.5626 -1.1208
  672MOL0     C90618  10.475   5.548   9.043  0.3574 -0.7164 -1.0438
  672MOL0     C90619  10.528   5.529   8.914 -0.1088  0.7449 -1.0140
  672MOL0     O90620  10.656   5.485   8.889  0.1123  0.7386  0.5009
  672MOL0     C90621  10.665   5.370   8.797  0.1518  0.2422 -0.1295
  672MOL0     C90622  10.795   5.294   8.822  0.4818 -0.3165  0.1796
  672MOL0     C90623  10.913   5.381   8.784 -0.7187 -0.5771  0.8654
  672MOL0     C90624  11.055   5.303   8.799  0.1350 -0.1662 -0.0847
  672MOL0     C90625  11.170   5.376   8.734  0.1499  0.5580  0.4901
  672MOL0     C90626  11.296   5.288   8.764 -0.1447 -0.0592  0.3079
  672MOL0     C90627  11.363   5.313   8.897  0.5937  1.2777  0.0762
  672MOL0     C90628  11.498   5.239   8.899 -0.5134 -0.6196 -0.1044
  672MOL0    Cl90629  11.458   5.066   8.926  0.4932 -0.0543  0.1956
  672MOL0     C90630  10.442   5.558   8.809 -0.3478 -0.4604 -0.1481
  672MOL0     C90631  10.323   5.629   8.835  0.2339  0.6434 -0.7270
  672MOL0     O90632  10.195   5.878   9.116 -0.2606 -0.5939 -0.5955
  672MOL0     C90633   9.944   5.995   9.109 -0.1930  0.4311 -0.3186
  672MOL0     C90634   9.806   6.032   9.135 -0.4523  0.2494 -0.0065
  672MOL0     N90635   9.103   5.879   9.255 -0.3168  0.0921 -0.0086
  672MOL0     N90636   8.980   5.916   9.226  0.2168  0.2211 -0.1185
  672MOL0     C90637   8.128   5.956   8.356 -0.6889  0.6116  0.2247
  672MOL0     C90638   8.022   6.019   8.279 -0.3329 -0.3658 -1.3122
  672MOL0     C90639   7.717   6.233   8.046  0.6830  0.3984 -0.2674
  672MOL0     C90640   7.728   6.370   8.029 -0.5554  0.4328 -0.4768
  672MOL0     C90641   7.627   6.446   7.969  0.5311 -0.5340 -0.2345
  672MOL0     C90642   7.499   6.383   7.939 -0.0043  0.5465  0.2667
  672MOL0     O90643   7.393   6.447   7.879  0.6860 -0.0555  0.2856
  672MOL0     C90644   7.300   6.489   7.972  0.1981  0.1029 -0.1338
  672MOL0     C90645   7.189   6.552   7.887 -0.6510  0.7997  0.3751
  672MOL0     C90646   7.109   6.430   7.822 -0.3692 -0.3785 -0.0432
  672MOL0     C90647   7.005   6.481   7.725 -0.4472  1.0874 -0.1646
  672MOL0     C90648   6.922   6.580   7.796  0.5045 -0.2534  0.0617
  672MOL0     C90649   6.852   6.654   7.857  0.2607  0.0220 -0.0349
  672MOL0     C90650   7.481   6.252   7.972 -0.1189  0.4064 -0.8819
  672MOL0     C90651   7.585   6.171   8.017  0.5297 -0.5429 -1.1956
  672MOL0     C90652   7.562   6.029   8.042 -0.3427  0.2675  1.1214
  672MOL0     H90653   8.154   6.318   8.225 -0.9652  0.3491  0.8461
  672MOL0     H90654   8.337   6.224   8.369 -0.1636  2.1047 -3.5018
  672MOL0     H90655   8.463   6.084   8.599 -0.2769 -0.7845  1.2953
  672MOL0     H90656   8.322   6.166   8.585  1.8083  1.1954 -0.2457
  672MOL0     H90657   8.239   5.929   8.707  0.5397 -1.2435 -0.5932
  672MOL0     H90658   8.282   6.072   8.801  1.1447  0.6168  0.2712
  672MOL0     H90659   8.521   5.968   8.820  1.8273 -1.7542 -1.1760
  672MOL0     H90660   8.453   5.841   8.726  2.5782  1.1015 -0.5616
  672MOL0     H90661   8.318   5.951   8.989  1.0611  1.8237 -0.8812
  672MOL0     H90662   8.298   5.793   8.918  1.2409 -2.0055  1.8213
  672MOL0     H90663   8.448   5.749   9.093  0.7004  1.8766  2.4271
  672MOL0     H90664   8.557   5.772   8.950  1.2531  2.2033 -0.2694
  672MOL0     H90665   8.593   6.024   9.034  5.7587 -2.4948  0.2578
  672MOL0     H90666   8.486   5.964   9.158 -0.8785 -1.4364 -0.5469
  672MOL0     H90667   8.651   5.827   9.259  2.8834 -0.7846  0.9042
  672MOL0     H90668   8.729   5.977   9.212 -1.0202  1.3851  0.2535
  672MOL0     H90669   8.772   5.699   9.087 -0.9168 -0.5751 -0.2006
  672MOL0     H90670   8.804   5.840   8.996 -1.2699 -0.9252  0.3201
  672MOL0     H90671   8.990   5.606   9.101  0.4710  0.2505  1.2799
  672MOL0     H90672   9.321   5.706   9.310  1.1008 -1.5344  0.6444
  672MOL0     H90673   9.232   5.567   9.249  0.9741  0.0774  2.4058
  672MOL0     H90674   9.399   5.625   9.074 -0.2763 -0.3578  0.8630
  672MOL0     H90675   9.263   5.695   9.004 -0.9278  2.3318  1.5066
  672MOL0     H90676   9.323   5.924   9.054  0.1837  1.1752 -2.2386
  672MOL0     H90677   9.460   5.833   8.982  0.5583 -1.1499  0.5685
  672MOL0     H90678   9.533   5.800   9.218 -0.0621 -0.2565 -2.8860
  672MOL0     H90679   9.429   5.939   9.270 -1.3638  1.2430 -0.3720
  672MOL0     H90680   9.670   5.762   8.985 -1.5201  2.2028 -1.0346
  672MOL0     H90681   9.881   5.689   8.994  0.3743 -0.5785  3.0524
  672MOL0     H90682  10.321   5.603   9.170  4.2147  0.8232 -0.0695
  672MOL0     H90683  10.539   5.516   9.125 -0.2812 -2.2451 -1.1029
  672MOL0     H90684  10.583   5.304   8.825  0.7160 -1.4673 -2.2667
  672MOL0     H90685  10.650   5.395   8.691  1.0185  0.5804 -0.1783
  672MOL0     H90686  10.806   5.271   8.929  0.5254  5.2888  1.7057
  672MOL0     H90687  10.786   5.208   8.755  0.4462  2.1569 -3.2171
  672MOL0     H90688  10.898   5.417   8.682  0.2139 -1.7369  0.2869
  672MOL0     H90689  10.914   5.472   8.844 -1.7077 -0.5527  0.8621
  672MOL0     H90690  11.051   5.201   8.760 -1.1136 -0.5373  0.9002
  672MOL0     H90691  11.074   5.283   8.905 -1.2113 -2.0641 -0.1487
  672MOL0     H90692  11.175   5.479   8.770 -0.6269 -0.3758  3.5510
  672MOL0     H90693  11.156   5.373   8.625  1.8328  2.0032  0.2057
  672MOL0     H90694  11.273   5.181   8.756 -0.4314  0.0918 -1.1377
  672MOL0     H90695  11.359   5.317   8.679  0.2850 -0.2061  0.5716
  672MOL0     H90696  11.302   5.271   8.978  0.6268 -3.5096 -2.0551
  672MOL0     H90697  11.382   5.420   8.907 -1.7957  1.8751 -1.0560
  672MOL0     H90698  11.556   5.245   8.807  1.6387  0.6222  1.2333
  672MOL0     H90699  11.563   5.265   8.983  0.5087 -0.3601 -0.9533
  672MOL0     H90700  10.476   5.552   8.706  0.5579  1.6609 -0.0150
  672MOL0     H90701  10.266   5.656   8.747  0.2991 -1.0190 -1.3266
  672MOL0     H90702  10.023   6.061   9.145 -0.4871 -0.5597  2.4144
  672MOL0     H90703   9.795   6.133   9.173  4.6837  1.3149 -0.5986
  672MOL0     H90704   8.116   5.852   8.383  0.5734 -0.0679 -1.6622
  672MOL0     H90705   7.936   5.952   8.271  1.0799 -2.0481 -4.3241
  672MOL0     H90706   7.821   6.422   8.048 -0.9633  0.8837  0.3474
  672MOL0     H90707   7.641   6.550   7.943  2.2606 -0.4471  0.9099
  672MOL0     H90708   7.339   6.562   8.044 -0.2638 -0.7755  1.0396
  672MOL0     H90709   7.265   6.400   8.025  4.3697 -1.4664  0.3938
  672MOL0     H90710   7.229   6.606   7.801 -0.2673 -2.0884 -1.3918
  672MOL0     H90711   7.124   6.610   7.954  0.0403  1.9256  0.1105
  672MOL0     H90712   7.065   6.362   7.896  0.6822  0.5941  1.5476
  672MOL0     H90713   7.190   6.371   7.778  1.6999  1.3866  1.2008
  672MOL0     H90714   7.046   6.520   7.631  0.0960 -0.2200 -0.4802
  672MOL0     H90715   6.943   6.397   7.692 -0.7604  1.0694  0.4508
  672MOL0     H90716   6.779   6.715   7.907  0.6564  0.7197 -0.3056
  672MOL0     H90717   7.383   6.211   7.946  0.5094 -2.0413  0.2938
  672MOL0     H90718   7.591   5.984   8.138 -0.9294 -0.6867  0.8658
  672MOL0     H90719   7.457   6.002   8.033  0.1034 -0.6744 -3.7777
  672MOL0     H90720   7.616   5.979   7.961  0.6431  1.8634  0.7526
  673MOL0     O90721   4.775   9.409   6.895  0.7718  0.4276  0.3807
  673MOL0     C90722   4.740   9.403   7.021  0.0075 -0.3272 -0.4295
  673MOL0     O90723   4.802   9.473   7.120  0.0389  0.4200 -0.2936
  673MOL0     C90724   4.914   9.546   7.089 -0.2077 -0.0920  0.7529
  673MOL0     C90725   4.903   9.667   7.024 -0.0204 -0.9877  0.4154
  673MOL0     C90726   5.021   9.751   7.000  0.2500 -0.5051 -0.1099
  673MOL0     C90727   5.141   9.713   7.053 -0.1511  0.1003  0.0602
  673MOL0     O90728   5.248   9.806   7.033 -0.3035  0.8659 -0.1936
  673MOL0     C90729   5.374   9.757   7.076 -0.1299 -0.3673 -0.3242
  673MOL0     C90730   5.465   9.866   7.006 -0.4473  0.4860 -0.9485
  673MOL0     C90731   5.610   9.853   7.055  0.5925 -0.8525  0.3944
  673MOL0     C90732   5.694   9.955   6.985  0.1545 -1.0157  0.2118
  673MOL0     C90733   5.845   9.903   7.003 -0.2746  0.0090 -0.1071
  673MOL0     C90734   5.889   9.897   7.148  0.1283  0.3616  0.2268
  673MOL0     C90735   5.855  10.028   7.228 -0.3003  0.3320 -0.8085
  673MOL0     C90736   5.963  10.055   7.345  0.5746  0.1899 -0.5728
  673MOL0     N90737   6.101  10.037   7.310 -0.4450  0.7867 -0.0467
  673MOL0     C90738   6.174  10.130   7.238  0.3143 -1.3409  0.6948
  673MOL0     C90739   6.296  10.087   7.248 -0.7756 -0.5400  0.0250
  673MOL0     C90740   6.419  10.161   7.204  0.2533  0.9909 -0.5345
  673MOL0     C90741   6.442  10.276   7.295  0.5848 -0.4033  0.0128
  673MOL0     C90742   6.570  10.352   7.259  0.1550 -0.3304 -0.6838
  673MOL0     C90743   6.577  10.483   7.336 -0.1960 -0.2319 -0.6765
  673MOL0     O90744   6.616  10.460   7.471  0.1077 -0.2006  0.1731
  673MOL0     C90745   6.627  10.569   7.557 -0.3344  0.6038  0.1308
  673MOL0     C90746   6.666  10.533   7.686  0.0886  0.0478 -0.6034
  673MOL0     C90747   6.678  10.633   7.785 -0.6350 -0.2290 -0.7773
  673MOL0     C90748   6.639  10.767   7.745 -0.0228 -0.3438 -0.6775
  673MOL0     C90749   6.672  10.874   7.836  0.1417  0.2927 -0.3828
  673MOL0     O90750   6.729  10.846   7.958  0.0783  0.0667  0.5869
  673MOL0     C90751   6.784  10.938   8.029  0.0789 -0.8271 -0.9429
  673MOL0     C90752   6.750  10.956   8.165 -0.1831 -0.6274 -0.3080
  673MOL0     C90753   6.801  11.058   8.247  0.0660 -0.1718 -1.1874
  673MOL0     C90754   6.913  11.127   8.195  0.6604  0.5490  0.2479
  673MOL0     O90755   6.967  11.223   8.276 -0.6441 -0.5777 -0.1346
  673MOL0     C90756   7.099  11.278   8.253  0.2850  0.3487  0.3140
  673MOL0     C90757   7.123  11.346   8.384 -0.2825  0.2277 -0.0521
  673MOL0     C90758   7.242  11.451   8.386  0.0874  0.0454  0.0721
  673MOL0     C90759   7.372  11.399   8.446 -0.3534 -0.2399 -0.1463
  673MOL0     C90760   7.484  11.500   8.418 -0.3905  1.0053  0.5454
  673MOL0     C90761   7.615  11.450   8.485  0.3133  0.1135 -0.2244
  673MOL0     C90762   7.678  11.330   8.412  0.2338 -0.0443 -1.3858
  673MOL0     C90763   7.795  11.280   8.492 -0.4138 -0.0182 -0.2971
  673MOL0    Cl90764   7.931  11.396   8.484 -0.2985  0.1927  0.0220
  673MOL0     C90765   6.955  11.101   8.065 -0.3003 -1.4655  0.9758
  673MOL0     C90766   6.892  11.013   7.983 -0.4943  0.6091 -0.1345
  673MOL0     O90767   6.658  10.987   7.795 -0.1429 -0.6375 -0.1963
  673MOL0     C90768   6.589  10.798   7.622  0.8013  0.1371  0.7724
  673MOL0     C90769   6.582  10.698   7.522  0.2059  0.1684  0.3219
  673MOL0     N90770   6.309   9.971   7.316  0.3164 -0.1748 -0.7093
  673MOL0     N90771   6.192   9.940   7.359 -0.1737 -0.1286  0.5999
  673MOL0     C90772   5.156   9.586   7.116  0.7909  0.0231 -0.0482
  673MOL0     C90773   5.045   9.498   7.124  0.5112 -0.5112 -0.2788
  673MOL0     C90774   4.655   9.281   7.070  0.2218  0.6457  1.1615
  673MOL0     C90775   4.685   9.232   7.197 -0.2009 -0.4989  0.1676
  673MOL0     C90776   4.622   9.113   7.239  0.3957  0.0713  0.2881
  673MOL0     C90777   4.531   9.043   7.155  0.4624 -0.1888  0.7647
  673MOL0     O90778   4.476   8.926   7.200  0.7033  0.2291 -0.7585
  673MOL0     C90779   4.355   8.867   7.146 -0.1657 -0.6165 -0.8227
  673MOL0     C90780   4.399   8.782   7.028  0.8771  0.2097 -0.3318
  673MOL0     C90781   4.280   8.729   6.951 -0.8763  0.1344 -0.3657
  673MOL0     C90782   4.187   8.639   7.047 -0.4511 -0.9161 -0.1116
  673MOL0     C90783   4.247   8.513   7.084 -0.9141  0.8524 -0.2599
  673MOL0     C90784   4.303   8.406   7.112  0.0973 -0.3157  0.1900
  673MOL0     C90785   4.483   9.106   7.032 -0.6644  0.0456  0.3328
  673MOL0     C90786   4.547   9.220   6.986  0.1171 -0.1865 -0.6386
  673MOL0     C90787   4.511   9.277   6.845  0.8122 -0.5151 -0.1457
  673MOL0     H90788   4.811   9.699   6.977  0.1543 -1.7527 -0.4729
  673MOL0     H90789   5.027   9.850   6.957 -1.1487 -0.4147 -0.1309
  673MOL0     H90790   5.378   9.752   7.185  2.7063 -0.8354 -0.3654
  673MOL0     H90791   5.383   9.656   7.035 -0.6383 -0.1229 -1.0830
  673MOL0     H90792   5.427   9.966   7.029  1.3560  0.7675  1.1596
  673MOL0     H90793   5.475   9.850   6.898  3.9692  0.0479 -0.6833
  673MOL0     H90794   5.643   9.751   7.036  0.2226 -0.6877 -1.3186
  673MOL0     H90795   5.610   9.857   7.164  1.3325  0.9266  0.3598
  673MOL0     H90796   5.673   9.965   6.878  1.3687  2.8128  0.2025
  673MOL0     H90797   5.664  10.051   7.029  0.9776  1.0003 -3.2690
  673MOL0     H90798   5.873   9.810   6.951  2.3685  1.2377 -1.0442
  673MOL0     H90799   5.910   9.973   6.951 -1.4878  0.7254 -0.7051
  673MOL0     H90800   5.850   9.806   7.195  2.4527 -1.6797 -1.5451
  673MOL0     H90801   5.998   9.891   7.154  0.1407  1.5785  2.5878
  673MOL0     H90802   5.753  10.019   7.266 -0.4318 -0.7824 -1.4040
  673MOL0     H90803   5.861  10.115   7.161  0.9962  0.3312 -0.7147
  673MOL0     H90804   5.946  10.158   7.377 -0.9033  0.6169 -2.5129
  673MOL0     H90805   5.930   9.990   7.427 -0.7753  0.6316 -0.7474
  673MOL0     H90806   6.129  10.209   7.180  1.0512  1.8078  4.0352
  673MOL0     H90807   6.507  10.096   7.203  0.4296  1.1488  1.2594
  673MOL0     H90808   6.405  10.191   7.100  0.6374  1.3618 -0.4828
  673MOL0     H90809   6.352  10.339   7.293  2.1559  1.9285 -0.8896
  673MOL0     H90810   6.447  10.231   7.395  2.1751 -3.1850 -1.2106
  673MOL0     H90811   6.589  10.373   7.154  2.1936 -0.2886 -0.3529
  673MOL0     H90812   6.658  10.293   7.286  0.6637 -0.0694 -1.7398
  673MOL0     H90813   6.483  10.537   7.321 -0.0306  0.3837  0.4273
  673MOL0     H90814   6.654  10.544   7.288 -0.7117 -0.0306 -1.2623
  673MOL0     H90815   6.690  10.428   7.697  0.9245  0.2637 -0.2934
  673MOL0     H90816   6.719  10.596   7.879 -0.7529  0.2475 -0.5356
  673MOL0     H90817   6.673  10.892   8.206  0.9250 -1.8101  0.0324
  673MOL0     H90818   6.771  11.076   8.350  0.3740 -2.2985 -0.6775
  673MOL0     H90819   7.177  11.203   8.234  0.1841  0.8650 -2.5226
  673MOL0     H90820   7.096  11.362   8.183  1.7938  2.6675  2.8289
  673MOL0     H90821   7.032  11.403   8.403  0.4651  1.7330 -0.8003
  673MOL0     H90822   7.134  11.279   8.470 -3.6247 -1.1713 -0.5807
  673MOL0     H90823   7.257  11.484   8.283 -1.6751  1.8291  0.3316
  673MOL0     H90824   7.217  11.536   8.450  0.0733  0.5977 -0.6577
  673MOL0     H90825   7.394  11.295   8.420 -1.6960 -0.7977  0.8186
  673MOL0     H90826   7.360  11.394   8.555 -0.9051  0.9800 -0.1381
  673MOL0     H90827   7.477  11.591   8.477 -2.1339 -0.7604  3.2913
  673MOL0     H90828   7.509  11.521   8.313 -1.3172  3.3441  0.7348
  673MOL0     H90829   7.685  11.533   8.497  2.7331 -2.0942  2.2064
  673MOL0     H90830   7.585  11.410   8.582 -2.6640 -0.0536 -1.1053
  673MOL0     H90831   7.707  11.357   8.311  2.9573 -0.8617 -0.8939
  673MOL0     H90832   7.605  11.248   8.415 -1.1016  1.0949 -1.7155
  673MOL0     H90833   7.772  11.270   8.599 -1.2087 -4.3578 -0.7073
  673MOL0     H90834   7.833  11.183   8.460  1.9980  0.1178  1.8178
  673MOL0     H90835   7.036  11.156   8.017 -2.2962  0.6634 -0.1923
  673MOL0     H90836   6.937  10.998   7.885  2.2322  2.4614  0.7116
  673MOL0     H90837   6.563  10.899   7.594  1.4345 -0.8141 -4.1723
  673MOL0     H90838   6.546  10.723   7.423  4.8015  0.7396 -1.4560
  673MOL0     H90839   5.249   9.561   7.167  0.0053  0.3306  1.6078
  673MOL0     H90840   5.059   9.396   7.159 -3.1989 -1.5255 -1.2410
  673MOL0     H90841   4.751   9.291   7.260  0.3321 -1.7492  0.8127
  673MOL0     H90842   4.661   9.075   7.333 -0.2103 -0.5629  0.2976
  673MOL0     H90843   4.274   8.938   7.126 -2.0428 -1.3748  3.1497
  673MOL0     H90844   4.310   8.795   7.216 -0.4700 -1.2623 -1.6511
  673MOL0     H90845   4.456   8.692   7.053  0.5091 -0.2077 -0.9596
  673MOL0     H90846   4.460   8.846   6.964  1.3545 -1.1167 -1.2467
  673MOL0     H90847   4.320   8.680   6.861 -0.7668  0.5422 -0.5399
  673MOL0     H90848   4.221   8.814   6.917  1.6820  1.6490 -1.2927
  673MOL0     H90849   4.157   8.694   7.137 -0.4451 -0.6370 -0.2778
  673MOL0     H90850   4.102   8.617   6.981 -1.5197  3.4982 -0.5168
  673MOL0     H90851   4.357   8.319   7.144 -0.6837 -0.3563  1.4537
  673MOL0     H90852   4.412   9.050   6.972  3.0904 -3.5044 -1.2878
  673MOL0     H90853   4.415   9.241   6.808 -0.6615  5.0543 -2.9666
  673MOL0     H90854   4.504   9.387   6.846 -1.1607 -0.5994  0.1429
  673MOL0     H90855   4.587   9.252   6.770  1.5790 -0.5565  0.6341
  674MOL0     O90856   0.814   9.762   8.206 -0.1857  0.3668  0.4739
  674MOL0     C90857   0.749   9.851   8.153  0.0208  0.5365  0.1948
  674MOL0     O90858   0.803   9.965   8.097  0.6961 -0.7465 -0.0010
  674MOL0     C90859   0.941   9.977   8.077  0.1748 -0.0727  0.0904
  674MOL0     C90860   0.984  10.014   7.947  0.8390  0.9511 -0.4440
  674MOL0     C90861   1.116  10.017   7.917 -0.2814  0.0852 -0.8041
  674MOL0     C90862   1.220   9.990   8.011 -0.5621 -0.0720 -0.2282
  674MOL0     O90863   1.354  10.003   7.972  0.8642  0.6656  0.2985
  674MOL0     C90864   1.427   9.883   8.013  0.3288  0.2205 -0.2196
  674MOL0     C90865   1.557   9.889   7.934 -0.3908  0.5201 -0.4533
  674MOL0     C90866   1.655   9.768   7.936 -0.4749 -0.0001  0.3569
  674MOL0     C90867   1.602   9.631   7.884 -0.4343 -1.4841  1.2280
  674MOL0     C90868   1.707   9.529   7.885 -0.1882 -0.2493 -0.3756
  674MOL0     C90869   1.627   9.399   7.871 -0.9044 -0.2966  0.0397
  674MOL0     C90870   1.715   9.277   7.862  0.1020 -0.8982 -0.0260
  674MOL0     C90871   1.755   9.229   7.998 -0.4130 -0.8190 -0.4309
  674MOL0     N90872   1.809   9.097   7.998 -0.3160 -0.0619 -0.8663
  674MOL0     C90873   1.936   9.067   7.972 -0.4904 -0.1442  0.0971
  674MOL0     C90874   1.935   8.936   7.962 -0.1238 -0.1475  0.2113
  674MOL0     C90875   2.049   8.847   7.932  0.1165  0.4257  0.6402
  674MOL0     C90876   2.133   8.805   8.055  0.0057  0.6648 -0.5837
  674MOL0     C90877   2.247   8.722   8.008  0.4971 -0.7091  0.0986
  674MOL0     C90878   2.366   8.737   8.098 -0.0786  0.9738  0.0335
  674MOL0     O90879   2.469   8.674   8.033 -0.6383 -0.0161  0.0023
  674MOL0     C90880   2.601   8.686   8.074 -0.8097  0.6700 -0.3330
  674MOL0     C90881   2.700   8.639   7.993 -1.0153 -0.0800 -0.0742
  674MOL0     C90882   2.834   8.656   8.036 -0.0664  0.6629 -0.3008
  674MOL0     C90883   2.862   8.691   8.164 -0.5040 -0.5287 -0.0062
  674MOL0     C90884   3.006   8.701   8.199 -0.0202 -0.2584 -0.4546
  674MOL0     O90885   3.103   8.724   8.102  0.0668  0.2903  0.4911
  674MOL0     C90886   3.239   8.746   8.136  0.4532  0.0102 -0.4643
  674MOL0     C90887   3.332   8.671   8.071  0.3941 -0.2785  0.9642
  674MOL0     C90888   3.469   8.683   8.101  0.0336 -0.7114 -0.3178
  674MOL0     C90889   3.512   8.778   8.193 -0.4731  0.5183  0.8393
  674MOL0     O90890   3.645   8.782   8.223 -0.3106 -0.5866  0.4520
  674MOL0     C90891   3.699   8.910   8.272 -1.1327 -1.1457 -0.3115
  674MOL0     C90892   3.851   8.897   8.292  0.3866 -0.1592  1.0447
  674MOL0     C90893   3.889   8.813   8.414  0.3880  0.1729  0.5055
  674MOL0     C90894   4.025   8.852   8.460  0.6549  0.6068  0.6495
  674MOL0     C90895   4.110   8.734   8.507  0.4014  1.1142  0.4631
  674MOL0     C90896   4.255   8.759   8.538 -0.6884 -0.6623  0.6914
  674MOL0     C90897   4.351   8.744   8.412  1.1171 -0.8202 -0.5333
  674MOL0     C90898   4.499   8.780   8.439  0.5218 -0.2209  0.1275
  674MOL0    Cl90899   4.515   8.944   8.512 -0.0608  0.1402  0.0294
  674MOL0     C90900   3.415   8.859   8.258 -0.0027 -0.3123  0.0556
  674MOL0     C90901   3.278   8.842   8.224  0.3972 -1.1762  0.6231
  674MOL0     O90902   3.040   8.703   8.324  0.6520  0.3526  0.1768
  674MOL0     C90903   2.763   8.739   8.255  0.5015  0.2268 -0.1833
  674MOL0     C90904   2.640   8.741   8.197  0.7297  0.7066  0.6033
  674MOL0     N90905   1.805   8.898   7.984 -0.0072  0.7746 -0.1421
  674MOL0     N90906   1.730   8.988   8.014  0.1391 -0.1972  0.5262
  674MOL0     C90907   1.180   9.968   8.141  0.5700  0.1879  0.4267
  674MOL0     C90908   1.044   9.944   8.170  1.1533  0.9300  0.8328
  674MOL0     C90909   0.601   9.834   8.178 -0.0221  0.1727  0.4249
  674MOL0     C90910   0.556   9.708   8.237 -0.1345 -0.1337  0.2160
  674MOL0     C90911   0.428   9.675   8.269 -0.4435  0.7455  0.1214
  674MOL0     C90912   0.338   9.770   8.236 -0.5005  0.1851 -0.0221
  674MOL0     O90913   0.202   9.744   8.240  0.8314 -0.2715  0.4512
  674MOL0     C90914   0.141   9.611   8.240  0.0872 -0.7178  0.5601
  674MOL0     C90915  -0.005   9.605   8.271 -0.0729 -0.2873 -0.0557
  674MOL0     C90916  -0.086   9.696   8.180 -0.3480 -0.1641  0.1912
  674MOL0     C90917  -0.221   9.637   8.137  0.3813  0.2723  0.0700
  674MOL0     C90918  -0.303   9.745   8.069  0.0210  0.2789  0.3092
  674MOL0     C90919  -0.378   9.825   8.016  0.3937  0.9069 -0.1578
  674MOL0     C90920   0.367   9.898   8.189  0.2673 -0.5101 -0.4182
  674MOL0     C90921   0.496   9.935   8.149  0.0965  0.2627  0.1144
  674MOL0     C90922   0.530  10.067   8.100  0.3161  0.5685 -0.0170
  674MOL0     H90923   0.904  10.021   7.875  0.7060  1.0268 -0.2907
  674MOL0     H90924   1.137  10.025   7.811 -0.3624 -1.1049 -0.9239
  674MOL0     H90925   1.454   9.873   8.119 -0.2463 -1.0643 -0.1788
  674MOL0     H90926   1.371   9.791   7.994 -0.1199  0.6289 -0.9254
  674MOL0     H90927   1.608   9.978   7.971 -1.0627  0.3827  0.8976
  674MOL0     H90928   1.535   9.907   7.829  1.4758  0.6183 -0.8571
  674MOL0     H90929   1.690   9.764   8.040 -0.4855  0.7953  0.4012
  674MOL0     H90930   1.747   9.797   7.884 -1.1851  0.8025 -0.5075
  674MOL0     H90931   1.522   9.593   7.948  0.1010 -2.1117  1.5364
  674MOL0     H90932   1.576   9.632   7.778  2.6895  1.9389  0.2708
  674MOL0     H90933   1.779   9.541   7.804  0.9831  0.3224  0.7164
  674MOL0     H90934   1.757   9.524   7.982  1.5602 -0.5667 -1.2614
  674MOL0     H90935   1.554   9.376   7.950 -0.9302  0.1158  0.1378
  674MOL0     H90936   1.560   9.391   7.785 -0.0830  1.6278 -0.8210
  674MOL0     H90937   1.807   9.292   7.805 -0.5331  1.3246 -0.5497
  674MOL0     H90938   1.657   9.196   7.817 -2.3156  0.4518  0.4730
  674MOL0     H90939   1.836   9.297   8.027 -0.5520 -0.6727 -0.3871
  674MOL0     H90940   1.676   9.237   8.072  1.7782  3.4297  1.8328
  674MOL0     H90941   2.024   9.131   7.970  0.4555 -1.4235 -1.4473
  674MOL0     H90942   2.014   8.753   7.889  0.6589  0.9607 -1.0710
  674MOL0     H90943   2.117   8.896   7.862  0.8502 -1.4070  0.0278
  674MOL0     H90944   2.170   8.900   8.095 -0.9666  0.4441  0.8921
  674MOL0     H90945   2.070   8.752   8.127 -0.7623 -0.3652 -1.9787
  674MOL0     H90946   2.277   8.736   7.904 -2.2582 -2.2970 -1.0341
  674MOL0     H90947   2.223   8.615   8.010 -1.0527 -0.4163  3.4587
  674MOL0     H90948   2.350   8.690   8.195  0.1341  1.1422  0.1488
  674MOL0     H90949   2.389   8.843   8.107 -0.5412  1.3415 -2.3687
  674MOL0     H90950   2.679   8.603   7.892 -0.3398  0.6920 -0.4985
  674MOL0     H90951   2.908   8.643   7.958 -0.3165 -0.7730 -0.3323
  674MOL0     H90952   3.306   8.593   7.999  0.8223 -0.1838  0.7071
  674MOL0     H90953   3.543   8.620   8.052  0.7207  2.2925 -3.5308
  674MOL0     H90954   3.678   8.987   8.197 -1.0789 -0.9144 -0.0909
  674MOL0     H90955   3.646   8.932   8.365 -1.8520 -1.0035 -0.7405
  674MOL0     H90956   3.887   8.846   8.202 -2.0666  0.6955 -0.5121
  674MOL0     H90957   3.891   8.999   8.296  1.1244  0.0590 -4.2846
  674MOL0     H90958   3.818   8.824   8.496  1.4038 -0.5999  1.5142
  674MOL0     H90959   3.872   8.707   8.394 -1.9421  0.4773  0.5955
  674MOL0     H90960   4.023   8.930   8.537  4.3280  2.6865 -1.0881
  674MOL0     H90961   4.078   8.894   8.373  0.8548  1.1933  1.0456
  674MOL0     H90962   4.105   8.660   8.427  0.1598  0.3010  1.2188
  674MOL0     H90963   4.060   8.690   8.594 -0.2490  2.8773  1.0359
  674MOL0     H90964   4.253   8.861   8.578  1.5114 -0.0187 -0.6740
  674MOL0     H90965   4.291   8.692   8.617  0.3237  1.7286  2.3735
  674MOL0     H90966   4.318   8.805   8.328 -0.3618 -0.1460  0.4904
  674MOL0     H90967   4.346   8.641   8.377 -1.6883 -0.9590  0.0217
  674MOL0     H90968   4.553   8.701   8.492 -2.9052 -1.1207  2.6299
  674MOL0     H90969   4.550   8.785   8.343  2.6912 -4.2205  0.8657
  674MOL0     H90970   3.441   8.938   8.327 -4.8441  3.7396 -2.1403
  674MOL0     H90971   3.212   8.904   8.284  1.0092  1.0611 -0.8663
  674MOL0     H90972   2.783   8.777   8.354 -2.1129  1.0039  0.1309
  674MOL0     H90973   2.565   8.788   8.260  1.2730 -0.3441  2.0853
  674MOL0     H90974   1.263   9.961   8.212 -1.9648  3.1629  4.1079
  674MOL0     H90975   1.014   9.904   8.266  2.8266 -2.6979  0.0090
  674MOL0     H90976   0.626   9.629   8.262 -0.9850 -0.9928 -0.0401
  674MOL0     H90977   0.393   9.581   8.309 -0.7355  0.4277 -0.8484
  674MOL0     H90978   0.189   9.552   8.318 -2.4281 -1.2455  1.8022
  674MOL0     H90979   0.158   9.564   8.143 -2.0977  1.1514 -0.8259
  674MOL0     H90980  -0.028   9.635   8.374 -1.8280 -0.7456 -0.2819
  674MOL0     H90981  -0.035   9.501   8.256 -0.4896 -0.0328 -1.0833
  674MOL0     H90982  -0.031   9.740   8.096 -3.0749  0.7518 -1.2143
  674MOL0     H90983  -0.115   9.781   8.243 -2.5370 -1.2545  0.7371
  674MOL0     H90984  -0.205   9.560   8.060  1.8021 -0.1805  0.7872
  674MOL0     H90985  -0.271   9.586   8.219  1.1990  0.9841  1.0323
  674MOL0     H90986  -0.441   9.899   7.971  0.5101  1.0659 -0.0587
  674MOL0     H90987   0.286   9.970   8.182  0.6261 -0.2661 -3.2022
  674MOL0     H90988   0.615  10.115   8.149  1.4579 -1.0307 -0.3728
  674MOL0     H90989   0.558  10.063   7.994  1.6602 -0.3320  0.3515
  674MOL0     H90990   0.440  10.129   8.109 -0.2283 -0.3830  1.2567
  675MOL0     O90991  11.019   7.629   6.655 -0.2663  0.1518  0.3315
  675MOL0     C90992  10.950   7.653   6.552 -0.1174 -0.9046 -0.7872
  675MOL0     O90993  10.940   7.773   6.491 -0.7601 -0.7368  0.2268
  675MOL0     C90994  11.049   7.852   6.482 -0.0150 -0.6196 -0.7072
  675MOL0     C90995  11.127   7.894   6.589 -0.0269 -0.9435  0.0621
  675MOL0     C90996  11.233   7.987   6.575  0.3799 -0.1708  0.0813
  675MOL0     C90997  11.267   8.035   6.448 -0.4082  0.0494 -0.1416
  675MOL0     O90998  11.373   8.108   6.426 -0.2765 -0.5617  0.3694
  675MOL0     C90999  11.353   8.246   6.381 -0.5383 -0.2016  0.0955
  675MOL0     C91000  11.478   8.343   6.390 -0.3159  0.4615  0.4401
  675MOL0     C91001  11.590   8.301   6.298  0.5929  0.8129  0.4859
  675MOL0     C91002  11.705   8.385   6.330 -0.6294  0.3552 -1.0073
  675MOL0     C91003  11.836   8.348   6.258 -0.3121  0.6783  0.3180
  675MOL0     C91004  11.943   8.436   6.318 -0.1679  0.3836 -0.2542
  675MOL0     C91005  12.068   8.410   6.236  1.1778 -0.8825  0.4806
  675MOL0     C91006  12.192   8.429   6.310 -0.3904 -0.2923  0.3302
  675MOL0     N91007  12.319   8.413   6.236 -0.5203 -0.6548 -0.2850
  675MOL0     C91008  12.359   8.488   6.130  0.5050 -0.7580  0.0353
  675MOL0     C91009  12.478   8.445   6.102 -0.4989 -0.1290  0.1340
  675MOL0     C91010  12.571   8.496   6.001  0.8214  0.2260  0.3671
  675MOL0     C91011  12.685   8.583   6.059  0.0494  0.5095 -0.6370
  675MOL0     C91012  12.633   8.710   6.125 -0.1772 -0.3854 -0.7899
  675MOL0     C91013  12.752   8.802   6.162 -0.0359  1.0613 -0.0687
  675MOL0     O91014  12.809   8.871   6.046 -0.6652  0.1354 -0.2436
  675MOL0     C91015  12.945   8.922   6.055  0.4188  0.2408 -0.4973
  675MOL0     C91016  13.045   8.883   5.963  1.1855 -0.2918 -0.6547
  675MOL0     C91017  13.174   8.931   5.972 -0.0272 -0.0626  0.8225
  675MOL0     C91018  13.209   9.016   6.069  1.0226 -0.2544 -0.4446
  675MOL0     C91019  13.340   9.077   6.077  0.3108 -0.7212 -0.6713
  675MOL0     O91020  13.365   9.164   6.181 -0.0520  0.5604  0.2003
  675MOL0     C91021  13.493   9.179   6.214  0.1693  0.3710 -0.2652
  675MOL0     C91022  13.549   9.106   6.316  0.0925 -0.2010 -0.2739
  675MOL0     C91023  13.689   9.124   6.352  0.7820  0.3104  0.1698
  675MOL0     C91024  13.764   9.216   6.287 -0.1122  0.7213  0.3702
  675MOL0     O91025  13.901   9.246   6.323  0.3388  0.2314 -0.1615
  675MOL0     C91026  13.944   9.383   6.303 -0.8539 -0.4388 -0.2109
  675MOL0     C91027  14.038   9.415   6.410 -1.2069 -0.1533 -1.3488
  675MOL0     C91028  14.182   9.362   6.373  0.6838 -0.0721 -0.6242
  675MOL0     C91029  14.280   9.355   6.483 -0.0554  1.6648  0.0632
  675MOL0     C91030  14.399   9.263   6.442  0.4411  0.2489  0.4783
  675MOL0     C91031  14.510   9.272   6.544 -0.1243  0.2414 -0.6922
  675MOL0     C91032  14.623   9.193   6.490  0.0085  0.3113  1.2784
  675MOL0     C91033  14.734   9.177   6.598  0.0130  0.0634  0.1338
  675MOL0    Cl91034  14.865   9.088   6.519  0.1788  0.1520  0.1813
  675MOL0     C91035  13.708   9.282   6.180  0.3328  0.2356  0.3738
  675MOL0     C91036  13.573   9.264   6.139 -0.6682 -0.2869 -0.2183
  675MOL0     O91037  13.420   9.041   5.997 -0.3494  0.5212  0.3076
  675MOL0     C91038  13.109   9.064   6.160 -0.1255  0.7804 -0.1916
  675MOL0     C91039  12.978   9.015   6.150  0.0419 -0.0950  1.2345
  675MOL0     N91040  12.511   8.336   6.179  0.3856  0.3631  0.5593
  675MOL0     N91041  12.412   8.314   6.256 -1.0032 -0.1322 -1.0359
  675MOL0     C91042  11.181   8.002   6.346  0.1634  0.7833  0.8841
  675MOL0     C91043  11.078   7.914   6.358 -0.0032 -0.2830  0.7017
  675MOL0     C91044  10.877   7.543   6.486  0.8352  0.0111 -0.4744
  675MOL0     C91045  10.798   7.575   6.375  0.9913  1.2688  0.3165
  675MOL0     C91046  10.744   7.481   6.286  0.2905 -0.7900  0.1286
  675MOL0     C91047  10.747   7.342   6.319  0.2088  0.0642 -0.1257
  675MOL0     O91048  10.673   7.241   6.270  0.2272  0.4302  0.3727
  675MOL0     C91049  10.638   7.260   6.132  0.0801  1.2147  0.8469
  675MOL0     C91050  10.618   7.130   6.050  0.0347  0.0363 -0.1213
  675MOL0     C91051  10.754   7.064   6.001  0.8915 -0.7293  0.4174
  675MOL0     C91052  10.813   7.114   5.867 -0.1618  0.7139 -0.6800
  675MOL0     C91053  10.958   7.077   5.865 -0.0399 -0.6968  0.1144
  675MOL0     C91054  11.079   7.043   5.876  0.2755  0.7009 -0.4801
  675MOL0     C91055  10.820   7.310   6.428 -0.0822  0.4820  0.5111
  675MOL0     C91056  10.890   7.407   6.510 -0.0370  0.9444 -0.0146
  675MOL0     C91057  10.958   7.358   6.636  0.5620  0.2015 -0.4353
  675MOL0     H91058  11.102   7.856   6.688  0.9201  1.9872  1.5781
  675MOL0     H91059  11.277   8.037   6.661 -1.9057  2.2548 -0.0097
  675MOL0     H91060  11.340   8.240   6.272 -0.7061  0.9679  0.0424
  675MOL0     H91061  11.259   8.282   6.423 -1.9445 -2.8674 -0.4986
  675MOL0     H91062  11.519   8.343   6.492  2.5983 -2.5435 -0.5318
  675MOL0     H91063  11.451   8.443   6.356  0.1478  0.2430 -0.5978
  675MOL0     H91064  11.566   8.307   6.191 -0.2774 -1.2332  0.5230
  675MOL0     H91065  11.615   8.196   6.315 -1.3410  0.0563 -0.9069
  675MOL0     H91066  11.687   8.491   6.308  0.1837  0.4246 -1.3806
  675MOL0     H91067  11.720   8.380   6.438 -0.6497  1.1592 -0.9606
  675MOL0     H91068  11.871   8.245   6.273  0.9386  0.8827 -0.9122
  675MOL0     H91069  11.831   8.364   6.150 -0.5086 -0.4913  0.1369
  675MOL0     H91070  11.922   8.544   6.316 -2.6829  0.0365  2.4188
  675MOL0     H91071  11.960   8.408   6.422 -1.8651 -2.3527 -0.6313
  675MOL0     H91072  12.066   8.468   6.143 -2.1114  1.5071  1.8309
  675MOL0     H91073  12.072   8.304   6.211  4.1859 -0.4647 -1.2217
  675MOL0     H91074  12.183   8.529   6.353 -0.3003 -0.8058  1.6155
  675MOL0     H91075  12.208   8.355   6.390  1.5207 -0.5201 -0.2332
  675MOL0     H91076  12.313   8.578   6.090  3.7172  1.4908  0.9531
  675MOL0     H91077  12.619   8.415   5.946 -2.6709 -1.1970 -0.9081
  675MOL0     H91078  12.513   8.562   5.936  3.9185  2.6744 -0.1319
  675MOL0     H91079  12.743   8.532   6.136  1.1079  1.2993 -0.8984
  675MOL0     H91080  12.755   8.608   5.980  0.4043  0.4124 -0.3562
  675MOL0     H91081  12.580   8.698   6.221  1.0815  1.9624  0.2895
  675MOL0     H91082  12.566   8.757   6.052  0.1100 -0.8486 -1.3576
  675MOL0     H91083  12.832   8.748   6.214 -0.7721 -0.6655 -0.6833
  675MOL0     H91084  12.717   8.881   6.229 -0.3615 -1.1657  2.5607
  675MOL0     H91085  13.007   8.824   5.881  0.1933 -2.1050  1.0367
  675MOL0     H91086  13.246   8.908   5.894  1.2450  1.6358  1.4255
  675MOL0     H91087  13.501   9.032   6.379  1.1132 -2.3793 -1.9153
  675MOL0     H91088  13.735   9.066   6.431  1.9943  0.5047 -0.3797
  675MOL0     H91089  14.008   9.402   6.216 -0.3303  1.4575  0.5449
  675MOL0     H91090  13.855   9.447   6.297  0.5326  1.5104 -1.0490
  675MOL0     H91091  14.044   9.524   6.421 -0.5688 -0.3212  0.1539
  675MOL0     H91092  14.000   9.368   6.501 -1.6567  0.8259 -1.0173
  675MOL0     H91093  14.169   9.260   6.336  0.4058 -1.9641  4.0110
  675MOL0     H91094  14.226   9.433   6.303  1.1225 -1.6361 -1.9929
  675MOL0     H91095  14.224   9.310   6.564 -2.5495  0.9915 -1.9112
  675MOL0     H91096  14.312   9.457   6.508  1.6354  0.7900  1.7075
  675MOL0     H91097  14.434   9.296   6.344 -2.8822 -2.8742 -1.9944
  675MOL0     H91098  14.359   9.162   6.436 -0.1524  0.5691 -1.9454
  675MOL0     H91099  14.539   9.377   6.550  0.6812  0.0525 -1.0690
  675MOL0     H91100  14.480   9.240   6.644 -0.0933 -1.5226 -1.2016
  675MOL0     H91101  14.670   9.224   6.397  1.5319 -3.5037  0.5872
  675MOL0     H91102  14.583   9.092   6.475 -1.2201  0.7599  1.4482
  675MOL0     H91103  14.780   9.265   6.644  2.7613 -0.2557 -1.7639
  675MOL0     H91104  14.691   9.114   6.677  0.6761 -1.5447 -0.7366
  675MOL0     H91105  13.762   9.363   6.132 -0.5902  0.2930 -0.5990
  675MOL0     H91106  13.534   9.324   6.057  1.8989  2.3760  0.3293
  675MOL0     H91107  13.136   9.143   6.229  4.4134 -0.9346  0.3991
  675MOL0     H91108  12.894   9.062   6.200 -0.4402 -0.2327  0.5577
  675MOL0     H91109  11.205   8.046   6.249 -0.1671 -0.8261  0.0439
  675MOL0     H91110  11.014   7.886   6.275 -1.3872 -0.1089  1.6590
  675MOL0     H91111  10.774   7.680   6.361  0.1146  0.8348 -1.7999
  675MOL0     H91112  10.682   7.517   6.204  0.0268 -2.8211 -0.6301
  675MOL0     H91113  10.715   7.316   6.076  0.1524  1.1160  0.8469
  675MOL0     H91114  10.547   7.320   6.125 -0.8557 -0.3000 -1.6436
  675MOL0     H91115  10.557   7.155   5.963 -1.8064  1.7848  1.5699
  675MOL0     H91116  10.564   7.053   6.105 -0.0079 -0.8130 -1.3018
  675MOL0     H91117  10.738   6.957   5.981 -0.1702 -0.8227  1.6659
  675MOL0     H91118  10.823   7.078   6.085 -0.9153 -2.0564  2.2096
  675MOL0     H91119  10.763   7.069   5.781  0.7027  0.2930 -0.9804
  675MOL0     H91120  10.808   7.223   5.864 -2.7512  0.9116  3.2451
  675MOL0     H91121  11.176   7.012   5.909 -0.3309  3.3493  5.0452
  675MOL0     H91122  10.818   7.205   6.453  0.5120  0.7846  1.8972
  675MOL0     H91123  10.942   7.252   6.661 -0.4090  1.0215  2.8854
  675MOL0     H91124  11.066   7.370   6.622  1.1300 -0.0555  2.8784
  675MOL0     H91125  10.914   7.410   6.721 -0.2383 -1.6090  0.3096
  676MOL0     O91126   4.465   5.819   4.687  0.6852 -0.3681  0.1759
  676MOL0     C91127   4.436   5.884   4.585 -0.5200 -0.2427 -0.1404
  676MOL0     O91128   4.510   5.891   4.473  0.1437  1.0545  0.2963
  676MOL0     C91129   4.630   5.819   4.474 -0.0005 -0.3527 -0.4326
  676MOL0     C91130   4.647   5.712   4.389  0.0622 -0.4961  0.5250
  676MOL0     C91131   4.761   5.631   4.399 -0.6595 -0.1871 -0.0216
  676MOL0     C91132   4.860   5.669   4.493 -0.3247  0.7558 -0.3104
  676MOL0     O91133   4.975   5.602   4.482 -0.5194  0.3286 -0.3218
  676MOL0     C91134   5.060   5.575   4.589 -0.2236 -0.1622 -0.1425
  676MOL0     C91135   5.186   5.662   4.594 -0.4900  0.6309  0.3696
  676MOL0     C91136   5.273   5.630   4.714  0.0999 -0.1674 -1.4052
  676MOL0     C91137   5.416   5.605   4.678 -0.6814 -0.8057  0.1499
  676MOL0     C91138   5.517   5.592   4.800 -0.2175  0.6020 -0.0255
  676MOL0     C91139   5.656   5.534   4.758 -0.0978 -0.1118  0.1635
  676MOL0     C91140   5.741   5.513   4.873 -0.0165 -0.4932 -0.5999
  676MOL0     C91141   5.827   5.632   4.902  0.5430  0.4537 -0.3589
  676MOL0     N91142   5.949   5.618   4.823 -0.7562 -0.2218  0.5787
  676MOL0     C91143   6.047   5.518   4.828  0.0877 -0.0925  0.8909
  676MOL0     C91144   6.149   5.550   4.744 -0.1977 -0.5807  0.1593
  676MOL0     C91145   6.270   5.455   4.718  0.3476  0.1647 -0.8324
  676MOL0     C91146   6.393   5.538   4.709  0.2122  0.4370 -0.1593
  676MOL0     C91147   6.509   5.448   4.701  0.4202  0.6957  0.3899
  676MOL0     C91148   6.649   5.516   4.680  0.7447 -0.7032 -0.7505
  676MOL0     O91149   6.732   5.450   4.771  0.1978  0.4109  0.4335
  676MOL0     C91150   6.864   5.467   4.751  0.1514  0.4522  0.8281
  676MOL0     C91151   6.926   5.547   4.657  0.2559 -0.6431  0.4433
  676MOL0     C91152   7.063   5.580   4.664  0.2643  0.1806  0.1155
  676MOL0     C91153   7.152   5.506   4.743 -0.0124 -0.2093 -0.7970
  676MOL0     C91154   7.295   5.525   4.727  0.8788 -0.2925 -0.6697
  676MOL0     O91155   7.371   5.459   4.820 -0.3820  0.3555 -0.0731
  676MOL0     C91156   7.509   5.473   4.820  0.6439 -0.6157 -0.4179
  676MOL0     C91157   7.583   5.587   4.786  0.1658 -0.5325 -0.7599
  676MOL0     C91158   7.720   5.600   4.823  0.4940  0.3490  0.9357
  676MOL0     C91159   7.786   5.502   4.894  0.0022 -0.8062  0.3865
  676MOL0     O91160   7.919   5.523   4.909 -0.4682 -0.0317 -0.3281
  676MOL0     C91161   8.004   5.417   4.949 -0.2394 -0.3504 -0.2548
  676MOL0     C91162   8.139   5.469   4.997  0.0324  0.7937 -0.4200
  676MOL0     C91163   8.133   5.535   5.140  0.3980 -0.1462 -0.1424
  676MOL0     C91164   8.275   5.599   5.160  0.1753 -0.2649  0.3834
  676MOL0     C91165   8.284   5.649   5.306  0.3598  0.8909 -0.4780
  676MOL0     C91166   8.425   5.690   5.342 -0.4527 -0.1653 -0.0593
  676MOL0     C91167   8.544   5.596   5.331  0.0509 -0.3362  0.8785
  676MOL0     C91168   8.676   5.641   5.390 -0.5266 -0.9396 -0.0549
  676MOL0    Cl91169   8.756   5.776   5.293 -0.2279 -0.0073  0.3025
  676MOL0     C91170   7.713   5.385   4.927  0.6789 -0.8575  0.4247
  676MOL0     C91171   7.582   5.373   4.880  0.3148  0.3607 -0.4663
  676MOL0     O91172   7.339   5.581   4.627  0.9577  0.0700 -0.7219
  676MOL0     C91173   7.092   5.427   4.840 -0.4139 -0.1906  0.4051
  676MOL0     C91174   6.953   5.409   4.847 -0.4918  0.3755  0.4331
  676MOL0     N91175   6.112   5.665   4.675 -0.2362 -0.6429  0.1804
  676MOL0     N91176   6.001   5.704   4.723  0.5794 -0.0326  0.6724
  676MOL0     C91177   4.847   5.779   4.577  0.2341  0.5401  0.8154
  676MOL0     C91178   4.731   5.845   4.562  0.1175 -0.4401 -0.4617
  676MOL0     C91179   4.323   5.980   4.597 -0.7128  0.4817  0.2407
  676MOL0     C91180   4.338   6.100   4.527  0.1277 -0.9490 -0.2890
  676MOL0     C91181   4.240   6.200   4.532  0.3067 -0.1220  0.0294
  676MOL0     C91182   4.129   6.188   4.614  1.0483  0.1052  0.1536
  676MOL0     O91183   4.041   6.290   4.599 -0.0590 -0.3418 -1.2104
  676MOL0     C91184   3.902   6.263   4.640 -0.7677 -0.2914  0.4138
  676MOL0     C91185   3.800   6.355   4.566 -1.0039  0.7905  0.0940
  676MOL0     C91186   3.797   6.326   4.410 -0.5564 -0.1966 -0.8472
  676MOL0     C91187   3.654   6.332   4.352  0.2828  0.3028  0.0235
  676MOL0     C91188   3.565   6.219   4.389 -0.1186 -0.0211 -0.8787
  676MOL0     C91189   3.493   6.123   4.408 -0.4449  0.0184  0.9305
  676MOL0     C91190   4.112   6.073   4.685 -0.3716 -0.5383  0.1184
  676MOL0     C91191   4.206   5.961   4.677 -0.1435  0.4334 -0.1212
  676MOL0     C91192   4.173   5.839   4.766 -0.1337 -0.3379  0.0219
  676MOL0     H91193   4.564   5.699   4.320  1.1126  1.4410 -1.2050
  676MOL0     H91194   4.771   5.542   4.338  1.5771  0.1830 -0.2915
  676MOL0     H91195   5.013   5.599   4.685  1.0289  0.7090  0.2852
  676MOL0     H91196   5.083   5.469   4.594  0.2396 -0.0077  2.1236
  676MOL0     H91197   5.164   5.769   4.597 -0.6495  0.5811  1.1253
  676MOL0     H91198   5.250   5.647   4.506 -0.1805 -0.4434  0.7588
  676MOL0     H91199   5.238   5.534   4.755  1.2676 -1.8445 -4.0471
  676MOL0     H91200   5.256   5.702   4.794 -2.0539 -1.0950 -0.9519
  676MOL0     H91201   5.423   5.510   4.624 -2.5388 -2.7105  2.9159
  676MOL0     H91202   5.452   5.689   4.619 -1.2264  1.8777  3.3450
  676MOL0     H91203   5.526   5.692   4.843 -3.1994  1.3474 -0.8970
  676MOL0     H91204   5.486   5.525   4.881  2.5460 -1.1883 -0.2947
  676MOL0     H91205   5.645   5.435   4.712  0.0836  0.5238 -1.2899
  676MOL0     H91206   5.697   5.603   4.684 -2.3217 -0.2630 -1.3150
  676MOL0     H91207   5.811   5.430   4.860  0.0369 -0.4678 -0.4806
  676MOL0     H91208   5.684   5.495   4.965  2.6931 -0.0557  1.3146
  676MOL0     H91209   5.778   5.729   4.889  1.1153  0.9451  1.0005
  676MOL0     H91210   5.863   5.625   5.005  0.3376  0.0845 -0.3097
  676MOL0     H91211   6.033   5.420   4.873  0.9245 -1.1406 -1.0032
  676MOL0     H91212   6.277   5.381   4.798 -0.5967  0.0804 -0.8161
  676MOL0     H91213   6.246   5.392   4.632  3.0028 -1.9070 -0.1970
  676MOL0     H91214   6.383   5.606   4.624  2.8039 -1.6238 -2.2591
  676MOL0     H91215   6.398   5.593   4.804  0.9439 -0.0585  0.1011
  676MOL0     H91216   6.503   5.384   4.613  2.3566  1.7456 -0.5686
  676MOL0     H91217   6.508   5.384   4.789  0.5593 -0.8376 -0.6884
  676MOL0     H91218   6.644   5.621   4.712 -0.9599 -0.3408 -2.0747
  676MOL0     H91219   6.679   5.508   4.575  2.6276  0.2829 -0.3376
  676MOL0     H91220   6.866   5.605   4.587 -0.1845 -2.3411 -0.6735
  676MOL0     H91221   7.111   5.646   4.593 -2.0834  0.2083 -1.5493
  676MOL0     H91222   7.543   5.679   4.747  2.5632  0.7362 -0.4400
  676MOL0     H91223   7.778   5.684   4.787 -3.7239  2.6120 -1.4344
  676MOL0     H91224   7.975   5.351   5.031  1.1705 -2.2690 -1.2292
  676MOL0     H91225   8.034   5.356   4.863 -2.6060  0.9673 -2.1328
  676MOL0     H91226   8.204   5.382   5.009 -0.6077 -0.2490 -3.4888
  676MOL0     H91227   8.178   5.538   4.921  2.3018  1.5762  1.3430
  676MOL0     H91228   8.056   5.613   5.143 -0.0481 -0.5785 -0.4234
  676MOL0     H91229   8.103   5.465   5.219 -3.0337  1.5292  0.2396
  676MOL0     H91230   8.290   5.674   5.081 -4.7294 -1.0998 -1.7227
  676MOL0     H91231   8.344   5.516   5.142 -1.9787 -1.6746 -2.2489
  676MOL0     H91232   8.249   5.578   5.381 -1.0725  0.5371 -1.4322
  676MOL0     H91233   8.213   5.732   5.308  3.3086  3.5746 -0.4541
  676MOL0     H91234   8.445   5.777   5.278 -0.7800 -0.8224 -1.0733
  676MOL0     H91235   8.417   5.727   5.445  1.0732 -1.2719  0.4990
  676MOL0     H91236   8.569   5.578   5.226  0.5268  0.0602  0.9216
  676MOL0     H91237   8.522   5.497   5.372  1.5384 -2.4094 -2.8001
  676MOL0     H91238   8.662   5.689   5.488  1.7859  1.2194 -0.6662
  676MOL0     H91239   8.743   5.556   5.409 -1.0291 -1.3841 -0.2791
  676MOL0     H91240   7.763   5.308   4.984  1.7357 -1.7791 -1.6420
  676MOL0     H91241   7.537   5.278   4.904  4.3034 -1.7063 -0.2642
  676MOL0     H91242   7.161   5.390   4.915  0.5620 -1.4386 -1.0269
  676MOL0     H91243   6.908   5.342   4.919 -1.9192  0.3523 -0.4380
  676MOL0     H91244   4.920   5.790   4.656  1.4921 -0.5584 -0.1630
  676MOL0     H91245   4.703   5.930   4.623  0.7522  0.1319 -0.9500
  676MOL0     H91246   4.432   6.126   4.480 -1.6650  3.0583 -2.1284
  676MOL0     H91247   4.244   6.296   4.482 -3.1279  1.2633  2.0609
  676MOL0     H91248   3.884   6.280   4.747 -0.6186  1.8766  0.1362
  676MOL0     H91249   3.883   6.158   4.617  1.3847 -0.6591  0.0605
  676MOL0     H91250   3.818   6.462   4.579  0.9467  0.2494  2.5325
  676MOL0     H91251   3.704   6.327   4.611  1.1130 -1.2345  3.8210
  676MOL0     H91252   3.841   6.229   4.385  1.8487  0.5119  0.3550
  676MOL0     H91253   3.859   6.404   4.366 -0.2141 -1.1382 -2.1007
  676MOL0     H91254   3.592   6.419   4.376 -1.7696 -1.4901  1.5591
  676MOL0     H91255   3.668   6.322   4.244  0.8806  1.7449 -0.0630
  676MOL0     H91256   3.440   6.033   4.431  1.7519 -1.5804  0.0599
  676MOL0     H91257   4.025   6.077   4.750 -1.9429 -0.7466 -1.8651
  676MOL0     H91258   4.147   5.746   4.715  2.2728 -1.5927  0.9336
  676MOL0     H91259   4.254   5.812   4.835 -1.4194 -1.9001  0.9818
  676MOL0     H91260   4.079   5.863   4.817 -1.2886 -1.9739 -1.2266
  677MOL0     O91261   9.417   2.851   5.329 -0.4401  0.7388 -0.3760
  677MOL0     C91262   9.439   2.734   5.375 -0.6390 -0.8061  0.0781
  677MOL0     O91263   9.356   2.653   5.436 -0.2755  0.1838 -0.3239
  677MOL0     C91264   9.231   2.689   5.470 -0.2362  0.4562  0.2245
  677MOL0     C91265   9.186   2.644   5.594 -0.2298 -0.9677 -0.1295
  677MOL0     C91266   9.056   2.677   5.637  0.1485 -0.6637 -0.1305
  677MOL0     C91267   8.976   2.748   5.553  0.0138  0.1208 -0.0572
  677MOL0     O91268   8.849   2.783   5.598  0.0101 -0.5771  0.0012
  677MOL0     C91269   8.748   2.837   5.521  0.6789  0.3140  0.6171
  677MOL0     C91270   8.683   2.716   5.453  0.1132 -0.7981 -0.0529
  677MOL0     C91271   8.552   2.752   5.381 -0.5118 -0.4073  0.1916
  677MOL0     C91272   8.432   2.777   5.483  0.3898 -0.1633 -0.3066
  677MOL0     C91273   8.311   2.812   5.399  0.7677 -0.9787 -0.7002
  677MOL0     C91274   8.181   2.797   5.489  0.3797  0.5175  0.1998
  677MOL0     C91275   8.163   2.911   5.593 -0.1021 -0.4386 -0.0431
  677MOL0     C91276   8.123   3.042   5.522  0.2185 -0.5058  0.6619
  677MOL0     N91277   8.004   3.027   5.439 -0.3355 -0.6132  0.7731
  677MOL0     C91278   7.877   3.001   5.486  0.6751  0.4515 -0.6766
  677MOL0     C91279   7.797   2.999   5.377  0.9199 -0.5800  0.0061
  677MOL0     C91280   7.656   2.979   5.404 -0.0691 -0.0987 -0.4588
  677MOL0     C91281   7.625   2.836   5.450 -0.2145  0.5136 -0.1657
  677MOL0     C91282   7.604   2.740   5.333 -0.7697 -0.4712  0.2864
  677MOL0     C91283   7.735   2.694   5.259  0.4747 -0.1114 -0.3291
  677MOL0     O91284   7.797   2.598   5.338 -0.9123  0.3704 -0.6956
  677MOL0     C91285   7.923   2.550   5.298 -0.4228 -0.1120  0.1576
  677MOL0     C91286   7.980   2.452   5.382  0.3828 -0.0923  0.9282
  677MOL0     C91287   8.108   2.399   5.347  0.2201 -0.3896 -0.0534
  677MOL0     C91288   8.183   2.448   5.242 -0.2107  0.8688  0.5259
  677MOL0     C91289   8.323   2.402   5.210 -0.0515 -0.4092 -0.3399
  677MOL0     O91290   8.379   2.476   5.118  0.1675 -0.0583 -0.6831
  677MOL0     C91291   8.495   2.433   5.055  0.1764  0.7797 -0.3659
  677MOL0     C91292   8.590   2.540   5.037 -0.9378 -0.0429 -0.8037
  677MOL0     C91293   8.714   2.518   4.960 -0.6802 -0.0559  0.1964
  677MOL0     C91294   8.736   2.392   4.906  0.1069 -0.5028  0.4924
  677MOL0     O91295   8.834   2.353   4.816 -0.8383  0.4802  0.3516
  677MOL0     C91296   8.886   2.455   4.725  0.1671  0.7029  0.1442
  677MOL0     C91297   8.973   2.402   4.616  0.0282  0.2558  0.2053
  677MOL0     C91298   9.087   2.324   4.680  0.2219 -0.2114 -0.5065
  677MOL0     C91299   9.154   2.234   4.580 -0.3602 -0.8235  0.4891
  677MOL0     C91300   9.285   2.180   4.640 -0.5277 -0.1000 -0.1223
  677MOL0     C91301   9.356   2.085   4.538 -0.1156  0.5918  0.0087
  677MOL0     C91302   9.507   2.061   4.567  0.8750  0.0051  0.9512
  677MOL0     C91303   9.588   2.013   4.446 -1.1450 -0.0205  0.0491
  677MOL0    Cl91304   9.600   2.103   4.295  0.4529 -0.5498  0.3710
  677MOL0     C91305   8.647   2.286   4.938  0.2268  0.1299 -0.9852
  677MOL0     C91306   8.523   2.303   5.008 -0.0881 -0.3801 -0.9335
  677MOL0     O91307   8.383   2.329   5.286  0.0825 -0.7790 -0.0104
  677MOL0     C91308   8.125   2.539   5.153 -0.5481  0.2721  0.4738
  677MOL0     C91309   7.995   2.587   5.184  0.3401 -0.2131  0.1556
  677MOL0     N91310   7.869   3.030   5.265 -0.5186 -0.5110 -0.1615
  677MOL0     N91311   7.996   3.035   5.304 -1.2116 -0.2981 -0.6626
  677MOL0     C91312   9.023   2.789   5.429  1.0555 -0.2518 -0.6887
  677MOL0     C91313   9.145   2.751   5.381 -0.0325 -0.4269 -0.1224
  677MOL0     C91314   9.574   2.687   5.352  0.0519 -0.3852  0.1466
  677MOL0     C91315   9.592   2.551   5.340  0.2025 -0.8063 -0.4029
  677MOL0     C91316   9.716   2.485   5.330 -0.5145 -1.2038  0.4721
  677MOL0     C91317   9.827   2.569   5.314 -0.4653 -0.2056  0.3020
  677MOL0     O91318   9.958   2.527   5.302  0.3476  0.0866  0.0519
  677MOL0     C91319   9.980   2.391   5.265  0.2983  0.2859 -0.2122
  677MOL0     C91320  10.117   2.380   5.209 -0.7080  0.0675 -0.9598
  677MOL0     C91321  10.120   2.438   5.070  0.0624  0.0752  0.1613
  677MOL0     C91322  10.262   2.417   5.007 -0.2167 -0.1459  0.9976
  677MOL0     C91323  10.351   2.528   5.049  0.6577  0.2933  0.7595
  677MOL0     C91324  10.411   2.629   5.079 -0.2857 -0.2885 -0.3137
  677MOL0     C91325   9.818   2.710   5.320 -0.2738 -0.2960 -1.2923
  677MOL0     C91326   9.692   2.768   5.343  0.3491  0.5848 -0.0449
  677MOL0     C91327   9.698   2.914   5.358  0.2346 -1.2253 -0.6453
  677MOL0     H91328   9.248   2.590   5.664 -0.5368  0.4794  1.3278
  677MOL0     H91329   9.015   2.643   5.732 -0.3635  0.0962 -0.0730
  677MOL0     H91330   8.674   2.891   5.582 -1.3320 -0.0071 -1.4318
  677MOL0     H91331   8.792   2.912   5.455 -0.8744  0.9696  0.2608
  677MOL0     H91332   8.657   2.634   5.522 -0.1635  1.6823  3.0082
  677MOL0     H91333   8.759   2.671   5.389  1.1765  0.9815 -0.0846
  677MOL0     H91334   8.537   2.668   5.313 -0.5461 -1.9286  1.9802
  677MOL0     H91335   8.561   2.841   5.318 -1.2674  0.5735  1.4010
  677MOL0     H91336   8.416   2.679   5.529  0.3787 -1.0061 -2.0470
  677MOL0     H91337   8.455   2.850   5.561  1.3315 -1.5689  0.7972
  677MOL0     H91338   8.319   2.919   5.378  0.0843 -0.3593  1.7866
  677MOL0     H91339   8.291   2.755   5.308 -0.6685 -3.0724  0.8433
  677MOL0     H91340   8.105   2.784   5.412  0.4713 -3.0245  0.5295
  677MOL0     H91341   8.190   2.702   5.542  0.6029  0.3690 -0.1028
  677MOL0     H91342   8.256   2.935   5.646 -1.2516  1.8279  1.1104
  677MOL0     H91343   8.098   2.891   5.678  0.1578 -2.4578 -0.2711
  677MOL0     H91344   8.111   3.126   5.591  3.3521  0.1276  0.5820
  677MOL0     H91345   8.206   3.074   5.459 -1.3897  0.9164 -0.8345
  677MOL0     H91346   7.850   2.976   5.589  2.2251  3.3042  0.5368
  677MOL0     H91347   7.626   3.056   5.476  2.1696  1.0872 -0.7190
  677MOL0     H91348   7.606   2.998   5.309  2.1249 -0.7328 -1.7898
  677MOL0     H91349   7.699   2.794   5.518  0.4639  3.1889  0.8952
  677MOL0     H91350   7.532   2.837   5.508  0.1085 -0.4471  0.3761
  677MOL0     H91351   7.533   2.781   5.260 -0.4989 -2.3891 -1.1480
  677MOL0     H91352   7.558   2.656   5.386 -2.9315 -0.4414 -1.3747
  677MOL0     H91353   7.797   2.784   5.254 -0.1516  0.4900  1.8446
  677MOL0     H91354   7.714   2.663   5.156 -1.1735 -0.2045  0.0045
  677MOL0     H91355   7.926   2.428   5.473  0.9434 -0.6834  1.1137
  677MOL0     H91356   8.161   2.334   5.416  0.5458  0.3431  0.4127
  677MOL0     H91357   8.574   2.639   5.078 -2.2042 -0.0816 -1.1639
  677MOL0     H91358   8.789   2.595   4.950 -1.5175  0.6528 -0.9156
  677MOL0     H91359   8.801   2.510   4.683 -1.9014 -2.1591  0.2927
  677MOL0     H91360   8.948   2.522   4.785  0.1621  0.6919  0.1608
  677MOL0     H91361   8.913   2.341   4.548  0.4902 -0.8055  0.7167
  677MOL0     H91362   9.019   2.486   4.563  0.3771  0.2891  0.5470
  677MOL0     H91363   9.161   2.390   4.728  1.7650 -0.0021 -3.0314
  677MOL0     H91364   9.062   2.257   4.763  2.1385 -0.7966 -0.3691
  677MOL0     H91365   9.182   2.288   4.489 -1.5696 -0.2736  0.4198
  677MOL0     H91366   9.100   2.142   4.555  0.4040 -0.9947 -0.6057
  677MOL0     H91367   9.280   2.131   4.738  0.4816 -1.9041 -0.9032
  677MOL0     H91368   9.347   2.270   4.648 -1.0218  0.2873 -0.6703
  677MOL0     H91369   9.321   1.982   4.541  3.3829 -0.8083 -1.1917
  677MOL0     H91370   9.356   2.125   4.436 -1.8553  2.0160  0.5210
  677MOL0     H91371   9.503   1.978   4.638 -3.9944  0.7159  1.8528
  677MOL0     H91372   9.553   2.153   4.605  0.5418  0.6942 -0.2526
  677MOL0     H91373   9.694   1.995   4.468 -0.9041 -0.9632 -1.7111
  677MOL0     H91374   9.539   1.923   4.409 -0.7017  0.5568 -2.0588
  677MOL0     H91375   8.667   2.189   4.893 -2.0754 -0.7518 -0.2756
  677MOL0     H91376   8.453   2.220   5.009 -0.6921  0.0803  1.5123
  677MOL0     H91377   8.180   2.594   5.077 -1.7860  0.3847 -0.3707
  677MOL0     H91378   7.953   2.661   5.117 -0.1983 -3.3632 -3.3008
  677MOL0     H91379   8.960   2.839   5.356  0.0474 -2.8613 -1.7175
  677MOL0     H91380   9.173   2.787   5.283 -1.1939  0.1030 -0.2811
  677MOL0     H91381   9.510   2.481   5.349  0.3856 -0.9317  0.4245
  677MOL0     H91382   9.715   2.376   5.329 -0.3231 -1.2045  0.0836
  677MOL0     H91383   9.904   2.352   5.197  1.2648  0.6111 -1.5302
  677MOL0     H91384   9.986   2.328   5.355 -0.6909  2.1269  1.2245
  677MOL0     H91385  10.156   2.278   5.208 -0.0959  0.2919 -1.5670
  677MOL0     H91386  10.194   2.429   5.270 -0.9326 -1.6912  0.8171
  677MOL0     H91387  10.096   2.545   5.066 -0.9524 -0.0878  1.4218
  677MOL0     H91388  10.042   2.387   5.013 -0.1625  0.0829  0.4611
  677MOL0     H91389  10.291   2.314   5.028  0.7211  0.2148  1.5215
  677MOL0     H91390  10.245   2.420   4.899 -0.1000 -2.3568  0.8835
  677MOL0     H91391  10.455   2.723   5.105  2.8323 -0.6879 -3.4229
  677MOL0     H91392   9.900   2.782   5.312 -3.6482  3.8947 -1.5827
  677MOL0     H91393   9.797   2.952   5.382 -1.0540  2.0019  0.0859
  677MOL0     H91394   9.666   2.955   5.262  0.2239 -0.2525 -0.2387
  677MOL0     H91395   9.625   2.943   5.435  1.1447 -3.4165  1.1752
  678MOL0     O91396   2.321   5.081   4.218 -0.0203  0.2424 -0.3235
  678MOL0     C91397   2.386   5.051   4.321  0.8381  0.7278 -0.2765
  678MOL0     O91398   2.370   5.126   4.431 -0.0563 -0.1162 -0.3769
  678MOL0     C91399   2.344   5.260   4.404 -0.2331 -0.1894  0.1614
  678MOL0     C91400   2.210   5.292   4.381 -0.3257 -0.4743 -1.8426
  678MOL0     C91401   2.174   5.421   4.343  0.2730  0.2177  0.0477
  678MOL0     C91402   2.278   5.513   4.298  0.5181 -0.1075  0.3942
  678MOL0     O91403   2.240   5.640   4.258 -0.3107  0.4400 -0.7638
  678MOL0     C91404   2.292   5.691   4.140  0.6289  0.7842  0.5171
  678MOL0     C91405   2.278   5.608   4.009  0.0092 -0.5218 -0.1412
  678MOL0     C91406   2.121   5.608   3.974 -0.1266  0.6205 -0.2685
  678MOL0     C91407   2.115   5.542   3.835  0.5049 -0.5069 -0.6424
  678MOL0     C91408   1.963   5.527   3.800  0.2015  0.1244 -0.1120
  678MOL0     C91409   1.900   5.665   3.770  0.2421  0.7069  0.5645
  678MOL0     C91410   1.930   5.711   3.634 -0.4220 -0.0793 -0.0289
  678MOL0     C91411   1.873   5.845   3.606 -0.2889  0.0195 -0.5098
  678MOL0     N91412   1.978   5.952   3.614 -0.0202 -0.0895  0.1961
  678MOL0     C91413   1.971   6.083   3.573  0.1063  0.0473  0.0607
  678MOL0     C91414   2.066   6.149   3.627  0.3445 -0.9477  0.9093
  678MOL0     C91415   2.102   6.287   3.598 -0.3704 -0.2131 -0.1088
  678MOL0     C91416   2.242   6.310   3.543 -1.3690 -0.0592 -0.2524
  678MOL0     C91417   2.356   6.320   3.649 -0.7860  0.1147 -0.3679
  678MOL0     C91418   2.488   6.317   3.573  0.0629  0.7752 -0.0773
  678MOL0     O91419   2.576   6.385   3.654 -0.0275  1.1849 -0.1552
  678MOL0     C91420   2.712   6.405   3.622  0.3990  0.3433  0.2592
  678MOL0     C91421   2.788   6.476   3.717  0.3786  0.2976 -0.4691
  678MOL0     C91422   2.921   6.499   3.697 -0.6322 -0.3456 -0.5028
  678MOL0     C91423   2.989   6.449   3.592  0.4106 -0.0510 -1.0120
  678MOL0     C91424   3.132   6.447   3.571 -0.1965  0.3516  0.0680
  678MOL0     O91425   3.193   6.386   3.455 -0.1569 -1.0066  0.2048
  678MOL0     C91426   3.328   6.381   3.451 -0.0091 -0.8484 -0.8110
  678MOL0     C91427   3.411   6.303   3.537  0.7753 -0.1346  1.0263
  678MOL0     C91428   3.552   6.306   3.520 -0.1024  0.5473  0.5303
  678MOL0     C91429   3.610   6.384   3.420  0.8192 -0.3835  0.1050
  678MOL0     O91430   3.742   6.381   3.383  0.0625  0.7651  0.1323
  678MOL0     C91431   3.837   6.340   3.489  0.6266  0.3417 -0.2493
  678MOL0     C91432   3.980   6.371   3.458  0.1245 -0.1188 -0.0274
  678MOL0     C91433   4.037   6.238   3.405 -0.4775  0.3186  0.9676
  678MOL0     C91434   3.964   6.169   3.285 -1.0637 -0.4472 -0.0702
  678MOL0     C91435   4.044   6.053   3.229 -0.2264  0.2852  0.1302
  678MOL0     C91436   3.968   5.982   3.109 -0.2039 -0.5800 -0.7545
  678MOL0     C91437   4.064   5.879   3.042 -0.7320  0.1769 -0.3852
  678MOL0     C91438   4.144   5.784   3.134 -0.4990 -0.0507  0.3400
  678MOL0    Cl91439   4.022   5.668   3.190  0.1986  0.1318 -0.7411
  678MOL0     C91440   3.524   6.465   3.339  0.1192 -0.0738 -0.2035
  678MOL0     C91441   3.381   6.461   3.352  1.2082 -0.0697  0.0294
  678MOL0     O91442   3.190   6.502   3.661 -0.0887  0.2862  0.1858
  678MOL0     C91443   2.920   6.367   3.494 -0.2194 -0.4225 -0.8824
  678MOL0     C91444   2.782   6.355   3.513 -0.3383  0.2785 -0.3456
  678MOL0     N91445   2.136   6.062   3.703 -0.2757 -0.1436  0.2286
  678MOL0     N91446   2.084   5.942   3.698 -0.5829 -0.6805  0.2784
  678MOL0     C91447   2.412   5.480   4.312  0.0129  0.7091  0.1892
  678MOL0     C91448   2.450   5.352   4.367  1.0379 -0.1489 -0.4186
  678MOL0     C91449   2.479   4.940   4.326  0.1695  0.0073 -0.1158
  678MOL0     C91450   2.547   4.914   4.442  0.1316 -0.6129 -0.5453
  678MOL0     C91451   2.627   4.801   4.460 -0.9046 -0.4487  0.4390
  678MOL0     C91452   2.641   4.706   4.358 -0.0463  0.5099  1.0351
  678MOL0     O91453   2.730   4.592   4.356  0.3244 -0.0073 -0.2673
  678MOL0     C91454   2.852   4.590   4.427  0.9471  0.3792  0.1064
  678MOL0     C91455   2.925   4.458   4.433 -0.7285  0.4880 -0.5918
  678MOL0     C91456   2.835   4.341   4.480 -0.1219 -0.1512 -0.0220
  678MOL0     C91457   2.899   4.197   4.486 -0.6073  0.5725 -0.1838
  678MOL0     C91458   2.986   4.186   4.601 -0.4765  1.1931  0.2866
  678MOL0     C91459   3.054   4.171   4.702  0.4313  0.3560 -0.5611
  678MOL0     C91460   2.569   4.734   4.235 -0.0749  0.4039 -0.4515
  678MOL0     C91461   2.493   4.846   4.222  0.3215 -0.8433 -0.9707
  678MOL0     C91462   2.427   4.869   4.086 -0.3669  0.1727 -0.5716
  678MOL0     H91463   2.132   5.218   4.398  1.5092 -1.9965  0.7649
  678MOL0     H91464   2.072   5.453   4.323  0.0891 -1.9529 -3.3879
  678MOL0     H91465   2.264   5.797   4.129 -0.5944  0.4211 -0.0045
  678MOL0     H91466   2.397   5.701   4.169  0.6936 -1.5044  1.2232
  678MOL0     H91467   2.321   5.509   4.030  1.1255 -0.2287 -0.9435
  678MOL0     H91468   2.340   5.650   3.930  0.2174 -0.4312  0.0711
  678MOL0     H91469   2.082   5.710   3.974  0.1421  0.7242 -0.4730
  678MOL0     H91470   2.073   5.550   4.052 -1.3043 -0.8429 -2.0021
  678MOL0     H91471   2.168   5.610   3.767  2.3458 -0.3242  0.8864
  678MOL0     H91472   2.179   5.453   3.837  2.5734  0.8745 -1.2532
  678MOL0     H91473   1.945   5.455   3.719  0.7937 -0.6097  0.3965
  678MOL0     H91474   1.922   5.481   3.890 -0.2656  1.4536  0.3766
  678MOL0     H91475   1.792   5.645   3.778  0.5702 -0.4379  4.8547
  678MOL0     H91476   1.924   5.737   3.849 -1.8808 -0.2603  2.2141
  678MOL0     H91477   1.884   5.642   3.563 -3.1851  1.5300  0.0663
  678MOL0     H91478   2.038   5.714   3.615 -0.0975 -3.1521  0.7446
  678MOL0     H91479   1.841   5.851   3.502 -1.8444  2.3632  0.0186
  678MOL0     H91480   1.789   5.868   3.672  0.9687  0.4794  0.9856
  678MOL0     H91481   1.892   6.117   3.507 -0.1423 -0.2621  0.2020
  678MOL0     H91482   2.030   6.325   3.524  1.5851 -0.5328 -2.2943
  678MOL0     H91483   2.100   6.346   3.690 -1.5834 -1.7063  0.8701
  678MOL0     H91484   2.271   6.225   3.480  1.5236  1.4101 -1.0562
  678MOL0     H91485   2.247   6.406   3.492 -1.5293  0.0280 -0.1037
  678MOL0     H91486   2.349   6.241   3.724  0.6674 -1.7837 -2.1511
  678MOL0     H91487   2.347   6.410   3.712  0.0504 -1.9424  2.9451
  678MOL0     H91488   2.469   6.377   3.483 -1.7970 -0.0461 -0.2887
  678MOL0     H91489   2.521   6.214   3.556 -1.3914  0.2627  0.0658
  678MOL0     H91490   2.740   6.514   3.807 -0.9179  1.0927 -1.4517
  678MOL0     H91491   2.976   6.544   3.780 -1.7053 -2.3170  1.3895
  678MOL0     H91492   3.360   6.245   3.613 -2.5110  1.4681  0.2145
  678MOL0     H91493   3.617   6.253   3.589  2.7864  0.3962 -2.0920
  678MOL0     H91494   3.813   6.401   3.576 -0.6643  0.4961 -0.6911
  678MOL0     H91495   3.814   6.234   3.508 -0.3605 -0.0097 -2.9300
  678MOL0     H91496   3.988   6.448   3.380  2.7672  1.4965  1.6786
  678MOL0     H91497   4.035   6.394   3.550 -1.7678  0.0624  1.0987
  678MOL0     H91498   4.142   6.260   3.385  0.4570 -1.5069  3.3012
  678MOL0     H91499   4.029   6.163   3.485  1.3122 -0.6620  0.2863
  678MOL0     H91500   3.940   6.240   3.205 -2.2989 -2.1641 -1.3164
  678MOL0     H91501   3.867   6.130   3.316 -0.5668 -1.4468  0.2917
  678MOL0     H91502   4.051   5.986   3.314 -1.5459  0.3884  0.3390
  678MOL0     H91503   4.145   6.087   3.203  0.1155 -2.7479 -3.3283
  678MOL0     H91504   3.893   5.919   3.158 -0.9357  0.2681 -0.7455
  678MOL0     H91505   3.923   6.043   3.031 -0.5311 -3.4373 -2.9580
  678MOL0     H91506   4.139   5.933   2.983  2.5337  0.5702  3.6878
  678MOL0     H91507   4.005   5.817   2.974 -2.1472 -1.5018  2.2387
  678MOL0     H91508   4.222   5.729   3.079 -0.4679 -0.3446  0.6753
  678MOL0     H91509   4.192   5.828   3.222 -0.9708 -1.3628  1.2877
  678MOL0     H91510   3.569   6.536   3.269 -0.3831  0.1398 -0.3149
  678MOL0     H91511   3.318   6.508   3.277 -1.7958 -1.6067  1.3848
  678MOL0     H91512   2.962   6.325   3.404 -1.6079  0.1599 -1.8344
  678MOL0     H91513   2.717   6.302   3.444 -0.2148  3.4934 -3.1929
  678MOL0     H91514   2.496   5.543   4.284 -0.8053  1.4807 -0.6060
  678MOL0     H91515   2.554   5.321   4.373  1.0090 -0.3669 -1.0200
  678MOL0     H91516   2.543   4.990   4.519 -1.5272  1.3290 -2.4091
  678MOL0     H91517   2.655   4.779   4.562  0.8149 -0.3004  0.0175
  678MOL0     H91518   2.834   4.609   4.533  1.1532  3.9955 -0.3879
  678MOL0     H91519   2.917   4.669   4.390 -0.5328  1.0255 -1.2325
  678MOL0     H91520   3.010   4.460   4.503 -0.6670 -2.2947 -0.4511
  678MOL0     H91521   2.962   4.428   4.335 -1.9830 -0.4988 -0.7919
  678MOL0     H91522   2.761   4.321   4.402 -0.8803 -0.4004  0.7316
  678MOL0     H91523   2.790   4.356   4.579  1.6871  0.5951  0.7115
  678MOL0     H91524   2.826   4.116   4.500  1.4565 -1.0858  1.6852
  678MOL0     H91525   2.954   4.173   4.395  2.2263  1.7781  1.1055
  678MOL0     H91526   3.125   4.161   4.782 -1.3647 -0.9202  0.9952
  678MOL0     H91527   2.583   4.676   4.145 -5.2297  0.4626 -1.6310
  678MOL0     H91528   2.456   4.958   4.030 -0.0104 -2.4867 -5.1223
  678MOL0     H91529   2.454   4.792   4.014 -0.0591  0.7824 -1.1174
  678MOL0     H91530   2.322   4.844   4.106  0.1599 -1.3765  0.4759
  679MOL0     O91531   8.097   6.376   8.670 -0.2997 -0.0186  0.2154
  679MOL0     C91532   8.088   6.405   8.550 -0.4497 -0.2503  0.7167
  679MOL0     O91533   8.187   6.473   8.476 -0.3457 -0.3063 -0.0852
  679MOL0     C91534   8.319   6.485   8.525  0.8192 -0.1427  0.2107
  679MOL0     C91535   8.350   6.518   8.662  0.1341 -0.5404  0.1886
  679MOL0     C91536   8.473   6.566   8.693 -1.0429  0.1758  0.2368
  679MOL0     C91537   8.579   6.554   8.605 -0.4350  0.0840 -0.7672
  679MOL0     O91538   8.705   6.602   8.643 -0.2485 -0.4500 -0.3794
  679MOL0     C91539   8.825   6.536   8.592 -0.4500 -0.2266  0.4100
  679MOL0     C91540   8.932   6.556   8.699  0.7239  0.5630 -1.3075
  679MOL0     C91541   9.065   6.502   8.674  0.3718 -0.1114 -0.0681
  679MOL0     C91542   9.142   6.565   8.550 -0.2406  0.8226 -0.1696
  679MOL0     C91543   9.301   6.527   8.541 -0.3463  0.9734  0.2332
  679MOL0     C91544   9.374   6.624   8.438  0.2501  0.0509 -0.6177
  679MOL0     C91545   9.508   6.579   8.377  0.1199  0.3059 -0.5896
  679MOL0     C91546   9.475   6.454   8.291 -0.6617  0.4422 -0.3007
  679MOL0     N91547   9.605   6.385   8.269  0.4417  0.0599  0.8616
  679MOL0     C91548   9.678   6.329   8.369  0.5620  0.4354  0.3116
  679MOL0     C91549   9.809   6.331   8.326  0.2038 -0.4770 -0.3546
  679MOL0     C91550   9.922   6.290   8.410  0.5167 -0.2733  0.7762
  679MOL0     C91551   9.987   6.413   8.481  0.3332  1.2482  0.1033
  679MOL0     C91552  10.094   6.367   8.586  0.5283  0.3953 -0.8720
  679MOL0     C91553  10.204   6.291   8.517  0.0149  0.0110  0.6710
  679MOL0     O91554  10.279   6.368   8.420 -0.1461 -0.1015  0.2261
  679MOL0     C91555  10.408   6.319   8.393  0.6118 -0.3417  0.2630
  679MOL0     C91556  10.437   6.191   8.356 -0.7147  0.3182  0.1814
  679MOL0     C91557  10.577   6.155   8.351  0.1847 -0.8934  0.7594
  679MOL0     C91558  10.675   6.254   8.368  0.6626 -0.3060  0.0291
  679MOL0     C91559  10.813   6.214   8.345 -1.4251 -0.8556 -0.3700
  679MOL0     O91560  10.922   6.314   8.372  0.6367 -0.5483 -0.3521
  679MOL0     C91561  11.051   6.280   8.388  0.6680  0.7006  0.0246
  679MOL0     C91562  11.096   6.163   8.455 -0.0006 -0.4157  0.4438
  679MOL0     C91563  11.231   6.151   8.471  0.5144  0.0367  0.2187
  679MOL0     C91564  11.326   6.228   8.403  0.1813 -0.7015  0.3482
  679MOL0     O91565  11.464   6.194   8.416 -0.4378 -0.3220 -0.1016
  679MOL0     C91566  11.563   6.300   8.412  0.3301  0.8737 -0.4756
  679MOL0     C91567  11.716   6.259   8.419  0.7081 -0.1201 -0.0790
  679MOL0     C91568  11.753   6.151   8.519 -0.1381 -0.1326  0.0767
  679MOL0     C91569  11.744   6.008   8.471 -0.2275 -0.2546 -0.6778
  679MOL0     C91570  11.768   5.916   8.590  0.5843  0.3282 -0.6239
  679MOL0     C91571  11.789   5.768   8.545  0.5073 -0.6702 -0.7402
  679MOL0     C91572  11.923   5.732   8.482  0.6638 -0.2974 -0.6310
  679MOL0     C91573  11.921   5.582   8.450  0.4253 -0.7734 -0.3407
  679MOL0    Cl91574  12.082   5.540   8.388  0.2245  0.1733 -0.1388
  679MOL0     C91575  11.275   6.332   8.334  0.5323  0.5256 -0.0052
  679MOL0     C91576  11.140   6.364   8.329 -0.9176 -0.0963  0.0261
  679MOL0     O91577  10.832   6.104   8.299  0.0531  0.5042  0.1809
  679MOL0     C91578  10.643   6.380   8.399  0.3043  0.2560  0.2044
  679MOL0     C91579  10.509   6.411   8.427  0.8265  0.4243  0.1977
  679MOL0     N91580   9.804   6.369   8.188 -0.2805 -0.4288 -0.0128
  679MOL0     N91581   9.685   6.397   8.160  0.1352  0.2635  0.3747
  679MOL0     C91582   8.558   6.493   8.475  0.6187 -0.7075 -0.0966
  679MOL0     C91583   8.425   6.470   8.439  0.7378  0.8626  0.9661
  679MOL0     C91584   7.951   6.400   8.486 -0.0833  0.0408  0.7473
  679MOL0     C91585   7.914   6.500   8.396  0.1917 -0.2781 -0.2955
  679MOL0     C91586   7.788   6.517   8.353  0.7373  0.0006  0.1807
  679MOL0     C91587   7.689   6.415   8.374 -0.6389  0.1834 -0.4449
  679MOL0     O91588   7.555   6.415   8.335  0.1909  0.0537 -0.3048
  679MOL0     C91589   7.489   6.545   8.345 -0.2210 -0.8264  0.0343
  679MOL0     C91590   7.343   6.526   8.365  0.5574 -0.0711 -0.0453
  679MOL0     C91591   7.281   6.639   8.451  0.6942 -1.1189  0.2224
  679MOL0     C91592   7.133   6.630   8.466  0.5406  0.1949 -0.1689
  679MOL0     C91593   7.055   6.661   8.337  0.1668  0.7424 -0.7686
  679MOL0     C91594   6.987   6.678   8.239  0.3661  0.0104  0.2086
  679MOL0     C91595   7.738   6.305   8.448  0.7527  0.4354 -0.4436
  679MOL0     C91596   7.855   6.296   8.516 -1.3913 -0.3078 -0.1092
  679MOL0     C91597   7.896   6.167   8.581 -0.3427  0.0295  0.1447
  679MOL0     H91598   8.275   6.526   8.740  0.0246 -2.8872  0.4036
  679MOL0     H91599   8.488   6.590   8.797  1.2072 -0.2806  0.0631
  679MOL0     H91600   8.812   6.429   8.576  0.2173 -0.1059 -1.1945
  679MOL0     H91601   8.851   6.578   8.494 -0.5669 -1.5319 -0.1898
  679MOL0     H91602   8.893   6.516   8.793  1.1213 -0.3199 -1.5027
  679MOL0     H91603   8.938   6.665   8.702 -2.7068  0.8447 -1.2349
  679MOL0     H91604   9.055   6.394   8.658 -2.9013 -0.1843  1.6982
  679MOL0     H91605   9.131   6.525   8.758  0.3406  2.7792 -0.7342
  679MOL0     H91606   9.095   6.527   8.459 -0.8468 -0.5415  0.6936
  679MOL0     H91607   9.122   6.673   8.549  0.0657  0.9842  2.9017
  679MOL0     H91608   9.348   6.535   8.640  2.3273 -3.6343 -0.4033
  679MOL0     H91609   9.310   6.422   8.514 -2.3521  0.9050 -0.3163
  679MOL0     H91610   9.307   6.657   8.359 -0.7343 -2.1939 -0.7822
  679MOL0     H91611   9.407   6.710   8.496  0.8252 -0.1725 -0.6016
  679MOL0     H91612   9.565   6.557   8.467  0.8148  1.6890 -0.6667
  679MOL0     H91613   9.563   6.648   8.312  0.3222 -0.4525 -1.2413
  679MOL0     H91614   9.414   6.379   8.343  3.3451 -0.8043  3.1400
  679MOL0     H91615   9.418   6.481   8.201 -1.0845  3.5258  0.7547
  679MOL0     H91616   9.642   6.303   8.468  0.4260  0.9046  0.3894
  679MOL0     H91617   9.892   6.210   8.478  0.0032  0.6961  1.7118
  679MOL0     H91618   9.993   6.260   8.332 -2.8253 -1.8986 -1.8852
  679MOL0     H91619  10.039   6.478   8.410  0.5704 -0.6979 -1.6250
  679MOL0     H91620   9.909   6.479   8.519 -0.7174  0.4933 -0.7100
  679MOL0     H91621  10.042   6.301   8.656 -0.6528  2.4116  0.2760
  679MOL0     H91622  10.134   6.455   8.638  0.9765 -1.0523  1.3699
  679MOL0     H91623  10.174   6.190   8.486  1.4486 -0.7717  1.7143
  679MOL0     H91624  10.283   6.261   8.586 -0.1172 -1.4603  0.2232
  679MOL0     H91625  10.373   6.110   8.322  2.5970 -3.0513  1.2348
  679MOL0     H91626  10.600   6.052   8.323 -1.3611 -0.7938 -1.0714
  679MOL0     H91627  11.025   6.094   8.501  0.3866 -0.9831  0.2057
  679MOL0     H91628  11.280   6.078   8.535  1.4497  1.1286  0.7816
  679MOL0     H91629  11.553   6.357   8.320 -0.9973  0.1612 -0.7946
  679MOL0     H91630  11.537   6.363   8.498  3.5550  1.5796  0.0888
  679MOL0     H91631  11.739   6.234   8.315  0.9209  2.1642 -0.6378
  679MOL0     H91632  11.778   6.349   8.433  2.5637 -1.1410 -1.2905
  679MOL0     H91633  11.860   6.169   8.533  0.4249 -1.3658 -2.0447
  679MOL0     H91634  11.697   6.156   8.613 -2.9548 -0.1862 -1.4932
  679MOL0     H91635  11.820   5.998   8.393  1.2385 -0.9187  0.7750
  679MOL0     H91636  11.649   5.975   8.428 -1.2643  1.6891  0.0012
  679MOL0     H91637  11.692   5.918   8.669 -0.4361  1.5148 -1.5961
  679MOL0     H91638  11.864   5.941   8.636  0.6579 -0.4848 -0.3262
  679MOL0     H91639  11.763   5.712   8.635 -1.9120  1.4467  0.0246
  679MOL0     H91640  11.709   5.752   8.472 -1.8552  1.8907  1.0395
  679MOL0     H91641  12.006   5.751   8.551  1.0443 -0.0970 -1.1338
  679MOL0     H91642  11.942   5.786   8.389  0.3537  0.4129 -0.2899
  679MOL0     H91643  11.903   5.531   8.545  0.1299  0.5911  0.3673
  679MOL0     H91644  11.845   5.564   8.372  0.8422 -2.0217 -0.4777
  679MOL0     H91645  11.347   6.402   8.292 -0.1519  0.0949 -1.9631
  679MOL0     H91646  11.106   6.455   8.280  0.6219  1.1009  1.0481
  679MOL0     H91647  10.716   6.457   8.420 -0.2081  1.3328 -1.7211
  679MOL0     H91648  10.471   6.509   8.455  2.4616  1.7474 -1.8867
  679MOL0     H91649   8.638   6.477   8.403 -0.0988 -0.6503 -0.9222
  679MOL0     H91650   8.405   6.426   8.342 -1.3631  1.4056  1.1082
  679MOL0     H91651   7.981   6.584   8.384 -0.9233  0.6672 -0.1616
  679MOL0     H91652   7.751   6.609   8.308  0.3159 -1.2824 -2.2922
  679MOL0     H91653   7.512   6.605   8.256 -0.1140  1.2226  1.3685
  679MOL0     H91654   7.521   6.602   8.433 -0.1224 -0.5714 -0.1650
  679MOL0     H91655   7.320   6.431   8.412  2.0100  0.2412  1.4032
  679MOL0     H91656   7.297   6.524   8.266 -1.6531 -0.2931  0.9389
  679MOL0     H91657   7.303   6.739   8.413 -0.0155 -1.5497 -1.4136
  679MOL0     H91658   7.324   6.623   8.550  1.3229 -2.1561 -0.1909
  679MOL0     H91659   7.096   6.534   8.505 -1.5209  0.4564 -1.3492
  679MOL0     H91660   7.093   6.698   8.542  0.7195  1.0056 -0.7932
  679MOL0     H91661   6.929   6.688   8.150  4.0408  1.5743 -2.2220
  679MOL0     H91662   7.657   6.235   8.463  3.1051 -2.6781 -1.1957
  679MOL0     H91663   7.811   6.100   8.568  0.0762 -0.4883  0.0080
  679MOL0     H91664   7.992   6.136   8.538 -0.3032 -0.6227  0.6734
  679MOL0     H91665   7.914   6.166   8.689 -2.4405 -0.7205  0.5415
  680MOL0     O91666   9.907   2.771   7.953 -0.2847  0.0937 -0.5418
  680MOL0     C91667   9.860   2.702   7.864  0.2498 -0.1741  0.3703
  680MOL0     O91668   9.928   2.649   7.754  0.2229  0.0892  0.8365
  680MOL0     C91669  10.063   2.657   7.732  0.0447 -0.4740  0.4299
  680MOL0     C91670  10.100   2.626   7.603 -0.2736  0.0059 -0.3316
  680MOL0     C91671  10.238   2.594   7.570  1.0755 -0.0056  0.1045
  680MOL0     C91672  10.335   2.598   7.672  0.5417 -0.4778  0.1730
  680MOL0     O91673  10.469   2.575   7.645  0.0757  0.1592 -0.2682
  680MOL0     C91674  10.519   2.494   7.532  0.8280  0.2455 -0.6143
  680MOL0     C91675  10.651   2.430   7.564  0.6627 -0.0629  0.1406
  680MOL0     C91676  10.723   2.379   7.441 -0.6408  0.3993 -0.3760
  680MOL0     C91677  10.859   2.320   7.470 -0.0502 -1.0586 -0.7257
  680MOL0     C91678  10.929   2.262   7.356  0.0281 -0.1123 -0.8958
  680MOL0     C91679  11.028   2.164   7.399 -0.3300 -0.7128 -0.3524
  680MOL0     C91680  11.090   2.101   7.274  0.1969 -0.0630  0.2862
  680MOL0     C91681  11.173   1.975   7.302  0.5933  1.1956 -0.2400
  680MOL0     N91682  11.294   2.001   7.375  0.8358  0.0406  0.1508
  680MOL0     C91683  11.417   2.030   7.319  0.2764  0.6155  0.3049
  680MOL0     C91684  11.505   2.047   7.423 -0.4329  0.0944 -0.0193
  680MOL0     C91685  11.653   2.078   7.414 -0.3454 -0.0287 -0.3800
  680MOL0     C91686  11.723   1.946   7.424 -0.0158 -0.1164  0.3930
  680MOL0     C91687  11.871   1.968   7.465  0.8208  0.9714  0.7832
  680MOL0     C91688  11.968   2.024   7.368 -0.3061 -0.1744 -0.4323
  680MOL0     O91689  12.098   2.055   7.433 -0.3906 -0.2761  0.1317
  680MOL0     C91690  12.197   1.960   7.445 -0.5466  0.2983  0.1132
  680MOL0     C91691  12.180   1.822   7.412 -0.6007  1.0562  0.3989
  680MOL0     C91692  12.287   1.740   7.414 -0.3328 -0.3707  0.3336
  680MOL0     C91693  12.418   1.776   7.456  0.1246  0.3943 -0.6261
  680MOL0     C91694  12.527   1.680   7.458 -0.3937  0.0306  0.0724
  680MOL0     O91695  12.642   1.731   7.513 -0.5026  0.0923  0.6780
  680MOL0     C91696  12.758   1.665   7.542 -0.2341  0.5521  0.0587
  680MOL0     C91697  12.828   1.706   7.653  0.7604 -0.9684 -0.0294
  680MOL0     C91698  12.952   1.664   7.677 -0.2860 -0.9334 -0.0392
  680MOL0     C91699  13.008   1.564   7.597 -0.3975 -0.3865 -1.2820
  680MOL0     O91700  13.137   1.518   7.623 -0.5101 -0.4401 -0.0799
  680MOL0     C91701  13.211   1.428   7.538 -0.4497 -0.3023  1.5576
  680MOL0     C91702  13.359   1.480   7.508 -0.2232 -0.8029  0.5418
  680MOL0     C91703  13.454   1.456   7.634 -0.1632  0.1112  1.4540
  680MOL0     C91704  13.602   1.460   7.593  0.0200 -0.6106  0.3615
  680MOL0     C91705  13.683   1.474   7.721 -0.8277 -0.1314  0.3739
  680MOL0     C91706  13.830   1.446   7.693  0.2350  0.2911  0.1391
  680MOL0     C91707  13.913   1.433   7.827 -0.5923  0.4230  1.0084
  680MOL0     C91708  13.916   1.566   7.902  0.4381 -0.3269 -0.2284
  680MOL0    Cl91709  14.038   1.553   8.032 -0.0239 -0.1304  0.4063
  680MOL0     C91710  12.938   1.521   7.486 -0.7613 -1.0438  0.5243
  680MOL0     C91711  12.810   1.567   7.463  0.2278 -0.6733 -0.0176
  680MOL0     O91712  12.506   1.557   7.432  0.2464 -0.2510  0.3747
  680MOL0     C91713  12.427   1.915   7.492  0.3636 -0.3047  0.4043
  680MOL0     C91714  12.324   2.003   7.479 -0.4183 -0.4775 -0.5205
  680MOL0     N91715  11.433   2.027   7.545  0.6251  0.0017  0.2685
  680MOL0     N91716  11.308   2.000   7.511  0.5162  0.4236 -0.1612
  680MOL0     C91717  10.305   2.625   7.806 -0.0559  0.5260 -0.0597
  680MOL0     C91718  10.168   2.658   7.834 -0.3597 -0.8754 -0.2568
  680MOL0     C91719   9.713   2.692   7.846  0.4946 -0.7145  0.2488
  680MOL0     C91720   9.655   2.715   7.719 -0.2972 -0.5577 -0.0417
  680MOL0     C91721   9.517   2.716   7.699  0.5844 -0.4015  0.5607
  680MOL0     C91722   9.434   2.693   7.806  0.0473 -0.5149  0.8194
  680MOL0     O91723   9.297   2.703   7.781 -0.7716  0.1133 -0.5849
  680MOL0     C91724   9.199   2.695   7.883  0.0941  1.5315 -0.5283
  680MOL0     C91725   9.180   2.550   7.946  0.6730 -0.6034  0.4542
  680MOL0     C91726   9.117   2.561   8.086  0.3641 -1.0493 -0.1902
  680MOL0     C91727   9.088   2.431   8.125 -0.2831  0.5528 -0.1249
  680MOL0     C91728   9.062   2.410   8.269 -0.3869  0.2950 -0.1830
  680MOL0     C91729   9.045   2.381   8.389  0.4679 -0.3724  0.1102
  680MOL0     C91730   9.483   2.680   7.934 -0.0846  0.3219 -0.2058
  680MOL0     C91731   9.626   2.678   7.952  0.0971  0.2826 -0.1141
  680MOL0     C91732   9.670   2.662   8.090 -0.3177  0.3349  0.0816
  680MOL0     H91733  10.023   2.610   7.528  0.1127 -1.9639 -0.3638
  680MOL0     H91734  10.251   2.566   7.465 -0.7763  1.1444 -0.4645
  680MOL0     H91735  10.457   2.407   7.513  0.5909  0.0720  0.8422
  680MOL0     H91736  10.529   2.557   7.442  2.0554  1.8060  0.5545
  680MOL0     H91737  10.647   2.353   7.642 -1.5553 -1.8335 -1.5897
  680MOL0     H91738  10.703   2.510   7.619 -2.9890  1.7376  1.2852
  680MOL0     H91739  10.732   2.464   7.373  1.5654 -0.3191 -1.0469
  680MOL0     H91740  10.664   2.295   7.403  2.0075 -3.9430  3.9447
  680MOL0     H91741  10.934   2.380   7.522  1.7963 -4.0719  0.3587
  680MOL0     H91742  10.826   2.233   7.528 -0.9937 -0.9380 -1.0672
  680MOL0     H91743  10.858   2.193   7.309  1.2344 -2.5085  0.6692
  680MOL0     H91744  10.953   2.347   7.291 -1.8874  2.0638  1.0245
  680MOL0     H91745  11.114   2.211   7.448 -2.2199  0.6018  1.8661
  680MOL0     H91746  11.007   2.087   7.473 -0.5421 -0.8377 -0.5423
  680MOL0     H91747  11.150   2.176   7.223 -0.0951  0.6414  0.9485
  680MOL0     H91748  11.011   2.068   7.206  1.9580 -0.4425 -1.6751
  680MOL0     H91749  11.105   1.915   7.362  0.0220  2.0786 -0.0012
  680MOL0     H91750  11.194   1.928   7.205 -3.3338  1.0310 -1.1641
  680MOL0     H91751  11.441   2.016   7.214  0.7772  0.4222  0.4406
  680MOL0     H91752  11.676   2.138   7.325 -1.2530 -0.0107 -0.6105
  680MOL0     H91753  11.672   2.138   7.504 -0.9461 -1.1512  0.5194
  680MOL0     H91754  11.675   1.887   7.503 -0.6188  0.4686  0.4701
  680MOL0     H91755  11.722   1.885   7.333  0.7098  1.8547 -1.0039
  680MOL0     H91756  11.900   1.866   7.490 -0.0715  1.1715  2.8016
  680MOL0     H91757  11.875   2.026   7.557 -0.2606  1.8319  0.3136
  680MOL0     H91758  11.926   2.122   7.344 -1.0124 -0.2682  0.3705
  680MOL0     H91759  11.983   1.963   7.278  4.2598 -1.8568  1.1657
  680MOL0     H91760  12.086   1.778   7.380 -0.9775  1.1529  1.3269
  680MOL0     H91761  12.279   1.634   7.390  4.3906 -0.6215 -1.0972
  680MOL0     H91762  12.781   1.767   7.730  2.5254 -1.6380  1.6590
  680MOL0     H91763  13.002   1.703   7.765 -1.2036 -0.2061  0.1831
  680MOL0     H91764  13.215   1.329   7.585  0.5702 -1.2206 -0.3299
  680MOL0     H91765  13.176   1.421   7.434  0.4533  2.8242  0.9297
  680MOL0     H91766  13.404   1.445   7.415  0.5719  0.3571  0.4680
  680MOL0     H91767  13.353   1.589   7.501  0.8690 -0.8431 -2.1158
  680MOL0     H91768  13.426   1.530   7.710  0.4920  2.0522 -0.1074
  680MOL0     H91769  13.450   1.357   7.681  0.7604  0.8154  3.0795
  680MOL0     H91770  13.611   1.548   7.529  0.4405  0.9726  2.4792
  680MOL0     H91771  13.627   1.371   7.535  0.3757 -0.6463  0.5601
  680MOL0     H91772  13.656   1.411   7.806  0.1964  1.2569  1.8123
  680MOL0     H91773  13.667   1.576   7.759 -1.6987  0.1599 -0.7247
  680MOL0     H91774  13.839   1.353   7.635  2.5122 -0.3277  1.3605
  680MOL0     H91775  13.883   1.527   7.641 -0.3733  2.5289  2.7960
  680MOL0     H91776  14.017   1.412   7.799 -0.9293 -0.6152  0.4644
  680MOL0     H91777  13.877   1.349   7.888 -0.5411  1.4709  2.5177
  680MOL0     H91778  13.923   1.652   7.834 -1.0999  0.8449  1.0321
  680MOL0     H91779  13.822   1.595   7.950  1.2887 -2.3984  2.9899
  680MOL0     H91780  12.972   1.453   7.408  3.5700 -0.2052  1.4259
  680MOL0     H91781  12.753   1.525   7.381 -1.3426 -1.7293  1.5537
  680MOL0     H91782  12.526   1.949   7.518  1.7049 -1.5960 -2.5532
  680MOL0     H91783  12.321   2.110   7.498 -4.4790 -0.4942 -0.0526
  680MOL0     H91784  10.386   2.621   7.878  2.0054 -0.8397 -2.3037
  680MOL0     H91785  10.146   2.673   7.939  3.8806 -2.0796  1.0402
  680MOL0     H91786   9.732   2.718   7.642  0.6366 -0.7495  0.8515
  680MOL0     H91787   9.465   2.726   7.604 -2.6869  1.8179  2.3974
  680MOL0     H91788   9.099   2.724   7.849  0.4711  1.2376 -1.9410
  680MOL0     H91789   9.225   2.765   7.964 -1.5531  3.3901 -1.5141
  680MOL0     H91790   9.284   2.516   7.946  1.0795  0.4853 -1.1855
  680MOL0     H91791   9.123   2.493   7.873  2.3464  0.8664 -2.1686
  680MOL0     H91792   9.019   2.608   8.079 -0.5137 -2.7521  0.1664
  680MOL0     H91793   9.190   2.609   8.152  2.3040 -2.0178 -1.5232
  680MOL0     H91794   9.007   2.385   8.068 -0.5045 -0.8227  1.2216
  680MOL0     H91795   9.183   2.378   8.110  0.7620  2.0110  1.0356
  680MOL0     H91796   9.055   2.364   8.494  1.8682 -0.2435  0.0230
  680MOL0     H91797   9.422   2.661   8.021 -1.0054 -0.2532 -0.9625
  680MOL0     H91798   9.733   2.745   8.122 -1.1496  1.0873 -0.1620
  680MOL0     H91799   9.589   2.649   8.163 -0.3820  3.2352  0.6430
  680MOL0     H91800   9.738   2.577   8.089 -0.6848 -0.0002  1.3668
  681MOL0     O91801   6.203   7.939   5.821  0.0905 -0.5953  0.0755
  681MOL0     C91802   6.203   7.996   5.929 -0.7130 -0.2664 -0.7750
  681MOL0     O91803   6.308   8.067   5.981  0.0137  0.3757  0.0233
  681MOL0     C91804   6.435   8.020   5.950  0.2258 -0.1534  0.5810
  681MOL0     C91805   6.529   8.110   5.913  0.3664  0.0818  0.5045
  681MOL0     C91806   6.657   8.073   5.879  0.5404  0.8523  1.4600
  681MOL0     C91807   6.704   7.942   5.902  0.7101  0.7316  0.1346
  681MOL0     O91808   6.836   7.926   5.877 -0.3315 -0.1701  0.6220
  681MOL0     C91809   6.913   7.820   5.934  1.0311  0.5267  0.7868
  681MOL0     C91810   6.959   7.721   5.829 -0.7032 -0.1123  0.1395
  681MOL0     C91811   7.035   7.804   5.730 -0.7478 -0.0868 -0.3880
  681MOL0     C91812   7.092   7.696   5.625 -0.1335 -0.1180 -0.7610
  681MOL0     C91813   7.199   7.737   5.531 -0.4156  0.8335 -0.6352
  681MOL0     C91814   7.334   7.781   5.596  0.0906  0.4195 -0.4319
  681MOL0     C91815   7.446   7.787   5.496 -0.9972 -0.5269  0.0853
  681MOL0     C91816   7.565   7.865   5.563  0.7711  0.0956 -0.0541
  681MOL0     N91817   7.679   7.876   5.479 -0.4116  0.6623  0.0845
  681MOL0     C91818   7.760   7.773   5.423  0.0175  0.2620 -1.1571
  681MOL0     C91819   7.844   7.834   5.346 -0.7996  0.1509 -0.2509
  681MOL0     C91820   7.957   7.777   5.263 -0.2333 -1.1554  0.0700
  681MOL0     C91821   8.000   7.642   5.323 -0.5482 -0.0203 -0.4301
  681MOL0     C91822   8.134   7.581   5.269  0.1190  0.2472 -0.8661
  681MOL0     C91823   8.255   7.635   5.344 -0.2277 -1.5076  0.7937
  681MOL0     O91824   8.352   7.532   5.343  0.1745  0.3553 -0.1919
  681MOL0     C91825   8.477   7.549   5.396 -0.1118  0.0400  1.0623
  681MOL0     C91826   8.520   7.658   5.457  0.5548  0.3032  0.6449
  681MOL0     C91827   8.645   7.660   5.518  0.2038 -0.1173  0.5607
  681MOL0     C91828   8.737   7.560   5.501 -0.3170 -0.2165  0.3188
  681MOL0     C91829   8.873   7.560   5.559 -0.7470 -0.3771 -0.7466
  681MOL0     O91830   8.907   7.671   5.634 -0.0227 -0.8622  0.0511
  681MOL0     C91831   9.027   7.679   5.695 -0.2046 -0.9528 -0.4854
  681MOL0     C91832   9.032   7.765   5.803  0.0915 -0.0862  0.2529
  681MOL0     C91833   9.151   7.801   5.864 -0.6818 -0.5146 -0.5415
  681MOL0     C91834   9.270   7.737   5.827  0.6271  0.2746 -0.1679
  681MOL0     O91835   9.379   7.770   5.898 -0.1720 -0.1281  0.4135
  681MOL0     C91836   9.486   7.677   5.937  1.3108  0.5491  0.8435
  681MOL0     C91837   9.563   7.736   6.051 -0.4236  0.2743 -0.6654
  681MOL0     C91838   9.641   7.858   6.009  0.3030  0.9158 -0.4369
  681MOL0     C91839   9.757   7.828   5.920 -0.3300 -0.4485  0.4863
  681MOL0     C91840   9.864   7.933   5.916 -1.5084 -0.4611 -0.0604
  681MOL0     C91841   9.969   7.893   5.812 -0.0687  0.1415  0.5063
  681MOL0     C91842  10.106   7.967   5.818 -0.1380  0.3609  0.7555
  681MOL0     C91843  10.207   7.905   5.727 -0.3118  0.4289  0.1626
  681MOL0    Cl91844  10.128   7.856   5.570 -0.3047 -0.0034  0.0002
  681MOL0     C91845   9.264   7.640   5.727 -0.5913  0.5042 -0.0800
  681MOL0     C91846   9.151   7.616   5.658 -0.4292 -0.2353  0.0258
  681MOL0     O91847   8.945   7.463   5.543 -0.7607  1.1226  0.6069
  681MOL0     C91848   8.690   7.446   5.434 -0.1824  0.5634 -0.5860
  681MOL0     C91849   8.564   7.439   5.376 -0.3158 -0.0126 -0.5318
  681MOL0     N91850   7.821   7.971   5.357 -0.7565 -0.0662 -0.6377
  681MOL0     N91851   7.719   7.997   5.431  0.3502  0.2865 -0.0889
  681MOL0     C91852   6.608   7.850   5.944 -0.2486 -0.2811  0.0281
  681MOL0     C91853   6.476   7.887   5.969 -0.6087  0.4789  0.1992
  681MOL0     C91854   6.075   8.005   6.010  0.4922 -1.1786 -0.2753
  681MOL0     C91855   6.052   8.125   6.079 -0.5635  0.0524  0.7089
  681MOL0     C91856   5.929   8.152   6.143  0.5660 -0.0690 -0.0295
  681MOL0     C91857   5.824   8.053   6.146 -0.1009 -0.1568  0.6866
  681MOL0     O91858   5.717   8.044   6.233  0.3661 -1.2493 -0.5002
  681MOL0     C91859   5.689   8.157   6.316 -0.0151 -0.0726 -1.1484
  681MOL0     C91860   5.542   8.137   6.373 -0.7330  0.4307  0.2192
  681MOL0     C91861   5.528   8.023   6.471  0.9321  0.7727 -0.0790
  681MOL0     C91862   5.389   8.013   6.528 -0.7393  0.5203 -0.3781
  681MOL0     C91863   5.276   7.998   6.438 -0.1481  0.8064  0.7101
  681MOL0     C91864   5.173   8.003   6.383  0.8402  0.0521  0.4996
  681MOL0     C91865   5.860   7.937   6.068  0.6246 -1.7523  0.0274
  681MOL0     C91866   5.967   7.910   5.998 -0.9638 -0.2885 -0.1996
  681MOL0     C91867   5.970   7.792   5.911  0.2480 -0.0214 -0.2883
  681MOL0     H91868   6.494   8.212   5.899  0.9100  0.2277  0.1518
  681MOL0     H91869   6.728   8.155   5.875 -0.6461  1.9525  2.0353
  681MOL0     H91870   7.005   7.848   5.986  2.4806 -0.6952 -0.9987
  681MOL0     H91871   6.849   7.767   6.005  1.9366 -3.4817 -1.0444
  681MOL0     H91872   6.867   7.676   5.789 -0.4919 -2.4192  2.0148
  681MOL0     H91873   7.023   7.640   5.864  2.5680  2.1894 -0.1073
  681MOL0     H91874   7.121   7.848   5.781 -0.1751  0.8888 -2.1434
  681MOL0     H91875   6.972   7.880   5.684 -3.1432 -0.0599  2.6048
  681MOL0     H91876   7.127   7.608   5.679  1.7760  0.3536 -1.1717
  681MOL0     H91877   7.002   7.667   5.570 -1.1706  1.8794 -0.2419
  681MOL0     H91878   7.225   7.649   5.471  0.7776 -1.3599  2.7871
  681MOL0     H91879   7.153   7.817   5.472 -1.4506  1.5364  1.0472
  681MOL0     H91880   7.329   7.882   5.636  3.0315  0.4310  0.1158
  681MOL0     H91881   7.361   7.722   5.684  2.8888 -1.6821 -2.4961
  681MOL0     H91882   7.401   7.834   5.408 -0.9861  0.5570  0.6393
  681MOL0     H91883   7.483   7.686   5.477 -2.1066 -1.2660  1.6177
  681MOL0     H91884   7.529   7.967   5.580 -0.5842 -0.5683  1.3114
  681MOL0     H91885   7.580   7.823   5.663 -1.6493  2.1538  1.2947
  681MOL0     H91886   7.736   7.668   5.439 -0.6423  0.4607 -0.8198
  681MOL0     H91887   7.931   7.779   5.156  0.1238 -1.7408 -0.0307
  681MOL0     H91888   8.047   7.838   5.277 -1.8723  1.5396 -0.4196
  681MOL0     H91889   8.002   7.651   5.432 -1.9613 -0.8989 -0.3092
  681MOL0     H91890   7.930   7.568   5.284 -1.1149  1.5792 -2.6563
  681MOL0     H91891   8.153   7.607   5.165  2.0392  1.2425 -0.3191
  681MOL0     H91892   8.136   7.473   5.282  2.6380  0.4095  0.6981
  681MOL0     H91893   8.236   7.671   5.445  0.0956 -1.2787  0.7752
  681MOL0     H91894   8.295   7.716   5.282 -0.7935 -1.5280  0.3912
  681MOL0     H91895   8.460   7.748   5.452 -0.3580 -0.3318 -0.5345
  681MOL0     H91896   8.676   7.743   5.581 -2.2861 -1.0072  3.1584
  681MOL0     H91897   8.941   7.818   5.826 -1.2724 -2.1861 -0.0588
  681MOL0     H91898   9.154   7.891   5.925 -1.2280  0.2560 -1.6223
  681MOL0     H91899   9.437   7.586   5.971 -1.4622  1.9913  0.9468
  681MOL0     H91900   9.554   7.650   5.855  0.9242 -1.7838  1.2159
  681MOL0     H91901   9.490   7.758   6.130 -0.3570 -2.8228  0.4058
  681MOL0     H91902   9.628   7.660   6.096 -0.4428  1.4528  1.4690
  681MOL0     H91903   9.572   7.926   5.958 -0.4424  0.8517  0.4648
  681MOL0     H91904   9.674   7.908   6.101 -0.2815 -2.1082  1.5601
  681MOL0     H91905   9.726   7.820   5.816 -0.7292  1.6402  0.4181
  681MOL0     H91906   9.809   7.734   5.942 -0.5084 -0.6101  0.2147
  681MOL0     H91907   9.915   7.952   6.011 -0.3501  1.9037 -1.0703
  681MOL0     H91908   9.811   8.027   5.893 -1.8989 -0.1027  2.0666
  681MOL0     H91909   9.987   7.788   5.835 -3.5475 -0.4081  1.2032
  681MOL0     H91910   9.915   7.897   5.717 -1.7536  1.6937  1.4638
  681MOL0     H91911  10.144   7.949   5.919  1.0564  1.2986  0.5031
  681MOL0     H91912  10.082   8.069   5.789 -0.8861  0.9614  3.2531
  681MOL0     H91913  10.284   7.975   5.692  1.0391 -1.1198 -0.0459
  681MOL0     H91914  10.253   7.822   5.780  0.0237  0.7300  0.3468
  681MOL0     H91915   9.351   7.577   5.712  0.5512  1.5247  1.7571
  681MOL0     H91916   9.178   7.554   5.573  3.0949  0.8864  0.1786
  681MOL0     H91917   8.760   7.367   5.406 -0.8362  0.0756 -0.8708
  681MOL0     H91918   8.530   7.348   5.328  2.8809 -2.1087  0.8104
  681MOL0     H91919   6.636   7.747   5.962 -3.3524 -0.9736  1.6608
  681MOL0     H91920   6.406   7.809   6.001  0.4110 -0.3928  0.3512
  681MOL0     H91921   6.131   8.200   6.089 -1.1119  0.4250  2.5167
  681MOL0     H91922   5.907   8.252   6.181 -0.2590 -0.7371  1.2992
  681MOL0     H91923   5.694   8.257   6.271 -0.3736 -0.5625 -2.2967
  681MOL0     H91924   5.757   8.150   6.401 -0.5564 -0.1442 -0.7103
  681MOL0     H91925   5.476   8.112   6.290  1.1967 -2.1982 -0.6439
  681MOL0     H91926   5.496   8.228   6.412  0.5869  0.9224  0.7126
  681MOL0     H91927   5.601   8.038   6.551  1.4098 -0.0382 -0.3520
  681MOL0     H91928   5.550   7.932   6.415 -0.3339  1.8923 -2.5472
  681MOL0     H91929   5.379   7.933   6.602 -1.5723 -1.6312 -2.6443
  681MOL0     H91930   5.380   8.105   6.585  1.9443  0.3654  0.4397
  681MOL0     H91931   5.078   8.002   6.333  1.2070  0.3844 -0.2038
  681MOL0     H91932   5.788   7.856   6.060 -2.1861  0.6302 -0.6595
  681MOL0     H91933   5.881   7.732   5.933  1.2901 -0.9168  1.6904
  681MOL0     H91934   5.947   7.836   5.813 -3.1074 -1.7278 -0.4125
  681MOL0     H91935   6.062   7.734   5.909 -0.8433 -2.1394  2.9844
  682MOL0     O91936   0.101   4.413   4.732  0.5250  0.9498  0.4751
  682MOL0     C91937   0.042   4.519   4.726  0.1234 -0.5500  0.0450
  682MOL0     O91938   0.101   4.636   4.713  0.0084 -0.2748 -0.1140
  682MOL0     C91939   0.228   4.645   4.763  0.1396 -0.3770  0.1425
  682MOL0     C91940   0.336   4.598   4.693  0.5280 -0.2173  0.6646
  682MOL0     C91941   0.459   4.618   4.737  0.0142 -0.7504 -1.3751
  682MOL0     C91942   0.478   4.685   4.859 -0.3443  0.4717 -1.0060
  682MOL0     O91943   0.621   4.702   4.885  0.6694  0.6966 -0.0121
  682MOL0     C91944   0.668   4.738   5.013  0.1280  0.1125  0.3263
  682MOL0     C91945   0.677   4.885   5.031  0.3090 -0.3204  0.3774
  682MOL0     C91946   0.809   4.945   4.970  0.0188 -0.2223 -0.2843
  682MOL0     C91947   0.822   5.090   5.010 -0.7039  0.3748  0.0152
  682MOL0     C91948   0.933   5.181   4.949  0.3067  0.6445  0.0741
  682MOL0     C91949   1.067   5.113   4.936  0.1578  0.3964  0.7812
  682MOL0     C91950   1.162   5.200   4.862  0.3491  0.1017 -0.1875
  682MOL0     C91951   1.310   5.187   4.908 -0.1067 -0.9118 -0.7487
  682MOL0     N91952   1.399   5.293   4.868  0.5901  0.7286  1.7225
  682MOL0     C91953   1.478   5.375   4.947  0.2271 -0.7612  0.2997
  682MOL0     C91954   1.547   5.450   4.854 -0.0814 -0.0865  0.0088
  682MOL0     C91955   1.663   5.541   4.868 -0.8711 -0.3893  0.1648
  682MOL0     C91956   1.798   5.470   4.830  0.0675 -0.4899 -0.3955
  682MOL0     C91957   1.921   5.543   4.905 -0.3436  0.1201 -1.0683
  682MOL0     C91958   2.045   5.478   4.845 -1.0337 -0.0431  0.6937
  682MOL0     O91959   2.154   5.506   4.921  0.1883 -0.4566  0.3290
  682MOL0     C91960   2.263   5.424   4.901  0.8926  0.6576  0.7360
  682MOL0     C91961   2.319   5.365   5.011 -0.5646  0.0457  0.3360
  682MOL0     C91962   2.434   5.287   4.994 -0.3854 -0.0066 -0.6101
  682MOL0     C91963   2.490   5.281   4.868  0.1834  0.1671  0.0178
  682MOL0     C91964   2.612   5.198   4.849  0.2377  0.6904 -0.5053
  682MOL0     O91965   2.634   5.144   4.725 -0.5633 -0.6318  0.6382
  682MOL0     C91966   2.745   5.065   4.710  0.1311  0.6996  0.6697
  682MOL0     C91967   2.769   4.959   4.796  0.3513  0.0546  0.8443
  682MOL0     C91968   2.878   4.875   4.760  0.0434  0.3175 -0.0212
  682MOL0     C91969   2.946   4.879   4.634 -0.3772 -0.4364 -0.1663
  682MOL0     O91970   3.040   4.783   4.607  0.2601 -0.3466 -0.3154
  682MOL0     C91971   3.149   4.823   4.528 -0.2484 -0.0300  0.0171
  682MOL0     C91972   3.250   4.715   4.528  0.6876 -0.7400 -0.5647
  682MOL0     C91973   3.395   4.750   4.497  0.3703  0.2602 -0.4211
  682MOL0     C91974   3.479   4.623   4.525  0.5719  0.1251  0.0850
  682MOL0     C91975   3.624   4.637   4.447  0.1310  1.1258  0.1603
  682MOL0     C91976   3.711   4.753   4.492 -0.4370 -0.3949 -0.3689
  682MOL0     C91977   3.859   4.744   4.449 -0.4884 -0.7837 -0.4263
  682MOL0     C91978   3.933   4.712   4.572 -0.3274  0.3265  0.7129
  682MOL0    Cl91979   4.100   4.675   4.516  0.1761 -0.2605 -0.2185
  682MOL0     C91980   2.905   4.979   4.540 -0.7942 -0.4465  0.4734
  682MOL0     C91981   2.811   5.066   4.588 -0.2769  0.7480 -0.7175
  682MOL0     O91982   2.688   5.188   4.948 -0.5729  0.8726  0.6877
  682MOL0     C91983   2.427   5.331   4.751  0.4415  0.6123  1.2452
  682MOL0     C91984   2.311   5.406   4.769 -0.1079  0.3541  0.0181
  682MOL0     N91985   1.494   5.421   4.725  1.0837  0.0119  0.6516
  682MOL0     N91986   1.418   5.317   4.730 -0.0602  0.3374  0.2469
  682MOL0     C91987   0.366   4.741   4.932  0.0611 -0.0709 -0.2148
  682MOL0     C91988   0.235   4.712   4.881 -0.6074  0.1853 -0.1656
  682MOL0     C91989  -0.099   4.508   4.750  0.8274 -0.0788 -1.0053
  682MOL0     C91990  -0.143   4.417   4.842  0.3453 -0.1225 -0.0616
  682MOL0     C91991  -0.276   4.417   4.885  0.6043  0.7790  0.2428
  682MOL0     C91992  -0.369   4.506   4.831 -1.4261 -0.2557  0.6609
  682MOL0     O91993  -0.494   4.504   4.886 -0.5690  0.4118  0.2780
  682MOL0     C91994  -0.588   4.596   4.832  0.7219 -0.4607  0.6783
  682MOL0     C91995  -0.730   4.584   4.893 -0.5901  0.0636 -0.4121
  682MOL0     C91996  -0.785   4.445   4.878  0.4761  0.3159 -0.0957
  682MOL0     C91997  -0.913   4.414   4.962 -0.1885 -0.0728 -0.2739
  682MOL0     C91998  -1.005   4.527   4.965  0.9491  0.8306 -0.2733
  682MOL0     C91999  -1.073   4.630   4.956 -0.4955 -0.2340  0.2825
  682MOL0     C92000  -0.320   4.603   4.739 -0.0509 -0.1646 -0.4755
  682MOL0     C92001  -0.187   4.606   4.699  0.5269 -0.1065  0.8991
  682MOL0     C92002  -0.156   4.720   4.597 -0.3080  0.7192 -0.6570
  682MOL0     H92003   0.317   4.556   4.595 -0.4644  0.2646  0.6317
  682MOL0     H92004   0.540   4.593   4.670 -0.3215 -1.6545 -1.4495
  682MOL0     H92005   0.601   4.700   5.090 -1.1769  1.8869  0.1266
  682MOL0     H92006   0.768   4.702   5.041 -0.7428 -0.8406  2.3793
  682MOL0     H92007   0.679   4.899   5.140  1.6929 -0.1670  0.3551
  682MOL0     H92008   0.589   4.931   4.987  0.4514  2.1266  2.4501
  682MOL0     H92009   0.805   4.942   4.861  0.9677  0.4179 -0.3486
  682MOL0     H92010   0.898   4.894   5.009  0.2199 -0.0831 -0.5506
  682MOL0     H92011   0.725   5.140   5.005 -2.1865 -2.3096  0.0492
  682MOL0     H92012   0.845   5.074   5.116 -0.3442 -0.9897 -0.2475
  682MOL0     H92013   0.895   5.229   4.859  2.5210  2.0272 -0.2201
  682MOL0     H92014   0.954   5.259   5.022  1.4616 -0.1536  0.6370
  682MOL0     H92015   1.099   5.087   5.038  0.3551 -1.1046  0.3582
  682MOL0     H92016   1.047   5.024   4.876  0.4994  1.0103 -0.2732
  682MOL0     H92017   1.134   5.305   4.874 -0.2577  0.0954 -1.3919
  682MOL0     H92018   1.166   5.175   4.756  1.3291 -1.2960  0.1434
  682MOL0     H92019   1.315   5.174   5.017 -0.3656 -2.6804 -0.9212
  682MOL0     H92020   1.351   5.095   4.866 -0.4301 -1.0732 -0.7157
  682MOL0     H92021   1.484   5.390   5.054 -0.8611  1.5912  0.1095
  682MOL0     H92022   1.653   5.632   4.808 -0.0454  0.9718  1.9756
  682MOL0     H92023   1.677   5.580   4.969 -0.3424 -1.5305  0.5537
  682MOL0     H92024   1.792   5.363   4.853 -3.7951 -0.2973  0.1617
  682MOL0     H92025   1.821   5.482   4.724  2.0943 -1.4853 -0.1166
  682MOL0     H92026   1.914   5.528   5.013  0.4425 -0.2089 -1.0546
  682MOL0     H92027   1.916   5.650   4.887 -0.9043  0.1041 -1.0333
  682MOL0     H92028   2.059   5.525   4.747  2.4588  0.2945  1.2301
  682MOL0     H92029   2.026   5.370   4.849 -2.2251  0.1736  1.3242
  682MOL0     H92030   2.261   5.370   5.103 -0.2932 -1.2529  0.6089
  682MOL0     H92031   2.474   5.231   5.078  0.8044 -0.0053 -1.1660
  682MOL0     H92032   2.712   4.933   4.884  1.9640 -2.6156  1.1802
  682MOL0     H92033   2.913   4.790   4.817  1.2472 -0.6008 -2.0370
  682MOL0     H92034   3.112   4.830   4.425 -2.6610 -0.3445  0.8051
  682MOL0     H92035   3.198   4.911   4.572  0.8869  0.6632 -2.4456
  682MOL0     H92036   3.257   4.685   4.633  0.8864 -1.1823 -0.7032
  682MOL0     H92037   3.217   4.630   4.469  0.1636 -1.9108  1.3217
  682MOL0     H92038   3.403   4.775   4.390 -4.7617 -2.0133 -1.6726
  682MOL0     H92039   3.430   4.838   4.552 -0.8427  0.6361 -0.2068
  682MOL0     H92040   3.420   4.537   4.492 -0.2590  1.0247 -0.8682
  682MOL0     H92041   3.493   4.608   4.632  1.5442 -2.4078 -0.3385
  682MOL0     H92042   3.613   4.627   4.339  1.2635  2.3963 -0.0947
  682MOL0     H92043   3.679   4.544   4.469 -2.1591 -0.0705  1.1845
  682MOL0     H92044   3.670   4.841   4.440 -2.2598  0.1533  1.8396
  682MOL0     H92045   3.700   4.787   4.595  1.5256  2.9337 -1.0787
  682MOL0     H92046   3.896   4.835   4.402  0.3596 -0.3537  1.0264
  682MOL0     H92047   3.872   4.664   4.376 -0.2207 -1.1185 -0.0193
  682MOL0     H92048   3.929   4.792   4.647 -0.3859  0.2288  0.8157
  682MOL0     H92049   3.906   4.617   4.619  0.2813  0.7339  1.9438
  682MOL0     H92050   2.948   4.998   4.442  2.5125  2.3839  2.2182
  682MOL0     H92051   2.782   5.146   4.521  0.0007  0.6075 -1.0070
  682MOL0     H92052   2.470   5.320   4.652  1.5515 -2.2629  1.9456
  682MOL0     H92053   2.261   5.451   4.684  0.4474 -3.7128 -2.7505
  682MOL0     H92054   0.391   4.803   5.018 -1.5975  0.1064  0.1648
  682MOL0     H92055   0.152   4.753   4.936 -0.1936  2.2371 -0.9665
  682MOL0     H92056  -0.074   4.356   4.900  1.7683  0.2454 -1.3014
  682MOL0     H92057  -0.306   4.337   4.952  2.1928 -1.1856 -1.2650
  682MOL0     H92058  -0.604   4.581   4.725 -3.0497 -1.5457  1.2540
  682MOL0     H92059  -0.553   4.700   4.836 -1.4375  0.2840  1.6890
  682MOL0     H92060  -0.790   4.656   4.837  0.5062 -1.1690 -3.4233
  682MOL0     H92061  -0.714   4.609   4.998  0.3736  3.0171 -1.1618
  682MOL0     H92062  -0.714   4.368   4.911  1.7844  2.0815  1.4043
  682MOL0     H92063  -0.817   4.433   4.774 -1.9256  1.5548  0.4315
  682MOL0     H92064  -0.960   4.326   4.918  2.9092 -1.2198 -1.5764
  682MOL0     H92065  -0.892   4.384   5.065  0.8091 -1.2727 -0.8060
  682MOL0     H92066  -1.141   4.712   4.950 -1.1602 -0.8588 -1.2385
  682MOL0     H92067  -0.385   4.681   4.701 -2.6303 -1.5317  0.8910
  682MOL0     H92068  -0.196   4.818   4.625  0.2734  0.0913  2.8467
  682MOL0     H92069  -0.051   4.746   4.581 -0.6280  1.8801 -0.9659
  682MOL0     H92070  -0.190   4.690   4.498  3.9807 -4.3239 -1.0631
  683MOL0     O92071   6.792   9.672   5.812 -0.2441  0.0957  0.0897
  683MOL0     C92072   6.822   9.688   5.933 -0.6103  0.7110 -0.1154
  683MOL0     O92073   6.954   9.698   5.987  0.3855 -0.4312  0.1011
  683MOL0     C92074   7.062   9.684   5.904 -0.2973 -0.2687  0.0459
  683MOL0     C92075   7.174   9.768   5.941  0.8490  0.4651 -0.6470
  683MOL0     C92076   7.277   9.789   5.852  0.6768  0.1676  0.2077
  683MOL0     C92077   7.276   9.724   5.727 -0.1486  0.2765  0.4245
  683MOL0     O92078   7.389   9.722   5.653  0.6175  0.3356  0.7376
  683MOL0     C92079   7.453   9.844   5.632  0.1002 -0.7687  0.0421
  683MOL0     C92080   7.598   9.826   5.615  0.1006  1.0836  0.1636
  683MOL0     C92081   7.664   9.954   5.548 -0.1209  0.0432 -0.0051
  683MOL0     C92082   7.813   9.920   5.522  0.1221 -0.5301  0.3470
  683MOL0     C92083   7.840   9.847   5.390  0.3016 -0.5258  0.0951
  683MOL0     C92084   7.793   9.921   5.265  0.0423  0.4809 -1.3571
  683MOL0     C92085   7.869   9.864   5.147  0.0131  0.5719 -0.6159
  683MOL0     C92086   7.816   9.923   5.018  0.9268 -1.3057  0.6344
  683MOL0     N92087   7.871   9.873   4.891  0.1954  0.4349 -1.1781
  683MOL0     C92088   7.999   9.840   4.850  1.3409 -0.1068 -1.0245
  683MOL0     C92089   7.993   9.832   4.718 -0.4583 -0.4069 -0.0712
  683MOL0     C92090   8.099   9.781   4.613  0.4743  0.8833 -0.9081
  683MOL0     C92091   8.098   9.861   4.485  0.2866  0.2173  0.6513
  683MOL0     C92092   8.205   9.814   4.388  0.0704  0.4296 -0.2802
  683MOL0     C92093   8.164   9.821   4.241  0.6199 -0.4335  0.4339
  683MOL0     O92094   8.246   9.744   4.151  0.2190 -0.5271 -0.5445
  683MOL0     C92095   8.370   9.794   4.108  0.2813  0.2864 -0.6077
  683MOL0     C92096   8.383   9.907   4.029  0.3166  0.4131 -0.3330
  683MOL0     C92097   8.512   9.956   3.999 -0.3131 -0.1118 -0.1232
  683MOL0     C92098   8.627   9.893   4.051 -0.6511  0.0806 -0.1458
  683MOL0     C92099   8.763   9.948   4.027  0.2774 -0.2629 -0.2575
  683MOL0     O92100   8.863   9.877   4.077 -0.2152  0.3884  0.7951
  683MOL0     C92101   8.982   9.932   4.063  0.0095 -0.2456  0.1776
  683MOL0     C92102   9.018  10.017   4.175  0.0922  0.9910  0.6153
  683MOL0     C92103   9.136  10.082   4.159 -0.7477  0.1054 -0.4562
  683MOL0     C92104   9.220  10.060   4.042 -0.3334 -0.3051 -0.3199
  683MOL0     O92105   9.333  10.139   4.033  0.7745  0.2401  0.7065
  683MOL0     C92106   9.452  10.087   3.964  0.7046 -0.3662 -0.6155
  683MOL0     C92107   9.564  10.189   3.958 -0.0436  0.6829 -0.4251
  683MOL0     C92108   9.675  10.138   3.865  1.1756  0.0557  0.1642
  683MOL0     C92109   9.773  10.253   3.838  0.9839  0.1855  0.0513
  683MOL0     C92110   9.871  10.216   3.735 -0.4355  1.3108  0.1744
  683MOL0     C92111   9.971  10.104   3.779 -0.4421  0.4309 -1.0706
  683MOL0     C92112  10.062  10.156   3.889  0.3382  0.1191  0.2149
  683MOL0     C92113  10.193  10.084   3.902  0.1621  0.2443 -0.1855
  683MOL0    Cl92114  10.280  10.148   4.032  0.2192  0.0990 -0.7431
  683MOL0     C92115   9.190   9.967   3.945  0.2589  0.3500  0.5192
  683MOL0     C92116   9.066   9.901   3.957 -0.0163 -0.1315  0.1959
  683MOL0     O92117   8.768  10.044   3.952  0.6954  0.9539  0.4707
  683MOL0     C92118   8.608   9.783   4.134  0.0047  0.1384 -0.6552
  683MOL0     C92119   8.483   9.734   4.162 -0.2478  0.0406  0.2198
  683MOL0     N92120   7.863   9.859   4.677 -0.6538  0.4111  0.9622
  683MOL0     N92121   7.796   9.887   4.777 -0.0224 -0.0345 -0.5539
  683MOL0     C92122   7.170   9.635   5.689 -0.3635 -0.4200 -0.2263
  683MOL0     C92123   7.064   9.622   5.778 -0.2169  0.2111 -0.0181
  683MOL0     C92124   6.706   9.716   6.023 -0.1118 -0.1192 -0.3752
  683MOL0     C92125   6.730   9.802   6.126  0.8391 -0.3966 -0.2269
  683MOL0     C92126   6.633   9.844   6.217  0.1675  0.4962  0.1598
  683MOL0     C92127   6.502   9.791   6.203 -0.9605 -0.3482 -0.5569
  683MOL0     O92128   6.395   9.824   6.289  0.1183  0.5596  0.0595
  683MOL0     C92129   6.408   9.941   6.363 -0.7672 -0.5148 -0.4760
  683MOL0     C92130   6.286   9.986   6.449  0.6473  0.0599  0.5155
  683MOL0     C92131   6.147   9.965   6.378  0.2593  0.1529  1.0059
  683MOL0     C92132   6.087   9.843   6.445 -1.0156  0.0808  1.0061
  683MOL0     C92133   5.990   9.875   6.552  0.6168 -0.6934  0.1193
  683MOL0     C92134   5.912   9.912   6.636 -0.6935 -0.1724 -0.8424
  683MOL0     C92135   6.479   9.698   6.106 -0.8293 -0.0883 -0.5470
  683MOL0     C92136   6.580   9.661   6.013 -0.9998  0.0491  0.1754
  683MOL0     C92137   6.544   9.563   5.920 -0.2401 -0.0051 -1.0819
  683MOL0     H92138   7.184   9.824   6.033  0.8282 -0.4761 -0.0583
  683MOL0     H92139   7.362   9.844   5.891 -1.0108  1.5120  2.2339
  683MOL0     H92140   7.405   9.899   5.550 -0.5065 -3.3558 -1.4432
  683MOL0     H92141   7.452   9.908   5.721  0.4078 -1.9926  0.9432
  683MOL0     H92142   7.616   9.735   5.558  0.1254  0.3277  1.3383
  683MOL0     H92143   7.636   9.808   5.716 -2.2245 -0.9923  0.7627
  683MOL0     H92144   7.673  10.034   5.623  4.1083  1.0195 -1.2544
  683MOL0     H92145   7.612   9.998   5.463 -2.1302 -1.3688  0.4429
  683MOL0     H92146   7.866  10.015   5.521  0.9642 -0.9798 -0.6001
  683MOL0     H92147   7.841   9.853   5.604  1.5059  0.4456  0.7162
  683MOL0     H92148   7.948   9.830   5.392  0.3311 -0.5917 -1.2421
  683MOL0     H92149   7.787   9.751   5.390  0.8502 -0.8341  0.3075
  683MOL0     H92150   7.684   9.919   5.257 -0.3103  3.1963  1.1085
  683MOL0     H92151   7.830  10.024   5.271  0.1611  0.3686  0.1614
  683MOL0     H92152   7.855   9.756   5.146  0.1766  0.5392  0.0330
  683MOL0     H92153   7.978   9.872   5.160  0.2535 -1.6914 -0.7914
  683MOL0     H92154   7.708   9.908   5.023  0.5794  0.5475 -0.4532
  683MOL0     H92155   7.835  10.031   5.021 -0.7569 -0.9894  0.8048
  683MOL0     H92156   8.084   9.816   4.914 -1.1078 -2.4999  1.6513
  683MOL0     H92157   8.201   9.799   4.650  0.6952  1.8736 -1.9449
  683MOL0     H92158   8.074   9.679   4.583 -1.9038  1.8376 -2.4790
  683MOL0     H92159   8.000   9.850   4.438 -0.8168 -0.3536  2.9853
  683MOL0     H92160   8.109   9.968   4.508 -2.1510  0.9622 -1.2019
  683MOL0     H92161   8.220   9.709   4.417  1.5185  1.3095  2.4841
  683MOL0     H92162   8.298   9.871   4.399  0.3736  0.1886 -1.4816
  683MOL0     H92163   8.139   9.920   4.201 -1.1846 -0.8694  0.4073
  683MOL0     H92164   8.067   9.771   4.235 -1.1108  2.7718 -3.5636
  683MOL0     H92165   8.299   9.956   3.981 -1.4662 -1.3107  0.9140
  683MOL0     H92166   8.513  10.048   3.941 -0.8987  0.5539  0.8869
  683MOL0     H92167   8.950  10.040   4.257 -0.1155 -0.1876  0.7895
  683MOL0     H92168   9.164  10.143   4.244 -1.7853 -1.6444  1.2234
  683MOL0     H92169   9.486   9.991   4.005 -1.8975 -0.8251  0.7057
  683MOL0     H92170   9.423  10.068   3.861  1.3104 -2.6764 -0.4210
  683MOL0     H92171   9.528  10.286   3.924 -3.1087  0.1726  1.0173
  683MOL0     H92172   9.592  10.204   4.063 -0.9552  1.8978 -0.3302
  683MOL0     H92173   9.730  10.057   3.912 -1.0725 -1.5982  0.1153
  683MOL0     H92174   9.634  10.096   3.772  3.8410 -1.2476 -0.5177
  683MOL0     H92175   9.829  10.275   3.929  2.9762  0.1362 -1.1017
  683MOL0     H92176   9.717  10.344   3.815  1.1634  0.3937  0.4294
  683MOL0     H92177   9.917  10.312   3.710 -0.8523  1.6812  0.8058
  683MOL0     H92178   9.822  10.169   3.649  0.6861  1.1228 -0.3852
  683MOL0     H92179   9.924  10.011   3.814  1.0381 -0.1123 -0.4382
  683MOL0     H92180  10.032  10.072   3.694 -1.9049 -2.3966 -1.1630
  683MOL0     H92181  10.007  10.168   3.982 -1.2408  1.7741 -0.8749
  683MOL0     H92182  10.078  10.262   3.869 -0.2330  0.4481  1.4000
  683MOL0     H92183  10.170   9.978   3.916  1.3571  0.1282  1.0739
  683MOL0     H92184  10.248  10.100   3.809 -0.1403 -0.9515 -0.5961
  683MOL0     H92185   9.252   9.949   3.858  2.0737  1.5407  1.4799
  683MOL0     H92186   9.037   9.838   3.874 -1.3415  0.4711  0.1822
  683MOL0     H92187   8.695   9.739   4.182  0.7907  0.4554 -1.7484
  683MOL0     H92188   8.470   9.650   4.230 -2.8719 -1.0384 -1.4768
  683MOL0     H92189   7.184   9.569   5.603 -0.5760 -1.4458  0.5071
  683MOL0     H92190   6.989   9.553   5.740 -1.0396 -0.6256  2.8801
  683MOL0     H92191   6.832   9.838   6.137  0.7993 -0.2500 -0.3373
  683MOL0     H92192   6.648   9.915   6.298  1.3882 -0.7376  1.0580
  683MOL0     H92193   6.430  10.018   6.288 -0.3787 -0.0745  0.0842
  683MOL0     H92194   6.499   9.940   6.423 -2.1196  0.7353  1.7161
  683MOL0     H92195   6.307  10.092   6.466  1.7785  0.0962 -0.9105
  683MOL0     H92196   6.294   9.948   6.551  1.8761  0.7491  0.6994
  683MOL0     H92197   6.148   9.947   6.271 -1.0676 -4.6899  1.5879
  683MOL0     H92198   6.079  10.051   6.384 -2.7079 -2.0750  1.5674
  683MOL0     H92199   6.040   9.777   6.371  2.0078  0.4725 -1.4558
  683MOL0     H92200   6.158   9.773   6.489  0.1774  1.9683  2.2086
  683MOL0     H92201   5.848   9.940   6.717 -1.5068 -1.0459 -1.1688
  683MOL0     H92202   6.375   9.667   6.100 -1.7730  2.8843 -1.5147
  683MOL0     H92203   6.456   9.506   5.952  1.7400 -1.9598  1.4113
  683MOL0     H92204   6.532   9.614   5.825 -1.9779  1.7806  0.0318
  683MOL0     H92205   6.635   9.502   5.926  0.6071  1.0559 -2.6306
  684MOL0     O92206   1.616   4.108   5.135 -0.2890  0.3194 -0.3141
  684MOL0     C92207   1.560   4.169   5.043  0.4166 -0.6093 -0.4390
  684MOL0     O92208   1.617   4.194   4.923  0.2032  0.1281  0.8423
  684MOL0     C92209   1.743   4.146   4.907  0.3823 -0.1857 -0.6113
  684MOL0     C92210   1.770   4.013   4.874  0.1821  0.4714  0.2397
  684MOL0     C92211   1.899   3.961   4.853  0.5201  0.0917  0.2523
  684MOL0     C92212   2.008   4.058   4.872  0.0794  0.5994 -0.2305
  684MOL0     O92213   2.139   4.037   4.848 -0.0509 -0.2925 -0.3725
  684MOL0     C92214   2.157   4.078   4.710  0.4564  0.0776 -0.6954
  684MOL0     C92215   2.304   4.091   4.665 -0.3290 -0.3161 -0.0715
  684MOL0     C92216   2.404   3.973   4.695 -0.0749  0.7827 -0.4884
  684MOL0     C92217   2.518   3.964   4.597 -0.6280  0.1405  0.0190
  684MOL0     C92218   2.619   3.863   4.635 -0.4801 -0.2051 -0.2178
  684MOL0     C92219   2.702   3.903   4.752 -1.8673 -0.3638 -0.4165
  684MOL0     C92220   2.842   3.845   4.755  0.1729 -0.1768 -0.1398
  684MOL0     C92221   2.858   3.698   4.708 -0.5139  0.0764 -0.8641
  684MOL0     N92222   2.998   3.642   4.714 -0.1766 -0.5393 -0.1690
  684MOL0     C92223   3.064   3.613   4.835 -0.9299 -0.6176  0.1124
  684MOL0     C92224   3.184   3.567   4.797  0.1130 -0.2158  0.0276
  684MOL0     C92225   3.276   3.510   4.907  0.2751  0.2165 -0.4956
  684MOL0     C92226   3.379   3.410   4.855 -0.4633  0.3056  0.2456
  684MOL0     C92227   3.471   3.361   4.967  0.9813 -0.2995  1.0893
  684MOL0     C92228   3.589   3.274   4.910  0.1018  0.2633 -0.6773
  684MOL0     O92229   3.682   3.352   4.829  0.8654 -0.5367 -0.5655
  684MOL0     C92230   3.812   3.318   4.813  0.1982  0.2369 -1.1533
  684MOL0     C92231   3.883   3.398   4.717  0.2178  0.0029  0.2531
  684MOL0     C92232   4.015   3.382   4.691  0.2705  0.0231 -0.3810
  684MOL0     C92233   4.092   3.280   4.760  0.3000  0.3598  0.3942
  684MOL0     C92234   4.227   3.269   4.728 -0.5944  0.7881 -0.5807
  684MOL0     O92235   4.280   3.345   4.629 -0.3291  0.2307  0.5378
  684MOL0     C92236   4.414   3.332   4.603 -0.0930  0.3707  0.8618
  684MOL0     C92237   4.450   3.299   4.471  0.4201 -0.9927  0.1434
  684MOL0     C92238   4.586   3.306   4.441  0.2606  0.3845 -0.0339
  684MOL0     C92239   4.690   3.340   4.533  0.4418 -0.8757  1.3542
  684MOL0     O92240   4.818   3.357   4.491  0.6870 -0.0150 -0.1901
  684MOL0     C92241   4.895   3.458   4.568 -0.1701  0.1716  1.0168
  684MOL0     C92242   5.035   3.483   4.485  0.3334 -0.7037 -0.2794
  684MOL0     C92243   5.160   3.453   4.566  0.0501  0.1747  0.1802
  684MOL0     C92244   5.166   3.547   4.685 -0.6006 -0.2011  0.3449
  684MOL0     C92245   5.243   3.675   4.655  0.2334  0.1739  0.0444
  684MOL0     C92246   5.253   3.792   4.755  0.2711  0.5281 -0.1929
  684MOL0     C92247   5.135   3.892   4.733  0.0863  0.4067 -0.3527
  684MOL0     C92248   4.994   3.834   4.755  0.0527  0.8231 -0.5782
  684MOL0    Cl92249   4.988   3.763   4.919  0.4196  0.1472  0.0375
  684MOL0     C92250   4.654   3.369   4.669  0.3073  0.8032 -0.5135
  684MOL0     C92251   4.515   3.372   4.693  0.3174  0.3174  0.2031
  684MOL0     O92252   4.293   3.190   4.800  0.0991 -0.1175  0.2393
  684MOL0     C92253   4.025   3.194   4.854 -0.5369 -1.2495  0.6619
  684MOL0     C92254   3.887   3.215   4.879 -0.2785  1.1663 -0.4114
  684MOL0     N92255   3.190   3.564   4.663 -0.1620 -0.2388  1.2651
  684MOL0     N92256   3.076   3.606   4.614 -0.0282  0.1581  0.5917
  684MOL0     C92257   1.981   4.183   4.924 -0.9478 -0.7666  0.1188
  684MOL0     C92258   1.852   4.231   4.933  0.3699  0.5680 -0.2401
  684MOL0     C92259   1.424   4.227   5.072  0.4308  0.2908 -0.0431
  684MOL0     C92260   1.360   4.174   5.188  1.0296 -0.7572 -0.6900
  684MOL0     C92261   1.225   4.216   5.200  0.9260 -0.4847  0.2512
  684MOL0     C92262   1.164   4.318   5.120 -0.8082  0.4872 -0.8109
  684MOL0     O92263   1.040   4.366   5.151  0.3665  0.3103  0.9348
  684MOL0     C92264   0.935   4.287   5.090 -0.4703 -0.3928  0.6161
  684MOL0     C92265   0.878   4.351   4.963 -0.6765 -0.5540  0.0946
  684MOL0     C92266   0.729   4.329   4.923 -0.4205 -0.3159  0.3549
  684MOL0     C92267   0.637   4.368   5.035  0.0985  0.5065 -0.0563
  684MOL0     C92268   0.499   4.365   4.989  0.1381 -0.5879  1.2817
  684MOL0     C92269   0.381   4.356   4.954  0.3309  1.4964  0.7702
  684MOL0     C92270   1.240   4.379   5.026  1.0872 -0.1993  0.4552
  684MOL0     C92271   1.365   4.334   4.993 -0.7846  0.8755 -0.2630
  684MOL0     C92272   1.441   4.397   4.882  0.7996 -0.3714  0.2077
  684MOL0     H92273   1.679   3.955   4.875  0.7295 -0.4516  1.8262
  684MOL0     H92274   1.915   3.855   4.833  0.7819  0.1027  0.3939
  684MOL0     H92275   2.105   4.005   4.648 -0.4048 -0.1727  0.2951
  684MOL0     H92276   2.105   4.173   4.694  0.1707  0.1897  0.7532
  684MOL0     H92277   2.334   4.173   4.730 -2.0995 -0.3828  0.9022
  684MOL0     H92278   2.320   4.120   4.561  2.3467 -0.9982  0.0968
  684MOL0     H92279   2.351   3.877   4.701  0.7061  0.4146  3.0991
  684MOL0     H92280   2.441   3.993   4.796  0.8703  0.2795 -0.7224
  684MOL0     H92281   2.486   3.943   4.494 -0.0121 -0.5731 -0.0340
  684MOL0     H92282   2.555   4.067   4.590 -1.2335  0.2644 -2.5595
  684MOL0     H92283   2.566   3.773   4.666  1.1787 -1.2816 -0.3894
  684MOL0     H92284   2.671   3.845   4.541 -2.0463 -0.0730 -1.1441
  684MOL0     H92285   2.711   4.012   4.756  0.0903 -0.4651 -1.0535
  684MOL0     H92286   2.656   3.877   4.848 -2.4968  2.3262  0.0969
  684MOL0     H92287   2.867   3.857   4.861 -1.9866  0.0454  0.3899
  684MOL0     H92288   2.910   3.911   4.699  0.3358  0.1185  0.3977
  684MOL0     H92289   2.788   3.639   4.769 -1.8613  0.7241 -1.7349
  684MOL0     H92290   2.823   3.685   4.605 -2.9272 -0.8023 -0.0169
  684MOL0     H92291   3.023   3.624   4.935  1.7056 -0.0444  1.2096
  684MOL0     H92292   3.314   3.597   4.962  2.4378 -0.7782 -0.3399
  684MOL0     H92293   3.211   3.453   4.974  1.1295 -0.5606 -0.3081
  684MOL0     H92294   3.331   3.322   4.811  2.4509 -2.0208  1.4139
  684MOL0     H92295   3.432   3.461   4.774  0.1436  3.1950  2.3082
  684MOL0     H92296   3.409   3.309   5.041 -0.8102 -0.1480 -0.2316
  684MOL0     H92297   3.512   3.458   4.997  0.6094  1.5018 -3.3755
  684MOL0     H92298   3.542   3.192   4.854 -1.9441  0.5690  0.4932
  684MOL0     H92299   3.651   3.232   4.991 -2.2391 -1.2056  0.4615
  684MOL0     H92300   3.826   3.470   4.660 -2.1116 -0.3967  1.9029
  684MOL0     H92301   4.061   3.449   4.620 -0.9618 -1.6268 -2.8840
  684MOL0     H92302   4.375   3.284   4.394 -2.4031 -0.6364  2.6588
  684MOL0     H92303   4.601   3.279   4.337 -1.7215 -2.5309  0.3340
  684MOL0     H92304   4.828   3.544   4.573 -1.5256 -0.7957  0.1833
  684MOL0     H92305   4.924   3.418   4.666  2.1691 -1.7010 -0.3381
  684MOL0     H92306   5.042   3.422   4.394 -0.2086  0.5820 -1.2081
  684MOL0     H92307   5.039   3.589   4.459  2.2616 -0.6452  0.0489
  684MOL0     H92308   5.170   3.347   4.591 -2.2384  0.0149  0.6877
  684MOL0     H92309   5.238   3.488   4.498 -0.5916  3.0183  0.7701
  684MOL0     H92310   5.210   3.496   4.771  2.1575 -0.8049 -1.2978
  684MOL0     H92311   5.066   3.576   4.718 -1.3889 -0.2597 -1.8631
  684MOL0     H92312   5.201   3.720   4.565 -0.3632 -1.3231 -0.4589
  684MOL0     H92313   5.342   3.653   4.613 -1.0746 -1.3717 -2.4720
  684MOL0     H92314   5.252   3.749   4.856  0.5555 -1.1581 -0.8815
  684MOL0     H92315   5.345   3.851   4.744  0.9385 -0.8502 -2.9096
  684MOL0     H92316   5.144   3.931   4.631  2.1650  0.6046 -0.1404
  684MOL0     H92317   5.141   3.980   4.799  1.1307  0.2851 -0.2677
  684MOL0     H92318   4.918   3.911   4.739  1.0993  1.7334 -1.3659
  684MOL0     H92319   4.978   3.763   4.674 -0.4692 -1.0837  1.1215
  684MOL0     H92320   4.715   3.386   4.757 -2.9737 -1.2145  2.4051
  684MOL0     H92321   4.474   3.396   4.790  0.3201  2.1212 -0.2194
  684MOL0     H92322   4.091   3.134   4.917  2.6780  0.2743 -0.9961
  684MOL0     H92323   3.862   3.155   4.966  4.2986 -0.0834  0.2569
  684MOL0     H92324   2.064   4.244   4.960 -3.0832  3.5946 -1.6938
  684MOL0     H92325   1.822   4.328   4.972  2.2679  1.2270 -0.2856
  684MOL0     H92326   1.405   4.113   5.266  0.6752  0.8213  0.8136
  684MOL0     H92327   1.155   4.177   5.273 -2.1558  2.1414 -1.0704
  684MOL0     H92328   0.853   4.282   5.161 -2.6063  1.7114 -1.5146
  684MOL0     H92329   0.969   4.186   5.063  1.8174  0.1264  1.3053
  684MOL0     H92330   0.937   4.327   4.874 -0.5879 -0.2366  0.0681
  684MOL0     H92331   0.887   4.459   4.972 -1.1540 -0.5640  0.7865
  684MOL0     H92332   0.718   4.225   4.890  2.7156 -0.4400 -0.6834
  684MOL0     H92333   0.699   4.393   4.839  0.9135  1.2700  1.0271
  684MOL0     H92334   0.646   4.310   5.127 -1.2277  0.4774  0.0837
  684MOL0     H92335   0.664   4.471   5.062  2.9514 -0.1844  0.0469
  684MOL0     H92336   0.282   4.344   4.917  1.5170 -0.7988 -2.0194
  684MOL0     H92337   1.198   4.455   4.962  1.0290 -0.6229 -0.0159
  684MOL0     H92338   1.437   4.347   4.784  0.4716  2.2799 -1.2318
  684MOL0     H92339   1.405   4.496   4.851  0.5563 -0.9699 -1.5752
  684MOL0     H92340   1.546   4.418   4.904  1.6852  0.4596 -3.9409
  685MOL0     O92341   5.134  10.888   7.069  0.0811 -0.2751 -0.4803
  685MOL0     C92342   5.093  10.925   7.181  0.3936 -0.3213 -0.0030
  685MOL0     O92343   5.174  10.959   7.286  0.3384 -0.2013  0.1900
  685MOL0     C92344   5.314  10.938   7.292 -0.0948 -0.9465  0.7508
  685MOL0     C92345   5.384  10.849   7.208  0.7171  0.0658  0.6024
  685MOL0     C92346   5.520  10.846   7.195  0.0329  0.4907 -0.0121
  685MOL0     C92347   5.597  10.942   7.257  0.0463 -0.3644 -0.3228
  685MOL0     O92348   5.729  10.944   7.228 -0.3283 -0.0236  0.9278
  685MOL0     C92349   5.829  11.029   7.287  1.0686 -0.1466 -0.1612
  685MOL0     C92350   5.970  10.986   7.242 -0.4286  0.2777 -0.3360
  685MOL0     C92351   6.082  11.055   7.329  0.4182  0.8829  0.0316
  685MOL0     C92352   6.229  11.007   7.304  0.5345 -0.3083  0.2831
  685MOL0     C92353   6.320  11.072   7.413 -0.3053 -0.0575  0.4786
  685MOL0     C92354   6.461  11.120   7.355  0.5928  0.8103  0.1578
  685MOL0     C92355   6.526  11.019   7.256 -0.0065  0.0152 -0.3614
  685MOL0     C92356   6.670  11.050   7.223 -0.8653  0.0063  0.7398
  685MOL0     N92357   6.727  10.954   7.121  0.3474 -0.7500 -0.3040
  685MOL0     C92358   6.728  10.818   7.130 -0.0261  0.4539 -0.5575
  685MOL0     C92359   6.791  10.773   7.028 -0.1965 -0.8246 -0.3002
  685MOL0     C92360   6.827  10.627   6.991  0.0242  0.8090 -0.0392
  685MOL0     C92361   6.951  10.611   6.917  0.3933  0.3676 -0.3088
  685MOL0     C92362   7.065  10.650   7.004  0.2006  0.6134 -0.1096
  685MOL0     C92363   7.201  10.617   6.937  0.7341  0.1095 -0.0313
  685MOL0     O92364   7.301  10.680   7.011 -0.4225  0.1629  0.8720
  685MOL0     C92365   7.434  10.671   6.967 -0.3991 -0.4687 -0.5448
  685MOL0     C92366   7.530  10.721   7.061 -0.2466 -0.2257  0.5195
  685MOL0     C92367   7.664  10.716   7.037 -0.0707  0.3163 -0.9602
  685MOL0     C92368   7.712  10.661   6.923 -0.1431  0.6484  0.1665
  685MOL0     C92369   7.861  10.673   6.897  0.2829 -0.2012  0.5255
  685MOL0     O92370   7.926  10.780   6.963  0.5761  0.1030 -0.8433
  685MOL0     C92371   8.060  10.810   6.964  0.8677  0.5620  0.2884
  685MOL0     C92372   8.157  10.715   6.919 -0.6535 -0.1511  0.2472
  685MOL0     C92373   8.292  10.768   6.928  0.0464 -0.0634 -0.4467
  685MOL0     C92374   8.320  10.892   6.993  0.2396  0.6275  1.3946
  685MOL0     O92375   8.445  10.920   7.019 -0.1704 -0.4144  0.4428
  685MOL0     C92376   8.481  11.063   7.028  0.1503  0.4448  0.4729
  685MOL0     C92377   8.641  11.067   7.052  0.4408 -0.3647 -0.3400
  685MOL0     C92378   8.673  11.208   7.113 -1.1942  0.9728 -0.0711
  685MOL0     C92379   8.815  11.207   7.165  0.2847  0.2793 -0.0506
  685MOL0     C92380   8.912  11.223   7.054 -0.1690  0.6953  0.5703
  685MOL0     C92381   9.065  11.193   7.094  0.2202 -0.0830 -0.1227
  685MOL0     C92382   9.124  11.301   7.182  0.0027  0.2060  0.8467
  685MOL0     C92383   9.109  11.441   7.136 -0.3684  0.3896 -0.1900
  685MOL0    Cl92384   9.240  11.456   7.007  0.3415  0.5936 -0.0859
  685MOL0     C92385   8.217  10.968   7.045  0.4585  0.1020  0.0383
  685MOL0     C92386   8.090  10.922   7.031 -0.6744 -0.2048  0.4932
  685MOL0     O92387   7.914  10.598   6.823  0.5685 -0.2823  0.0061
  685MOL0     C92388   7.624  10.605   6.832 -1.1769  0.0580 -0.0066
  685MOL0     C92389   7.485  10.606   6.854 -0.2848 -0.9847 -0.7891
  685MOL0     N92390   6.813  10.884   6.941 -0.9673 -0.6445  0.1244
  685MOL0     N92391   6.784  10.996   7.000 -0.3578 -0.0394 -0.0569
  685MOL0     C92392   5.537  11.030   7.340  1.2601 -0.8028 -0.0945
  685MOL0     C92393   5.390  11.032   7.359  0.0015 -0.4064  0.0881
  685MOL0     C92394   4.946  10.946   7.198  0.0616 -0.3390  0.3730
  685MOL0     C92395   4.915  11.045   7.289 -0.0541  0.4288  0.1649
  685MOL0     C92396   4.785  11.057   7.329 -0.2281 -0.2458 -0.3861
  685MOL0     C92397   4.677  10.990   7.268 -0.2788  0.0534 -1.1637
  685MOL0     O92398   4.542  10.996   7.310 -0.6717  0.2791  0.3405
  685MOL0     C92399   4.505  11.107   7.391  0.8873  0.8156  0.3993
  685MOL0     C92400   4.363  11.081   7.449 -0.0302 -0.5609  0.4379
  685MOL0     C92401   4.249  11.057   7.336 -0.7553 -0.5220 -0.4071
  685MOL0     C92402   4.122  11.004   7.398 -0.5858 -0.5080  1.0908
  685MOL0     C92403   4.003  10.989   7.301  0.0123  0.4307  0.7057
  685MOL0     C92404   3.905  10.970   7.227 -0.4739 -0.0148  1.0042
  685MOL0     C92405   4.709  10.895   7.170 -0.2388 -0.7341  0.0959
  685MOL0     C92406   4.845  10.867   7.136 -0.7524 -0.7005 -0.8820
  685MOL0     C92407   4.880  10.743   7.053 -0.0828 -0.2302 -0.6664
  685MOL0     H92408   5.334  10.784   7.136 -0.3456  2.2054 -0.7068
  685MOL0     H92409   5.551  10.774   7.119 -1.8316  1.2225 -1.5562
  685MOL0     H92410   5.802  11.130   7.255  1.2155  0.0120  0.2136
  685MOL0     H92411   5.829  11.028   7.396  0.7748  0.1435 -0.1590
  685MOL0     H92412   5.986  11.032   7.144  1.0389 -1.4568 -0.9446
  685MOL0     H92413   5.977  10.877   7.245 -2.2229  0.1058  2.5785
  685MOL0     H92414   6.056  11.024   7.431  1.4705  2.3257  0.7703
  685MOL0     H92415   6.067  11.163   7.323 -4.1420  0.4716  0.5220
  685MOL0     H92416   6.223  10.899   7.315 -1.2403 -0.2876 -0.1215
  685MOL0     H92417   6.255  11.036   7.201  0.3497 -1.2409 -0.0386
  685MOL0     H92418   6.270  11.162   7.447 -2.1383 -0.3341 -1.3181
  685MOL0     H92419   6.320  10.992   7.488 -2.2764  0.6028  1.2219
  685MOL0     H92420   6.452  11.216   7.304 -2.2099 -0.4780 -2.0890
  685MOL0     H92421   6.522  11.149   7.441 -2.0564  2.4377  1.6042
  685MOL0     H92422   6.483  11.021   7.155  1.0889  1.1272 -0.8342
  685MOL0     H92423   6.527  10.921   7.305 -0.1597 -0.0994 -0.5816
  685MOL0     H92424   6.678  11.149   7.177 -0.1212 -0.8218 -1.0063
  685MOL0     H92425   6.727  11.042   7.315 -1.3721 -0.1040  1.0485
  685MOL0     H92426   6.695  10.762   7.218 -0.4309  1.6701  0.0987
  685MOL0     H92427   6.840  10.558   7.075 -0.2692 -0.8969 -1.3162
  685MOL0     H92428   6.739  10.578   6.947 -0.7285  2.6216 -0.6413
  685MOL0     H92429   6.977  10.512   6.880  3.0512  0.5778  0.7694
  685MOL0     H92430   6.947  10.683   6.835 -0.9626 -0.3555 -0.9054
  685MOL0     H92431   7.066  10.593   7.097 -1.4484 -0.1741 -0.5468
  685MOL0     H92432   7.061  10.759   7.017 -0.5878  0.8538 -2.0534
  685MOL0     H92433   7.212  10.648   6.833  1.0722 -0.5289 -0.1921
  685MOL0     H92434   7.213  10.509   6.932  0.7734  0.1480 -0.9338
  685MOL0     H92435   7.493  10.752   7.159 -0.6919 -2.7594  1.2333
  685MOL0     H92436   7.732  10.747   7.116  1.8928 -1.0994 -2.0108
  685MOL0     H92437   8.135  10.614   6.884 -3.9940 -0.8147  3.6127
  685MOL0     H92438   8.371  10.701   6.894 -0.4321 -0.0254 -1.6769
  685MOL0     H92439   8.466  11.122   6.937  1.7478 -0.1524 -0.2320
  685MOL0     H92440   8.432  11.116   7.110 -0.6712  0.1159  0.1985
  685MOL0     H92441   8.671  10.986   7.118  1.2124 -0.8096 -1.2074
  685MOL0     H92442   8.696  11.055   6.958  0.2021 -1.1416 -0.3891
  685MOL0     H92443   8.660  11.290   7.041 -0.5223  3.0464  2.0572
  685MOL0     H92444   8.607  11.230   7.197 -0.5303 -0.8931  1.0050
  685MOL0     H92445   8.841  11.115   7.218  0.6462  0.9697  1.0127
  685MOL0     H92446   8.828  11.283   7.243  2.3318 -0.4950  0.4266
  685MOL0     H92447   8.904  11.323   7.009  2.8446  0.9874  0.5096
  685MOL0     H92448   8.869  11.153   6.982 -1.3482  0.6323  1.3068
  685MOL0     H92449   9.072  11.089   7.125 -1.3697 -2.1193 -5.4525
  685MOL0     H92450   9.130  11.201   7.006  1.4819 -2.5223  0.4963
  685MOL0     H92451   9.230  11.284   7.205  0.3071  1.2897  0.2988
  685MOL0     H92452   9.059  11.293   7.270 -1.7309 -1.1834 -0.5008
  685MOL0     H92453   9.014  11.464   7.087 -0.0284 -0.2715 -1.1885
  685MOL0     H92454   9.122  11.504   7.224 -1.0412 -2.4207  2.1173
  685MOL0     H92455   8.223  11.059   7.103 -0.9633 -0.7763  1.6736
  685MOL0     H92456   8.009  10.972   7.084  1.5691  1.2676  2.7942
  685MOL0     H92457   7.660  10.560   6.740  1.7403 -0.1314  1.1260
  685MOL0     H92458   7.420  10.551   6.787 -1.5966 -0.7221  0.2474
  685MOL0     H92459   5.585  11.110   7.394  1.4090 -2.8858  3.1107
  685MOL0     H92460   5.351  11.111   7.423  2.0609 -0.3069  1.3309
  685MOL0     H92461   4.986  11.103   7.348 -1.0316  0.4803  1.3248
  685MOL0     H92462   4.765  11.119   7.416 -0.3876  1.1876 -1.4031
  685MOL0     H92463   4.513  11.208   7.349  0.1986  1.0605  0.8501
  685MOL0     H92464   4.564  11.125   7.481 -0.7040  0.7645  1.4920
  685MOL0     H92465   4.331  11.158   7.519  2.7734  0.2889  0.9127
  685MOL0     H92466   4.386  11.002   7.521 -1.0358  1.0835  2.6738
  685MOL0     H92467   4.291  10.980   7.271  2.2649 -0.6734  1.5262
  685MOL0     H92468   4.244  11.153   7.283  0.4260  2.2637  3.9756
  685MOL0     H92469   4.160  10.912   7.442  1.2684 -1.4701 -2.1790
  685MOL0     H92470   4.078  11.070   7.474 -0.2867  0.5716  0.3489
  685MOL0     H92471   3.826  10.956   7.155  1.2778  1.5214 -1.3825
  685MOL0     H92472   4.624  10.849   7.122 -0.4834  0.4334 -0.6183
  685MOL0     H92473   4.898  10.783   6.953  0.9216 -3.4729 -1.9263
  685MOL0     H92474   4.976  10.697   7.080 -0.8740 -0.7818  1.3560
  685MOL0     H92475   4.795  10.674   7.050  0.2815 -0.7014 -0.3824
  686MOL0     O92476   3.554   4.667   6.089  0.0687  0.0606  0.2631
  686MOL0     C92477   3.488   4.614   6.179 -0.6884  0.2042 -0.1343
  686MOL0     O92478   3.540   4.543   6.281 -0.8153 -0.0619 -0.6985
  686MOL0     C92479   3.679   4.552   6.314  0.7783 -0.9424  0.0684
  686MOL0     C92480   3.732   4.450   6.392 -0.0655  0.2654 -0.5071
  686MOL0     C92481   3.863   4.446   6.429  0.0500 -0.0349  0.1296
  686MOL0     C92482   3.947   4.553   6.409 -0.6298 -0.5519 -0.4172
  686MOL0     O92483   4.076   4.550   6.458 -0.9373 -0.5147 -0.3928
  686MOL0     C92484   4.168   4.661   6.464  0.2542  0.9429  0.0400
  686MOL0     C92485   4.303   4.595   6.507 -1.1100 -0.0528 -0.7017
  686MOL0     C92486   4.420   4.675   6.465 -0.4255 -0.5473 -0.8731
  686MOL0     C92487   4.550   4.611   6.501  0.5468  0.0129 -0.0127
  686MOL0     C92488   4.675   4.706   6.458 -0.1585  0.3080 -0.0263
  686MOL0     C92489   4.806   4.652   6.490 -0.5849  1.0175 -0.2680
  686MOL0     C92490   4.823   4.507   6.460  0.5969  0.7626  0.1497
  686MOL0     C92491   4.963   4.445   6.500 -0.3239  0.4376  0.0741
  686MOL0     N92492   5.065   4.519   6.422 -0.0781  0.4450  0.4521
  686MOL0     C92493   5.163   4.589   6.486  0.4699 -0.0061  0.7233
  686MOL0     C92494   5.219   4.650   6.380 -0.4021  0.6754  0.4951
  686MOL0     C92495   5.318   4.763   6.393 -0.3983 -0.4306 -0.5103
  686MOL0     C92496   5.471   4.722   6.397  0.0159  0.5691  0.4381
  686MOL0     C92497   5.560   4.835   6.397  0.4619  0.2437  1.1020
  686MOL0     C92498   5.697   4.801   6.335 -0.2971 -0.3826  0.3443
  686MOL0     O92499   5.766   4.714   6.426 -0.2631  0.7183 -0.2033
  686MOL0     C92500   5.910   4.714   6.426 -0.3643 -0.5421 -0.6472
  686MOL0     C92501   5.995   4.740   6.305 -0.6002 -0.1176 -0.7580
  686MOL0     C92502   6.132   4.727   6.310  0.0905 -0.6442 -0.6083
  686MOL0     C92503   6.182   4.680   6.432  0.2072 -0.0135 -0.6614
  686MOL0     C92504   6.330   4.663   6.447  0.0975 -0.0317 -0.0955
  686MOL0     O92505   6.368   4.600   6.568  0.4315  0.2468 -0.2293
  686MOL0     C92506   6.503   4.573   6.585 -0.4356 -0.6410 -0.5760
  686MOL0     C92507   6.566   4.647   6.680  0.6516 -0.6984  0.7277
  686MOL0     C92508   6.701   4.635   6.702  0.2828  1.0656  0.1133
  686MOL0     C92509   6.779   4.545   6.631 -0.1387  1.5278  0.3325
  686MOL0     O92510   6.912   4.534   6.657 -0.2568  0.1692  0.1152
  686MOL0     C92511   6.963   4.404   6.668  0.1587 -0.1882  0.7142
  686MOL0     C92512   7.123   4.396   6.684 -0.1505  1.1193 -0.2515
  686MOL0     C92513   7.172   4.461   6.816  0.0969  0.1753 -0.2142
  686MOL0     C92514   7.309   4.425   6.863  0.6764  0.5654 -0.1924
  686MOL0     C92515   7.334   4.465   7.009 -0.1543  0.2629 -0.5047
  686MOL0     C92516   7.467   4.416   7.063  0.0293  1.0140 -0.5172
  686MOL0     C92517   7.483   4.450   7.205 -0.7475 -0.7715 -0.4122
  686MOL0     C92518   7.637   4.466   7.232 -0.2440  0.5697  1.0752
  686MOL0    Cl92519   7.662   4.516   7.391 -0.1448 -0.0867 -0.0764
  686MOL0     C92520   6.710   4.469   6.534 -0.1589  0.8858  0.3840
  686MOL0     C92521   6.572   4.479   6.510  0.1844 -0.0832  0.2665
  686MOL0     O92522   6.401   4.701   6.355  0.9157 -0.0884  0.0326
  686MOL0     C92523   6.105   4.654   6.549  0.6137 -0.6436  1.0690
  686MOL0     C92524   5.966   4.664   6.543  0.4805 -1.1102  0.4368
  686MOL0     N92525   5.160   4.616   6.261 -0.2366 -0.0461  0.7522
  686MOL0     N92526   5.063   4.533   6.288 -0.8503 -0.5441 -0.0138
  686MOL0     C92527   3.893   4.663   6.346  0.3039  0.0598 -1.5393
  686MOL0     C92528   3.765   4.661   6.299 -0.0704 -0.7789  0.2152
  686MOL0     C92529   3.341   4.607   6.168  0.5212 -0.4626 -0.0252
  686MOL0     C92530   3.261   4.565   6.279 -0.3277  0.0135 -0.0060
  686MOL0     C92531   3.119   4.562   6.266 -0.1975  1.0707 -0.3695
  686MOL0     C92532   3.053   4.597   6.146  0.3092 -0.6902  0.6217
  686MOL0     O92533   2.915   4.583   6.150 -0.1217  0.2780  0.0543
  686MOL0     C92534   2.842   4.562   6.025  0.3030 -1.2230 -0.6433
  686MOL0     C92535   2.709   4.483   6.045  0.5085  0.2692  0.2055
  686MOL0     C92536   2.585   4.567   6.049 -0.4465 -0.1261 -0.4449
  686MOL0     C92537   2.523   4.586   5.912 -0.7076 -0.8757  0.0607
  686MOL0     C92538   2.401   4.668   5.928 -1.1439 -0.0399  0.0416
  686MOL0     C92539   2.309   4.744   5.923  0.3373 -0.4232  0.0289
  686MOL0     C92540   3.121   4.650   6.040 -0.0808  0.1426 -0.0166
  686MOL0     C92541   3.265   4.660   6.054  0.2464 -0.4216  0.3282
  686MOL0     C92542   3.333   4.706   5.920  0.0738  0.2899  0.3661
  686MOL0     H92543   3.675   4.361   6.415  2.2531 -1.2613 -0.3916
  686MOL0     H92544   3.910   4.360   6.476  2.3467  0.9916 -0.1703
  686MOL0     H92545   4.176   4.710   6.366 -2.6428  0.6684 -0.4277
  686MOL0     H92546   4.140   4.745   6.527  2.3652  2.0608 -0.4201
  686MOL0     H92547   4.316   4.495   6.465 -1.8619  1.2419 -4.3902
  686MOL0     H92548   4.311   4.578   6.614 -0.9930 -1.4442 -0.9091
  686MOL0     H92549   4.407   4.775   6.508 -3.4545 -1.1437 -0.1213
  686MOL0     H92550   4.421   4.684   6.356  1.5436 -1.1009 -0.9283
  686MOL0     H92551   4.561   4.618   6.610 -0.3375  0.8098  0.0319
  686MOL0     H92552   4.561   4.504   6.477  5.0917 -0.1514  1.7014
  686MOL0     H92553   4.681   4.729   6.351 -1.6493  2.5691  0.3129
  686MOL0     H92554   4.667   4.799   6.514  1.6827  2.1620 -2.5943
  686MOL0     H92555   4.887   4.709   6.444  0.6182  0.3331  0.8899
  686MOL0     H92556   4.821   4.660   6.598 -0.7124  3.4727 -0.3907
  686MOL0     H92557   4.789   4.491   6.357 -1.7334 -1.1068  1.0971
  686MOL0     H92558   4.745   4.458   6.520 -1.9474  0.9626 -2.7125
  686MOL0     H92559   4.987   4.461   6.605 -0.0808  2.0526 -0.1971
  686MOL0     H92560   4.971   4.340   6.469  0.8859  0.5450 -0.0584
  686MOL0     H92561   5.186   4.596   6.592  0.7731  1.5130  0.5829
  686MOL0     H92562   5.307   4.832   6.309 -0.5032 -1.2343 -1.1750
  686MOL0     H92563   5.295   4.822   6.482 -0.5828 -1.4531  0.1377
  686MOL0     H92564   5.495   4.664   6.486  2.6411 -0.2064 -0.6917
  686MOL0     H92565   5.487   4.660   6.309 -0.6518  1.6270 -0.4592
  686MOL0     H92566   5.569   4.868   6.501  1.4158  1.4897  0.6516
  686MOL0     H92567   5.517   4.915   6.337  0.4683 -0.2214  0.4608
  686MOL0     H92568   5.754   4.894   6.323 -3.2240  1.3168 -2.0823
  686MOL0     H92569   5.678   4.742   6.246 -1.6283  3.2324 -1.9921
  686MOL0     H92570   5.935   4.771   6.220 -0.1171 -3.2566 -2.3851
  686MOL0     H92571   6.193   4.749   6.223  0.5635  1.5270  0.2234
  686MOL0     H92572   6.508   4.722   6.734 -0.0382 -0.2186 -0.6415
  686MOL0     H92573   6.750   4.692   6.780  2.0382 -0.6106  0.2936
  686MOL0     H92574   6.922   4.356   6.757 -0.5950  1.7794  1.4608
  686MOL0     H92575   6.939   4.340   6.583 -2.0628 -2.4903  2.8995
  686MOL0     H92576   7.153   4.292   6.670  0.7581  1.6861 -3.2317
  686MOL0     H92577   7.176   4.444   6.602  1.0363 -3.3746 -2.4225
  686MOL0     H92578   7.163   4.570   6.818 -0.7847  0.0966  1.3838
  686MOL0     H92579   7.104   4.422   6.892 -0.0796 -0.3558 -0.6358
  686MOL0     H92580   7.381   4.462   6.789  1.4503  0.3948  0.4666
  686MOL0     H92581   7.322   4.317   6.848 -2.8412  0.1015 -0.8001
  686MOL0     H92582   7.252   4.424   7.067  0.7913  0.5290  1.0892
  686MOL0     H92583   7.334   4.574   7.017  1.8275  0.1983  1.6104
  686MOL0     H92584   7.458   4.308   7.047 -2.7235  1.2768 -1.2750
  686MOL0     H92585   7.549   4.446   6.997 -1.4861  2.4578 -1.8464
  686MOL0     H92586   7.439   4.366   7.261 -1.2026  0.4526  1.1346
  686MOL0     H92587   7.434   4.542   7.237  3.9813  1.6636  0.6818
  686MOL0     H92588   7.694   4.375   7.210  1.4584  1.7590  0.4068
  686MOL0     H92589   7.673   4.544   7.165 -1.0168  0.4346  0.4857
  686MOL0     H92590   6.769   4.409   6.465 -0.3239 -0.2509  1.1905
  686MOL0     H92591   6.520   4.416   6.438 -1.9597  0.2386  1.4533
  686MOL0     H92592   6.162   4.619   6.635  1.6382  1.8452  1.4997
  686MOL0     H92593   5.901   4.630   6.623 -1.4642  0.0305 -0.5715
  686MOL0     H92594   3.959   4.749   6.337  1.7821 -1.1812 -3.9794
  686MOL0     H92595   3.733   4.754   6.251  2.2853  0.7194  1.3693
  686MOL0     H92596   3.309   4.542   6.373 -1.0955  0.6742  0.5636
  686MOL0     H92597   3.071   4.517   6.352  0.3409 -0.1119 -0.6707
  686MOL0     H92598   2.899   4.504   5.952 -1.2047 -1.2369 -1.8572
  686MOL0     H92599   2.820   4.659   5.981 -0.9274  0.2874  2.9216
  686MOL0     H92600   2.717   4.438   6.144 -0.6044 -0.7461 -0.1514
  686MOL0     H92601   2.694   4.403   5.972  2.4895 -0.2736  0.3347
  686MOL0     H92602   2.608   4.668   6.084 -1.0329 -0.0062 -0.4011
  686MOL0     H92603   2.512   4.515   6.112 -0.9320  0.9303 -0.1086
  686MOL0     H92604   2.589   4.614   5.830 -1.9424  0.1598 -0.6016
  686MOL0     H92605   2.478   4.489   5.885 -0.0791 -0.9195 -0.8623
  686MOL0     H92606   2.219   4.803   5.928 -0.7123 -1.8696 -0.9636
  686MOL0     H92607   3.083   4.698   5.950 -0.0769  0.0067 -0.0906
  686MOL0     H92608   3.407   4.632   5.889 -0.8215 -1.2693  1.7618
  686MOL0     H92609   3.260   4.720   5.840  1.5513  0.0747 -1.0618
  686MOL0     H92610   3.387   4.801   5.934 -0.6002  0.6943  0.2843
  687MOL0     O92611   1.006   4.402   3.618  0.2204 -0.4263 -0.4085
  687MOL0     C92612   0.887   4.418   3.661  0.4275 -0.5132  0.4109
  687MOL0     O92613   0.848   4.399   3.789 -0.5355  0.2882  0.0339
  687MOL0     C92614   0.931   4.402   3.899 -0.8464  0.3103 -0.1891
  687MOL0     C92615   1.067   4.448   3.906 -0.0158  0.3209 -0.1959
  687MOL0     C92616   1.131   4.462   4.035  0.0363  0.0929 -0.2824
  687MOL0     C92617   1.067   4.423   4.153  0.1253 -0.0045 -0.4303
  687MOL0     O92618   1.135   4.415   4.273 -0.2271  0.0997 -0.5994
  687MOL0     C92619   1.081   4.339   4.386 -0.0388 -0.6178  0.0407
  687MOL0     C92620   1.152   4.388   4.515  0.5831  0.2996 -0.7888
  687MOL0     C92621   1.298   4.362   4.505  0.0839  0.3146 -0.2471
  687MOL0     C92622   1.331   4.215   4.498 -0.2268 -0.6021  1.0151
  687MOL0     C92623   1.485   4.187   4.487 -0.2433  0.5863 -0.3833
  687MOL0     C92624   1.516   4.042   4.445 -0.5028 -0.3697  0.1711
  687MOL0     C92625   1.667   4.036   4.455  0.0955 -0.6395 -0.6398
  687MOL0     C92626   1.723   3.904   4.424  0.5834 -0.0702  0.1159
  687MOL0     N92627   1.863   3.906   4.398  0.4022 -0.3918  0.8309
  687MOL0     C92628   1.953   3.847   4.470 -0.5669  1.4725 -0.3266
  687MOL0     C92629   2.067   3.859   4.399 -0.6571  0.2612  0.0984
  687MOL0     C92630   2.202   3.806   4.432  0.3044 -0.2038  0.3306
  687MOL0     C92631   2.251   3.692   4.343 -0.1479  0.7922 -0.0038
  687MOL0     C92632   2.395   3.641   4.389  0.8172 -0.2463 -0.2043
  687MOL0     C92633   2.443   3.532   4.295  0.5129  0.3824 -0.3967
  687MOL0     O92634   2.500   3.607   4.181 -0.7022  0.5219  0.4905
  687MOL0     C92635   2.635   3.641   4.192 -0.4378 -0.0276  0.0380
  687MOL0     C92636   2.738   3.573   4.253 -1.0283  0.0853 -0.2492
  687MOL0     C92637   2.868   3.625   4.250 -0.6250 -0.0151  0.7326
  687MOL0     C92638   2.895   3.747   4.185  0.0512  0.3728 -0.1345
  687MOL0     C92639   3.032   3.801   4.187  0.1611  0.9884  0.2787
  687MOL0     O92640   3.129   3.736   4.260 -0.1896 -0.3640 -0.4618
  687MOL0     C92641   3.256   3.781   4.276 -0.1995  0.0688 -0.5888
  687MOL0     C92642   3.320   3.779   4.400 -0.0966 -0.0626  0.5659
  687MOL0     C92643   3.452   3.816   4.422  0.5934 -1.0086  1.5042
  687MOL0     C92644   3.535   3.861   4.321  0.0267  0.2077 -0.9540
  687MOL0     O92645   3.670   3.863   4.349 -0.1770 -0.1958  0.4943
  687MOL0     C92646   3.754   3.905   4.239  0.6066  0.4907  0.1606
  687MOL0     C92647   3.905   3.923   4.292  0.2970 -0.2112 -0.6047
  687MOL0     C92648   3.988   3.998   4.190 -0.2150 -0.0308 -0.6510
  687MOL0     C92649   4.099   4.083   4.245 -0.3644 -1.0641 -0.6403
  687MOL0     C92650   4.227   4.009   4.295  0.5077 -0.2504 -0.6511
  687MOL0     C92651   4.323   4.118   4.348  0.4976  0.3442 -0.2748
  687MOL0     C92652   4.411   4.194   4.238 -0.3410 -0.1761  0.5246
  687MOL0     C92653   4.488   4.314   4.290  0.2063 -0.4914 -0.2701
  687MOL0    Cl92654   4.379   4.447   4.334  0.2180 -0.3334  0.1125
  687MOL0     C92655   3.478   3.860   4.191 -0.0788  0.4254 -0.3687
  687MOL0     C92656   3.336   3.838   4.166 -0.2145  0.1976 -0.3025
  687MOL0     O92657   3.055   3.901   4.115  0.2745 -0.4188 -0.1378
  687MOL0     C92658   2.794   3.810   4.120  0.3102  0.2765  0.5338
  687MOL0     C92659   2.665   3.762   4.136  1.0118  0.2762 -0.7190
  687MOL0     N92660   2.044   3.936   4.294 -0.0699  0.1217  0.5336
  687MOL0     N92661   1.924   3.961   4.292 -0.1683  0.4157 -0.0650
  687MOL0     C92662   0.932   4.386   4.146 -1.1291 -0.7536 -0.2357
  687MOL0     C92663   0.877   4.370   4.021 -0.2046 -0.0802 -0.2971
  687MOL0     C92664   0.777   4.446   3.564  0.0357 -0.2206 -0.5609
  687MOL0     C92665   0.640   4.453   3.616  0.4518  0.7581  0.5337
  687MOL0     C92666   0.528   4.486   3.536 -0.0241  0.3884  0.0028
  687MOL0     C92667   0.544   4.502   3.401  0.0565  0.5799 -0.6903
  687MOL0     O92668   0.447   4.532   3.309  0.1829  0.6177  0.0754
  687MOL0     C92669   0.312   4.522   3.342 -0.1542 -0.7999 -0.0880
  687MOL0     C92670   0.275   4.370   3.345  0.5145 -0.4582 -0.2520
  687MOL0     C92671   0.124   4.356   3.352 -0.3225 -0.4394  0.4936
  687MOL0     C92672   0.085   4.202   3.342  0.2429 -0.4205  0.5198
  687MOL0     C92673  -0.054   4.199   3.384 -0.2936 -0.5977 -0.7352
  687MOL0     C92674  -0.172   4.195   3.410 -0.1573  0.9779 -0.5474
  687MOL0     C92675   0.672   4.506   3.353  0.4496  0.7052  0.0229
  687MOL0     C92676   0.791   4.469   3.425 -0.6338  0.7721 -0.5252
  687MOL0     C92677   0.920   4.446   3.350 -0.3077 -0.2570 -0.2788
  687MOL0     H92678   1.124   4.477   3.818 -0.2023 -1.2318 -0.8608
  687MOL0     H92679   1.235   4.489   4.044  0.7806 -2.8887  1.7676
  687MOL0     H92680   0.978   4.372   4.401  0.3637  1.4443 -1.4008
  687MOL0     H92681   1.094   4.231   4.379 -2.7432 -1.0602  0.5059
  687MOL0     H92682   1.112   4.336   4.602  0.9102 -0.5505 -1.1357
  687MOL0     H92683   1.125   4.493   4.528 -0.6022 -0.1662  0.8500
  687MOL0     H92684   1.355   4.406   4.587  0.9945  0.6727 -1.0433
  687MOL0     H92685   1.336   4.415   4.417  0.3492 -0.2308 -0.4684
  687MOL0     H92686   1.296   4.151   4.579 -1.7046 -0.4510  0.5265
  687MOL0     H92687   1.300   4.171   4.402  0.6110  1.4982 -0.2999
  687MOL0     H92688   1.532   4.254   4.415 -1.0359  1.1113 -0.4234
  687MOL0     H92689   1.520   4.213   4.588 -0.0707  1.1081 -0.5735
  687MOL0     H92690   1.470   3.960   4.501  2.2606 -2.0969  0.1408
  687MOL0     H92691   1.483   4.028   4.342  0.6696  1.7529 -0.5506
  687MOL0     H92692   1.703   4.068   4.553  0.3652 -0.3165 -0.8441
  687MOL0     H92693   1.713   4.106   4.386 -0.8126  0.5546 -0.0669
  687MOL0     H92694   1.696   3.846   4.512  0.3035  0.1228  0.1587
  687MOL0     H92695   1.676   3.863   4.334 -0.1402  0.0102  0.4494
  687MOL0     H92696   1.931   3.794   4.563 -1.8236  1.3182 -0.6927
  687MOL0     H92697   2.279   3.880   4.411  0.1071 -0.4287 -1.3698
  687MOL0     H92698   2.199   3.769   4.535 -0.5448 -2.1672 -0.3354
  687MOL0     H92699   2.180   3.610   4.352 -1.4994  1.8313 -0.8994
  687MOL0     H92700   2.250   3.727   4.239 -3.0198 -0.4291 -0.4640
  687MOL0     H92701   2.386   3.598   4.489  0.8466  0.3582  0.0574
  687MOL0     H92702   2.466   3.724   4.391  1.6252 -0.8608 -1.6992
  687MOL0     H92703   2.363   3.464   4.263  1.6414  0.0086 -2.6305
  687MOL0     H92704   2.514   3.478   4.357 -1.0455  0.9604  2.0157
  687MOL0     H92705   2.724   3.479   4.304 -0.0400  0.8733  1.5734
  687MOL0     H92706   2.944   3.579   4.312 -1.9843 -0.8357  1.8385
  687MOL0     H92707   3.256   3.749   4.483 -1.7379  2.3977  0.3183
  687MOL0     H92708   3.488   3.779   4.517  2.3858  0.4071  1.4301
  687MOL0     H92709   3.749   3.817   4.174  0.0414  0.6990 -0.0798
  687MOL0     H92710   3.714   3.990   4.184 -0.0498 -0.7058 -1.2714
  687MOL0     H92711   3.888   3.987   4.379 -0.8854 -3.3182  1.6553
  687MOL0     H92712   3.955   3.831   4.326 -1.0661 -1.7578 -2.5327
  687MOL0     H92713   4.026   3.947   4.100  2.7291  0.0899  0.4023
  687MOL0     H92714   3.915   4.073   4.159 -2.4413 -2.3260 -1.2658
  687MOL0     H92715   4.069   4.147   4.328  1.3851 -2.8197  1.4933
  687MOL0     H92716   4.134   4.151   4.167  1.2564 -0.0220  0.9315
  687MOL0     H92717   4.281   3.949   4.221  0.1928 -1.4573  0.0826
  687MOL0     H92718   4.200   3.948   4.381 -1.8465  0.0145 -1.1528
  687MOL0     H92719   4.266   4.195   4.400 -0.0547 -1.0823  1.3254
  687MOL0     H92720   4.390   4.070   4.419 -0.4159  0.0338  0.3891
  687MOL0     H92721   4.351   4.212   4.148  3.1286  0.8594 -1.7797
  687MOL0     H92722   4.493   4.132   4.202  0.9594  0.1156  2.7848
  687MOL0     H92723   4.539   4.279   4.381  2.7535 -1.3464 -1.9163
  687MOL0     H92724   4.563   4.351   4.220  1.8024  1.1775  2.1426
  687MOL0     H92725   3.528   3.859   4.095  1.5606  2.1566  0.4178
  687MOL0     H92726   3.284   3.842   4.070 -1.1556 -1.8397  0.0468
  687MOL0     H92727   2.804   3.900   4.060 -2.8783  2.0308  2.4110
  687MOL0     H92728   2.598   3.824   4.076 -1.4076 -1.6982 -0.2142
  687MOL0     H92729   0.879   4.351   4.233  1.3222 -1.9607  0.8693
  687MOL0     H92730   0.775   4.334   4.022  0.4829 -2.1229  0.3354
  687MOL0     H92731   0.618   4.451   3.722 -1.6434  3.4547  0.2837
  687MOL0     H92732   0.427   4.486   3.577  0.1075  0.8533  0.3369
  687MOL0     H92733   0.255   4.582   3.271  1.2376  1.1722  0.3848
  687MOL0     H92734   0.295   4.572   3.438  1.0961  0.0615 -0.2992
  687MOL0     H92735   0.312   4.331   3.441  1.9773  1.3338 -0.0255
  687MOL0     H92736   0.317   4.308   3.265  1.8317 -0.2990  0.2819
  687MOL0     H92737   0.068   4.412   3.277  1.1068 -1.1430 -1.1502
  687MOL0     H92738   0.080   4.395   3.444 -0.5660 -0.0662  0.2218
  687MOL0     H92739   0.093   4.162   3.240  0.8403  0.8508  0.0382
  687MOL0     H92740   0.153   4.141   3.402 -0.5132 -3.3284 -1.3767
  687MOL0     H92741  -0.278   4.207   3.425  0.4139  2.9007  2.9942
  687MOL0     H92742   0.685   4.532   3.248  1.0374  2.4738  0.4949
  687MOL0     H92743   1.002   4.510   3.384 -2.1021  1.0974  1.8125
  687MOL0     H92744   0.950   4.344   3.374  0.8585 -0.2123 -1.4265
  687MOL0     H92745   0.903   4.451   3.242 -3.4485 -1.5883  0.0553
  688MOL0     O92746   1.594   0.690   3.436  0.4341 -0.6580 -0.0113
  688MOL0     C92747   1.585   0.567   3.434 -0.2306  0.2379 -0.4273
  688MOL0     O92748   1.692   0.481   3.463 -0.1490  0.4439 -0.4714
  688MOL0     C92749   1.810   0.541   3.489 -0.0837 -1.2324 -0.3796
  688MOL0     C92750   1.868   0.547   3.614 -0.2237  0.3431  0.1569
  688MOL0     C92751   1.997   0.588   3.638  0.2369  0.0837  0.5668
  688MOL0     C92752   2.072   0.644   3.539 -0.6564  1.0585 -0.2986
  688MOL0     O92753   2.191   0.698   3.575 -0.7183 -0.2024 -0.2235
  688MOL0     C92754   2.282   0.765   3.487  0.0884 -0.4744 -0.0491
  688MOL0     C92755   2.387   0.838   3.561 -0.0060  0.2627  0.1152
  688MOL0     C92756   2.488   0.742   3.622 -0.4946  0.1116  0.0527
  688MOL0     C92757   2.620   0.746   3.545  0.5860  0.6964  0.4199
  688MOL0     C92758   2.732   0.673   3.622  0.0629 -0.5681  0.4626
  688MOL0     C92759   2.872   0.704   3.577 -0.1807 -0.1969 -0.4828
  688MOL0     C92760   2.989   0.659   3.683 -0.1814 -0.0366 -0.4526
  688MOL0     C92761   3.002   0.514   3.677  0.2205 -0.4428 -0.2088
  688MOL0     N92762   3.054   0.475   3.542  0.4985 -0.4222  0.4436
  688MOL0     C92763   3.162   0.541   3.482 -0.0585  0.0870  0.2977
  688MOL0     C92764   3.162   0.488   3.362 -0.2428 -0.3700 -0.7563
  688MOL0     C92765   3.255   0.543   3.253  0.3495  0.6353  0.6727
  688MOL0     C92766   3.394   0.473   3.253 -0.0479 -0.0489 -1.0149
  688MOL0     C92767   3.378   0.335   3.199  0.2802 -0.3687 -0.2371
  688MOL0     C92768   3.508   0.251   3.214  0.5253 -0.0210 -0.5578
  688MOL0     O92769   3.545   0.257   3.355  0.6336  0.2489 -0.5452
  688MOL0     C92770   3.660   0.195   3.396 -0.2512  0.2364  0.7476
  688MOL0     C92771   3.738   0.125   3.307 -0.5920  0.1471 -0.0430
  688MOL0     C92772   3.853   0.059   3.355 -0.4770  0.4987 -0.4653
  688MOL0     C92773   3.908   0.085   3.481  0.0175 -1.4739  0.3373
  688MOL0     C92774   4.045   0.044   3.515 -0.2358 -0.2096  0.1783
  688MOL0     O92775   4.114  -0.039   3.417  0.1242 -0.0594 -0.8029
  688MOL0     C92776   4.240  -0.072   3.450  0.9095  0.0814  0.4243
  688MOL0     C92777   4.351   0.010   3.412 -0.9138  0.3296 -0.8080
  688MOL0     C92778   4.481  -0.029   3.449 -0.3788  0.0388 -0.2768
  688MOL0     C92779   4.506  -0.162   3.496 -0.0462  0.1949  0.1702
  688MOL0     O92780   4.638  -0.203   3.524 -0.3377 -0.1852 -0.0109
  688MOL0     C92781   4.655  -0.307   3.613  0.1490  0.4316 -0.4514
  688MOL0     C92782   4.791  -0.294   3.687 -0.6016 -0.2782 -0.1979
  688MOL0     C92783   4.911  -0.277   3.587 -0.9353 -0.1703 -0.1961
  688MOL0     C92784   5.048  -0.265   3.664 -0.0846  0.5618 -0.8495
  688MOL0     C92785   5.127  -0.397   3.644 -0.9655 -0.1479  0.7104
  688MOL0     C92786   5.238  -0.420   3.749 -1.4915  0.0792  0.7339
  688MOL0     C92787   5.315  -0.544   3.708 -0.2774  0.8068 -0.3641
  688MOL0     C92788   5.421  -0.588   3.809 -1.0405 -0.6002 -0.5010
  688MOL0    Cl92789   5.558  -0.476   3.801  0.1375 -0.0480 -0.4998
  688MOL0     C92790   4.398  -0.241   3.522  0.6686 -0.5079  0.2233
  688MOL0     C92791   4.264  -0.196   3.499 -0.3375 -0.2961 -0.2407
  688MOL0     O92792   4.090   0.079   3.623  0.0790  0.3250  0.1358
  688MOL0     C92793   3.834   0.175   3.564  0.2313  0.8666 -0.0053
  688MOL0     C92794   3.703   0.220   3.524 -0.1929  0.0490 -1.0174
  688MOL0     N92795   3.077   0.387   3.345 -0.0059  0.1737  0.0247
  688MOL0     N92796   3.005   0.378   3.453 -0.4512  0.0491  0.6089
  688MOL0     C92797   2.012   0.649   3.413 -0.2504 -0.1618  0.6333
  688MOL0     C92798   1.889   0.591   3.383  0.0387  0.6107  1.1524
  688MOL0     C92799   1.458   0.493   3.406  0.4913 -0.2530  0.1307
  688MOL0     C92800   1.428   0.381   3.481 -0.3680 -0.3627 -0.7756
  688MOL0     C92801   1.313   0.308   3.458 -0.0557  0.1997 -0.6798
  688MOL0     C92802   1.224   0.338   3.355  0.6353  0.1512 -0.0639
  688MOL0     O92803   1.108   0.264   3.351 -0.5668 -0.6718 -0.7665
  688MOL0     C92804   1.038   0.255   3.230  0.1911 -0.0092  0.3871
  688MOL0     C92805   0.940   0.370   3.199  1.3141  0.4290  0.3625
  688MOL0     C92806   0.809   0.338   3.278  0.0219 -0.2800  0.2555
  688MOL0     C92807   0.694   0.430   3.251 -0.6134  0.5054  0.0176
  688MOL0     C92808   0.650   0.402   3.110 -0.5907  0.1179 -0.3334
  688MOL0     C92809   0.600   0.380   3.004 -0.5263 -0.8852 -0.2031
  688MOL0     C92810   1.248   0.459   3.285 -0.2618  0.8696  0.8821
  688MOL0     C92811   1.365   0.534   3.305 -0.7915 -0.2425  1.0933
  688MOL0     C92812   1.371   0.671   3.231  0.1702  0.1643 -0.4958
  688MOL0     H92813   1.811   0.516   3.700  1.6080 -0.1572  1.2501
  688MOL0     H92814   2.040   0.597   3.738  0.0231 -0.2292  0.6881
  688MOL0     H92815   2.326   0.695   3.415 -0.1246 -1.9435  1.1826
  688MOL0     H92816   2.227   0.842   3.433  0.7900  0.0483 -0.0255
  688MOL0     H92817   2.328   0.888   3.638 -0.0629 -2.3262  1.8899
  688MOL0     H92818   2.440   0.905   3.493  1.0637 -2.3143 -1.7746
  688MOL0     H92819   2.456   0.638   3.612 -2.0261  0.2672  2.4636
  688MOL0     H92820   2.506   0.765   3.727  0.1681 -0.1025 -0.0129
  688MOL0     H92821   2.605   0.718   3.441  2.9868 -1.6753  0.6088
  688MOL0     H92822   2.658   0.849   3.542  5.9370 -0.9200  0.9540
  688MOL0     H92823   2.724   0.702   3.727  0.1039 -1.3136  0.6727
  688MOL0     H92824   2.715   0.565   3.620  0.0949 -0.5689 -1.2704
  688MOL0     H92825   2.872   0.674   3.472 -3.5253  2.6983 -1.5139
  688MOL0     H92826   2.877   0.812   3.569 -0.8237 -0.2392 -1.6014
  688MOL0     H92827   2.966   0.695   3.784 -2.2412  0.4168 -1.0247
  688MOL0     H92828   3.082   0.706   3.651  2.5534 -5.9931 -2.8374
  688MOL0     H92829   3.075   0.478   3.750  0.0274 -2.0496 -0.7767
  688MOL0     H92830   2.910   0.458   3.694  0.7685 -0.7327  2.1651
  688MOL0     H92831   3.229   0.612   3.529  1.4075 -2.6555  2.6647
  688MOL0     H92832   3.208   0.538   3.155 -2.3553  2.8655  1.7142
  688MOL0     H92833   3.273   0.651   3.259  0.2479  0.7827 -1.2281
  688MOL0     H92834   3.449   0.539   3.185 -1.4161  2.1273 -0.0926
  688MOL0     H92835   3.434   0.473   3.354  0.2364  0.3413 -1.1266
  688MOL0     H92836   3.351   0.342   3.093 -0.0863  0.6841 -0.0876
  688MOL0     H92837   3.296   0.283   3.251 -2.1369  1.8950 -1.5284
  688MOL0     H92838   3.581   0.293   3.144  1.4962  2.6251  1.8345
  688MOL0     H92839   3.497   0.144   3.199  1.2780 -0.6214  2.5385
  688MOL0     H92840   3.715   0.101   3.204  0.5300  0.4064 -0.3747
  688MOL0     H92841   3.889   0.005   3.268 -3.0551 -0.6602 -0.9030
  688MOL0     H92842   4.329   0.108   3.369 -2.7641  0.7899  1.0460
  688MOL0     H92843   4.567   0.032   3.424 -1.4015  1.5060 -0.3784
  688MOL0     H92844   4.569  -0.312   3.680 -1.4984 -2.8744 -2.5406
  688MOL0     H92845   4.660  -0.401   3.558  0.8050 -0.0279  0.3757
  688MOL0     H92846   4.790  -0.212   3.760 -0.2091 -0.3940 -0.0624
  688MOL0     H92847   4.810  -0.390   3.735 -0.7141  0.0394  0.4952
  688MOL0     H92848   4.915  -0.365   3.522 -0.5840 -0.5622  0.3539
  688MOL0     H92849   4.889  -0.189   3.526 -1.2437 -0.3378 -0.3298
  688MOL0     H92850   5.032  -0.255   3.771 -3.7619 -0.7350 -1.1372
  688MOL0     H92851   5.112  -0.183   3.629  0.4941  1.3184  1.8095
  688MOL0     H92852   5.168  -0.402   3.543 -0.4286  0.5426  0.8825
  688MOL0     H92853   5.058  -0.481   3.661 -0.4898 -0.8422 -0.6749
  688MOL0     H92854   5.301  -0.331   3.752  0.0197 -0.8336 -1.1484
  688MOL0     H92855   5.187  -0.433   3.845 -0.6012 -1.7379  1.0094
  688MOL0     H92856   5.375  -0.523   3.619 -1.1371 -1.5170 -1.5605
  688MOL0     H92857   5.246  -0.627   3.690  3.0715 -3.0094  2.4845
  688MOL0     H92858   5.389  -0.608   3.912 -0.3203 -1.3663 -0.4175
  688MOL0     H92859   5.454  -0.688   3.780 -2.0099 -1.4274  1.0927
  688MOL0     H92860   4.399  -0.345   3.555 -3.5664 -1.2829 -1.4146
  688MOL0     H92861   4.175  -0.252   3.524 -0.2957  0.2039  1.1160
  688MOL0     H92862   3.867   0.191   3.666 -0.3019  1.0588  0.1367
  688MOL0     H92863   3.640   0.266   3.600 -1.9116 -2.4624 -0.8020
  688MOL0     H92864   2.062   0.692   3.327 -1.3421 -1.4256 -0.6863
  688MOL0     H92865   1.844   0.590   3.284  1.7128 -1.6946  0.3100
  688MOL0     H92866   1.499   0.358   3.559 -1.3582  1.3107  0.6967
  688MOL0     H92867   1.289   0.220   3.517 -2.3907 -0.8164 -2.9662
  688MOL0     H92868   0.981   0.162   3.226  0.1516 -0.0180 -4.0054
  688MOL0     H92869   1.110   0.251   3.148  0.8408  2.3997  0.7576
  688MOL0     H92870   0.916   0.368   3.092 -0.1100  0.8448  0.6429
  688MOL0     H92871   0.968   0.475   3.208 -1.7762  1.4312 -0.2796
  688MOL0     H92872   0.822   0.349   3.386  0.0784  0.9171  0.1466
  688MOL0     H92873   0.785   0.233   3.261  0.2014 -0.4111  0.7940
  688MOL0     H92874   0.607   0.410   3.314 -0.0160  0.3482  0.7921
  688MOL0     H92875   0.730   0.532   3.268  2.6398 -0.4927 -0.2213
  688MOL0     H92876   0.575   0.371   2.900  1.6884  0.2361 -0.9031
  688MOL0     H92877   1.167   0.501   3.227 -0.2750  1.4524  1.3126
  688MOL0     H92878   1.275   0.688   3.181  0.0945  1.4144  0.0296
  688MOL0     H92879   1.381   0.755   3.301 -3.8654  0.7621 -0.3573
  688MOL0     H92880   1.462   0.678   3.171  1.2474 -1.4077  0.8702
  689MOL0     O92881  11.322  10.043   3.529  0.2430  0.1008 -0.2250
  689MOL0     C92882  11.292   9.961   3.619  0.0216 -0.2330  0.5716
  689MOL0     O92883  11.345   9.958   3.742  0.1155  0.0938  0.0615
  689MOL0     C92884  11.435  10.056   3.772  0.7491  0.8092  0.5506
  689MOL0     C92885  11.567  10.037   3.764  0.1394 -1.1294 -0.3190
  689MOL0     C92886  11.663  10.128   3.810  0.4697  0.2670 -0.4459
  689MOL0     C92887  11.626  10.256   3.854 -0.3094  0.3563 -0.5728
  689MOL0     O92888  11.709  10.370   3.874 -0.1592 -0.0830 -0.2273
  689MOL0     C92889  11.839  10.372   3.811  0.1344  0.0771  0.1673
  689MOL0     C92890  11.838  10.414   3.665 -0.7696 -0.3591  0.5244
  689MOL0     C92891  11.980  10.419   3.604  0.0222  0.2399  0.5094
  689MOL0     C92892  11.971  10.475   3.457  0.0658 -0.4847 -0.7706
  689MOL0     C92893  12.112  10.502   3.401 -0.1662 -0.1106  0.4478
  689MOL0     C92894  12.190  10.623   3.453 -0.8892 -0.2575 -1.0024
  689MOL0     C92895  12.341  10.621   3.471 -0.6185  0.6386  1.0964
  689MOL0     C92896  12.411  10.549   3.355 -0.1880  0.4326 -0.4953
  689MOL0     N92897  12.552  10.572   3.380  0.1481 -0.3771 -0.5986
  689MOL0     C92898  12.606  10.690   3.334 -0.5177  1.2868  0.0375
  689MOL0     C92899  12.733  10.687   3.365  0.2031  0.4394 -0.0087
  689MOL0     C92900  12.831  10.788   3.322 -0.2395  0.5716  0.6984
  689MOL0     C92901  12.840  10.787   3.168 -0.2362 -0.1316 -0.0255
  689MOL0     C92902  12.925  10.890   3.115 -0.1072 -0.6153 -0.5315
  689MOL0     C92903  13.081  10.858   3.125  0.6107  0.5806  0.3887
  689MOL0     O92904  13.154  10.965   3.065  0.7511  0.6753 -0.4526
  689MOL0     C92905  13.294  10.958   3.075  0.3624 -0.5723  0.2844
  689MOL0     C92906  13.358  11.086   3.062 -0.3219 -0.0142  0.2547
  689MOL0     C92907  13.495  11.101   3.086 -0.2170 -0.0591 -0.5134
  689MOL0     C92908  13.571  10.986   3.120 -0.0569  0.4619 -0.3735
  689MOL0     C92909  13.719  10.999   3.138 -0.3511 -0.0661  0.2502
  689MOL0     O92910  13.776  11.118   3.105  0.1200  0.3550  0.3281
  689MOL0     C92911  13.916  11.126   3.122  0.4877 -0.2866  0.2732
  689MOL0     C92912  13.967  11.233   3.188  1.2167  0.2249 -0.3305
  689MOL0     C92913  14.102  11.269   3.188 -0.6454  0.0257  0.6493
  689MOL0     C92914  14.199  11.183   3.133  0.5779  0.4958  0.2175
  689MOL0     O92915  14.334  11.199   3.138  0.1683  0.4703 -0.5525
  689MOL0     C92916  14.382  11.278   3.250 -0.8787 -0.2737  0.4011
  689MOL0     C92917  14.531  11.285   3.264  0.4211  0.4976  0.0391
  689MOL0     C92918  14.605  11.151   3.287  1.2086 -0.0726  0.6045
  689MOL0     C92919  14.758  11.182   3.269  0.4812 -0.5868 -0.6981
  689MOL0     C92920  14.843  11.061   3.322  0.3877 -0.1211 -0.4474
  689MOL0     C92921  14.983  11.093   3.293 -0.1505 -0.2471 -0.3790
  689MOL0     C92922  15.074  10.964   3.283 -0.4111 -0.0675 -0.3119
  689MOL0     C92923  15.223  10.982   3.306  1.2358 -0.0307  0.0026
  689MOL0    Cl92924  15.297  11.085   3.176 -0.0659 -0.1123 -0.3638
  689MOL0     C92925  14.145  11.071   3.059  0.0396  0.6577 -0.2303
  689MOL0     C92926  14.007  11.048   3.051  0.2111 -0.0483 -0.0367
  689MOL0     O92927  13.780  10.906   3.199 -0.1096 -0.5650  0.1078
  689MOL0     C92928  13.506  10.856   3.125 -0.3133  0.4431  0.3162
  689MOL0     C92929  13.369  10.848   3.098  0.0915  0.1786  0.8215
  689MOL0     N92930  12.759  10.565   3.429 -0.6804  0.0861 -0.0937
  689MOL0     N92931  12.649  10.499   3.438  0.0757  0.4109  0.0385
  689MOL0     C92932  11.490  10.274   3.864 -0.0237 -0.3071 -0.3055
  689MOL0     C92933  11.399  10.175   3.834 -0.4848 -0.3908 -0.2483
  689MOL0     C92934  11.186   9.861   3.585 -0.4467  0.2593 -0.1951
  689MOL0     C92935  11.137   9.867   3.452  0.2630 -0.0440 -0.0585
  689MOL0     C92936  11.046   9.772   3.419  0.4522  0.8785 -0.5368
  689MOL0     C92937  10.984   9.683   3.512  0.6738 -0.3280  0.7880
  689MOL0     O92938  10.884   9.601   3.479 -0.5463 -0.0045  0.5137
  689MOL0     C92939  10.799   9.616   3.364  0.1187  0.2503 -0.1499
  689MOL0     C92940  10.728   9.753   3.364  0.2862  0.3428  0.5124
  689MOL0     C92941  10.642   9.774   3.489 -0.4080  0.0517  0.1727
  689MOL0     C92942  10.596   9.651   3.575 -0.0039  0.0797 -0.4985
  689MOL0     C92943  10.491   9.679   3.683 -0.2075  0.1884 -0.1245
  689MOL0     C92944  10.412   9.710   3.771 -0.4982  0.5264  0.2872
  689MOL0     C92945  11.037   9.669   3.634 -0.5002  0.6412  0.4834
  689MOL0     C92946  11.139   9.758   3.677  0.2509 -1.3524  0.3896
  689MOL0     C92947  11.193   9.735   3.811 -0.2937 -0.4075 -1.2355
  689MOL0     H92948  11.604   9.942   3.725 -0.3271 -1.5530  0.2494
  689MOL0     H92949  11.766  10.097   3.795  0.5093 -0.6870  1.4887
  689MOL0     H92950  11.894  10.450   3.865 -1.4352  2.9173 -2.0315
  689MOL0     H92951  11.887  10.277   3.836 -1.1311 -0.1081  2.1291
  689MOL0     H92952  11.800  10.515   3.653 -0.2855 -0.2235  0.1250
  689MOL0     H92953  11.769  10.344   3.617 -2.4823  2.8975 -2.0987
  689MOL0     H92954  12.034  10.325   3.590 -1.4669 -0.3339 -1.8010
  689MOL0     H92955  12.045  10.482   3.666  0.5545 -1.6051  1.9537
  689MOL0     H92956  11.925  10.399   3.393 -0.7281 -1.3609  0.7733
  689MOL0     H92957  11.905  10.562   3.447 -2.0855 -1.8881  0.3321
  689MOL0     H92958  12.172  10.410   3.401 -0.3307 -0.2652 -1.7932
  689MOL0     H92959  12.099  10.513   3.293  0.0638 -2.5801  0.0956
  689MOL0     H92960  12.155  10.706   3.391 -2.6362 -0.0605  0.1841
  689MOL0     H92961  12.146  10.656   3.547 -3.5399 -2.6733 -1.2591
  689MOL0     H92962  12.370  10.570   3.563  2.7619  0.4889  0.0865
  689MOL0     H92963  12.377  10.724   3.472  2.0199 -0.2139  0.8701
  689MOL0     H92964  12.403  10.442   3.375  1.2680  0.7265  2.1414
  689MOL0     H92965  12.365  10.570   3.258 -2.1867  0.0927  0.3203
  689MOL0     H92966  12.569  10.765   3.265 -1.2972 -0.1654 -1.1694
  689MOL0     H92967  12.807  10.888   3.359  1.7647  1.4867 -0.3434
  689MOL0     H92968  12.932  10.764   3.356 -0.1014  0.3523  0.1431
  689MOL0     H92969  12.878  10.690   3.136  3.4647  0.3876  2.2423
  689MOL0     H92970  12.743  10.792   3.117  0.7721 -1.6928 -2.2609
  689MOL0     H92971  12.908  10.984   3.169 -1.4896 -1.5004  0.6579
  689MOL0     H92972  12.894  10.923   3.015 -0.0553  1.2510  0.0145
  689MOL0     H92973  13.096  10.757   3.085  1.8382 -0.5700  3.4866
  689MOL0     H92974  13.116  10.845   3.228  1.2696 -0.5680  0.0355
  689MOL0     H92975  13.293  11.169   3.036  2.6396  2.4581  0.1944
  689MOL0     H92976  13.539  11.199   3.097 -0.7683  0.2401 -0.8716
  689MOL0     H92977  13.902  11.309   3.231 -1.4617 -1.1912 -1.6019
  689MOL0     H92978  14.133  11.354   3.249 -2.5474 -0.8776  3.0334
  689MOL0     H92979  14.347  11.382   3.241  0.6797  0.4264  1.8540
  689MOL0     H92980  14.341  11.236   3.342 -3.4822  1.3474  0.0812
  689MOL0     H92981  14.566  11.336   3.174  0.5844 -1.4840 -1.0628
  689MOL0     H92982  14.557  11.345   3.352  2.3868 -2.7418  1.8374
  689MOL0     H92983  14.574  11.118   3.387 -2.0469 -0.3392 -0.3792
  689MOL0     H92984  14.579  11.082   3.206  1.2873 -0.6858  1.0970
  689MOL0     H92985  14.790  11.265   3.332  6.1736 -3.4555  0.9238
  689MOL0     H92986  14.776  11.196   3.163  1.2078 -1.2874 -0.6759
  689MOL0     H92987  14.811  10.972   3.267 -2.4376  0.0001  0.8675
  689MOL0     H92988  14.825  11.045   3.428  1.0841 -1.8590 -0.5475
  689MOL0     H92989  14.981  11.144   3.197 -0.3176 -0.2782 -0.3922
  689MOL0     H92990  15.021  11.156   3.375 -1.3294 -2.3523  1.9261
  689MOL0     H92991  15.063  10.937   3.178 -1.2127  1.7621 -0.7423
  689MOL0     H92992  15.036  10.893   3.358 -2.6236  0.9475 -0.3727
  689MOL0     H92993  15.223  11.036   3.402 -1.9873  5.1940 -2.4859
  689MOL0     H92994  15.261  10.880   3.317 -0.5597 -0.8231 -0.7298
  689MOL0     H92995  14.214  11.012   3.000  0.5717  1.1723 -0.1331
  689MOL0     H92996  13.971  10.965   2.992 -2.5161  0.5591  0.6484
  689MOL0     H92997  13.562  10.771   3.161  0.2719  0.0787 -1.3800
  689MOL0     H92998  13.317  10.753   3.093 -1.8556  1.0482  2.8666
  689MOL0     H92999  11.454  10.368   3.903  1.9178  0.8792 -1.2022
  689MOL0     H93000  11.292  10.195   3.831 -0.0321  2.2715 -1.1510
  689MOL0     H93001  11.157   9.944   3.379 -0.5314 -0.8497 -1.1531
  689MOL0     H93002  11.009   9.779   3.317  0.5389 -3.3007 -1.0140
  689MOL0     H93003  10.733   9.529   3.366  0.3694 -0.0000 -1.4121
  689MOL0     H93004  10.860   9.597   3.275 -0.7521 -0.5020 -0.6012
  689MOL0     H93005  10.675   9.773   3.270  0.2877 -0.0541  0.4281
  689MOL0     H93006  10.809   9.827   3.360 -0.2208  0.8699 -0.2944
  689MOL0     H93007  10.553   9.823   3.451  0.8563  1.0164 -1.6911
  689MOL0     H93008  10.699   9.839   3.557 -0.1172 -1.4465  1.4198
  689MOL0     H93009  10.549   9.581   3.505  1.3428 -0.9276 -0.4242
  689MOL0     H93010  10.689   9.616   3.619 -0.4455  0.8801  1.1592
  689MOL0     H93011  10.330   9.742   3.831 -0.3628  0.7943  0.3317
  689MOL0     H93012  10.986   9.599   3.699  0.9512 -0.6162  0.3055
  689MOL0     H93013  11.183   9.827   3.869  2.8651  0.5567 -1.9824
  689MOL0     H93014  11.137   9.660   3.868 -3.9442  3.0427  0.1233
  689MOL0     H93015  11.299   9.711   3.802  0.7714  2.4679  1.5752
  690MOL0     O93016   4.623   7.386   5.166 -0.5872  0.5120 -0.2539
  690MOL0     C93017   4.546   7.465   5.120  0.1794 -0.0514  0.4418
  690MOL0     O93018   4.572   7.587   5.058  0.4468 -0.5012 -0.8246
  690MOL0     C93019   4.699   7.623   5.023  0.3204  0.1736  0.7948
  690MOL0     C93020   4.806   7.545   4.997 -0.3750  0.0678  0.5056
  690MOL0     C93021   4.931   7.598   4.970  0.1297 -0.1215 -0.7566
  690MOL0     C93022   4.949   7.733   4.957 -0.2644 -0.0268 -0.3898
  690MOL0     O93023   5.073   7.789   4.932  0.0215  0.1529  0.0353
  690MOL0     C93024   5.192   7.721   4.984  0.5887  0.3405  0.7198
  690MOL0     C93025   5.305   7.696   4.881  0.0165  0.3406 -0.4341
  690MOL0     C93026   5.380   7.824   4.836  1.2255 -0.0534 -1.0972
  690MOL0     C93027   5.503   7.785   4.749  0.3578 -0.6299  0.6620
  690MOL0     C93028   5.625   7.746   4.814 -0.6933  0.0027  0.0806
  690MOL0     C93029   5.757   7.788   4.739 -0.0192  0.5968 -0.9765
  690MOL0     C93030   5.895   7.776   4.826  0.9831 -1.1005  1.8507
  690MOL0     C93031   6.024   7.831   4.760  0.6258  0.4235 -0.0997
  690MOL0     N93032   6.077   7.745   4.651  0.0812 -0.7856 -0.0227
  690MOL0     C93033   6.148   7.628   4.664 -0.6807  0.3306 -0.0329
  690MOL0     C93034   6.187   7.588   4.540  0.2104  0.1532 -0.2921
  690MOL0     C93035   6.258   7.465   4.495 -0.1181  0.2759  0.3456
  690MOL0     C93036   6.352   7.498   4.371  0.0854 -0.0342 -0.4184
  690MOL0     C93037   6.421   7.367   4.332 -0.0185  0.4878  0.5408
  690MOL0     C93038   6.544   7.387   4.252  0.0278 -0.1958  0.0886
  690MOL0     O93039   6.639   7.435   4.346 -0.5934 -0.0351  0.3487
  690MOL0     C93040   6.757   7.480   4.299  0.5875  0.5870 -0.4546
  690MOL0     C93041   6.843   7.534   4.391 -0.9184 -0.3605 -1.1360
  690MOL0     C93042   6.972   7.579   4.357 -0.0095  0.4435 -0.6232
  690MOL0     C93043   7.022   7.560   4.229  0.6453 -0.3083  0.2061
  690MOL0     C93044   7.157   7.594   4.194  0.3053 -0.4067 -0.3537
  690MOL0     O93045   7.208   7.689   4.271  0.1787  0.1167 -0.0248
  690MOL0     C93046   7.337   7.725   4.247  0.1249  0.6345  0.8356
  690MOL0     C93047   7.429   7.709   4.352  0.3583 -1.0354 -0.1592
  690MOL0     C93048   7.560   7.763   4.341 -0.4724  0.1802  0.1444
  690MOL0     C93049   7.613   7.810   4.218  0.4562  0.6738 -0.7555
  690MOL0     O93050   7.743   7.847   4.224 -1.1385  0.5124 -0.1082
  690MOL0     C93051   7.809   7.912   4.112  1.1801  0.3797 -0.6966
  690MOL0     C93052   7.961   7.932   4.145  0.3432 -0.7117 -0.2138
  690MOL0     C93053   8.038   7.986   4.016  0.4432 -0.6078  0.8569
  690MOL0     C93054   8.176   7.926   4.019  0.6080  0.5180 -0.1232
  690MOL0     C93055   8.253   7.962   3.895 -0.6930  0.9961  0.5672
  690MOL0     C93056   8.391   7.906   3.869 -0.3295 -0.6461 -0.2440
  690MOL0     C93057   8.475   8.011   3.788  0.1330 -0.5524  0.1024
  690MOL0     C93058   8.565   7.948   3.683  0.1202 -0.8619  0.2098
  690MOL0    Cl93059   8.688   7.839   3.768 -0.0967 -0.4149 -0.0703
  690MOL0     C93060   7.527   7.815   4.114 -0.0471 -0.3449  0.5597
  690MOL0     C93061   7.395   7.779   4.126  0.6468  0.0179 -0.1783
  690MOL0     O93062   7.206   7.555   4.094 -0.2779 -0.2769  0.3472
  690MOL0     C93063   6.943   7.502   4.125  0.1486  0.6343  0.9583
  690MOL0     C93064   6.808   7.464   4.164 -0.4719 -0.4422  0.8176
  690MOL0     N93065   6.118   7.667   4.457  0.5533 -0.4842  0.1550
  690MOL0     N93066   6.049   7.761   4.519 -0.7704 -0.8017 -0.6620
  690MOL0     C93067   4.841   7.822   4.963 -0.3733  0.7603 -0.0885
  690MOL0     C93068   4.721   7.763   4.999  0.9879  0.1079  0.6021
  690MOL0     C93069   4.407   7.457   5.159  0.5605  0.4723  0.6200
  690MOL0     C93070   4.317   7.542   5.095  0.3510  0.2571 -0.3244
  690MOL0     C93071   4.180   7.536   5.115  0.2275 -1.0279  0.3837
  690MOL0     C93072   4.130   7.452   5.219 -0.9363 -0.5684 -0.4648
  690MOL0     O93073   3.997   7.479   5.260  0.4278 -0.2983 -0.5341
  690MOL0     C93074   3.913   7.373   5.307 -0.1902 -0.0040 -0.2005
  690MOL0     C93075   3.815   7.427   5.405  0.3637 -0.0441  1.8160
  690MOL0     C93076   3.730   7.546   5.353  0.3045 -0.7817 -0.2150
  690MOL0     C93077   3.619   7.497   5.262 -0.8877  0.4072 -0.4293
  690MOL0     C93078   3.490   7.460   5.318 -0.1212 -0.4505  0.2022
  690MOL0     C93079   3.393   7.435   5.390 -0.0453  0.6236 -0.2280
  690MOL0     C93080   4.220   7.364   5.284 -0.2143  0.1932 -0.7119
  690MOL0     C93081   4.358   7.368   5.259  0.0285 -0.5218  0.9571
  690MOL0     C93082   4.443   7.265   5.329  0.4255 -0.1596  0.2293
  690MOL0     H93083   4.790   7.437   4.999 -2.0946  0.1282 -2.9038
  690MOL0     H93084   5.012   7.528   4.952  0.0621 -0.4313  0.0929
  690MOL0     H93085   5.234   7.786   5.061 -0.3787  3.4814 -1.2325
  690MOL0     H93086   5.172   7.623   5.029  1.6306 -0.6996 -0.9381
  690MOL0     H93087   5.266   7.644   4.793  2.1717 -1.8844 -0.1909
  690MOL0     H93088   5.370   7.620   4.925  1.9998  1.4745 -1.2871
  690MOL0     H93089   5.409   7.890   4.919  0.0734 -0.2651 -0.5002
  690MOL0     H93090   5.313   7.880   4.771  2.1770  0.7748 -1.3968
  690MOL0     H93091   5.469   7.699   4.691  0.4287 -0.1639 -0.0826
  690MOL0     H93092   5.524   7.859   4.672 -1.1208 -1.6202 -0.7698
  690MOL0     H93093   5.625   7.797   4.911  0.2909  0.1230  0.0335
  690MOL0     H93094   5.620   7.640   4.839 -0.0201  0.2381  1.3324
  690MOL0     H93095   5.767   7.740   4.642  0.4534 -3.1806  0.7752
  690MOL0     H93096   5.746   7.895   4.719  2.0325  0.6585 -1.9603
  690MOL0     H93097   5.911   7.673   4.860  1.5608 -0.6654  2.9238
  690MOL0     H93098   5.876   7.851   4.903  1.0448  0.9455 -0.0288
  690MOL0     H93099   6.005   7.931   4.718 -0.3601  0.3668  0.2088
  690MOL0     H93100   6.094   7.843   4.843 -0.0426  1.1530  0.3733
  690MOL0     H93101   6.168   7.588   4.763  1.8983  1.7276  0.0961
  690MOL0     H93102   6.319   7.433   4.580  0.7032  1.4117  0.1976
  690MOL0     H93103   6.179   7.397   4.462 -0.9410  2.2319 -2.0730
  690MOL0     H93104   6.304   7.527   4.277 -1.6643 -1.5481 -0.0533
  690MOL0     H93105   6.431   7.565   4.406  0.8973 -0.0975 -2.0270
  690MOL0     H93106   6.346   7.300   4.289  0.1112  1.1941 -0.8362
  690MOL0     H93107   6.447   7.301   4.415 -2.9434 -0.5795  0.7599
  690MOL0     H93108   6.520   7.465   4.179  0.2353  1.2120  1.4619
  690MOL0     H93109   6.578   7.293   4.208 -1.3044 -1.8211  2.3240
  690MOL0     H93110   6.805   7.529   4.493 -3.7275  0.7955 -2.0355
  690MOL0     H93111   7.027   7.633   4.433  1.3064 -0.1305 -1.1403
  690MOL0     H93112   7.391   7.669   4.445 -2.1436  0.7748 -0.3188
  690MOL0     H93113   7.627   7.760   4.426  0.5560  0.2955 -0.6395
  690MOL0     H93114   7.807   7.846   4.025  1.6275  1.0971 -1.2553
  690MOL0     H93115   7.757   8.006   4.095  0.6225  0.3054  0.4531
  690MOL0     H93116   7.970   8.001   4.229 -0.9414  1.9532 -2.1446
  690MOL0     H93117   8.007   7.840   4.184 -0.1725 -0.5290  0.8496
  690MOL0     H93118   7.995   7.948   3.923  2.8068 -1.0967 -0.1137
  690MOL0     H93119   8.053   8.095   4.013  1.0717 -0.7110 -1.2737
  690MOL0     H93120   8.160   7.818   4.031  0.5807  0.6157  0.7883
  690MOL0     H93121   8.231   7.964   4.105  0.0758 -0.6532  0.7618
  690MOL0     H93122   8.252   8.072   3.903 -1.9247  0.9788  0.7610
  690MOL0     H93123   8.197   7.925   3.809  0.5214 -1.4384  0.7429
  690MOL0     H93124   8.441   7.895   3.966 -1.3177  0.0783  0.3733
  690MOL0     H93125   8.391   7.808   3.820  0.7322 -2.2288  2.6785
  690MOL0     H93126   8.539   8.071   3.854  3.8315  0.8901 -4.2432
  690MOL0     H93127   8.414   8.086   3.736  1.3350  0.4337  0.0631
  690MOL0     H93128   8.511   7.884   3.612  1.3156 -2.0425  0.3295
  690MOL0     H93129   8.606   8.026   3.619 -1.7413 -1.6902 -2.1699
  690MOL0     H93130   7.564   7.865   4.026 -0.3738  2.3570  1.8719
  690MOL0     H93131   7.328   7.789   4.041  0.0186  2.2501  0.5085
  690MOL0     H93132   6.965   7.485   4.020 -0.1161  0.6846  0.8928
  690MOL0     H93133   6.747   7.426   4.083  2.2937 -4.1714  0.2221
  690MOL0     H93134   4.869   7.926   4.964  2.2570  0.2091  3.3484
  690MOL0     H93135   4.640   7.834   5.010  1.8059  0.8965  1.8722
  690MOL0     H93136   4.349   7.623   5.031 -0.9977  0.9728 -0.1374
  690MOL0     H93137   4.115   7.596   5.052  0.7034  0.3299  1.1326
  690MOL0     H93138   3.965   7.291   5.358 -0.0683 -0.9696 -1.7963
  690MOL0     H93139   3.870   7.317   5.223 -0.3814 -2.0156  1.1516
  690MOL0     H93140   3.881   7.453   5.489  2.5606  0.3030  0.0717
  690MOL0     H93141   3.747   7.348   5.437 -0.6517 -0.9666 -2.1343
  690MOL0     H93142   3.788   7.616   5.291 -0.3544 -1.3872 -1.5614
  690MOL0     H93143   3.680   7.580   5.444  2.5420 -2.7873  1.9153
  690MOL0     H93144   3.598   7.572   5.185  0.7688  0.3843 -0.9334
  690MOL0     H93145   3.659   7.412   5.206 -0.3772 -0.4787  1.2237
  690MOL0     H93146   3.305   7.409   5.445 -0.5530 -1.9951 -2.1180
  690MOL0     H93147   4.181   7.288   5.351  1.8832 -0.0808  0.2684
  690MOL0     H93148   4.528   7.305   5.387  0.1591  1.0189 -0.1644
  690MOL0     H93149   4.394   7.207   5.408  0.3273 -0.0725  0.2318
  690MOL0     H93150   4.485   7.202   5.250  2.2205  2.3273 -0.9312
  691MOL0     O93151   8.517   4.415   6.785 -0.0578 -0.8385  0.4428
  691MOL0     C93152   8.457   4.510   6.733  0.1580  0.2470  0.1229
  691MOL0     O93153   8.499   4.569   6.620  0.3682 -0.7009 -0.9466
  691MOL0     C93154   8.627   4.536   6.573 -0.3319 -0.2182 -0.8938
  691MOL0     C93155   8.735   4.585   6.646 -0.5366 -0.3104 -0.3950
  691MOL0     C93156   8.863   4.550   6.594 -0.2451 -0.0653  0.1560
  691MOL0     C93157   8.886   4.483   6.479 -0.3601 -0.2250  0.8982
  691MOL0     O93158   9.014   4.469   6.443 -0.2795 -0.5340  0.1875
  691MOL0     C93159   9.067   4.336   6.404  0.1221 -0.4362  0.4216
  691MOL0     C93160   9.076   4.337   6.249  0.4823  0.2314  0.0464
  691MOL0     C93161   9.169   4.447   6.206 -0.2990  0.2588 -0.5974
  691MOL0     C93162   9.189   4.430   6.051 -0.3353  0.4464 -0.2126
  691MOL0     C93163   9.288   4.535   6.001  0.1625  1.0797 -0.0640
  691MOL0     C93164   9.434   4.500   6.034 -0.2431  0.0683 -0.1735
  691MOL0     C93165   9.526   4.595   5.947  0.0863  0.1484 -0.0614
  691MOL0     C93166   9.673   4.565   5.945 -0.7555 -0.1024 -0.8386
  691MOL0     N93167   9.740   4.623   6.059  0.5011  0.5069  0.0025
  691MOL0     C93168   9.843   4.709   6.050  0.0752  0.0143 -0.5117
  691MOL0     C93169   9.887   4.730   6.176  0.0207  0.1232 -0.0167
  691MOL0     C93170   9.998   4.819   6.219  0.1610  0.4550  0.5079
  691MOL0     C93171  10.128   4.755   6.262 -0.2749  0.7153  0.0922
  691MOL0     C93172  10.225   4.853   6.326 -0.0557  0.5672  0.1336
  691MOL0     C93173  10.367   4.807   6.347 -0.4438 -0.0901 -0.4841
  691MOL0     O93174  10.431   4.895   6.438  0.4264  0.3323 -0.4908
  691MOL0     C93175  10.567   4.881   6.452 -0.7704 -0.0483 -0.2709
  691MOL0     C93176  10.632   4.969   6.534 -0.3710 -0.0169 -0.6240
  691MOL0     C93177  10.759   4.953   6.568 -0.1669  0.9383  0.0748
  691MOL0     C93178  10.840   4.844   6.522  0.4226  0.0273  0.2816
  691MOL0     C93179  10.980   4.822   6.568  1.0648  0.9890  0.8690
  691MOL0     O93180  11.044   4.701   6.529  0.4993 -0.8173  0.4549
  691MOL0     C93181  11.178   4.701   6.556  0.1194 -0.5101  0.0936
  691MOL0     C93182  11.265   4.674   6.452  0.8666  0.5731 -0.3712
  691MOL0     C93183  11.397   4.649   6.480  0.4287  0.1756  0.3591
  691MOL0     C93184  11.455   4.670   6.606  0.6751  0.0372 -0.6871
  691MOL0     O93185  11.586   4.645   6.638  0.4296 -0.5055  0.4159
  691MOL0     C93186  11.687   4.693   6.551  0.2149  0.3251  0.4180
  691MOL0     C93187  11.822   4.691   6.638  1.3221 -0.4678 -0.4892
  691MOL0     C93188  11.945   4.721   6.563  0.1989  0.1263 -0.5719
  691MOL0     C93189  11.995   4.585   6.521 -0.0855  0.4739  0.1943
  691MOL0     C93190  12.148   4.590   6.498 -0.0809  0.0458  0.3134
  691MOL0     C93191  12.207   4.470   6.430 -0.0944 -0.4420 -0.2038
  691MOL0     C93192  12.357   4.441   6.448  0.3388 -0.5135  0.4912
  691MOL0     C93193  12.450   4.515   6.338 -0.4042  0.5162 -0.6749
  691MOL0    Cl93194  12.438   4.440   6.177 -0.4446 -0.4199 -0.0384
  691MOL0     C93195  11.365   4.703   6.709 -0.9159  0.5023 -0.7695
  691MOL0     C93196  11.228   4.706   6.687 -0.4826 -0.3077  0.4280
  691MOL0     O93197  11.029   4.915   6.635 -0.6076 -0.5307 -0.4741
  691MOL0     C93198  10.770   4.749   6.444  0.4032 -0.7178  0.9441
  691MOL0     C93199  10.640   4.771   6.407  0.1987  0.1627 -0.2532
  691MOL0     N93200   9.801   4.656   6.261 -0.3756  0.3630 -0.0329
  691MOL0     N93201   9.729   4.581   6.187 -0.1922 -0.0966  1.1316
  691MOL0     C93202   8.777   4.426   6.412  0.2054 -0.0888  0.5532
  691MOL0     C93203   8.645   4.457   6.457  0.1172 -0.1873  0.3400
  691MOL0     C93204   8.334   4.552   6.802 -0.4123  0.1649  0.1503
  691MOL0     C93205   8.277   4.673   6.756  0.1575  0.2935  0.5556
  691MOL0     C93206   8.160   4.732   6.813  0.7537  0.3224 -0.2115
  691MOL0     C93207   8.092   4.673   6.921  0.8019  0.4950 -0.1836
  691MOL0     O93208   7.979   4.721   6.987 -0.4259  0.6342  0.4750
  691MOL0     C93209   7.951   4.855   6.956  0.5555  0.6049 -0.4431
  691MOL0     C93210   7.826   4.899   7.035 -0.1975  0.5255  0.4367
  691MOL0     C93211   7.683   4.839   6.980 -0.4575 -0.0109  0.1916
  691MOL0     C93212   7.623   4.930   6.876  0.5920  0.5900 -0.1982
  691MOL0     C93213   7.503   4.858   6.832 -0.0332 -0.1621  0.4213
  691MOL0     C93214   7.399   4.792   6.814  0.4983  0.2970 -0.0472
  691MOL0     C93215   8.153   4.552   6.971 -0.3221  0.2798 -0.6165
  691MOL0     C93216   8.274   4.494   6.916  0.3387 -0.5404 -0.3690
  691MOL0     C93217   8.330   4.372   6.992 -0.2155  0.5405 -0.3362
  691MOL0     H93218   8.724   4.653   6.730 -0.1854 -0.1393 -0.4843
  691MOL0     H93219   8.955   4.584   6.642 -0.3967 -1.1485  1.2600
  691MOL0     H93220   9.165   4.321   6.452 -1.4159  0.9097  4.4121
  691MOL0     H93221   9.007   4.255   6.446  0.8545 -1.5374 -0.5762
  691MOL0     H93222   8.979   4.355   6.202  0.8328  1.9793 -0.0913
  691MOL0     H93223   9.101   4.239   6.208 -3.4806 -1.7480  1.7900
  691MOL0     H93224   9.265   4.441   6.257 -0.7553 -0.2801  0.2233
  691MOL0     H93225   9.126   4.545   6.229 -1.1063 -0.2181 -0.0541
  691MOL0     H93226   9.215   4.327   6.026 -1.1098 -0.1923  1.4191
  691MOL0     H93227   9.093   4.449   6.003 -1.4472  2.1444  2.4408
  691MOL0     H93228   9.264   4.556   5.896 -1.2744  1.2074  0.2672
  691MOL0     H93229   9.259   4.624   6.059  3.7436  0.1866  3.6021
  691MOL0     H93230   9.460   4.516   6.139  1.3802 -1.7738 -0.2391
  691MOL0     H93231   9.438   4.394   6.007 -2.3177  0.3937 -2.0946
  691MOL0     H93232   9.520   4.698   5.982  4.5930  1.3137 -2.0035
  691MOL0     H93233   9.488   4.595   5.844  0.2639  1.5416 -0.1434
  691MOL0     H93234   9.703   4.461   5.934  1.0775  0.2530  0.3231
  691MOL0     H93235   9.707   4.619   5.856 -4.1149  1.2742 -1.4340
  691MOL0     H93236   9.887   4.739   5.956 -3.7719 -0.1062 -2.5205
  691MOL0     H93237  10.028   4.883   6.136  1.5380 -2.6547 -1.6245
  691MOL0     H93238   9.957   4.875   6.304 -2.4098 -1.0117  0.3487
  691MOL0     H93239  10.102   4.683   6.341  0.3877  3.3452  2.9358
  691MOL0     H93240  10.173   4.709   6.174 -1.7976  2.0146 -1.4351
  691MOL0     H93241  10.180   4.883   6.421 -1.4263 -1.7020  0.2637
  691MOL0     H93242  10.213   4.947   6.270 -0.7084 -0.8222 -2.2305
  691MOL0     H93243  10.427   4.804   6.256  1.2120 -1.9896  0.5748
  691MOL0     H93244  10.374   4.713   6.403 -4.7726 -0.1393  0.3184
  691MOL0     H93245  10.571   5.049   6.575  0.0343  0.4284 -0.8783
  691MOL0     H93246  10.799   5.027   6.637 -0.6435  4.0655 -2.7496
  691MOL0     H93247  11.220   4.673   6.353  0.3565 -1.1016 -0.1546
  691MOL0     H93248  11.464   4.622   6.400 -1.3414 -0.5908 -0.9334
  691MOL0     H93249  11.691   4.620   6.470  2.4889  1.4435 -0.5925
  691MOL0     H93250  11.671   4.791   6.505  2.0847  0.1484 -0.7007
  691MOL0     H93251  11.804   4.771   6.711  3.6145  0.9529 -1.3683
  691MOL0     H93252  11.823   4.596   6.692 -0.5255 -0.3040 -0.1198
  691MOL0     H93253  11.912   4.782   6.478 -0.8039 -0.9431 -0.9912
  691MOL0     H93254  12.020   4.775   6.621  1.1386 -1.8515  0.1474
  691MOL0     H93255  11.941   4.554   6.430  1.8512 -0.7037 -0.6022
  691MOL0     H93256  11.958   4.508   6.589 -2.4218 -0.4290 -1.9494
  691MOL0     H93257  12.199   4.596   6.595 -0.2590  0.8409  0.3707
  691MOL0     H93258  12.168   4.682   6.443 -0.5108  0.4373  0.7992
  691MOL0     H93259  12.167   4.389   6.491 -2.0364  0.1201 -0.6708
  691MOL0     H93260  12.171   4.455   6.328 -0.2189 -0.5703 -0.1418
  691MOL0     H93261  12.365   4.333   6.460 -0.2878 -0.4803  1.3224
  691MOL0     H93262  12.389   4.484   6.543  1.6712  2.3919 -1.1468
  691MOL0     H93263  12.421   4.620   6.341 -2.3715  0.0494 -1.3648
  691MOL0     H93264  12.554   4.516   6.371  0.0931 -0.9168 -2.0849
  691MOL0     H93265  11.396   4.701   6.813 -0.6425 -1.5318 -0.8570
  691MOL0     H93266  11.159   4.725   6.768 -1.6685 -0.2386 -0.5828
  691MOL0     H93267  10.810   4.655   6.407  3.0285  0.8980 -0.6787
  691MOL0     H93268  10.589   4.702   6.341 -0.4531  0.4769 -0.0880
  691MOL0     H93269   8.777   4.371   6.319  1.0945 -0.7537  0.9335
  691MOL0     H93270   8.551   4.418   6.419 -1.3345  0.9761  2.5125
  691MOL0     H93271   8.304   4.724   6.663 -2.9235  2.3419  0.6254
  691MOL0     H93272   8.119   4.826   6.779  0.6999  1.1278  1.9304
  691MOL0     H93273   7.934   4.883   6.852  0.7779  0.9388 -0.3915
  691MOL0     H93274   8.034   4.919   6.987  1.7025 -1.0578  0.0514
  691MOL0     H93275   7.820   5.009   7.039 -1.3852  0.4667  0.6151
  691MOL0     H93276   7.845   4.867   7.137  2.8256  1.4970  0.2735
  691MOL0     H93277   7.617   4.824   7.066 -0.2512 -1.3583  0.1450
  691MOL0     H93278   7.696   4.739   6.936 -0.7653  0.2340 -0.4629
  691MOL0     H93279   7.600   5.031   6.912  1.6292  1.7849 -2.6841
  691MOL0     H93280   7.687   4.945   6.789  3.1378  1.1394  1.6572
  691MOL0     H93281   7.318   4.722   6.805  0.7752 -0.1152  0.5519
  691MOL0     H93282   8.108   4.505   7.058 -1.1174  0.8744 -0.6990
  691MOL0     H93283   8.327   4.282   6.930  2.7127  0.4361 -0.4929
  691MOL0     H93284   8.436   4.386   7.014 -0.6928  1.6133  1.5107
  691MOL0     H93285   8.277   4.354   7.086 -1.5070  1.9976 -0.7326
  692MOL0     O93286   4.782   8.134   8.720 -0.2473 -0.5212 -0.3718
  692MOL0     C93287   4.800   8.063   8.822  1.0172 -0.0541 -0.4021
  692MOL0     O93288   4.922   7.996   8.853  0.3613 -0.0495  0.2829
  692MOL0     C93289   5.034   8.037   8.792 -0.3521 -0.7244 -0.2369
  692MOL0     C93290   5.158   8.050   8.866  0.3504 -0.7909 -0.3696
  692MOL0     C93291   5.268   8.111   8.806  0.2468  0.4209  0.7764
  692MOL0     C93292   5.266   8.139   8.670 -0.0738  0.2631 -1.2266
  692MOL0     O93293   5.369   8.210   8.611 -0.0144 -0.4069 -0.0487
  692MOL0     C93294   5.505   8.162   8.638  0.5145  0.0317 -0.3104
  692MOL0     C93295   5.575   8.166   8.500 -0.3519  0.6432 -0.3670
  692MOL0     C93296   5.718   8.128   8.520 -0.2714  0.6248  0.4853
  692MOL0     C93297   5.813   8.250   8.534  0.0798  1.1064 -0.8121
  692MOL0     C93298   5.962   8.226   8.503  0.3095 -0.9102 -0.0860
  692MOL0     C93299   6.014   8.100   8.571  0.2034 -0.1612  0.5087
  692MOL0     C93300   6.167   8.076   8.561 -0.0091 -0.3122 -0.0700
  692MOL0     C93301   6.207   8.050   8.404 -0.0241  0.4710  0.2668
  692MOL0     N93302   6.332   7.975   8.400  0.2671  0.7452 -0.0869
  692MOL0     C93303   6.448   8.038   8.421  0.0399 -0.6033 -0.6213
  692MOL0     C93304   6.536   7.942   8.465  0.3328 -0.5113  0.9688
  692MOL0     C93305   6.676   7.981   8.499 -0.3714 -0.6162 -0.5575
  692MOL0     C93306   6.782   7.910   8.417 -0.0449 -0.3712 -0.6437
  692MOL0     C93307   6.769   7.908   8.267 -1.0073 -0.4373 -0.3380
  692MOL0     C93308   6.890   7.840   8.206 -1.0326  1.3015 -0.8002
  692MOL0     O93309   6.915   7.708   8.257 -0.2328  0.6564 -0.0685
  692MOL0     C93310   7.048   7.668   8.257 -0.2706  0.6638 -1.0708
  692MOL0     C93311   7.093   7.595   8.370 -0.2512  0.2424 -0.2040
  692MOL0     C93312   7.234   7.580   8.387 -0.1178  0.0301 -0.3498
  692MOL0     C93313   7.312   7.598   8.277 -0.3890 -0.4389  0.5250
  692MOL0     C93314   7.452   7.571   8.270 -0.1537 -0.2022  0.3063
  692MOL0     O93315   7.503   7.544   8.149 -0.0623 -0.3050  0.1718
  692MOL0     C93316   7.631   7.495   8.139 -1.0764  0.7996 -0.6909
  692MOL0     C93317   7.714   7.539   8.036  0.0782 -0.0950 -0.3890
  692MOL0     C93318   7.841   7.493   8.002 -0.8923  0.6693  0.5369
  692MOL0     C93319   7.900   7.400   8.090  1.2766  0.4772 -0.1368
  692MOL0     O93320   8.023   7.357   8.064  0.4271  0.3004  0.7680
  692MOL0     C93321   8.055   7.217   8.086  0.3487 -0.6785  0.3657
  692MOL0     C93322   8.196   7.176   8.062 -0.2709  1.4035  0.8400
  692MOL0     C93323   8.295   7.270   8.135  0.0941  0.0894  0.0021
  692MOL0     C93324   8.438   7.228   8.115 -0.3950 -0.7417  0.1702
  692MOL0     C93325   8.521   7.317   8.209  0.0281  0.0576  0.4129
  692MOL0     C93326   8.565   7.451   8.164  0.3576 -0.0645  0.6140
  692MOL0     C93327   8.658   7.515   8.272 -0.2322 -0.1134  0.2045
  692MOL0     C93328   8.577   7.630   8.339  0.6061 -0.2679 -0.0047
  692MOL0    Cl93329   8.650   7.687   8.491  0.5974  0.1850 -0.0682
  692MOL0     C93330   7.822   7.356   8.204 -1.0059 -0.1075 -0.4023
  692MOL0     C93331   7.693   7.395   8.224  0.2391 -0.1965 -0.6130
  692MOL0     O93332   7.514   7.569   8.376  0.1434 -0.2958  0.1067
  692MOL0     C93333   7.264   7.661   8.157 -0.0971  0.1491  0.1480
  692MOL0     C93334   7.134   7.700   8.153  0.8490  0.3903  0.6002
  692MOL0     N93335   6.459   7.820   8.464 -0.8004 -0.6619 -0.2538
  692MOL0     N93336   6.347   7.840   8.408 -0.0934 -0.1559 -0.0153
  692MOL0     C93337   5.146   8.122   8.599 -0.0022 -0.4842  0.2130
  692MOL0     C93338   5.039   8.065   8.656 -0.0809 -0.7403 -0.2469
  692MOL0     C93339   4.675   8.017   8.902  0.0590 -0.3815  0.2846
  692MOL0     C93340   4.546   8.063   8.854 -0.1980  0.4960  0.7051
  692MOL0     C93341   4.428   8.043   8.917 -0.0203 -1.0560 -0.4094
  692MOL0     C93342   4.419   7.966   9.031  0.0027 -0.7429 -0.8905
  692MOL0     O93343   4.298   7.946   9.091 -0.6314 -0.2141 -0.5231
  692MOL0     C93344   4.297   7.899   9.226  0.8928  0.2312  0.4880
  692MOL0     C93345   4.149   7.901   9.273 -0.9195 -0.4978 -0.3078
  692MOL0     C93346   4.138   7.840   9.415 -0.1790  0.4685 -0.3069
  692MOL0     C93347   3.999   7.838   9.473 -0.3442  0.0978 -0.8894
  692MOL0     C93348   3.938   7.966   9.457 -0.1105 -0.3819 -0.2818
  692MOL0     C93349   3.872   8.064   9.440  0.2484  1.1908 -0.9626
  692MOL0     C93350   4.540   7.923   9.086 -0.1294 -0.3034  0.3699
  692MOL0     C93351   4.671   7.943   9.022  0.4175  0.1434 -0.1420
  692MOL0     C93352   4.785   7.899   9.113  1.1026 -0.5036  0.0953
  692MOL0     H93353   5.160   8.047   8.975 -2.9641 -0.1606 -0.1837
  692MOL0     H93354   5.351   8.138   8.870 -0.8332  2.2738  1.4796
  692MOL0     H93355   5.544   8.238   8.707 -1.2721 -0.0037  0.7964
  692MOL0     H93356   5.495   8.064   8.685 -0.1030  0.7679  1.1695
  692MOL0     H93357   5.561   8.262   8.450 -2.0796 -1.1906 -3.7094
  692MOL0     H93358   5.522   8.090   8.442 -0.8623  1.3038 -0.7855
  692MOL0     H93359   5.755   8.059   8.443  1.8385  0.7249  1.3241
  692MOL0     H93360   5.728   8.074   8.614  0.8748 -0.4848 -0.2399
  692MOL0     H93361   5.786   8.334   8.469  0.4700  0.7304 -1.4717
  692MOL0     H93362   5.793   8.302   8.628  0.8210  0.2983 -0.1809
  692MOL0     H93363   5.974   8.225   8.394 -2.2323  1.2169 -0.4917
  692MOL0     H93364   6.010   8.318   8.537 -1.6150  0.4459 -0.8037
  692MOL0     H93365   5.985   8.125   8.674  2.1486  3.3792  0.3597
  692MOL0     H93366   5.965   8.010   8.534  2.9119 -1.2615 -0.6575
  692MOL0     H93367   6.189   7.983   8.615 -0.7144 -1.2923 -1.4254
  692MOL0     H93368   6.215   8.162   8.609  1.6278 -0.7102 -0.9073
  692MOL0     H93369   6.134   7.987   8.352  1.7887 -1.3740 -0.1568
  692MOL0     H93370   6.217   8.142   8.345  0.0858  1.0031  1.0957
  692MOL0     H93371   6.465   8.145   8.414  0.2740 -0.7185 -2.3752
  692MOL0     H93372   6.690   8.089   8.493 -2.4681  0.0532  3.1733
  692MOL0     H93373   6.686   7.956   8.605  2.4353 -1.7917 -1.0221
  692MOL0     H93374   6.867   7.973   8.446 -1.2294  0.9520  0.0850
  692MOL0     H93375   6.779   7.810   8.461  1.7396  0.6979  2.1202
  692MOL0     H93376   6.761   8.011   8.231 -0.3611 -0.3104 -0.1423
  692MOL0     H93377   6.678   7.855   8.237  0.9515 -3.1583 -2.0026
  692MOL0     H93378   6.980   7.897   8.232 -0.0380 -1.8810  4.0816
  692MOL0     H93379   6.863   7.829   8.101  0.1264 -0.1435 -0.9802
  692MOL0     H93380   7.021   7.555   8.440 -0.4587  0.6786 -0.1638
  692MOL0     H93381   7.268   7.527   8.475  1.4355  2.3755  0.5682
  692MOL0     H93382   7.676   7.615   7.967  0.4130 -0.2977 -0.8020
  692MOL0     H93383   7.906   7.530   7.923 -0.2911  0.1890  0.7985
  692MOL0     H93384   8.032   7.191   8.190 -1.6077 -0.9692 -0.1110
  692MOL0     H93385   7.993   7.151   8.026  2.4130 -1.3815 -1.1138
  692MOL0     H93386   8.207   7.071   8.091 -2.5971  1.2478  1.3364
  692MOL0     H93387   8.212   7.184   7.954  0.5343 -0.3491  0.7891
  692MOL0     H93388   8.283   7.368   8.089 -0.5146  0.4975  0.9873
  692MOL0     H93389   8.261   7.287   8.238  1.9646 -1.0969  0.8844
  692MOL0     H93390   8.471   7.252   8.014 -2.8364  0.4099 -0.4126
  692MOL0     H93391   8.446   7.121   8.139 -0.7829 -1.0174 -0.9002
  692MOL0     H93392   8.618   7.271   8.230  1.5746  2.0791 -1.7965
  692MOL0     H93393   8.461   7.333   8.299 -2.6904  1.9869 -1.5666
  692MOL0     H93394   8.622   7.454   8.070 -1.7953  2.0419 -0.7526
  692MOL0     H93395   8.481   7.519   8.147  1.4461  1.0425 -0.5599
  692MOL0     H93396   8.749   7.552   8.225 -0.3214  0.0390  0.1519
  692MOL0     H93397   8.691   7.440   8.344  1.3113 -0.2819 -0.6521
  692MOL0     H93398   8.576   7.709   8.263 -1.5779 -1.8633 -1.7690
  692MOL0     H93399   8.471   7.609   8.357  1.2494 -2.7676  1.3615
  692MOL0     H93400   7.858   7.284   8.277 -2.9278 -0.8964 -0.1544
  692MOL0     H93401   7.641   7.352   8.309  0.5204 -1.6023 -1.1218
  692MOL0     H93402   7.321   7.682   8.067 -1.2594 -0.4003 -0.7567
  692MOL0     H93403   7.094   7.754   8.068 -0.5182 -0.9174  0.3707
  692MOL0     H93404   5.148   8.171   8.502  1.2291  2.2653  1.5149
  692MOL0     H93405   4.955   8.056   8.589 -0.7461 -0.3917  0.5261
  692MOL0     H93406   4.547   8.116   8.759 -1.0694  3.0856  2.0443
  692MOL0     H93407   4.331   8.070   8.876 -0.4158  1.9854  2.1456
  692MOL0     H93408   4.358   7.963   9.290 -0.8576  1.2142  1.2395
  692MOL0     H93409   4.331   7.795   9.227 -2.4262 -1.0957 -2.1085
  692MOL0     H93410   4.084   7.831   9.220 -0.9633 -1.1167  0.5515
  692MOL0     H93411   4.117   8.006   9.272 -1.2976 -0.5444  2.1730
  692MOL0     H93412   4.209   7.892   9.480  0.7235  1.7974 -2.2518
  692MOL0     H93413   4.172   7.736   9.418 -0.1909  0.3146 -3.1883
  692MOL0     H93414   3.938   7.767   9.416 -1.1404 -0.1816  0.2695
  692MOL0     H93415   4.003   7.793   9.572  1.2392 -2.7777 -2.1206
  692MOL0     H93416   3.805   8.146   9.426 -0.8818  0.7422  1.3080
  692MOL0     H93417   4.537   7.870   9.181 -0.9570 -0.6733  0.1392
  692MOL0     H93418   4.873   7.962   9.097  1.4606 -1.0752 -0.2217
  692MOL0     H93419   4.757   7.914   9.218 -2.2936 -3.1855 -0.2280
  692MOL0     H93420   4.805   7.794   9.091 -1.1600 -1.3747  1.7893
  693MOL0     O93421   7.018  10.936   2.580  1.8232 -0.2031 -0.8272
  693MOL0     C93422   6.953  11.012   2.505 -0.8277  0.2209  0.0638
  693MOL0     O93423   7.012  11.107   2.424 -0.1698  0.1114  0.4577
  693MOL0     C93424   7.144  11.086   2.401 -0.5227 -0.2714 -0.2775
  693MOL0     C93425   7.226  11.116   2.507  0.4851  0.0893  0.3189
  693MOL0     C93426   7.363  11.083   2.504  0.3317 -0.8193 -0.5715
  693MOL0     C93427   7.421  11.035   2.387 -0.2735  0.1249  1.6130
  693MOL0     O93428   7.558  11.033   2.377 -0.1568 -0.0576 -0.0439
  693MOL0     C93429   7.625  11.107   2.274 -0.3288  0.1232 -0.1779
  693MOL0     C93430   7.704  11.014   2.177  0.8699  0.1281  0.1198
  693MOL0     C93431   7.832  10.967   2.245 -0.4734 -0.1012  0.5432
  693MOL0     C93432   7.896  10.849   2.166  0.1677 -0.2123 -0.7233
  693MOL0     C93433   8.043  10.825   2.190 -0.9157 -0.5968 -0.3077
  693MOL0     C93434   8.116  10.938   2.111  0.2721  0.3380 -0.1926
  693MOL0     C93435   8.266  10.953   2.131  0.9482 -0.9050 -0.1565
  693MOL0     C93436   8.294  10.998   2.279 -0.6295 -0.0587  0.2987
  693MOL0     N93437   8.411  11.084   2.299 -0.6687  0.0780  0.7205
  693MOL0     C93438   8.416  11.224   2.287  0.4476  1.3120  0.1482
  693MOL0     C93439   8.548  11.258   2.323  0.4578 -0.1582  0.4946
  693MOL0     C93440   8.599  11.393   2.310 -0.0341 -0.4437 -0.3212
  693MOL0     C93441   8.745  11.401   2.267 -0.2199 -0.5681 -0.0242
  693MOL0     C93442   8.840  11.393   2.394  0.6454  0.6199 -0.4904
  693MOL0     C93443   8.987  11.403   2.359 -0.7913 -0.0902 -0.1966
  693MOL0     O93444   9.026  11.532   2.301  0.1665  0.0176 -0.2499
  693MOL0     C93445   9.155  11.541   2.262 -0.3268 -0.2511 -0.4443
  693MOL0     C93446   9.197  11.654   2.192 -0.4207 -0.0785  0.3439
  693MOL0     C93447   9.333  11.675   2.164 -0.1987  0.5077 -0.0617
  693MOL0     C93448   9.429  11.572   2.199 -0.4283  0.4388  0.1227
  693MOL0     C93449   9.571  11.597   2.185 -0.3781 -0.1109  0.0096
  693MOL0     O93450   9.651  11.488   2.178  0.9651 -0.4072 -0.2604
  693MOL0     C93451   9.787  11.501   2.176 -0.1588  0.8763  0.3221
  693MOL0     C93452   9.858  11.502   2.292  0.0937  0.7700  0.1500
  693MOL0     C93453   9.995  11.499   2.297 -0.6958  0.2313 -0.3409
  693MOL0     C93454  10.073  11.493   2.181  0.4128 -0.1982  0.0678
  693MOL0     O93455  10.209  11.496   2.180 -1.1087  1.1131 -1.2597
  693MOL0     C93456  10.267  11.408   2.281  0.8769 -0.1534  0.0194
  693MOL0     C93457  10.368  11.335   2.210 -0.0272  0.0068  0.2719
  693MOL0     C93458  10.493  11.426   2.171 -0.3007  0.3145  0.7131
  693MOL0     C93459  10.531  11.541   2.264  0.1119 -0.5929 -0.1531
  693MOL0     C93460  10.641  11.634   2.223 -0.1857 -0.3306 -0.1672
  693MOL0     C93461  10.638  11.671   2.077 -0.4080 -0.6818  0.2104
  693MOL0     C93462  10.752  11.770   2.055  0.4984 -0.1091 -0.0453
  693MOL0     C93463  10.765  11.812   1.906  0.5907 -0.0732 -0.2727
  693MOL0    Cl93464  10.918  11.889   1.862 -0.1213 -0.2204  0.0609
  693MOL0     C93465  10.001  11.511   2.065 -0.1586  0.2012  0.1760
  693MOL0     C93466   9.865  11.512   2.052  0.9226  0.3159  0.0227
  693MOL0     O93467   9.614  11.710   2.210 -0.3861  0.2673  0.4348
  693MOL0     C93468   9.385  11.464   2.270 -0.7121  0.5396 -0.3974
  693MOL0     C93469   9.251  11.444   2.299  0.7412  0.0145 -0.1106
  693MOL0     N93470   8.618  11.141   2.346  0.9003  0.2472 -1.0509
  693MOL0     N93471   8.532  11.040   2.340  0.1715  0.5590 -0.4651
  693MOL0     C93472   7.333  10.999   2.273 -0.9910 -0.3379 -0.2468
  693MOL0     C93473   7.193  11.020   2.291  0.0845 -0.8720  0.2723
  693MOL0     C93474   6.813  11.012   2.520  0.4481 -0.2932  0.5865
  693MOL0     C93475   6.738  10.994   2.406  0.2631  0.6699  0.2880
  693MOL0     C93476   6.602  10.992   2.405  0.8010  0.8331  0.8517
  693MOL0     C93477   6.534  11.008   2.527 -0.2861  0.2001 -0.8940
  693MOL0     O93478   6.403  11.021   2.533  0.9736 -0.0607 -0.7434
  693MOL0     C93479   6.327  11.071   2.419 -0.3471 -0.3833 -0.3602
  693MOL0     C93480   6.187  11.083   2.466  0.7320  0.0611 -0.6464
  693MOL0     C93481   6.086  11.099   2.353  1.0270 -0.4135 -0.3378
  693MOL0     C93482   5.947  11.122   2.408  1.1036  0.1197  0.3564
  693MOL0     C93483   5.851  11.104   2.300  0.0802 -0.4650 -0.4165
  693MOL0     C93484   5.766  11.097   2.217  0.1650 -0.1691 -0.1925
  693MOL0     C93485   6.605  11.030   2.648 -0.1794  0.3935 -0.2225
  693MOL0     C93486   6.742  11.021   2.642 -0.2904  0.3406 -0.0918
  693MOL0     C93487   6.826  11.039   2.773 -0.2857 -0.4013  0.6231
  693MOL0     H93488   7.171  11.150   2.594 -0.6946 -1.4623  0.2384
  693MOL0     H93489   7.424  11.109   2.589  0.1255  0.6127 -0.8349
  693MOL0     H93490   7.553  11.166   2.216 -3.5341 -3.8111 -0.6573
  693MOL0     H93491   7.699  11.178   2.311  1.0474 -0.6355 -1.3537
  693MOL0     H93492   7.736  11.063   2.084  1.9750 -0.1988  0.3137
  693MOL0     H93493   7.640  10.930   2.149 -2.3106  2.6434 -0.7100
  693MOL0     H93494   7.814  10.938   2.349 -1.4967  3.5262  1.5415
  693MOL0     H93495   7.905  11.049   2.246  0.5465 -0.9843  0.7091
  693MOL0     H93496   7.836  10.766   2.203 -2.2500  2.3181  1.5303
  693MOL0     H93497   7.886  10.869   2.059 -2.5030  1.1491 -0.3182
  693MOL0     H93498   8.074  10.828   2.295  1.4427  1.8845 -0.9566
  693MOL0     H93499   8.069  10.724   2.159 -3.5659 -1.6569  0.6628
  693MOL0     H93500   8.112  10.914   2.004  1.8367  2.9274 -0.9084
  693MOL0     H93501   8.070  11.035   2.128 -1.3708 -0.4967  0.3538
  693MOL0     H93502   8.303  11.025   2.058  1.3403  1.4785  2.2453
  693MOL0     H93503   8.321  10.862   2.107  0.3957 -0.9229 -1.4976
  693MOL0     H93504   8.206  11.047   2.323 -0.5784 -0.9118  1.3911
  693MOL0     H93505   8.299  10.905   2.335  1.8356 -1.3529 -1.8475
  693MOL0     H93506   8.336  11.290   2.256 -1.8166  0.1980  3.0570
  693MOL0     H93507   8.540  11.457   2.243 -0.4960  0.5333  0.9617
  693MOL0     H93508   8.574  11.434   2.409 -3.0070 -0.0096 -1.1374
  693MOL0     H93509   8.790  11.329   2.197  2.2994  2.2079 -1.5220
  693MOL0     H93510   8.764  11.502   2.227 -2.1982  0.3210  1.1619
  693MOL0     H93511   8.812  11.303   2.450 -0.5184  1.6941  0.7194
  693MOL0     H93512   8.809  11.479   2.454 -1.2467  0.8748 -1.7268
  693MOL0     H93513   9.021  11.325   2.291  0.4112  0.3758 -0.1527
  693MOL0     H93514   9.045  11.391   2.451  0.5464 -1.1191 -1.1308
  693MOL0     H93515   9.131  11.737   2.172 -0.2999 -0.0363  0.1202
  693MOL0     H93516   9.374  11.770   2.132 -1.2140  1.7922  2.2189
  693MOL0     H93517   9.799  11.501   2.384  1.4806  1.2461  1.0789
  693MOL0     H93518  10.034  11.478   2.397  3.3944  0.9752 -1.5789
  693MOL0     H93519  10.315  11.459   2.365  2.9633 -1.6358 -0.2146
  693MOL0     H93520  10.205  11.330   2.325 -0.4973  0.9162  0.0573
  693MOL0     H93521  10.412  11.254   2.269  0.7638 -0.7478 -1.2903
  693MOL0     H93522  10.331  11.288   2.119  2.1565 -0.5362 -0.4045
  693MOL0     H93523  10.585  11.367   2.162  0.0138  0.7063  1.3054
  693MOL0     H93524  10.462  11.474   2.078 -0.3472 -0.9696  0.0472
  693MOL0     H93525  10.557  11.489   2.357 -0.1630  0.4642  0.5436
  693MOL0     H93526  10.441  11.602   2.278  2.2715  2.8452  0.0533
  693MOL0     H93527  10.740  11.592   2.245 -0.7187 -2.1807 -1.1168
  693MOL0     H93528  10.632  11.722   2.286  1.9158 -1.1053  1.3499
  693MOL0     H93529  10.647  11.585   2.010 -3.4022 -0.5307 -0.5053
  693MOL0     H93530  10.546  11.722   2.047  1.1150  2.7581  0.9026
  693MOL0     H93531  10.847  11.727   2.085 -0.4059 -0.4706  2.6131
  693MOL0     H93532  10.727  11.866   2.102  1.0227  1.1826 -2.2742
  693MOL0     H93533  10.752  11.719   1.849 -1.1913 -0.7565  1.1646
  693MOL0     H93534  10.687  11.880   1.869  1.4639  0.6783 -0.7745
  693MOL0     H93535  10.054  11.518   1.971 -3.6088 -2.1545 -2.2131
  693MOL0     H93536   9.807  11.512   1.960  0.0739  1.8389  0.5319
  693MOL0     H93537   9.457  11.386   2.294  0.0884  1.8970  1.8635
  693MOL0     H93538   9.235  11.355   2.360  1.8052 -0.2232 -0.1577
  693MOL0     H93539   7.373  10.957   2.181 -0.4106 -1.4517  0.4891
  693MOL0     H93540   7.123  10.999   2.211 -0.7695  1.5626  0.3130
  693MOL0     H93541   6.789  10.992   2.310  0.9160 -1.1060  0.6413
  693MOL0     H93542   6.547  10.983   2.312  0.9818  2.4386  0.5611
  693MOL0     H93543   6.322  10.989   2.347 -0.4568 -0.9829  0.3286
  693MOL0     H93544   6.360  11.164   2.371 -0.3151 -0.0852  0.2282
  693MOL0     H93545   6.161  11.158   2.541 -1.8839 -0.4986 -0.9005
  693MOL0     H93546   6.169  10.984   2.510 -0.2148  1.7092  3.1032
  693MOL0     H93547   6.082  11.008   2.292  0.2988  0.4451 -1.6221
  693MOL0     H93548   6.117  11.185   2.294  0.7150 -0.6894 -0.9161
  693MOL0     H93549   5.922  11.047   2.484 -1.5163 -0.9402 -1.3820
  693MOL0     H93550   5.928  11.224   2.443 -0.2385 -0.3239  1.0037
  693MOL0     H93551   5.697  11.106   2.135  1.9368 -1.0835 -1.8707
  693MOL0     H93552   6.550  11.044   2.740  0.2782  1.7921 -0.1446
  693MOL0     H93553   6.899  11.118   2.759 -1.5488  0.9245  1.2462
  693MOL0     H93554   6.756  11.082   2.846  0.1170  1.5858 -0.1020
  693MOL0     H93555   6.871  10.949   2.816 -0.9930 -0.9723  0.1887
  694MOL0     O93556   7.535   2.799   6.321 -0.0826  0.4880  0.0119
  694MOL0     C93557   7.472   2.702   6.274 -0.8057 -0.2107 -0.7195
  694MOL0     O93558   7.522   2.575   6.277  0.1763 -0.3328  0.2064
  694MOL0     C93559   7.640   2.549   6.347  0.1416  0.3278 -0.3715
  694MOL0     C93560   7.637   2.549   6.486 -0.8953 -0.1197 -1.0662
  694MOL0     C93561   7.764   2.539   6.552 -0.3371 -0.1486  0.1717
  694MOL0     C93562   7.879   2.539   6.476  1.2381  0.2716  0.2304
  694MOL0     O93563   8.000   2.528   6.541  0.6195  0.6127 -0.6366
  694MOL0     C93564   8.102   2.621   6.502  0.6196  0.7949 -0.5722
  694MOL0     C93565   8.207   2.631   6.611  0.8376 -0.0839  0.3377
  694MOL0     C93566   8.284   2.496   6.624  0.1647  0.1065 -0.4035
  694MOL0     C93567   8.440   2.508   6.600  0.9157 -0.2553 -0.0208
  694MOL0     C93568   8.533   2.580   6.707 -0.3858 -0.2903  0.2427
  694MOL0     C93569   8.551   2.493   6.832 -0.9431  0.2507 -0.2560
  694MOL0     C93570   8.685   2.516   6.903  0.8469 -0.0909 -0.4319
  694MOL0     C93571   8.701   2.657   6.972  0.3205  0.7145  0.3881
  694MOL0     N93572   8.816   2.663   7.061  0.1407  0.7027  1.2256
  694MOL0     C93573   8.833   2.605   7.182 -0.5204  1.0603  0.0455
  694MOL0     C93574   8.961   2.639   7.218 -0.5160  0.3393 -0.0539
  694MOL0     C93575   9.042   2.592   7.340 -0.7233 -0.8048  0.3095
  694MOL0     C93576   9.048   2.705   7.443  0.3608  1.1967 -0.5484
  694MOL0     C93577   9.136   2.827   7.414  0.6121  0.4628  0.3920
  694MOL0     C93578   9.281   2.797   7.363  0.4653  0.3425  0.1619
  694MOL0     O93579   9.367   2.908   7.358  0.4814 -0.8307 -0.4081
  694MOL0     C93580   9.498   2.891   7.348  0.3572 -0.1464 -0.2382
  694MOL0     C93581   9.579   3.005   7.367  0.4055 -0.1843  0.5124
  694MOL0     C93582   9.719   2.995   7.343 -0.5308  0.8959 -0.0222
  694MOL0     C93583   9.781   2.870   7.314  0.0089 -0.1104 -0.2977
  694MOL0     C93584   9.929   2.859   7.295 -0.2856  0.2771 -0.8056
  694MOL0     O93585  10.013   2.970   7.318  0.7543  0.6540  0.2884
  694MOL0     C93586  10.140   2.965   7.282  0.2070  0.0854  0.1568
  694MOL0     C93587  10.226   2.900   7.371  0.9351 -1.4189  0.3022
  694MOL0     C93588  10.361   2.916   7.356  0.2466 -0.0061  0.8317
  694MOL0     C93589  10.412   2.991   7.249  0.0949 -0.5107  0.6470
  694MOL0     O93590  10.544   3.012   7.228 -0.2199 -0.3581  0.7234
  694MOL0     C93591  10.625   3.061   7.334  0.8947 -0.1241  0.7519
  694MOL0     C93592  10.762   3.087   7.278 -0.1576 -0.5152 -1.4103
  694MOL0     C93593  10.808   2.970   7.182  0.5013  1.0493 -0.3214
  694MOL0     C93594  10.947   3.001   7.125 -0.1656  0.2171  0.4770
  694MOL0     C93595  11.019   2.869   7.097  0.3239  0.6944  0.1578
  694MOL0     C93596  11.051   2.780   7.218 -0.4250 -0.2153 -0.3256
  694MOL0     C93597  11.138   2.660   7.185 -0.5930 -0.8069  0.9465
  694MOL0     C93598  11.193   2.608   7.314 -0.4315  0.0716 -0.3381
  694MOL0    Cl93599  11.271   2.455   7.290  0.0542  0.0946  0.1115
  694MOL0     C93600  10.321   3.035   7.151 -1.0148  0.3096  0.1012
  694MOL0     C93601  10.183   3.033   7.165  0.7357  0.3124  0.2118
  694MOL0     O93602   9.975   2.744   7.265  0.1828 -0.0814 -0.1279
  694MOL0     C93603   9.697   2.754   7.313  0.3669  0.1895  0.1892
  694MOL0     C93604   9.554   2.764   7.335 -0.7553  0.1130 -0.5126
  694MOL0     N93605   9.019   2.710   7.113 -0.2816 -0.4915 -0.3913
  694MOL0     N93606   8.933   2.723   7.025 -0.1639 -0.9440 -0.2572
  694MOL0     C93607   7.876   2.536   6.340 -0.9557 -0.2584 -0.2356
  694MOL0     C93608   7.759   2.543   6.268  0.6995 -0.0953 -0.2526
  694MOL0     C93609   7.342   2.712   6.213 -0.4411 -0.6310 -0.4703
  694MOL0     C93610   7.305   2.606   6.128 -0.6045 -0.4725  0.3357
  694MOL0     C93611   7.178   2.593   6.063 -0.7775 -0.7767 -0.7486
  694MOL0     C93612   7.089   2.697   6.086  0.8468 -0.4176 -0.3752
  694MOL0     O93613   6.983   2.698   6.000 -0.3815 -0.3370  0.2828
  694MOL0     C93614   6.917   2.822   5.981  1.0901  0.3489 -0.9579
  694MOL0     C93615   6.830   2.803   5.858 -0.0404 -0.8637  0.7951
  694MOL0     C93616   6.731   2.690   5.869 -0.5613 -0.5435  0.6526
  694MOL0     C93617   6.644   2.689   5.996 -0.0408  0.1839  0.2274
  694MOL0     C93618   6.542   2.584   5.986 -0.1312 -0.5515 -0.5876
  694MOL0     C93619   6.454   2.508   5.980 -0.8569  0.7740 -0.2752
  694MOL0     C93620   7.127   2.797   6.178 -0.7931  0.2829 -0.6914
  694MOL0     C93621   7.249   2.809   6.241 -0.1822  0.6633 -0.0642
  694MOL0     C93622   7.261   2.916   6.346  0.1605  0.0940  0.1219
  694MOL0     H93623   7.549   2.545   6.550 -0.2004  1.6759  0.0595
  694MOL0     H93624   7.749   2.525   6.658  1.0167 -2.8527  0.0996
  694MOL0     H93625   8.139   2.591   6.403  0.2958 -0.9125 -0.2040
  694MOL0     H93626   8.059   2.719   6.480 -1.6287  0.8708  3.2566
  694MOL0     H93627   8.145   2.658   6.697 -1.7323 -1.5933 -0.9179
  694MOL0     H93628   8.272   2.715   6.585  1.2333  0.0433  1.6605
  694MOL0     H93629   8.261   2.423   6.545 -1.7570  3.0260 -2.7621
  694MOL0     H93630   8.271   2.459   6.726 -1.9065  1.5103 -0.1055
  694MOL0     H93631   8.465   2.407   6.567 -2.8652 -0.6805 -2.0699
  694MOL0     H93632   8.454   2.572   6.512  0.7342  2.4412  1.7687
  694MOL0     H93633   8.631   2.593   6.660  0.3316 -0.6138  1.5982
  694MOL0     H93634   8.495   2.680   6.731  0.3555 -0.0247  0.3397
  694MOL0     H93635   8.466   2.509   6.899 -2.0899  2.3815 -2.0923
  694MOL0     H93636   8.547   2.386   6.809 -0.5940 -0.1479  1.3988
  694MOL0     H93637   8.765   2.509   6.830  0.3321 -1.6779 -0.8854
  694MOL0     H93638   8.701   2.444   6.984 -1.3130 -1.8868 -1.4872
  694MOL0     H93639   8.710   2.735   6.896 -1.0595  0.1173 -0.4251
  694MOL0     H93640   8.610   2.692   7.023  1.4398  0.1512  2.9345
  694MOL0     H93641   8.767   2.531   7.225  1.2566 -2.8504 -3.3033
  694MOL0     H93642   8.990   2.516   7.398  1.2235 -1.0418  1.8415
  694MOL0     H93643   9.136   2.547   7.305 -0.4133 -1.4307  1.8860
  694MOL0     H93644   8.945   2.738   7.463  0.1955  1.2028 -1.3647
  694MOL0     H93645   9.087   2.659   7.534  0.7263  1.5093 -0.5408
  694MOL0     H93646   9.138   2.882   7.508  1.0816 -0.2926  0.8339
  694MOL0     H93647   9.088   2.888   7.338 -1.5692 -0.1342  1.1946
  694MOL0     H93648   9.272   2.755   7.262 -1.4525  0.7053  0.1330
  694MOL0     H93649   9.316   2.725   7.438  0.4076 -2.0360 -1.9537
  694MOL0     H93650   9.542   3.107   7.375 -0.0204 -0.2780 -0.1961
  694MOL0     H93651   9.786   3.080   7.336  1.8669 -0.8092  0.7296
  694MOL0     H93652  10.184   2.840   7.451  3.6303 -2.6887  0.8674
  694MOL0     H93653  10.432   2.873   7.426  1.9148 -0.1743 -0.8885
  694MOL0     H93654  10.578   3.152   7.371  1.5415  1.8429 -2.8457
  694MOL0     H93655  10.647   2.996   7.420  3.2642  0.2916  0.5357
  694MOL0     H93656  10.764   3.176   7.214 -0.9779 -0.8415 -1.9068
  694MOL0     H93657  10.834   3.092   7.360 -1.4485  0.8635 -0.3186
  694MOL0     H93658  10.802   2.877   7.240 -0.9772  1.4707  0.2592
  694MOL0     H93659  10.739   2.963   7.098  0.2330  1.1298 -0.1111
  694MOL0     H93660  11.007   3.069   7.186  1.0544 -1.2780  1.0021
  694MOL0     H93661  10.922   3.055   7.033  0.8666 -1.3311 -0.7804
  694MOL0     H93662  11.116   2.900   7.057  0.2382 -0.6448 -1.1902
  694MOL0     H93663  10.966   2.813   7.020 -1.6983  1.4362  0.9386
  694MOL0     H93664  11.092   2.857   7.284  0.7376 -0.4234 -0.7780
  694MOL0     H93665  10.958   2.741   7.262 -1.0937  0.7363 -0.8530
  694MOL0     H93666  11.216   2.687   7.113  1.1686  0.2879  3.1146
  694MOL0     H93667  11.077   2.582   7.140  0.5670 -1.9429  1.2739
  694MOL0     H93668  11.259   2.679   7.364 -0.5953  0.4298 -0.6280
  694MOL0     H93669  11.111   2.586   7.384  0.7408 -2.8607  0.2621
  694MOL0     H93670  10.359   3.078   7.059 -0.8831  1.8892  0.8490
  694MOL0     H93671  10.114   3.060   7.085 -0.7446 -3.6022 -0.0336
  694MOL0     H93672   9.742   2.656   7.296  0.2057  0.1219  0.1495
  694MOL0     H93673   9.497   2.674   7.319  0.0043  0.0555 -3.3329
  694MOL0     H93674   7.971   2.532   6.287 -1.4254  0.7469 -1.2057
  694MOL0     H93675   7.751   2.535   6.160 -0.8220  1.4408 -0.2911
  694MOL0     H93676   7.368   2.523   6.097  1.7699  1.4548 -0.2585
  694MOL0     H93677   7.170   2.518   5.985  3.1882 -2.4019  0.1947
  694MOL0     H93678   6.987   2.905   5.964  1.0650  0.4591 -0.5265
  694MOL0     H93679   6.856   2.851   6.067 -0.6884  0.9584 -2.3679
  694MOL0     H93680   6.895   2.779   5.773  0.4269 -0.5615  1.0665
  694MOL0     H93681   6.775   2.896   5.838  2.6470  0.0574 -3.9408
  694MOL0     H93682   6.769   2.587   5.869 -0.8490 -0.7512 -2.3520
  694MOL0     H93683   6.671   2.702   5.778 -0.3501 -0.4541  0.5242
  694MOL0     H93684   6.705   2.686   6.087  1.9028 -1.9196 -1.0516
  694MOL0     H93685   6.597   2.788   5.993  1.0599  0.7493  0.8765
  694MOL0     H93686   6.365   2.448   5.985 -1.1191  1.1820  0.0677
  694MOL0     H93687   7.055   2.877   6.189 -1.3039  0.0195 -1.9062
  694MOL0     H93688   7.169   2.910   6.404 -0.0085 -2.2754 -0.2578
  694MOL0     H93689   7.346   2.883   6.407 -0.0055  1.5590  1.1760
  694MOL0     H93690   7.283   3.014   6.304  0.7600 -0.5698 -1.1855
  695MOL0     O93691   9.669   3.320   1.419  0.0278  0.5322  0.3791
  695MOL0     C93692   9.661   3.420   1.346  0.0507  0.0539  0.4664
  695MOL0     O93693   9.659   3.422   1.203  0.0181  0.0123  0.2028
  695MOL0     C93694   9.760   3.344   1.147  0.7468  0.0194  1.3746
  695MOL0     C93695   9.892   3.353   1.174 -0.2121 -0.1327 -0.8436
  695MOL0     C93696   9.983   3.274   1.101  0.0688  0.5730  0.0698
  695MOL0     C93697   9.945   3.180   1.010  0.3420 -0.2599  0.2625
  695MOL0     O93698  10.041   3.101   0.955  0.5189  0.3511  0.0547
  695MOL0     C93699  10.031   3.064   0.819 -0.0527  0.3991  0.9852
  695MOL0     C93700  10.154   2.995   0.766 -0.1110 -0.8719 -0.3105
  695MOL0     C93701  10.208   2.884   0.856  0.1874 -0.6176  0.4287
  695MOL0     C93702  10.303   2.786   0.773 -0.4838  0.5749 -0.1072
  695MOL0     C93703  10.374   2.681   0.859 -0.2046  0.4544  0.0201
  695MOL0     C93704  10.496   2.740   0.932  0.4158  0.0439  0.6511
  695MOL0     C93705  10.582   2.623   0.988  0.5592 -0.4469  0.5986
  695MOL0     C93706  10.693   2.680   1.087  0.1701 -0.9200  0.0904
  695MOL0     N93707  10.772   2.578   1.160  1.0059 -0.0206 -0.5389
  695MOL0     C93708  10.825   2.605   1.287  0.4137  0.3444  1.3278
  695MOL0     C93709  10.918   2.509   1.300 -0.1057  0.6572 -1.1533
  695MOL0     C93710  11.011   2.505   1.418 -1.5337  0.2177 -0.1636
  695MOL0     C93711  11.125   2.398   1.400 -0.0985 -1.0123 -0.4895
  695MOL0     C93712  11.200   2.379   1.536 -0.5805 -0.3368 -0.8553
  695MOL0     C93713  11.304   2.276   1.525 -0.2941  0.0677  0.4567
  695MOL0     O93714  11.397   2.329   1.429  0.3458 -0.3354 -0.0726
  695MOL0     C93715  11.520   2.373   1.474 -0.2692  0.2025  0.3229
  695MOL0     C93716  11.582   2.364   1.597 -0.3404 -0.1094 -0.2162
  695MOL0     C93717  11.705   2.425   1.616 -1.0193  0.5782 -0.3253
  695MOL0     C93718  11.783   2.482   1.512  0.0997  0.7455  0.0379
  695MOL0     C93719  11.925   2.531   1.537  0.1566 -0.0038 -0.2908
  695MOL0     O93720  11.991   2.480   1.645  0.1664  0.3999  0.0099
  695MOL0     C93721  12.123   2.529   1.664 -0.3962  0.4870  0.4040
  695MOL0     C93722  12.216   2.520   1.567  0.5248  0.5990  0.2148
  695MOL0     C93723  12.347   2.557   1.569 -0.5836  0.1382 -0.1161
  695MOL0     C93724  12.398   2.619   1.687 -0.1710 -0.2212  0.4237
  695MOL0     O93725  12.523   2.664   1.690 -0.1329 -0.0506 -0.4652
  695MOL0     C93726  12.624   2.583   1.637 -0.7903  0.3212 -0.1990
  695MOL0     C93727  12.755   2.619   1.717 -0.4513  0.1335 -0.2060
  695MOL0     C93728  12.869   2.517   1.688  0.5482 -0.1220 -0.0250
  695MOL0     C93729  13.012   2.554   1.735  0.2163  0.9267  0.1791
  695MOL0     C93730  13.117   2.442   1.703  0.2341 -0.5378  0.0090
  695MOL0     C93731  13.256   2.493   1.737  0.3825  0.2743  0.1647
  695MOL0     C93732  13.347   2.379   1.748 -0.7572 -0.3909 -0.3488
  695MOL0     C93733  13.501   2.424   1.759  0.2961  0.0336 -0.0937
  695MOL0    Cl93734  13.507   2.576   1.855 -0.2280  0.0888 -0.1096
  695MOL0     C93735  12.308   2.640   1.795 -0.4737 -0.5074  0.2809
  695MOL0     C93736  12.168   2.594   1.784 -0.2508  0.0058 -0.5752
  695MOL0     O93737  11.964   2.614   1.459  0.0450 -0.2670 -0.0451
  695MOL0     C93738  11.714   2.499   1.397  0.3148 -0.3736 -0.1496
  695MOL0     C93739  11.588   2.438   1.371  0.7105  0.3253 -0.2448
  695MOL0     N93740  10.923   2.432   1.190  0.4188  0.3775 -0.1998
  695MOL0     N93741  10.827   2.471   1.107  0.5753  0.2606  0.0216
  695MOL0     C93742   9.814   3.174   0.984 -0.8982 -0.6614  0.5743
  695MOL0     C93743   9.718   3.255   1.047 -0.2067 -0.3014  0.1434
  695MOL0     C93744   9.633   3.551   1.405  0.8630 -0.3440  0.0597
  695MOL0     C93745   9.584   3.654   1.321 -0.2588  1.3939 -0.1383
  695MOL0     C93746   9.516   3.765   1.380 -0.2112  0.0119  0.3874
  695MOL0     C93747   9.532   3.790   1.514  0.1693 -1.1242  0.5190
  695MOL0     O93748   9.477   3.892   1.585 -0.3507 -0.1885  0.4956
  695MOL0     C93749   9.385   3.988   1.534 -0.5637  0.7720 -0.0244
  695MOL0     C93750   9.258   3.915   1.537 -0.1685 -0.8596  0.9445
  695MOL0     C93751   9.151   4.019   1.498  0.6577  0.4590  0.6670
  695MOL0     C93752   9.012   3.947   1.488 -0.3061 -0.1064 -0.0994
  695MOL0     C93753   8.964   3.915   1.621  0.0340  0.2990 -0.7552
  695MOL0     C93754   8.922   3.910   1.734 -0.1948  0.3330 -0.2489
  695MOL0     C93755   9.613   3.710   1.593 -0.5031  0.3517 -0.1984
  695MOL0     C93756   9.658   3.590   1.543  0.0885  0.6226 -0.3497
  695MOL0     C93757   9.738   3.501   1.632  0.0973  0.4019  0.5804
  695MOL0     H93758   9.915   3.435   1.241 -0.1045  0.6449 -1.8183
  695MOL0     H93759  10.090   3.276   1.116  0.3768 -1.6502 -1.3122
  695MOL0     H93760   9.953   2.991   0.797 -0.4370  1.5456 -2.0656
  695MOL0     H93761  10.013   3.141   0.743  2.9566 -0.8110 -1.1722
  695MOL0     H93762  10.232   3.070   0.752 -0.5037 -0.6704 -1.5800
  695MOL0     H93763  10.136   2.965   0.662  0.9206  2.0024 -1.4198
  695MOL0     H93764  10.121   2.831   0.896 -0.3032 -0.1836 -0.0519
  695MOL0     H93765  10.263   2.932   0.938 -0.3403  0.9494 -0.1068
  695MOL0     H93766  10.248   2.739   0.691  0.9344 -2.3386  0.4683
  695MOL0     H93767  10.388   2.845   0.737  1.0606 -0.6384  1.3842
  695MOL0     H93768  10.299   2.650   0.932 -1.3854  0.1357 -1.2901
  695MOL0     H93769  10.419   2.600   0.802  0.0992 -0.5952  1.6581
  695MOL0     H93770  10.555   2.801   0.862 -1.9139 -1.3903 -2.8851
  695MOL0     H93771  10.450   2.792   1.016 -1.2344 -0.6940  0.2442
  695MOL0     H93772  10.619   2.567   0.901 -1.6852 -0.0351 -0.6953
  695MOL0     H93773  10.515   2.563   1.049  3.3421 -0.7035  3.6699
  695MOL0     H93774  10.767   2.732   1.025  1.5477 -2.0491  0.7396
  695MOL0     H93775  10.640   2.752   1.151 -1.8284 -1.8630 -0.4014
  695MOL0     H93776  10.800   2.692   1.347 -0.4725  0.1198  1.3040
  695MOL0     H93777  11.059   2.602   1.435  0.4223 -0.4268 -1.5066
  695MOL0     H93778  10.962   2.494   1.515 -0.7618  0.5278  0.2735
  695MOL0     H93779  11.069   2.305   1.384 -1.7121 -0.2232  0.3016
  695MOL0     H93780  11.180   2.414   1.307  0.4687 -5.4086 -1.1250
  695MOL0     H93781  11.121   2.353   1.608 -0.4189  1.4648  0.0183
  695MOL0     H93782  11.246   2.469   1.576  1.2140 -0.0320 -3.4161
  695MOL0     H93783  11.269   2.179   1.488  2.1659 -0.8705  0.4164
  695MOL0     H93784  11.350   2.249   1.620 -0.5368 -1.2348  0.2241
  695MOL0     H93785  11.534   2.319   1.683  0.1417 -1.3573 -0.5786
  695MOL0     H93786  11.759   2.417   1.710 -4.1349 -1.1546  1.4983
  695MOL0     H93787  12.181   2.467   1.478 -1.6297  0.3097  1.1648
  695MOL0     H93788  12.408   2.543   1.480  1.4454 -0.1705  1.2562
  695MOL0     H93789  12.596   2.478   1.640  0.9002 -0.1634 -0.4576
  695MOL0     H93790  12.640   2.598   1.529 -1.8925  0.0571 -0.4067
  695MOL0     H93791  12.783   2.714   1.672  2.2232 -2.0769 -3.6808
  695MOL0     H93792  12.733   2.627   1.824  0.2188  0.8369 -0.1115
  695MOL0     H93793  12.841   2.423   1.736  0.6361  0.0134  0.2944
  695MOL0     H93794  12.870   2.495   1.581  1.0052  0.8825 -0.2379
  695MOL0     H93795  13.015   2.578   1.841  1.4817 -1.6056  0.7959
  695MOL0     H93796  13.044   2.642   1.679  4.3139 -0.4724  0.0154
  695MOL0     H93797  13.107   2.417   1.597 -0.1684  0.4991 -0.2059
  695MOL0     H93798  13.088   2.359   1.769  0.5005 -1.1359 -0.6147
  695MOL0     H93799  13.285   2.563   1.659 -0.1549  0.5430  0.2067
  695MOL0     H93800  13.244   2.547   1.831 -0.1661 -3.5912  2.5825
  695MOL0     H93801  13.337   2.314   1.661  1.4082 -1.3909  0.0742
  695MOL0     H93802  13.333   2.317   1.837 -0.9262  0.6751  0.3900
  695MOL0     H93803  13.559   2.348   1.813 -0.9205  0.7558  2.4101
  695MOL0     H93804  13.544   2.440   1.660  1.4348 -1.6982  0.0764
  695MOL0     H93805  12.345   2.695   1.880  0.2977 -2.0146  0.9641
  695MOL0     H93806  12.100   2.592   1.868  1.7868 -1.6399  1.1273
  695MOL0     H93807  11.758   2.532   1.304 -2.0547  0.0689 -1.1685
  695MOL0     H93808  11.540   2.453   1.274 -2.4112  3.6596  1.5689
  695MOL0     H93809   9.777   3.102   0.912 -2.2392  1.0861 -0.5792
  695MOL0     H93810   9.613   3.243   1.023 -0.4513  1.3240  0.3238
  695MOL0     H93811   9.573   3.634   1.215 -1.4801 -0.1463  0.2556
  695MOL0     H93812   9.449   3.823   1.318  1.7868 -0.0343 -1.9599
  695MOL0     H93813   9.399   4.016   1.429 -1.0711 -1.2350 -0.6766
  695MOL0     H93814   9.380   4.075   1.600 -0.9746 -0.8170  2.1502
  695MOL0     H93815   9.231   3.876   1.635  0.8778  0.9157  1.9912
  695MOL0     H93816   9.261   3.827   1.472 -0.5819 -0.1798 -0.0194
  695MOL0     H93817   9.171   4.073   1.405 -1.0322  1.4950  0.8687
  695MOL0     H93818   9.135   4.088   1.581 -0.8386  0.3404  0.4971
  695MOL0     H93819   8.936   4.008   1.438 -3.0695 -5.3101 -3.0500
  695MOL0     H93820   9.016   3.855   1.430  2.6868  0.6505 -1.2616
  695MOL0     H93821   8.880   3.886   1.829  0.0094  0.0726 -0.2233
  695MOL0     H93822   9.647   3.736   1.693  2.7146  0.6448 -1.2390
  695MOL0     H93823   9.794   3.551   1.711  1.8319  1.7452 -1.3753
  695MOL0     H93824   9.676   3.420   1.671  0.0790  0.1271 -0.0037
  695MOL0     H93825   9.812   3.457   1.565 -1.4263  1.3027 -1.8502
  696MOL0     O93826   7.530   8.133   6.774  0.3179  0.4948 -0.2124
  696MOL0     C93827   7.471   8.240   6.772 -0.3284 -0.4218  0.3824
  696MOL0     O93828   7.516   8.355   6.828 -0.2294  0.3061  0.0385
  696MOL0     C93829   7.634   8.358   6.900  0.5089 -0.2015 -0.1285
  696MOL0     C93830   7.621   8.391   7.034 -0.6914 -0.0568  0.7577
  696MOL0     C93831   7.738   8.407   7.109  0.1692  0.2536  0.1611
  696MOL0     C93832   7.858   8.397   7.039 -0.1319 -0.5276 -0.1560
  696MOL0     O93833   7.966   8.414   7.122 -0.1782 -0.4338 -0.0374
  696MOL0     C93834   8.089   8.419   7.054 -0.0444 -0.0735  0.4782
  696MOL0     C93835   8.201   8.411   7.168 -0.2654 -0.2237 -0.8003
  696MOL0     C93836   8.281   8.282   7.158  0.2210 -0.1327 -0.2327
  696MOL0     C93837   8.406   8.291   7.246 -0.2420 -0.3301 -0.6532
  696MOL0     C93838   8.475   8.157   7.272  0.4031 -0.4152  0.9265
  696MOL0     C93839   8.583   8.177   7.374 -0.2810 -0.3301  0.4421
  696MOL0     C93840   8.711   8.200   7.304 -0.1295 -1.1053 -0.2402
  696MOL0     C93841   8.824   8.238   7.409 -0.3641  0.1719  0.4851
  696MOL0     N93842   8.945   8.279   7.337  0.0633 -0.1186  0.0362
  696MOL0     C93843   9.045   8.349   7.396 -1.1852  0.4818  0.0995
  696MOL0     C93844   9.135   8.365   7.299  0.4450 -0.3612  0.2349
  696MOL0     C93845   9.257   8.442   7.309  0.1682 -0.4769  0.3443
  696MOL0     C93846   9.283   8.550   7.202  1.7420 -0.0020  0.1752
  696MOL0     C93847   9.385   8.504   7.101  0.2439 -0.8907  0.6804
  696MOL0     C93848   9.526   8.514   7.154  0.2986 -0.6497  0.6534
  696MOL0     O93849   9.563   8.637   7.225 -0.4471  0.3259  0.7942
  696MOL0     C93850   9.695   8.669   7.235  0.3851 -0.3740 -0.7156
  696MOL0     C93851   9.807   8.595   7.203 -1.0928 -0.5972 -0.1388
  696MOL0     C93852   9.932   8.647   7.226 -0.7522 -0.9907 -0.0287
  696MOL0     C93853   9.959   8.778   7.282  0.6683 -0.4750  0.4268
  696MOL0     C93854  10.096   8.815   7.325  0.1954 -0.1022 -0.3630
  696MOL0     O93855  10.111   8.903   7.431  0.5229 -0.5509 -0.2200
  696MOL0     C93856  10.235   8.924   7.484 -0.2226 -0.6748 -0.3789
  696MOL0     C93857  10.299   8.827   7.572  0.1317 -0.5493 -0.0615
  696MOL0     C93858  10.436   8.861   7.624 -0.0137 -0.2912  0.2213
  696MOL0     C93859  10.493   8.979   7.584 -0.7542  0.8020  0.1112
  696MOL0     O93860  10.609   9.006   7.647 -0.6944  0.0776  0.0237
  696MOL0     C93861  10.731   8.946   7.586  0.7264  1.0993  0.5526
  696MOL0     C93862  10.830   8.905   7.705 -0.3074 -0.6049 -0.2849
  696MOL0     C93863  10.952   8.829   7.650  0.2259  0.1157 -0.1638
  696MOL0     C93864  11.054   8.792   7.752  0.3061  0.5341  0.0544
  696MOL0     C93865  11.161   8.699   7.695  0.5295  0.3662  0.6461
  696MOL0     C93866  11.263   8.666   7.793  0.2913 -0.0664 -0.3055
  696MOL0     C93867  11.350   8.558   7.725 -0.3756  0.1979  0.3855
  696MOL0     C93868  11.462   8.520   7.808  0.1429 -0.9333 -0.1637
  696MOL0    Cl93869  11.424   8.413   7.949  0.1015 -0.0506 -0.2411
  696MOL0     C93870  10.419   9.080   7.521  0.9597 -0.0004  0.1874
  696MOL0     C93871  10.295   9.048   7.469 -0.1817  0.2954 -0.7187
  696MOL0     O93872  10.193   8.763   7.271  0.2453 -0.1828 -0.3152
  696MOL0     C93873   9.843   8.854   7.297  0.2577  0.1649 -0.3944
  696MOL0     C93874   9.713   8.797   7.281  0.2688 -0.8201  1.4969
  696MOL0     N93875   9.086   8.306   7.183  0.3528  0.0197 -0.3124
  696MOL0     N93876   8.976   8.261   7.204  0.6656 -0.0358 -0.3786
  696MOL0     C93877   7.866   8.358   6.906  0.0338 -0.1706  0.5114
  696MOL0     C93878   7.755   8.342   6.832 -0.0502  0.2365 -0.1091
  696MOL0     C93879   7.355   8.260   6.691 -0.4317 -0.1329 -0.2802
  696MOL0     C93880   7.251   8.337   6.754  0.1475 -0.1167 -0.1720
  696MOL0     C93881   7.130   8.365   6.698  0.0932 -0.5526  0.2574
  696MOL0     C93882   7.125   8.338   6.559 -1.5060 -0.2539  0.4549
  696MOL0     O93883   7.010   8.382   6.495  0.0292  0.7846 -0.4270
  696MOL0     C93884   7.011   8.456   6.365  0.3782  0.1118  0.3547
  696MOL0     C93885   7.095   8.583   6.374 -0.4975  0.5508 -0.4897
  696MOL0     C93886   7.071   8.673   6.252  0.2171  0.0261  0.4280
  696MOL0     C93887   7.124   8.814   6.283 -0.4858  0.2918 -0.4320
  696MOL0     C93888   7.127   8.901   6.166 -0.4878  0.9274  0.2833
  696MOL0     C93889   7.128   8.977   6.071 -1.0187 -0.6608  0.3730
  696MOL0     C93890   7.227   8.262   6.491 -0.2489  0.3932 -1.1222
  696MOL0     C93891   7.349   8.231   6.561  0.3894  0.1755  0.5352
  696MOL0     C93892   7.466   8.164   6.488  0.1361  0.2071  0.3018
  696MOL0     H93893   7.523   8.406   7.077  0.1681 -1.0600  3.2566
  696MOL0     H93894   7.748   8.426   7.216 -2.1319  0.5079  0.3801
  696MOL0     H93895   8.101   8.327   6.997  0.1318  1.0069 -1.3003
  696MOL0     H93896   8.097   8.505   6.987  0.3119  0.7557  1.5585
  696MOL0     H93897   8.153   8.416   7.267 -0.0188  2.0377 -0.7323
  696MOL0     H93898   8.262   8.502   7.172 -1.6583  0.7361  2.8015
  696MOL0     H93899   8.304   8.263   7.052  0.9249 -0.8580  0.0416
  696MOL0     H93900   8.222   8.200   7.200  2.3505 -1.8591 -0.4882
  696MOL0     H93901   8.481   8.358   7.202 -0.9052 -0.9923 -2.9273
  696MOL0     H93902   8.388   8.325   7.349  2.6112  2.1006 -0.7992
  696MOL0     H93903   8.408   8.084   7.317  3.1855 -2.8450  1.3955
  696MOL0     H93904   8.519   8.130   7.176  1.5019  1.8198  0.7394
  696MOL0     H93905   8.550   8.248   7.450 -2.3762 -2.0040  1.1909
  696MOL0     H93906   8.611   8.082   7.420 -0.8608 -0.3128  0.8411
  696MOL0     H93907   8.707   8.286   7.237 -1.1789 -1.7298 -1.0130
  696MOL0     H93908   8.737   8.109   7.249 -0.3068 -1.0498 -0.4150
  696MOL0     H93909   8.791   8.320   7.473  0.1448 -0.2045  1.2428
  696MOL0     H93910   8.839   8.150   7.471  1.8815  1.1949  1.5233
  696MOL0     H93911   9.055   8.384   7.499  1.7368 -2.7619  1.1140
  696MOL0     H93912   9.251   8.491   7.407  0.8026  0.1580  0.0793
  696MOL0     H93913   9.340   8.372   7.320  0.8092  0.1343 -0.4173
  696MOL0     H93914   9.195   8.583   7.146  1.4505  2.1117  1.7623
  696MOL0     H93915   9.311   8.648   7.241  0.5117  1.6808 -2.8390
  696MOL0     H93916   9.372   8.568   7.013 -3.1321 -2.3786 -0.0771
  696MOL0     H93917   9.354   8.403   7.070 -3.8070 -0.0240  1.3257
  696MOL0     H93918   9.587   8.485   7.068 -2.8051 -3.4245 -0.8896
  696MOL0     H93919   9.534   8.425   7.217 -1.4724 -2.3403 -1.3476
  696MOL0     H93920   9.794   8.496   7.159 -1.6159 -0.1113 -1.1187
  696MOL0     H93921  10.019   8.584   7.206  0.9518  1.0714  0.4469
  696MOL0     H93922  10.251   8.730   7.582  0.3442 -0.6381  0.1111
  696MOL0     H93923  10.494   8.791   7.682  0.9320  0.4227  0.1566
  696MOL0     H93924  10.709   8.857   7.527  0.4916 -0.0862  2.3666
  696MOL0     H93925  10.771   9.011   7.507  1.0839  2.6054  1.9049
  696MOL0     H93926  10.854   8.997   7.759 -2.9902 -0.0089  0.0577
  696MOL0     H93927  10.789   8.832   7.775 -1.8406 -1.4096 -1.9300
  696MOL0     H93928  10.916   8.734   7.610 -1.6507  1.3187 -1.4856
  696MOL0     H93929  10.997   8.879   7.563  1.6568 -1.3558 -0.3127
  696MOL0     H93930  10.997   8.739   7.829 -0.7839  3.9728  1.8138
  696MOL0     H93931  11.092   8.887   7.789 -0.5663  1.0787 -0.4284
  696MOL0     H93932  11.193   8.748   7.602 -0.2372 -2.1668 -1.0605
  696MOL0     H93933  11.102   8.613   7.662  2.0635  0.6364 -3.4039
  696MOL0     H93934  11.319   8.757   7.814 -2.7637  2.8118 -3.4215
  696MOL0     H93935  11.237   8.626   7.892  0.5362  1.3820  0.3642
  696MOL0     H93936  11.385   8.598   7.630 -0.1426  0.4116  0.5597
  696MOL0     H93937  11.292   8.467   7.709 -0.1620  0.0925  0.2068
  696MOL0     H93938  11.529   8.473   7.735 -0.3611  0.3256 -1.4954
  696MOL0     H93939  11.507   8.614   7.841 -0.4993  0.8052 -3.7257
  696MOL0     H93940  10.470   9.175   7.515  0.4949  0.2653  0.3817
  696MOL0     H93941  10.241   9.128   7.418 -1.1690 -0.5754 -1.0719
  696MOL0     H93942   9.845   8.952   7.345 -1.5151  2.3027 -4.2032
  696MOL0     H93943   9.628   8.859   7.308  1.0971  1.7565 -1.2100
  696MOL0     H93944   7.955   8.354   6.843 -0.8651  0.7427 -0.8635
  696MOL0     H93945   7.767   8.333   6.724  1.5772 -0.8655  0.1172
  696MOL0     H93946   7.263   8.354   6.860 -2.0451 -1.5296  0.3717
  696MOL0     H93947   7.042   8.418   6.733 -0.9736  0.0949 -3.0582
  696MOL0     H93948   6.905   8.486   6.362  0.4808  0.5505  0.9710
  696MOL0     H93949   7.042   8.385   6.288 -1.6956  1.0281 -1.4545
  696MOL0     H93950   7.199   8.549   6.379 -1.1746 -1.5444  2.6461
  696MOL0     H93951   7.081   8.634   6.470  1.6280 -1.2431  0.8923
  696MOL0     H93952   6.963   8.671   6.233  0.3805 -2.6542 -0.6043
  696MOL0     H93953   7.117   8.632   6.162 -0.9585  2.8051 -1.5809
  696MOL0     H93954   7.051   8.862   6.349 -0.3790  0.2155 -0.2584
  696MOL0     H93955   7.224   8.814   6.327 -0.8886  0.2200  0.5240
  696MOL0     H93956   7.137   9.037   5.983  0.7623 -1.9092 -0.3561
  696MOL0     H93957   7.211   8.221   6.392 -2.9591 -3.5327  0.6557
  696MOL0     H93958   7.437   8.154   6.383 -0.8078  0.3720  0.5443
  696MOL0     H93959   7.562   8.216   6.497 -0.0624  0.8685 -1.0782
  696MOL0     H93960   7.479   8.065   6.532  0.5116  0.4774  0.8042
  697MOL0     O93961   2.426   0.707   9.521 -0.0312 -0.4328  0.3354
  697MOL0     C93962   2.448   0.732   9.400  0.3961 -0.4682 -0.0939
  697MOL0     O93963   2.560   0.813   9.348  0.3797 -0.1831  0.0869
  697MOL0     C93964   2.648   0.864   9.436 -0.3656  0.9860 -0.2835
  697MOL0     C93965   2.786   0.865   9.396  0.7244 -0.3146  0.0234
  697MOL0     C93966   2.885   0.916   9.485 -0.9915 -0.3805  0.4182
  697MOL0     C93967   2.852   0.971   9.607 -0.2558 -0.7807  0.9003
  697MOL0     O93968   2.959   1.021   9.686 -0.3120  0.1532 -0.3327
  697MOL0     C93969   2.927   1.086   9.808  0.9768  0.7216 -0.0911
  697MOL0     C93970   3.061   1.090   9.883 -0.2614 -0.1059 -0.7045
  697MOL0     C93971   3.141   0.950   9.878  0.2401 -0.4197 -0.2363
  697MOL0     C93972   3.064   0.833   9.926 -0.0958 -0.2815  0.5278
  697MOL0     C93973   2.999   0.838  10.063 -0.3712  0.5481  0.2580
  697MOL0     C93974   3.091   0.883  10.174 -0.3907  0.1888  0.8094
  697MOL0     C93975   3.219   0.796  10.200 -0.7403  0.5423 -0.0677
  697MOL0     C93976   3.202   0.643  10.203  0.3588  0.4346 -0.2530
  697MOL0     N93977   3.329   0.576  10.220 -0.0501 -1.3588 -0.2679
  697MOL0     C93978   3.360   0.452  10.170  0.6450  0.1775 -0.0565
  697MOL0     C93979   3.487   0.432  10.210  0.3945  0.4528 -0.0899
  697MOL0     C93980   3.564   0.307  10.166  0.1418 -0.3369  0.0677
  697MOL0     C93981   3.650   0.247  10.275  0.5818  0.2247 -0.2276
  697MOL0     C93982   3.568   0.213  10.406 -0.4914  0.3898 -0.6357
  697MOL0     C93983   3.659   0.163  10.514 -0.3216  0.0831 -0.3094
  697MOL0     O93984   3.709   0.026  10.486  0.1536 -0.2335 -0.3382
  697MOL0     C93985   3.837  -0.017  10.526  0.6353  0.2511 -0.0782
  697MOL0     C93986   3.945   0.065  10.567  1.0053 -0.3349 -0.3724
  697MOL0     C93987   4.075   0.021  10.575 -0.2222  0.1081  0.3825
  697MOL0     C93988   4.099  -0.122  10.568 -0.3628  0.7335  0.6563
  697MOL0     C93989   4.233  -0.178  10.576 -0.5188 -0.2108 -0.0090
  697MOL0     O93990   4.342  -0.098  10.608 -0.0595  0.6246 -0.0476
  697MOL0     C93991   4.463  -0.158  10.625  0.0233 -0.4116 -0.0357
  697MOL0     C93992   4.497  -0.216  10.737  0.2514 -0.1633 -0.5536
  697MOL0     C93993   4.632  -0.240  10.761  0.1579 -0.8182 -0.4989
  697MOL0     C93994   4.733  -0.220  10.672  0.2526  0.5380 -0.9230
  697MOL0     O93995   4.863  -0.249  10.687 -0.9605  0.3811  0.9009
  697MOL0     C93996   4.917  -0.256  10.813 -0.4367 -0.3402  0.1508
  697MOL0     C93997   5.069  -0.278  10.793  0.6369 -0.7952  0.6196
  697MOL0     C93998   5.137  -0.246  10.930  0.0785  0.0409  0.8421
  697MOL0     C93999   5.285  -0.281  10.934 -0.9675 -0.0594  0.6851
  697MOL0     C94000   5.352  -0.234  11.062  0.1587 -0.1836  0.2768
  697MOL0     C94001   5.510  -0.222  11.035  0.3853  0.1714 -0.6553
  697MOL0     C94002   5.588  -0.241  11.163  0.2533 -0.9148  0.1506
  697MOL0     C94003   5.734  -0.279  11.149  0.2865 -0.3799 -0.5539
  697MOL0    Cl94004   5.790  -0.361  11.304 -0.2366  0.1138  0.3208
  697MOL0     C94005   4.693  -0.156  10.554 -0.1622  0.6145  0.6309
  697MOL0     C94006   4.558  -0.129  10.527  0.7195  1.2223 -0.4149
  697MOL0     O94007   4.241  -0.301  10.544 -0.9588 -0.3894 -0.0925
  697MOL0     C94008   3.986  -0.201  10.543 -0.2372 -0.8314 -0.1719
  697MOL0     C94009   3.856  -0.151  10.522 -0.1183  0.3705 -0.5950
  697MOL0     N94010   3.533   0.525  10.297 -0.5103  0.7614 -0.2639
  697MOL0     N94011   3.431   0.611  10.303  0.2524 -0.2760  0.1768
  697MOL0     C94012   2.713   0.964   9.641 -0.1118  0.9071 -0.4318
  697MOL0     C94013   2.616   0.918   9.565 -0.6777  0.2001  0.8306
  697MOL0     C94014   2.361   0.661   9.297  0.1629 -0.3683 -0.4869
  697MOL0     C94015   2.381   0.706   9.167 -0.4633  0.1978  0.1176
  697MOL0     C94016   2.300   0.669   9.059 -0.1765  0.1613  0.1995
  697MOL0     C94017   2.190   0.582   9.086  0.0477  0.0672 -0.3343
  697MOL0     O94018   2.115   0.523   8.990  0.1465  0.1997 -0.4364
  697MOL0     C94019   2.145   0.532   8.852  0.2675  0.4299 -0.1087
  697MOL0     C94020   2.030   0.477   8.763 -0.5689 -0.2413  0.3495
  697MOL0     C94021   2.049   0.534   8.619 -0.3679  0.0617 -0.3204
  697MOL0     C94022   1.930   0.498   8.529 -0.8284 -0.2925  0.0747
  697MOL0     C94023   1.923   0.356   8.487 -0.3760 -0.5523 -0.5333
  697MOL0     C94024   1.902   0.240   8.464 -0.1968 -0.6494 -0.1703
  697MOL0     C94025   2.177   0.531   9.216  0.4441 -0.4594  0.2600
  697MOL0     C94026   2.255   0.574   9.322  0.2442  1.0909 -0.1735
  697MOL0     C94027   2.192   0.548   9.455 -0.3827 -0.1196 -0.0733
  697MOL0     H94028   2.792   0.817   9.299 -1.8188  0.7970 -0.7732
  697MOL0     H94029   2.985   0.919   9.443 -1.2262  2.2325 -0.1630
  697MOL0     H94030   2.877   1.182   9.792 -2.2260 -0.8519 -0.3299
  697MOL0     H94031   2.855   1.018   9.855 -2.3003  2.5142 -2.0895
  697MOL0     H94032   3.047   1.123   9.986  1.1922  0.0502 -0.5293
  697MOL0     H94033   3.117   1.169   9.831 -1.8874  0.0923 -2.2658
  697MOL0     H94034   3.231   0.946   9.940  0.7946  3.9676 -0.4594
  697MOL0     H94035   3.170   0.929   9.775  1.4716  0.3362 -0.0565
  697MOL0     H94036   2.977   0.812   9.863 -0.3192 -0.3807  0.8686
  697MOL0     H94037   3.128   0.744   9.920 -0.8531 -0.7512 -2.6830
  697MOL0     H94038   2.913   0.905  10.066  0.2839  1.3831  0.7401
  697MOL0     H94039   2.972   0.734  10.085  0.9312 -0.2506 -1.6590
  697MOL0     H94040   3.128   0.984  10.151 -1.3032  0.7538  1.7268
  697MOL0     H94041   3.036   0.890  10.268  1.2462 -0.1428  1.8304
  697MOL0     H94042   3.269   0.826  10.292  2.6010 -0.4028 -1.4423
  697MOL0     H94043   3.286   0.818  10.117 -2.2808  0.3412 -1.4249
  697MOL0     H94044   3.121   0.624  10.273 -0.6957  0.2979 -1.4688
  697MOL0     H94045   3.163   0.612  10.105  2.0815 -0.0319 -0.8359
  697MOL0     H94046   3.299   0.383  10.112  0.2504  1.0318 -0.6778
  697MOL0     H94047   3.495   0.227  10.135  0.6500  0.4076 -3.4534
  697MOL0     H94048   3.629   0.328  10.081 -0.5821 -1.5591 -0.8267
  697MOL0     H94049   3.695   0.155  10.236 -0.2704  0.4133 -1.7490
  697MOL0     H94050   3.739   0.304  10.305  0.6810 -0.5570  0.9972
  697MOL0     H94051   3.501   0.130  10.381 -2.4415  2.3543 -2.3516
  697MOL0     H94052   3.517   0.302  10.442 -0.4470  0.6031 -1.0900
  697MOL0     H94053   3.608   0.185  10.608  1.6027  2.6429  0.2525
  697MOL0     H94054   3.744   0.227  10.538  1.3733 -1.7573 -1.0662
  697MOL0     H94055   3.925   0.170  10.585 -3.1569 -1.0328  0.0030
  697MOL0     H94056   4.154   0.093  10.596 -2.1724  2.2064  0.8929
  697MOL0     H94057   4.421  -0.217  10.814 -0.2819 -1.6571 -1.0702
  697MOL0     H94058   4.646  -0.273  10.864  2.9682  0.5477 -0.3235
  697MOL0     H94059   4.902  -0.160  10.864 -0.3992  0.0748 -0.6094
  697MOL0     H94060   4.872  -0.329  10.881  0.4358 -0.3881  0.6950
  697MOL0     H94061   5.080  -0.383  10.765  0.1640 -0.4205 -1.0894
  697MOL0     H94062   5.115  -0.216  10.715 -2.4771 -0.7868 -1.3585
  697MOL0     H94063   5.125  -0.140  10.952 -1.0433  0.4927 -1.5721
  697MOL0     H94064   5.081  -0.309  11.000 -0.0738  0.2838  0.9399
  697MOL0     H94065   5.331  -0.241  10.843 -2.9491  2.0606  0.5403
  697MOL0     H94066   5.291  -0.390  10.931  3.5769  0.0107 -1.3379
  697MOL0     H94067   5.323  -0.292  11.150 -0.7972 -2.5919 -1.5433
  697MOL0     H94068   5.310  -0.135  11.082 -0.9775 -0.6425  0.2060
  697MOL0     H94069   5.524  -0.307  10.969 -1.2407  0.8488 -1.9321
  697MOL0     H94070   5.534  -0.125  10.990 -0.8114  0.7086 -0.1771
  697MOL0     H94071   5.534  -0.315  11.222 -0.2189  0.6160  1.7305
  697MOL0     H94072   5.571  -0.144  11.211 -1.1151 -0.4395 -1.2277
  697MOL0     H94073   5.748  -0.362  11.080  2.3236 -2.1817  1.8507
  697MOL0     H94074   5.790  -0.187  11.130 -3.2242  1.2495 -4.6548
  697MOL0     H94075   4.769  -0.142  10.478  0.4351 -1.3939  0.8020
  697MOL0     H94076   4.530  -0.083  10.432 -0.5884  1.1376 -0.0863
  697MOL0     H94077   3.983  -0.308  10.524  0.9621 -0.5226 -2.2957
  697MOL0     H94078   3.772  -0.210  10.485 -1.0121  1.3137 -0.1391
  697MOL0     H94079   2.671   1.024   9.721 -1.2551  0.7969 -0.9306
  697MOL0     H94080   2.515   0.922   9.605 -0.6173  1.8877  0.8747
  697MOL0     H94081   2.465   0.773   9.152  1.0443 -2.1009 -2.6406
  697MOL0     H94082   2.315   0.693   8.954 -3.5736 -3.9433 -1.5093
  697MOL0     H94083   2.236   0.473   8.834 -0.9505 -2.1123  1.5418
  697MOL0     H94084   2.177   0.632   8.821  2.0702  0.2749  1.0954
  697MOL0     H94085   1.938   0.516   8.808 -0.4270  2.1001 -1.1885
  697MOL0     H94086   2.020   0.369   8.755 -2.0099 -0.0084 -4.6886
  697MOL0     H94087   2.139   0.484   8.582  1.1862  0.6699  2.3805
  697MOL0     H94088   2.065   0.642   8.610  1.4117 -0.2326 -1.1627
  697MOL0     H94089   1.839   0.525   8.584 -0.0387  0.4529  1.0696
  697MOL0     H94090   1.937   0.558   8.438 -0.1879 -0.1688  0.1956
  697MOL0     H94091   1.866   0.141   8.442  0.5570 -1.3722  1.6372
  697MOL0     H94092   2.094   0.462   9.229  0.4776 -0.7014 -0.7509
  697MOL0     H94093   2.147   0.450   9.473  2.5877 -1.2360  1.8661
  697MOL0     H94094   2.271   0.540   9.530 -0.5100 -3.5554 -0.1535
  697MOL0     H94095   2.131   0.636   9.479 -0.3137 -0.9039  3.4755
  698MOL0     O94096   1.035   0.725   3.126  0.6158 -1.5949  0.1659
  698MOL0     C94097   0.926   0.728   3.188  0.3637 -0.5928  0.2736
  698MOL0     O94098   0.911   0.725   3.325  0.8324 -0.7885 -0.8758
  698MOL0     C94099   1.018   0.736   3.412  0.4535  0.5095  0.3249
  698MOL0     C94100   1.086   0.861   3.438  0.0325  0.2073  0.8581
  698MOL0     C94101   1.201   0.870   3.516  0.5128  0.0491 -0.3637
  698MOL0     C94102   1.247   0.755   3.583  0.7059  0.4138 -0.3814
  698MOL0     O94103   1.367   0.740   3.652  0.7519 -0.0332 -0.4723
  698MOL0     C94104   1.445   0.852   3.684 -0.5869 -0.7385  0.5695
  698MOL0     C94105   1.566   0.788   3.761  0.5413 -0.7461 -0.5227
  698MOL0     C94106   1.668   0.906   3.788 -1.0689  1.2047 -0.4443
  698MOL0     C94107   1.800   0.848   3.833  0.1072 -0.0143  0.6605
  698MOL0     C94108   1.902   0.966   3.857 -0.1801  0.4309 -0.0247
  698MOL0     C94109   2.027   0.910   3.922  0.3267 -0.0069 -0.1336
  698MOL0     C94110   2.125   1.028   3.922 -0.2575 -0.0774 -0.3972
  698MOL0     C94111   2.236   0.978   4.010  0.3176  0.0995  0.2990
  698MOL0     N94112   2.347   1.071   4.014  0.0444  0.3951 -0.0106
  698MOL0     C94113   2.357   1.191   4.081  0.3001  0.6304  0.3581
  698MOL0     C94114   2.476   1.252   4.049 -0.2614  0.6202 -0.2553
  698MOL0     C94115   2.533   1.377   4.114 -0.0136 -0.4350 -0.2851
  698MOL0     C94116   2.555   1.377   4.264 -0.2581  0.5716  0.2383
  698MOL0     C94117   2.647   1.266   4.314  0.0522 -0.0022 -0.8764
  698MOL0     C94118   2.787   1.252   4.264 -0.2818  0.6878  0.0674
  698MOL0     O94119   2.843   1.125   4.312 -0.4358 -0.1987  0.0239
  698MOL0     C94120   2.935   1.134   4.411  0.4268 -0.1465 -0.8362
  698MOL0     C94121   2.949   1.243   4.502  0.0625 -0.1686 -0.7573
  698MOL0     C94122   3.054   1.243   4.596 -0.4516  0.2791  0.0354
  698MOL0     C94123   3.131   1.126   4.609 -0.5713  0.0859 -0.3900
  698MOL0     C94124   3.248   1.112   4.701 -1.1780  0.2786 -0.2146
  698MOL0     O94125   3.306   0.991   4.727 -0.3367  0.5689  0.3707
  698MOL0     C94126   3.422   0.985   4.804  1.2000 -0.2089 -0.3306
  698MOL0     C94127   3.401   0.914   4.922 -0.0693  0.4512  0.7091
  698MOL0     C94128   3.513   0.868   5.000  0.1541 -0.2607 -0.6431
  698MOL0     C94129   3.640   0.905   4.968 -0.2386 -0.1292 -0.3512
  698MOL0     O94130   3.733   0.856   5.057 -0.6464  0.6918  0.4858
  698MOL0     C94131   3.866   0.908   5.058  0.5592 -0.1931 -0.1180
  698MOL0     C94132   3.933   0.834   5.176 -0.8832  0.1249  0.3850
  698MOL0     C94133   3.970   0.682   5.157 -0.0696 -0.4235  0.3272
  698MOL0     C94134   3.948   0.593   5.285 -0.0474 -0.7315  0.4790
  698MOL0     C94135   3.821   0.520   5.272 -0.1698  0.2824  0.0677
  698MOL0     C94136   3.692   0.604   5.283  0.6726  0.6100  0.1586
  698MOL0     C94137   3.576   0.519   5.323  0.9777 -0.3019  0.1105
  698MOL0     C94138   3.502   0.460   5.198  0.0601 -0.1755 -0.1236
  698MOL0    Cl94139   3.363   0.354   5.220 -0.0909 -0.3299  0.1588
  698MOL0     C94140   3.662   0.967   4.845 -0.0962  0.5971 -0.1203
  698MOL0     C94141   3.551   1.015   4.765  0.0824 -0.1286 -0.0190
  698MOL0     O94142   3.282   1.219   4.755  0.5459 -0.9338 -0.4539
  698MOL0     C94143   3.098   1.013   4.530  0.6227  0.4907  0.8406
  698MOL0     C94144   3.009   1.023   4.428  0.2115  0.7439 -0.1852
  698MOL0     N94145   2.537   1.168   3.953  0.2873  0.3256 -0.2107
  698MOL0     N94146   2.460   1.072   3.935  0.0048  0.6636  0.3772
  698MOL0     C94147   1.166   0.635   3.564  0.3299  0.1607  0.5243
  698MOL0     C94148   1.055   0.625   3.482  0.0189 -0.1735  0.1032
  698MOL0     C94149   0.800   0.723   3.095 -0.0699 -0.0387  0.7085
  698MOL0     C94150   0.818   0.690   2.956 -0.4487  0.0502  0.9042
  698MOL0     C94151   0.720   0.665   2.870  0.8664 -0.6211  0.2573
  698MOL0     C94152   0.585   0.692   2.903  0.1284  0.4887  0.7070
  698MOL0     O94153   0.493   0.659   2.807  0.4085 -0.3311 -0.1991
  698MOL0     C94154   0.351   0.659   2.857 -0.0769  0.0078  0.5721
  698MOL0     C94155   0.253   0.595   2.760  0.4326 -0.4612  0.2048
  698MOL0     C94156   0.108   0.591   2.811  0.4546 -0.9618 -0.3160
  698MOL0     C94157   0.021   0.498   2.732 -0.1025  0.3807  0.5148
  698MOL0     C94158  -0.013   0.554   2.597 -0.0785  0.4300 -0.4795
  698MOL0     C94159  -0.024   0.600   2.489  0.8163 -0.0958  1.5289
  698MOL0     C94160   0.563   0.749   3.028 -0.3168  0.8246 -0.7739
  698MOL0     C94161   0.668   0.762   3.127  0.8234  0.2875  0.7003
  698MOL0     C94162   0.639   0.830   3.260 -0.3426  0.3464 -0.0082
  698MOL0     H94163   1.048   0.951   3.389  2.0896 -0.3154 -1.9738
  698MOL0     H94164   1.253   0.965   3.517  2.4758 -0.9835 -0.4302
  698MOL0     H94165   1.477   0.896   3.589  1.0202 -0.9686  0.9837
  698MOL0     H94166   1.399   0.924   3.754  3.5883  0.0514  2.8250
  698MOL0     H94167   1.610   0.710   3.698 -2.0102 -1.7035 -1.2496
  698MOL0     H94168   1.529   0.733   3.848 -2.9078 -1.0665 -2.0126
  698MOL0     H94169   1.635   0.978   3.863  1.8740  1.8307  0.3921
  698MOL0     H94170   1.682   0.955   3.692 -1.4551 -0.7681 -1.5721
  698MOL0     H94171   1.784   0.793   3.927 -0.6342 -0.3621  0.3374
  698MOL0     H94172   1.843   0.781   3.758 -0.2738  0.6410 -0.1569
  698MOL0     H94173   1.934   1.018   3.766 -0.8248  2.2087  0.7356
  698MOL0     H94174   1.871   1.036   3.934 -1.5459  0.6635 -0.7625
  698MOL0     H94175   2.004   0.883   4.025 -1.1138 -2.0516 -0.9166
  698MOL0     H94176   2.066   0.820   3.873  1.9721 -0.9546  2.7228
  698MOL0     H94177   2.072   1.109   3.975  2.9149  0.8751  1.5985
  698MOL0     H94178   2.161   1.067   3.827  1.6177  0.9411  0.6724
  698MOL0     H94179   2.196   0.966   4.111  0.3542 -1.6821  0.1329
  698MOL0     H94180   2.266   0.881   3.968  1.9612  1.5964 -2.2809
  698MOL0     H94181   2.283   1.239   4.144  2.3731  1.1738  2.5124
  698MOL0     H94182   2.630   1.389   4.065  0.0694  0.2343  0.0407
  698MOL0     H94183   2.476   1.468   4.093 -1.8043 -0.0582  4.8147
  698MOL0     H94184   2.608   1.468   4.292  1.4357  0.8230 -3.2840
  698MOL0     H94185   2.461   1.365   4.319  0.4767  2.1738  1.9536
  698MOL0     H94186   2.593   1.174   4.293 -2.6354  2.0188 -3.6907
  698MOL0     H94187   2.659   1.281   4.422 -0.0309  2.1253 -1.1074
  698MOL0     H94188   2.846   1.341   4.290 -0.5514  0.2257  2.5295
  698MOL0     H94189   2.773   1.230   4.158  1.5891 -1.2441  0.1442
  698MOL0     H94190   2.880   1.326   4.498 -1.8561 -1.7257 -3.9069
  698MOL0     H94191   3.071   1.343   4.635 -2.9929  0.3932  1.0141
  698MOL0     H94192   3.300   0.878   4.940  0.1036 -0.7553 -0.6004
  698MOL0     H94193   3.503   0.799   5.084 -1.7398 -1.9699 -2.1684
  698MOL0     H94194   3.925   0.907   4.966  2.5786 -1.2098  1.1124
  698MOL0     H94195   3.865   1.012   5.093 -3.9135 -0.5975  1.5462
  698MOL0     H94196   4.028   0.886   5.191 -1.1971  0.4371  1.3741
  698MOL0     H94197   3.870   0.851   5.263 -0.8630 -1.2418  0.6844
  698MOL0     H94198   3.894   0.646   5.087 -1.5201  0.1244  1.5450
  698MOL0     H94199   4.068   0.662   5.114 -0.6207 -0.3122 -1.0348
  698MOL0     H94200   3.966   0.652   5.375  2.7162 -0.5347 -0.1370
  698MOL0     H94201   4.025   0.516   5.285  0.2965 -0.4411 -1.3545
  698MOL0     H94202   3.824   0.452   5.358  2.5767  0.7268  0.4136
  698MOL0     H94203   3.829   0.459   5.182 -1.0232  0.1366  0.0825
  698MOL0     H94204   3.704   0.676   5.364 -2.4580  0.8295  0.5455
  698MOL0     H94205   3.684   0.662   5.191  3.6180  1.7289  0.4954
  698MOL0     H94206   3.513   0.597   5.367  0.1844 -0.6833 -0.3265
  698MOL0     H94207   3.600   0.439   5.392 -0.1484 -0.0145  0.8631
  698MOL0     H94208   3.456   0.547   5.149 -0.3233 -0.0658  0.4202
  698MOL0     H94209   3.583   0.425   5.134  0.1647  1.6892 -1.0838
  698MOL0     H94210   3.754   0.988   4.791 -0.4269  1.6496 -0.3134
  698MOL0     H94211   3.564   1.066   4.670  0.8070 -0.5348 -0.1525
  698MOL0     H94212   3.146   0.916   4.536 -1.4338 -0.6563 -0.2735
  698MOL0     H94213   2.997   0.942   4.356  1.4178  1.8610 -1.7285
  698MOL0     H94214   1.200   0.546   3.617  0.0989  0.9310  2.0239
  698MOL0     H94215   0.998   0.533   3.469  1.0821 -0.8909  0.4102
  698MOL0     H94216   0.917   0.668   2.916 -0.4144 -1.4296  1.7207
  698MOL0     H94217   0.754   0.625   2.775  1.1878  0.5544 -0.1323
  698MOL0     H94218   0.326   0.764   2.868 -0.3725 -0.0511  0.4613
  698MOL0     H94219   0.342   0.606   2.952 -1.8542 -1.4358 -0.3356
  698MOL0     H94220   0.288   0.493   2.741 -1.9946 -1.5945  1.4089
  698MOL0     H94221   0.244   0.650   2.666 -3.8786 -1.8620 -0.3916
  698MOL0     H94222   0.058   0.688   2.802 -0.6305 -1.4167  0.6324
  698MOL0     H94223   0.101   0.576   2.919 -0.8147  1.5743  0.0308
  698MOL0     H94224   0.077   0.406   2.713  0.4032  1.3553 -3.4850
  698MOL0     H94225  -0.070   0.487   2.792  1.0655 -0.0118  2.2871
  698MOL0     H94226  -0.033   0.648   2.394  1.1694 -2.5565  0.1723
  698MOL0     H94227   0.460   0.774   3.049 -0.4785  0.1577 -0.7455
  698MOL0     H94228   0.732   0.881   3.285  2.0076 -2.4772 -2.1677
  698MOL0     H94229   0.555   0.900   3.260 -0.6017  0.0690  1.7623
  698MOL0     H94230   0.617   0.751   3.332  0.3802 -1.3213 -1.5275
  699MOL0     O94231  10.128   2.426   0.722 -0.5905 -0.1117 -0.1452
  699MOL0     C94232  10.049   2.358   0.787  0.6931 -0.1223  0.8567
  699MOL0     O94233  10.080   2.254   0.865 -0.3050 -0.1458 -0.1110
  699MOL0     C94234  10.209   2.218   0.885 -0.4287  0.4089 -0.3619
  699MOL0     C94235  10.234   2.082   0.899 -0.2870 -0.7017  0.0973
  699MOL0     C94236  10.361   2.033   0.919 -0.2692 -0.1957  0.2005
  699MOL0     C94237  10.475   2.115   0.919 -0.4148  0.2669  0.5031
  699MOL0     O94238  10.609   2.080   0.923 -0.1059  1.0553 -0.5837
  699MOL0     C94239  10.654   2.049   1.056  0.7741  0.3999 -0.3078
  699MOL0     C94240  10.786   1.983   1.040 -0.0009  1.0754  0.1303
  699MOL0     C94241  10.905   2.075   1.017 -0.8417  0.0498  0.2316
  699MOL0     C94242  11.034   2.008   1.004  0.0177  0.1401 -0.0054
  699MOL0     C94243  11.147   2.097   1.042 -0.1570 -0.4455 -0.3566
  699MOL0     C94244  11.175   2.216   0.949 -0.2253  0.0641  0.7482
  699MOL0     C94245  11.298   2.299   0.998  0.4809  0.4700  0.6611
  699MOL0     C94246  11.319   2.427   0.910  0.5879  0.2614 -0.2482
  699MOL0     N94247  11.456   2.461   0.905 -1.1909 -0.7326 -0.7126
  699MOL0     C94248  11.568   2.388   0.860 -0.7169  0.2649  0.6206
  699MOL0     C94249  11.679   2.448   0.909  0.1184 -1.5259  0.3859
  699MOL0     C94250  11.819   2.408   0.893 -0.0893  0.4316 -0.2468
  699MOL0     C94251  11.910   2.420   1.014 -0.1120  0.7779 -0.2849
  699MOL0     C94252  11.945   2.561   1.058 -0.3214 -0.1946 -0.1961
  699MOL0     C94253  12.062   2.562   1.156  0.0505  0.3715  0.3041
  699MOL0     O94254  12.180   2.503   1.090 -0.1408  0.0784 -0.4790
  699MOL0     C94255  12.309   2.546   1.118  0.1698  0.8525 -0.1001
  699MOL0     C94256  12.415   2.481   1.053 -0.8922  0.7280 -0.1370
  699MOL0     C94257  12.551   2.507   1.080 -0.5106 -0.7169  0.0616
  699MOL0     C94258  12.580   2.617   1.170 -0.4874  0.0884  0.3449
  699MOL0     C94259  12.723   2.648   1.207 -0.4912 -0.6323 -0.4243
  699MOL0     O94260  12.826   2.571   1.156  0.2424 -0.0366  0.4281
  699MOL0     C94261  12.961   2.567   1.199  0.5866 -0.0030  0.1400
  699MOL0     C94262  13.019   2.631   1.312 -0.7178 -0.1051  0.0528
  699MOL0     C94263  13.160   2.631   1.318  0.2807 -0.0488  0.0952
  699MOL0     C94264  13.246   2.570   1.222  0.6790  0.3581 -0.2110
  699MOL0     O94265  13.380   2.574   1.256 -0.4454 -0.5019 -0.4594
  699MOL0     C94266  13.484   2.541   1.169  0.2617 -0.1744  0.4739
  699MOL0     C94267  13.499   2.651   1.066 -0.2725  0.2338 -0.6482
  699MOL0     C94268  13.544   2.785   1.120 -0.9802 -0.6850  0.5648
  699MOL0     C94269  13.690   2.768   1.161 -0.8295 -0.4231 -0.1763
  699MOL0     C94270  13.749   2.900   1.211  0.3125  0.5072 -0.6615
  699MOL0     C94271  13.905   2.907   1.230 -0.5221 -0.2030 -0.4432
  699MOL0     C94272  13.965   2.936   1.092 -0.1568  0.3878 -0.5226
  699MOL0     C94273  14.117   2.963   1.095 -0.2258  1.0040  0.4187
  699MOL0    Cl94274  14.170   3.108   1.194  0.3975  0.3235 -0.2763
  699MOL0     C94275  13.190   2.500   1.114  0.0864 -0.8080  0.2600
  699MOL0     C94276  13.045   2.505   1.102 -0.9840 -0.6481 -0.0695
  699MOL0     O94277  12.738   2.727   1.301  0.1240 -0.5261 -0.0999
  699MOL0     C94278  12.477   2.685   1.225  0.7211 -0.4363  0.4950
  699MOL0     C94279  12.342   2.647   1.209 -0.1424 -0.1370 -0.6812
  699MOL0     N94280  11.627   2.563   0.976 -0.3155  0.2067 -0.9420
  699MOL0     N94281  11.500   2.566   0.982  0.3439  0.5645 -0.0490
  699MOL0     C94282  10.451   2.260   0.907  0.3001  0.2397 -1.3812
  699MOL0     C94283  10.322   2.311   0.897  0.8394  0.2798  0.2622
  699MOL0     C94284   9.903   2.390   0.777  0.5153  0.7712  0.0014
  699MOL0     C94285   9.810   2.293   0.823 -0.1222 -0.1791 -0.3091
  699MOL0     C94286   9.673   2.316   0.801  0.4619  0.1848 -0.6372
  699MOL0     C94287   9.628   2.429   0.736  0.7944  0.3928  0.8133
  699MOL0     O94288   9.495   2.440   0.709  0.8973  0.1883 -0.4881
  699MOL0     C94289   9.462   2.449   0.567  0.2314 -0.7632  0.3537
  699MOL0     C94290   9.481   2.326   0.478 -0.5874  0.0834  0.2573
  699MOL0     C94291   9.391   2.208   0.509  0.5942  0.5652  0.4403
  699MOL0     C94292   9.246   2.252   0.509  0.4075  0.0644 -0.1612
  699MOL0     C94293   9.167   2.135   0.482 -0.3677  0.4263 -0.9465
  699MOL0     C94294   9.112   2.024   0.461 -0.1333 -0.2633  0.3747
  699MOL0     C94295   9.716   2.531   0.701 -0.4247  0.4219  0.5726
  699MOL0     C94296   9.852   2.513   0.718  0.2159  0.0115 -0.0718
  699MOL0     C94297   9.930   2.641   0.709  0.2647  1.0204 -0.0027
  699MOL0     H94298  10.157   2.005   0.893  0.6526 -1.7501  0.9970
  699MOL0     H94299  10.373   1.927   0.938 -0.1740 -0.1925  0.1592
  699MOL0     H94300  10.657   2.136   1.122  1.8699 -0.3094  0.6299
  699MOL0     H94301  10.583   1.975   1.094  1.9306  0.2022  1.6220
  699MOL0     H94302  10.781   1.920   0.951  1.7519  3.1873 -1.5665
  699MOL0     H94303  10.802   1.924   1.131 -0.9326  0.2640 -0.2118
  699MOL0     H94304  10.897   2.151   1.095  0.9446 -2.1265  2.6805
  699MOL0     H94305  10.894   2.117   0.916 -0.6998 -0.9818 -0.2184
  699MOL0     H94306  11.043   1.932   1.082 -1.0040  3.5880  3.7794
  699MOL0     H94307  11.042   1.977   0.899  0.8112 -1.3742  0.4664
  699MOL0     H94308  11.129   2.126   1.146 -1.9940 -0.5678 -0.6058
  699MOL0     H94309  11.236   2.033   1.036  2.3653  2.6121  1.3619
  699MOL0     H94310  11.195   2.192   0.844  2.5423  2.0291  0.7334
  699MOL0     H94311  11.091   2.286   0.952 -1.7495 -1.5588 -1.0381
  699MOL0     H94312  11.389   2.238   0.996 -0.8838 -1.6542  0.1030
  699MOL0     H94313  11.288   2.329   1.102  2.4637 -2.8375  1.9503
  699MOL0     H94314  11.290   2.402   0.807 -0.7029 -0.5477  0.2950
  699MOL0     H94315  11.263   2.512   0.949  1.9141  0.5722  1.0571
  699MOL0     H94316  11.556   2.290   0.815 -0.5950  1.5933 -2.5446
  699MOL0     H94317  11.814   2.302   0.867 -1.5660  0.8647 -1.8986
  699MOL0     H94318  11.859   2.468   0.811  0.4956 -1.5004 -1.4473
  699MOL0     H94319  11.865   2.369   1.100  0.8438 -0.1774 -0.3355
  699MOL0     H94320  12.004   2.376   0.979  1.2102  0.8297  2.8954
  699MOL0     H94321  11.856   2.606   1.102 -0.5364  1.3144 -2.0603
  699MOL0     H94322  11.979   2.616   0.969  0.1924  3.7716  2.2328
  699MOL0     H94323  12.053   2.515   1.254  2.5742  2.0384  1.4391
  699MOL0     H94324  12.072   2.669   1.176 -0.2552  0.1948  1.4478
  699MOL0     H94325  12.397   2.408   0.974 -1.6262  0.0661  0.6257
  699MOL0     H94326  12.643   2.464   1.040  0.1568  1.1582 -0.5288
  699MOL0     H94327  12.965   2.693   1.383  1.0358  2.8977 -1.0446
  699MOL0     H94328  13.210   2.684   1.398 -1.3891  3.9307 -1.2317
  699MOL0     H94329  13.574   2.540   1.230  0.6746  1.3332 -0.0550
  699MOL0     H94330  13.472   2.445   1.118 -0.2375  1.3712 -2.5746
  699MOL0     H94331  13.572   2.623   0.990 -2.4062  1.2551 -3.2641
  699MOL0     H94332  13.412   2.662   1.000 -1.0232  0.1554  0.3080
  699MOL0     H94333  13.541   2.851   1.033 -3.2804  0.0441  1.1115
  699MOL0     H94334  13.473   2.820   1.195 -0.0724 -3.1047  2.7071
  699MOL0     H94335  13.741   2.724   1.075 -1.2457  1.2474 -1.3345
  699MOL0     H94336  13.697   2.701   1.247 -1.2207  4.2358  3.9147
  699MOL0     H94337  13.707   2.914   1.311 -1.4879  1.3757 -1.5041
  699MOL0     H94338  13.716   2.985   1.151  1.8721  2.9616  1.6881
  699MOL0     H94339  13.931   2.989   1.297 -2.1922 -1.2930  1.6683
  699MOL0     H94340  13.950   2.816   1.271 -0.8119  0.1623  0.7225
  699MOL0     H94341  13.921   3.016   1.031  2.2243  0.7226 -1.9758
  699MOL0     H94342  13.945   2.846   1.034 -1.2063  0.4619 -0.2914
  699MOL0     H94343  14.155   2.870   1.138  0.4603  0.1227 -1.8898
  699MOL0     H94344  14.146   2.981   0.991  1.7257 -1.5409  0.4097
  699MOL0     H94345  13.251   2.454   1.037  0.4759  1.4051 -0.8477
  699MOL0     H94346  12.996   2.474   1.010  1.8598 -0.0279 -1.9139
  699MOL0     H94347  12.488   2.773   1.288 -0.8269  1.4373 -1.6749
  699MOL0     H94348  12.266   2.709   1.254  0.5143  0.5344 -0.4676
  699MOL0     H94349  10.540   2.317   0.932 -0.1214  0.9276 -1.4166
  699MOL0     H94350  10.304   2.418   0.899 -2.1073 -0.0912 -0.8229
  699MOL0     H94351   9.834   2.202   0.878 -0.9094  0.5158  1.2196
  699MOL0     H94352   9.611   2.239   0.844  2.1958  0.6371  3.0257
  699MOL0     H94353   9.525   2.521   0.514  1.8774 -1.3524  1.4285
  699MOL0     H94354   9.356   2.478   0.566 -0.1130 -1.9536  0.2981
  699MOL0     H94355   9.583   2.290   0.489 -0.5670 -0.2045 -0.8034
  699MOL0     H94356   9.467   2.352   0.372  3.0146  1.6269  0.0454
  699MOL0     H94357   9.432   2.160   0.599  1.0924 -0.2200 -0.1997
  699MOL0     H94358   9.414   2.139   0.428 -1.7583  1.6797 -1.2827
  699MOL0     H94359   9.215   2.297   0.604  0.2812 -2.3221  1.0134
  699MOL0     H94360   9.229   2.318   0.424  2.7283 -1.6545 -2.0983
  699MOL0     H94361   9.076   1.927   0.434 -0.8385  0.2615 -0.6131
  699MOL0     H94362   9.675   2.619   0.653 -2.7634 -1.7968 -1.8270
  699MOL0     H94363   9.868   2.730   0.725 -0.1911  1.0342 -1.6941
  699MOL0     H94364  10.005   2.642   0.789 -1.0564 -0.7640  1.3553
  699MOL0     H94365   9.978   2.663   0.614  0.8667 -0.5711 -0.0832
  700MOL0     O94366   2.628   1.095   1.530 -0.1060  0.0802 -0.2818
  700MOL0     C94367   2.562   1.158   1.609  0.1747 -0.3965 -0.2922
  700MOL0     O94368   2.616   1.240   1.713 -0.6134 -0.7070  0.4728
  700MOL0     C94369   2.748   1.245   1.747 -1.3347 -0.3173  0.2629
  700MOL0     C94370   2.836   1.133   1.748 -0.3817 -0.0221  0.1453
  700MOL0     C94371   2.975   1.141   1.776  0.2453 -0.3451  0.7173
  700MOL0     C94372   3.024   1.266   1.819 -0.0659 -0.2308 -1.0010
  700MOL0     O94373   3.155   1.287   1.850  0.4905 -0.2330  0.4723
  700MOL0     C94374   3.256   1.185   1.849 -1.1054 -0.5859  0.1795
  700MOL0     C94375   3.379   1.253   1.915 -0.0773 -0.5506 -0.3507
  700MOL0     C94376   3.494   1.149   1.931 -0.7505 -0.5812 -0.7013
  700MOL0     C94377   3.617   1.231   1.973 -0.2870 -0.1086 -0.8058
  700MOL0     C94378   3.729   1.135   2.017  0.3155 -0.1104 -0.3242
  700MOL0     C94379   3.787   1.054   1.904  0.5972 -0.2354  0.0134
  700MOL0     C94380   3.923   1.118   1.860  0.2992 -0.4633  0.0902
  700MOL0     C94381   4.011   1.040   1.766  0.1277 -0.2216 -0.0188
  700MOL0     N94382   4.065   0.914   1.826  0.1866  0.4023 -1.1070
  700MOL0     C94383   4.114   0.807   1.753  0.4114 -0.2033  0.3167
  700MOL0     C94384   4.177   0.728   1.841  0.5096 -0.1657 -0.2319
  700MOL0     C94385   4.230   0.590   1.815  0.3969  0.1925  0.2019
  700MOL0     C94386   4.124   0.486   1.822  0.8052  0.0301 -0.7120
  700MOL0     C94387   4.035   0.495   1.698 -0.3477 -0.0528 -0.4073
  700MOL0     C94388   3.903   0.417   1.684 -0.6672 -0.6263 -0.0503
  700MOL0     O94389   3.826   0.443   1.809  0.1230  0.8127 -0.3515
  700MOL0     C94390   3.699   0.402   1.813 -0.8822 -0.4679  0.5773
  700MOL0     C94391   3.620   0.455   1.921 -0.5761 -0.6279 -0.1067
  700MOL0     C94392   3.481   0.422   1.928 -0.1122 -0.3149 -0.2008
  700MOL0     C94393   3.412   0.347   1.833 -0.4050  0.3789 -0.1919
  700MOL0     C94394   3.267   0.320   1.837  0.4846  0.3724 -0.2109
  700MOL0     O94395   3.190   0.301   1.720  0.5045 -0.0318  0.2777
  700MOL0     C94396   3.065   0.263   1.729 -0.5035 -0.2124  0.0023
  700MOL0     C94397   2.964   0.360   1.709 -0.0590 -1.0671 -1.0672
  700MOL0     C94398   2.828   0.317   1.739 -0.1469 -0.6949 -0.4810
  700MOL0     C94399   2.797   0.191   1.769 -0.0115  0.2465  0.1966
  700MOL0     O94400   2.670   0.166   1.810  0.3243  0.3069 -0.7725
  700MOL0     C94401   2.633   0.033   1.854  0.1682  0.5897 -0.1612
  700MOL0     C94402   2.486   0.028   1.817 -0.0528  0.1488  0.3186
  700MOL0     C94403   2.397   0.063   1.935 -0.1929 -0.1437  0.2063
  700MOL0     C94404   2.247   0.046   1.902  0.3003 -0.4587  0.0109
  700MOL0     C94405   2.151   0.056   2.031 -0.1039  0.1387  0.3534
  700MOL0     C94406   2.001   0.028   2.004 -1.2331 -0.0978 -0.4885
  700MOL0     C94407   1.971  -0.106   1.943 -0.6726 -0.2920  0.1513
  700MOL0     C94408   1.834  -0.124   1.874  0.0005 -0.3587 -0.1097
  700MOL0    Cl94409   1.699  -0.057   1.977  0.1113 -0.0189 -0.1484
  700MOL0     C94410   2.893   0.096   1.774 -0.3945  0.3610 -0.0099
  700MOL0     C94411   3.025   0.132   1.762 -0.4805  0.1134  0.3431
  700MOL0     O94412   3.216   0.320   1.945 -0.2331 -0.6401  0.0801
  700MOL0     C94413   3.494   0.305   1.721 -0.1538  0.2025  0.1361
  700MOL0     C94414   3.632   0.319   1.720  0.7024  0.1495 -0.0430
  700MOL0     N94415   4.182   0.786   1.962 -0.1203 -0.4087  0.0579
  700MOL0     N94416   4.109   0.896   1.959  0.1531  0.4869 -0.2784
  700MOL0     C94417   2.945   1.376   1.823  0.1259 -0.4883  0.3135
  700MOL0     C94418   2.808   1.367   1.794 -0.0935 -0.4269  0.8585
  700MOL0     C94419   2.415   1.165   1.589  0.2028 -0.2660 -0.0234
  700MOL0     C94420   2.348   1.245   1.686  0.2729  0.0653  0.3868
  700MOL0     C94421   2.208   1.254   1.686  0.1589 -0.2541  0.3086
  700MOL0     C94422   2.130   1.198   1.584 -0.1581  0.6988  0.1602
  700MOL0     O94423   1.989   1.201   1.594  0.7218 -0.2128 -0.3868
  700MOL0     C94424   1.906   1.181   1.472 -0.3152  0.1496  0.1469
  700MOL0     C94425   1.940   1.279   1.360 -0.1024 -0.2205  0.5203
  700MOL0     C94426   1.826   1.302   1.250 -0.5122  0.5681 -0.2469
  700MOL0     C94427   1.736   1.415   1.306 -0.3996  0.2407  1.2836
  700MOL0     C94428   1.596   1.408   1.248  0.0675 -0.3883 -0.2133
  700MOL0     C94429   1.479   1.410   1.224  0.0623 -0.1001  0.6373
  700MOL0     C94430   2.200   1.124   1.491  1.0234  0.5466  0.9482
  700MOL0     C94431   2.340   1.111   1.487  0.2535  0.8518 -0.5055
  700MOL0     C94432   2.395   1.019   1.390  0.3958  0.4431  0.2912
  700MOL0     H94433   2.780   1.042   1.733  0.5727 -0.6500  0.2745
  700MOL0     H94434   3.042   1.056   1.773  2.2388  1.1861 -0.6758
  700MOL0     H94435   3.219   1.103   1.910 -0.7380  0.2930  1.6422
  700MOL0     H94436   3.275   1.157   1.745  0.3071  4.0521 -1.0673
  700MOL0     H94437   3.361   1.295   2.014  2.3365  1.0590 -0.5075
  700MOL0     H94438   3.397   1.342   1.854  1.9849  0.1142  1.1106
  700MOL0     H94439   3.516   1.098   1.837  1.3872  1.3574 -1.3375
  700MOL0     H94440   3.474   1.083   2.016 -1.2891  1.8435  1.1824
  700MOL0     H94441   3.644   1.304   1.896 -0.5451  0.4227 -0.4065
  700MOL0     H94442   3.594   1.302   2.054  2.8044  2.9438 -2.3339
  700MOL0     H94443   3.812   1.180   2.073  2.9615 -1.5804 -2.8013
  700MOL0     H94444   3.684   1.054   2.075  0.8373 -0.5582 -0.5437
  700MOL0     H94445   3.817   0.952   1.932 -0.4413 -0.1540  1.5300
  700MOL0     H94446   3.723   1.035   1.817  1.3208  3.0765 -1.3612
  700MOL0     H94447   3.977   1.144   1.951 -1.0184 -1.3024  1.1530
  700MOL0     H94448   3.906   1.207   1.799  3.2891 -0.5520 -1.0385
  700MOL0     H94449   3.941   1.023   1.684  1.1755  0.7885 -1.1616
  700MOL0     H94450   4.086   1.111   1.730  0.2544 -0.3850 -0.0788
  700MOL0     H94451   4.090   0.782   1.650 -0.4392  0.3441  0.3659
  700MOL0     H94452   4.290   0.583   1.724  0.6589 -0.3508  0.4102
  700MOL0     H94453   4.292   0.551   1.896  1.3220 -0.8511 -0.9852
  700MOL0     H94454   4.161   0.383   1.821 -0.3408 -0.4993  1.8205
  700MOL0     H94455   4.057   0.502   1.908 -0.5833 -1.0691 -1.5498
  700MOL0     H94456   4.093   0.465   1.611  1.4667  1.0582  0.3378
  700MOL0     H94457   4.001   0.598   1.687 -0.4249 -0.0819 -0.4365
  700MOL0     H94458   3.915   0.309   1.688 -5.2013 -1.2757  3.6876
  700MOL0     H94459   3.846   0.430   1.592  0.0209  0.5270 -0.3472
  700MOL0     H94460   3.673   0.520   1.990  2.5677 -0.9859 -1.9783
  700MOL0     H94461   3.428   0.468   2.011  0.7253  1.2041 -0.4544
  700MOL0     H94462   2.989   0.464   1.689 -0.0610 -1.2024 -1.7944
  700MOL0     H94463   2.750   0.391   1.729 -1.2004 -1.7291 -0.1108
  700MOL0     H94464   2.687  -0.045   1.800  0.9007  0.2652  1.0062
  700MOL0     H94465   2.639   0.011   1.961 -4.5366  0.9284  0.3835
  700MOL0     H94466   2.469   0.095   1.732  1.1472 -1.8704 -1.6062
  700MOL0     H94467   2.461  -0.073   1.785 -0.6708  0.0715  1.0427
  700MOL0     H94468   2.420   0.002   2.022 -2.2365  2.0139  2.4113
  700MOL0     H94469   2.414   0.166   1.965 -1.2719  0.2985 -0.6304
  700MOL0     H94470   2.247  -0.058   1.869  1.7880 -1.0886  1.8442
  700MOL0     H94471   2.221   0.113   1.820  3.3779  0.0854 -0.6251
  700MOL0     H94472   2.151   0.156   2.074 -1.3871 -0.7634  2.5789
  700MOL0     H94473   2.183  -0.011   2.111 -1.5780 -2.8768 -1.3935
  700MOL0     H94474   1.952   0.035   2.101  0.8948  2.2800  0.5332
  700MOL0     H94475   1.956   0.110   1.948 -0.9945  1.5585  1.6122
  700MOL0     H94476   1.986  -0.189   2.013  0.0627 -2.5109 -2.4752
  700MOL0     H94477   2.039  -0.116   1.858 -1.2850  2.1119 -0.6849
  700MOL0     H94478   1.840  -0.060   1.785  1.7220  1.7954  1.4525
  700MOL0     H94479   1.811  -0.226   1.841 -1.1617 -0.7095  1.6630
  700MOL0     H94480   2.881  -0.009   1.797 -2.2938  0.4976 -0.2203
  700MOL0     H94481   3.093   0.049   1.777 -0.4098  0.3120  1.1652
  700MOL0     H94482   3.445   0.246   1.644  0.4223  0.3341 -0.3346
  700MOL0     H94483   3.693   0.281   1.639  3.2861 -0.9035  2.2465
  700MOL0     H94484   2.986   1.472   1.853  0.7307 -0.5350 -0.3296
  700MOL0     H94485   2.755   1.461   1.805 -0.7302 -0.8461  1.4591
  700MOL0     H94486   2.392   1.285   1.777 -0.5377  3.7625 -0.6893
  700MOL0     H94487   2.150   1.298   1.767 -0.6025 -4.5229  2.4136
  700MOL0     H94488   1.806   1.215   1.503 -0.7227  0.3937 -1.3610
  700MOL0     H94489   1.909   1.075   1.444 -0.3757 -0.5555  2.5747
  700MOL0     H94490   2.031   1.249   1.307 -0.7604  0.0460 -0.8181
  700MOL0     H94491   1.960   1.372   1.414 -2.2979 -0.0127  1.0807
  700MOL0     H94492   1.764   1.213   1.231 -1.2966  1.2023 -0.7288
  700MOL0     H94493   1.876   1.330   1.156 -1.6543  0.2702 -0.9703
  700MOL0     H94494   1.728   1.409   1.415  0.1417 -0.5090  1.2937
  700MOL0     H94495   1.776   1.509   1.268 -0.9661  0.8833  2.2463
  700MOL0     H94496   1.372   1.415   1.216 -0.0853 -0.2842  2.1596
  700MOL0     H94497   2.146   1.065   1.418  1.1172  0.6730  0.7754
  700MOL0     H94498   2.476   1.078   1.346 -1.5144  2.5150 -0.6409
  700MOL0     H94499   2.433   0.929   1.439  0.4173 -0.6495 -1.6438
  700MOL0     H94500   2.322   0.995   1.312 -1.4971  0.3619  2.0003
  701MOL0     O94501   1.932   5.725   2.170  0.5023 -0.2095 -0.0225
  701MOL0     C94502   1.877   5.818   2.223 -0.2659  0.4640 -0.1595
  701MOL0     O94503   1.945   5.904   2.306  0.2827 -0.4543  0.1303
  701MOL0     C94504   2.077   5.875   2.344  0.2999  0.9791  0.6556
  701MOL0     C94505   2.122   5.766   2.421  0.1815 -0.4512  0.8881
  701MOL0     C94506   2.262   5.747   2.446  0.4112  0.6235 -0.0447
  701MOL0     C94507   2.348   5.841   2.408  0.8025  0.0805  0.2673
  701MOL0     O94508   2.487   5.827   2.408  0.1275  0.2668 -0.0025
  701MOL0     C94509   2.534   5.759   2.524  0.5394 -0.4844 -0.5554
  701MOL0     C94510   2.688   5.788   2.555 -0.1404 -0.1435 -0.1935
  701MOL0     C94511   2.745   5.728   2.674 -1.4986  0.0879 -0.5532
  701MOL0     C94512   2.800   5.586   2.655 -0.1549 -0.2409  0.3171
  701MOL0     C94513   2.864   5.537   2.786 -1.4067  0.4146  0.3193
  701MOL0     C94514   2.890   5.383   2.805  0.1172 -0.3920  0.0991
  701MOL0     C94515   2.995   5.334   2.712  0.7160  0.2451  0.0997
  701MOL0     C94516   3.010   5.177   2.715 -0.5360  0.3128 -0.5648
  701MOL0     N94517   3.087   5.126   2.601 -0.1054  0.5521  0.1118
  701MOL0     C94518   3.213   5.163   2.565 -0.8356  0.2030  0.5221
  701MOL0     C94519   3.238   5.103   2.446  0.6949  0.1581  0.4990
  701MOL0     C94520   3.355   5.118   2.358  0.9388  0.3120  0.2658
  701MOL0     C94521   3.336   5.233   2.269 -0.0546  0.2971  0.4856
  701MOL0     C94522   3.434   5.240   2.151 -0.5480  0.2521  0.4645
  701MOL0     C94523   3.394   5.364   2.064  0.3639  0.2423 -0.2005
  701MOL0     O94524   3.428   5.485   2.126 -0.9815 -0.1441 -0.8690
  701MOL0     C94525   3.544   5.554   2.082  0.0408 -1.3985  0.1067
  701MOL0     C94526   3.646   5.488   2.015 -0.0277 -1.2918 -0.7476
  701MOL0     C94527   3.758   5.556   1.966  0.8801 -1.1134  0.4495
  701MOL0     C94528   3.778   5.700   1.993 -0.6212 -0.1467 -0.2110
  701MOL0     C94529   3.907   5.767   1.951  0.3015  0.6589  0.2062
  701MOL0     O94530   4.005   5.700   1.879  0.0410  0.7493 -0.8130
  701MOL0     C94531   4.123   5.772   1.862  0.7199 -0.4563  0.3331
  701MOL0     C94532   4.128   5.871   1.756 -0.1879  0.5939 -0.2576
  701MOL0     C94533   4.240   5.952   1.739 -0.1127 -0.8581 -0.1720
  701MOL0     C94534   4.361   5.927   1.812 -0.0386 -0.7252  0.3836
  701MOL0     O94535   4.484   5.990   1.806 -0.1886 -0.0737  0.0740
  701MOL0     C94536   4.487   6.130   1.768  0.1302 -0.5445 -0.3528
  701MOL0     C94537   4.619   6.186   1.797 -0.0535 -0.3541 -0.6920
  701MOL0     C94538   4.740   6.104   1.750 -0.8732  0.2437 -0.4682
  701MOL0     C94539   4.800   6.152   1.615 -0.5146  0.4802 -0.2964
  701MOL0     C94540   4.891   6.042   1.555  0.2197 -0.2778  0.8128
  701MOL0     C94541   4.904   6.060   1.402  1.0516 -0.0613  0.5467
  701MOL0     C94542   5.019   5.976   1.341  0.9097 -0.0508 -0.7698
  701MOL0     C94543   4.977   5.906   1.208 -0.1881 -0.3696 -0.5138
  701MOL0    Cl94544   4.890   5.759   1.228 -0.2875 -0.0457 -0.6212
  701MOL0     C94545   4.346   5.824   1.913 -0.2861  0.4715  0.5807
  701MOL0     C94546   4.234   5.751   1.940  0.3599 -0.0587  0.0106
  701MOL0     O94547   3.916   5.887   1.982  0.2605 -0.1731 -0.4253
  701MOL0     C94548   3.676   5.764   2.058  0.4781 -0.3187  0.3301
  701MOL0     C94549   3.554   5.697   2.096 -0.5566  0.3622 -0.0840
  701MOL0     N94550   3.122   5.037   2.402 -0.5358  0.4699  0.3728
  701MOL0     N94551   3.036   5.043   2.497  0.7029 -0.2432 -0.2513
  701MOL0     C94552   2.302   5.958   2.348 -0.1987  0.2275  0.7957
  701MOL0     C94553   2.166   5.979   2.319 -0.2339  0.8237 -0.7245
  701MOL0     C94554   1.733   5.843   2.201 -0.0899  0.4772  0.2552
  701MOL0     C94555   1.659   5.728   2.200  0.2790 -0.7077  0.2603
  701MOL0     C94556   1.519   5.733   2.168 -0.7907  0.1466  0.2950
  701MOL0     C94557   1.445   5.848   2.141  0.1179 -0.3883 -0.0676
  701MOL0     O94558   1.321   5.841   2.092  0.4398  0.2377 -0.1554
  701MOL0     C94559   1.220   5.914   2.167 -1.0322  0.2904  0.2671
  701MOL0     C94560   1.180   6.027   2.067 -0.4028  1.2476  0.3256
  701MOL0     C94561   1.065   6.119   2.103  0.3469 -1.2241 -0.8724
  701MOL0     C94562   0.915   6.067   2.109 -0.0539  0.4617  0.0485
  701MOL0     C94563   0.888   5.959   2.204 -0.2204  0.5514  0.1712
  701MOL0     C94564   0.869   5.859   2.272  0.8508 -0.3430  0.3794
  701MOL0     C94565   1.518   5.969   2.135  0.2319  1.0922  0.1101
  701MOL0     C94566   1.657   5.964   2.176  0.1855  0.2358  0.3945
  701MOL0     C94567   1.741   6.090   2.173  0.7211 -0.1830  0.0089
  701MOL0     H94568   2.038   5.712   2.464  0.0007  0.1143  1.2620
  701MOL0     H94569   2.294   5.650   2.482  0.7777 -0.1384 -2.2506
  701MOL0     H94570   2.476   5.792   2.610  1.3179 -0.9963  0.1873
  701MOL0     H94571   2.523   5.650   2.512  1.3986 -0.5160 -1.1640
  701MOL0     H94572   2.711   5.894   2.571  0.7216 -0.3301 -0.1738
  701MOL0     H94573   2.735   5.763   2.460 -3.0171 -0.7411 -1.5507
  701MOL0     H94574   2.671   5.726   2.755 -0.3881 -1.4608  0.5028
  701MOL0     H94575   2.824   5.788   2.719 -0.0191 -2.3806  0.3925
  701MOL0     H94576   2.716   5.519   2.633 -0.3720  0.3782 -0.8324
  701MOL0     H94577   2.864   5.575   2.567 -1.5618 -5.3519 -0.3746
  701MOL0     H94578   2.962   5.585   2.790 -0.3026 -1.3345 -2.7278
  701MOL0     H94579   2.808   5.574   2.873  3.2732  3.1026  2.6020
  701MOL0     H94580   2.932   5.358   2.903 -3.0038 -1.4996  1.2677
  701MOL0     H94581   2.797   5.329   2.788  0.9126 -1.4251 -1.1796
  701MOL0     H94582   3.090   5.380   2.740  0.7637  1.8474 -2.4061
  701MOL0     H94583   2.965   5.364   2.612 -1.3020 -1.7355  0.0234
  701MOL0     H94584   3.062   5.153   2.808 -1.8749 -1.5475 -0.2448
  701MOL0     H94585   2.914   5.127   2.730  0.0649 -0.7698 -0.2623
  701MOL0     H94586   3.284   5.232   2.608 -0.2017 -1.3558  2.1027
  701MOL0     H94587   3.451   5.123   2.411  2.0403  0.4628 -1.6483
  701MOL0     H94588   3.355   5.026   2.299 -0.8277  0.0998  0.5535
  701MOL0     H94589   3.240   5.229   2.215 -0.2525  0.3756  0.8269
  701MOL0     H94590   3.338   5.325   2.328 -1.2648 -0.3249  1.5632
  701MOL0     H94591   3.424   5.152   2.086  0.2687 -0.0885  0.7847
  701MOL0     H94592   3.536   5.257   2.187 -0.3781  1.2302 -0.4284
  701MOL0     H94593   3.285   5.371   2.058  0.2260  0.3022  1.7221
  701MOL0     H94594   3.431   5.354   1.962 -0.9823 -0.5912 -0.6275
  701MOL0     H94595   3.648   5.379   2.009 -0.5352 -1.3391 -0.2034
  701MOL0     H94596   3.824   5.505   1.896 -1.4695  0.3807 -3.1193
  701MOL0     H94597   4.043   5.877   1.689 -2.5934 -0.8509  2.4603
  701MOL0     H94598   4.240   6.024   1.658  1.5674 -1.1183 -0.4450
  701MOL0     H94599   4.490   6.134   1.658  2.9798 -1.2707 -0.4007
  701MOL0     H94600   4.409   6.195   1.809 -0.1650  0.2732 -2.0894
  701MOL0     H94601   4.620   6.285   1.752  2.3540  0.1208  0.1962
  701MOL0     H94602   4.624   6.203   1.905  0.1645 -0.0458 -0.7482
  701MOL0     H94603   4.812   6.104   1.832  0.5042 -1.2944 -1.6050
  701MOL0     H94604   4.705   6.000   1.747 -2.9083  0.9048 -1.9031
  701MOL0     H94605   4.855   6.246   1.624 -3.3245  2.1468  0.9885
  701MOL0     H94606   4.714   6.185   1.556  0.1678  4.1538  0.5190
  701MOL0     H94607   4.835   5.949   1.564 -0.7188 -0.5359 -4.5053
  701MOL0     H94608   4.993   6.047   1.594  0.3841  2.4381  0.2883
  701MOL0     H94609   4.808   6.033   1.358 -0.7569  1.7612  3.0315
  701MOL0     H94610   4.916   6.165   1.371  0.9090 -0.7867 -2.2013
  701MOL0     H94611   5.035   5.887   1.404  0.9860 -0.0006 -0.7198
  701MOL0     H94612   5.099   6.049   1.350 -0.0750  1.0744 -0.8991
  701MOL0     H94613   4.923   5.975   1.142 -0.6412 -2.8256 -2.9014
  701MOL0     H94614   5.078   5.896   1.166  0.3091 -0.0168  0.5771
  701MOL0     H94615   4.437   5.821   1.973 -0.0729  2.8090  0.4625
  701MOL0     H94616   4.227   5.675   2.017  2.8626 -0.9930 -0.5583
  701MOL0     H94617   3.681   5.873   2.067 -0.1920 -0.3184  0.6943
  701MOL0     H94618   3.475   5.755   2.143 -1.5901 -1.8110  1.0012
  701MOL0     H94619   2.371   6.037   2.325  0.3255 -0.7342 -1.1301
  701MOL0     H94620   2.126   6.064   2.264 -2.9252 -0.4198 -0.8224
  701MOL0     H94621   1.708   5.633   2.215 -0.5151 -1.4085 -1.3006
  701MOL0     H94622   1.480   5.632   2.158  1.9434 -0.8036 -2.0530
  701MOL0     H94623   1.263   5.959   2.257 -0.3268 -2.2485  1.3012
  701MOL0     H94624   1.146   5.841   2.202  0.4902 -1.4901 -0.0033
  701MOL0     H94625   1.171   5.969   1.974  1.5521 -0.0809  0.9045
  701MOL0     H94626   1.261   6.096   2.041  2.1415 -1.8717 -0.8536
  701MOL0     H94627   1.068   6.195   2.024  0.8150 -1.1029 -0.7381
  701MOL0     H94628   1.088   6.176   2.193 -1.6240  1.9857 -2.2367
  701MOL0     H94629   0.848   6.153   2.122  0.5503  1.0014 -0.3276
  701MOL0     H94630   0.901   6.017   2.012  0.3882 -2.3520  1.3439
  701MOL0     H94631   0.847   5.770   2.328  0.4120 -0.3323  0.2328
  701MOL0     H94632   1.474   6.062   2.100  1.0390  1.3866 -0.1506
  701MOL0     H94633   1.804   6.103   2.261 -0.9945 -1.1191  1.4410
  701MOL0     H94634   1.800   6.084   2.081 -0.0559 -1.0929 -0.4512
  701MOL0     H94635   1.677   6.178   2.162  0.2398 -0.2019  2.3135
  702MOL0     O94636   8.351   3.451   0.030  0.3438 -0.1525  0.1854
  702MOL0     C94637   8.396   3.354   0.091  0.6199 -0.1774  0.1055
  702MOL0     O94638   8.517   3.296   0.063 -0.1330  0.9169 -0.4373
  702MOL0     C94639   8.582   3.322  -0.049 -0.5260  0.0544  0.3653
  702MOL0     C94640   8.564   3.234  -0.163 -0.7005  0.2862 -0.1494
  702MOL0     C94641   8.639   3.274  -0.279  0.0791 -0.3714 -0.4181
  702MOL0     C94642   8.717   3.388  -0.278 -0.5751  0.5429 -0.0096
  702MOL0     O94643   8.796   3.415  -0.386 -0.0601 -0.0398 -0.5679
  702MOL0     C94644   8.738   3.485  -0.489  0.6810 -0.8395 -0.3930
  702MOL0     C94645   8.837   3.555  -0.574 -0.8565 -0.4837 -0.1897
  702MOL0     C94646   8.935   3.654  -0.502 -0.7127  0.9464 -0.3070
  702MOL0     C94647   9.050   3.698  -0.594  0.3370 -0.4478 -0.6151
  702MOL0     C94648   9.106   3.836  -0.562  0.1845 -0.0387 -0.3227
  702MOL0     C94649   9.223   3.868  -0.657 -0.3136  0.4317 -0.1497
  702MOL0     C94650   9.300   3.989  -0.598  0.1761  0.3256 -0.7181
  702MOL0     C94651   9.423   4.008  -0.686  0.9480  0.2394  0.4055
  702MOL0     N94652   9.494   4.136  -0.666 -0.0019  0.0158  0.4932
  702MOL0     C94653   9.444   4.261  -0.693 -0.2481  0.4877 -0.3027
  702MOL0     C94654   9.541   4.352  -0.662  0.9238 -0.4367  0.3881
  702MOL0     C94655   9.522   4.501  -0.661 -0.0562  0.1111  0.4040
  702MOL0     C94656   9.532   4.566  -0.806  0.7579  0.3164 -0.4522
  702MOL0     C94657   9.686   4.573  -0.859 -0.7905 -1.3168 -0.8011
  702MOL0     C94658   9.778   4.659  -0.766  0.7362  0.3430 -0.2488
  702MOL0     O94659   9.904   4.650  -0.830  0.4899  0.6031 -0.4087
  702MOL0     C94660  10.000   4.741  -0.794  0.9451  0.0458 -1.0129
  702MOL0     C94661  10.104   4.756  -0.884 -0.0486  0.0992 -0.5911
  702MOL0     C94662  10.209   4.849  -0.861  0.9010 -0.6538 -0.2642
  702MOL0     C94663  10.199   4.940  -0.757  0.6133 -0.4602 -0.0658
  702MOL0     C94664  10.311   5.026  -0.720 -0.1858 -0.1171  0.5099
  702MOL0     O94665  10.413   5.031  -0.810 -0.3680  0.0858 -0.1838
  702MOL0     C94666  10.525   5.111  -0.786 -1.0960  0.3460 -0.5871
  702MOL0     C94667  10.653   5.059  -0.815  0.5160  0.6741  0.7426
  702MOL0     C94668  10.772   5.136  -0.797  0.7360  0.0902  0.1066
  702MOL0     C94669  10.766   5.270  -0.756  0.0844  0.1796  0.2070
  702MOL0     O94670  10.879   5.351  -0.724  0.9750  0.0760  0.0290
  702MOL0     C94671  11.011   5.333  -0.771 -0.1915  0.1230 -0.2014
  702MOL0     C94672  11.074   5.464  -0.741  0.4324 -0.4932 -0.9834
  702MOL0     C94673  11.223   5.470  -0.787 -0.0301  0.3165 -0.0436
  702MOL0     C94674  11.310   5.587  -0.739 -0.6471  0.2869  1.0848
  702MOL0     C94675  11.452   5.591  -0.809  0.7972  0.6023 -0.2204
  702MOL0     C94676  11.539   5.710  -0.778  0.4614 -0.5636 -0.0987
  702MOL0     C94677  11.594   5.693  -0.645  0.5166  0.1885  0.2246
  702MOL0     C94678  11.719   5.797  -0.640 -0.2120 -0.0697  0.0973
  702MOL0    Cl94679  11.772   5.799  -0.468  0.0293  0.4352 -0.2473
  702MOL0     C94680  10.634   5.317  -0.736  0.0282  0.1031 -0.6217
  702MOL0     C94681  10.518   5.238  -0.749 -0.3413  0.0706 -0.4199
  702MOL0     O94682  10.307   5.085  -0.610  0.0469  1.2511  0.5288
  702MOL0     C94683  10.092   4.928  -0.666 -1.1337  0.0714  0.4608
  702MOL0     C94684   9.995   4.826  -0.685  0.2896 -0.6116 -0.5109
  702MOL0     N94685   9.647   4.270  -0.619 -0.0670 -0.3760 -0.7082
  702MOL0     N94686   9.619   4.145  -0.613 -0.6453  0.3710 -1.1110
  702MOL0     C94687   8.732   3.475  -0.169  0.3374 -0.3700 -0.1531
  702MOL0     C94688   8.656   3.437  -0.060 -0.8594 -0.0510  0.7338
  702MOL0     C94689   8.306   3.288   0.197  0.0146  0.5622 -0.0237
  702MOL0     C94690   8.371   3.208   0.295  0.5848  0.3900  0.2242
  702MOL0     C94691   8.304   3.148   0.406  0.1703  0.1912 -0.5938
  702MOL0     C94692   8.167   3.157   0.413 -0.0004  0.3333  0.2727
  702MOL0     O94693   8.108   3.103   0.527  0.0744 -0.0539 -0.1002
  702MOL0     C94694   7.988   3.165   0.568 -0.2696 -0.1871  0.2745
  702MOL0     C94695   7.974   3.150   0.717 -0.7117 -0.6111  0.7665
  702MOL0     C94696   7.831   3.173   0.760 -0.4932  0.3145 -0.8719
  702MOL0     C94697   7.813   3.328   0.791 -0.3433 -0.3921 -0.5564
  702MOL0     C94698   7.862   3.377   0.920 -0.6843  0.5212  0.1756
  702MOL0     C94699   7.915   3.404   1.026 -0.0709 -0.3308  0.0204
  702MOL0     C94700   8.095   3.219   0.309  0.0184  0.3469  0.0263
  702MOL0     C94701   8.165   3.282   0.203  0.1176 -0.5077  0.1142
  702MOL0     C94702   8.076   3.362   0.111  0.9955  1.2100 -0.9268
  702MOL0     H94703   8.511   3.141  -0.142  2.8516 -2.0975 -0.8919
  702MOL0     H94704   8.624   3.215  -0.369 -1.1206 -0.8806  0.0952
  702MOL0     H94705   8.683   3.412  -0.549  0.9365 -1.3414 -0.0268
  702MOL0     H94706   8.670   3.563  -0.452  0.1100 -1.0691 -0.9362
  702MOL0     H94707   8.783   3.605  -0.655 -0.0403  1.1435  0.2310
  702MOL0     H94708   8.898   3.472  -0.610  0.9224 -0.3756  2.3326
  702MOL0     H94709   8.977   3.607  -0.413  0.7987  1.8045 -0.5290
  702MOL0     H94710   8.884   3.741  -0.459 -1.6734 -0.0769  0.7059
  702MOL0     H94711   9.123   3.619  -0.579  0.6168 -0.0832  0.0154
  702MOL0     H94712   9.016   3.695  -0.697 -1.7091  0.4078 -0.0248
  702MOL0     H94713   9.027   3.905  -0.595  0.1200 -0.2729 -0.6672
  702MOL0     H94714   9.126   3.860  -0.457  0.9620 -2.4899  0.1528
  702MOL0     H94715   9.291   3.782  -0.666 -0.9844 -0.2373  0.9258
  702MOL0     H94716   9.182   3.891  -0.756 -1.6846  1.7652  0.6951
  702MOL0     H94717   9.321   3.971  -0.492 -4.3906  1.1723  0.5310
  702MOL0     H94718   9.232   4.075  -0.595 -0.7625 -0.3222  4.1261
  702MOL0     H94719   9.480   3.918  -0.663 -1.9455 -1.6517  0.5621
  702MOL0     H94720   9.394   4.019  -0.791 -1.3782  1.7900  1.1442
  702MOL0     H94721   9.352   4.296  -0.737 -1.1218 -0.0566  1.0439
  702MOL0     H94722   9.424   4.522  -0.617 -0.1951 -1.0738  0.6943
  702MOL0     H94723   9.596   4.543  -0.592 -0.4138 -0.4436  1.1324
  702MOL0     H94724   9.478   4.502  -0.875  0.5739  0.2999 -0.2952
  702MOL0     H94725   9.487   4.667  -0.806 -0.3002 -0.1359 -1.0556
  702MOL0     H94726   9.697   4.607  -0.963  2.1111  0.3935 -0.0233
  702MOL0     H94727   9.733   4.475  -0.858  1.7630 -0.1948  1.5927
  702MOL0     H94728   9.789   4.609  -0.670  0.1019 -1.4926 -1.0956
  702MOL0     H94729   9.753   4.765  -0.750 -0.0714  0.2921 -1.1050
  702MOL0     H94730  10.114   4.688  -0.968  2.8911  1.1569 -1.2017
  702MOL0     H94731  10.295   4.865  -0.925 -0.2180  0.4790 -1.5291
  702MOL0     H94732  10.656   4.960  -0.860  0.9550  0.2388  1.7139
  702MOL0     H94733  10.872   5.105  -0.823  0.3922 -1.4765  0.5601
  702MOL0     H94734  11.068   5.257  -0.717  1.2693  1.0808 -0.3448
  702MOL0     H94735  11.004   5.312  -0.878  1.4171 -0.5173 -0.2180
  702MOL0     H94736  11.023   5.551  -0.783  2.3756  1.6363  0.7824
  702MOL0     H94737  11.085   5.474  -0.633  1.0153 -0.2070 -1.0617
  702MOL0     H94738  11.264   5.370  -0.768 -0.3164  0.0293 -0.9404
  702MOL0     H94739  11.212   5.477  -0.895 -1.6493 -0.8071  0.0150
  702MOL0     H94740  11.317   5.569  -0.631 -0.0318 -1.1369  0.8321
  702MOL0     H94741  11.262   5.680  -0.771  0.5316  0.4626 -0.2832
  702MOL0     H94742  11.437   5.567  -0.915  2.3658 -0.9824 -0.1347
  702MOL0     H94743  11.511   5.504  -0.778  1.0420  0.2793 -1.5506
  702MOL0     H94744  11.612   5.714  -0.860  0.6323  2.8000  0.0905
  702MOL0     H94745  11.480   5.801  -0.790  2.7545  1.1422  0.8886
  702MOL0     H94746  11.623   5.588  -0.636 -1.7263 -1.1079 -4.6608
  702MOL0     H94747  11.524   5.727  -0.568 -1.9150  1.0992 -2.2282
  702MOL0     H94748  11.798   5.760  -0.706 -3.0584 -1.6811 -2.7436
  702MOL0     H94749  11.688   5.898  -0.671  0.5288  0.0616 -0.2393
  702MOL0     H94750  10.635   5.418  -0.697  1.5247 -0.3319  0.6114
  702MOL0     H94751  10.423   5.290  -0.735 -0.8030 -0.3641 -1.7848
  702MOL0     H94752  10.102   4.973  -0.568  1.1510 -0.4014  0.5030
  702MOL0     H94753   9.909   4.826  -0.620 -2.8670  3.1269 -4.1553
  702MOL0     H94754   8.790   3.566  -0.162 -1.2955  0.6402  1.2279
  702MOL0     H94755   8.664   3.491   0.034  2.6050 -1.5001  1.4236
  702MOL0     H94756   8.479   3.200   0.285  0.4580  1.0850 -2.2945
  702MOL0     H94757   8.360   3.093   0.480 -1.2720 -0.9271 -0.3012
  702MOL0     H94758   7.908   3.117   0.512 -1.1111  0.1634  1.1551
  702MOL0     H94759   7.978   3.272   0.549 -3.4436 -0.0400  2.1700
  702MOL0     H94760   8.046   3.213   0.770 -0.7156  0.2082 -0.1903
  702MOL0     H94761   8.001   3.048   0.746  1.5583 -0.4830 -0.7155
  702MOL0     H94762   7.815   3.115   0.851 -0.9501  4.0805  1.6560
  702MOL0     H94763   7.767   3.136   0.679  1.4140 -0.1237 -2.2787
  702MOL0     H94764   7.855   3.393   0.714  1.1934  1.3478  1.6248
  702MOL0     H94765   7.705   3.343   0.788 -0.2626  0.0974 -1.4860
  702MOL0     H94766   7.956   3.443   1.117 -0.2843 -1.5578  0.6672
  702MOL0     H94767   7.987   3.224   0.305  0.1047  2.0344 -0.6493
  702MOL0     H94768   8.089   3.338   0.005 -0.5646 -0.4881 -0.7692
  702MOL0     H94769   7.971   3.339   0.129  0.9832  0.6809 -1.6403
  702MOL0     H94770   8.091   3.471   0.117 -0.5913  1.4630 -1.0732
  703MOL0     O94771  11.005   5.983   4.634  0.3965  0.8247  0.1888
  703MOL0     C94772  11.059   6.098   4.624 -0.2694  0.4694 -0.7770
  703MOL0     O94773  11.150   6.142   4.717 -0.3273 -0.1596  0.3638
  703MOL0     C94774  11.226   6.055   4.800  0.2320  0.4188  0.1602
  703MOL0     C94775  11.273   6.102   4.924  1.2171  0.4714  0.4353
  703MOL0     C94776  11.360   6.024   5.008  0.7369 -0.1649  0.4500
  703MOL0     C94777  11.409   5.900   4.965  0.8882  0.7789  0.2172
  703MOL0     O94778  11.470   5.833   5.066  0.3107 -0.1103 -0.2461
  703MOL0     C94779  11.430   5.702   5.085 -1.0745  0.5234 -0.2449
  703MOL0     C94780  11.491   5.645   5.219 -0.0609  0.6073  0.0457
  703MOL0     C94781  11.643   5.662   5.242  0.4120  0.3882  0.5462
  703MOL0     C94782  11.664   5.801   5.300  0.3315  0.4599 -0.3718
  703MOL0     C94783  11.808   5.856   5.298  0.6463 -0.4425 -0.1847
  703MOL0     C94784  11.868   5.892   5.159  0.0761 -0.3653 -0.5643
  703MOL0     C94785  11.809   6.015   5.096  0.2885  0.6744 -0.4078
  703MOL0     C94786  11.888   6.066   4.975 -1.0979 -0.4357  1.0757
  703MOL0     N94787  12.009   6.140   5.006  0.1090  0.0525  0.2368
  703MOL0     C94788  12.016   6.272   5.045 -0.0272 -0.2240  0.4851
  703MOL0     C94789  12.143   6.306   5.035  0.1982 -0.6213  0.5459
  703MOL0     C94790  12.182   6.450   5.059 -0.3971 -0.9873 -0.3308
  703MOL0     C94791  12.334   6.479   5.061  0.3883  0.2525 -0.0658
  703MOL0     C94792  12.379   6.603   5.140  0.4942  0.8866 -0.2758
  703MOL0     C94793  12.533   6.619   5.127 -0.4423 -0.6282  0.4661
  703MOL0     O94794  12.609   6.517   5.199 -1.2862 -0.4200 -0.1833
  703MOL0     C94795  12.748   6.536   5.202  0.9743  0.0467 -1.0781
  703MOL0     C94796  12.815   6.656   5.167 -0.3461  0.8443  0.3749
  703MOL0     C94797  12.952   6.672   5.174  0.5310 -0.4880 -0.2187
  703MOL0     C94798  13.034   6.576   5.229  0.2420  0.2384  0.2008
  703MOL0     C94799  13.184   6.604   5.238 -0.0912  0.5520 -0.1688
  703MOL0     O94800  13.256   6.510   5.306 -0.0331 -0.3291  1.2170
  703MOL0     C94801  13.394   6.504   5.284 -0.1794 -0.0604 -0.8396
  703MOL0     C94802  13.473   6.471   5.385 -0.4537  0.1357  0.4534
  703MOL0     C94803  13.607   6.467   5.378 -1.3200 -0.1738  0.0472
  703MOL0     C94804  13.678   6.511   5.267  0.3347 -0.5312  0.1276
  703MOL0     O94805  13.812   6.514   5.273 -0.9730 -0.3289  0.4085
  703MOL0     C94806  13.886   6.539   5.153  0.8056 -0.1126 -0.1656
  703MOL0     C94807  14.026   6.532   5.184 -0.1021 -0.2569 -0.7836
  703MOL0     C94808  14.122   6.599   5.089 -0.4925  0.2465  0.1738
  703MOL0     C94809  14.272   6.594   5.131  0.6357 -0.6130 -0.2471
  703MOL0     C94810  14.365   6.690   5.057  0.1367  0.1129 -0.0837
  703MOL0     C94811  14.396   6.647   4.906 -0.2480 -0.2341 -0.3684
  703MOL0     C94812  14.507   6.722   4.834 -0.3503  0.6127  0.3542
  703MOL0     C94813  14.474   6.861   4.777 -0.2480 -0.1019 -0.4767
  703MOL0    Cl94814  14.618   6.914   4.682 -0.0994 -0.3239  0.1640
  703MOL0     C94815  13.595   6.525   5.152 -0.0825 -0.9682  0.3737
  703MOL0     C94816  13.453   6.522   5.160 -1.1570 -0.1410 -0.8183
  703MOL0     O94817  13.228   6.710   5.187 -0.5098 -0.0734 -0.4526
  703MOL0     C94818  12.969   6.463   5.284 -0.4671 -1.2575 -0.4364
  703MOL0     C94819  12.829   6.441   5.266 -0.2438  0.3951 -0.7893
  703MOL0     N94820  12.211   6.191   5.003 -0.0417  0.1158  0.1857
  703MOL0     N94821  12.133   6.092   4.984 -0.9461 -0.0746  0.0219
  703MOL0     C94822  11.358   5.850   4.843 -0.0862 -1.0539  0.1846
  703MOL0     C94823  11.277   5.932   4.759  0.5484  0.5138  0.3369
  703MOL0     C94824  11.021   6.189   4.513 -0.0192 -1.0605 -0.4827
  703MOL0     C94825  11.063   6.322   4.519 -0.4373  0.2050 -0.2974
  703MOL0     C94826  11.030   6.409   4.416  0.2390 -0.0183  0.3230
  703MOL0     C94827  10.946   6.378   4.310  0.6713 -0.2361  0.0137
  703MOL0     O94828  10.890   6.483   4.240  0.4881  0.7108  0.1954
  703MOL0     C94829  10.768   6.465   4.163 -0.0772  0.4187  0.5044
  703MOL0     C94830  10.732   6.593   4.092 -0.2719 -0.4803  0.4928
  703MOL0     C94831  10.608   6.572   4.015  1.2542  0.1218  0.7446
  703MOL0     C94832  10.542   6.701   3.970  0.2364 -0.3859  0.4772
  703MOL0     C94833  10.431   6.696   3.871 -0.1235  0.5265  0.1486
  703MOL0     C94834  10.331   6.685   3.804 -0.0456  0.0751 -0.2347
  703MOL0     C94835  10.902   6.243   4.304 -0.2294 -0.2621 -0.4927
  703MOL0     C94836  10.945   6.140   4.402  0.0887 -0.8403  0.2969
  703MOL0     C94837  10.893   6.005   4.374  0.1187  0.2719 -0.1561
  703MOL0     H94838  11.237   6.199   4.958  1.9620  0.8389  0.2024
  703MOL0     H94839  11.385   6.060   5.107 -0.0420 -0.2776  0.6982
  703MOL0     H94840  11.323   5.687   5.097 -0.6854 -0.4849  2.8657
  703MOL0     H94841  11.475   5.656   4.996  4.7077  2.1968  1.3628
  703MOL0     H94842  11.456   5.541   5.213 -1.7185  1.0071  1.9037
  703MOL0     H94843  11.432   5.693   5.297 -0.3593  2.1521 -1.0849
  703MOL0     H94844  11.697   5.656   5.147  0.5627 -1.2338  0.7112
  703MOL0     H94845  11.686   5.591   5.313  0.6818  0.5682  0.5632
  703MOL0     H94846  11.594   5.875   5.260  1.7836  2.4862  0.6426
  703MOL0     H94847  11.647   5.787   5.407 -1.5286 -0.7073 -0.7863
  703MOL0     H94848  11.822   5.943   5.364  2.1619  1.8247 -3.2751
  703MOL0     H94849  11.867   5.774   5.341 -0.1569 -1.3698 -0.8191
  703MOL0     H94850  11.972   5.922   5.177  0.0961  0.9001 -2.4672
  703MOL0     H94851  11.864   5.820   5.077  1.0979  0.7994 -1.6779
  703MOL0     H94852  11.798   6.098   5.166 -1.2171  1.9252 -2.0063
  703MOL0     H94853  11.712   5.995   5.050 -0.2164  3.1600 -0.5801
  703MOL0     H94854  11.920   5.989   4.904 -3.5086  0.7414 -1.4616
  703MOL0     H94855  11.820   6.130   4.919  1.8142  0.7000 -1.4469
  703MOL0     H94856  11.926   6.329   5.068 -1.0859 -1.9766  0.8434
  703MOL0     H94857  12.128   6.511   4.986  0.2981  0.8527  0.6365
  703MOL0     H94858  12.154   6.473   5.162 -0.5103 -1.5590 -0.2290
  703MOL0     H94859  12.383   6.386   5.091  0.1489 -0.5120 -1.8908
  703MOL0     H94860  12.357   6.489   4.954  0.0439  1.2944 -0.0576
  703MOL0     H94861  12.370   6.565   5.242  3.7910 -1.3800 -0.6969
  703MOL0     H94862  12.327   6.696   5.115  0.8538  0.8384 -1.2343
  703MOL0     H94863  12.556   6.714   5.177  2.6415 -0.7943 -0.4442
  703MOL0     H94864  12.561   6.626   5.022  0.9772 -0.7877  0.8093
  703MOL0     H94865  12.764   6.738   5.116  0.6537  0.6058 -1.0718
  703MOL0     H94866  12.994   6.764   5.134 -1.5134  0.9384  0.7441
  703MOL0     H94867  13.432   6.432   5.477  0.8920 -0.0406  1.0030
  703MOL0     H94868  13.657   6.449   5.473 -1.1146  1.3088  0.2520
  703MOL0     H94869  13.867   6.467   5.072 -0.6955 -1.5529  1.3863
  703MOL0     H94870  13.854   6.638   5.120  0.2237 -0.2702 -0.0767
  703MOL0     H94871  14.045   6.569   5.285  0.5727 -1.1760 -0.5635
  703MOL0     H94872  14.059   6.428   5.175  0.0825 -0.0328 -3.2175
  703MOL0     H94873  14.113   6.536   5.000  0.6844 -0.5729  0.6147
  703MOL0     H94874  14.089   6.701   5.069 -1.0167  0.4602  1.9019
  703MOL0     H94875  14.311   6.492   5.130  0.8744 -0.5271  0.1462
  703MOL0     H94876  14.281   6.628   5.235 -2.3776  0.6326 -0.3073
  703MOL0     H94877  14.458   6.698   5.114  0.1650 -0.1208 -0.0979
  703MOL0     H94878  14.312   6.786   5.055 -2.7078 -1.3436 -0.0720
  703MOL0     H94879  14.429   6.543   4.918 -0.6085 -0.2475  0.6468
  703MOL0     H94880  14.306   6.633   4.846 -0.7407  0.2517  0.2384
  703MOL0     H94881  14.543   6.662   4.750 -1.4894  0.4203 -0.0174
  703MOL0     H94882  14.589   6.742   4.904 -0.0998 -0.0425  0.2582
  703MOL0     H94883  14.388   6.859   4.709 -0.0370 -0.8959 -0.7399
  703MOL0     H94884  14.457   6.929   4.860  2.4021 -0.2555  0.2876
  703MOL0     H94885  13.645   6.534   5.056  0.6137 -4.1844  0.3177
  703MOL0     H94886  13.392   6.533   5.070 -1.2707 -3.3558 -1.2585
  703MOL0     H94887  13.015   6.384   5.342 -2.3554 -2.9713 -1.1610
  703MOL0     H94888  12.786   6.354   5.315  1.8134  0.0491  0.5101
  703MOL0     H94889  11.390   5.750   4.816  0.7786 -0.6688 -0.2529
  703MOL0     H94890  11.242   5.895   4.664  0.5403 -1.1155  0.9490
  703MOL0     H94891  11.107   6.365   4.608  0.6134  1.4147 -1.3614
  703MOL0     H94892  11.068   6.511   4.420  0.4916 -0.1408  2.3301
  703MOL0     H94893  10.680   6.441   4.223  0.5526  0.4569  1.4592
  703MOL0     H94894  10.771   6.385   4.088 -0.3823  3.0873 -2.5635
  703MOL0     H94895  10.807   6.642   4.029 -0.1004  1.4504  2.0888
  703MOL0     H94896  10.713   6.666   4.171  0.4579 -0.1034  0.3228
  703MOL0     H94897  10.527   6.523   4.069  1.8403 -1.3082  0.3863
  703MOL0     H94898  10.631   6.521   3.920 -0.2217  0.9454 -0.0855
  703MOL0     H94899  10.501   6.753   4.057 -1.3035 -0.0931 -0.3913
  703MOL0     H94900  10.624   6.762   3.931  1.3709 -0.5520  2.4225
  703MOL0     H94901  10.246   6.667   3.742 -0.1580 -0.8133  0.1623
  703MOL0     H94902  10.834   6.219   4.223 -2.6684 -1.4796  1.7932
  703MOL0     H94903  10.977   5.935   4.375  0.0154  0.1201 -0.9271
  703MOL0     H94904  10.827   5.969   4.453  3.6102 -4.8246  0.9385
  703MOL0     H94905  10.853   5.995   4.272 -0.2095 -2.7037  0.1815
  704MOL0     O94906   6.437   0.828  10.216  0.2556  0.0559 -0.2206
  704MOL0     C94907   6.424   0.911  10.124 -0.4708  0.7574 -0.2517
  704MOL0     O94908   6.517   0.944  10.038  0.0319 -0.0423 -0.2538
  704MOL0     C94909   6.613   0.844  10.007  1.0221  0.3559 -0.2052
  704MOL0     C94910   6.742   0.890  10.008  0.8080  0.0648  0.7594
  704MOL0     C94911   6.845   0.814   9.970  0.2353  0.1000  0.4838
  704MOL0     C94912   6.824   0.682   9.925 -0.2593  0.6952  0.4794
  704MOL0     O94913   6.923   0.590   9.889  0.0990  1.3519  0.6165
  704MOL0     C94914   7.050   0.639   9.869 -0.0292  0.1276 -0.5970
  704MOL0     C94915   7.126   0.514   9.831 -0.0995  0.3569 -0.2336
  704MOL0     C94916   7.257   0.556   9.765  0.3162 -0.7667  0.1661
  704MOL0     C94917   7.342   0.427   9.755 -0.0908 -0.1065 -0.3677
  704MOL0     C94918   7.477   0.449   9.687 -0.0293  0.0948 -0.5154
  704MOL0     C94919   7.568   0.328   9.703 -0.4706 -0.7035  0.0930
  704MOL0     C94920   7.710   0.342   9.632  0.7811 -0.7963  0.2484
  704MOL0     C94921   7.820   0.368   9.731  0.0168  0.1821 -0.2399
  704MOL0     N94922   7.806   0.501   9.794 -0.6520 -0.1101  0.2039
  704MOL0     C94923   7.805   0.619   9.708 -0.2735  0.6461 -0.9245
  704MOL0     C94924   7.757   0.716   9.789 -0.4991  0.1422 -1.5393
  704MOL0     C94925   7.721   0.851   9.741  0.2076  0.4924 -0.2756
  704MOL0     C94926   7.597   0.857   9.666 -0.0755 -0.9103  0.2627
  704MOL0     C94927   7.596   0.987   9.578 -0.8289 -0.1565 -0.5557
  704MOL0     C94928   7.593   1.107   9.664 -0.0289 -0.1608 -0.0925
  704MOL0     O94929   7.558   1.222   9.589  0.2678 -0.5752 -0.4533
  704MOL0     C94930   7.530   1.340   9.664 -0.5783  1.2754  0.2799
  704MOL0     C94931   7.542   1.356   9.798  0.7453  0.0549 -0.1463
  704MOL0     C94932   7.510   1.475   9.862 -0.7423  0.1128  0.4379
  704MOL0     C94933   7.476   1.588   9.789  0.7357 -0.0672 -0.5487
  704MOL0     C94934   7.470   1.723   9.848  0.3267  1.0410  0.3496
  704MOL0     O94935   7.435   1.825   9.772 -0.4219 -0.0973  0.1574
  704MOL0     C94936   7.420   1.945   9.834 -0.0248 -1.0415 -0.1402
  704MOL0     C94937   7.294   2.016   9.816  0.0905  0.2788 -0.5518
  704MOL0     C94938   7.268   2.136   9.878  0.6814 -0.4912  0.4745
  704MOL0     C94939   7.364   2.197   9.949  0.2953  0.7943  0.5367
  704MOL0     O94940   7.323   2.302  10.021 -0.7591 -0.4953 -0.9160
  704MOL0     C94941   7.410   2.337  10.137  0.9856  0.3049  0.0795
  704MOL0     C94942   7.341   2.433  10.229 -0.4343 -0.1547 -0.1862
  704MOL0     C94943   7.314   2.572  10.171  0.4053 -0.2054  0.4970
  704MOL0     C94944   7.240   2.664  10.272  0.0096  0.5494 -0.1038
  704MOL0     C94945   7.329   2.705  10.390  0.5347  0.3597  0.3880
  704MOL0     C94946   7.336   2.864  10.400  0.1433 -0.3770 -0.3551
  704MOL0     C94947   7.423   2.928  10.292 -0.4698  0.2260  0.1772
  704MOL0     C94948   7.457   3.074  10.318  0.3170 -0.4488  0.8036
  704MOL0    Cl94949   7.593   3.108  10.436  0.1187  0.0226 -0.0631
  704MOL0     C94950   7.501   2.141   9.957  1.6189  0.2958  0.0479
  704MOL0     C94951   7.526   2.016   9.899  0.3686  0.2646 -0.1846
  704MOL0     O94952   7.499   1.725   9.966  0.5140 -0.2277  0.1960
  704MOL0     C94953   7.459   1.571   9.653 -0.4329  0.3562  0.5716
  704MOL0     C94954   7.488   1.451   9.591 -0.2981  0.1992  0.3459
  704MOL0     N94955   7.725   0.673   9.912  0.2144  0.3757  0.2414
  704MOL0     N94956   7.754   0.546   9.911  0.3461  0.1867  0.0838
  704MOL0     C94957   6.693   0.630   9.918 -0.4247  0.5311 -0.9270
  704MOL0     C94958   6.589   0.714   9.966  0.1455 -0.2129 -0.2285
  704MOL0     C94959   6.296   0.981  10.122  0.1260  0.2722 -0.3204
  704MOL0     C94960   6.283   1.123  10.110 -0.5294 -0.5624  1.3412
  704MOL0     C94961   6.163   1.187  10.095 -0.2196  0.1320 -0.3408
  704MOL0     C94962   6.047   1.123  10.090 -0.5191  0.1402  0.7287
  704MOL0     O94963   5.931   1.167  10.047 -0.3489 -0.1741 -0.3488
  704MOL0     C94964   5.910   1.300   9.986 -0.0333 -0.1681 -0.3580
  704MOL0     C94965   5.762   1.347  10.012  0.0018  0.2390  1.1367
  704MOL0     C94966   5.671   1.240   9.978  1.0642  0.1321 -0.0100
  704MOL0     C94967   5.523   1.279   9.988  0.8470  0.1657 -0.2220
  704MOL0     C94968   5.491   1.386   9.892 -0.3065  0.4177  0.6603
  704MOL0     C94969   5.465   1.479   9.822 -0.0105  0.4626  0.2055
  704MOL0     C94970   6.047   0.986  10.128 -0.1750 -0.1246 -0.8846
  704MOL0     C94971   6.168   0.916  10.137 -0.1218  0.7173  0.0222
  704MOL0     C94972   6.151   0.771  10.179 -0.4455  0.2062 -0.3738
  704MOL0     H94973   6.749   0.993  10.040 -1.1736  1.4063 -2.5520
  704MOL0     H94974   6.940   0.865   9.961  0.3040 -0.4366 -2.7812
  704MOL0     H94975   7.045   0.716   9.791 -0.2772  2.2791  1.4520
  704MOL0     H94976   7.088   0.682   9.962  0.9680  1.7937 -1.7201
  704MOL0     H94977   7.062   0.456   9.763 -1.6987  2.1944 -0.3862
  704MOL0     H94978   7.148   0.449   9.916  0.5556  0.9967  0.0946
  704MOL0     H94979   7.306   0.626   9.833 -1.7822 -3.0202  4.4396
  704MOL0     H94980   7.233   0.610   9.673  1.9370 -1.4279 -0.6806
  704MOL0     H94981   7.358   0.395   9.858  0.9942 -1.8341 -1.0302
  704MOL0     H94982   7.293   0.344   9.704  1.9948 -0.9011 -1.2007
  704MOL0     H94983   7.473   0.462   9.578  2.3131  0.1854 -0.6579
  704MOL0     H94984   7.526   0.537   9.730 -1.1743  0.4021  0.1779
  704MOL0     H94985   7.580   0.294   9.807  1.1119 -1.0223 -0.1664
  704MOL0     H94986   7.515   0.248   9.651 -2.2422  0.4632  0.0225
  704MOL0     H94987   7.710   0.427   9.563  0.4437 -1.0861 -0.1135
  704MOL0     H94988   7.717   0.250   9.572 -1.8725 -1.3692  0.6984
  704MOL0     H94989   7.816   0.286   9.805 -1.9503 -2.7943 -3.3436
  704MOL0     H94990   7.912   0.362   9.672  0.0389 -0.0285 -0.1868
  704MOL0     H94991   7.839   0.639   9.607  0.0635  2.1708 -0.5318
  704MOL0     H94992   7.716   0.915   9.830  1.3609 -0.6387  0.6453
  704MOL0     H94993   7.801   0.900   9.686  1.0753  2.7215  2.7061
  704MOL0     H94994   7.587   0.770   9.600 -3.9239 -0.7628  0.4473
  704MOL0     H94995   7.503   0.857   9.721 -0.4978 -1.3994 -0.4469
  704MOL0     H94996   7.500   0.979   9.527 -1.6088  4.3292 -0.1926
  704MOL0     H94997   7.679   0.991   9.508 -0.7104  1.2939 -0.3559
  704MOL0     H94998   7.689   1.133   9.710  0.0470 -1.1092  0.3042
  704MOL0     H94999   7.525   1.091   9.749 -0.1967 -0.2685 -0.2479
  704MOL0     H95000   7.568   1.277   9.868 -1.6410  1.3482  2.4028
  704MOL0     H95001   7.529   1.476   9.969  3.1993  3.3486 -0.0493
  704MOL0     H95002   7.227   1.967   9.745  1.1971 -1.4700 -0.4585
  704MOL0     H95003   7.165   2.171   9.874  0.6006 -0.8125 -2.0547
  704MOL0     H95004   7.430   2.249  10.198 -1.0336 -0.4113 -0.2159
  704MOL0     H95005   7.503   2.382  10.100  1.1592  0.0981  0.2619
  704MOL0     H95006   7.246   2.386  10.256 -0.7567  0.1351 -0.8011
  704MOL0     H95007   7.405   2.446  10.316 -1.4434 -0.1922  0.5852
  704MOL0     H95008   7.411   2.619  10.152  0.2333 -0.3096 -0.7752
  704MOL0     H95009   7.261   2.557  10.076 -0.4971 -3.8427  1.3989
  704MOL0     H95010   7.148   2.614  10.304 -0.2974 -1.0611 -3.1436
  704MOL0     H95011   7.207   2.756  10.223  2.1672  1.3655 -0.1505
  704MOL0     H95012   7.428   2.663  10.373 -0.5108 -2.4162  0.6140
  704MOL0     H95013   7.296   2.656  10.482  1.7077  1.8611  1.6698
  704MOL0     H95014   7.238   2.913  10.396  1.3788  2.3112 -0.1054
  704MOL0     H95015   7.378   2.898  10.495 -1.0462 -3.0304  1.2231
  704MOL0     H95016   7.365   2.921  10.200 -0.7147  2.7799  0.0469
  704MOL0     H95017   7.510   2.862  10.288 -0.8652 -0.3556 -4.6701
  704MOL0     H95018   7.498   3.107  10.221  1.1987 -2.7634  0.3229
  704MOL0     H95019   7.370   3.137  10.338  1.0932  1.5246 -1.5274
  704MOL0     H95020   7.584   2.193  10.002 -0.7181  1.8232  2.9175
  704MOL0     H95021   7.621   1.968   9.920  0.1971 -0.7345 -1.5598
  704MOL0     H95022   7.438   1.659   9.593 -0.7481  0.6600  1.1211
  704MOL0     H95023   7.475   1.436   9.484  0.5265 -1.3583  0.4260
  704MOL0     H95024   6.670   0.529   9.885 -1.5538  0.4213  0.1049
  704MOL0     H95025   6.489   0.672   9.975  0.4831 -1.5018 -1.7883
  704MOL0     H95026   6.378   1.174  10.099 -1.0523  0.1451 -0.1929
  704MOL0     H95027   6.161   1.296  10.089 -0.8626  0.0233 -3.9907
  704MOL0     H95028   5.934   1.293   9.879 -0.5865  1.1945 -0.5955
  704MOL0     H95029   5.977   1.384  10.007 -0.1802 -0.3852  1.0150
  704MOL0     H95030   5.741   1.435   9.950  1.8182 -0.9129 -1.2868
  704MOL0     H95031   5.758   1.371  10.118  2.8857 -0.7068  1.5538
  704MOL0     H95032   5.675   1.157  10.050  0.3258  0.5478  0.5365
  704MOL0     H95033   5.693   1.189   9.884 -0.9741 -0.3301 -0.2913
  704MOL0     H95034   5.459   1.194   9.962 -2.3326  2.3850 -0.2452
  704MOL0     H95035   5.483   1.317  10.083 -1.3691  1.2432 -1.4907
  704MOL0     H95036   5.435   1.562   9.762  0.6697  0.5018 -0.0813
  704MOL0     H95037   5.953   0.932  10.133  0.4506 -1.0949  1.2006
  704MOL0     H95038   6.191   0.709  10.099  0.7156  0.6545 -0.1611
  704MOL0     H95039   6.208   0.745  10.269  0.4325 -1.1349 -1.2924
  704MOL0     H95040   6.044   0.753  10.198 -1.0525  2.4049 -1.3562
  705MOL0     O95041   3.910   5.680   6.426 -0.2899  0.3543 -0.1236
  705MOL0     C95042   3.864   5.752   6.520 -0.1994  0.2035 -0.5210
  705MOL0     O95043   3.933   5.835   6.601  0.6923 -0.4114 -0.4786
  705MOL0     C95044   4.071   5.852   6.597  0.2574 -0.3906 -0.1050
  705MOL0     C95045   4.133   5.835   6.715 -1.0882 -0.9626 -0.6698
  705MOL0     C95046   4.272   5.839   6.729 -0.9598  0.4031 -0.4917
  705MOL0     C95047   4.355   5.862   6.612 -0.6350  1.1733 -0.6098
  705MOL0     O95048   4.490   5.866   6.633 -1.0879 -0.9176 -0.1123
  705MOL0     C95049   4.575   5.945   6.559  0.0632 -0.2743  0.0011
  705MOL0     C95050   4.713   5.946   6.623 -0.0482  0.0247 -0.2454
  705MOL0     C95051   4.783   6.080   6.588  0.2153  0.4763  0.5610
  705MOL0     C95052   4.919   6.049   6.514  0.2964 -1.1969 -0.1771
  705MOL0     C95053   5.008   6.176   6.501  0.4044  0.0703 -0.1896
  705MOL0     C95054   5.159   6.157   6.460  0.3373  0.4634  0.3212
  705MOL0     C95055   5.220   6.297   6.447  0.1262  1.0170 -0.7690
  705MOL0     C95056   5.362   6.275   6.398  0.3225  0.1735 -0.0871
  705MOL0     N95057   5.431   6.404   6.433 -0.4258 -1.3157 -0.5327
  705MOL0     C95058   5.478   6.426   6.560  0.4377  0.3142  0.0730
  705MOL0     C95059   5.544   6.543   6.550  0.4405 -0.2744  0.3861
  705MOL0     C95060   5.602   6.601   6.673 -0.9013  0.8630 -0.4990
  705MOL0     C95061   5.753   6.589   6.682 -0.3699  0.0388 -0.0589
  705MOL0     C95062   5.814   6.717   6.616  0.2770  0.3339  0.8995
  705MOL0     C95063   5.964   6.713   6.637 -0.3682 -0.2989 -0.2464
  705MOL0     O95064   6.028   6.597   6.583 -0.2615  0.5741  0.1622
  705MOL0     C95065   6.160   6.602   6.553 -0.0800  0.2929  0.2502
  705MOL0     C95066   6.254   6.692   6.599 -0.0731 -1.3257  0.1846
  705MOL0     C95067   6.391   6.677   6.573 -0.9156  0.2468 -0.1800
  705MOL0     C95068   6.435   6.572   6.487 -0.1242 -0.4103  0.4468
  705MOL0     C95069   6.577   6.549   6.457 -0.0328 -0.2576 -0.2137
  705MOL0     O95070   6.668   6.601   6.543  0.7023  0.3562  0.0853
  705MOL0     C95071   6.800   6.563   6.518 -0.2596  0.6020 -0.3334
  705MOL0     C95072   6.869   6.472   6.604  0.1498 -0.2235 -0.0923
  705MOL0     C95073   7.005   6.471   6.594 -0.7525 -0.4037 -0.0297
  705MOL0     C95074   7.082   6.550   6.504 -0.7601  0.5547 -0.5822
  705MOL0     O95075   7.220   6.559   6.501 -0.2686 -0.0582  0.3177
  705MOL0     C95076   7.303   6.511   6.610 -0.5162  0.4600 -0.1786
  705MOL0     C95077   7.455   6.551   6.602  0.3205  0.3873  0.9820
  705MOL0     C95078   7.523   6.495   6.729  0.0123  0.6314  1.2009
  705MOL0     C95079   7.530   6.337   6.717  0.2307 -0.0437  0.3603
  705MOL0     C95080   7.643   6.273   6.792  0.5767 -0.2133 -0.1906
  705MOL0     C95081   7.606   6.278   6.943 -0.5935  1.0179 -0.6293
  705MOL0     C95082   7.711   6.188   7.019 -0.3803  0.0475  0.1965
  705MOL0     C95083   7.698   6.203   7.169  1.4576  0.6306 -0.2232
  705MOL0    Cl95084   7.776   6.363   7.223  0.3223 -0.1163  0.1388
  705MOL0     C95085   7.014   6.639   6.420 -0.4850  0.5789 -0.0516
  705MOL0     C95086   6.873   6.643   6.427  0.0921  0.0138 -0.4008
  705MOL0     O95087   6.604   6.486   6.351  0.0646 -0.2446 -0.0344
  705MOL0     C95088   6.337   6.488   6.439  0.5996 -0.2406  1.4789
  705MOL0     C95089   6.205   6.499   6.470  0.4029 -0.6068  0.6744
  705MOL0     N95090   5.538   6.597   6.424  0.9261  0.0954 -0.3954
  705MOL0     N95091   5.471   6.512   6.356 -0.1840  0.8479 -0.7269
  705MOL0     C95092   4.289   5.875   6.490  1.0420 -0.1685 -0.0892
  705MOL0     C95093   4.148   5.870   6.488 -0.4973  0.5644  0.8471
  705MOL0     C95094   3.715   5.752   6.531  0.1455 -0.6409  0.3289
  705MOL0     C95095   3.645   5.627   6.509  0.3486 -0.2638 -0.6499
  705MOL0     C95096   3.509   5.625   6.482 -0.5523  0.7295 -0.3670
  705MOL0     C95097   3.434   5.743   6.490 -0.0256  0.0903 -0.0411
  705MOL0     O95098   3.297   5.751   6.472 -0.3268  0.0855  0.4841
  705MOL0     C95099   3.228   5.640   6.401 -0.0892 -0.7625  0.2591
  705MOL0     C95100   3.077   5.661   6.428  0.0843  0.2515  0.3071
  705MOL0     C95101   3.006   5.763   6.336 -0.2986  0.1291 -0.0463
  705MOL0     C95102   2.868   5.760   6.394  0.2539 -0.2329  0.4794
  705MOL0     C95103   2.779   5.848   6.318  0.9429 -0.1436  0.1532
  705MOL0     C95104   2.707   5.926   6.259 -0.5518  0.6625 -0.2119
  705MOL0     C95105   3.497   5.857   6.524 -0.0772 -0.3130 -0.4360
  705MOL0     C95106   3.637   5.872   6.548  0.7704 -0.1710 -0.8707
  705MOL0     C95107   3.707   6.003   6.575 -0.2401 -0.1597 -0.6811
  705MOL0     H95108   4.064   5.813   6.797 -0.4869 -1.4532 -0.2894
  705MOL0     H95109   4.310   5.829   6.830  0.9499  0.5177 -1.1473
  705MOL0     H95110   4.570   5.907   6.456 -0.9507 -0.2017  0.0192
  705MOL0     H95111   4.540   6.048   6.552  1.2046  0.0121 -2.7045
  705MOL0     H95112   4.773   5.859   6.594 -2.3476 -1.9836  0.6629
  705MOL0     H95113   4.698   5.935   6.731 -2.0419  0.1042 -0.4833
  705MOL0     H95114   4.809   6.123   6.685 -2.6284  1.1384  1.0992
  705MOL0     H95115   4.724   6.147   6.525  0.0049 -0.4174 -0.2107
  705MOL0     H95116   4.977   5.974   6.569 -1.9838 -3.4124 -0.6109
  705MOL0     H95117   4.895   6.008   6.416  2.9374 -0.0635 -1.3857
  705MOL0     H95118   4.958   6.243   6.430 -3.1073 -0.8623  1.1840
  705MOL0     H95119   5.004   6.235   6.593 -0.7475  0.7108 -0.6253
  705MOL0     H95120   5.204   6.094   6.536 -1.3663  1.1704  2.0155
  705MOL0     H95121   5.167   6.112   6.361  0.7008 -0.8321  0.9308
  705MOL0     H95122   5.214   6.346   6.545 -1.4733  1.2770 -0.9755
  705MOL0     H95123   5.164   6.360   6.378 -2.8839 -1.3642 -0.6648
  705MOL0     H95124   5.399   6.181   6.438 -1.3264 -0.5698 -0.2182
  705MOL0     H95125   5.365   6.281   6.289 -0.2163  1.2082 -0.0644
  705MOL0     H95126   5.447   6.387   6.656 -3.7874  1.2450 -0.7134
  705MOL0     H95127   5.574   6.707   6.673  2.8157  1.9900 -0.9314
  705MOL0     H95128   5.554   6.558   6.762  2.9530  0.2857  1.4878
  705MOL0     H95129   5.774   6.594   6.789 -0.3122  1.7259 -0.1223
  705MOL0     H95130   5.787   6.497   6.633 -1.0117 -1.2689  1.8371
  705MOL0     H95131   5.783   6.806   6.671 -0.0226 -0.8124  2.6276
  705MOL0     H95132   5.793   6.719   6.508 -0.6540 -4.1615  0.8055
  705MOL0     H95133   5.976   6.715   6.746  0.6242 -1.4100 -0.3150
  705MOL0     H95134   6.015   6.793   6.584  1.1431 -2.0309 -1.5044
  705MOL0     H95135   6.227   6.771   6.668  1.9791 -0.3165 -0.0970
  705MOL0     H95136   6.458   6.757   6.605 -1.9840  2.1974 -2.4205
  705MOL0     H95137   6.821   6.403   6.673 -1.0736 -0.5087 -1.1797
  705MOL0     H95138   7.065   6.409   6.660 -2.3926 -1.5323  0.4658
  705MOL0     H95139   7.266   6.552   6.705  0.1929  1.4195 -0.3062
  705MOL0     H95140   7.294   6.402   6.611 -0.7566  0.3648 -3.2807
  705MOL0     H95141   7.503   6.511   6.513 -2.3893 -2.6148  0.7015
  705MOL0     H95142   7.465   6.659   6.588  0.3957  0.3086  0.4290
  705MOL0     H95143   7.620   6.546   6.738 -1.1046  3.3451 -0.9122
  705MOL0     H95144   7.465   6.534   6.813  0.0949  1.8409  0.7132
  705MOL0     H95145   7.530   6.311   6.611  1.5738  0.9653  0.0786
  705MOL0     H95146   7.435   6.293   6.748  0.1495 -0.1447 -0.0314
  705MOL0     H95147   7.730   6.332   6.761 -1.7617  2.3934 -2.2851
  705MOL0     H95148   7.677   6.172   6.767 -1.5757 -1.2492  0.8289
  705MOL0     H95149   7.610   6.385   6.964  1.5714  1.2114 -1.7636
  705MOL0     H95150   7.509   6.234   6.971 -0.4570  0.5743 -0.8485
  705MOL0     H95151   7.813   6.215   6.991 -1.0086  1.7008 -0.6134
  705MOL0     H95152   7.698   6.083   6.990  4.3697 -0.4978 -0.6740
  705MOL0     H95153   7.594   6.200   7.201  1.9393  0.3932  1.4129
  705MOL0     H95154   7.755   6.120   7.211  0.2858  0.7816  1.7705
  705MOL0     H95155   7.076   6.703   6.358  0.3775  0.7285  0.9363
  705MOL0     H95156   6.819   6.721   6.374 -2.2931  0.6700  2.7032
  705MOL0     H95157   6.366   6.414   6.365  2.8713  0.2265  1.8049
  705MOL0     H95158   6.138   6.428   6.424 -0.0587  0.3639 -0.1980
  705MOL0     H95159   4.339   5.880   6.393 -1.5817  0.5105 -1.4963
  705MOL0     H95160   4.088   5.875   6.397 -0.2026  0.4706  0.6462
  705MOL0     H95161   3.711   5.542   6.496  2.0238  1.3977 -4.8719
  705MOL0     H95162   3.460   5.529   6.470  1.9835 -1.0530  2.1037
  705MOL0     H95163   3.261   5.550   6.454 -0.0190  0.5338  2.5437
  705MOL0     H95164   3.259   5.634   6.296 -1.0083  1.0907 -0.1726
  705MOL0     H95165   3.069   5.687   6.534  2.5285  1.0283  0.3505
  705MOL0     H95166   3.039   5.562   6.402  2.6347 -1.5966  2.9267
  705MOL0     H95167   3.014   5.723   6.234  0.7460 -1.4079  0.6111
  705MOL0     H95168   3.054   5.861   6.344 -0.4117  0.1519  0.3389
  705MOL0     H95169   2.828   5.658   6.390  3.7969 -1.7847  0.3942
  705MOL0     H95170   2.865   5.789   6.500  0.6378 -1.0140  0.7097
  705MOL0     H95171   2.637   5.989   6.208 -2.5362 -1.1958  0.0823
  705MOL0     H95172   3.449   5.954   6.533  1.8688  0.7433 -0.9651
  705MOL0     H95173   3.761   6.005   6.670 -0.3171  0.6128 -0.6423
  705MOL0     H95174   3.763   6.021   6.483 -2.2620 -2.9417 -2.6508
  705MOL0     H95175   3.634   6.084   6.586 -0.4413 -0.3040 -0.9504
  706MOL0     O95176   3.380   0.149   5.667  0.3766 -0.4538  0.4264
  706MOL0     C95177   3.332   0.141   5.554  0.1160 -0.5606  0.9344
  706MOL0     O95178   3.399   0.079   5.450  0.0654 -0.8826  0.0425
  706MOL0     C95179   3.529   0.058   5.461 -0.2247 -0.7895 -1.0450
  706MOL0     C95180   3.610   0.109   5.361  0.4241  0.3806 -0.1861
  706MOL0     C95181   3.749   0.119   5.372 -0.2467  0.7991 -0.0992
  706MOL0     C95182   3.817   0.044   5.471 -0.6999  0.0607  0.0944
  706MOL0     O95183   3.955   0.027   5.478  0.1975 -0.5487  0.4680
  706MOL0     C95184   4.039   0.081   5.367  0.4187 -0.0954 -0.3824
  706MOL0     C95185   4.176   0.050   5.422 -0.1183 -0.0346 -0.0840
  706MOL0     C95186   4.266   0.181   5.401  0.4784 -0.1495 -0.2233
  706MOL0     C95187   4.418   0.157   5.428  0.1392 -0.1409  0.2670
  706MOL0     C95188   4.510   0.277   5.403  0.7202  0.0287  0.1150
  706MOL0     C95189   4.505   0.324   5.255 -0.3171 -0.4747 -0.2874
  706MOL0     C95190   4.611   0.435   5.226 -0.4547  0.8905  0.2510
  706MOL0     C95191   4.750   0.381   5.190 -0.5111 -0.2321  0.0665
  706MOL0     N95192   4.865   0.475   5.175 -0.3766  0.5542  0.4821
  706MOL0     C95193   4.865   0.598   5.115  0.7876  0.4492 -0.4140
  706MOL0     C95194   5.003   0.628   5.104  0.6198 -0.3153  0.2492
  706MOL0     C95195   5.065   0.740   5.022  0.2790  1.2550  0.9122
  706MOL0     C95196   5.023   0.885   5.054 -0.3520  0.4996 -0.3802
  706MOL0     C95197   5.096   0.988   4.966 -0.4960  0.6237 -0.8402
  706MOL0     C95198   5.247   0.976   4.973 -0.4381  0.1590 -0.4190
  706MOL0     O95199   5.312   1.078   4.902 -0.2496 -0.0156  0.0397
  706MOL0     C95200   5.444   1.103   4.926 -0.7535 -0.6422 -0.2247
  706MOL0     C95201   5.510   1.224   4.892  0.1382  0.0606 -0.9012
  706MOL0     C95202   5.641   1.246   4.931 -0.1191  0.1062  0.8059
  706MOL0     C95203   5.727   1.153   4.990 -0.4950  0.0131  0.2233
  706MOL0     C95204   5.871   1.176   5.007 -0.2752  0.0327  0.2455
  706MOL0     O95205   5.912   1.307   5.004  0.2023 -0.6983 -0.6169
  706MOL0     C95206   6.047   1.333   5.022  1.2599 -0.1397  0.5075
  706MOL0     C95207   6.125   1.336   4.907  0.0705 -0.4918  0.3845
  706MOL0     C95208   6.266   1.353   4.922 -0.5580 -0.2629 -0.3645
  706MOL0     C95209   6.324   1.366   5.049 -0.5895 -0.3575  0.3110
  706MOL0     O95210   6.462   1.398   5.055  0.4888  1.1070  0.4850
  706MOL0     C95211   6.527   1.401   5.186 -0.0056 -0.0963  0.4928
  706MOL0     C95212   6.676   1.426   5.172 -0.4214  0.5345  0.1643
  706MOL0     C95213   6.730   1.508   5.289 -0.3721  0.8303 -0.1464
  706MOL0     C95214   6.878   1.514   5.288  0.0147  0.0003  0.2000
  706MOL0     C95215   6.930   1.620   5.193 -0.2503  0.2907  1.0125
  706MOL0     C95216   7.082   1.645   5.207  0.2532 -0.9281 -1.0863
  706MOL0     C95217   7.163   1.553   5.120 -0.4659  0.0196  0.5996
  706MOL0     C95218   7.308   1.564   5.161 -0.9158 -0.0406  0.4134
  706MOL0    Cl95219   7.394   1.486   5.047  0.0068 -0.0304  0.1866
  706MOL0     C95220   6.237   1.361   5.163  0.0890 -0.2785  0.0708
  706MOL0     C95221   6.095   1.349   5.149  0.1829  0.4089  0.5598
  706MOL0     O95222   5.947   1.080   5.030  0.6101  0.7482 -0.2377
  706MOL0     C95223   5.666   1.032   5.010 -0.3445 -0.0161 -0.3854
  706MOL0     C95224   5.533   1.010   4.986  1.5542  0.0428 -0.2776
  706MOL0     N95225   5.074   0.531   5.172 -0.4281  0.7671 -0.4761
  706MOL0     N95226   4.988   0.450   5.222 -0.3622 -0.0829  0.0142
  706MOL0     C95227   3.739   0.002   5.576  0.2168 -0.1941 -0.3876
  706MOL0     C95228   3.597  -0.000   5.569  0.6005  0.6723 -0.8892
  706MOL0     C95229   3.191   0.181   5.532  0.2033  0.5055 -0.4151
  706MOL0     C95230   3.138   0.183   5.398  0.0317  1.1855  0.0255
  706MOL0     C95231   3.006   0.214   5.369 -0.1380  0.1987 -0.0719
  706MOL0     C95232   2.914   0.273   5.459 -0.6711  0.2096  0.0382
  706MOL0     O95233   2.783   0.315   5.445  0.0681 -0.4773  0.0183
  706MOL0     C95234   2.746   0.326   5.308 -0.2127 -0.5027  0.3594
  706MOL0     C95235   2.597   0.361   5.303  0.3132  0.2230  0.7753
  706MOL0     C95236   2.521   0.320   5.172 -0.5772 -0.4781  0.2947
  706MOL0     C95237   2.378   0.356   5.185  0.5101 -0.0333 -0.5256
  706MOL0     C95238   2.309   0.379   5.056 -0.2226  0.3112  0.3121
  706MOL0     C95239   2.265   0.405   4.953  0.9914 -0.2787  0.3338
  706MOL0     C95240   2.958   0.279   5.584 -0.6885 -0.5433 -1.0764
  706MOL0     C95241   3.089   0.222   5.628 -0.0921 -0.1667 -0.0152
  706MOL0     C95242   3.127   0.220   5.782  0.4555 -0.0279  0.2548
  706MOL0     H95243   3.568   0.166   5.278 -0.8390  1.1904  0.9714
  706MOL0     H95244   3.804   0.163   5.289  1.9233 -0.3457  0.6759
  706MOL0     H95245   4.016   0.028   5.275 -0.9002 -1.6791  0.8006
  706MOL0     H95246   4.021   0.189   5.362 -2.1380 -0.4899 -1.6708
  706MOL0     H95247   4.214  -0.035   5.365 -0.3313  0.7298 -1.4296
  706MOL0     H95248   4.171   0.029   5.529  0.9683  0.5896  0.1078
  706MOL0     H95249   4.232   0.267   5.459  0.4793  2.2398 -3.5535
  706MOL0     H95250   4.253   0.220   5.300 -2.8398  1.3130  0.6364
  706MOL0     H95251   4.441   0.126   5.530  4.2060  2.4256  0.3326
  706MOL0     H95252   4.455   0.080   5.360  1.4937 -0.4834  1.3613
  706MOL0     H95253   4.484   0.365   5.462 -1.2057  0.5408 -1.3754
  706MOL0     H95254   4.612   0.243   5.425  0.5031  0.5446  2.0710
  706MOL0     H95255   4.502   0.238   5.186  0.3241 -3.7545  3.4219
  706MOL0     H95256   4.404   0.362   5.236 -0.2538 -0.4100 -0.4998
  706MOL0     H95257   4.619   0.501   5.313 -0.5179 -0.0510  0.9874
  706MOL0     H95258   4.575   0.490   5.139  0.8353 -0.3531 -1.1241
  706MOL0     H95259   4.778   0.309   5.267 -2.4473  1.0822  2.1052
  706MOL0     H95260   4.735   0.327   5.096 -1.1402 -0.3040  0.2096
  706MOL0     H95261   4.784   0.657   5.073  1.6908  1.4364 -0.8249
  706MOL0     H95262   5.173   0.742   5.040  0.1720  2.5187  1.5713
  706MOL0     H95263   5.059   0.710   4.917 -2.0492 -4.1884  2.2850
  706MOL0     H95264   4.914   0.897   5.043 -1.0935 -1.9152  2.9496
  706MOL0     H95265   5.041   0.902   5.160  1.5244 -1.9129 -0.2541
  706MOL0     H95266   5.071   1.087   5.004 -0.5117  0.3353 -0.0928
  706MOL0     H95267   5.054   0.970   4.866 -2.5401 -1.4395  0.2968
  706MOL0     H95268   5.273   0.880   4.927 -1.1948  0.9271 -2.5916
  706MOL0     H95269   5.287   0.960   5.073  1.1497 -0.4170 -1.1184
  706MOL0     H95270   5.451   1.304   4.851  1.8652  0.7031 -2.2161
  706MOL0     H95271   5.683   1.346   4.919  0.2342 -0.1269  0.0676
  706MOL0     H95272   6.076   1.328   4.810  2.4787  1.0435 -1.0666
  706MOL0     H95273   6.326   1.355   4.832 -0.1407  0.3934 -0.0850
  706MOL0     H95274   6.472   1.481   5.236 -2.9095 -0.9047 -1.1342
  706MOL0     H95275   6.504   1.311   5.244  0.5405 -1.6328 -1.5572
  706MOL0     H95276   6.735   1.334   5.164 -0.5699  0.5244 -0.9041
  706MOL0     H95277   6.699   1.484   5.082  0.0349  1.2089  0.7041
  706MOL0     H95278   6.703   1.614   5.277  2.2152  1.6461  0.6308
  706MOL0     H95279   6.693   1.468   5.384 -0.1928  2.4683  0.6618
  706MOL0     H95280   6.927   1.418   5.273  1.4184  0.5384  1.1199
  706MOL0     H95281   6.907   1.540   5.390  1.0163 -0.7246  0.1113
  706MOL0     H95282   6.890   1.720   5.210  0.5705  1.3795 -2.5621
  706MOL0     H95283   6.900   1.590   5.092  2.1422  2.8968 -0.6209
  706MOL0     H95284   7.106   1.749   5.186  2.2172 -1.0764  0.2175
  706MOL0     H95285   7.106   1.642   5.313  3.5962  2.0480 -1.5781
  706MOL0     H95286   7.147   1.580   5.015  0.3889  0.0696  0.4750
  706MOL0     H95287   7.125   1.452   5.134  1.2430 -0.6293  0.8203
  706MOL0     H95288   7.336   1.670   5.171 -0.8287  0.2895 -2.4630
  706MOL0     H95289   7.321   1.512   5.256 -2.1698  0.0680  0.6621
  706MOL0     H95290   6.267   1.369   5.267  1.2087 -2.2178 -0.0486
  706MOL0     H95291   6.039   1.353   5.242  1.1939 -2.2032  1.3938
  706MOL0     H95292   5.720   0.947   5.051  0.2677  0.1767 -0.7679
  706MOL0     H95293   5.485   0.916   5.006 -1.4389  1.6400  0.6443
  706MOL0     H95294   3.795  -0.054   5.650  0.5875 -3.0714 -2.6430
  706MOL0     H95295   3.542  -0.033   5.657  2.0772  1.5132  0.4115
  706MOL0     H95296   3.212   0.155   5.323  1.0074 -1.9631  1.9458
  706MOL0     H95297   2.967   0.208   5.268  3.4198  1.4824 -1.6907
  706MOL0     H95298   2.759   0.231   5.255 -1.0419  1.6278 -4.2276
  706MOL0     H95299   2.804   0.398   5.249 -0.7819 -1.0567 -0.9300
  706MOL0     H95300   2.582   0.468   5.318 -0.3076  0.2839 -0.1441
  706MOL0     H95301   2.544   0.303   5.379  0.5086 -3.7257 -1.7745
  706MOL0     H95302   2.533   0.213   5.155  2.0496 -0.5935  2.2970
  706MOL0     H95303   2.563   0.385   5.094  2.2382 -0.3602  1.7906
  706MOL0     H95304   2.331   0.270   5.234 -1.2388  1.3208  0.3017
  706MOL0     H95305   2.361   0.447   5.244 -0.7640  0.4998 -1.6685
  706MOL0     H95306   2.220   0.419   4.857 -0.7239 -3.3273  0.5908
  706MOL0     H95307   2.891   0.325   5.657 -0.3116 -2.1735  0.3712
  706MOL0     H95308   3.140   0.121   5.826 -0.2481 -0.0048  0.5265
  706MOL0     H95309   3.226   0.263   5.802  0.5290 -0.3490  0.5766
  706MOL0     H95310   3.045   0.269   5.834  2.0070  1.2810  1.5909
  707MOL0     O95311   5.671   4.606   4.658  0.3942  0.6113  0.0494
  707MOL0     C95312   5.699   4.688   4.577 -0.0090  0.3310  0.1174
  707MOL0     O95313   5.794   4.790   4.599 -0.6793 -0.0874  0.5484
  707MOL0     C95314   5.871   4.770   4.717 -0.5445 -1.3750 -0.0446
  707MOL0     C95315   5.854   4.865   4.813  0.0013  0.6548 -0.3788
  707MOL0     C95316   5.933   4.849   4.931 -0.4350  0.1909 -0.1464
  707MOL0     C95317   6.032   4.749   4.953  0.0812  0.6355  0.2590
  707MOL0     O95318   6.108   4.749   5.063  0.0322 -0.0372 -0.7020
  707MOL0     C95319   6.120   4.866   5.154  1.2738  0.5022 -0.4718
  707MOL0     C95320   6.226   4.847   5.261 -0.4600  0.7711 -0.6111
  707MOL0     C95321   6.363   4.833   5.198 -1.2848  1.0051 -0.1853
  707MOL0     C95322   6.467   4.764   5.293  0.7979 -0.0463 -0.4023
  707MOL0     C95323   6.616   4.793   5.257  0.3100 -0.2247 -0.3571
  707MOL0     C95324   6.706   4.712   5.352 -0.0797 -0.1171  0.5292
  707MOL0     C95325   6.853   4.733   5.323 -0.2271 -0.6099  0.9763
  707MOL0     C95326   6.954   4.661   5.414  0.9277  0.0867 -0.1700
  707MOL0     N95327   7.089   4.688   5.390  0.3061 -0.8362 -0.4718
  707MOL0     C95328   7.166   4.689   5.270 -0.2026 -0.4612  0.3523
  707MOL0     C95329   7.287   4.717   5.311 -0.0191 -0.8584  0.3258
  707MOL0     C95330   7.414   4.727   5.230  0.1222  0.0223  0.0230
  707MOL0     C95331   7.451   4.593   5.175 -0.1302 -0.9951  0.0229
  707MOL0     C95332   7.599   4.594   5.127  0.1807  0.1554 -0.6333
  707MOL0     C95333   7.625   4.464   5.049  0.1904  0.4980 -0.4308
  707MOL0     O95334   7.754   4.421   5.083 -0.2648 -0.1910  0.0402
  707MOL0     C95335   7.872   4.479   5.033 -0.2123  0.2662 -0.4434
  707MOL0     C95336   7.877   4.534   4.908 -0.5158 -1.1387  0.6373
  707MOL0     C95337   7.997   4.577   4.850  0.7456 -0.3147 -0.1357
  707MOL0     C95338   8.119   4.565   4.923 -0.4220  0.6633 -0.0487
  707MOL0     C95339   8.237   4.622   4.867 -0.8506 -0.4523  0.2043
  707MOL0     O95340   8.350   4.578   4.918 -0.4230  0.9187 -0.0240
  707MOL0     C95341   8.460   4.625   4.850 -0.6716  0.9316  0.2263
  707MOL0     C95342   8.567   4.662   4.931  0.4114 -0.7619 -0.0608
  707MOL0     C95343   8.689   4.700   4.874  0.6538 -0.1360  0.2928
  707MOL0     C95344   8.701   4.713   4.735  0.0088  0.5175 -1.2275
  707MOL0     O95345   8.820   4.746   4.686  0.1664  0.4544 -0.9101
  707MOL0     C95346   8.854   4.723   4.550  0.5514  1.0393 -0.0884
  707MOL0     C95347   8.990   4.760   4.514  0.8890 -0.1779 -0.3066
  707MOL0     C95348   9.095   4.685   4.592  0.5472  0.7882  0.2785
  707MOL0     C95349   9.241   4.713   4.550  0.3822  0.3860  0.6834
  707MOL0     C95350   9.348   4.665   4.644 -0.0441 -0.1695  0.6984
  707MOL0     C95351   9.374   4.514   4.623  0.1543 -0.0463 -0.0885
  707MOL0     C95352   9.495   4.477   4.706  0.1136 -0.4288  0.3785
  707MOL0     C95353   9.619   4.499   4.612  0.4875  0.3266 -0.3375
  707MOL0    Cl95354   9.614   4.384   4.478  0.5645 -0.0852  0.4331
  707MOL0     C95355   8.602   4.657   4.655  0.4076 -0.0358  0.3013
  707MOL0     C95356   8.481   4.627   4.712  1.0034  0.0030  0.6178
  707MOL0     O95357   8.225   4.705   4.778  0.3532 -0.6002 -0.3347
  707MOL0     C95358   8.114   4.507   5.054  0.3915 -0.3837 -0.2815
  707MOL0     C95359   7.992   4.457   5.107 -0.1212 -0.5078 -0.4465
  707MOL0     N95360   7.294   4.715   5.451  0.4898  0.3583  0.7470
  707MOL0     N95361   7.176   4.711   5.494  0.2065 -0.5113  0.6701
  707MOL0     C95362   6.058   4.658   4.843 -0.5471 -0.0208 -0.3130
  707MOL0     C95363   5.972   4.675   4.735  0.4340  0.5777 -0.5902
  707MOL0     C95364   5.632   4.678   4.450  0.5232  0.2404  0.5435
  707MOL0     C95365   5.574   4.558   4.406  0.4551  0.2078 -0.2760
  707MOL0     C95366   5.499   4.542   4.290 -0.2591 -0.5644  0.9752
  707MOL0     C95367   5.473   4.651   4.210  0.0327 -0.8270 -0.1280
  707MOL0     O95368   5.411   4.635   4.090 -0.4647  0.2012 -0.4174
  707MOL0     C95369   5.335   4.750   4.039 -0.4261  0.8969  0.4164
  707MOL0     C95370   5.210   4.703   3.968 -0.1053 -0.3996  0.2392
  707MOL0     C95371   5.242   4.616   3.850  0.1377 -1.1497 -1.0048
  707MOL0     C95372   5.113   4.585   3.759 -0.4319  0.7545 -0.0059
  707MOL0     C95373   5.145   4.502   3.646  0.6525 -0.7057 -0.4515
  707MOL0     C95374   5.162   4.410   3.569  0.0607 -0.2330  0.4055
  707MOL0     C95375   5.521   4.772   4.255 -0.2632 -0.7711  0.5358
  707MOL0     C95376   5.601   4.792   4.369  0.1975 -0.7257 -0.5290
  707MOL0     C95377   5.647   4.933   4.405  0.4586  0.1794  0.1165
  707MOL0     H95378   5.773   4.936   4.812  0.3414  1.0461 -0.5901
  707MOL0     H95379   5.910   4.914   5.014  2.0869  0.2332  0.5940
  707MOL0     H95380   6.139   4.953   5.091 -3.6508  1.6209 -0.8351
  707MOL0     H95381   6.023   4.878   5.204  0.4992 -0.6083 -1.6453
  707MOL0     H95382   6.206   4.761   5.325  1.9230  1.6903  1.5759
  707MOL0     H95383   6.235   4.939   5.320  0.8587  0.5515 -0.4272
  707MOL0     H95384   6.400   4.928   5.160 -1.5172  1.2745  0.2464
  707MOL0     H95385   6.364   4.762   5.115  1.0496 -1.2587  1.5999
  707MOL0     H95386   6.455   4.789   5.399 -2.6341 -0.7902 -0.4978
  707MOL0     H95387   6.456   4.656   5.281 -0.3036 -0.1806  1.4193
  707MOL0     H95388   6.632   4.760   5.154  2.2282 -0.8570  0.1027
  707MOL0     H95389   6.634   4.898   5.280 -0.1349 -0.4524  1.1741
  707MOL0     H95390   6.689   4.755   5.451  0.4946 -0.5147  0.8071
  707MOL0     H95391   6.690   4.604   5.353  0.1537 -0.1613  2.0934
  707MOL0     H95392   6.869   4.840   5.334  2.4660 -1.0243  1.8103
  707MOL0     H95393   6.867   4.713   5.216  0.4736 -2.4078  1.3705
  707MOL0     H95394   6.937   4.680   5.520  1.5647 -4.0454  0.8322
  707MOL0     H95395   6.943   4.553   5.405 -0.2687  0.0479  1.3778
  707MOL0     H95396   7.129   4.670   5.170 -1.3512  0.4726  0.5837
  707MOL0     H95397   7.405   4.799   5.149  1.2972  2.1999  1.7281
  707MOL0     H95398   7.492   4.759   5.300  1.4186 -2.4178 -0.1731
  707MOL0     H95399   7.456   4.513   5.250 -0.7991  1.9736  3.5024
  707MOL0     H95400   7.378   4.573   5.095  0.6766 -0.6035 -0.8256
  707MOL0     H95401   7.665   4.601   5.214 -0.1440  0.1539 -0.3863
  707MOL0     H95402   7.617   4.678   5.058 -1.0722  1.7367  0.8782
  707MOL0     H95403   7.615   4.465   4.940  0.9178 -2.1795 -0.5990
  707MOL0     H95404   7.556   4.393   5.095 -1.6926  2.3514 -0.2245
  707MOL0     H95405   7.791   4.546   4.843  1.2996 -1.3658 -1.9744
  707MOL0     H95406   8.002   4.597   4.743  3.1808 -3.9807 -0.8810
  707MOL0     H95407   8.561   4.659   5.040 -0.9098  1.5464 -0.0132
  707MOL0     H95408   8.772   4.721   4.940 -1.7230 -1.0503  3.8383
  707MOL0     H95409   8.840   4.617   4.527  1.0797  0.8399  0.4793
  707MOL0     H95410   8.793   4.784   4.482 -1.7374 -1.2592 -0.2045
  707MOL0     H95411   8.995   4.718   4.413  1.3572 -0.8859  0.0049
  707MOL0     H95412   9.008   4.868   4.514 -2.5657  0.5414  1.5009
  707MOL0     H95413   9.092   4.724   4.694 -0.6858  0.8858  0.2213
  707MOL0     H95414   9.073   4.578   4.592  2.5700  0.3204  1.4048
  707MOL0     H95415   9.250   4.819   4.524 -0.6292  0.0530 -1.1810
  707MOL0     H95416   9.255   4.656   4.458  1.1672  4.6968 -2.1478
  707MOL0     H95417   9.317   4.683   4.748 -0.8830  0.3557  0.3695
  707MOL0     H95418   9.436   4.726   4.622 -1.9957  1.6131 -3.1355
  707MOL0     H95419   9.286   4.457   4.651  0.6153 -1.0818 -0.6908
  707MOL0     H95420   9.398   4.498   4.518  1.1287 -1.9194  0.3679
  707MOL0     H95421   9.497   4.371   4.735 -0.2896  0.0158  2.1392
  707MOL0     H95422   9.505   4.548   4.789  0.8939  1.7925 -1.5119
  707MOL0     H95423   9.629   4.603   4.578 -1.7783 -0.1388 -2.7450
  707MOL0     H95424   9.709   4.475   4.669  0.4796  1.0236 -0.0225
  707MOL0     H95425   8.615   4.649   4.547 -1.8589 -0.6918  0.0321
  707MOL0     H95426   8.402   4.594   4.644  1.3359  1.1229 -0.3505
  707MOL0     H95427   8.205   4.510   5.114  1.1613  2.2642 -1.4040
  707MOL0     H95428   7.981   4.425   5.210 -2.1509 -0.3269 -0.5670
  707MOL0     H95429   6.133   4.580   4.851  0.8565  1.4192  1.7284
  707MOL0     H95430   5.979   4.611   4.647 -0.2779  0.6000 -0.6699
  707MOL0     H95431   5.575   4.471   4.471  0.9524  0.4792  0.0831
  707MOL0     H95432   5.459   4.451   4.247  3.0429 -2.2907  1.2306
  707MOL0     H95433   5.401   4.809   3.975  1.8142 -1.6970  0.1408
  707MOL0     H95434   5.292   4.820   4.111 -0.0429  1.8000 -0.1987
  707MOL0     H95435   5.146   4.785   3.938 -1.7605 -1.8337 -0.3247
  707MOL0     H95436   5.155   4.635   4.035 -1.5730 -2.2959 -2.6891
  707MOL0     H95437   5.285   4.533   3.907 -1.7556 -1.3162  0.2624
  707MOL0     H95438   5.323   4.652   3.786  1.0443 -2.0654 -0.4071
  707MOL0     H95439   5.031   4.536   3.813  0.0274  0.6260  0.5871
  707MOL0     H95440   5.071   4.681   3.730 -3.0991 -0.7906 -1.7497
  707MOL0     H95441   5.188   4.337   3.495 -0.8668 -0.4157  0.2366
  707MOL0     H95442   5.501   4.864   4.200 -1.2159 -0.6538  1.0606
  707MOL0     H95443   5.592   5.007   4.346 -0.5449 -0.0670  0.7260
  707MOL0     H95444   5.630   4.951   4.511  2.4831 -1.1933  0.7579
  707MOL0     H95445   5.757   4.933   4.402  0.5395 -1.6746  1.0624
  708MOL0     O95446  10.801   3.414   9.664  0.4160 -0.2554 -0.3048
  708MOL0     C95447  10.787   3.506   9.581 -0.2508  0.3570 -1.0818
  708MOL0     O95448  10.886   3.552   9.496  0.1321  0.1920  1.0674
  708MOL0     C95449  11.007   3.486   9.491 -0.4507 -0.3662 -0.7496
  708MOL0     C95450  11.076   3.446   9.608  0.5734  0.4052  0.1995
  708MOL0     C95451  11.205   3.389   9.599 -0.4836 -0.0935  0.0238
  708MOL0     C95452  11.268   3.377   9.475  0.3484  0.0667  0.6589
  708MOL0     O95453  11.387   3.315   9.453 -1.1868 -0.4519  0.1184
  708MOL0     C95454  11.473   3.274   9.562  0.0485 -0.1885 -0.4087
  708MOL0     C95455  11.610   3.226   9.508  0.3791 -0.1798 -0.5448
  708MOL0     C95456  11.691   3.348   9.444  0.4514  0.4053 -0.2491
  708MOL0     C95457  11.798   3.319   9.333 -0.2412 -0.3986 -1.1905
  708MOL0     C95458  11.931   3.265   9.399  0.0747 -0.6075 -0.6427
  708MOL0     C95459  12.041   3.276   9.302 -0.2194  0.3036  0.6841
  708MOL0     C95460  12.164   3.199   9.348  0.8802  0.4290 -0.4735
  708MOL0     C95461  12.286   3.254   9.286  0.1981  0.2929  0.4053
  708MOL0     N95462  12.396   3.158   9.262 -0.2806 -0.0108  0.2577
  708MOL0     C95463  12.505   3.196   9.187  0.5551  0.7994 -0.2033
  708MOL0     C95464  12.579   3.081   9.184 -0.5198  0.3747  0.1204
  708MOL0     C95465  12.707   3.044   9.105  0.3388 -0.4975 -0.4706
  708MOL0     C95466  12.834   3.138   9.133  0.3243  0.3232  0.0082
  708MOL0     C95467  12.965   3.083   9.067  0.0915  0.6170 -0.0947
  708MOL0     C95468  12.978   3.115   8.922  0.2575  1.0606  0.4655
  708MOL0     O95469  13.020   3.249   8.879 -0.3998 -1.0375  0.9043
  708MOL0     C95470  13.120   3.304   8.956 -0.6603 -0.4749  0.0984
  708MOL0     C95471  13.246   3.263   8.945 -0.0459  0.0754  0.7993
  708MOL0     C95472  13.353   3.315   9.014  0.2010 -0.9905  0.0478
  708MOL0     C95473  13.323   3.401   9.123 -0.3862 -0.3973  0.5451
  708MOL0     C95474  13.425   3.451   9.213 -0.5035  0.0865 -0.1386
  708MOL0     O95475  13.551   3.407   9.189  0.4572 -0.3630  0.3712
  708MOL0     C95476  13.651   3.426   9.284  0.2773 -0.0033 -0.3405
  708MOL0     C95477  13.675   3.329   9.384  0.0267  0.0566 -0.3469
  708MOL0     C95478  13.782   3.343   9.473 -0.5832  0.4170 -0.6050
  708MOL0     C95479  13.865   3.452   9.477 -0.0704  0.3831  0.7220
  708MOL0     O95480  13.983   3.451   9.562 -0.0116 -0.2545  1.3307
  708MOL0     C95481  13.985   3.561   9.653  0.0130  0.0879  0.0215
  708MOL0     C95482  14.128   3.573   9.719  0.2666  0.6316 -0.3282
  708MOL0     C95483  14.239   3.629   9.629  0.2855 -1.4623  0.5952
  708MOL0     C95484  14.312   3.519   9.550 -0.6538 -0.1494 -0.1230
  708MOL0     C95485  14.465   3.552   9.535  0.7712  0.0732 -0.9606
  708MOL0     C95486  14.486   3.676   9.448  0.0069 -0.0265  0.2746
  708MOL0     C95487  14.618   3.748   9.487  0.2820 -0.0848  0.6475
  708MOL0     C95488  14.735   3.686   9.405  0.1986  1.1282  0.4017
  708MOL0    Cl95489  14.792   3.532   9.480  0.1455  0.1472  0.4975
  708MOL0     C95490  13.837   3.558   9.385 -0.1215  0.5770 -0.0817
  708MOL0     C95491  13.732   3.546   9.286 -0.0658  0.6883  0.2986
  708MOL0     O95492  13.389   3.526   9.309 -0.3746  0.4882 -0.2435
  708MOL0     C95493  13.196   3.455   9.132  0.0922  0.3557 -0.1607
  708MOL0     C95494  13.094   3.401   9.053  0.6414 -0.5376  0.7502
  708MOL0     N95495  12.517   2.993   9.274 -0.3479  0.2047 -0.1919
  708MOL0     N95496  12.417   3.035   9.328  0.1956 -0.2010  0.8659
  708MOL0     C95497  11.200   3.438   9.364 -0.0891  0.5458 -0.4222
  708MOL0     C95498  11.078   3.492   9.373 -0.2122 -0.1024 -0.2506
  708MOL0     C95499  10.645   3.547   9.565  0.5603  0.4663 -0.2536
  708MOL0     C95500  10.558   3.532   9.681 -1.1149 -0.6333 -0.1065
  708MOL0     C95501  10.431   3.580   9.667  0.6170  0.6835 -0.1918
  708MOL0     C95502  10.379   3.648   9.558 -0.8437  0.2671 -0.0985
  708MOL0     O95503  10.246   3.679   9.537 -0.4052 -0.2368  0.0930
  708MOL0     C95504  10.156   3.653   9.647 -0.7692  0.2079  0.1642
  708MOL0     C95505  10.019   3.721   9.621  0.1377  0.8297 -1.1458
  708MOL0     C95506   9.929   3.720   9.739  0.4323 -0.2696  0.2589
  708MOL0     C95507   9.790   3.756   9.692  0.5002 -0.3980  0.2443
  708MOL0     C95508   9.688   3.724   9.795  0.5637  0.7687  0.4430
  708MOL0     C95509   9.597   3.714   9.869  1.0482  0.6318  0.2563
  708MOL0     C95510  10.460   3.660   9.442 -0.1381  0.4376 -0.0037
  708MOL0     C95511  10.588   3.618   9.449 -1.0708  0.4139  0.1125
  708MOL0     C95512  10.674   3.629   9.324 -0.3071  0.0708  0.1293
  708MOL0     H95513  11.024   3.461   9.702  2.5726  0.9399  1.2937
  708MOL0     H95514  11.246   3.347   9.691 -0.2651 -1.3962 -0.6500
  708MOL0     H95515  11.501   3.345   9.640 -1.8219 -3.2980  3.4555
  708MOL0     H95516  11.427   3.194   9.620  1.7808 -1.4496 -0.7037
  708MOL0     H95517  11.594   3.138   9.445  2.9690 -2.4957  1.7385
  708MOL0     H95518  11.677   3.177   9.580  3.4118 -0.7051 -3.4750
  708MOL0     H95519  11.732   3.399   9.531 -0.9052  0.0974  0.6105
  708MOL0     H95520  11.616   3.411   9.396  1.1915  1.6649  0.2157
  708MOL0     H95521  11.741   3.245   9.274 -0.7662 -2.4171  1.6404
  708MOL0     H95522  11.829   3.406   9.275  1.5537 -0.7510 -0.8170
  708MOL0     H95523  11.953   3.317   9.492  2.0611  3.3900 -3.0835
  708MOL0     H95524  11.922   3.163   9.439 -1.1658 -0.4488 -0.5011
  708MOL0     H95525  12.002   3.231   9.210 -0.4323  0.9365  0.4596
  708MOL0     H95526  12.055   3.384   9.293 -1.4780  0.3955 -0.6963
  708MOL0     H95527  12.148   3.097   9.313 -0.0358 -0.3520  2.0586
  708MOL0     H95528  12.170   3.208   9.457  0.4794 -2.4621 -0.1443
  708MOL0     H95529  12.271   3.306   9.191  1.8480 -0.4693 -0.3172
  708MOL0     H95530  12.322   3.334   9.352  0.7213 -0.3274  0.8831
  708MOL0     H95531  12.519   3.278   9.117 -0.7750  0.5269 -0.8193
  708MOL0     H95532  12.731   2.940   9.130 -0.2822 -0.6271 -0.3969
  708MOL0     H95533  12.691   3.054   8.997  1.9851 -1.8072 -0.8856
  708MOL0     H95534  12.824   3.238   9.090  2.1352  0.6152  0.1897
  708MOL0     H95535  12.843   3.141   9.242 -2.5453 -2.1497  0.4518
  708MOL0     H95536  12.950   2.975   9.077  0.4901  0.6681  1.1482
  708MOL0     H95537  13.055   3.110   9.123  1.7000 -1.0607 -1.7035
  708MOL0     H95538  12.876   3.107   8.884  0.8260 -1.5705 -0.6999
  708MOL0     H95539  13.039   3.037   8.876 -3.2234 -0.2724 -2.2630
  708MOL0     H95540  13.268   3.180   8.878 -0.4049  0.2918  0.4083
  708MOL0     H95541  13.451   3.270   9.000  0.1196 -0.6989 -1.6634
  708MOL0     H95542  13.628   3.231   9.381  0.1207 -0.1597  2.2276
  708MOL0     H95543  13.816   3.263   9.538 -0.3252  0.6116 -0.4987
  708MOL0     H95544  13.963   3.655   9.601  0.5601  1.9030  2.8563
  708MOL0     H95545  13.914   3.549   9.735 -0.7054  1.7629 -0.3114
  708MOL0     H95546  14.116   3.633   9.810  1.3755 -0.3194  0.4818
  708MOL0     H95547  14.164   3.474   9.748 -1.4931  0.3488  1.0480
  708MOL0     H95548  14.195   3.696   9.554  2.5663 -0.0217  0.4268
  708MOL0     H95549  14.311   3.686   9.689  0.3448 -1.0734  0.1648
  708MOL0     H95550  14.268   3.508   9.450 -1.9908 -0.9396  0.5125
  708MOL0     H95551  14.305   3.422   9.600  0.4814 -0.3889 -0.4001
  708MOL0     H95552  14.506   3.465   9.484  0.6046 -1.9254  2.0632
  708MOL0     H95553  14.519   3.551   9.630 -0.4320 -1.4287 -0.2511
  708MOL0     H95554  14.485   3.644   9.344  3.2711 -0.3534  0.2461
  708MOL0     H95555  14.409   3.753   9.456  0.4662  0.2603  2.7977
  708MOL0     H95556  14.645   3.747   9.593  2.0564  0.3387  0.2434
  708MOL0     H95557  14.606   3.855   9.466  1.1152  0.6521  3.4831
  708MOL0     H95558  14.699   3.668   9.303 -0.4812  1.4359  0.5821
  708MOL0     H95559  14.810   3.765   9.393 -1.1148  2.1593 -1.7354
  708MOL0     H95560  13.894   3.648   9.406 -0.0246  0.5723 -0.3188
  708MOL0     H95561  13.717   3.614   9.203  1.4507  0.9226  0.1840
  708MOL0     H95562  13.170   3.528   9.208 -1.1383  0.8794 -1.0431
  708MOL0     H95563  12.989   3.428   9.061  0.5034 -0.9593  0.3829
  708MOL0     H95564  11.259   3.447   9.273  2.4714  0.3649  1.1058
  708MOL0     H95565  11.027   3.526   9.284 -1.1378  0.1597  0.3610
  708MOL0     H95566  10.590   3.482   9.772 -0.2508 -1.8261 -1.0309
  708MOL0     H95567  10.369   3.547   9.750 -0.9248 -0.8523 -1.8645
  708MOL0     H95568  10.194   3.700   9.738  0.6370 -0.8817  0.1775
  708MOL0     H95569  10.144   3.545   9.664 -1.5442  0.3729  0.7413
  708MOL0     H95570   9.978   3.682   9.528  0.6987 -0.8317 -0.7258
  708MOL0     H95571  10.047   3.826   9.608  0.2909  0.5809 -3.1192
  708MOL0     H95572   9.963   3.804   9.801  0.8216  1.5808 -2.3045
  708MOL0     H95573   9.919   3.625   9.793  1.3130 -0.7080 -0.3251
  708MOL0     H95574   9.782   3.860   9.663 -0.3850 -0.1002  1.4763
  708MOL0     H95575   9.761   3.691   9.609  3.0216 -2.1024  0.5679
  708MOL0     H95576   9.516   3.700   9.938  2.4885  1.7305  2.2910
  708MOL0     H95577  10.419   3.711   9.355 -1.7292 -2.1823 -0.9276
  708MOL0     H95578  10.748   3.708   9.345 -1.0818  1.0370 -0.6881
  708MOL0     H95579  10.730   3.546   9.280  3.6597  3.3745 -1.7973
  708MOL0     H95580  10.610   3.655   9.240  0.9016 -0.8407 -1.1296
  709MOL0     O95581   2.735   7.318   3.186  0.6826  0.0075 -0.0569
  709MOL0     C95582   2.827   7.368   3.247 -0.9855  0.0246  0.3351
  709MOL0     O95583   2.828   7.422   3.373 -0.1114  0.7101  0.9253
  709MOL0     C95584   2.706   7.425   3.440 -1.2673  0.3970 -0.3390
  709MOL0     C95585   2.617   7.318   3.469 -0.3546 -0.2710 -0.6922
  709MOL0     C95586   2.505   7.339   3.556 -0.0893  0.3737 -0.7796
  709MOL0     C95587   2.489   7.458   3.627  0.1892  0.6585 -0.4286
  709MOL0     O95588   2.395   7.451   3.726 -0.5006 -0.6035  0.3777
  709MOL0     C95589   2.400   7.549   3.828 -0.0425  0.3590  0.1614
  709MOL0     C95590   2.288   7.648   3.803  0.5372 -0.6171 -0.5962
  709MOL0     C95591   2.154   7.593   3.840 -0.5538  0.1261 -0.3083
  709MOL0     C95592   2.050   7.704   3.864 -0.0794  0.1990  0.5916
  709MOL0     C95593   1.911   7.673   3.819 -0.1089 -0.3851  1.1551
  709MOL0     C95594   1.819   7.803   3.801  0.4651  0.1264  0.0512
  709MOL0     C95595   1.679   7.764   3.751  0.8227 -0.0551  0.4087
  709MOL0     C95596   1.595   7.889   3.707 -0.7874  0.2642  0.0688
  709MOL0     N95597   1.556   7.964   3.825 -0.7095 -0.2362  0.0300
  709MOL0     C95598   1.618   8.080   3.880 -0.4555 -0.1163  0.5721
  709MOL0     C95599   1.537   8.119   3.982  0.1112  0.5767 -0.1102
  709MOL0     C95600   1.560   8.236   4.066 -0.3181 -0.2509 -0.1769
  709MOL0     C95601   1.587   8.364   3.991  0.2843  0.0912  0.2670
  709MOL0     C95602   1.640   8.490   4.080  0.6880  0.6558  0.4007
  709MOL0     C95603   1.793   8.473   4.097 -0.1024  0.4700  0.3954
  709MOL0     O95604   1.856   8.578   4.166  0.3464  0.3840  0.5487
  709MOL0     C95605   1.981   8.580   4.183  0.4692  0.0628 -0.3801
  709MOL0     C95606   2.020   8.638   4.302  0.1206 -0.7045 -0.1928
  709MOL0     C95607   2.152   8.654   4.336 -0.8156  0.3415  0.6609
  709MOL0     C95608   2.252   8.641   4.238  0.2935 -0.3894  0.0194
  709MOL0     C95609   2.385   8.680   4.274 -0.4102  0.8009  0.7511
  709MOL0     O95610   2.478   8.632   4.186  0.3599  0.7041 -0.3524
  709MOL0     C95611   2.598   8.692   4.182 -1.0159 -0.1385 -0.5702
  709MOL0     C95612   2.711   8.639   4.249 -0.4667  0.1708 -0.8977
  709MOL0     C95613   2.825   8.707   4.259 -0.3717  0.2267  0.1475
  709MOL0     C95614   2.848   8.822   4.174  0.0572  0.4311 -1.0462
  709MOL0     O95615   2.970   8.885   4.146  0.0355 -0.2532  0.1209
  709MOL0     C95616   3.061   8.886   4.252 -0.3150  0.3113 -0.5207
  709MOL0     C95617   3.164   8.994   4.225  0.5039 -0.1365  0.6434
  709MOL0     C95618   3.263   8.950   4.115  0.1051  0.8420  0.3839
  709MOL0     C95619   3.369   9.054   4.094 -0.5918  0.1996 -0.3862
  709MOL0     C95620   3.485   8.992   4.007 -0.1292  0.6892  0.0393
  709MOL0     C95621   3.579   9.097   3.956  0.0983 -0.1277 -0.0275
  709MOL0     C95622   3.708   9.045   3.879  0.6897  0.7985 -0.4344
  709MOL0     C95623   3.789   9.160   3.832 -0.3990 -0.0045  0.1168
  709MOL0    Cl95624   3.953   9.086   3.790  0.1626  0.0707  0.0104
  709MOL0     C95625   2.737   8.866   4.093  0.0910  0.4356  0.9990
  709MOL0     C95626   2.615   8.804   4.103  0.2949  0.1389  0.4385
  709MOL0     O95627   2.399   8.766   4.357 -0.0889 -0.5154 -0.2576
  709MOL0     C95628   2.211   8.578   4.119  0.1312  0.6725  0.0028
  709MOL0     C95629   2.080   8.547   4.092 -0.2154  0.5357 -0.8587
  709MOL0     N95630   1.431   8.025   3.997  0.0005  0.4702  0.1791
  709MOL0     N95631   1.451   7.931   3.909  0.0249 -0.2787 -0.0570
  709MOL0     C95632   2.576   7.561   3.605  0.1219 -0.5566  0.7945
  709MOL0     C95633   2.676   7.546   3.513 -0.6631 -0.0843  0.1054
  709MOL0     C95634   2.960   7.354   3.170  0.9130 -0.7789 -0.3462
  709MOL0     C95635   3.059   7.443   3.215 -0.3288  0.7033  0.5372
  709MOL0     C95636   3.186   7.434   3.157  0.2025  0.1702  0.9537
  709MOL0     C95637   3.214   7.347   3.051  1.2209 -0.8526  0.5318
  709MOL0     O95638   3.332   7.365   2.983  0.3884  0.3798  0.0973
  709MOL0     C95639   3.360   7.282   2.866  1.0691  0.9268  0.7824
  709MOL0     C95640   3.503   7.329   2.823  0.4024  0.0650  0.5151
  709MOL0     C95641   3.485   7.435   2.724 -0.8363 -1.1441  0.1134
  709MOL0     C95642   3.619   7.524   2.718 -1.0059 -0.7312 -0.1924
  709MOL0     C95643   3.719   7.437   2.657 -0.1950 -0.6571 -0.4715
  709MOL0     C95644   3.796   7.368   2.594  0.3377  0.4209  0.1450
  709MOL0     C95645   3.113   7.251   3.021 -0.1753  1.1337 -0.0168
  709MOL0     C95646   2.987   7.249   3.082 -0.4913 -0.0150  0.7406
  709MOL0     C95647   2.900   7.130   3.042 -0.0167  0.8506 -0.4239
  709MOL0     H95648   2.661   7.227   3.428  3.8718  2.2210 -2.3905
  709MOL0     H95649   2.441   7.256   3.583 -0.8893  1.5400  1.0988
  709MOL0     H95650   2.385   7.498   3.923  1.3949  2.5510  1.6568
  709MOL0     H95651   2.498   7.593   3.848  0.6263 -2.3169  3.7304
  709MOL0     H95652   2.274   7.682   3.700 -0.7562  0.1070 -0.2065
  709MOL0     H95653   2.313   7.729   3.872  0.0309 -0.5116 -0.5298
  709MOL0     H95654   2.157   7.534   3.932 -1.0762 -0.6181 -0.7549
  709MOL0     H95655   2.113   7.525   3.765 -2.0016 -0.2460  0.7789
  709MOL0     H95656   2.050   7.733   3.970  2.1648 -0.0807  0.7252
  709MOL0     H95657   2.078   7.792   3.806  0.6493  0.4429  1.2856
  709MOL0     H95658   1.907   7.614   3.726  1.1390 -3.7347  3.0392
  709MOL0     H95659   1.870   7.606   3.895 -3.3351  2.8490  2.5395
  709MOL0     H95660   1.805   7.841   3.903 -1.5283 -1.1233  0.2842
  709MOL0     H95661   1.865   7.879   3.737  0.4133  0.7988  0.7771
  709MOL0     H95662   1.626   7.705   3.826 -1.8354  0.9589 -0.5715
  709MOL0     H95663   1.685   7.700   3.662  1.0187 -0.7097  0.8911
  709MOL0     H95664   1.655   7.958   3.647  3.4135 -1.4227  1.9235
  709MOL0     H95665   1.506   7.855   3.653  0.9161 -0.4274 -2.4697
  709MOL0     H95666   1.711   8.132   3.855 -1.1594  0.8879 -0.0127
  709MOL0     H95667   1.489   8.251   4.148  0.6960  0.9543  0.5195
  709MOL0     H95668   1.656   8.219   4.117  0.5635  0.5165 -1.5132
  709MOL0     H95669   1.649   8.345   3.904  0.4141 -4.0042  1.0468
  709MOL0     H95670   1.492   8.399   3.948 -0.2443 -1.3606  0.2122
  709MOL0     H95671   1.585   8.488   4.175 -2.0780 -2.6134 -1.0081
  709MOL0     H95672   1.627   8.588   4.034  0.0702 -0.0027 -0.9018
  709MOL0     H95673   1.834   8.468   3.995 -0.5709 -1.4425  0.2567
  709MOL0     H95674   1.813   8.376   4.144 -0.0574  0.5688  0.5781
  709MOL0     H95675   1.953   8.671   4.380  2.2111 -0.3008  1.5334
  709MOL0     H95676   2.181   8.686   4.436  3.0727  1.9292 -0.7754
  709MOL0     H95677   2.709   8.557   4.321 -1.7135  1.6185  0.8255
  709MOL0     H95678   2.908   8.670   4.319 -0.1346  1.7207  0.8018
  709MOL0     H95679   3.010   8.905   4.346 -0.0202 -0.5929 -0.1644
  709MOL0     H95680   3.098   8.784   4.268  1.4499  0.7699 -1.3927
  709MOL0     H95681   3.104   9.083   4.205 -2.5496 -2.0451  0.6773
  709MOL0     H95682   3.233   9.014   4.308  1.1163  1.6592 -0.2476
  709MOL0     H95683   3.306   8.858   4.155  1.1813  0.1794 -2.1379
  709MOL0     H95684   3.201   8.934   4.027 -0.7756  2.2020  0.7251
  709MOL0     H95685   3.414   9.093   4.186  2.0576 -0.9237 -1.1247
  709MOL0     H95686   3.315   9.127   4.033 -1.9610 -1.5423 -1.3221
  709MOL0     H95687   3.443   8.925   3.932  0.4219 -0.6185  0.8677
  709MOL0     H95688   3.539   8.916   4.065  0.5389  0.3114 -1.0506
  709MOL0     H95689   3.511   9.164   3.903 -1.1122 -1.8957 -0.7976
  709MOL0     H95690   3.615   9.153   4.043  2.5129 -0.2387 -0.8901
  709MOL0     H95691   3.681   8.983   3.793  1.8772 -0.6267  0.1814
  709MOL0     H95692   3.767   8.992   3.955  2.1080  1.4799 -1.0363
  709MOL0     H95693   3.749   9.206   3.742 -1.2754 -0.1748  0.4050
  709MOL0     H95694   3.807   9.229   3.915  0.1717  0.1257 -0.1112
  709MOL0     H95695   2.749   8.944   4.018  0.1465 -3.1344 -3.0749
  709MOL0     H95696   2.534   8.821   4.033  0.6513  1.4131  0.3125
  709MOL0     H95697   2.287   8.568   4.043 -1.7254  2.2028 -2.1866
  709MOL0     H95698   2.052   8.507   3.995 -1.7025 -0.9255  0.1124
  709MOL0     H95699   2.571   7.662   3.645 -2.2495  0.3887 -1.5709
  709MOL0     H95700   2.747   7.628   3.508 -2.1039  1.3844  2.0593
  709MOL0     H95701   3.026   7.518   3.286 -2.9924  1.4999 -1.3697
  709MOL0     H95702   3.263   7.503   3.190  2.6697 -2.2090  0.5607
  709MOL0     H95703   3.287   7.304   2.787  1.0458  0.5842  0.7085
  709MOL0     H95704   3.350   7.179   2.900 -2.1918  1.3783  1.5543
  709MOL0     H95705   3.544   7.251   2.758  2.8726  1.8955 -0.2647
  709MOL0     H95706   3.576   7.356   2.900  2.0525 -1.7573 -0.3285
  709MOL0     H95707   3.406   7.506   2.753  0.9955  1.5559 -1.0589
  709MOL0     H95708   3.448   7.396   2.628  1.0957  1.8862 -2.0653
  709MOL0     H95709   3.592   7.620   2.672 -5.3213 -1.1777  1.0436
  709MOL0     H95710   3.645   7.548   2.822 -1.6855  1.2854 -0.4407
  709MOL0     H95711   3.866   7.309   2.539 -0.3817  0.0264 -0.3557
  709MOL0     H95712   3.136   7.162   2.964  0.7471  0.1586  1.7902
  709MOL0     H95713   2.810   7.155   2.986 -0.9183 -0.8543  0.1627
  709MOL0     H95714   2.953   7.054   2.984  0.4220 -1.1463  2.3601
  709MOL0     H95715   2.864   7.087   3.136  2.1057  0.4392  0.2456
  710MOL0     O95716   7.011   8.958   3.933  0.1265 -0.1469 -0.2928
  710MOL0     C95717   7.099   9.003   3.857  0.0088  0.6687 -0.4260
  710MOL0     O95718   7.231   8.990   3.877 -0.1968 -0.3041  0.3433
  710MOL0     C95719   7.291   8.958   3.993 -0.3603 -0.3112 -0.6014
  710MOL0     C95720   7.413   8.889   3.981 -0.3194 -1.4001 -0.7763
  710MOL0     C95721   7.476   8.850   4.094 -0.0411 -0.6887  0.1951
  710MOL0     C95722   7.418   8.860   4.221 -0.0473  0.0924 -0.4715
  710MOL0     O95723   7.482   8.829   4.341  0.6714 -0.0785 -0.4798
  710MOL0     C95724   7.624   8.806   4.338 -0.0967 -0.1009  0.3003
  710MOL0     C95725   7.670   8.678   4.280 -0.9053  0.3294 -0.2908
  710MOL0     C95726   7.814   8.675   4.219 -0.0339  0.6903 -0.6933
  710MOL0     C95727   7.918   8.703   4.344  0.4520  0.6762  0.2781
  710MOL0     C95728   8.063   8.667   4.294 -0.5621  0.3406 -0.3569
  710MOL0     C95729   8.169   8.730   4.389  0.3356  0.4165 -0.4440
  710MOL0     C95730   8.161   8.674   4.532  0.3714  0.5299  0.4451
  710MOL0     C95731   8.223   8.534   4.536  0.1870 -0.5702  0.4221
  710MOL0     N95732   8.373   8.534   4.521 -0.3113 -0.0210  0.2751
  710MOL0     C95733   8.458   8.613   4.599 -0.4812 -0.3805 -0.6123
  710MOL0     C95734   8.575   8.606   4.530 -0.2176  0.4776 -0.5390
  710MOL0     C95735   8.700   8.662   4.576 -0.1508  0.3927 -0.0463
  710MOL0     C95736   8.787   8.716   4.461 -0.2415  0.3478  0.4409
  710MOL0     C95737   8.929   8.770   4.504  0.9168  0.7300  0.8486
  710MOL0     C95738   9.020   8.651   4.551  0.1825 -0.4426  0.1146
  710MOL0     O95739   9.054   8.562   4.444 -0.4923 -0.3691  0.1215
  710MOL0     C95740   9.183   8.578   4.390  0.0311  1.0802  0.7308
  710MOL0     C95741   9.245   8.705   4.363 -0.3229  0.1857 -0.1766
  710MOL0     C95742   9.361   8.713   4.285  0.6563 -0.2466 -0.4189
  710MOL0     C95743   9.427   8.594   4.245  0.8126  0.2064  0.3576
  710MOL0     C95744   9.555   8.596   4.165  1.1734 -0.4992 -0.3485
  710MOL0     O95745   9.605   8.481   4.111  0.0294 -0.6136  0.6578
  710MOL0     C95746   9.732   8.424   4.149  0.4788 -0.1986  0.4343
  710MOL0     C95747   9.758   8.289   4.111 -0.0475 -0.7061  0.5457
  710MOL0     C95748   9.874   8.230   4.161  0.4195 -0.2152 -0.7702
  710MOL0     C95749   9.950   8.295   4.256 -0.7693  0.0441 -0.8040
  710MOL0     O95750  10.044   8.228   4.320  0.3299  0.6883 -0.4334
  710MOL0     C95751  10.173   8.296   4.334  0.5498  0.2711  0.6546
  710MOL0     C95752  10.281   8.192   4.369  0.2268  0.7435 -0.8399
  710MOL0     C95753  10.243   8.106   4.498 -0.1104  0.2736 -0.2792
  710MOL0     C95754  10.346   7.998   4.530 -0.4740  0.8446 -0.1803
  710MOL0     C95755  10.322   7.927   4.665  0.1290 -0.8489 -0.1551
  710MOL0     C95756  10.167   7.921   4.713 -0.6879  0.0242  0.7664
  710MOL0     C95757  10.149   7.816   4.820  0.7773 -0.4475 -0.4582
  710MOL0     C95758  10.005   7.790   4.873  1.0005  0.0050  0.2608
  710MOL0    Cl95759   9.908   7.720   4.747 -0.5956 -0.4817 -0.3367
  710MOL0     C95760   9.929   8.431   4.290  0.6586  0.2112  0.1556
  710MOL0     C95761   9.815   8.498   4.249  0.1156  0.1239  0.3750
  710MOL0     O95762   9.607   8.708   4.156  0.2144 -0.3273 -0.9811
  710MOL0     C95763   9.370   8.468   4.282 -0.4796  0.3350  0.5381
  710MOL0     C95764   9.242   8.457   4.345  0.3002  0.1268 -0.6837
  710MOL0     N95765   8.558   8.536   4.409 -0.3465  0.3472 -0.5303
  710MOL0     N95766   8.437   8.489   4.409 -0.8530 -0.7356 -0.3865
  710MOL0     C95767   7.294   8.924   4.233  0.8978 -0.7133 -0.4244
  710MOL0     C95768   7.231   8.974   4.119 -0.1655 -0.4193 -0.5213
  710MOL0     C95769   7.044   9.057   3.736  0.6277  0.3932  0.4214
  710MOL0     C95770   6.914   9.125   3.748 -0.1116  0.4643 -0.1237
  710MOL0     C95771   6.863   9.194   3.633 -0.6273 -0.3858 -0.6113
  710MOL0     C95772   6.941   9.207   3.519  0.3447 -0.1827 -0.3303
  710MOL0     O95773   6.902   9.273   3.405 -0.4397 -0.0071  0.1236
  710MOL0     C95774   6.785   9.346   3.399 -0.3006  0.1097 -0.4572
  710MOL0     C95775   6.666   9.275   3.344 -0.8514 -0.1169 -0.6891
  710MOL0     C95776   6.558   9.369   3.289 -0.0185  0.7306  0.2219
  710MOL0     C95777   6.470   9.317   3.176  0.7960 -0.0937 -1.1907
  710MOL0     C95778   6.344   9.393   3.168 -0.3300 -0.3158  0.0763
  710MOL0     C95779   6.251   9.466   3.161 -0.0470 -0.0097  0.2925
  710MOL0     C95780   7.060   9.132   3.505  0.1158 -0.0509  0.4969
  710MOL0     C95781   7.111   9.057   3.614 -0.3538  0.9758 -0.6007
  710MOL0     C95782   7.247   8.987   3.587  0.1776  0.5807  0.5648
  710MOL0     H95783   7.449   8.884   3.879  1.4646  0.3063 -0.2967
  710MOL0     H95784   7.577   8.813   4.076  0.1951 -0.3207  0.7522
  710MOL0     H95785   7.679   8.891   4.294 -1.8370  1.4890  1.0610
  710MOL0     H95786   7.641   8.808   4.446 -1.9036  1.5109  0.6082
  710MOL0     H95787   7.606   8.652   4.195 -1.9946  3.3845 -0.5396
  710MOL0     H95788   7.654   8.596   4.350  1.4355 -0.2363 -0.3524
  710MOL0     H95789   7.827   8.759   4.151 -1.8967  0.5137 -1.3203
  710MOL0     H95790   7.832   8.578   4.172  1.9727  0.7639 -0.2021
  710MOL0     H95791   7.890   8.800   4.386 -0.7232  0.4370  0.0993
  710MOL0     H95792   7.895   8.631   4.423  1.5272 -0.7427 -0.6587
  710MOL0     H95793   8.086   8.562   4.272 -1.3316 -1.0340  4.3717
  710MOL0     H95794   8.081   8.728   4.205 -2.1225  0.5573 -0.5517
  710MOL0     H95795   8.270   8.720   4.347  0.4683  0.6217 -0.1769
  710MOL0     H95796   8.144   8.836   4.396 -0.5012  0.1232  1.6381
  710MOL0     H95797   8.055   8.666   4.559 -0.1232  0.7445 -1.3010
  710MOL0     H95798   8.200   8.733   4.615  0.8145 -0.8871  1.2809
  710MOL0     H95799   8.204   8.503   4.640 -0.9097 -0.6715  0.2052
  710MOL0     H95800   8.176   8.472   4.459  0.5871  0.4832 -0.6968
  710MOL0     H95801   8.430   8.670   4.686  1.3957 -1.7339  0.9750
  710MOL0     H95802   8.677   8.736   4.653 -0.2512  0.5705 -0.2463
  710MOL0     H95803   8.762   8.582   4.618 -0.0927 -1.1067 -2.7412
  710MOL0     H95804   8.808   8.640   4.385 -0.1238  2.0497 -1.3154
  710MOL0     H95805   8.734   8.793   4.405 -1.0337  0.4355  1.2852
  710MOL0     H95806   8.933   8.846   4.583 -1.3398 -0.6881  2.4665
  710MOL0     H95807   8.984   8.816   4.421  1.1925 -0.1743  0.5183
  710MOL0     H95808   8.975   8.598   4.635 -2.2292  1.8570  0.4188
  710MOL0     H95809   9.108   8.690   4.603  0.4122 -0.8939  0.0721
  710MOL0     H95810   9.201   8.796   4.404 -0.9121 -0.1082 -0.1481
  710MOL0     H95811   9.407   8.810   4.269 -0.0188 -0.1638 -2.1374
  710MOL0     H95812   9.696   8.243   4.035  0.2646  1.8861 -1.4236
  710MOL0     H95813   9.891   8.126   4.136 -0.8921 -0.6058 -0.0855
  710MOL0     H95814  10.198   8.342   4.238 -0.6491 -1.6553 -0.6665
  710MOL0     H95815  10.175   8.368   4.416 -0.8086  3.1362 -1.6331
  710MOL0     H95816  10.301   8.124   4.285  1.5590 -2.0042  1.5222
  710MOL0     H95817  10.371   8.248   4.396  0.7209 -0.9669  1.3637
  710MOL0     H95818  10.232   8.168   4.587 -4.1643 -0.0317 -0.3469
  710MOL0     H95819  10.148   8.059   4.471  0.7601 -1.0328 -1.1989
  710MOL0     H95820  10.444   8.046   4.547  0.8418 -1.1138 -1.7894
  710MOL0     H95821  10.360   7.929   4.447  3.8657  0.9232  0.2373
  710MOL0     H95822  10.387   7.976   4.739  2.6352  0.4700 -3.0212
  710MOL0     H95823  10.367   7.828   4.662  1.0289 -0.4501 -2.8856
  710MOL0     H95824  10.139   8.020   4.749 -0.3454  0.2971  0.3012
  710MOL0     H95825  10.106   7.897   4.625 -0.6170  3.4461 -0.3564
  710MOL0     H95826  10.205   7.834   4.913  0.7834 -0.2194 -0.5067
  710MOL0     H95827  10.192   7.726   4.775 -0.2874 -0.4360 -1.5272
  710MOL0     H95828  10.011   7.725   4.961  0.0150  1.4575  1.4394
  710MOL0     H95829   9.957   7.881   4.908  1.5860  0.7768 -0.8752
  710MOL0     H95830   9.997   8.476   4.362  1.3145  2.8402 -1.9647
  710MOL0     H95831   9.794   8.601   4.272 -0.6233  0.1330 -0.3117
  710MOL0     H95832   9.422   8.376   4.259  1.5963  0.6874  3.2318
  710MOL0     H95833   9.194   8.363   4.368  1.6228 -0.1245  1.2630
  710MOL0     H95834   7.245   8.942   4.329  3.1562  1.0072  0.5016
  710MOL0     H95835   7.134   9.022   4.133  0.1920 -0.4512  3.0954
  710MOL0     H95836   6.860   9.121   3.842  1.2566 -0.5279  0.6511
  710MOL0     H95837   6.760   9.227   3.646 -0.4492 -0.6262  2.2330
  710MOL0     H95838   6.810   9.427   3.329  0.8832 -0.8571 -1.2093
  710MOL0     H95839   6.742   9.396   3.486 -2.6983  1.7601 -2.4311
  710MOL0     H95840   6.625   9.217   3.427 -0.5382  1.3675  0.5438
  710MOL0     H95841   6.692   9.199   3.270 -0.1231 -2.1149  1.4783
  710MOL0     H95842   6.598   9.464   3.253  1.0686  0.2598  0.1394
  710MOL0     H95843   6.494   9.396   3.373  0.4855  3.0126 -0.0758
  710MOL0     H95844   6.523   9.325   3.081 -0.5543 -0.5418 -2.0070
  710MOL0     H95845   6.430   9.219   3.204 -6.3972  2.8716  1.2904
  710MOL0     H95846   6.164   9.528   3.153 -0.1555 -0.2382 -0.3673
  710MOL0     H95847   7.104   9.151   3.408 -1.8727 -0.0767 -0.4808
  710MOL0     H95848   7.246   8.878   3.601  0.8299  0.5950  0.7322
  710MOL0     H95849   7.281   8.992   3.483 -1.4483  2.4111  0.0459
  710MOL0     H95850   7.323   9.037   3.648 -0.0378  3.2709 -1.1937
  711MOL0     O95851   3.377   6.143   6.946 -0.4700 -0.0670 -0.0401
  711MOL0     C95852   3.335   6.064   7.034  0.0815  0.7583  0.3242
  711MOL0     O95853   3.411   6.006   7.134 -0.4477 -0.0528 -0.2629
  711MOL0     C95854   3.546   6.016   7.123 -0.3009  0.5596  0.1787
  711MOL0     C95855   3.613   5.952   7.015  0.2944 -0.1485 -0.3666
  711MOL0     C95856   3.750   5.975   6.997 -0.5398  0.5167 -0.1671
  711MOL0     C95857   3.821   6.052   7.093  0.3431 -0.0779  0.3976
  711MOL0     O95858   3.951   6.066   7.069 -0.1956  0.5973 -0.5284
  711MOL0     C95859   4.037   6.062   7.182 -0.2200 -0.6235 -0.3329
  711MOL0     C95860   4.184   6.014   7.157 -0.1011 -0.3970  0.5199
  711MOL0     C95861   4.256   5.965   7.282  0.2569  0.4257 -0.0132
  711MOL0     C95862   4.386   5.889   7.266 -0.6335 -0.4525 -0.4541
  711MOL0     C95863   4.508   5.969   7.215  0.1856 -0.2657  0.2815
  711MOL0     C95864   4.634   5.875   7.207  0.2901  0.3424  0.3961
  711MOL0     C95865   4.702   5.844   7.343  0.2070 -0.1306 -0.6278
  711MOL0     C95866   4.816   5.749   7.332  0.2178 -0.0801  0.9780
  711MOL0     N95867   4.930   5.803   7.254  0.2796 -0.7121 -0.0224
  711MOL0     C95868   5.022   5.872   7.318  0.2418  0.9643  0.2848
  711MOL0     C95869   5.103   5.908   7.215  0.1256  0.3208  0.6653
  711MOL0     C95870   5.217   6.003   7.225 -0.1840 -0.0946 -0.5573
  711MOL0     C95871   5.328   5.985   7.332  0.2937  0.3226 -0.1136
  711MOL0     C95872   5.401   5.847   7.315 -0.7586 -0.5800 -0.2588
  711MOL0     C95873   5.559   5.872   7.327 -0.2192 -0.3107  0.1548
  711MOL0     O95874   5.609   5.926   7.205  0.4369  0.5878 -0.7864
  711MOL0     C95875   5.743   5.959   7.194  0.4840  0.1185  0.3167
  711MOL0     C95876   5.781   6.030   7.088 -1.2205  0.0152  0.0511
  711MOL0     C95877   5.916   6.075   7.070 -0.6301  0.9004  0.4501
  711MOL0     C95878   6.019   6.043   7.171  0.5279 -1.2227 -0.6058
  711MOL0     C95879   6.155   6.085   7.167 -0.6594 -0.7505  0.0440
  711MOL0     O95880   6.234   6.044   7.270  0.0479 -0.2488 -0.1239
  711MOL0     C95881   6.368   6.065   7.264 -0.4126 -0.1358  0.2916
  711MOL0     C95882   6.454   5.958   7.212  0.4879 -0.6944 -0.2995
  711MOL0     C95883   6.593   5.977   7.202  0.5977  0.7745  0.8385
  711MOL0     C95884   6.656   6.101   7.235  0.4545 -0.5298  0.2624
  711MOL0     O95885   6.796   6.119   7.214  0.5285  0.0715 -0.8228
  711MOL0     C95886   6.871   5.999   7.215 -0.0971 -0.2414 -0.2417
  711MOL0     C95887   7.005   6.045   7.265  0.6363  0.7153  0.8733
  711MOL0     C95888   7.110   5.934   7.250 -0.3521  0.5831  0.9941
  711MOL0     C95889   7.072   5.784   7.272  0.2638 -0.3742 -0.1224
  711MOL0     C95890   7.180   5.716   7.344 -0.2112 -0.0844 -0.2610
  711MOL0     C95891   7.133   5.575   7.392  0.8073  0.0061  0.0473
  711MOL0     C95892   7.247   5.490   7.453 -0.2501  0.3699 -0.2133
  711MOL0     C95893   7.281   5.517   7.599  0.0087  0.4257 -0.4985
  711MOL0    Cl95894   7.366   5.664   7.625  0.1048  0.1573 -0.6284
  711MOL0     C95895   6.573   6.209   7.281 -0.5073  0.5178  1.4563
  711MOL0     C95896   6.434   6.186   7.294  0.6735  0.6780 -0.3240
  711MOL0     O95897   6.195   6.143   7.068 -0.0469  0.2384  0.2629
  711MOL0     C95898   5.973   5.971   7.280  0.6050 -0.0218 -0.1615
  711MOL0     C95899   5.841   5.929   7.297  0.3980  0.3204 -0.3060
  711MOL0     N95900   5.064   5.845   7.096  0.8553 -0.5682  0.3624
  711MOL0     N95901   4.965   5.761   7.123 -0.8459 -0.4084 -0.2438
  711MOL0     C95902   3.755   6.108   7.201  0.1541  0.2663  0.0955
  711MOL0     C95903   3.614   6.091   7.220 -0.0838 -0.1169  0.5826
  711MOL0     C95904   3.186   6.028   7.042 -0.7607 -0.1882 -0.1673
  711MOL0     C95905   3.139   6.013   7.171  0.7384 -0.0879 -0.4214
  711MOL0     C95906   3.007   5.974   7.201  0.4433 -0.1016 -0.1129
  711MOL0     C95907   2.912   5.963   7.096 -0.3423  0.2940 -0.0731
  711MOL0     O95908   2.781   5.931   7.116 -0.1766  0.0438 -0.0709
  711MOL0     C95909   2.762   5.807   7.181  0.1562  0.3988 -0.1347
  711MOL0     C95910   2.646   5.737   7.112 -0.1924  0.3764 -0.4122
  711MOL0     C95911   2.629   5.760   6.961 -0.3524 -0.2898 -0.1044
  711MOL0     C95912   2.550   5.643   6.894  0.3989 -0.7471  0.6038
  711MOL0     C95913   2.573   5.662   6.746  0.1820  0.4378 -0.4964
  711MOL0     C95914   2.581   5.664   6.625  0.7416  0.2131 -0.0828
  711MOL0     C95915   2.963   5.987   6.968  0.2612  0.1347 -0.1364
  711MOL0     C95916   3.096   6.016   6.932 -0.0393  0.2957 -0.0414
  711MOL0     C95917   3.125   6.030   6.782 -0.9896  0.4434 -0.6849
  711MOL0     H95918   3.555   5.890   6.947  1.1690  0.9534 -2.2035
  711MOL0     H95919   3.809   5.929   6.918 -0.1068  0.1385  0.3613
  711MOL0     H95920   4.030   6.155   7.239 -0.2669 -1.8040  1.6936
  711MOL0     H95921   4.008   5.975   7.242  3.1180 -3.8270 -2.7908
  711MOL0     H95922   4.249   6.080   7.098 -1.1202 -0.7621 -1.0923
  711MOL0     H95923   4.167   5.925   7.095 -1.4335  1.4106 -1.8901
  711MOL0     H95924   4.182   5.908   7.340 -0.4612  0.2917 -1.0330
  711MOL0     H95925   4.285   6.049   7.346 -0.7957 -0.0817  1.1805
  711MOL0     H95926   4.408   5.867   7.371 -1.5771  0.8712  0.0636
  711MOL0     H95927   4.375   5.798   7.207 -1.8570 -0.5604 -0.0907
  711MOL0     H95928   4.477   6.013   7.120  0.3919 -0.8194 -0.0444
  711MOL0     H95929   4.532   6.055   7.278 -2.7945  1.7754 -1.1196
  711MOL0     H95930   4.601   5.784   7.155 -1.4072  1.6679 -0.9313
  711MOL0     H95931   4.703   5.927   7.139 -1.7030  1.5198 -0.8278
  711MOL0     H95932   4.628   5.805   7.414 -0.0630 -2.1772 -1.9459
  711MOL0     H95933   4.742   5.941   7.374  0.8403 -0.7927  0.7030
  711MOL0     H95934   4.851   5.716   7.431 -1.5306  2.0686  2.3993
  711MOL0     H95935   4.783   5.655   7.287  2.7056 -0.6043  0.0685
  711MOL0     H95936   5.018   5.912   7.419  1.3409 -0.6591  1.0124
  711MOL0     H95937   5.269   5.988   7.130 -0.7001  2.6180 -1.3822
  711MOL0     H95938   5.184   6.107   7.231  3.2501  1.0653  1.3058
  711MOL0     H95939   5.410   6.058   7.328 -0.0499  1.0274  3.0504
  711MOL0     H95940   5.277   5.994   7.428  1.0081  1.6497  0.1681
  711MOL0     H95941   5.372   5.802   7.219  1.8116 -2.8354 -0.0815
  711MOL0     H95942   5.373   5.771   7.388  0.1958 -0.8556 -0.1788
  711MOL0     H95943   5.612   5.778   7.344  2.4723  1.0363 -0.1698
  711MOL0     H95944   5.579   5.942   7.409  0.9451 -1.4209  0.8558
  711MOL0     H95945   5.712   6.043   7.006  0.7209  2.5064 -1.3330
  711MOL0     H95946   5.934   6.122   6.974  0.9820  1.4219  0.9610
  711MOL0     H95947   6.391   5.879   7.172 -1.8252 -1.2649  3.8555
  711MOL0     H95948   6.653   5.900   7.156 -1.3839  0.0797 -0.7069
  711MOL0     H95949   6.824   5.935   7.290  0.5885  1.6652  1.9463
  711MOL0     H95950   6.880   5.952   7.117  3.6151  0.2774 -0.2736
  711MOL0     H95951   7.033   6.135   7.210  1.2594  1.6959  2.6834
  711MOL0     H95952   6.997   6.091   7.364 -0.9731  0.7925  0.7306
  711MOL0     H95953   7.150   5.941   7.148  1.5268  0.6656  1.7001
  711MOL0     H95954   7.201   5.953   7.308 -0.4769 -1.1997  1.8645
  711MOL0     H95955   7.043   5.730   7.182 -1.5089  0.3268 -0.0172
  711MOL0     H95956   6.982   5.788   7.334 -0.6568 -0.5788 -1.4072
  711MOL0     H95957   7.219   5.772   7.430  0.1953 -1.5840  0.5562
  711MOL0     H95958   7.258   5.700   7.268  1.2023 -1.3560  1.3675
  711MOL0     H95959   7.056   5.585   7.469 -0.3250  0.8501 -1.1342
  711MOL0     H95960   7.094   5.522   7.304 -2.9326 -0.4090  1.7411
  711MOL0     H95961   7.340   5.513   7.399  0.1661  1.0724  0.7778
  711MOL0     H95962   7.219   5.384   7.451  3.4936 -0.9215  2.7176
  711MOL0     H95963   7.190   5.511   7.660 -0.2297 -0.1339 -0.8941
  711MOL0     H95964   7.346   5.435   7.633  0.4731  0.9520 -0.0934
  711MOL0     H95965   6.619   6.305   7.303  0.4541  0.2523  0.6928
  711MOL0     H95966   6.366   6.264   7.326 -0.3794 -1.5268  3.4891
  711MOL0     H95967   6.045   5.949   7.358 -1.1342 -2.1279  0.9724
  711MOL0     H95968   5.812   5.884   7.391 -0.1247 -0.3181 -0.7566
  711MOL0     H95969   3.806   6.157   7.283 -0.8728  0.6727  0.5155
  711MOL0     H95970   3.560   6.135   7.303  0.1494  1.1171  0.1035
  711MOL0     H95971   3.203   6.044   7.254  0.1673 -1.1236  0.4400
  711MOL0     H95972   2.971   5.951   7.301 -0.4077 -2.9805 -0.9818
  711MOL0     H95973   2.739   5.822   7.288 -1.7941 -1.9682 -0.1487
  711MOL0     H95974   2.856   5.752   7.173 -0.6010 -0.6291 -2.8050
  711MOL0     H95975   2.562   5.784   7.165 -0.3912  1.0522 -1.2989
  711MOL0     H95976   2.651   5.629   7.125 -0.3364  0.4097 -0.0769
  711MOL0     H95977   2.717   5.787   6.903  1.2078  0.1782  2.3403
  711MOL0     H95978   2.556   5.839   6.941  1.3852  1.0055 -1.5849
  711MOL0     H95979   2.597   5.546   6.914 -0.2142 -1.4225 -1.0746
  711MOL0     H95980   2.445   5.647   6.923 -0.1826  0.5509 -1.5150
  711MOL0     H95981   2.602   5.674   6.520  1.5445  2.6149  0.2590
  711MOL0     H95982   2.890   5.992   6.888  0.4060 -0.0974 -0.2852
  711MOL0     H95983   3.047   5.986   6.719  0.8309 -1.8504 -1.4828
  711MOL0     H95984   3.149   6.131   6.748 -3.5654  1.2499 -0.3180
  711MOL0     H95985   3.214   5.968   6.776 -0.9898  0.0722  2.1578
  712MOL0     O95986   0.129   4.918   7.298  0.5776 -0.3359 -0.3588
  712MOL0     C95987   0.080   4.817   7.349  0.9466 -0.1276  0.5110
  712MOL0     O95988   0.140   4.690   7.338 -1.0631  0.1548  0.2342
  712MOL0     C95989   0.261   4.675   7.275  0.5668  0.0697 -0.3254
  712MOL0     C95990   0.269   4.684   7.137  0.2642  0.2654 -0.4149
  712MOL0     C95991   0.396   4.648   7.081  0.7951 -0.6079  0.4172
  712MOL0     C95992   0.509   4.625   7.158 -0.5008  0.0392 -0.3388
  712MOL0     O95993   0.630   4.589   7.106 -0.8284 -0.2312  0.3464
  712MOL0     C95994   0.632   4.576   6.960 -0.0759 -0.0919 -0.3990
  712MOL0     C95995   0.767   4.534   6.908  0.2978 -0.8545 -0.2550
  712MOL0     C95996   0.822   4.413   6.979 -0.6325 -0.2757 -1.1842
  712MOL0     C95997   0.774   4.278   6.920  0.3493  0.2499 -0.2076
  712MOL0     C95998   0.832   4.175   7.020  0.0930 -1.1323 -0.2010
  712MOL0     C95999   0.756   4.036   6.991  0.4809 -0.1909 -0.5120
  712MOL0     C96000   0.816   3.931   7.067 -1.2024 -0.3860  0.1830
  712MOL0     C96001   0.731   3.807   7.059  0.2419  0.6830 -0.3469
  712MOL0     N96002   0.809   3.685   7.042  0.8482 -0.5455 -1.0025
  712MOL0     C96003   0.837   3.635   6.919  0.6306 -0.6616 -0.2711
  712MOL0     C96004   0.908   3.520   6.946  1.2451 -0.5073 -0.3480
  712MOL0     C96005   0.971   3.427   6.841  0.6009  0.1592 -1.3059
  712MOL0     C96006   1.122   3.410   6.857 -0.1404 -0.2754  0.0519
  712MOL0     C96007   1.159   3.318   6.979  0.7244 -0.1663  0.1815
  712MOL0     C96008   1.085   3.180   6.985 -0.2606 -0.2081 -0.1724
  712MOL0     O96009   1.067   3.105   6.861 -0.0778 -0.1646 -0.2446
  712MOL0     C96010   1.181   3.056   6.798  1.0698  0.6160  0.2396
  712MOL0     C96011   1.288   2.992   6.859  0.0180 -0.4254 -0.2820
  712MOL0     C96012   1.395   2.940   6.782  0.6620  0.7553  0.5874
  712MOL0     C96013   1.406   2.957   6.645  0.1749  0.5542 -0.6762
  712MOL0     C96014   1.522   2.895   6.561 -0.1474  0.4673 -0.1446
  712MOL0     O96015   1.594   2.795   6.622 -0.0349  0.3947  0.3144
  712MOL0     C96016   1.714   2.771   6.557 -0.4399  1.1548  0.0575
  712MOL0     C96017   1.721   2.729   6.424 -1.1618  1.1450  0.7282
  712MOL0     C96018   1.841   2.701   6.359  0.2659  0.0158  0.8817
  712MOL0     C96019   1.957   2.705   6.449  0.3165  0.0145  0.3932
  712MOL0     O96020   2.084   2.678   6.401 -0.4452  0.4625  0.5142
  712MOL0     C96021   2.104   2.601   6.282 -0.1953 -0.9311  0.6062
  712MOL0     C96022   2.116   2.692   6.159  0.5603 -0.5448 -0.2768
  712MOL0     C96023   2.182   2.623   6.041  0.0675  0.1325 -0.0071
  712MOL0     C96024   2.338   2.603   6.034 -0.5762  0.4249  0.1559
  712MOL0     C96025   2.386   2.547   5.901 -0.5224 -0.1297 -0.1031
  712MOL0     C96026   2.537   2.552   5.898 -0.7194  0.0751 -0.3439
  712MOL0     C96027   2.585   2.489   5.765  0.0710 -0.1813 -0.7696
  712MOL0     C96028   2.736   2.495   5.751 -0.2704  0.6993 -0.5838
  712MOL0    Cl96029   2.820   2.446   5.905  0.4315  0.2026  0.3910
  712MOL0     C96030   1.949   2.732   6.588 -0.5319 -0.7251 -0.0325
  712MOL0     C96031   1.821   2.769   6.641  0.0958  0.9198 -0.3798
  712MOL0     O96032   1.539   2.942   6.447 -0.1839 -0.0783  0.6988
  712MOL0     C96033   1.303   3.026   6.581  0.1109 -0.3182 -0.4364
  712MOL0     C96034   1.186   3.065   6.659 -0.5919  0.8149  0.2003
  712MOL0     N96035   0.918   3.500   7.085 -0.0182 -0.0985 -0.1882
  712MOL0     N96036   0.878   3.615   7.139  0.1020  0.2879  0.4459
  712MOL0     C96037   0.501   4.621   7.298  0.0892 -0.8545 -0.0550
  712MOL0     C96038   0.382   4.650   7.356  0.2013  0.0966  0.4550
  712MOL0     C96039  -0.044   4.828   7.429 -0.8322  0.3300  0.2672
  712MOL0     C96040  -0.069   4.727   7.526 -0.3998  0.3301 -0.0092
  712MOL0     C96041  -0.178   4.741   7.610 -0.9028 -0.2371  0.1897
  712MOL0     C96042  -0.268   4.845   7.597 -0.6381 -0.2925  0.1985
  712MOL0     O96043  -0.370   4.849   7.695 -0.3806 -1.1476 -0.4794
  712MOL0     C96044  -0.478   4.946   7.682  0.4082 -0.1508  0.2933
  712MOL0     C96045  -0.603   4.886   7.745  0.4422  0.3673  0.0097
  712MOL0     C96046  -0.686   4.995   7.808 -0.8153 -0.1931  0.3796
  712MOL0     C96047  -0.808   4.925   7.868 -0.1876 -0.0854 -0.5408
  712MOL0     C96048  -0.915   4.915   7.771  0.0084  0.4577 -0.9346
  712MOL0     C96049  -1.000   4.906   7.691  0.1970  0.3430 -0.4588
  712MOL0     C96050  -0.232   4.952   7.515 -0.6758 -0.5331 -0.1963
  712MOL0     C96051  -0.130   4.937   7.423  0.3531  0.1187  0.2213
  712MOL0     C96052  -0.105   5.056   7.330 -0.0772 -0.0411 -0.0100
  712MOL0     H96053   0.183   4.710   7.075 -0.5974  0.3857  0.7801
  712MOL0     H96054   0.396   4.648   6.973 -2.6966 -1.2973  0.3196
  712MOL0     H96055   0.558   4.501   6.928 -1.2316 -0.2411  2.3432
  712MOL0     H96056   0.605   4.672   6.916 -1.9668  0.0502  0.9579
  712MOL0     H96057   0.837   4.617   6.916 -1.0108  0.2839 -0.1831
  712MOL0     H96058   0.761   4.511   6.801  1.2564 -1.5641 -0.1689
  712MOL0     H96059   0.797   4.409   7.085  1.8041 -1.6122 -0.5787
  712MOL0     H96060   0.931   4.422   6.982 -0.4496 -1.6463  3.0850
  712MOL0     H96061   0.667   4.258   6.927  0.9152 -3.6714 -0.4360
  712MOL0     H96062   0.820   4.259   6.823 -0.3318  2.0407 -0.9230
  712MOL0     H96063   0.940   4.167   7.004  0.7923  2.1540  1.8787
  712MOL0     H96064   0.821   4.208   7.124  0.8355  0.6674 -0.6533
  712MOL0     H96065   0.649   4.043   7.017  1.1009  2.3139  1.8648
  712MOL0     H96066   0.762   4.012   6.884  0.6598 -0.1241 -0.5159
  712MOL0     H96067   0.830   3.979   7.165 -0.7036  2.7633 -1.3105
  712MOL0     H96068   0.908   3.903   7.015 -1.2981  0.6050 -0.5377
  712MOL0     H96069   0.661   3.792   7.142  1.8363 -2.7116  0.5434
  712MOL0     H96070   0.668   3.821   6.971  0.9858  0.1975 -0.9642
  712MOL0     H96071   0.823   3.681   6.821 -0.3413  0.3274  0.3027
  712MOL0     H96072   0.937   3.325   6.862  2.4625 -0.1316  0.6598
  712MOL0     H96073   0.936   3.454   6.741 -0.4544  0.3621 -0.8988
  712MOL0     H96074   1.154   3.351   6.770 -0.0531 -2.5809  1.5639
  712MOL0     H96075   1.180   3.502   6.858 -1.8260  0.8192  0.0925
  712MOL0     H96076   1.148   3.365   7.077 -0.6379 -0.5071  0.2193
  712MOL0     H96077   1.264   3.292   6.969  1.3310  1.7400  1.2511
  712MOL0     H96078   0.984   3.198   7.023 -0.0942 -0.9606  0.6600
  712MOL0     H96079   1.142   3.112   7.050 -0.0179 -1.5448 -1.7285
  712MOL0     H96080   1.301   2.973   6.965 -0.0671  0.7656 -0.0365
  712MOL0     H96081   1.470   2.874   6.826 -0.2803 -2.2524 -1.9170
  712MOL0     H96082   1.630   2.724   6.365 -0.1021  0.7404 -0.9292
  712MOL0     H96083   1.837   2.682   6.252 -1.5003  1.9903  0.5328
  712MOL0     H96084   2.204   2.556   6.286  0.4788  0.5610  2.8903
  712MOL0     H96085   2.034   2.517   6.274  0.4427 -1.9752  4.1327
  712MOL0     H96086   2.018   2.730   6.130  0.4463  0.3769  1.2048
  712MOL0     H96087   2.181   2.774   6.191 -0.6034 -0.9011  3.4218
  712MOL0     H96088   2.149   2.519   6.034  2.3721 -0.7923  1.6046
  712MOL0     H96089   2.140   2.681   5.959 -0.4537  0.2621  0.3499
  712MOL0     H96090   2.372   2.528   6.107 -0.5993 -1.2139 -1.4562
  712MOL0     H96091   2.378   2.704   6.047 -1.8130  1.3908 -2.7713
  712MOL0     H96092   2.354   2.615   5.822  2.6004 -0.6755 -2.0284
  712MOL0     H96093   2.339   2.451   5.878 -0.5386  0.3985 -2.5425
  712MOL0     H96094   2.572   2.655   5.889  2.0070 -0.9616 -4.9474
  712MOL0     H96095   2.577   2.505   5.989 -0.1401  1.6419  0.2473
  712MOL0     H96096   2.531   2.538   5.684 -1.2653 -0.8916 -0.3238
  712MOL0     H96097   2.551   2.386   5.754 -2.1910  0.0442  2.5767
  712MOL0     H96098   2.777   2.420   5.683  0.4104 -0.0800  0.6560
  712MOL0     H96099   2.774   2.596   5.733  2.0018  0.1254  0.6319
  712MOL0     H96100   2.043   2.736   6.642  0.4313  4.0970 -1.5461
  712MOL0     H96101   1.814   2.798   6.745  2.4575  2.3873 -0.5582
  712MOL0     H96102   1.301   3.042   6.473 -0.0714  1.1470 -0.2455
  712MOL0     H96103   1.099   3.112   6.614  0.1158  2.9895  0.9498
  712MOL0     H96104   0.588   4.594   7.358 -0.5077 -2.0886  0.2908
  712MOL0     H96105   0.373   4.645   7.464  0.3764  1.6710  0.5693
  712MOL0     H96106  -0.009   4.637   7.529  0.7590  0.8347 -3.6319
  712MOL0     H96107  -0.192   4.660   7.681  2.2528 -1.0124  0.0721
  712MOL0     H96108  -0.492   4.974   7.577  0.6650  0.8835  0.5193
  712MOL0     H96109  -0.443   5.039   7.728  2.5923 -0.1250 -1.2576
  712MOL0     H96110  -0.589   4.813   7.824  0.2923 -0.3557 -0.6166
  712MOL0     H96111  -0.667   4.842   7.667  0.6154 -0.7333  0.4740
  712MOL0     H96112  -0.721   5.059   7.726 -0.4674  1.1843  1.2666
  712MOL0     H96113  -0.621   5.047   7.879 -0.9237  0.7024 -0.1516
  712MOL0     H96114  -0.785   4.829   7.916 -1.1302  0.6550  1.5534
  712MOL0     H96115  -0.839   4.990   7.951  0.3274  0.5890 -0.8689
  712MOL0     H96116  -1.070   4.893   7.611 -0.3124  0.8615 -0.0997
  712MOL0     H96117  -0.284   5.045   7.534  0.5570 -0.2439  2.2886
  712MOL0     H96118  -0.088   5.026   7.226 -2.2384  0.7001 -0.6489
  712MOL0     H96119  -0.184   5.132   7.337 -1.7898 -1.7497 -0.0847
  712MOL0     H96120  -0.020   5.110   7.372  0.4195  1.4209 -2.6345
  713MOL0     O96121   4.682  11.023   2.902  0.5469 -0.9568  0.2864
  713MOL0     C96122   4.609  11.034   3.002  0.4522  1.1101 -0.0526
  713MOL0     O96123   4.636  10.974   3.120  0.8447 -0.2686 -0.2052
  713MOL0     C96124   4.757  10.918   3.139  0.0741 -0.4974 -0.5172
  713MOL0     C96125   4.850  10.989   3.219  0.1608  0.4288  0.2772
  713MOL0     C96126   4.976  10.955   3.228 -0.5530  0.3597 -1.4338
  713MOL0     C96127   5.026  10.841   3.170 -0.4074 -0.1456  0.9142
  713MOL0     O96128   5.158  10.810   3.196 -0.5747 -0.1183  0.5614
  713MOL0     C96129   5.203  10.689   3.146  0.3305  0.4120  1.0622
  713MOL0     C96130   5.349  10.654   3.194 -0.6333 -0.2298 -0.4593
  713MOL0     C96131   5.358  10.638   3.343  0.1020 -0.1908 -0.2884
  713MOL0     C96132   5.500  10.617   3.379 -0.5383 -0.4546 -0.1204
  713MOL0     C96133   5.587  10.738   3.379 -0.1059 -0.1892  0.5389
  713MOL0     C96134   5.742  10.693   3.383  0.0066 -0.6259  0.2246
  713MOL0     C96135   5.795  10.606   3.493 -0.5300  0.2278 -0.0183
  713MOL0     C96136   5.773  10.656   3.628  0.7692 -0.4544 -0.0703
  713MOL0     N96137   5.880  10.596   3.703  0.4936  0.1731 -0.2143
  713MOL0     C96138   5.918  10.467   3.709  0.1067  0.8932  0.2028
  713MOL0     C96139   6.032  10.462   3.777 -0.5070 -0.2135  0.6685
  713MOL0     C96140   6.104  10.335   3.827 -0.4334 -0.0472 -0.8001
  713MOL0     C96141   6.253  10.347   3.820 -0.0005 -0.5117  0.2614
  713MOL0     C96142   6.310  10.277   3.693  1.2076  0.3952  0.1007
  713MOL0     C96143   6.451  10.325   3.666 -0.2606 -0.0402  0.6422
  713MOL0     O96144   6.501  10.231   3.574  0.4073  0.3087 -0.6297
  713MOL0     C96145   6.628  10.250   3.542 -0.1994  0.0029 -0.2924
  713MOL0     C96146   6.665  10.361   3.455  0.2342  0.2757 -0.5279
  713MOL0     C96147   6.803  10.377   3.422  0.1386  0.5089  0.5963
  713MOL0     C96148   6.894  10.276   3.462  0.1699 -0.4754  0.0653
  713MOL0     C96149   7.025  10.283   3.397 -0.6033 -0.1757  0.8247
  713MOL0     O96150   7.043  10.374   3.298 -0.1487  0.0857 -0.0155
  713MOL0     C96151   7.171  10.388   3.240  0.8490  0.1284  0.2011
  713MOL0     C96152   7.279  10.385   3.327  0.0339  1.2388  0.3928
  713MOL0     C96153   7.408  10.415   3.280 -0.5522  0.6065  0.9170
  713MOL0     C96154   7.426  10.449   3.141  0.4135  0.0882  0.2682
  713MOL0     O96155   7.557  10.466   3.090 -0.4891  0.3867 -0.8375
  713MOL0     C96156   7.568  10.578   2.995 -0.0611  0.3758 -0.9496
  713MOL0     C96157   7.697  10.654   3.017  0.0203 -0.4536 -0.4698
  713MOL0     C96158   7.678  10.804   2.985 -0.5355 -0.1647 -0.0692
  713MOL0     C96159   7.660  10.832   2.837 -0.1984 -0.5505  1.0933
  713MOL0     C96160   7.595  10.979   2.823  0.3084 -0.7161 -0.4852
  713MOL0     C96161   7.701  11.085   2.846  0.5051  0.4517 -0.1634
  713MOL0     C96162   7.656  11.227   2.806  0.4073 -0.4591  0.4830
  713MOL0     C96163   7.542  11.289   2.897 -0.5971 -0.8760 -0.2625
  713MOL0    Cl96164   7.396  11.277   2.794 -0.0716 -0.2783 -0.2579
  713MOL0     C96165   7.312  10.432   3.053  0.3999 -0.6184  0.6338
  713MOL0     C96166   7.187  10.407   3.105  0.3845  0.0117 -0.5528
  713MOL0     O96167   7.106  10.204   3.430 -0.3081  0.3362 -0.2520
  713MOL0     C96168   6.853  10.161   3.530 -0.1752  0.2824  0.0493
  713MOL0     C96169   6.719  10.155   3.582 -0.4934 -0.7469  0.2266
  713MOL0     N96170   6.061  10.588   3.826 -0.0406 -0.0893  0.3998
  713MOL0     N96171   5.971  10.671   3.775 -0.0588 -0.1431 -0.3058
  713MOL0     C96172   4.934  10.764   3.095 -0.8615  0.2947 -0.9777
  713MOL0     C96173   4.798  10.804   3.082 -0.1086  0.7668 -0.0039
  713MOL0     C96174   4.473  11.103   2.992  0.3367 -0.5796  0.1888
  713MOL0     C96175   4.396  11.122   3.108 -0.6172  0.1782 -0.8076
  713MOL0     C96176   4.276  11.200   3.109  0.2574  0.7007  0.4004
  713MOL0     C96177   4.236  11.271   2.996  0.0728 -0.4951  0.1854
  713MOL0     O96178   4.118  11.346   2.982  0.5562  0.9759 -0.0813
  713MOL0     C96179   4.127  11.485   2.980 -0.0679  0.0542 -0.7470
  713MOL0     C96180   4.012  11.538   2.885  0.3063 -0.1798  0.0381
  713MOL0     C96181   4.050  11.642   2.777 -0.0492  0.1960 -0.0121
  713MOL0     C96182   4.153  11.588   2.681  0.5838 -0.7073 -0.7123
  713MOL0     C96183   4.085  11.559   2.551 -0.7976  0.0056  0.2706
  713MOL0     C96184   4.031  11.528   2.450  0.7457 -0.6782  0.6589
  713MOL0     C96185   4.304  11.245   2.876  0.1661 -0.2003 -0.3839
  713MOL0     C96186   4.417  11.162   2.873 -0.5774  0.4299 -0.3260
  713MOL0     C96187   4.486  11.153   2.738  0.6489 -0.2640  0.4832
  713MOL0     H96188   4.800  11.069   3.273 -0.3923 -0.2134  0.7369
  713MOL0     H96189   5.046  11.019   3.280  0.4063  0.1162 -2.3889
  713MOL0     H96190   5.132  10.609   3.168 -1.0405  0.6775 -1.9408
  713MOL0     H96191   5.213  10.689   3.037  0.3930 -0.6657  1.0499
  713MOL0     H96192   5.410  10.743   3.174  1.5568 -0.7291  3.1466
  713MOL0     H96193   5.385  10.563   3.146 -0.9586 -0.0856 -0.9816
  713MOL0     H96194   5.296  10.554   3.376  0.4749  0.1680  1.3665
  713MOL0     H96195   5.308  10.723   3.389 -3.7077 -1.9919 -0.6950
  713MOL0     H96196   5.503  10.581   3.482  0.9075  1.8346  0.7298
  713MOL0     H96197   5.542  10.542   3.312 -2.0384 -1.7654  0.3675
  713MOL0     H96198   5.573  10.803   3.293  0.2951  0.8691  1.2560
  713MOL0     H96199   5.565  10.785   3.475 -2.7787 -1.0874  0.4352
  713MOL0     H96200   5.765  10.622   3.303  1.3674 -1.3708  1.2287
  713MOL0     H96201   5.809  10.778   3.371 -1.2126  0.0672 -2.4206
  713MOL0     H96202   5.903  10.598   3.475 -0.7455  0.4405 -1.5333
  713MOL0     H96203   5.748  10.507   3.491  0.9751 -0.5181 -1.8470
  713MOL0     H96204   5.770  10.764   3.640  0.9106 -0.4343 -0.2152
  713MOL0     H96205   5.680  10.616   3.668  0.7934 -0.4563 -0.0146
  713MOL0     H96206   5.866  10.384   3.661  0.7003  1.2427 -1.1099
  713MOL0     H96207   6.080  10.322   3.933 -1.8298  1.0755 -0.9476
  713MOL0     H96208   6.064  10.242   3.786 -2.3462 -0.1305  1.0587
  713MOL0     H96209   6.274  10.455   3.827  2.4204 -1.0121  2.2716
  713MOL0     H96210   6.290  10.311   3.916  0.5512 -2.0098 -0.4873
  713MOL0     H96211   6.246  10.306   3.610 -1.6071 -2.5262  1.0516
  713MOL0     H96212   6.305  10.168   3.696  0.2015  0.3808 -1.3718
  713MOL0     H96213   6.504  10.333   3.762  1.2789  1.4915 -0.2744
  713MOL0     H96214   6.453  10.425   3.622  2.6056 -0.6601 -0.9035
  713MOL0     H96215   6.587  10.434   3.434 -0.4189 -0.4299 -0.5739
  713MOL0     H96216   6.832  10.471   3.375 -1.3723  0.0139 -1.4648
  713MOL0     H96217   7.266  10.370   3.433  0.0775 -1.0134  0.1310
  713MOL0     H96218   7.491  10.433   3.347  1.3473  0.3559 -1.2435
  713MOL0     H96219   7.564  10.539   2.892 -0.2619  0.4813 -0.9810
  713MOL0     H96220   7.481  10.643   3.009 -0.3805 -0.0681 -0.8649
  713MOL0     H96221   7.714  10.654   3.125 -0.1288 -2.1577 -0.4142
  713MOL0     H96222   7.784  10.616   2.962  1.3918 -0.1956  1.4093
  713MOL0     H96223   7.588  10.844   3.033 -0.4121  2.6383 -1.9428
  713MOL0     H96224   7.767  10.856   3.020 -1.7235  1.1291  1.1422
  713MOL0     H96225   7.595  10.754   2.795 -1.3257 -0.3478  2.4092
  713MOL0     H96226   7.758  10.825   2.789  0.6593  0.8199  2.5612
  713MOL0     H96227   7.508  10.981   2.888  1.4131 -1.9482  1.0842
  713MOL0     H96228   7.568  10.992   2.717  2.2850 -0.2604 -0.9861
  713MOL0     H96229   7.734  11.086   2.950  0.4672 -5.7766  0.2742
  713MOL0     H96230   7.790  11.060   2.788  1.2911 -0.4992  1.3908
  713MOL0     H96231   7.616  11.237   2.704 -4.9385  4.9631  2.4790
  713MOL0     H96232   7.748  11.285   2.812  1.2263 -1.6100 -0.4846
  713MOL0     H96233   7.537  11.227   2.987 -1.0675 -0.4577  0.0034
  713MOL0     H96234   7.564  11.392   2.923 -0.0924 -1.0923  0.1874
  713MOL0     H96235   7.314  10.451   2.946  1.8909 -0.2720  0.6909
  713MOL0     H96236   7.098  10.425   3.045  1.2699 -1.5044 -2.4412
  713MOL0     H96237   6.911  10.074   3.560  0.0223 -0.0925 -1.3595
  713MOL0     H96238   6.692  10.071   3.646  3.9031 -0.6597  2.6352
  713MOL0     H96239   4.963  10.676   3.038 -1.2749 -0.3938 -0.1591
  713MOL0     H96240   4.724  10.742   3.032  0.0706  0.7723 -0.2817
  713MOL0     H96241   4.429  11.077   3.201  0.8645  1.9044 -0.4440
  713MOL0     H96242   4.216  11.207   3.199 -1.5817  3.1502 -0.9081
  713MOL0     H96243   4.224  11.514   2.940 -0.1710  1.1584 -0.2533
  713MOL0     H96244   4.113  11.527   3.080 -2.9021  2.2795 -1.9328
  713MOL0     H96245   3.930  11.582   2.942  1.2856  2.6980 -0.6162
  713MOL0     H96246   3.969  11.448   2.838 -2.2111  0.2182  1.4317
  713MOL0     H96247   4.086  11.737   2.819 -0.8136  0.5079 -0.0393
  713MOL0     H96248   3.959  11.665   2.720  0.5207  2.5421 -0.0972
  713MOL0     H96249   4.230  11.665   2.666  0.5948 -0.8913 -1.6692
  713MOL0     H96250   4.196  11.493   2.715  1.1347  0.6293  2.7618
  713MOL0     H96251   3.982  11.498   2.359 -0.4568 -1.0294  1.3963
  713MOL0     H96252   4.259  11.296   2.792 -0.7791 -0.2524  0.0866
  713MOL0     H96253   4.574  11.215   2.751 -1.4069  2.4595  2.4619
  713MOL0     H96254   4.516  11.051   2.712  3.7428  0.6904 -0.0635
  713MOL0     H96255   4.417  11.190   2.661  2.5777  0.3352 -1.0422
  714MOL0     O96256   4.350   6.169   2.853 -0.0235 -0.2264 -0.5456
  714MOL0     C96257   4.362   6.266   2.786 -0.4123  0.7059 -0.1695
  714MOL0     O96258   4.466   6.351   2.791  0.4861  0.2234  0.2651
  714MOL0     C96259   4.582   6.299   2.849 -0.5943 -0.7973  0.2084
  714MOL0     C96260   4.589   6.292   2.991  0.9667 -0.8375  0.1862
  714MOL0     C96261   4.703   6.226   3.056 -0.9246  0.3969  0.0050
  714MOL0     C96262   4.819   6.197   2.977  0.3978 -0.6147  0.3880
  714MOL0     O96263   4.930   6.144   3.033  0.2016 -0.5369 -0.0113
  714MOL0     C96264   4.927   6.080   3.162  0.7006  0.2772 -0.4936
  714MOL0     C96265   5.047   5.995   3.184  0.7141 -0.5778  0.0393
  714MOL0     C96266   5.018   5.914   3.314  0.9178 -0.5400 -0.1579
  714MOL0     C96267   5.150   5.872   3.373  0.2842 -0.6970 -0.6917
  714MOL0     C96268   5.139   5.805   3.505 -0.7150  0.8757  0.3110
  714MOL0     C96269   5.270   5.806   3.586  0.0671 -1.3560  0.2084
  714MOL0     C96270   5.262   5.721   3.716  0.1010  0.4097 -0.1397
  714MOL0     C96271   5.149   5.767   3.813  0.0994  0.7779  1.2909
  714MOL0     N96272   5.159   5.910   3.855 -0.3330 -0.9577 -0.1456
  714MOL0     C96273   5.282   5.972   3.877 -0.0248 -0.0437 -0.3040
  714MOL0     C96274   5.249   6.107   3.868 -0.0961  0.7490  0.5440
  714MOL0     C96275   5.335   6.230   3.899  0.6829  0.2769 -0.4343
  714MOL0     C96276   5.412   6.275   3.773  0.3507  0.2455 -1.4990
  714MOL0     C96277   5.506   6.392   3.807  0.8801 -1.0204 -0.8165
  714MOL0     C96278   5.586   6.426   3.687  0.9285 -0.7405 -0.0102
  714MOL0     O96279   5.687   6.329   3.689 -0.3613  0.4733  0.3330
  714MOL0     C96280   5.816   6.366   3.655 -0.1538 -0.5293  1.0870
  714MOL0     C96281   5.862   6.504   3.617  0.2338  0.5475  0.1197
  714MOL0     C96282   5.996   6.524   3.572 -0.3981  0.5930  0.1865
  714MOL0     C96283   6.087   6.415   3.565  0.4783  0.0305 -0.4266
  714MOL0     C96284   6.214   6.441   3.498 -0.5185 -0.7185  0.2051
  714MOL0     O96285   6.245   6.349   3.393  0.8129  0.1304 -0.6871
  714MOL0     C96286   6.333   6.384   3.303 -0.7550  0.1461 -0.3904
  714MOL0     C96287   6.321   6.500   3.219 -0.6074  0.1432  0.8820
  714MOL0     C96288   6.433   6.535   3.142 -0.5853  0.8563 -0.2148
  714MOL0     C96289   6.557   6.473   3.162  0.3336 -0.0471 -0.1328
  714MOL0     O96290   6.669   6.510   3.087  0.4032 -0.2008 -0.7111
  714MOL0     C96291   6.718   6.639   3.122  0.1270 -0.3475 -0.1457
  714MOL0     C96292   6.866   6.635   3.136 -0.1125  1.3109 -0.3375
  714MOL0     C96293   6.901   6.564   3.265  1.0719 -0.1018  0.0158
  714MOL0     C96294   7.052   6.565   3.294 -0.5060  0.2763 -0.2251
  714MOL0     C96295   7.126   6.437   3.236 -0.5471 -0.2536  0.0612
  714MOL0     C96296   7.083   6.305   3.309 -0.4479 -0.3787 -0.2243
  714MOL0     C96297   7.153   6.177   3.261 -0.5298  0.2993  0.4927
  714MOL0     C96298   7.296   6.166   3.307 -0.0537 -0.2337 -0.1220
  714MOL0    Cl96299   7.319   6.121   3.476  0.0273 -0.0903  0.1818
  714MOL0     C96300   6.565   6.369   3.257 -0.5510 -0.8577  0.1485
  714MOL0     C96301   6.457   6.328   3.329 -0.3620 -0.2986 -0.6404
  714MOL0     O96302   6.270   6.546   3.523 -0.3392 -0.1704 -0.5949
  714MOL0     C96303   6.042   6.287   3.600 -0.6539 -0.6534  0.1039
  714MOL0     C96304   5.909   6.265   3.644 -0.0985  0.5449  0.2138
  714MOL0     N96305   5.111   6.124   3.840  0.7983  0.1222  0.0931
  714MOL0     N96306   5.053   6.003   3.836 -0.2711 -0.4347  0.4191
  714MOL0     C96307   4.801   6.212   2.835 -0.7795  0.9325  0.1967
  714MOL0     C96308   4.683   6.258   2.767  0.3724  0.5661 -0.0599
  714MOL0     C96309   4.262   6.307   2.689 -0.6568 -1.1859  0.2364
  714MOL0     C96310   4.284   6.409   2.595  0.3828  0.3978  0.0575
  714MOL0     C96311   4.189   6.468   2.515  0.4830 -0.1442  0.4250
  714MOL0     C96312   4.055   6.420   2.523 -0.7544  0.9533 -1.0385
  714MOL0     O96313   3.951   6.453   2.445 -0.4546  0.0864  0.5526
  714MOL0     C96314   3.966   6.571   2.360 -0.9092  0.6712 -0.4477
  714MOL0     C96315   3.948   6.715   2.430 -0.8291  1.0686 -0.4354
  714MOL0     C96316   3.834   6.727   2.536  0.3791  0.3176 -0.0422
  714MOL0     C96317   3.701   6.721   2.464 -0.9418 -0.3510 -0.3711
  714MOL0     C96318   3.583   6.728   2.562 -0.0670 -0.4893  0.3717
  714MOL0     C96319   3.496   6.704   2.642 -0.0026  0.8409  0.4995
  714MOL0     C96320   4.025   6.320   2.622 -0.1837  0.4899  0.0348
  714MOL0     C96321   4.123   6.267   2.700  0.6079  0.7765  0.4820
  714MOL0     C96322   4.076   6.177   2.804  0.4762  0.4524 -0.4487
  714MOL0     H96323   4.506   6.343   3.040  2.0752  0.9074  0.3436
  714MOL0     H96324   4.719   6.225   3.163  2.6751  2.5350 -0.3521
  714MOL0     H96325   4.930   6.158   3.238  0.1405 -1.4634  1.4114
  714MOL0     H96326   4.840   6.014   3.172  0.8067 -0.1248 -1.8840
  714MOL0     H96327   5.132   6.062   3.193 -1.0764  1.6670  1.2344
  714MOL0     H96328   5.050   5.931   3.095 -0.6051 -0.4273 -0.1476
  714MOL0     H96329   4.949   5.830   3.300  2.0130 -1.8599  1.8285
  714MOL0     H96330   4.969   5.978   3.388  2.5764 -1.8001  2.1675
  714MOL0     H96331   5.190   5.809   3.293  1.9165 -0.0140 -0.4466
  714MOL0     H96332   5.209   5.962   3.391 -0.8892  0.2886 -1.5882
  714MOL0     H96333   5.048   5.846   3.550 -1.6818  0.3212 -1.0765
  714MOL0     H96334   5.120   5.699   3.486  1.1194  0.3153  1.3907
  714MOL0     H96335   5.363   5.782   3.533  2.3123 -0.0620  3.2688
  714MOL0     H96336   5.287   5.911   3.609  1.3672 -1.1830 -1.4028
  714MOL0     H96337   5.361   5.743   3.759  1.3340 -0.1106 -2.5342
  714MOL0     H96338   5.255   5.616   3.687  0.3529  0.4977 -0.5248
  714MOL0     H96339   5.056   5.739   3.763 -0.8589  5.9732 -0.5030
  714MOL0     H96340   5.161   5.701   3.899 -0.3370 -3.4769 -1.6226
  714MOL0     H96341   5.379   5.931   3.905 -0.5313 -1.1139 -0.0536
  714MOL0     H96342   5.263   6.305   3.933 -1.1165  0.4736 -4.1360
  714MOL0     H96343   5.405   6.223   3.983  0.1535  2.1793  0.2084
  714MOL0     H96344   5.474   6.190   3.743  1.2153  0.2260  0.2255
  714MOL0     H96345   5.348   6.305   3.689  0.2646  0.2831 -1.4196
  714MOL0     H96346   5.565   6.370   3.896 -0.4571  1.1375  0.7078
  714MOL0     H96347   5.449   6.482   3.832  1.9094  0.6154 -3.9526
  714MOL0     H96348   5.611   6.532   3.703 -2.3865  0.1510  0.0377
  714MOL0     H96349   5.525   6.421   3.597 -0.9555  2.4101  0.8988
  714MOL0     H96350   5.788   6.583   3.610 -0.0418  0.4608  1.7709
  714MOL0     H96351   6.030   6.615   3.523  1.6186 -1.8118 -3.2738
  714MOL0     H96352   6.232   6.560   3.202  1.8327  3.7241 -0.4930
  714MOL0     H96353   6.421   6.614   3.068 -1.1565  0.7931 -0.1982
  714MOL0     H96354   6.679   6.709   3.048 -3.2357  0.1395  1.8276
  714MOL0     H96355   6.665   6.692   3.202 -0.4522 -1.8225  0.4866
  714MOL0     H96356   6.915   6.587   3.051  0.1680  0.0352  0.5189
  714MOL0     H96357   6.911   6.735   3.138  3.6434 -0.2027 -1.4392
  714MOL0     H96358   6.852   6.611   3.351  2.0500  0.5088  0.2604
  714MOL0     H96359   6.872   6.458   3.262  1.0481 -0.1373  0.9762
  714MOL0     H96360   7.063   6.568   3.403  0.0969 -0.5733 -0.2544
  714MOL0     H96361   7.101   6.655   3.255 -1.3077 -0.0561 -2.0800
  714MOL0     H96362   7.234   6.453   3.225 -0.6913  0.3624 -0.5604
  714MOL0     H96363   7.094   6.436   3.131 -2.6562  0.6162  0.6548
  714MOL0     H96364   7.091   6.315   3.418 -0.7746 -1.2232 -0.1218
  714MOL0     H96365   6.977   6.294   3.285 -0.4953 -1.4857  0.4050
  714MOL0     H96366   7.149   6.169   3.152  1.6934  2.8115  0.1307
  714MOL0     H96367   7.098   6.095   3.308 -0.5604  0.8907  1.5067
  714MOL0     H96368   7.343   6.087   3.247  0.3742 -1.0158  1.1975
  714MOL0     H96369   7.347   6.259   3.281  0.2091 -0.9791 -2.5707
  714MOL0     H96370   6.664   6.324   3.263  0.2643  0.9978  1.6054
  714MOL0     H96371   6.473   6.253   3.406  2.4910 -2.3141 -2.9799
  714MOL0     H96372   6.117   6.208   3.600 -0.8748 -0.8899 -1.2246
  714MOL0     H96373   5.884   6.163   3.672  0.6124  0.6027  1.1124
  714MOL0     H96374   4.878   6.178   2.767 -1.7105 -0.9841  0.0348
  714MOL0     H96375   4.677   6.264   2.659  1.6790 -1.1856 -0.2755
  714MOL0     H96376   4.383   6.454   2.588  0.8519 -0.7632 -1.1220
  714MOL0     H96377   4.212   6.550   2.447 -1.3126  1.7521  1.9753
  714MOL0     H96378   3.896   6.559   2.277  1.5468 -0.9357 -2.4132
  714MOL0     H96379   4.064   6.576   2.312  0.0448 -0.3900  1.2631
  714MOL0     H96380   3.954   6.788   2.349 -0.3994 -0.1844 -1.5791
  714MOL0     H96381   4.043   6.743   2.477  0.3324  2.2476 -3.2603
  714MOL0     H96382   3.856   6.818   2.593  0.3097 -0.5191  1.3713
  714MOL0     H96383   3.841   6.644   2.607 -2.8516  1.4033  1.7654
  714MOL0     H96384   3.700   6.801   2.390  1.0812  0.5521  0.4934
  714MOL0     H96385   3.689   6.626   2.411  1.2246 -0.9703  0.1325
  714MOL0     H96386   3.423   6.674   2.714 -0.4150 -2.9451 -1.2307
  714MOL0     H96387   3.924   6.285   2.637 -0.1302  1.0765  2.2338
  714MOL0     H96388   4.080   6.210   2.908  0.8773 -1.1090  0.0690
  714MOL0     H96389   3.973   6.152   2.780  0.9465  0.8881 -3.2209
  714MOL0     H96390   4.127   6.080   2.799 -0.9199 -0.3480  0.1676
  715MOL0     O96391   8.776   8.784   1.509 -0.0110 -0.6240 -0.3011
  715MOL0     C96392   8.809   8.670   1.517 -1.4921  0.8848 -0.6595
  715MOL0     O96393   8.911   8.617   1.441 -0.1790 -0.1020 -0.4241
  715MOL0     C96394   8.983   8.711   1.375 -0.3151 -0.4157  0.6491
  715MOL0     C96395   9.015   8.688   1.238 -0.2517  0.0081 -0.3068
  715MOL0     C96396   9.111   8.760   1.172 -0.0544 -0.6495  0.1849
  715MOL0     C96397   9.192   8.850   1.242  0.1705  0.0191  0.0703
  715MOL0     O96398   9.286   8.913   1.163  0.0632  0.3685  0.5863
  715MOL0     C96399   9.373   9.020   1.223 -0.0927 -0.4073 -0.0220
  715MOL0     C96400   9.495   9.040   1.131  0.3316  0.3938  0.6221
  715MOL0     C96401   9.574   9.168   1.160 -0.2615 -0.3046 -0.3106
  715MOL0     C96402   9.665   9.171   1.278  0.0846  0.3451 -0.8944
  715MOL0     C96403   9.745   9.301   1.315  0.0328 -0.2421  0.6132
  715MOL0     C96404   9.865   9.316   1.223 -0.7274 -0.1764  0.9540
  715MOL0     C96405   9.932   9.452   1.220  0.5539 -0.1243 -0.2751
  715MOL0     C96406  10.068   9.453   1.168  0.5515 -0.1146  0.1601
  715MOL0     N96407  10.131   9.582   1.188 -1.0287 -0.2107  0.0275
  715MOL0     C96408  10.075   9.704   1.155  0.6046 -0.2954 -0.1632
  715MOL0     C96409  10.156   9.803   1.190  0.8277 -0.1379 -0.8538
  715MOL0     C96410  10.133   9.953   1.195 -0.0635  0.3527  0.0175
  715MOL0     C96411  10.267  10.034   1.177 -0.0161  0.3427 -0.3021
  715MOL0     C96412  10.250  10.184   1.157  0.3656 -0.3012  0.1799
  715MOL0     C96413  10.393  10.257   1.138 -0.0014 -0.5665 -0.3406
  715MOL0     O96414  10.445  10.215   1.012 -0.4948  0.0302 -0.2080
  715MOL0     C96415  10.575  10.255   0.996  0.3601  1.0885  0.2312
  715MOL0     C96416  10.668  10.170   0.946 -0.1236  1.1173  0.3321
  715MOL0     C96417  10.801  10.221   0.911  0.2737 -0.8611 -0.3131
  715MOL0     C96418  10.837  10.355   0.946  0.0712 -0.4005  0.6262
  715MOL0     C96419  10.970  10.412   0.906 -0.3637 -0.4073  0.0496
  715MOL0     O96420  11.067  10.331   0.860  0.0037  0.7235  0.1848
  715MOL0     C96421  11.193  10.367   0.837  0.2602  0.7754 -0.5939
  715MOL0     C96422  11.305  10.289   0.888 -1.1273  0.1109  0.4926
  715MOL0     C96423  11.431  10.340   0.860  0.1650 -0.2493 -0.0474
  715MOL0     C96424  11.453  10.465   0.793 -0.4982  0.2550 -0.3160
  715MOL0     O96425  11.576  10.508   0.753  0.3763 -0.6602  0.1487
  715MOL0     C96426  11.682  10.504   0.851 -0.2966  0.0060  0.5641
  715MOL0     C96427  11.817  10.533   0.790 -1.0661  0.1957 -0.4236
  715MOL0     C96428  11.822  10.669   0.718 -0.2507 -0.6385 -0.8357
  715MOL0     C96429  11.961  10.682   0.646 -0.6172  0.1185  0.1644
  715MOL0     C96430  12.084  10.709   0.736  0.3400 -0.8132  0.6049
  715MOL0     C96431  12.213  10.689   0.659 -0.2846 -0.2707 -0.0189
  715MOL0     C96432  12.326  10.707   0.755 -0.0905  0.3324 -0.5256
  715MOL0     C96433  12.466  10.735   0.690  0.0728  0.0410  0.3097
  715MOL0    Cl96434  12.539  10.591   0.612 -0.1559  0.0166 -0.3805
  715MOL0     C96435  11.355  10.540   0.749  0.2746 -0.1526 -0.5700
  715MOL0     C96436  11.223  10.486   0.768 -0.4858  0.0482  0.0764
  715MOL0     O96437  10.979  10.534   0.928  0.3696 -0.6649  0.5918
  715MOL0     C96438  10.742  10.437   1.010 -0.4415 -0.0587 -0.1400
  715MOL0     C96439  10.617  10.383   1.033 -0.3516  0.1356  0.5766
  715MOL0     N96440  10.271   9.735   1.231 -0.4447 -0.5202 -0.1724
  715MOL0     N96441  10.256   9.611   1.216  0.7508 -0.2699 -0.1746
  715MOL0     C96442   9.161   8.874   1.376 -0.4424 -0.1489 -0.1952
  715MOL0     C96443   9.054   8.810   1.444  0.3006  0.2066 -0.0769
  715MOL0     C96444   8.731   8.579   1.604 -0.2820  0.1480  0.8206
  715MOL0     C96445   8.773   8.448   1.607  0.0803  0.5931  0.4184
  715MOL0     C96446   8.692   8.351   1.657 -0.1053  0.3035 -0.4502
  715MOL0     C96447   8.561   8.384   1.719 -0.7237  0.5589 -0.6009
  715MOL0     O96448   8.473   8.295   1.766 -0.0446 -0.0154  0.1429
  715MOL0     C96449   8.491   8.158   1.722 -0.5663  0.0517 -0.1737
  715MOL0     C96450   8.369   8.074   1.729 -0.4736 -0.3323 -0.6486
  715MOL0     C96451   8.318   8.079   1.874  0.5221  0.4083 -0.4771
  715MOL0     C96452   8.191   7.978   1.886 -0.8624 -0.6519 -0.1197
  715MOL0     C96453   8.078   8.041   1.820  0.8071  0.1614 -0.4387
  715MOL0     C96454   7.986   8.096   1.761 -0.4761  0.3044  0.2337
  715MOL0     C96455   8.541   8.521   1.744  0.5894 -0.0077 -0.5587
  715MOL0     C96456   8.614   8.619   1.678 -0.2173 -0.3642  0.0065
  715MOL0     C96457   8.550   8.755   1.680 -0.9690  0.4131 -0.0592
  715MOL0     H96458   8.949   8.623   1.182 -0.9680  1.4465 -1.1883
  715MOL0     H96459   9.128   8.737   1.067 -1.4526  3.8716 -1.2755
  715MOL0     H96460   9.305   9.106   1.221  0.0686 -0.2589  0.7765
  715MOL0     H96461   9.415   9.006   1.322 -0.9866 -0.2511  0.3931
  715MOL0     H96462   9.461   9.036   1.027  0.7931 -1.3234  0.5051
  715MOL0     H96463   9.564   8.955   1.137 -0.1282  0.0345  0.8888
  715MOL0     H96464   9.519   9.262   1.149  2.2464  1.0634 -1.9669
  715MOL0     H96465   9.647   9.171   1.080 -1.0162 -2.1533 -1.1314
  715MOL0     H96466   9.595   9.150   1.360  1.7399  0.3797  0.5811
  715MOL0     H96467   9.732   9.085   1.278 -1.6571 -1.1596  1.5054
  715MOL0     H96468   9.670   9.381   1.311  0.7140  0.3550 -0.7232
  715MOL0     H96469   9.789   9.306   1.415  2.0667  2.5195 -0.2824
  715MOL0     H96470   9.951   9.255   1.251 -0.3973 -0.5906 -0.8299
  715MOL0     H96471   9.840   9.269   1.127  2.1419 -0.7565  0.3843
  715MOL0     H96472   9.937   9.493   1.321  0.4927 -0.5367 -0.1026
  715MOL0     H96473   9.867   9.525   1.170 -3.0275 -0.9591  2.6813
  715MOL0     H96474  10.131   9.382   1.222 -0.1782 -1.0833 -0.2443
  715MOL0     H96475  10.065   9.424   1.063  1.3362  1.8492 -0.4659
  715MOL0     H96476   9.969   9.717   1.136  0.2327  1.5160  2.6150
  715MOL0     H96477  10.065   9.975   1.112  0.2551 -2.2403 -1.0213
  715MOL0     H96478  10.086   9.970   1.293 -2.4445  3.4404 -1.4902
  715MOL0     H96479  10.326  10.015   1.268 -0.9520  1.2514  0.5251
  715MOL0     H96480  10.322   9.992   1.093 -1.3975  1.4920 -1.8508
  715MOL0     H96481  10.192  10.219   1.243  1.4219 -1.7643  1.5369
  715MOL0     H96482  10.185  10.206   1.072 -3.8817 -1.2938  2.8820
  715MOL0     H96483  10.455  10.232   1.225 -0.5646  3.5875  1.5091
  715MOL0     H96484  10.376  10.365   1.143  1.8280 -0.2949  2.9792
  715MOL0     H96485  10.640  10.071   0.913 -0.7115  1.2333  0.4828
  715MOL0     H96486  10.872  10.165   0.851  0.0795 -0.7880 -0.6134
  715MOL0     H96487  11.278  10.195   0.935  1.7517 -1.1035 -0.0863
  715MOL0     H96488  11.517  10.275   0.872  0.2914 -0.1529 -0.4128
  715MOL0     H96489  11.658  10.580   0.926 -1.0187  0.6983 -0.3379
  715MOL0     H96490  11.692  10.409   0.905 -0.7942  0.7873  2.1048
  715MOL0     H96491  11.887  10.543   0.873  0.0648 -0.9951 -1.1955
  715MOL0     H96492  11.842  10.446   0.729  0.3023 -0.2553  0.7215
  715MOL0     H96493  11.744  10.672   0.641  0.4561  0.6747 -1.5184
  715MOL0     H96494  11.807  10.747   0.793  3.3711 -2.2715  1.8898
  715MOL0     H96495  11.947  10.766   0.576  0.9865 -0.0543 -0.4232
  715MOL0     H96496  11.985  10.592   0.589  0.9905  1.1149 -0.8575
  715MOL0     H96497  12.085  10.633   0.814  3.1458 -0.5473  0.9261
  715MOL0     H96498  12.077  10.805   0.787  0.0749 -0.2657 -0.4226
  715MOL0     H96499  12.221  10.591   0.610  0.0142  0.6620 -1.9239
  715MOL0     H96500  12.210  10.757   0.573  0.5680  0.8112  0.7815
  715MOL0     H96501  12.336  10.621   0.823 -0.9953  0.4868 -0.1830
  715MOL0     H96502  12.299  10.789   0.821  0.9924  1.0754 -0.9774
  715MOL0     H96503  12.449  10.825   0.631  1.2020  0.7064  0.9813
  715MOL0     H96504  12.541  10.755   0.766  1.6568 -1.2588 -0.8491
  715MOL0     H96505  11.382  10.637   0.708 -3.2330  1.9567  1.5883
  715MOL0     H96506  11.146  10.547   0.722  1.9584  1.8609 -1.9259
  715MOL0     H96507  10.754  10.545   1.018  1.6336 -0.1441 -1.3346
  715MOL0     H96508  10.543  10.452   1.073 -1.1140  0.7028 -1.6586
  715MOL0     H96509   9.200   8.955   1.438 -0.7114 -1.1938  1.3959
  715MOL0     H96510   9.017   8.818   1.546 -0.6516 -1.8534 -0.2194
  715MOL0     H96511   8.853   8.402   1.551 -2.3516  0.1420 -2.9669
  715MOL0     H96512   8.725   8.252   1.628 -0.5830  0.7551 -2.7423
  715MOL0     H96513   8.575   8.121   1.782 -0.1032  2.9235  1.1513
  715MOL0     H96514   8.518   8.164   1.617  2.3450  0.4072  0.5041
  715MOL0     H96515   8.387   7.973   1.692  0.8532  0.3325 -1.9165
  715MOL0     H96516   8.299   8.120   1.660  0.3490  1.5672 -0.2748
  715MOL0     H96517   8.289   8.179   1.908 -2.2510 -0.4320 -0.1512
  715MOL0     H96518   8.401   8.051   1.939 -0.8439  1.6268  1.9139
  715MOL0     H96519   8.203   7.875   1.853  2.1285 -0.5307  0.3500
  715MOL0     H96520   8.168   7.973   1.993 -1.0176  0.3944 -0.0968
  715MOL0     H96521   7.900   8.145   1.721  1.1184  1.4677 -1.9938
  715MOL0     H96522   8.455   8.540   1.808 -0.3404  3.5867 -2.5888
  715MOL0     H96523   8.615   8.834   1.719 -1.4710  2.8161 -3.6057
  715MOL0     H96524   8.519   8.771   1.576  0.5926  1.1292 -0.4467
  715MOL0     H96525   8.469   8.780   1.749 -0.2609 -2.0599  1.8276
  716MOL0     O96526   4.960   3.567   2.032  0.3714  0.2334 -0.1736
  716MOL0     C96527   4.877   3.520   1.956  0.3699 -0.9282 -0.3005
  716MOL0     O96528   4.896   3.486   1.826 -0.7952  0.5888  0.0547
  716MOL0     C96529   5.031   3.484   1.794 -0.2071  1.5684  0.0547
  716MOL0     C96530   5.094   3.591   1.735  0.7444  0.2620 -0.3109
  716MOL0     C96531   5.227   3.572   1.693 -0.4013 -0.0858  0.4692
  716MOL0     C96532   5.301   3.451   1.723 -0.6719 -0.3003  0.2988
  716MOL0     O96533   5.437   3.436   1.696  0.6286 -0.3234 -0.6808
  716MOL0     C96534   5.486   3.473   1.562 -0.1159 -0.0512  0.1450
  716MOL0     C96535   5.637   3.451   1.553 -0.7854 -0.1569 -0.5011
  716MOL0     C96536   5.695   3.495   1.418 -0.8363  0.2484  0.1962
  716MOL0     C96537   5.853   3.481   1.423  0.9040 -0.0912  0.3541
  716MOL0     C96538   5.917   3.552   1.306 -0.2219  0.3457 -0.6846
  716MOL0     C96539   6.060   3.501   1.282  0.0766  0.2974  0.0557
  716MOL0     C96540   6.119   3.586   1.176 -0.3024 -0.1448 -0.5067
  716MOL0     C96541   6.272   3.560   1.158  0.3023 -0.2282 -0.7131
  716MOL0     N96542   6.351   3.631   1.261  0.0075  0.6032 -0.0219
  716MOL0     C96543   6.342   3.767   1.295 -0.8497  0.7434  0.0172
  716MOL0     C96544   6.422   3.770   1.411  1.3191  0.2044 -0.1242
  716MOL0     C96545   6.444   3.884   1.500 -0.1281 -0.0629  0.3169
  716MOL0     C96546   6.513   4.001   1.428 -0.4748  0.4317 -0.0641
  716MOL0     C96547   6.566   4.113   1.520  0.0520 -0.6006  0.1245
  716MOL0     C96548   6.669   4.071   1.619  0.0776  0.1546  0.5432
  716MOL0     O96549   6.783   4.036   1.536  0.0668  0.0076 -0.4659
  716MOL0     C96550   6.858   4.130   1.467  0.3120  0.3139  0.6495
  716MOL0     C96551   6.860   4.266   1.498  0.7905  0.4041  0.5435
  716MOL0     C96552   6.960   4.350   1.445 -0.3153  0.2343  0.3851
  716MOL0     C96553   7.057   4.299   1.345  0.6918 -0.0504 -0.5311
  716MOL0     C96554   7.165   4.382   1.301 -0.4307 -0.7635  0.3812
  716MOL0     O96555   7.208   4.484   1.383  0.6818  0.2285  0.3772
  716MOL0     C96556   7.323   4.541   1.358  0.2736  0.2019  0.0172
  716MOL0     C96557   7.348   4.622   1.242  0.7217 -0.3622 -1.0019
  716MOL0     C96558   7.461   4.703   1.236 -0.4069 -0.8673 -0.7467
  716MOL0     C96559   7.558   4.690   1.329  0.4517  0.1054 -0.1509
  716MOL0     O96560   7.674   4.764   1.300  0.1447 -0.0832 -0.0684
  716MOL0     C96561   7.805   4.711   1.328  0.0314  0.4451 -0.6647
  716MOL0     C96562   7.899   4.825   1.331  0.2886  1.2285  0.5845
  716MOL0     C96563   8.047   4.776   1.343  0.5877 -0.3400 -0.8990
  716MOL0     C96564   8.134   4.895   1.339 -1.3683  0.2526 -0.9136
  716MOL0     C96565   8.281   4.862   1.376  0.0223 -0.6609 -0.8426
  716MOL0     C96566   8.377   4.989   1.348 -0.3210 -0.6725  0.0054
  716MOL0     C96567   8.534   4.960   1.320 -0.0651 -0.0115 -0.1117
  716MOL0     C96568   8.603   5.090   1.293  0.7098 -0.8095  0.7543
  716MOL0    Cl96569   8.786   5.085   1.289  0.0051 -0.2384 -0.3636
  716MOL0     C96570   7.548   4.592   1.431 -0.0832 -0.6277 -0.9487
  716MOL0     C96571   7.424   4.526   1.451 -0.3830  0.3888 -0.0284
  716MOL0     O96572   7.222   4.349   1.199  0.0960  0.2226  0.3167
  716MOL0     C96573   7.034   4.169   1.298 -0.2372  0.5317  1.3415
  716MOL0     C96574   6.947   4.079   1.366  0.4463 -0.4692  0.0536
  716MOL0     N96575   6.473   3.650   1.435  0.1021  0.3530 -0.6602
  716MOL0     N96576   6.442   3.565   1.343  0.3366 -0.2616  0.2842
  716MOL0     C96577   5.236   3.360   1.801  0.5363 -0.0492 -1.6027
  716MOL0     C96578   5.105   3.371   1.837  0.8503 -0.0364  0.3251
  716MOL0     C96579   4.743   3.512   2.000  0.7284 -0.4119  0.3032
  716MOL0     C96580   4.640   3.459   1.918 -0.3782 -0.5841  0.5866
  716MOL0     C96581   4.507   3.445   1.955  0.4335 -0.1023 -0.5093
  716MOL0     C96582   4.453   3.489   2.068  0.4659 -0.2234 -1.1215
  716MOL0     O96583   4.321   3.488   2.114 -0.2407  0.8178 -0.5031
  716MOL0     C96584   4.231   3.402   2.041  0.0257 -0.0339 -0.2365
  716MOL0     C96585   4.159   3.488   1.937 -0.1453  0.5826  0.4417
  716MOL0     C96586   4.054   3.415   1.865 -0.5053 -0.3261  0.4293
  716MOL0     C96587   3.937   3.377   1.961  0.6867 -0.5376 -0.7387
  716MOL0     C96588   3.877   3.495   2.025  0.3222 -0.0890  0.2359
  716MOL0     C96589   3.829   3.603   2.025 -0.8938 -0.0237 -0.7758
  716MOL0     C96590   4.545   3.550   2.156 -0.4234  1.0213 -0.1563
  716MOL0     C96591   4.685   3.555   2.124  0.4380 -0.5157 -0.6304
  716MOL0     C96592   4.758   3.616   2.237 -0.5184 -0.2579  0.4576
  716MOL0     H96593   5.042   3.681   1.705  0.1394  1.0039  2.6922
  716MOL0     H96594   5.280   3.654   1.647 -0.4426 -1.1627 -1.6141
  716MOL0     H96595   5.436   3.425   1.477 -1.3304  0.2010  0.6996
  716MOL0     H96596   5.464   3.579   1.545 -0.6446 -0.3657 -1.2536
  716MOL0     H96597   5.649   3.342   1.556  0.5106  0.0119  1.7764
  716MOL0     H96598   5.697   3.489   1.635  0.0717 -2.3810 -0.0244
  716MOL0     H96599   5.674   3.602   1.409  1.7379  0.8237  0.0136
  716MOL0     H96600   5.651   3.438   1.336  0.5652  0.5328 -0.7935
  716MOL0     H96601   5.880   3.527   1.519  2.5881 -0.3890  0.0658
  716MOL0     H96602   5.865   3.373   1.423  1.2302 -0.0796 -1.2352
  716MOL0     H96603   5.865   3.530   1.212  0.9418  2.1658 -1.8139
  716MOL0     H96604   5.905   3.661   1.318 -0.9290  0.0900  1.4491
  716MOL0     H96605   6.118   3.520   1.373  0.2100  0.5623 -0.0838
  716MOL0     H96606   6.061   3.397   1.246 -2.1481  0.9099 -2.0007
  716MOL0     H96607   6.105   3.694   1.191  1.9609  0.5955 -2.8764
  716MOL0     H96608   6.075   3.565   1.079 -0.5719  0.2831 -0.4790
  716MOL0     H96609   6.303   3.455   1.149 -0.4949 -0.4587 -0.8816
  716MOL0     H96610   6.298   3.611   1.065  0.3557  0.5760 -0.2601
  716MOL0     H96611   6.272   3.838   1.252  2.7880  2.9856 -2.7915
  716MOL0     H96612   6.351   3.920   1.546 -0.8351  1.1769 -1.9446
  716MOL0     H96613   6.508   3.853   1.583  0.5566 -0.6675 -0.4278
  716MOL0     H96614   6.598   3.958   1.374 -2.1832 -0.8552 -1.9195
  716MOL0     H96615   6.443   4.045   1.356 -1.2356 -0.2244  0.2594
  716MOL0     H96616   6.480   4.159   1.570 -0.5431  0.1226 -1.4781
  716MOL0     H96617   6.605   4.191   1.454  0.4586 -1.7885 -1.0870
  716MOL0     H96618   6.632   3.986   1.677  2.7986 -1.1215  0.5494
  716MOL0     H96619   6.685   4.157   1.686 -0.0514  1.0607 -0.5550
  716MOL0     H96620   6.790   4.306   1.571  0.6886 -0.8091  1.1239
  716MOL0     H96621   6.949   4.457   1.457  0.3358  0.3793 -0.2594
  716MOL0     H96622   7.275   4.630   1.163 -1.3815  3.7123  1.0150
  716MOL0     H96623   7.471   4.781   1.162  0.3463  1.4308  1.5968
  716MOL0     H96624   7.812   4.666   1.427 -0.5452  1.2972 -0.2235
  716MOL0     H96625   7.836   4.635   1.256  2.7834 -0.2719  1.1291
  716MOL0     H96626   7.898   4.876   1.235  1.8067 -0.3439 -0.3095
  716MOL0     H96627   7.880   4.889   1.419  0.4409 -0.8274  2.1926
  716MOL0     H96628   8.055   4.724   1.439 -0.8160  1.6426  0.3642
  716MOL0     H96629   8.071   4.706   1.263 -1.0483 -1.1511 -0.7323
  716MOL0     H96630   8.106   4.981   1.400  1.7402 -0.9485  2.5911
  716MOL0     H96631   8.127   4.947   1.243  0.4085  0.9234 -0.7238
  716MOL0     H96632   8.315   4.777   1.316 -1.9584  0.4829 -3.8302
  716MOL0     H96633   8.293   4.854   1.484 -0.5865 -0.8345 -0.7792
  716MOL0     H96634   8.346   5.037   1.255 -0.4327  0.0192  0.3898
  716MOL0     H96635   8.365   5.066   1.425 -0.1169  0.1943 -0.8194
  716MOL0     H96636   8.553   4.894   1.235 -0.5118 -0.5948  0.2276
  716MOL0     H96637   8.571   4.916   1.414  0.7914  0.9647  0.0231
  716MOL0     H96638   8.571   5.114   1.191  0.8048 -3.6061 -0.0298
  716MOL0     H96639   8.573   5.167   1.364 -0.3091 -0.0288 -0.4977
  716MOL0     H96640   7.640   4.572   1.485 -0.3733  1.5172  0.4941
  716MOL0     H96641   7.420   4.450   1.528  1.8899 -0.6219 -0.8223
  716MOL0     H96642   7.107   4.137   1.224 -0.2069  0.6300  1.3278
  716MOL0     H96643   6.951   3.973   1.346 -1.1282 -0.7777  1.2169
  716MOL0     H96644   5.288   3.275   1.844  0.2933  1.3232  1.6783
  716MOL0     H96645   5.066   3.288   1.895 -1.3850  0.1234 -0.8415
  716MOL0     H96646   4.664   3.438   1.814  1.4088  3.7256 -0.1080
  716MOL0     H96647   4.436   3.407   1.882  0.6749 -1.3617 -0.0986
  716MOL0     H96648   4.160   3.352   2.108  0.2545 -0.3463 -0.2294
  716MOL0     H96649   4.283   3.317   1.998  0.1146 -1.7373  2.9200
  716MOL0     H96650   4.227   3.527   1.861 -0.1776  1.7944  1.0125
  716MOL0     H96651   4.116   3.581   1.973 -1.5671  0.7678 -1.5953
  716MOL0     H96652   4.099   3.319   1.836  0.5185 -0.1557  1.3804
  716MOL0     H96653   4.018   3.484   1.788  3.5880  1.5397 -0.0887
  716MOL0     H96654   3.865   3.321   1.900 -0.5275 -1.2065  1.2311
  716MOL0     H96655   3.971   3.308   2.039  1.3162 -1.3008 -1.6673
  716MOL0     H96656   3.789   3.702   2.019  1.3907  1.0072 -0.0040
  716MOL0     H96657   4.512   3.584   2.254  1.2619 -0.8922  1.1703
  716MOL0     H96658   4.846   3.566   2.278 -0.7083 -0.0203  1.1608
  716MOL0     H96659   4.790   3.716   2.207  0.0372 -1.0551 -1.8104
  716MOL0     H96660   4.688   3.622   2.321 -0.5345 -0.0552  0.4288
  717MOL0     O96661   0.006   6.091   2.295 -0.2358 -0.0868  0.9922
  717MOL0     C96662  -0.114   6.058   2.270 -0.4987  1.3804  0.6715
  717MOL0     O96663  -0.164   5.926   2.278  0.4160 -0.0397 -0.4960
  717MOL0     C96664  -0.071   5.851   2.340  0.8259 -0.0367  0.4026
  717MOL0     C96665   0.022   5.775   2.274  0.6893 -0.1655  0.4032
  717MOL0     C96666   0.119   5.696   2.338 -0.5084 -0.4683 -0.2674
  717MOL0     C96667   0.105   5.676   2.473 -0.5636  0.7707  0.2635
  717MOL0     O96668   0.194   5.587   2.532 -0.3676 -0.4034  0.5395
  717MOL0     C96669   0.217   5.626   2.671  0.0550  0.3133  0.5166
  717MOL0     C96670   0.341   5.544   2.705 -0.4132 -0.1699 -0.2520
  717MOL0     C96671   0.373   5.540   2.853  0.3436  0.0567 -0.3997
  717MOL0     C96672   0.470   5.425   2.868 -0.3417  0.5604 -0.1258
  717MOL0     C96673   0.479   5.396   3.023 -0.5965 -0.0145 -0.1871
  717MOL0     C96674   0.587   5.284   3.049 -0.1201  0.0738  0.3086
  717MOL0     C96675   0.628   5.255   3.191  0.7483 -0.0571 -0.8554
  717MOL0     C96676   0.718   5.368   3.242  0.3150  0.1768  0.4062
  717MOL0     N96677   0.771   5.351   3.377 -0.6195  0.6021  0.1127
  717MOL0     C96678   0.732   5.411   3.483  0.5749 -0.2360  0.2584
  717MOL0     C96679   0.789   5.336   3.583  0.1699  0.1664  0.8491
  717MOL0     C96680   0.781   5.358   3.728  0.3197 -0.3651 -0.5361
  717MOL0     C96681   0.643   5.358   3.791 -0.1629  0.8254  0.2196
  717MOL0     C96682   0.565   5.230   3.761  0.2183  0.1971  0.0311
  717MOL0     C96683   0.428   5.241   3.822  0.4812  0.6903  0.3565
  717MOL0     O96684   0.404   5.131   3.912 -0.2576  0.3599 -0.5025
  717MOL0     C96685   0.282   5.070   3.904 -0.5114 -0.8800  0.3233
  717MOL0     C96686   0.280   4.933   3.936 -0.4761 -0.2910  0.4350
  717MOL0     C96687   0.172   4.852   3.929 -0.0163 -0.0426 -0.2858
  717MOL0     C96688   0.051   4.916   3.889  0.3648  0.1213  0.2945
  717MOL0     C96689  -0.070   4.826   3.882 -1.0169  0.0654 -0.4215
  717MOL0     O96690  -0.186   4.888   3.880  0.0381 -0.0183  0.1619
  717MOL0     C96691  -0.295   4.804   3.864 -0.0741  0.4162 -0.0985
  717MOL0     C96692  -0.336   4.720   3.971 -0.5277 -0.1092  0.3135
  717MOL0     C96693  -0.447   4.644   3.952  0.2266 -0.4769 -0.5212
  717MOL0     C96694  -0.533   4.641   3.837 -0.5826  0.1845 -0.2804
  717MOL0     O96695  -0.651   4.577   3.849  0.3519 -0.2485 -0.3287
  717MOL0     C96696  -0.739   4.598   3.739 -0.5793  0.2124  0.7834
  717MOL0     C96697  -0.876   4.574   3.783  0.0326  0.9763  0.3048
  717MOL0     C96698  -0.978   4.609   3.671  0.3581 -0.3078 -0.2429
  717MOL0     C96699  -1.035   4.747   3.698 -0.1784  0.3232  0.2326
  717MOL0     C96700  -1.152   4.785   3.612 -0.0104 -0.4976  0.5713
  717MOL0     C96701  -1.240   4.882   3.689  0.5820  0.7455  0.1667
  717MOL0     C96702  -1.352   4.931   3.594  0.9203 -0.2478 -0.2031
  717MOL0     C96703  -1.417   5.057   3.642  0.1125 -0.6219 -0.0091
  717MOL0    Cl96704  -1.560   5.044   3.755  0.0061 -0.2701 -0.2192
  717MOL0     C96705  -0.480   4.725   3.735 -0.6063 -0.6138  0.0173
  717MOL0     C96706  -0.367   4.802   3.752  0.4343 -0.1441  0.0854
  717MOL0     O96707  -0.052   4.706   3.862 -0.9722 -0.0545 -0.7359
  717MOL0     C96708   0.047   5.052   3.852  0.3660  0.2746 -0.3810
  717MOL0     C96709   0.158   5.132   3.863 -0.0046  0.2233  0.0839
  717MOL0     N96710   0.850   5.225   3.529  0.0300  0.2662 -0.9923
  717MOL0     N96711   0.844   5.239   3.404  0.3493 -0.1239 -0.0069
  717MOL0     C96712  -0.008   5.731   2.541 -1.2988 -0.2605 -0.9782
  717MOL0     C96713  -0.096   5.823   2.476 -0.3267  0.5618 -0.2359
  717MOL0     C96714  -0.204   6.161   2.213  0.2992 -0.4871  0.0809
  717MOL0     C96715  -0.342   6.139   2.208  0.3894 -0.1194  0.0335
  717MOL0     C96716  -0.441   6.223   2.165 -0.7731 -0.3254 -0.5352
  717MOL0     C96717  -0.399   6.349   2.120  1.0620 -0.1286 -0.2400
  717MOL0     O96718  -0.479   6.435   2.047  0.6944  0.7016  0.0253
  717MOL0     C96719  -0.613   6.397   2.027  0.1182  0.0634 -0.2359
  717MOL0     C96720  -0.698   6.479   2.129 -0.1554  0.7651 -0.0436
  717MOL0     C96721  -0.843   6.456   2.156  0.6482 -0.0856  0.3444
  717MOL0     C96722  -0.935   6.516   2.051 -0.2666  0.2163 -0.3893
  717MOL0     C96723  -1.075   6.527   2.102 -0.0103 -0.4460 -0.1734
  717MOL0     C96724  -1.189   6.543   2.151 -0.4753 -1.1940 -0.4454
  717MOL0     C96725  -0.262   6.385   2.128  0.2718 -0.4101  0.2390
  717MOL0     C96726  -0.164   6.300   2.172  0.1813  0.4457 -0.6364
  717MOL0     C96727  -0.019   6.350   2.175  0.2926 -0.5945  0.1776
  717MOL0     H96728   0.039   5.798   2.169 -1.1747 -1.4631 -0.2287
  717MOL0     H96729   0.200   5.646   2.287  1.2329 -1.4542  3.1838
  717MOL0     H96730   0.242   5.732   2.674 -1.4128  0.6614  2.2685
  717MOL0     H96731   0.134   5.606   2.739 -1.8182  1.1618 -1.3952
  717MOL0     H96732   0.428   5.583   2.653 -1.0399 -0.7431 -1.7947
  717MOL0     H96733   0.312   5.445   2.666 -0.9923 -0.4325  0.8046
  717MOL0     H96734   0.283   5.516   2.910 -0.1543 -0.8769 -1.5330
  717MOL0     H96735   0.417   5.636   2.880 -0.8087  1.1419 -2.1980
  717MOL0     H96736   0.432   5.338   2.813  3.8889 -0.7511 -1.3768
  717MOL0     H96737   0.570   5.441   2.826 -0.4745  0.7142 -0.3775
  717MOL0     H96738   0.513   5.488   3.071  0.7525 -0.6903  0.1963
  717MOL0     H96739   0.383   5.361   3.064  0.1108 -0.7847  0.8634
  717MOL0     H96740   0.555   5.189   3.006  0.5875  0.3822 -0.9607
  717MOL0     H96741   0.673   5.307   2.985 -0.1495 -0.7943 -0.0536
  717MOL0     H96742   0.680   5.160   3.203  2.9695  1.1681 -0.3217
  717MOL0     H96743   0.540   5.260   3.256 -0.9487  5.2463 -2.9629
  717MOL0     H96744   0.796   5.374   3.164 -0.8601  0.5221 -0.7829
  717MOL0     H96745   0.667   5.465   3.238 -1.2555 -0.5511  1.7111
  717MOL0     H96746   0.681   5.505   3.501  1.8431  0.5672 -0.2266
  717MOL0     H96747   0.852   5.296   3.784  1.6842  1.1899 -0.4833
  717MOL0     H96748   0.803   5.464   3.734 -1.0562 -0.0844 -0.0569
  717MOL0     H96749   0.656   5.362   3.900  0.7830 -1.6873  0.2598
  717MOL0     H96750   0.578   5.440   3.757 -1.0035 -0.1454 -0.5879
  717MOL0     H96751   0.607   5.148   3.819 -1.4227  0.9434  2.4135
  717MOL0     H96752   0.563   5.215   3.652 -0.0800 -0.7698  0.1632
  717MOL0     H96753   0.351   5.241   3.745 -0.4594 -2.4633  1.1650
  717MOL0     H96754   0.411   5.333   3.879  0.8068 -0.1129  1.8133
  717MOL0     H96755   0.373   4.881   3.958 -1.3725 -1.3941  1.8230
  717MOL0     H96756   0.175   4.747   3.953  0.0425 -0.5904 -2.5138
  717MOL0     H96757  -0.285   4.717   4.066  1.8484 -1.0507 -0.9250
  717MOL0     H96758  -0.475   4.584   4.038  3.6296 -2.8135 -0.8322
  717MOL0     H96759  -0.747   4.700   3.700  0.0069  0.1698  0.5559
  717MOL0     H96760  -0.703   4.526   3.665  0.2185  0.5098  0.8779
  717MOL0     H96761  -0.879   4.466   3.800  3.5030  0.6145 -0.6587
  717MOL0     H96762  -0.894   4.628   3.876  0.1476  0.2707  0.7480
  717MOL0     H96763  -0.944   4.588   3.569  2.4515 -1.0614  0.5553
  717MOL0     H96764  -1.061   4.540   3.682 -0.0474  0.3774  1.2583
  717MOL0     H96765  -0.960   4.826   3.704 -1.4385  1.5158  1.3152
  717MOL0     H96766  -1.072   4.744   3.801 -0.3838 -0.9808  0.1337
  717MOL0     H96767  -1.210   4.694   3.593  0.1598 -1.3272  3.5546
  717MOL0     H96768  -1.113   4.827   3.519  0.7745  0.6359  1.3791
  717MOL0     H96769  -1.278   4.832   3.778 -0.2698  2.7984  1.0382
  717MOL0     H96770  -1.185   4.965   3.735  1.2016 -0.1622  1.0873
  717MOL0     H96771  -1.433   4.860   3.579 -0.4534  1.4799 -1.2850
  717MOL0     H96772  -1.311   4.946   3.494  0.3729 -0.3076 -0.4375
  717MOL0     H96773  -1.348   5.129   3.688  1.6709 -1.2558 -1.2705
  717MOL0     H96774  -1.454   5.110   3.554 -0.4982 -1.2018 -0.1096
  717MOL0     H96775  -0.518   4.731   3.634  2.2305  0.4748 -1.0923
  717MOL0     H96776  -0.343   4.864   3.667 -1.0895  0.1259 -0.1715
  717MOL0     H96777  -0.044   5.097   3.812 -0.0634  0.0203  0.2832
  717MOL0     H96778   0.156   5.236   3.834 -0.9143 -0.0708 -0.9389
  717MOL0     H96779  -0.008   5.723   2.649  1.6426 -1.0525 -0.9399
  717MOL0     H96780  -0.178   5.873   2.527  0.4767  0.6009  1.0832
  717MOL0     H96781  -0.378   6.044   2.245 -0.1507  0.8823  2.2045
  717MOL0     H96782  -0.542   6.187   2.172 -1.3156  1.3482  1.4372
  717MOL0     H96783  -0.642   6.292   2.041 -0.4541  0.1858 -0.4652
  717MOL0     H96784  -0.635   6.424   1.923  1.5268  1.2945 -0.2432
  717MOL0     H96785  -0.685   6.586   2.109 -0.0689  0.5403 -1.3039
  717MOL0     H96786  -0.643   6.467   2.222 -1.4168 -1.2095  0.5075
  717MOL0     H96787  -0.866   6.503   2.252  1.3510  0.2880  0.3354
  717MOL0     H96788  -0.860   6.349   2.168  2.8673 -0.3543  1.7304
  717MOL0     H96789  -0.906   6.615   2.016  2.0490 -0.6267 -1.0547
  717MOL0     H96790  -0.919   6.448   1.967 -2.2114  0.6810 -1.1781
  717MOL0     H96791  -1.280   6.554   2.207  0.9320 -1.0656  1.9373
  717MOL0     H96792  -0.236   6.473   2.069  0.9224 -2.5543 -2.9166
  717MOL0     H96793  -0.004   6.440   2.114 -2.1513 -1.4527 -1.8153
  717MOL0     H96794   0.008   6.370   2.280 -1.0987 -1.6891  0.7740
  717MOL0     H96795   0.056   6.279   2.139  0.5249 -0.9509  1.3145
  718MOL0     O96796   7.542   8.119   0.791  0.2595 -0.2091 -0.3241
  718MOL0     C96797   7.436   8.082   0.832 -0.5828  0.8759 -0.7510
  718MOL0     O96798   7.418   8.007   0.950 -0.7875 -0.3859 -0.3994
  718MOL0     C96799   7.519   7.983   1.034 -0.7076  0.1885  0.2385
  718MOL0     C96800   7.624   7.900   0.993 -0.6167  0.7611  0.2686
  718MOL0     C96801   7.727   7.856   1.081  0.2672 -0.1920 -0.1306
  718MOL0     C96802   7.729   7.912   1.205  0.2895 -0.7843 -0.9434
  718MOL0     O96803   7.829   7.872   1.296  0.2968  0.0476  0.1656
  718MOL0     C96804   7.943   7.951   1.304 -1.1230  1.4441  0.3015
  718MOL0     C96805   8.042   7.874   1.406 -0.9466  0.1231  0.5449
  718MOL0     C96806   8.114   7.769   1.329 -0.7044 -0.4418  0.0313
  718MOL0     C96807   8.231   7.811   1.239  0.2473 -0.8037  0.6650
  718MOL0     C96808   8.352   7.867   1.313 -1.0401 -0.2101  0.1706
  718MOL0     C96809   8.464   7.883   1.213  0.1929  1.3792  0.4671
  718MOL0     C96810   8.544   7.759   1.155  0.0209  0.3902 -0.3372
  718MOL0     C96811   8.654   7.703   1.249  0.7710  0.3143 -0.2880
  718MOL0     N96812   8.782   7.776   1.237  0.0217  0.2655 -0.8448
  718MOL0     C96813   8.858   7.822   1.333  0.7848 -0.0193 -0.2118
  718MOL0     C96814   8.969   7.848   1.274 -0.3479 -0.2187  1.1959
  718MOL0     C96815   9.094   7.905   1.339  0.2684  0.8320  0.0904
  718MOL0     C96816   9.192   7.793   1.381  0.1756  1.0611  0.4137
  718MOL0     C96817   9.293   7.848   1.477  0.2857 -0.6654  0.2269
  718MOL0     C96818   9.384   7.960   1.430 -0.3112 -0.0076  0.4405
  718MOL0     O96819   9.488   7.990   1.522  0.9512 -0.3126  0.1970
  718MOL0     C96820   9.579   7.898   1.571  0.0702 -0.5431 -0.4525
  718MOL0     C96821   9.632   7.939   1.694 -0.4804  0.2224 -0.4435
  718MOL0     C96822   9.724   7.857   1.760  0.1524  0.1927 -0.0593
  718MOL0     C96823   9.774   7.741   1.697 -0.4272 -0.2272  0.4628
  718MOL0     C96824   9.868   7.654   1.761 -0.0329 -0.2844  0.5964
  718MOL0     O96825   9.944   7.704   1.862 -0.3801  0.4067 -0.4592
  718MOL0     C96826  10.046   7.635   1.919 -0.0411  1.0355 -0.0477
  718MOL0     C96827  10.154   7.708   1.962 -0.4927 -0.0505 -0.8043
  718MOL0     C96828  10.263   7.651   2.037 -0.0266 -0.4343  0.6454
  718MOL0     C96829  10.272   7.517   2.062 -0.9452 -0.2064  0.5674
  718MOL0     O96830  10.384   7.486   2.133 -0.2471  0.6289  0.2425
  718MOL0     C96831  10.426   7.351   2.164  0.1740 -0.5921 -0.1611
  718MOL0     C96832  10.585   7.338   2.166 -0.6229 -0.4122  0.9084
  718MOL0     C96833  10.636   7.316   2.308  0.1268 -1.1138  1.0521
  718MOL0     C96834  10.792   7.322   2.314 -0.0440  0.1036  0.5365
  718MOL0     C96835  10.844   7.250   2.440  0.6743 -0.2328  0.2066
  718MOL0     C96836  10.996   7.246   2.448  0.2139  1.1543 -0.4987
  718MOL0     C96837  11.046   7.375   2.519 -0.2321 -0.8447 -0.1683
  718MOL0     C96838  11.203   7.399   2.508  0.4356  0.4119 -0.1752
  718MOL0    Cl96839  11.284   7.251   2.575  0.4968 -0.1341 -0.3329
  718MOL0     C96840  10.163   7.435   2.017 -0.3755  0.2991  0.3523
  718MOL0     C96841  10.053   7.491   1.946 -0.4158 -0.8070 -0.3120
  718MOL0     O96842   9.875   7.536   1.723  0.0959 -0.1525  0.1266
  718MOL0     C96843   9.715   7.711   1.575 -0.1788  0.9972  0.4650
  718MOL0     C96844   9.611   7.779   1.509  0.3731 -0.1225 -0.7703
  718MOL0     N96845   8.967   7.813   1.139 -0.9802 -0.2750 -0.3592
  718MOL0     N96846   8.851   7.763   1.121 -0.5549 -0.1104 -0.2119
  718MOL0     C96847   7.624   7.992   1.245  0.0570  0.3222  0.7155
  718MOL0     C96848   7.529   8.038   1.158 -0.2660  0.8870 -0.2179
  718MOL0     C96849   7.327   8.100   0.748 -0.3882  0.5251  0.2970
  718MOL0     C96850   7.324   8.215   0.675  0.0442  0.3589  0.5908
  718MOL0     C96851   7.217   8.254   0.602  0.4578 -0.0514  0.4910
  718MOL0     C96852   7.100   8.181   0.602  0.5689  0.1695  0.5230
  718MOL0     O96853   6.979   8.204   0.542  0.3769 -0.4906  0.1471
  718MOL0     C96854   6.956   8.309   0.439  0.0208 -0.3192  0.0396
  718MOL0     C96855   6.945   8.448   0.489  0.3396 -0.4270 -1.1864
  718MOL0     C96856   6.890   8.464   0.636 -0.2326  0.7912  0.0063
  718MOL0     C96857   6.853   8.611   0.665 -0.5456 -0.1943  0.0878
  718MOL0     C96858   6.731   8.661   0.599  0.2528 -0.7134  0.8479
  718MOL0     C96859   6.637   8.703   0.531 -0.2448 -1.0051  0.1708
  718MOL0     C96860   7.093   8.075   0.686  0.3308 -0.2028 -0.6619
  718MOL0     C96861   7.210   8.021   0.753  0.0809 -0.9102  0.2261
  718MOL0     C96862   7.186   7.892   0.825 -0.1012 -0.2017 -0.0151
  718MOL0     H96863   7.629   7.864   0.891  0.4090 -1.1659  0.9504
  718MOL0     H96864   7.795   7.780   1.044 -1.6895 -1.3190 -1.5915
  718MOL0     H96865   7.994   7.976   1.211 -1.3577 -0.1866 -0.2858
  718MOL0     H96866   7.924   8.045   1.357 -0.6680  0.8116  1.6440
  718MOL0     H96867   7.989   7.832   1.491  1.2127 -0.5348  1.6180
  718MOL0     H96868   8.110   7.947   1.453 -1.5966  0.7461  0.5352
  718MOL0     H96869   8.043   7.715   1.266  0.7482 -4.1052  1.2309
  718MOL0     H96870   8.160   7.703   1.404 -0.5522  0.3307  0.6271
  718MOL0     H96871   8.267   7.720   1.189  0.4559  0.0851 -0.8842
  718MOL0     H96872   8.195   7.895   1.178 -2.0652 -1.2413  1.3672
  718MOL0     H96873   8.332   7.953   1.377 -0.6258  0.5233 -0.6830
  718MOL0     H96874   8.392   7.798   1.389 -1.4142 -1.4126 -0.6821
  718MOL0     H96875   8.426   7.937   1.126 -0.0426  1.2759  0.5045
  718MOL0     H96876   8.538   7.942   1.269  0.6380  0.2517  1.0957
  718MOL0     H96877   8.597   7.781   1.062 -0.3460  2.0315 -0.2036
  718MOL0     H96878   8.472   7.678   1.142  0.5670 -0.7757  2.9049
  718MOL0     H96879   8.617   7.711   1.352  1.3863 -1.1190  0.0613
  718MOL0     H96880   8.657   7.595   1.238 -0.3258  0.0356  1.6506
  718MOL0     H96881   8.832   7.817   1.438  1.7519 -0.3613  0.0197
  718MOL0     H96882   9.139   7.971   1.264 -0.6084  1.5149  0.1528
  718MOL0     H96883   9.065   7.966   1.424  0.9933 -0.3964  1.2703
  718MOL0     H96884   9.140   7.708   1.426  1.4737  1.4626  2.8194
  718MOL0     H96885   9.253   7.762   1.296 -1.2225 -1.7598  0.2972
  718MOL0     H96886   9.360   7.764   1.497  0.6522 -0.4334 -0.0234
  718MOL0     H96887   9.240   7.877   1.568 -0.0922  1.2487 -0.5447
  718MOL0     H96888   9.316   8.041   1.401 -1.9012 -1.8594 -1.4155
  718MOL0     H96889   9.431   7.926   1.337 -1.5267 -3.0755  0.8178
  718MOL0     H96890   9.596   8.027   1.745 -1.1098 -0.7327  0.8300
  718MOL0     H96891   9.749   7.867   1.866 -0.2518 -4.2924  0.6436
  718MOL0     H96892  10.155   7.816   1.951  0.2207  0.3507  2.1603
  718MOL0     H96893  10.343   7.713   2.075 -0.6187  1.8247 -1.5038
  718MOL0     H96894  10.392   7.325   2.265  1.0357  0.6870  0.4877
  718MOL0     H96895  10.376   7.286   2.092 -4.3853  1.1501  1.1158
  718MOL0     H96896  10.624   7.256   2.105  1.6806  3.6257 -3.7256
  718MOL0     H96897  10.615   7.427   2.109 -2.9654  0.4966  0.9688
  718MOL0     H96898  10.603   7.392   2.379  1.0199 -2.0858  2.5602
  718MOL0     H96899  10.629   7.211   2.338  0.7181 -1.5849 -0.3910
  718MOL0     H96900  10.815   7.428   2.318  1.4500 -0.0466 -1.8918
  718MOL0     H96901  10.843   7.282   2.225  1.8471 -0.7561  1.9356
  718MOL0     H96902  10.821   7.143   2.433  0.8465 -0.1725 -3.4380
  718MOL0     H96903  10.807   7.300   2.530 -1.2274  0.2764 -0.8069
  718MOL0     H96904  11.019   7.153   2.502  2.7493  1.4272 -1.0023
  718MOL0     H96905  11.042   7.234   2.350  0.8909 -1.0959  0.0296
  718MOL0     H96906  11.022   7.384   2.625  1.9526  1.8879  0.2110
  718MOL0     H96907  10.992   7.462   2.482  2.0982  0.4564 -0.7158
  718MOL0     H96908  11.225   7.403   2.401  4.9841 -1.0363  0.5194
  718MOL0     H96909  11.243   7.492   2.548  0.8827  0.2176 -0.1681
  718MOL0     H96910  10.163   7.330   2.043  1.8731  0.4207  1.0955
  718MOL0     H96911   9.967   7.429   1.924  0.0576 -1.5955  0.0129
  718MOL0     H96912   9.738   7.615   1.528 -1.0420  0.3570  1.3160
  718MOL0     H96913   9.569   7.749   1.413  0.4133 -1.4943 -0.3829
  718MOL0     H96914   7.620   8.023   1.349 -0.6478  0.3378  0.6887
  718MOL0     H96915   7.444   8.092   1.197 -1.0820 -1.3646  1.3408
  718MOL0     H96916   7.405   8.287   0.674 -2.1067  2.9663  1.9744
  718MOL0     H96917   7.221   8.342   0.538  0.6367 -1.2904 -1.2600
  718MOL0     H96918   6.865   8.275   0.388  0.6396 -2.1581  0.0720
  718MOL0     H96919   7.031   8.299   0.359  2.7543 -1.8520  2.5779
  718MOL0     H96920   6.880   8.499   0.416 -1.0412 -0.8270 -0.2759
  718MOL0     H96921   7.040   8.500   0.475  1.0386 -1.4042 -0.1828
  718MOL0     H96922   6.974   8.432   0.698  0.9243  2.3172 -0.7175
  718MOL0     H96923   6.802   8.401   0.653  0.0203  0.2940 -0.4868
  718MOL0     H96924   6.830   8.611   0.772 -0.4560 -1.8820  0.1337
  718MOL0     H96925   6.943   8.670   0.643  0.8847 -2.5008 -0.6590
  718MOL0     H96926   6.560   8.761   0.484  2.2401  1.5676 -1.0264
  718MOL0     H96927   7.000   8.020   0.695 -1.4994  2.6399 -1.2262
  718MOL0     H96928   7.098   7.838   0.787 -1.4189  1.6734  0.2217
  718MOL0     H96929   7.268   7.820   0.832  0.6114  0.5158 -0.8747
  718MOL0     H96930   7.167   7.920   0.929  1.6886  1.4152 -0.0723
  719MOL0     O96931   6.139   5.532   0.561  0.3013  0.4220 -0.1346
  719MOL0     C96932   6.093   5.482   0.451  0.4914 -0.7979 -0.1768
  719MOL0     O96933   6.160   5.387   0.379  0.7485 -0.3235  0.7436
  719MOL0     C96934   6.262   5.332   0.442 -0.3125  0.5727 -0.7985
  719MOL0     C96935   6.264   5.278   0.569 -0.9713 -0.1011 -0.2406
  719MOL0     C96936   6.381   5.226   0.623 -0.9078 -0.2602  0.0442
  719MOL0     C96937   6.498   5.217   0.554 -0.2417 -0.4047 -0.1961
  719MOL0     O96938   6.601   5.150   0.623 -0.0054 -0.5752 -0.6731
  719MOL0     C96939   6.715   5.105   0.558 -0.0840  0.3608  1.0654
  719MOL0     C96940   6.844   5.170   0.620 -0.2091  0.4427  0.0789
  719MOL0     C96941   6.970   5.118   0.557  0.4417  0.0762 -0.0025
  719MOL0     C96942   7.094   5.192   0.611 -0.5395  0.4990  0.1427
  719MOL0     C96943   7.233   5.124   0.575  0.4655  0.2470 -0.8089
  719MOL0     C96944   7.363   5.194   0.626 -0.0939 -1.0353  0.2607
  719MOL0     C96945   7.379   5.332   0.561  0.0851 -0.3590  0.1169
  719MOL0     C96946   7.374   5.346   0.405  0.6696  0.1892  0.6360
  719MOL0     N96947   7.509   5.334   0.349  0.6494  0.1685 -0.1011
  719MOL0     C96948   7.592   5.227   0.356 -0.4327  0.7026 -0.6411
  719MOL0     C96949   7.712   5.266   0.314 -0.6349 -0.0831 -0.5401
  719MOL0     C96950   7.832   5.175   0.315  0.4895 -0.0248  0.0149
  719MOL0     C96951   7.966   5.235   0.339 -0.0489 -0.3096 -0.4559
  719MOL0     C96952   8.014   5.322   0.222  0.5680  0.3227 -0.5227
  719MOL0     C96953   8.163   5.351   0.215  0.5309 -0.7577 -0.4809
  719MOL0     O96954   8.248   5.225   0.224 -0.3419  0.2123 -0.5841
  719MOL0     C96955   8.382   5.242   0.252  0.2187  0.2398  0.1120
  719MOL0     C96956   8.445   5.131   0.308 -0.0442  0.3388 -0.7076
  719MOL0     C96957   8.579   5.132   0.346 -0.4878 -0.2126  0.3897
  719MOL0     C96958   8.662   5.243   0.321  0.0608  0.6854  0.3670
  719MOL0     C96959   8.811   5.232   0.361  0.3705  0.3969  0.1900
  719MOL0     O96960   8.856   5.107   0.349 -0.5087  0.2412 -1.0094
  719MOL0     C96961   8.977   5.065   0.398  0.4376  0.5703  0.0513
  719MOL0     C96962   9.027   4.952   0.333  0.1752  0.8180  0.0322
  719MOL0     C96963   9.150   4.900   0.370  0.2219  0.1825  0.7601
  719MOL0     C96964   9.231   4.968   0.468  0.3033 -0.0807  0.5346
  719MOL0     O96965   9.347   4.907   0.503  0.1392  0.1267  0.4417
  719MOL0     C96966   9.458   5.000   0.508 -0.4956 -0.0611 -0.1614
  719MOL0     C96967   9.568   4.926   0.590 -0.2503 -0.3196  0.0963
  719MOL0     C96968   9.620   4.807   0.523  0.0725  1.4435 -0.4188
  719MOL0     C96969   9.713   4.843   0.407 -0.6226  0.3979  0.2167
  719MOL0     C96970   9.732   4.723   0.316 -0.2235 -0.3640 -0.3500
  719MOL0     C96971   9.837   4.750   0.218 -0.0601 -0.4180  0.3186
  719MOL0     C96972   9.903   4.624   0.172 -0.5955  0.2302 -0.1502
  719MOL0     C96973  10.012   4.653   0.069 -0.1921  0.7546  0.9601
  719MOL0    Cl96974  10.096   4.495   0.023  0.1117  0.0337  0.2199
  719MOL0     C96975   9.177   5.078   0.529 -0.5068 -0.4682  0.4948
  719MOL0     C96976   9.047   5.121   0.505  0.6084 -0.4123  0.0536
  719MOL0     O96977   8.878   5.332   0.394  0.1936 -0.7610 -0.0884
  719MOL0     C96978   8.601   5.365   0.274  0.3238  0.4126 -0.0457
  719MOL0     C96979   8.464   5.362   0.248  0.2778  0.2362  0.5745
  719MOL0     N96980   7.704   5.405   0.275 -0.5167  1.0050 -0.4742
  719MOL0     N96981   7.584   5.438   0.304 -0.8134  0.0814  0.6966
  719MOL0     C96982   6.495   5.265   0.419 -0.2210 -0.4717  0.0767
  719MOL0     C96983   6.375   5.323   0.363  0.2823 -0.0711  0.0923
  719MOL0     C96984   5.974   5.537   0.387  0.1206 -0.4851 -0.4074
  719MOL0     C96985   5.957   5.502   0.251  0.1828  0.8811  0.2675
  719MOL0     C96986   5.849   5.555   0.177  0.5048  0.2394 -0.2289
  719MOL0     C96987   5.744   5.621   0.236 -0.3899 -0.2838  0.2376
  719MOL0     O96988   5.629   5.661   0.176 -0.1970 -0.1727  0.5377
  719MOL0     C96989   5.618   5.643   0.038  0.6556  0.1374  0.8534
  719MOL0     C96990   5.498   5.720  -0.028  0.3597 -0.6843 -0.4835
  719MOL0     C96991   5.363   5.640  -0.019 -0.6856 -0.0308 -0.2112
  719MOL0     C96992   5.301   5.648   0.123 -0.1940 -0.1681  0.3111
  719MOL0     C96993   5.278   5.790   0.163 -1.0025 -0.3089 -0.4107
  719MOL0     C96994   5.253   5.904   0.206  0.3134  0.3010  0.2216
  719MOL0     C96995   5.756   5.652   0.369  0.0939  1.0166 -0.6438
  719MOL0     C96996   5.867   5.605   0.445  0.5844 -0.0553 -0.0840
  719MOL0     C96997   5.860   5.641   0.597  0.2114 -0.4120  1.0936
  719MOL0     H96998   6.178   5.302   0.631  0.3929  2.5686  0.7977
  719MOL0     H96999   6.393   5.200   0.728 -2.3707  1.2244  0.6182
  719MOL0     H97000   6.724   4.997   0.574  3.3957  0.5887  1.6059
  719MOL0     H97001   6.709   5.135   0.453  1.8512  1.7669  1.2948
  719MOL0     H97002   6.857   5.153   0.727 -0.1539  1.8387  0.3122
  719MOL0     H97003   6.848   5.279   0.608  1.6866  0.7563  2.6046
  719MOL0     H97004   6.957   5.124   0.448 -2.8256 -0.7412  0.2447
  719MOL0     H97005   6.986   5.010   0.571 -0.1597  0.0898  0.8573
  719MOL0     H97006   7.090   5.294   0.574  1.2350  0.6612  0.3359
  719MOL0     H97007   7.088   5.199   0.719  2.2690 -3.5817  0.8333
  719MOL0     H97008   7.233   5.029   0.629 -0.9821 -0.8681 -2.6540
  719MOL0     H97009   7.250   5.090   0.473 -1.4448  0.9837 -1.4109
  719MOL0     H97010   7.361   5.206   0.735 -3.2630  0.0576  0.1930
  719MOL0     H97011   7.449   5.130   0.607  1.5326  0.8758  0.7863
  719MOL0     H97012   7.464   5.390   0.597 -0.6982  0.3737  0.8298
  719MOL0     H97013   7.291   5.392   0.586 -0.2896 -1.3708  1.3242
  719MOL0     H97014   7.301   5.269   0.377 -0.3926  1.0906  0.8801
  719MOL0     H97015   7.333   5.443   0.375 -1.4681 -0.9215 -0.2183
  719MOL0     H97016   7.576   5.131   0.403  0.2436  0.0688 -1.6617
  719MOL0     H97017   7.809   5.090   0.380  0.0955  1.2386  1.6041
  719MOL0     H97018   7.840   5.135   0.213  0.0586  2.0066 -0.8772
  719MOL0     H97019   7.966   5.305   0.423 -1.9421 -1.1672  0.3228
  719MOL0     H97020   8.043   5.162   0.367  2.0497  1.6835 -0.7356
  719MOL0     H97021   7.954   5.413   0.224 -0.4822 -0.3631  1.0422
  719MOL0     H97022   7.992   5.261   0.133  0.6214 -1.8601  0.8788
  719MOL0     H97023   8.203   5.429   0.280 -0.2062  0.3813 -1.3436
  719MOL0     H97024   8.186   5.381   0.112  1.8993 -0.6817 -0.1730
  719MOL0     H97025   8.397   5.033   0.313  1.0840 -0.1544  2.1270
  719MOL0     H97026   8.615   5.041   0.393  0.8562  0.1212  0.0464
  719MOL0     H97027   8.965   4.900   0.260 -1.2973  1.2657  0.9341
  719MOL0     H97028   9.199   4.818   0.318 -1.2707  1.4736 -3.0613
  719MOL0     H97029   9.493   5.036   0.410 -1.0629 -0.0996 -0.3850
  719MOL0     H97030   9.430   5.092   0.559 -1.0424  1.3019 -2.7615
  719MOL0     H97031   9.652   4.992   0.612  2.2169 -2.9142 -1.0497
  719MOL0     H97032   9.525   4.909   0.689  0.3203  1.4798  0.6860
  719MOL0     H97033   9.674   4.736   0.586 -2.2093  0.0066  0.0727
  719MOL0     H97034   9.539   4.741   0.490 -0.2647  0.6323  1.8147
  719MOL0     H97035   9.804   4.881   0.455 -2.5843  0.4599  4.3618
  719MOL0     H97036   9.679   4.929   0.348  1.5403  1.7271  0.7967
  719MOL0     H97037   9.637   4.706   0.264 -1.0457  1.7209  0.3790
  719MOL0     H97038   9.747   4.630   0.371 -0.2031 -1.2498 -1.7770
  719MOL0     H97039   9.799   4.809   0.134  3.1301  1.2537 -0.1011
  719MOL0     H97040   9.911   4.811   0.270 -1.3902 -0.1645  2.0138
  719MOL0     H97041   9.825   4.556   0.136  1.5957 -2.6994  0.2540
  719MOL0     H97042   9.944   4.572   0.258 -2.5255  0.8827  1.2308
  719MOL0     H97043   9.962   4.691  -0.020 -1.5572 -1.0626  0.8696
  719MOL0     H97044  10.086   4.728   0.095 -0.0599  1.6553 -1.7404
  719MOL0     H97045   9.240   5.132   0.598 -1.4111  0.7729  0.3894
  719MOL0     H97046   9.013   5.214   0.548 -1.6659 -1.9915  1.8746
  719MOL0     H97047   8.659   5.456   0.261 -0.5069  0.5128 -3.9836
  719MOL0     H97048   8.428   5.464   0.237  2.6946  0.9175 -1.9397
  719MOL0     H97049   6.577   5.249   0.350 -0.3292 -1.6682  0.1923
  719MOL0     H97050   6.370   5.361   0.262 -1.8251  0.0805  0.2265
  719MOL0     H97051   6.035   5.451   0.195  0.9186  2.7532 -0.4954
  719MOL0     H97052   5.849   5.542   0.069 -1.2544 -4.2594  0.1202
  719MOL0     H97053   5.606   5.535   0.026  0.6818 -0.1516  2.9766
  719MOL0     H97054   5.712   5.673  -0.009  0.8345 -1.7299 -0.0591
  719MOL0     H97055   5.518   5.724  -0.135  2.6193 -2.1182 -0.2001
  719MOL0     H97056   5.483   5.824   0.002 -0.8196 -1.3185  1.3752
  719MOL0     H97057   5.366   5.533  -0.042 -0.9210 -0.1836  0.4474
  719MOL0     H97058   5.299   5.693  -0.090 -0.3293  0.3722 -0.2300
  719MOL0     H97059   5.217   5.582   0.144  0.0196  0.1092  2.2429
  719MOL0     H97060   5.381   5.612   0.189 -0.8745 -2.2798  0.0636
  719MOL0     H97061   5.224   5.998   0.249 -0.1754  0.4537 -0.4247
  719MOL0     H97062   5.677   5.715   0.409  1.2752  2.3799 -0.4035
  719MOL0     H97063   5.913   5.736   0.604 -0.3444 -0.0977  1.0867
  719MOL0     H97064   5.758   5.660   0.632  0.0967  0.9515  0.0805
  719MOL0     H97065   5.914   5.567   0.657  3.0880  2.5124  2.3630
  720MOL0     O97066   9.219   2.785   3.933  0.0156 -0.4926 -0.8522
  720MOL0     C97067   9.144   2.698   3.979  1.1389  0.1842 -0.8184
  720MOL0     O97068   9.172   2.602   4.074 -0.7824 -0.0506 -0.2577
  720MOL0     C97069   9.302   2.560   4.089 -0.5597  0.1144  0.9181
  720MOL0     C97070   9.394   2.543   3.986 -0.3536 -0.5627 -0.2330
  720MOL0     C97071   9.523   2.489   4.017 -0.4898 -0.3027 -0.1995
  720MOL0     C97072   9.568   2.464   4.147 -0.0217  0.2099 -1.0649
  720MOL0     O97073   9.691   2.424   4.193 -0.3929  0.3841  0.0626
  720MOL0     C97074   9.776   2.356   4.097 -0.3842  0.7370 -0.6491
  720MOL0     C97075   9.877   2.286   4.193  0.5937 -0.5401 -0.3937
  720MOL0     C97076   9.952   2.175   4.122  0.0814  0.2986 -0.2806
  720MOL0     C97077   9.986   2.069   4.215 -0.2006 -0.3019 -0.2242
  720MOL0     C97078  10.097   1.979   4.173  0.0358 -0.5985 -0.3739
  720MOL0     C97079  10.065   1.879   4.064 -0.7348  0.0570 -0.4309
  720MOL0     C97080  10.200   1.796   4.029 -0.0250 -0.1393  0.2817
  720MOL0     C97081  10.172   1.687   3.922  0.7263 -1.0130 -0.1438
  720MOL0     N97082  10.279   1.578   3.919 -0.3357 -0.4820 -0.4583
  720MOL0     C97083  10.384   1.584   3.833 -0.5029  0.0932  0.1821
  720MOL0     C97084  10.469   1.494   3.884  0.0138 -0.0348  0.7824
  720MOL0     C97085  10.586   1.447   3.809 -0.8152  0.1062 -0.3151
  720MOL0     C97086  10.718   1.481   3.882 -0.1227 -0.1879 -0.5143
  720MOL0     C97087  10.828   1.419   3.801  0.3346 -0.0342 -0.1631
  720MOL0     C97088  10.961   1.424   3.871 -0.5913  0.5273  0.1264
  720MOL0     O97089  10.980   1.555   3.929 -0.4262 -0.1922 -0.3372
  720MOL0     C97090  11.114   1.585   3.957 -0.2241 -0.1524  0.0142
  720MOL0     C97091  11.203   1.640   3.865 -0.3777  0.5159  0.2111
  720MOL0     C97092  11.338   1.640   3.895 -0.1421 -0.6159 -0.5185
  720MOL0     C97093  11.389   1.614   4.023  0.0160  0.3999  0.1428
  720MOL0     C97094  11.533   1.615   4.051  0.8588 -0.0261 -0.8655
  720MOL0     O97095  11.579   1.563   4.175  0.5107  0.6668 -0.5206
  720MOL0     C97096  11.685   1.612   4.248  1.2136  0.2481  0.1759
  720MOL0     C97097  11.811   1.588   4.197 -0.9893 -0.7362  0.2965
  720MOL0     C97098  11.923   1.623   4.280 -0.0056  0.0220  0.2892
  720MOL0     C97099  11.901   1.668   4.405 -0.3213 -0.4104 -0.4884
  720MOL0     O97100  12.011   1.692   4.482 -0.0414  0.2541  0.3371
  720MOL0     C97101  12.008   1.812   4.561 -0.1732 -0.5717  1.1465
  720MOL0     C97102  12.148   1.841   4.608 -0.2155  0.9403  0.7253
  720MOL0     C97103  12.225   1.725   4.690  1.0537 -0.3373  0.5949
  720MOL0     C97104  12.355   1.777   4.738  0.1936  0.6274 -0.4842
  720MOL0     C97105  12.407   1.693   4.857 -0.2356 -0.9934 -0.1295
  720MOL0     C97106  12.533   1.762   4.917 -0.1950 -0.7424  0.4204
  720MOL0     C97107  12.660   1.741   4.831 -0.5893 -0.6383 -0.6849
  720MOL0     C97108  12.785   1.696   4.923 -0.1779  0.4364  0.2041
  720MOL0    Cl97109  12.762   1.523   4.979  0.0392 -0.1663 -0.0902
  720MOL0     C97110  11.774   1.677   4.463 -0.0260  0.0581 -0.0769
  720MOL0     C97111  11.662   1.644   4.383 -0.5339  0.6670  0.3848
  720MOL0     O97112  11.599   1.683   3.979 -0.9377 -0.0076 -0.2143
  720MOL0     C97113  11.293   1.573   4.114 -0.4772  0.4315  0.4954
  720MOL0     C97114  11.160   1.551   4.082 -0.5279  0.7829  0.1477
  720MOL0     N97115  10.418   1.446   4.006  0.3962 -0.3453 -0.1259
  720MOL0     N97116  10.305   1.499   4.030 -0.0346 -0.5431  1.0341
  720MOL0     C97117   9.469   2.468   4.244  0.6573  0.0462 -0.6444
  720MOL0     C97118   9.338   2.523   4.222 -0.2463 -0.4386 -0.4290
  720MOL0     C97119   9.016   2.683   3.914  0.3574  0.8045 -0.2868
  720MOL0     C97120   8.957   2.554   3.943  0.4596  0.2576  0.5952
  720MOL0     C97121   8.834   2.520   3.877 -0.0405  0.1837 -0.5449
  720MOL0     C97122   8.770   2.621   3.798  1.2425  0.7508 -0.6980
  720MOL0     O97123   8.663   2.605   3.717  0.3712  0.6312  0.1543
  720MOL0     C97124   8.538   2.619   3.782 -0.3161  0.9388  0.3839
  720MOL0     C97125   8.420   2.621   3.677  0.7934 -0.1085 -0.5405
  720MOL0     C97126   8.290   2.666   3.743  0.7351  0.2315  0.4089
  720MOL0     C97127   8.211   2.542   3.765 -0.4821  0.3036 -0.5965
  720MOL0     C97128   8.098   2.569   3.855  0.0308  0.3477  0.1646
  720MOL0     C97129   7.995   2.582   3.925 -0.8822 -0.1558 -0.3313
  720MOL0     C97130   8.821   2.750   3.793  0.4605 -0.7546  0.2218
  720MOL0     C97131   8.945   2.783   3.843  0.1754 -0.1209  0.1281
  720MOL0     C97132   8.990   2.928   3.836 -0.3813 -0.2863 -0.8290
  720MOL0     H97133   9.376   2.582   3.886  1.1254  0.1967 -0.2279
  720MOL0     H97134   9.598   2.469   3.942 -1.1238  2.1243 -1.5928
  720MOL0     H97135   9.721   2.270   4.056  0.9440 -0.4657 -0.0130
  720MOL0     H97136   9.832   2.423   4.031  0.4213  0.3420 -0.3758
  720MOL0     H97137   9.826   2.246   4.281 -0.4316 -1.0539 -1.2000
  720MOL0     H97138   9.931   2.373   4.233 -1.1662  0.2125  0.4430
  720MOL0     H97139  10.043   2.219   4.081 -0.4066  2.1397  0.5108
  720MOL0     H97140   9.901   2.140   4.032  0.1999  3.5948 -1.7915
  720MOL0     H97141  10.019   2.106   4.312 -0.5949  5.1580 -1.8596
  720MOL0     H97142   9.899   2.005   4.235 -0.1463  0.2058  1.8531
  720MOL0     H97143  10.184   2.042   4.149 -0.5596 -0.1664 -1.4350
  720MOL0     H97144  10.126   1.921   4.261  0.6622  0.0842 -0.1144
  720MOL0     H97145   9.989   1.809   4.099 -3.4999  2.5976 -1.0444
  720MOL0     H97146  10.015   1.935   3.985 -3.6129  0.1981  1.3605
  720MOL0     H97147  10.242   1.749   4.118  1.7728  0.6267 -0.1230
  720MOL0     H97148  10.273   1.866   3.988 -0.9218 -0.0626 -1.2690
  720MOL0     H97149  10.075   1.638   3.936 -1.3239  2.7715 -0.0270
  720MOL0     H97150  10.174   1.723   3.819  3.2584 -2.7860 -0.8290
  720MOL0     H97151  10.398   1.644   3.744  1.4275 -1.6919 -0.7932
  720MOL0     H97152  10.580   1.341   3.785 -0.3540  0.3137 -1.4275
  720MOL0     H97153  10.590   1.504   3.716  1.3447  0.7689  0.1246
  720MOL0     H97154  10.729   1.589   3.892 -3.6104  0.1762  0.8914
  720MOL0     H97155  10.728   1.442   3.984  3.8808  0.3162 -0.5427
  720MOL0     H97156  10.832   1.478   3.710 -3.8813  0.4228 -0.2341
  720MOL0     H97157  10.802   1.316   3.774  0.1811  0.4028 -1.7579
  720MOL0     H97158  11.041   1.405   3.798  0.7296  2.4896  0.9717
  720MOL0     H97159  10.958   1.353   3.954 -1.8235  1.5200  0.9830
  720MOL0     H97160  11.154   1.662   3.771 -0.9750 -1.2295  0.0756
  720MOL0     H97161  11.405   1.674   3.816 -1.7027 -0.6612 -1.8983
  720MOL0     H97162  11.814   1.556   4.094  3.7944 -1.1586  0.3580
  720MOL0     H97163  12.024   1.619   4.241 -0.1775 -1.5733 -0.0534
  720MOL0     H97164  11.979   1.892   4.493  0.0308 -2.3651 -1.1551
  720MOL0     H97165  11.945   1.820   4.650  1.2021 -0.3403  2.1408
  720MOL0     H97166  12.203   1.858   4.514  0.4553 -0.5201  0.8267
  720MOL0     H97167  12.143   1.940   4.655 -0.3183  2.2274 -1.8217
  720MOL0     H97168  12.166   1.702   4.779  1.1789 -0.2015  0.7140
  720MOL0     H97169  12.223   1.628   4.641 -0.9346  0.4002 -0.9126
  720MOL0     H97170  12.331   1.873   4.784 -0.5258  0.7323 -1.0656
  720MOL0     H97171  12.429   1.786   4.657  1.7282 -0.3372  0.7507
  720MOL0     H97172  12.440   1.600   4.811  1.6500  0.1794 -1.3006
  720MOL0     H97173  12.327   1.684   4.931  0.8532 -1.4391  1.0142
  720MOL0     H97174  12.526   1.870   4.929 -0.7510  0.0023 -4.4453
  720MOL0     H97175  12.545   1.721   5.018  0.7459 -0.3218  0.4849
  720MOL0     H97176  12.698   1.832   4.784  0.3670 -0.0261  1.1383
  720MOL0     H97177  12.644   1.680   4.742 -2.6083  0.3767 -1.0870
  720MOL0     H97178  12.874   1.708   4.859  1.0121 -2.7879  1.0931
  720MOL0     H97179  12.789   1.758   5.013  1.8227  2.4742 -1.1476
  720MOL0     H97180  11.772   1.705   4.568  1.4041 -1.8758  0.5519
  720MOL0     H97181  11.558   1.640   4.413 -2.3325  3.1636 -4.4679
  720MOL0     H97182  11.333   1.554   4.213  2.6502  1.8121 -0.3676
  720MOL0     H97183  11.084   1.520   4.153 -0.7318  0.7417 -0.0870
  720MOL0     H97184   9.480   2.431   4.345 -0.7767 -4.5820 -1.9113
  720MOL0     H97185   9.261   2.523   4.299 -1.6764  0.1068 -1.8172
  720MOL0     H97186   8.994   2.484   4.017 -0.0374  0.6050  1.1822
  720MOL0     H97187   8.789   2.431   3.920  1.8074  0.4678  2.2744
  720MOL0     H97188   8.527   2.716   3.832 -1.2944  1.4597 -0.7871
  720MOL0     H97189   8.535   2.541   3.859  2.8493  0.2409 -0.0420
  720MOL0     H97190   8.416   2.527   3.623  1.7011 -1.6415  1.8903
  720MOL0     H97191   8.442   2.700   3.604 -3.6207  1.1014 -0.8352
  720MOL0     H97192   8.220   2.717   3.676 -1.1080 -3.7597 -1.0302
  720MOL0     H97193   8.304   2.713   3.841 -1.1455 -1.2415  1.4675
  720MOL0     H97194   8.174   2.496   3.673  0.6464 -0.8749 -0.4954
  720MOL0     H97195   8.270   2.468   3.820  3.6366  2.0555 -2.2495
  720MOL0     H97196   7.912   2.589   3.993 -1.9522 -0.2304 -1.6021
  720MOL0     H97197   8.775   2.820   3.724 -0.5788 -0.4065  1.2506
  720MOL0     H97198   8.915   2.991   3.788 -1.0411  0.6201  1.2481
  720MOL0     H97199   9.009   2.971   3.935  3.8441  2.2557 -2.4603
  720MOL0     H97200   9.087   2.940   3.788  0.2170 -0.2573  0.3630
  721MOL0     O97201   3.533   9.620   8.745  0.2990 -0.0805  0.0979
  721MOL0     C97202   3.434   9.570   8.799  0.7608  0.5196 -1.2239
  721MOL0     O97203   3.436   9.520   8.930  0.1535 -0.4046 -0.2104
  721MOL0     C97204   3.559   9.506   8.991  0.1898  0.0756 -0.2415
  721MOL0     C97205   3.665   9.437   8.933 -0.1189 -0.2689 -0.0234
  721MOL0     C97206   3.789   9.449   8.990 -0.3735 -0.2346 -0.9314
  721MOL0     C97207   3.821   9.515   9.111  0.5038 -0.3556  0.2027
  721MOL0     O97208   3.940   9.534   9.174 -0.3907  0.7052  0.3771
  721MOL0     C97209   4.055   9.487   9.107  0.4564 -0.7754  0.5444
  721MOL0     C97210   4.098   9.580   8.987  0.7045 -0.7118 -0.4405
  721MOL0     C97211   4.235   9.641   9.007  0.5623  0.0501 -0.6367
  721MOL0     C97212   4.306   9.679   8.874 -0.4042 -0.2176 -0.0519
  721MOL0     C97213   4.446   9.742   8.895  0.7295 -0.2316 -0.9763
  721MOL0     C97214   4.562   9.667   8.968 -0.6369  0.0810 -0.2763
  721MOL0     C97215   4.698   9.734   8.945  0.4325 -0.1987 -0.0960
  721MOL0     C97216   4.704   9.893   8.951 -0.2128 -0.2734 -0.3639
  721MOL0     N97217   4.844   9.929   8.953  0.1775 -0.1487  0.2528
  721MOL0     C97218   4.938   9.911   8.852  0.4799 -0.2636 -0.3799
  721MOL0     C97219   5.056   9.931   8.906  0.8444  0.5644  0.3425
  721MOL0     C97220   5.178   9.952   8.820 -0.3135  0.2039  0.1682
  721MOL0     C97221   5.305   9.994   8.898 -0.4777  0.2006  0.3494
  721MOL0     C97222   5.297  10.120   8.982 -0.0292  0.9975 -0.0000
  721MOL0     C97223   5.435  10.140   9.049  0.1531  0.0047 -0.3201
  721MOL0     O97224   5.545  10.175   8.957 -0.4935  0.2063  0.2408
  721MOL0     C97225   5.666  10.221   8.996  0.3510  0.9168 -0.4945
  721MOL0     C97226   5.702  10.248   9.126 -0.1166 -0.1463 -0.3562
  721MOL0     C97227   5.835  10.291   9.151  0.2862  0.0271 -0.0677
  721MOL0     C97228   5.932  10.304   9.051 -0.0453  1.5380 -0.4721
  721MOL0     C97229   6.063  10.366   9.088  0.5484  0.4733  0.0243
  721MOL0     O97230   6.144  10.406   8.987 -0.8545  0.0444 -0.2477
  721MOL0     C97231   6.253  10.483   9.021  0.6198 -0.7840  0.5358
  721MOL0     C97232   6.375  10.427   8.969  0.0770  1.1310  0.3765
  721MOL0     C97233   6.493  10.484   8.980 -0.3306 -0.6277 -0.1630
  721MOL0     C97234   6.493  10.604   9.049  0.7638  0.1549  0.1419
  721MOL0     O97235   6.603  10.686   9.053  0.2568 -0.8351 -0.2191
  721MOL0     C97236   6.737  10.633   9.065 -0.2529 -1.0804 -0.4658
  721MOL0     C97237   6.826  10.756   9.073 -0.2860  0.0999 -0.3505
  721MOL0     C97238   6.859  10.809   8.924  0.4782 -0.7042 -0.3719
  721MOL0     C97239   6.921  10.946   8.948  0.5041  0.7043  0.1070
  721MOL0     C97240   6.947  11.006   8.811  0.0238 -0.1992 -0.1107
  721MOL0     C97241   7.086  10.981   8.757  0.9023  0.5345  0.3435
  721MOL0     C97242   7.087  11.021   8.603  0.1419  0.2063  0.7662
  721MOL0     C97243   6.998  10.934   8.509  0.3670  0.9324  0.1287
  721MOL0    Cl97244   7.053  10.761   8.534  0.4618  0.0275 -0.2392
  721MOL0     C97245   6.379  10.659   9.118 -0.8389  0.5291 -0.3292
  721MOL0     C97246   6.254  10.598   9.099  0.4960 -0.0302  0.4583
  721MOL0     O97247   6.083  10.392   9.206  0.0058  0.9012  1.0601
  721MOL0     C97248   5.895  10.259   8.928  0.0792 -0.5606 -0.4628
  721MOL0     C97249   5.766  10.227   8.899  0.4737 -0.6386  1.3769
  721MOL0     N97250   5.046   9.933   9.046 -0.1661 -0.5253 -0.3680
  721MOL0     N97251   4.917   9.943   9.072  0.1557 -0.1176 -0.7948
  721MOL0     C97252   3.711   9.579   9.169 -0.5042 -0.4427 -0.2738
  721MOL0     C97253   3.578   9.575   9.116 -0.1322  0.2426  0.0014
  721MOL0     C97254   3.297   9.572   8.736  0.3691 -0.5388  0.4015
  721MOL0     C97255   3.279   9.650   8.624  0.5401  0.1197  0.0590
  721MOL0     C97256   3.154   9.681   8.571  0.0003  0.0079 -0.4752
  721MOL0     C97257   3.040   9.628   8.631 -0.1044 -0.0003  1.2081
  721MOL0     O97258   2.912   9.620   8.577 -0.4170  0.3178  0.1069
  721MOL0     C97259   2.878   9.718   8.479  0.2290 -0.1829  0.1455
  721MOL0     C97260   2.731   9.768   8.494 -0.1366  0.4267 -0.2090
  721MOL0     C97261   2.629   9.657   8.482  0.0008  0.8233  0.5676
  721MOL0     C97262   2.583   9.628   8.335 -1.1584 -0.0083 -0.3604
  721MOL0     C97263   2.665   9.531   8.270  0.0187  0.0716 -0.0070
  721MOL0     C97264   2.739   9.451   8.208  0.6326 -0.3794 -0.0542
  721MOL0     C97265   3.060   9.560   8.753  1.0159 -0.7023  0.4929
  721MOL0     C97266   3.181   9.527   8.811  0.1619 -0.7093 -0.3589
  721MOL0     C97267   3.180   9.458   8.939 -0.1744  0.1298 -0.2197
  721MOL0     H97268   3.646   9.384   8.840 -4.3893 -0.5532  0.7766
  721MOL0     H97269   3.868   9.401   8.933 -1.9044 -1.7016 -1.9062
  721MOL0     H97270   4.130   9.487   9.186  2.9006  1.1470 -1.6035
  721MOL0     H97271   4.052   9.387   9.061  0.7910 -1.2180  1.4769
  721MOL0     H97272   4.026   9.662   8.984 -1.3259 -2.4616 -2.9627
  721MOL0     H97273   4.092   9.525   8.893 -0.0329 -0.9565 -0.2529
  721MOL0     H97274   4.297   9.566   9.057  0.0441  1.4210  2.2592
  721MOL0     H97275   4.212   9.729   9.068 -0.8548 -0.8659  0.1963
  721MOL0     H97276   4.315   9.591   8.810  0.6386  0.0780 -0.3349
  721MOL0     H97277   4.241   9.736   8.808  0.2274 -0.2696 -0.7328
  721MOL0     H97278   4.485   9.767   8.795 -1.0256  1.8889 -1.2089
  721MOL0     H97279   4.426   9.834   8.951 -2.2288 -0.2602 -1.8198
  721MOL0     H97280   4.532   9.670   9.073 -0.4423 -1.2788 -0.1671
  721MOL0     H97281   4.582   9.562   8.944  1.7451  0.0394  1.5766
  721MOL0     H97282   4.728   9.699   8.846 -0.5061  0.4443 -0.6265
  721MOL0     H97283   4.768   9.689   9.016  1.7248  1.4379 -0.2665
  721MOL0     H97284   4.650   9.933   8.865  1.3834 -0.5639 -1.5371
  721MOL0     H97285   4.653   9.930   9.041  0.8041  0.8157 -0.2146
  721MOL0     H97286   4.919   9.894   8.747 -2.2492  1.5642 -0.3006
  721MOL0     H97287   5.199   9.860   8.764 -2.0491  0.4775 -1.0155
  721MOL0     H97288   5.156  10.034   8.751  0.4341  0.5626  0.3454
  721MOL0     H97289   5.349   9.914   8.959  1.0704  0.0213 -0.9269
  721MOL0     H97290   5.382  10.005   8.821 -1.6938  0.8728 -0.8082
  721MOL0     H97291   5.226  10.107   9.063  0.1007 -1.5077 -0.2166
  721MOL0     H97292   5.282  10.204   8.914  0.1503  0.7323 -0.3719
  721MOL0     H97293   5.463  10.063   9.120  1.9023  1.6534  0.8767
  721MOL0     H97294   5.411  10.223   9.117  0.3241 -1.3242  1.4304
  721MOL0     H97295   5.622  10.237   9.199 -0.9659 -1.1995 -1.4018
  721MOL0     H97296   5.851  10.319   9.255  2.9560 -1.0900 -0.0977
  721MOL0     H97297   6.376  10.338   8.905  3.4783  0.6174  0.9873
  721MOL0     H97298   6.587  10.455   8.936  0.6653  0.6939  1.0162
  721MOL0     H97299   6.746  10.577   9.159 -1.1817  2.9166  2.2750
  721MOL0     H97300   6.760  10.570   8.979 -0.4952 -1.3875 -0.3090
  721MOL0     H97301   6.780  10.835   9.133 -1.8202  1.4318 -3.0640
  721MOL0     H97302   6.924  10.726   9.112  1.0799  2.7235 -1.4483
  721MOL0     H97303   6.930  10.757   8.860  4.4340  2.9927  0.5495
  721MOL0     H97304   6.758  10.807   8.880  0.3028 -1.3021  0.0419
  721MOL0     H97305   7.011  10.952   9.010 -0.5942  2.4503  1.6371
  721MOL0     H97306   6.844  11.007   8.996 -0.3797  0.2265 -0.6913
  721MOL0     H97307   6.929  11.114   8.816 -1.2956 -0.3378 -1.1993
  721MOL0     H97308   6.870  10.972   8.742 -0.7624  1.8134 -0.2974
  721MOL0     H97309   7.158  11.045   8.808  1.8766 -0.8207  0.7280
  721MOL0     H97310   7.124  10.879   8.770  0.8549  0.2427 -1.4872
  721MOL0     H97311   7.187  11.016   8.560 -0.0349  0.9079  0.2485
  721MOL0     H97312   7.064  11.128   8.597  1.1949  0.6168  2.8395
  721MOL0     H97313   6.891  10.938   8.529 -0.0534 -1.2603 -1.3884
  721MOL0     H97314   7.021  10.965   8.407  0.0520  0.3166 -0.1331
  721MOL0     H97315   6.391  10.747   9.180 -1.4262  0.5260 -0.2058
  721MOL0     H97316   6.165  10.639   9.145 -1.0200  1.0468 -3.1150
  721MOL0     H97317   5.958  10.257   8.840  0.0341  0.4510 -0.5322
  721MOL0     H97318   5.751  10.200   8.794  0.5959 -1.8911  1.6614
  721MOL0     H97319   3.724   9.621   9.268 -1.5299 -1.8552  0.5012
  721MOL0     H97320   3.500   9.637   9.159  1.9042  0.9706  3.0107
  721MOL0     H97321   3.362   9.692   8.569  1.5378  2.3170  2.9557
  721MOL0     H97322   3.153   9.737   8.478  0.2653  2.2774  0.8340
  721MOL0     H97323   2.887   9.669   8.382 -2.6005 -3.3952  1.2830
  721MOL0     H97324   2.941   9.807   8.486 -0.8926  0.5933  0.6241
  721MOL0     H97325   2.707   9.847   8.422 -1.6466  0.4543  0.2978
  721MOL0     H97326   2.724   9.810   8.595 -2.3326 -2.3531  0.9134
  721MOL0     H97327   2.539   9.702   8.526  0.8561  2.7029  0.4767
  721MOL0     H97328   2.660   9.562   8.525  1.0471  0.1763 -1.4716
  721MOL0     H97329   2.480   9.589   8.332 -0.7081 -1.4210  1.1419
  721MOL0     H97330   2.584   9.725   8.285 -1.3682  0.8604  1.2461
  721MOL0     H97331   2.796   9.375   8.157  0.0848 -0.3788 -0.6809
  721MOL0     H97332   2.970   9.520   8.800 -0.2335  0.2186 -0.9876
  721MOL0     H97333   3.080   9.413   8.943  0.1509 -0.6123 -0.2168
  721MOL0     H97334   3.250   9.374   8.938 -0.1983  0.0902  0.6511
  721MOL0     H97335   3.189   9.528   9.023 -0.0167 -0.1836  0.0273
  722MOL0     O97336   3.947   2.538   4.823 -0.0036 -0.2881  0.1214
  722MOL0     C97337   3.855   2.593   4.764  0.1527  0.2285  0.4554
  722MOL0     O97338   3.867   2.697   4.666 -0.0791 -0.3044 -0.2633
  722MOL0     C97339   3.997   2.724   4.633 -0.4555 -0.1444 -0.0419
  722MOL0     C97340   4.060   2.826   4.710 -0.0107 -0.0127  0.6064
  722MOL0     C97341   4.192   2.867   4.677 -0.2194  0.7419  0.5526
  722MOL0     C97342   4.262   2.791   4.577 -0.6267 -0.4173  0.2856
  722MOL0     O97343   4.397   2.818   4.554 -0.4752  0.0919 -0.1196
  722MOL0     C97344   4.424   2.952   4.506 -0.2566  0.4461 -0.0047
  722MOL0     C97345   4.496   2.932   4.367  0.2707  0.0450  0.0840
  722MOL0     C97346   4.611   2.835   4.358  0.2007  0.8818 -1.1392
  722MOL0     C97347   4.668   2.797   4.221  0.1487  0.5684  0.1232
  722MOL0     C97348   4.746   2.657   4.197 -0.4378 -0.2212 -0.7498
  722MOL0     C97349   4.663   2.533   4.244  0.1678  0.1933 -1.0879
  722MOL0     C97350   4.711   2.415   4.166 -0.8495 -0.4024  1.1167
  722MOL0     C97351   4.789   2.318   4.255  0.2693 -0.5936  0.2383
  722MOL0     N97352   4.917   2.381   4.283  0.2716 -0.0622 -1.6315
  722MOL0     C97353   5.015   2.405   4.194  1.1831  0.9498 -0.2277
  722MOL0     C97354   5.095   2.493   4.258  0.2647  0.6559 -0.6018
  722MOL0     C97355   5.213   2.565   4.207 -0.1674  0.1443  0.9636
  722MOL0     C97356   5.327   2.465   4.209  0.1483  0.6157  0.2912
  722MOL0     C97357   5.455   2.523   4.159 -0.2005 -0.1422  0.2819
  722MOL0     C97358   5.569   2.435   4.206  0.1642  0.1075 -0.3773
  722MOL0     O97359   5.693   2.469   4.147  0.4682  0.2790 -0.2204
  722MOL0     C97360   5.806   2.413   4.190 -0.6994 -0.5042  0.3994
  722MOL0     C97361   5.918   2.440   4.116 -0.7572 -0.3657 -0.0438
  722MOL0     C97362   6.044   2.381   4.149 -0.4945 -0.7489 -0.0007
  722MOL0     C97363   6.055   2.295   4.252  1.1612 -0.7113 -0.7646
  722MOL0     C97364   6.182   2.223   4.280  0.4072  0.6714  0.1072
  722MOL0     O97365   6.293   2.279   4.227  0.0809  0.7015  0.0867
  722MOL0     C97366   6.412   2.227   4.263 -0.4799 -0.1303  1.1457
  722MOL0     C97367   6.465   2.221   4.391  0.2441 -0.0142  0.8517
  722MOL0     C97368   6.596   2.173   4.419 -0.9918 -0.2303  0.2139
  722MOL0     C97369   6.682   2.139   4.313  0.3992  0.6040  0.0268
  722MOL0     O97370   6.813   2.102   4.338  0.9512 -0.3244  0.6378
  722MOL0     C97371   6.867   2.089   4.466  0.2617  0.1442  0.0147
  722MOL0     C97372   7.004   2.024   4.462 -0.6757 -0.2901 -0.4165
  722MOL0     C97373   7.113   2.125   4.404  1.6326  0.1286  0.0219
  722MOL0     C97374   7.244   2.056   4.443 -0.0966 -0.2837 -0.6240
  722MOL0     C97375   7.279   1.923   4.390  0.2723  0.0931 -0.7356
  722MOL0     C97376   7.424   1.897   4.415 -0.3541  0.2750 -0.1655
  722MOL0     C97377   7.466   1.753   4.409  0.6182 -0.1562  0.3722
  722MOL0     C97378   7.618   1.737   4.357  0.5707  0.1023  0.0854
  722MOL0    Cl97379   7.617   1.767   4.182 -0.0184  0.2862 -0.2447
  722MOL0     C97380   6.635   2.166   4.189 -0.2323 -0.3899  0.4784
  722MOL0     C97381   6.504   2.210   4.160 -0.3371 -0.7910 -0.0010
  722MOL0     O97382   6.174   2.117   4.339  0.1471 -0.2259 -0.3546
  722MOL0     C97383   5.949   2.276   4.332 -0.0476  0.3682 -0.3042
  722MOL0     C97384   5.826   2.348   4.312  0.2484 -0.1833  0.5228
  722MOL0     N97385   5.058   2.488   4.388 -0.5486  0.9875 -0.2069
  722MOL0     N97386   4.953   2.434   4.407 -0.3290 -0.3232 -0.3474
  722MOL0     C97387   4.195   2.697   4.499  0.1010  0.0290  0.0787
  722MOL0     C97388   4.063   2.657   4.530 -0.4393 -0.8829  0.7747
  722MOL0     C97389   3.713   2.556   4.802 -0.1810  0.4254 -0.2729
  722MOL0     C97390   3.691   2.521   4.940 -0.3608  0.6108  0.2469
  722MOL0     C97391   3.560   2.496   4.992 -0.5808 -0.5093  0.2184
  722MOL0     C97392   3.453   2.486   4.905  0.5720 -0.5653  1.0447
  722MOL0     O97393   3.323   2.458   4.940  0.4718  0.3806 -1.0691
  722MOL0     C97394   3.297   2.495   5.083  0.2224  0.3038 -0.1758
  722MOL0     C97395   3.177   2.580   5.074  0.1213 -0.4326  0.2247
  722MOL0     C97396   3.048   2.498   5.039  0.2186  0.5414  0.9175
  722MOL0     C97397   2.915   2.578   5.048 -0.4821  0.8198  0.5601
  722MOL0     C97398   2.914   2.647   4.925 -1.4097 -0.3687 -0.3943
  722MOL0     C97399   2.917   2.702   4.812  0.6129 -0.0703  0.0472
  722MOL0     C97400   3.473   2.515   4.770 -0.4714  0.1261 -0.6731
  722MOL0     C97401   3.598   2.558   4.720  0.3030  0.2414  1.3528
  722MOL0     C97402   3.587   2.597   4.570  0.0037  0.0539 -0.8487
  722MOL0     H97403   4.009   2.865   4.798 -0.5090 -1.6075  1.0588
  722MOL0     H97404   4.250   2.938   4.735  1.1049  1.1319 -1.1405
  722MOL0     H97405   4.330   3.007   4.495 -2.4705 -3.4307 -2.9352
  722MOL0     H97406   4.487   2.995   4.584 -1.1642  6.5667 -2.0428
  722MOL0     H97407   4.526   3.033   4.337  0.7841  0.7943  2.7965
  722MOL0     H97408   4.423   2.886   4.300  3.2661 -2.5226 -1.6557
  722MOL0     H97409   4.567   2.739   4.385  0.4374 -0.1327 -3.9754
  722MOL0     H97410   4.689   2.873   4.424 -0.3580  1.6753 -0.9255
  722MOL0     H97411   4.581   2.792   4.154  1.2875  0.8603 -1.4210
  722MOL0     H97412   4.723   2.886   4.188 -1.3659  1.4092 -0.2600
  722MOL0     H97413   4.772   2.647   4.091 -1.1661 -0.4863 -0.9080
  722MOL0     H97414   4.840   2.649   4.252  1.1008  1.6231 -2.9128
  722MOL0     H97415   4.660   2.524   4.353  1.4124  1.6025 -0.9065
  722MOL0     H97416   4.563   2.545   4.200  0.0631 -5.4033 -3.1980
  722MOL0     H97417   4.771   2.443   4.079  1.2360 -0.9820  2.3192
  722MOL0     H97418   4.633   2.358   4.115 -0.0358  0.0898 -0.7810
  722MOL0     H97419   4.737   2.302   4.350 -0.6463  2.1152  0.2713
  722MOL0     H97420   4.798   2.225   4.197  3.0056 -0.3568  0.1367
  722MOL0     H97421   5.023   2.398   4.086 -0.5681  3.8559 -0.6509
  722MOL0     H97422   5.196   2.606   4.107 -2.5385 -0.3616  1.0828
  722MOL0     H97423   5.232   2.649   4.275  2.9335  0.1309  0.2516
  722MOL0     H97424   5.344   2.447   4.316  0.1897  2.1339  0.5647
  722MOL0     H97425   5.308   2.370   4.158 -0.3854  0.3916  0.8956
  722MOL0     H97426   5.471   2.621   4.206  1.5772 -1.4261  2.5826
  722MOL0     H97427   5.461   2.523   4.050 -0.8238 -3.1157  0.1630
  722MOL0     H97428   5.549   2.328   4.192 -1.3924  0.2062  0.7909
  722MOL0     H97429   5.570   2.449   4.315 -2.7744  0.4930 -0.2993
  722MOL0     H97430   5.915   2.511   4.034  2.0193 -0.5492 -0.3997
  722MOL0     H97431   6.129   2.398   4.083  1.8708 -2.4191  2.3875
  722MOL0     H97432   6.392   2.243   4.469  0.0924 -0.6107  0.8872
  722MOL0     H97433   6.626   2.166   4.523 -1.4242  2.6248  0.6081
  722MOL0     H97434   6.873   2.188   4.511 -1.7927  1.1063 -1.6873
  722MOL0     H97435   6.800   2.022   4.521 -0.6110  1.9473  1.2632
  722MOL0     H97436   7.030   1.981   4.560 -3.2685 -0.1811  0.3882
  722MOL0     H97437   7.004   1.937   4.395 -2.6389 -0.0325 -0.8219
  722MOL0     H97438   7.096   2.142   4.297 -1.1162 -2.6855 -0.1248
  722MOL0     H97439   7.108   2.212   4.469  1.0921  1.6156 -1.9199
  722MOL0     H97440   7.238   2.043   4.551  0.3210 -3.8204 -0.9206
  722MOL0     H97441   7.323   2.129   4.423 -0.4383  0.9217  2.0964
  722MOL0     H97442   7.259   1.924   4.282 -2.4370 -1.1012 -0.3247
  722MOL0     H97443   7.211   1.855   4.441 -1.3353  0.0367 -2.8099
  722MOL0     H97444   7.476   1.950   4.335  0.2096  0.4681  0.3265
  722MOL0     H97445   7.441   1.934   4.516  0.6658 -0.6866  0.0246
  722MOL0     H97446   7.391   1.697   4.352  0.0356  1.1577 -0.1859
  722MOL0     H97447   7.443   1.710   4.507  0.0996  0.9964  0.7781
  722MOL0     H97448   7.685   1.803   4.412  0.7367 -1.1059  1.3716
  722MOL0     H97449   7.661   1.640   4.381  0.3676  0.4832  2.1358
  722MOL0     H97450   6.699   2.131   4.108 -1.1919 -0.4566 -0.2617
  722MOL0     H97451   6.485   2.227   4.054 -0.9927  0.9668  0.3610
  722MOL0     H97452   5.962   2.204   4.412  2.7623  1.0723 -0.0162
  722MOL0     H97453   5.743   2.324   4.377  1.4021  1.5216  2.7531
  722MOL0     H97454   4.243   2.642   4.419 -3.2560 -2.6533 -0.3103
  722MOL0     H97455   4.020   2.578   4.469 -0.9922  0.3270 -0.4571
  722MOL0     H97456   3.773   2.526   5.011 -0.5461 -0.5399  0.5659
  722MOL0     H97457   3.550   2.497   5.100  2.8903  1.1186  0.6872
  722MOL0     H97458   3.370   2.560   5.132  2.4266 -0.5627 -2.1053
  722MOL0     H97459   3.280   2.401   5.138 -1.7645  0.5813 -0.2443
  722MOL0     H97460   3.192   2.659   5.000 -3.4517  1.7475  1.5459
  722MOL0     H97461   3.156   2.621   5.173  0.7120 -0.7634  0.4876
  722MOL0     H97462   3.056   2.402   5.092 -1.1719 -0.7555 -1.0947
  722MOL0     H97463   3.059   2.451   4.941 -0.2666 -0.8691  1.5019
  722MOL0     H97464   2.840   2.501   5.065  0.5638  0.2767  3.1941
  722MOL0     H97465   2.921   2.651   5.129  1.8403  0.2548  0.9926
  722MOL0     H97466   2.906   2.764   4.726 -2.6485  3.5893  2.7095
  722MOL0     H97467   3.385   2.513   4.707  0.9016 -0.9874 -2.6782
  722MOL0     H97468   3.690   2.592   4.534  0.5903  0.2204  0.7190
  722MOL0     H97469   3.520   2.526   4.520 -0.1300 -0.3070 -0.1652
  722MOL0     H97470   3.557   2.702   4.563 -0.8779  0.1977  3.0677
  723MOL0     O97471   3.618  10.254   5.714  1.1036 -0.2669  0.6371
  723MOL0     C97472   3.570  10.177   5.625  0.9964 -0.0316  0.7122
  723MOL0     O97473   3.613  10.056   5.599 -0.5216  0.3873  0.1910
  723MOL0     C97474   3.721   9.996   5.667  0.1423  0.0920 -0.7361
  723MOL0     C97475   3.759  10.023   5.802  0.1782 -0.4800  1.1830
  723MOL0     C97476   3.880   9.981   5.864  0.0261  0.5679  0.3474
  723MOL0     C97477   3.972   9.912   5.782  0.4808 -0.2396  0.4479
  723MOL0     O97478   4.091   9.870   5.818 -0.7894  0.0593 -0.3902
  723MOL0     C97479   4.127   9.870   5.957 -0.4894  0.3570 -0.1493
  723MOL0     C97480   4.258   9.800   5.976 -0.4902 -0.0774  0.1596
  723MOL0     C97481   4.365   9.881   5.914  0.0729 -0.3045 -1.4381
  723MOL0     C97482   4.509   9.834   5.945 -0.0665 -0.8099 -0.0162
  723MOL0     C97483   4.604   9.935   5.890  1.2722 -0.3213  0.2943
  723MOL0     C97484   4.605   9.938   5.736  0.0303  0.3235 -0.0716
  723MOL0     C97485   4.716  10.032   5.683  1.0128  1.4300  0.5340
  723MOL0     C97486   4.689  10.181   5.711  0.8331 -0.6927 -0.5685
  723MOL0     N97487   4.802  10.266   5.679 -0.2669 -0.0076  0.1365
  723MOL0     C97488   4.856  10.289   5.551 -0.5359  0.0680  0.9261
  723MOL0     C97489   4.954  10.384   5.567 -1.2804  0.6336  0.0880
  723MOL0     C97490   5.020  10.459   5.458 -0.5616 -0.6189 -0.3878
  723MOL0     C97491   5.152  10.387   5.431 -0.1187  1.1012 -0.0693
  723MOL0     C97492   5.242  10.469   5.328  0.6139  0.3659  0.3940
  723MOL0     C97493   5.399  10.478   5.355  0.1869  0.4618 -0.3609
  723MOL0     O97494   5.456  10.344   5.356  0.3556  0.0569  0.2046
  723MOL0     C97495   5.586  10.326   5.329  0.1438 -0.4239  0.2786
  723MOL0     C97496   5.624  10.197   5.308  0.7328 -0.4718  0.7675
  723MOL0     C97497   5.747  10.139   5.280  1.1317 -0.7506  0.1917
  723MOL0     C97498   5.852  10.231   5.266 -0.1859 -0.5409 -0.1176
  723MOL0     C97499   5.989  10.188   5.228  0.0913  0.1920  0.2004
  723MOL0     O97500   6.081  10.291   5.217 -0.3272  0.7708 -0.5848
  723MOL0     C97501   6.212  10.257   5.202  0.3090 -0.2066 -0.5065
  723MOL0     C97502   6.261  10.233   5.075 -0.2054 -0.0065  0.4941
  723MOL0     C97503   6.381  10.182   5.058  0.5027  0.7706  0.4169
  723MOL0     C97504   6.468  10.158   5.160  0.2782 -0.5701 -1.0751
  723MOL0     O97505   6.585  10.084   5.129  0.4919  0.2939 -0.0297
  723MOL0     C97506   6.655  10.021   5.239 -0.0463 -0.3544  0.7553
  723MOL0     C97507   6.741   9.895   5.191  0.5259 -0.4127  0.3420
  723MOL0     C97508   6.801   9.814   5.302  0.6271  1.0588  0.3213
  723MOL0     C97509   6.930   9.862   5.347  0.4267 -0.0357  0.3934
  723MOL0     C97510   7.044   9.771   5.303  0.1083  0.5570  0.2149
  723MOL0     C97511   7.182   9.840   5.280 -0.6156  0.0884  0.4837
  723MOL0     C97512   7.281   9.727   5.256  0.8402 -0.0952  0.7303
  723MOL0     C97513   7.422   9.782   5.241  0.4449  0.4647 -0.3991
  723MOL0    Cl97514   7.516   9.694   5.122  0.0797 -0.1360 -0.1643
  723MOL0     C97515   6.423  10.191   5.288 -0.5151  0.3737  0.4845
  723MOL0     C97516   6.301  10.248   5.302  1.0449 -0.0922  0.3880
  723MOL0     O97517   6.008  10.067   5.202  0.2641 -1.1403 -0.6046
  723MOL0     C97518   5.824  10.367   5.289  0.1502 -0.7146  0.2215
  723MOL0     C97519   5.688  10.416   5.321  0.4281 -0.1336  0.7484
  723MOL0     N97520   4.969  10.402   5.705  0.3183  0.1288 -0.1584
  723MOL0     N97521   4.883  10.331   5.770  0.3034 -0.0293 -0.4221
  723MOL0     C97522   3.942   9.882   5.646  0.7609  0.3958  0.0384
  723MOL0     C97523   3.822   9.931   5.587 -0.5362  0.0186 -1.1271
  723MOL0     C97524   3.418  10.193   5.600  0.3680  0.6135  0.7379
  723MOL0     C97525   3.355  10.085   5.524  0.0097 -0.0146 -0.5313
  723MOL0     C97526   3.229  10.108   5.486 -0.4889  0.8211  0.7757
  723MOL0     C97527   3.155  10.222   5.517  0.4815  0.3581 -0.0643
  723MOL0     O97528   3.033  10.222   5.450  0.2141  0.2729  0.2993
  723MOL0     C97529   2.965  10.351   5.461 -0.5228  0.3693  0.1924
  723MOL0     C97530   2.833  10.361   5.381 -0.0026  0.5349  0.6521
  723MOL0     C97531   2.776  10.501   5.385  0.0394 -0.2697  0.3879
  723MOL0     C97532   2.619  10.501   5.393  0.2945  0.3802  0.6634
  723MOL0     C97533   2.560  10.461   5.263 -1.3850  0.4717 -0.2001
  723MOL0     C97534   2.515  10.426   5.156  0.2299 -0.4202 -0.8182
  723MOL0     C97535   3.209  10.325   5.595 -0.3133  0.6793  0.0128
  723MOL0     C97536   3.339  10.308   5.633 -0.8899  0.2745 -0.2426
  723MOL0     C97537   3.392  10.413   5.732  0.1156 -0.7406  0.2982
  723MOL0     H97538   3.694  10.077   5.870  1.2323  3.1745 -0.4575
  723MOL0     H97539   3.908   9.997   5.967  1.7125 -1.0481  0.1776
  723MOL0     H97540   4.127   9.974   5.993 -0.8455  0.6187 -0.8813
  723MOL0     H97541   4.047   9.819   6.013  0.5391  0.2298  1.2668
  723MOL0     H97542   4.261   9.699   5.933 -0.4650  1.7966 -5.0053
  723MOL0     H97543   4.264   9.798   6.085  2.8592 -0.1964  0.0896
  723MOL0     H97544   4.355   9.985   5.944 -2.0347 -0.8026 -0.1918
  723MOL0     H97545   4.351   9.877   5.806  0.9590 -0.6510 -1.5572
  723MOL0     H97546   4.536   9.814   6.049  1.4347  0.8736 -0.0369
  723MOL0     H97547   4.526   9.734   5.904 -0.3562 -1.5892  1.6877
  723MOL0     H97548   4.587  10.036   5.928 -2.5017 -0.1238 -1.4675
  723MOL0     H97549   4.701   9.904   5.930  0.8118 -2.8480 -0.3541
  723MOL0     H97550   4.626   9.837   5.699 -1.2070 -0.8315  2.1404
  723MOL0     H97551   4.508   9.968   5.694  0.4053 -0.7659 -1.8014
  723MOL0     H97552   4.728  10.013   5.576 -0.5029 -1.3188  0.7464
  723MOL0     H97553   4.809  10.005   5.734  2.6356  0.3738 -2.7303
  723MOL0     H97554   4.609  10.221   5.649 -2.0702 -1.2263  2.5119
  723MOL0     H97555   4.646  10.198   5.810  0.3089  0.7196 -1.0140
  723MOL0     H97556   4.809  10.273   5.455  0.5492  0.5905  0.2925
  723MOL0     H97557   4.958  10.470   5.369 -0.9382 -0.7482 -0.1475
  723MOL0     H97558   5.046  10.553   5.507  1.0756 -2.5156  2.7438
  723MOL0     H97559   5.216  10.369   5.518  1.0841 -1.4511 -1.3760
  723MOL0     H97560   5.136  10.286   5.393  3.0727  0.7225 -0.6719
  723MOL0     H97561   5.220  10.575   5.340  1.0733  0.1803  4.3799
  723MOL0     H97562   5.215  10.438   5.227  0.3184  1.9446 -0.0332
  723MOL0     H97563   5.412  10.525   5.453  2.0496 -2.3074  0.8481
  723MOL0     H97564   5.448  10.544   5.283  1.2481 -0.6094 -0.6695
  723MOL0     H97565   5.545  10.124   5.327 -0.5381  0.3899 -0.9450
  723MOL0     H97566   5.752  10.032   5.259  1.0160 -0.6309 -0.4695
  723MOL0     H97567   6.200  10.242   4.985 -0.9172 -0.1895  0.9560
  723MOL0     H97568   6.404  10.151   4.956 -3.0606  2.3318 -1.0378
  723MOL0     H97569   6.714  10.103   5.281  2.1982  0.3720 -3.3183
  723MOL0     H97570   6.586   9.979   5.313  1.1137 -1.1796  1.4127
  723MOL0     H97571   6.667   9.831   5.142 -1.2960  1.2139  0.8150
  723MOL0     H97572   6.811   9.925   5.113 -1.4651  2.4228 -0.5291
  723MOL0     H97573   6.726   9.801   5.380 -0.2944 -2.7179 -0.9797
  723MOL0     H97574   6.815   9.712   5.264 -2.4709  1.0775 -1.1987
  723MOL0     H97575   6.935   9.868   5.456 -3.9621  1.1817  0.7113
  723MOL0     H97576   6.940   9.966   5.317 -0.8384 -0.1706 -0.5721
  723MOL0     H97577   7.021   9.731   5.204 -0.2619  0.5058  0.3212
  723MOL0     H97578   7.052   9.684   5.368 -0.2924 -0.6867 -1.3438
  723MOL0     H97579   7.179   9.901   5.190 -1.3612 -0.0443  0.4181
  723MOL0     H97580   7.219   9.906   5.359  1.8260 -0.2732 -0.2594
  723MOL0     H97581   7.245   9.682   5.163  2.8552  2.9712 -1.7394
  723MOL0     H97582   7.286   9.661   5.343  1.3174 -0.5782  0.3508
  723MOL0     H97583   7.417   9.887   5.211  0.1069  0.5617 -0.0105
  723MOL0     H97584   7.462   9.764   5.341  2.1605 -0.5713 -1.2249
  723MOL0     H97585   6.493  10.181   5.370  4.0097  0.6634 -2.9382
  723MOL0     H97586   6.262  10.273   5.401  1.4143 -0.6255  0.6761
  723MOL0     H97587   5.909  10.433   5.281  0.8258 -1.7164 -1.2017
  723MOL0     H97588   5.653  10.518   5.331  0.1834  0.1056 -1.7871
  723MOL0     H97589   4.013   9.835   5.577  0.1136  0.2831 -0.5633
  723MOL0     H97590   3.789   9.894   5.490 -0.1120  1.0779 -1.6971
  723MOL0     H97591   3.398   9.987   5.512 -0.4655 -0.3007  0.0151
  723MOL0     H97592   3.173  10.028   5.439  0.1447  1.1781 -0.6478
  723MOL0     H97593   3.034  10.425   5.420  1.6877 -0.9721  1.2254
  723MOL0     H97594   2.946  10.371   5.567 -4.8764  1.2639 -0.5618
  723MOL0     H97595   2.763  10.293   5.430 -0.1410  0.1474 -0.0679
  723MOL0     H97596   2.843  10.323   5.279 -1.2406 -0.5300  0.9054
  723MOL0     H97597   2.805  10.568   5.303  0.9726 -2.6454 -1.3483
  723MOL0     H97598   2.816  10.542   5.478 -0.7306 -2.2043  1.6402
  723MOL0     H97599   2.595  10.434   5.476  1.8323 -2.1396 -0.7925
  723MOL0     H97600   2.591  10.606   5.406 -1.9794  0.4303 -3.2136
  723MOL0     H97601   2.482  10.408   5.056  0.6673  1.6879 -1.4014
  723MOL0     H97602   3.141  10.407   5.619 -0.9978  0.3660 -0.7716
  723MOL0     H97603   3.405  10.369   5.831 -1.8794 -1.7117  0.1742
  723MOL0     H97604   3.489  10.454   5.702  0.0864  0.0211  1.2230
  723MOL0     H97605   3.319  10.494   5.731 -1.2443 -1.8205 -2.9758
  724MOL0     O97606   1.053   8.498   4.756  0.7917 -0.0313  0.5716
  724MOL0     C97607   0.970   8.576   4.796 -0.3227 -0.0435  0.1201
  724MOL0     O97608   0.996   8.683   4.864 -0.9452 -0.0054  0.1927
  724MOL0     C97609   1.125   8.712   4.908 -0.4015  0.4592 -0.1547
  724MOL0     C97610   1.230   8.760   4.823  0.2398  1.2515 -0.0018
  724MOL0     C97611   1.361   8.785   4.872  0.1153  0.1476  0.1068
  724MOL0     C97612   1.390   8.759   5.002 -0.3696 -0.1683 -1.0124
  724MOL0     O97613   1.520   8.794   5.040 -0.1399 -0.0884  0.1100
  724MOL0     C97614   1.555   8.812   5.171  0.3462  0.0418  0.0031
  724MOL0     C97615   1.688   8.869   5.184  0.6402  0.2521  0.4645
  724MOL0     C97616   1.799   8.782   5.126 -0.1333 -0.6627 -0.7917
  724MOL0     C97617   1.826   8.668   5.220 -0.6259  1.0272 -0.2695
  724MOL0     C97618   1.963   8.587   5.198 -0.0326 -0.3716 -0.7697
  724MOL0     C97619   1.985   8.467   5.280  0.4161 -0.0836  1.1667
  724MOL0     C97620   1.991   8.501   5.429 -0.0826  0.4106 -0.1739
  724MOL0     C97621   2.027   8.374   5.502  0.7019 -0.8636 -0.3062
  724MOL0     N97622   1.928   8.260   5.502 -0.3893  0.7319 -0.3386
  724MOL0     C97623   1.834   8.225   5.596 -0.6355 -0.0805 -0.7870
  724MOL0     C97624   1.771   8.114   5.557 -0.8345  0.4767  0.3526
  724MOL0     C97625   1.666   8.041   5.627  0.1462  0.3157  0.7848
  724MOL0     C97626   1.523   8.108   5.613  0.2249 -0.1187  0.1537
  724MOL0     C97627   1.466   8.125   5.472  0.0380 -0.8606  0.9620
  724MOL0     C97628   1.453   7.987   5.396  0.2952 -0.0199 -0.4832
  724MOL0     O97629   1.371   7.898   5.475  0.2068  0.0622 -1.0857
  724MOL0     C97630   1.238   7.914   5.490 -0.8230  0.3739  0.9050
  724MOL0     C97631   1.168   7.820   5.561  0.2185 -0.2559  0.1608
  724MOL0     C97632   1.026   7.824   5.562  0.7785  0.0977 -0.3995
  724MOL0     C97633   0.949   7.927   5.493 -0.5425  0.1601  0.5853
  724MOL0     C97634   0.803   7.937   5.496 -0.3515  0.6251  0.4384
  724MOL0     O97635   0.724   7.857   5.576 -0.3335  0.3982  0.6020
  724MOL0     C97636   0.588   7.858   5.577  0.8428  0.6040  0.8761
  724MOL0     C97637   0.515   7.835   5.702  0.2730  0.5138 -0.4855
  724MOL0     C97638   0.371   7.812   5.693 -0.1212  0.4019 -0.0337
  724MOL0     C97639   0.308   7.813   5.577 -0.2433  0.4181 -0.4552
  724MOL0     O97640   0.173   7.797   5.567  0.1882  0.2249 -0.1489
  724MOL0     C97641   0.086   7.880   5.657  0.3064 -1.0316 -0.2418
  724MOL0     C97642  -0.036   7.940   5.585 -0.3185  0.6795 -0.0034
  724MOL0     C97643  -0.133   7.838   5.541 -0.2697 -0.7583 -0.3490
  724MOL0     C97644  -0.228   7.888   5.435 -0.3651  0.1831 -0.1771
  724MOL0     C97645  -0.336   7.789   5.396 -0.7686  0.0325 -0.9362
  724MOL0     C97646  -0.441   7.846   5.297 -0.0789 -0.2499  0.5024
  724MOL0     C97647  -0.544   7.743   5.269 -0.4899 -0.8308 -0.4958
  724MOL0     C97648  -0.646   7.805   5.186 -1.4079 -0.5127  0.6569
  724MOL0    Cl97649  -0.745   7.664   5.124  0.0550 -0.1645 -0.1277
  724MOL0     C97650   0.379   7.830   5.459  0.9614 -0.8331 -0.6055
  724MOL0     C97651   0.514   7.860   5.456  0.1151 -1.2885 -0.1775
  724MOL0     O97652   0.761   8.030   5.425  1.0195 -0.0101 -0.2615
  724MOL0     C97653   1.032   8.011   5.417  0.4044  0.2250 -0.0062
  724MOL0     C97654   1.167   8.004   5.409 -0.2940  0.5262 -0.4428
  724MOL0     N97655   1.840   8.069   5.444  0.3979 -0.4223  0.2510
  724MOL0     N97656   1.936   8.148   5.417  0.3191 -0.4573  0.0202
  724MOL0     C97657   1.292   8.715   5.095 -0.0629 -0.0462 -0.1099
  724MOL0     C97658   1.162   8.694   5.042  0.6104  0.5362 -0.0492
  724MOL0     C97659   0.827   8.556   4.752 -0.6266  0.3690 -1.1600
  724MOL0     C97660   0.729   8.638   4.820 -0.6234 -0.5254  0.1479
  724MOL0     C97661   0.587   8.633   4.796 -0.7998  0.5479  0.0648
  724MOL0     C97662   0.541   8.530   4.710 -0.7555 -0.2914  0.1180
  724MOL0     O97663   0.409   8.510   4.673  0.8459 -0.4642 -0.9579
  724MOL0     C97664   0.303   8.571   4.750 -0.4532 -0.4323 -0.1786
  724MOL0     C97665   0.235   8.673   4.656  0.4763  0.0187  0.6252
  724MOL0     C97666   0.166   8.790   4.725  0.4555 -0.0373 -0.5444
  724MOL0     C97667   0.078   8.864   4.623 -0.8085  0.1058 -0.1963
  724MOL0     C97668  -0.060   8.828   4.643  0.1531 -0.4104  0.1183
  724MOL0     C97669  -0.172   8.798   4.685  0.6884 -0.3260  0.0519
  724MOL0     C97670   0.628   8.448   4.643  0.3748  0.7203 -0.9269
  724MOL0     C97671   0.771   8.454   4.667 -0.0208 -0.8709 -0.1525
  724MOL0     C97672   0.852   8.355   4.593 -0.5151  0.5017 -0.0022
  724MOL0     H97673   1.188   8.787   4.726 -2.2567 -2.8004 -0.2730
  724MOL0     H97674   1.431   8.842   4.812  1.6257  0.1558  1.7877
  724MOL0     H97675   1.479   8.877   5.215  3.2086  3.1042  0.8107
  724MOL0     H97676   1.558   8.717   5.226  1.1586  0.2134  0.2673
  724MOL0     H97677   1.694   8.893   5.291  0.1802 -1.1583  0.8263
  724MOL0     H97678   1.684   8.963   5.129 -0.5066  0.7964  1.4242
  724MOL0     H97679   1.884   8.851   5.126 -1.6653  1.4173  1.4503
  724MOL0     H97680   1.781   8.754   5.022 -0.4952 -2.8215 -0.2140
  724MOL0     H97681   1.811   8.713   5.319 -3.8685  1.2683 -0.7511
  724MOL0     H97682   1.742   8.598   5.228  1.7704 -2.1216 -0.6918
  724MOL0     H97683   1.959   8.542   5.098  0.7391 -3.7749  0.5845
  724MOL0     H97684   2.049   8.654   5.199  0.0082 -0.3355  2.2004
  724MOL0     H97685   1.898   8.405   5.260 -1.1369  2.1110  0.7997
  724MOL0     H97686   2.073   8.415   5.241  0.1684  0.0072  0.4786
  724MOL0     H97687   1.894   8.533   5.469 -0.2672 -3.5527  3.2700
  724MOL0     H97688   2.065   8.578   5.449 -0.7104  1.5023 -1.8753
  724MOL0     H97689   2.130   8.353   5.468  1.3417  3.4083 -1.5602
  724MOL0     H97690   2.040   8.399   5.607  1.9193  2.1054 -1.0455
  724MOL0     H97691   1.813   8.282   5.686  1.0310 -0.3623 -0.1647
  724MOL0     H97692   1.658   7.939   5.589  0.5000  0.4681  0.2850
  724MOL0     H97693   1.688   8.043   5.734 -1.6900  0.6828  1.1773
  724MOL0     H97694   1.455   8.041   5.668  2.4993 -1.7917  1.1093
  724MOL0     H97695   1.525   8.202   5.668  1.0863  2.1606 -3.4913
  724MOL0     H97696   1.539   8.182   5.414 -1.0038 -0.9735 -0.5022
  724MOL0     H97697   1.372   8.180   5.468  0.7346  0.4084 -3.4107
  724MOL0     H97698   1.548   7.938   5.371  1.5793  2.8230 -1.6879
  724MOL0     H97699   1.420   7.991   5.292 -0.7215 -1.9314 -0.2745
  724MOL0     H97700   1.220   7.743   5.617  0.6780  0.5353  0.8355
  724MOL0     H97701   0.966   7.756   5.621 -0.6295 -0.5294 -2.4637
  724MOL0     H97702   0.560   7.831   5.800  1.8585  0.4348 -1.1880
  724MOL0     H97703   0.325   7.808   5.791 -2.1693  2.5654 -0.7916
  724MOL0     H97704   0.053   7.822   5.743  2.9798 -3.8121 -0.9093
  724MOL0     H97705   0.142   7.968   5.690 -2.0056  1.3564 -2.2531
  724MOL0     H97706  -0.096   7.997   5.657 -1.7323 -4.3329  3.3037
  724MOL0     H97707  -0.013   7.989   5.490  0.3942 -2.1837 -1.4090
  724MOL0     H97708  -0.078   7.752   5.503 -0.4478 -0.8750 -0.3431
  724MOL0     H97709  -0.195   7.807   5.626  0.4969 -3.7042 -0.7643
  724MOL0     H97710  -0.175   7.930   5.349 -1.3246 -0.9843 -1.3651
  724MOL0     H97711  -0.271   7.976   5.484  0.8686  0.3310  0.7188
  724MOL0     H97712  -0.381   7.765   5.492  2.5169  0.2867  0.8086
  724MOL0     H97713  -0.289   7.700   5.352 -0.1978  0.2629 -0.8033
  724MOL0     H97714  -0.489   7.928   5.352  0.5704  0.7772 -0.4281
  724MOL0     H97715  -0.403   7.885   5.202  1.7543 -2.6911  0.1351
  724MOL0     H97716  -0.590   7.697   5.357 -1.6204  0.8976 -0.1418
  724MOL0     H97717  -0.492   7.672   5.203  0.9992  1.4942 -1.9591
  724MOL0     H97718  -0.711   7.867   5.248 -0.0195  2.9228 -1.0325
  724MOL0     H97719  -0.605   7.864   5.103 -0.0882  0.2247  1.7959
  724MOL0     H97720   0.346   7.817   5.356  4.3503  0.5289 -2.0293
  724MOL0     H97721   0.564   7.865   5.360 -0.1917  4.6605 -0.4241
  724MOL0     H97722   0.986   8.086   5.353 -1.2697  0.6483  1.5960
  724MOL0     H97723   1.221   8.083   5.357  0.1020 -0.5339 -1.6946
  724MOL0     H97724   1.315   8.681   5.196  2.2876 -1.4163 -1.0255
  724MOL0     H97725   1.083   8.649   5.100 -1.6943  2.8863 -1.1476
  724MOL0     H97726   0.762   8.725   4.876  0.6544 -0.8325 -0.1127
  724MOL0     H97727   0.512   8.702   4.834 -2.3308 -0.3047 -1.2306
  724MOL0     H97728   0.339   8.626   4.837  2.7884  0.8841 -2.1876
  724MOL0     H97729   0.229   8.495   4.778  0.3751 -1.1464  0.1389
  724MOL0     H97730   0.157   8.623   4.597 -0.2692 -0.4365  1.9351
  724MOL0     H97731   0.315   8.719   4.599 -1.6871 -0.7131 -3.3884
  724MOL0     H97732   0.247   8.849   4.766  0.4518 -1.0356  0.9765
  724MOL0     H97733   0.107   8.756   4.811 -0.5410  1.3527 -0.6500
  724MOL0     H97734   0.093   8.969   4.650  3.8488 -0.3417 -0.2595
  724MOL0     H97735   0.118   8.846   4.523 -0.6375 -1.1226  0.0746
  724MOL0     H97736  -0.276   8.781   4.701  0.7468 -0.8179 -0.0743
  724MOL0     H97737   0.590   8.366   4.583 -0.7903 -0.7557  1.6478
  724MOL0     H97738   0.944   8.389   4.545 -1.7815  1.6210 -1.7549
  724MOL0     H97739   0.874   8.265   4.651  1.0817  2.8336  3.3036
  724MOL0     H97740   0.798   8.314   4.507  1.9705  0.6652 -1.7701
  725MOL0     O97741   2.055   2.713   8.048  0.0446  0.4348 -0.7531
  725MOL0     C97742   2.053   2.698   7.925  0.0325  0.0579  0.6095
  725MOL0     O97743   2.167   2.657   7.843 -0.2409 -0.9324 -0.4137
  725MOL0     C97744   2.279   2.638   7.915 -0.4395  0.2759  0.6861
  725MOL0     C97745   2.354   2.517   7.874  0.4310  0.1438 -0.4112
  725MOL0     C97746   2.486   2.488   7.925 -0.1714 -0.1121 -0.6503
  725MOL0     C97747   2.549   2.582   8.008  0.7852  0.2704 -0.0264
  725MOL0     O97748   2.670   2.566   8.065  0.2971 -0.0743 -0.2540
  725MOL0     C97749   2.764   2.482   8.000 -0.2874  0.3094 -0.3254
  725MOL0     C97750   2.882   2.499   8.097 -0.7855 -0.1672  0.1690
  725MOL0     C97751   2.951   2.637   8.126  0.2541  0.3869  0.5940
  725MOL0     C97752   3.023   2.678   7.993 -0.2251  0.3059  0.9122
  725MOL0     C97753   3.145   2.758   8.029  0.8419 -0.7841  0.2628
  725MOL0     C97754   3.125   2.898   8.103  0.9163  0.2137  0.4373
  725MOL0     C97755   3.251   2.962   8.167 -0.1376 -0.1867  1.1848
  725MOL0     C97756   3.377   2.933   8.079 -0.1166  0.3214 -1.1974
  725MOL0     N97757   3.502   2.987   8.146 -0.7192 -0.4609  0.1545
  725MOL0     C97758   3.516   3.075   8.248  0.3029 -0.0977  0.4095
  725MOL0     C97759   3.646   3.131   8.243  0.5060 -0.0273 -0.1197
  725MOL0     C97760   3.694   3.245   8.331  0.6637  0.0893  0.7122
  725MOL0     C97761   3.642   3.381   8.275 -0.1465  0.1956  1.0141
  725MOL0     C97762   3.700   3.493   8.351  0.0519 -0.6920  0.0319
  725MOL0     C97763   3.851   3.530   8.317  0.0238  0.1854  0.4521
  725MOL0     O97764   3.893   3.650   8.390  0.0040  0.8197 -0.3023
  725MOL0     C97765   4.021   3.693   8.368  0.3104  1.6483  0.0550
  725MOL0     C97766   4.116   3.656   8.265  1.1003 -0.4753 -0.3756
  725MOL0     C97767   4.242   3.706   8.271  0.0678  0.2048 -0.3927
  725MOL0     C97768   4.287   3.787   8.372  0.8949  0.4107 -0.2603
  725MOL0     C97769   4.430   3.834   8.372 -1.1162  0.8450 -0.0889
  725MOL0     O97770   4.505   3.793   8.266  0.4555 -0.2144  0.6787
  725MOL0     C97771   4.643   3.787   8.273  0.3142  0.4916  0.0650
  725MOL0     C97772   4.717   3.784   8.154  0.3121 -0.0921 -0.7840
  725MOL0     C97773   4.854   3.771   8.154  1.4129 -0.6097  0.2826
  725MOL0     C97774   4.924   3.761   8.273 -0.1543  0.0026  0.3574
  725MOL0     O97775   5.061   3.752   8.278 -0.3975  0.0268 -0.0917
  725MOL0     C97776   5.133   3.668   8.188  0.4584  0.8140 -0.8757
  725MOL0     C97777   5.280   3.659   8.232 -0.7118  0.5828 -0.0328
  725MOL0     C97778   5.339   3.517   8.281 -0.2128  0.2394  0.3406
  725MOL0     C97779   5.487   3.534   8.327  0.9663  0.3266  0.7051
  725MOL0     C97780   5.541   3.404   8.397 -0.1051 -0.7701  0.7086
  725MOL0     C97781   5.671   3.431   8.483  0.6043 -0.3776  0.0969
  725MOL0     C97782   5.672   3.340   8.606  0.1084 -0.8657 -0.1984
  725MOL0     C97783   5.782   3.406   8.688  0.3721  0.7128  1.0341
  725MOL0    Cl97784   5.817   3.296   8.834 -0.3362  0.1638 -0.0713
  725MOL0     C97785   4.853   3.738   8.388 -0.5972  0.5625  0.3369
  725MOL0     C97786   4.715   3.744   8.386 -0.6354 -0.2260  0.0685
  725MOL0     O97787   4.476   3.910   8.462  0.9632  0.2300  0.4617
  725MOL0     C97788   4.195   3.828   8.474  1.0526 -0.1396  0.9917
  725MOL0     C97789   4.063   3.787   8.464  0.3953 -0.4452  0.7710
  725MOL0     N97790   3.695   3.085   8.123  0.3336 -0.0866  0.6376
  725MOL0     N97791   3.612   3.003   8.072 -0.6098  0.1814 -0.1844
  725MOL0     C97792   2.482   2.696   8.041  0.2191  0.0520 -0.3835
  725MOL0     C97793   2.348   2.728   8.000  0.1463 -0.5027 -0.2920
  725MOL0     C97794   1.929   2.720   7.850 -0.1409  0.2300 -0.7406
  725MOL0     C97795   1.943   2.723   7.712 -0.3923  0.2682  0.9731
  725MOL0     C97796   1.828   2.755   7.643  0.4158 -0.2569 -0.0636
  725MOL0     C97797   1.708   2.802   7.701  0.2635  0.2641 -0.3787
  725MOL0     O97798   1.615   2.824   7.599  0.2540 -0.1341  0.7018
  725MOL0     C97799   1.478   2.832   7.648 -0.0237 -0.9626 -0.1171
  725MOL0     C97800   1.377   2.848   7.529  0.4137  0.5528 -0.1965
  725MOL0     C97801   1.405   2.987   7.469 -0.5693 -0.6139  0.6110
  725MOL0     C97802   1.299   3.017   7.354  1.0061 -0.6976  0.2311
  725MOL0     C97803   1.347   3.107   7.252  0.4586  0.8038  0.5085
  725MOL0     C97804   1.398   3.180   7.174 -0.5335 -0.0456  0.1927
  725MOL0     C97805   1.692   2.805   7.833 -0.3704  0.1477  0.0266
  725MOL0     C97806   1.800   2.754   7.912  0.1059 -0.1549  0.6970
  725MOL0     C97807   1.782   2.754   8.063  0.1108 -0.9369  0.2512
  725MOL0     H97808   2.313   2.445   7.804 -0.7667  0.3044  0.1021
  725MOL0     H97809   2.531   2.398   7.884 -0.9151 -1.2331  0.8680
  725MOL0     H97810   2.741   2.376   7.986  2.6655 -0.5542  0.5194
  725MOL0     H97811   2.784   2.518   7.898  3.4169 -3.3363 -1.2132
  725MOL0     H97812   2.958   2.432   8.056 -0.0624 -0.1472  1.4489
  725MOL0     H97813   2.857   2.444   8.188  0.7304 -1.2135 -0.0190
  725MOL0     H97814   3.028   2.613   8.201 -0.1609 -2.7477  0.1497
  725MOL0     H97815   2.873   2.704   8.163 -0.1874  1.2970 -1.7832
  725MOL0     H97816   3.040   2.586   7.936 -0.2437 -0.0816  1.5140
  725MOL0     H97817   2.957   2.731   7.924  0.0519  1.2802  1.3737
  725MOL0     H97818   3.216   2.696   8.084  1.5953  0.1832  0.4033
  725MOL0     H97819   3.204   2.784   7.941  1.3087 -3.9751 -0.4648
  725MOL0     H97820   3.075   2.976   8.045 -2.2183 -0.4327  2.0749
  725MOL0     H97821   3.061   2.880   8.189  2.8886 -0.6691  1.8063
  725MOL0     H97822   3.266   2.921   8.267 -0.1380  0.2731  1.3756
  725MOL0     H97823   3.252   3.069   8.186  0.3736 -0.5074  3.2391
  725MOL0     H97824   3.394   2.825   8.072 -1.8460 -0.0827  0.2499
  725MOL0     H97825   3.367   2.975   7.978  0.4987  2.3986 -0.4337
  725MOL0     H97826   3.433   3.107   8.311  0.4214  3.7502 -1.0670
  725MOL0     H97827   3.652   3.226   8.430  1.5704 -1.5440  0.8184
  725MOL0     H97828   3.803   3.237   8.329  0.5138 -2.8835  0.6963
  725MOL0     H97829   3.679   3.379   8.173  2.3586 -0.5782  1.8592
  725MOL0     H97830   3.533   3.382   8.284 -0.1592 -2.2875  1.8973
  725MOL0     H97831   3.687   3.452   8.451 -1.0481 -0.0137  0.1828
  725MOL0     H97832   3.647   3.588   8.340  1.5457  0.0906 -0.8890
  725MOL0     H97833   3.863   3.529   8.208  0.8127 -1.2266  0.5220
  725MOL0     H97834   3.912   3.447   8.355  1.1447  1.2601  1.0352
  725MOL0     H97835   4.080   3.588   8.189 -2.8430 -1.4968  2.1502
  725MOL0     H97836   4.298   3.678   8.183  1.3486  2.2640 -0.3021
  725MOL0     H97837   4.648   3.806   8.073  0.8130  4.6904 -0.2132
  725MOL0     H97838   4.901   3.785   8.057  0.0231  1.6749 -0.1566
  725MOL0     H97839   5.082   3.572   8.185  1.4904  0.0562  2.1745
  725MOL0     H97840   5.128   3.709   8.086  1.8926  1.0617 -0.8661
  725MOL0     H97841   5.333   3.690   8.141 -2.3311  0.4839 -1.0507
  725MOL0     H97842   5.309   3.733   8.307  1.6696  1.1360 -1.4056
  725MOL0     H97843   5.273   3.478   8.358 -0.9578 -0.0031 -0.4064
  725MOL0     H97844   5.326   3.449   8.196  0.3990  1.4366 -0.7494
  725MOL0     H97845   5.500   3.619   8.395  1.0796  0.7904  0.1129
  725MOL0     H97846   5.550   3.557   8.241  1.4041 -2.9174  0.0363
  725MOL0     H97847   5.573   3.329   8.324  1.2172 -1.0409  1.5333
  725MOL0     H97848   5.461   3.356   8.455 -0.7536 -0.1540  0.3426
  725MOL0     H97849   5.758   3.411   8.420  1.7138  1.0824  1.1056
  725MOL0     H97850   5.681   3.538   8.507 -0.3792 -0.6299  1.7970
  725MOL0     H97851   5.694   3.235   8.587 -1.0558 -1.3093  0.7665
  725MOL0     H97852   5.573   3.332   8.651  0.5646  0.4948  1.1318
  725MOL0     H97853   5.868   3.412   8.622 -2.4015 -1.3799 -3.2082
  725MOL0     H97854   5.757   3.509   8.719  0.1194  1.1749 -0.6174
  725MOL0     H97855   4.898   3.719   8.485 -2.7315 -0.1688  1.2342
  725MOL0     H97856   4.657   3.718   8.474  1.5795  0.6719  1.8889
  725MOL0     H97857   4.218   3.899   8.553 -3.1725  0.3853  1.9974
  725MOL0     H97858   3.994   3.839   8.530  0.0241  1.1086 -0.7433
  725MOL0     H97859   2.529   2.766   8.109 -2.8715 -0.4701  2.5910
  725MOL0     H97860   2.295   2.818   8.029  0.7679  0.2385 -1.3607
  725MOL0     H97861   2.034   2.697   7.658 -1.5967  2.2735 -2.2983
  725MOL0     H97862   1.838   2.768   7.536 -0.7415  0.0057 -0.1517
  725MOL0     H97863   1.459   2.915   7.716  3.9029 -1.0545  1.3291
  725MOL0     H97864   1.464   2.733   7.693 -1.0046 -1.0200 -0.5176
  725MOL0     H97865   1.278   2.858   7.576  1.6752  3.9141  2.1436
  725MOL0     H97866   1.382   2.767   7.455  0.0727  1.4583 -1.2426
  725MOL0     H97867   1.509   2.999   7.437 -1.4860  1.7232 -1.9284
  725MOL0     H97868   1.381   3.054   7.552 -1.1035 -0.2073  0.1409
  725MOL0     H97869   1.281   2.919   7.310  0.2383 -1.0137  1.1975
  725MOL0     H97870   1.204   3.055   7.394  0.9655 -2.9217  2.5543
  725MOL0     H97871   1.440   3.239   7.095 -4.3052 -0.0051 -2.0400
  725MOL0     H97872   1.598   2.843   7.873  0.0546  0.7889  0.4453
  725MOL0     H97873   1.676   2.768   8.088 -0.3947 -1.3687 -1.5400
  725MOL0     H97874   1.824   2.667   8.114  0.0494 -0.3905  1.2731
  725MOL0     H97875   1.838   2.832   8.115 -0.3777 -1.4254  1.5574
  726MOL0     O97876   7.783   3.891   0.058  0.3733  0.1655 -0.1882
  726MOL0     C97877   7.747   3.975  -0.021 -0.2668  0.7202 -0.0308
  726MOL0     O97878   7.619   4.028  -0.031 -0.2903  0.0338 -0.7065
  726MOL0     C97879   7.520   3.995   0.060 -0.0831 -0.2683 -0.0373
  726MOL0     C97880   7.396   3.962   0.001  0.3644 -0.3996  0.0619
  726MOL0     C97881   7.277   3.941   0.073 -0.4910 -0.4331  0.0869
  726MOL0     C97882   7.283   3.945   0.210  0.8231 -0.9771 -0.0568
  726MOL0     O97883   7.176   3.945   0.300 -0.7278 -0.5847  0.0241
  726MOL0     C97884   7.091   3.829   0.299 -0.2747  0.0966 -0.0581
  726MOL0     C97885   7.015   3.833   0.438 -0.5514  0.0915  0.1051
  726MOL0     C97886   6.957   3.704   0.490  0.4290  0.3652  0.6557
  726MOL0     C97887   6.845   3.730   0.596 -0.1822  0.1860 -0.2143
  726MOL0     C97888   6.774   3.598   0.620 -0.2258 -0.1520 -0.5686
  726MOL0     C97889   6.675   3.631   0.727  0.2511  0.2532  0.0846
  726MOL0     C97890   6.648   3.515   0.825 -0.0149  0.5120  0.1081
  726MOL0     C97891   6.560   3.556   0.943  0.7951  0.3589  0.1277
  726MOL0     N97892   6.658   3.585   1.049  0.9325 -0.7391  0.2395
  726MOL0     C97893   6.694   3.497   1.151 -0.2106  0.0966  0.3368
  726MOL0     C97894   6.791   3.559   1.213 -0.2062  0.9226  0.6566
  726MOL0     C97895   6.869   3.505   1.335  0.2262  0.1643 -0.1472
  726MOL0     C97896   6.824   3.551   1.475 -0.0916  0.7599  0.4076
  726MOL0     C97897   6.849   3.699   1.499  0.4145  0.2468  0.6027
  726MOL0     C97898   6.824   3.740   1.643 -0.1464  0.5525  0.2909
  726MOL0     O97899   6.929   3.672   1.728  0.3441 -0.1747  0.1136
  726MOL0     C97900   7.066   3.682   1.715 -0.3498  0.0607  0.3606
  726MOL0     C97901   7.142   3.578   1.762 -0.1187  0.0293  0.9951
  726MOL0     C97902   7.286   3.581   1.775  0.1666 -0.7070  0.7673
  726MOL0     C97903   7.348   3.693   1.714 -0.2118 -0.5813  0.5711
  726MOL0     C97904   7.494   3.709   1.723 -0.1517 -1.2840 -0.1864
  726MOL0     O97905   7.558   3.594   1.748  0.7719  0.5721  0.4358
  726MOL0     C97906   7.694   3.589   1.737 -0.1461 -0.7412 -0.0079
  726MOL0     C97907   7.777   3.659   1.647  0.4183 -0.0254 -0.3704
  726MOL0     C97908   7.919   3.640   1.646  0.1949 -0.0538 -0.3014
  726MOL0     C97909   7.972   3.546   1.734  0.3237 -0.2930  0.4218
  726MOL0     O97910   8.109   3.521   1.728  0.1685 -0.4048  0.0547
  726MOL0     C97911   8.178   3.542   1.606 -0.0092  0.1169  0.0762
  726MOL0     C97912   8.308   3.468   1.614 -0.4941  1.0613  0.0609
  726MOL0     C97913   8.409   3.528   1.708 -0.3082 -0.2376  0.5297
  726MOL0     C97914   8.550   3.469   1.669  0.5933 -1.2051 -0.5891
  726MOL0     C97915   8.667   3.510   1.756  0.0031  0.1730  0.3715
  726MOL0     C97916   8.797   3.439   1.726  0.1260  0.3173  0.2354
  726MOL0     C97917   8.807   3.289   1.773  0.9197  0.5627 -0.2094
  726MOL0     C97918   8.923   3.210   1.700 -0.2096  0.4716 -0.5110
  726MOL0    Cl97919   8.902   3.187   1.515 -0.2504 -0.3162 -0.0258
  726MOL0     C97920   7.904   3.491   1.844 -0.3653  0.7684 -0.3690
  726MOL0     C97921   7.760   3.514   1.837 -0.2502  1.0174 -0.1640
  726MOL0     O97922   7.545   3.818   1.699 -0.0370 -0.3418  0.4263
  726MOL0     C97923   7.273   3.793   1.663 -0.1594 -0.2583  0.3349
  726MOL0     C97924   7.134   3.792   1.654  1.0003  0.4030 -0.9605
  726MOL0     N97925   6.810   3.686   1.149 -0.3519  0.2735 -0.1985
  726MOL0     N97926   6.733   3.701   1.054  0.0809  0.2066 -0.1736
  726MOL0     C97927   7.400   3.982   0.274 -0.1959 -0.0314 -0.6536
  726MOL0     C97928   7.516   4.005   0.201 -0.6834  0.0132  0.3970
  726MOL0     C97929   7.839   4.023  -0.131 -0.7852 -0.2487 -0.6222
  726MOL0     C97930   7.782   4.061  -0.254 -0.3736 -0.9268  0.8982
  726MOL0     C97931   7.852   4.118  -0.358  0.8452  0.4686  0.2634
  726MOL0     C97932   7.992   4.107  -0.356  0.8228 -0.1863  0.4106
  726MOL0     O97933   8.053   4.169  -0.462  0.0604  0.2058 -0.4025
  726MOL0     C97934   8.196   4.160  -0.486 -0.0854 -0.0436 -0.3114
  726MOL0     C97935   8.242   4.270  -0.576  0.2390 -0.0878  0.4921
  726MOL0     C97936   8.274   4.205  -0.719  0.1380 -0.1526  0.2853
  726MOL0     C97937   8.318   4.310  -0.813 -0.2772 -0.5230  0.5964
  726MOL0     C97938   8.460   4.342  -0.796 -0.4139 -0.2411 -0.2383
  726MOL0     C97939   8.586   4.379  -0.791  0.1688 -0.3600 -0.2745
  726MOL0     C97940   8.057   4.051  -0.244  0.0528 -0.2031  0.1220
  726MOL0     C97941   7.977   4.014  -0.132  0.9823  1.3249  1.0779
  726MOL0     C97942   8.057   3.962  -0.018 -0.3324  0.9720 -0.4715
  726MOL0     H97943   7.395   3.964  -0.108 -0.5373  1.3912  0.0686
  726MOL0     H97944   7.189   3.919   0.013  0.1632  2.1906 -1.9946
  726MOL0     H97945   7.017   3.832   0.218  2.0134  1.0180 -2.2637
  726MOL0     H97946   7.149   3.739   0.278 -0.6971 -0.0214 -0.7570
  726MOL0     H97947   6.931   3.903   0.442 -3.4881 -3.0795  5.2727
  726MOL0     H97948   7.093   3.867   0.506  1.1870 -0.6061 -1.4631
  726MOL0     H97949   7.035   3.650   0.544  0.4840  0.2349  0.4470
  726MOL0     H97950   6.916   3.645   0.407 -1.2867 -2.1228  3.0496
  726MOL0     H97951   6.891   3.755   0.692  3.2861  0.0654 -1.6851
  726MOL0     H97952   6.777   3.808   0.562 -2.5498 -0.5912  2.4073
  726MOL0     H97953   6.724   3.563   0.529 -0.3078 -0.3174 -0.4593
  726MOL0     H97954   6.839   3.518   0.656 -0.6950 -0.8083 -1.1523
  726MOL0     H97955   6.703   3.713   0.795 -4.4760  1.4552  0.9793
  726MOL0     H97956   6.583   3.664   0.679  0.7816  4.5944  1.5282
  726MOL0     H97957   6.749   3.482   0.847  0.9857  3.1883 -0.0716
  726MOL0     H97958   6.586   3.440   0.773 -1.0810 -1.0895  3.4386
  726MOL0     H97959   6.496   3.644   0.932 -0.7817 -0.9009 -1.4239
  726MOL0     H97960   6.497   3.467   0.958 -1.5920  1.4645 -2.4260
  726MOL0     H97961   6.662   3.396   1.175  0.4041 -0.0160  0.7159
  726MOL0     H97962   6.864   3.395   1.339  0.3541  0.1249 -0.8396
  726MOL0     H97963   6.976   3.523   1.325  0.1044  0.3959 -1.1771
  726MOL0     H97964   6.717   3.532   1.485  0.4363 -3.7017 -0.5614
  726MOL0     H97965   6.880   3.488   1.544  0.4630  0.8369  0.0421
  726MOL0     H97966   6.776   3.748   1.434 -1.9862 -2.2484  1.2299
  726MOL0     H97967   6.944   3.731   1.455 -0.6136  3.6770  0.5474
  726MOL0     H97968   6.726   3.708   1.681  0.6389  0.4083  2.3369
  726MOL0     H97969   6.826   3.848   1.659  0.1400  0.5616  0.1897
  726MOL0     H97970   7.077   3.495   1.788  0.9321 -1.3952 -0.7116
  726MOL0     H97971   7.339   3.508   1.836  0.5831 -0.5058  0.6493
  726MOL0     H97972   7.725   3.715   1.570 -0.8182 -0.1013  0.3765
  726MOL0     H97973   7.988   3.698   1.587  2.1249 -0.9854  0.9524
  726MOL0     H97974   8.127   3.496   1.521  0.1326  2.6522 -1.4957
  726MOL0     H97975   8.191   3.647   1.577  2.8616 -0.8858 -2.9629
  726MOL0     H97976   8.292   3.363   1.637 -0.7807  0.7891 -1.2709
  726MOL0     H97977   8.362   3.473   1.519 -1.1342  0.3068 -0.3498
  726MOL0     H97978   8.416   3.637   1.697  0.0070 -0.2632  0.4555
  726MOL0     H97979   8.385   3.500   1.811 -0.7830 -0.9262  0.2383
  726MOL0     H97980   8.576   3.501   1.567 -0.9802  1.6818 -0.1946
  726MOL0     H97981   8.538   3.361   1.678 -4.6810 -0.7584  1.3504
  726MOL0     H97982   8.649   3.493   1.862  2.2403  1.9007  1.1275
  726MOL0     H97983   8.691   3.613   1.728  0.3521 -0.5756 -2.3675
  726MOL0     H97984   8.832   3.454   1.624  0.5113  0.4858  0.3906
  726MOL0     H97985   8.862   3.498   1.791  2.8384  0.5359 -2.4552
  726MOL0     H97986   8.716   3.240   1.736  2.2007 -1.4667 -0.8174
  726MOL0     H97987   8.808   3.299   1.882  0.6934 -0.0862 -0.1440
  726MOL0     H97988   9.020   3.255   1.724 -0.4255 -0.7520  3.3903
  726MOL0     H97989   8.918   3.112   1.749 -4.5437  1.2517  1.0187
  726MOL0     H97990   7.953   3.438   1.924  0.1479  3.8649  1.5446
  726MOL0     H97991   7.695   3.477   1.916  0.2392  0.1487 -0.1616
  726MOL0     H97992   7.317   3.884   1.624  0.3041 -1.2099 -1.5017
  726MOL0     H97993   7.075   3.873   1.614 -0.8849 -0.1536  0.5181
  726MOL0     H97994   7.409   3.988   0.382 -0.2173 -1.1409 -0.5761
  726MOL0     H97995   7.598   4.038   0.264 -1.1018 -0.1839  1.0465
  726MOL0     H97996   7.676   4.052  -0.274 -0.2696  3.0043 -2.7693
  726MOL0     H97997   7.794   4.151  -0.443 -0.1559  1.3259  1.2566
  726MOL0     H97998   8.212   4.058  -0.522 -2.5332 -0.9805  1.0067
  726MOL0     H97999   8.250   4.161  -0.391  1.1661 -2.4103 -0.9236
  726MOL0     H98000   8.329   4.314  -0.526 -0.4566  0.7211  1.0278
  726MOL0     H98001   8.156   4.337  -0.580 -1.9439 -2.4761  3.0771
  726MOL0     H98002   8.174   4.179  -0.757 -1.0305  1.2813  2.2144
  726MOL0     H98003   8.339   4.118  -0.713  1.2784  0.7792  3.3579
  726MOL0     H98004   8.298   4.273  -0.914 -0.2754  1.3128 -0.1168
  726MOL0     H98005   8.257   4.401  -0.814  1.8203  0.9568 -0.0200
  726MOL0     H98006   8.691   4.400  -0.786  0.1377 -0.4240  0.7611
  726MOL0     H98007   8.161   4.024  -0.251 -0.4479 -1.7849 -2.5161
  726MOL0     H98008   8.037   4.016   0.075 -0.9225 -0.4993  0.2826
  726MOL0     H98009   8.030   3.858   0.004  0.8452  1.2546  2.9197
  726MOL0     H98010   8.165   3.951  -0.027 -0.2335 -1.9360  2.3918
  727MOL0     O98011   6.870   6.084   4.043  0.2328  0.2971 -0.0744
  727MOL0     C98012   6.835   6.092   4.160 -0.3876 -0.2292 -0.5783
  727MOL0     O98013   6.914   6.067   4.274 -0.4049 -0.4400  0.0338
  727MOL0     C98014   7.050   6.061   4.261 -0.0640 -0.6042  0.6802
  727MOL0     C98015   7.109   6.166   4.190  0.1291 -0.9591 -0.0104
  727MOL0     C98016   7.250   6.171   4.175  0.7878 -0.1826  0.5792
  727MOL0     C98017   7.332   6.076   4.239 -0.6218  0.0022  0.7269
  727MOL0     O98018   7.467   6.066   4.217  0.5774  0.2070  0.1483
  727MOL0     C98019   7.534   6.137   4.114 -0.6642  0.1262  0.0867
  727MOL0     C98020   7.674   6.166   4.165  0.2662  1.0572  0.0961
  727MOL0     C98021   7.773   6.046   4.191  0.5558  0.0227  0.7570
  727MOL0     C98022   7.849   6.002   4.063 -0.8343 -0.9372  0.1760
  727MOL0     C98023   7.946   5.888   4.086 -0.1335  0.6336  0.0972
  727MOL0     C98024   8.038   5.908   4.210 -0.5814  0.5450  1.4902
  727MOL0     C98025   8.153   5.803   4.228  0.5553  0.5402 -0.2728
  727MOL0     C98026   8.244   5.835   4.360 -0.3506  0.3036  0.7361
  727MOL0     N98027   8.322   5.964   4.348  0.4352 -0.3917  0.2022
  727MOL0     C98028   8.434   5.987   4.280 -0.4387  0.3233 -0.5871
  727MOL0     C98029   8.474   6.117   4.309 -0.0508  0.5351 -0.6101
  727MOL0     C98030   8.589   6.206   4.275  0.5649  0.3442 -0.1239
  727MOL0     C98031   8.712   6.201   4.364 -0.3515  0.4926  0.3510
  727MOL0     C98032   8.770   6.337   4.375 -0.0456 -0.1499 -0.3457
  727MOL0     C98033   8.862   6.339   4.496  0.0370 -0.3096  0.1639
  727MOL0     O98034   8.903   6.475   4.524  0.8902  0.1669  0.3900
  727MOL0     C98035   9.000   6.491   4.617 -0.0811  0.4067 -0.4369
  727MOL0     C98036   9.060   6.387   4.698 -0.7308  0.6901  0.6706
  727MOL0     C98037   9.161   6.425   4.787  0.2037 -0.2653 -0.4194
  727MOL0     C98038   9.192   6.559   4.810 -0.8972  0.6556  0.5399
  727MOL0     C98039   9.290   6.578   4.912 -0.6177 -0.8194  0.2581
  727MOL0     O98040   9.306   6.706   4.940 -0.4945 -0.4502 -0.2690
  727MOL0     C98041   9.412   6.748   5.019 -0.7789  0.3838  0.0424
  727MOL0     C98042   9.524   6.787   4.958 -0.5782  0.5596  0.4264
  727MOL0     C98043   9.622   6.856   5.034  0.1368 -0.1209  0.3374
  727MOL0     C98044   9.613   6.867   5.169  0.2897 -0.0243 -0.1492
  727MOL0     O98045   9.713   6.935   5.237 -0.4150  0.2308  0.9062
  727MOL0     C98046   9.783   6.864   5.338 -0.1955  0.0380  0.4155
  727MOL0     C98047   9.922   6.929   5.372 -0.0872 -0.0837 -0.2936
  727MOL0     C98048   9.917   7.081   5.410  0.4153 -0.5649 -0.6934
  727MOL0     C98049  10.051   7.163   5.397 -0.3548 -0.2222 -0.6184
  727MOL0     C98050  10.020   7.313   5.419  0.6666  0.7218 -0.3526
  727MOL0     C98051  10.148   7.393   5.408 -1.1672  0.0314  0.4497
  727MOL0     C98052  10.143   7.542   5.441  0.2108 -0.2754 -0.1085
  727MOL0     C98053  10.259   7.611   5.369  0.3285 -0.4689  0.6550
  727MOL0    Cl98054  10.424   7.569   5.442  0.0255 -0.0711  0.3394
  727MOL0     C98055   9.503   6.818   5.230 -0.3777 -0.0444 -1.0566
  727MOL0     C98056   9.395   6.768   5.156  0.7986  0.2126 -0.1301
  727MOL0     O98057   9.344   6.486   4.967 -0.3416  0.0667  0.2806
  727MOL0     C98058   9.130   6.661   4.736  0.4290 -0.0593  0.3539
  727MOL0     C98059   9.037   6.618   4.643 -0.2829 -0.2992 -0.4301
  727MOL0     N98060   8.383   6.169   4.404 -0.3611  1.2439  0.6100
  727MOL0     N98061   8.299   6.072   4.423  0.2677 -0.3693 -0.1745
  727MOL0     C98062   7.272   5.980   4.316 -0.4014 -0.2391  0.4056
  727MOL0     C98063   7.129   5.964   4.322 -0.0594 -0.5125 -0.8653
  727MOL0     C98064   6.699   6.131   4.185  0.4726  0.3236  0.2355
  727MOL0     C98065   6.648   6.226   4.102 -0.1904 -0.2417  0.0375
  727MOL0     C98066   6.511   6.264   4.107 -0.5024  0.1417 -1.0628
  727MOL0     C98067   6.432   6.218   4.204  1.1484 -0.2277 -0.3238
  727MOL0     O98068   6.319   6.297   4.224  0.3568  0.4909 -0.1418
  727MOL0     C98069   6.214   6.246   4.317  0.3267 -0.1121 -0.1087
  727MOL0     C98070   6.089   6.207   4.230  0.5245 -0.0976 -0.2184
  727MOL0     C98071   6.044   6.288   4.117 -0.5246 -0.2023  0.2980
  727MOL0     C98072   5.908   6.238   4.071  0.0334  0.1970  0.5348
  727MOL0     C98073   5.793   6.279   4.152 -0.1113 -0.5174  0.3917
  727MOL0     C98074   5.702   6.338   4.210 -0.7082  0.5267  0.0717
  727MOL0     C98075   6.480   6.119   4.290  0.0477  0.3771 -0.6650
  727MOL0     C98076   6.613   6.073   4.277  0.9060 -0.0150  0.3975
  727MOL0     C98077   6.657   5.960   4.368 -0.1194  0.1334 -0.0657
  727MOL0     H98078   7.048   6.244   4.145 -0.2244  0.3247  2.4831
  727MOL0     H98079   7.273   6.260   4.117 -0.7919 -0.7551 -1.0331
  727MOL0     H98080   7.538   6.088   4.017 -0.5567  1.1847 -0.4598
  727MOL0     H98081   7.498   6.240   4.104 -1.7952 -0.3617 -1.1013
  727MOL0     H98082   7.654   6.200   4.267 -0.7376 -1.3109  0.7570
  727MOL0     H98083   7.735   6.238   4.109 -0.5375  0.8648 -1.0628
  727MOL0     H98084   7.715   5.961   4.226 -0.4462  0.4952  0.2763
  727MOL0     H98085   7.841   6.073   4.272 -0.5670 -0.5457  1.9220
  727MOL0     H98086   7.781   5.988   3.979 -1.3081  1.6651  0.0387
  727MOL0     H98087   7.907   6.091   4.035 -0.0779 -1.2777  0.6258
  727MOL0     H98088   7.897   5.794   4.116 -1.7323  0.6937 -2.0617
  727MOL0     H98089   8.011   5.884   3.998  1.4542  4.2042  0.9250
  727MOL0     H98090   8.083   6.008   4.217 -1.6824  1.1321  0.5801
  727MOL0     H98091   7.977   5.914   4.301 -2.1717  1.8023  0.3966
  727MOL0     H98092   8.208   5.808   4.134 -1.8335  3.3599 -1.6850
  727MOL0     H98093   8.106   5.705   4.238  2.5462 -0.6949 -2.1284
  727MOL0     H98094   8.189   5.826   4.454 -1.2410  0.4768  0.2422
  727MOL0     H98095   8.312   5.751   4.375 -0.2632  0.4103  0.9368
  727MOL0     H98096   8.477   5.902   4.229 -0.3442  1.3203 -2.2548
  727MOL0     H98097   8.617   6.199   4.169 -1.3237  1.8873 -0.7982
  727MOL0     H98098   8.551   6.308   4.281  1.5109  0.6223  1.6747
  727MOL0     H98099   8.676   6.166   4.462  1.9283 -1.9695  0.4370
  727MOL0     H98100   8.787   6.129   4.330 -1.5863 -1.2202  1.0562
  727MOL0     H98101   8.682   6.401   4.380 -0.7031 -0.8771 -1.7808
  727MOL0     H98102   8.827   6.359   4.284  0.6424 -2.3070 -0.5005
  727MOL0     H98103   8.947   6.272   4.477  0.1287  0.3912 -2.3554
  727MOL0     H98104   8.819   6.309   4.592 -0.1423  1.1306  0.5578
  727MOL0     H98105   9.052   6.280   4.682 -0.4031  0.9696 -1.7094
  727MOL0     H98106   9.211   6.345   4.839  1.7972  0.0166 -1.4667
  727MOL0     H98107   9.545   6.761   4.854  0.3868  3.3252 -0.1838
  727MOL0     H98108   9.719   6.875   4.990  0.4709 -2.1025  0.1247
  727MOL0     H98109   9.716   6.848   5.423 -1.2650 -0.4341 -0.4838
  727MOL0     H98110   9.804   6.762   5.305  1.7077  0.8890 -1.2516
  727MOL0     H98111   9.957   6.883   5.465  0.7731  0.7069 -0.2112
  727MOL0     H98112   9.995   6.909   5.292 -1.9402 -1.2238 -1.7834
  727MOL0     H98113   9.841   7.124   5.345  0.0994 -0.5833 -0.3362
  727MOL0     H98114   9.893   7.093   5.515  0.9281  2.7031 -0.8489
  727MOL0     H98115  10.094   7.154   5.297 -1.4032 -0.3750 -1.0743
  727MOL0     H98116  10.117   7.123   5.474 -0.9804  2.0095  1.1648
  727MOL0     H98117   9.972   7.325   5.516 -1.7155  1.8423 -1.5951
  727MOL0     H98118   9.954   7.346   5.338 -2.7368 -3.1104  0.5552
  727MOL0     H98119  10.234   7.348   5.458 -1.6101 -1.0963  0.2190
  727MOL0     H98120  10.176   7.371   5.304 -0.8566 -0.5556  0.6564
  727MOL0     H98121  10.143   7.561   5.548  0.0133  0.1984 -0.1869
  727MOL0     H98122  10.052   7.593   5.407  0.6367  0.6833  0.1417
  727MOL0     H98123  10.264   7.571   5.267 -3.4417  1.5070 -0.4833
  727MOL0     H98124  10.239   7.718   5.363  0.2501 -0.4794  0.7314
  727MOL0     H98125   9.493   6.829   5.338 -2.7903 -0.5381 -1.1658
  727MOL0     H98126   9.299   6.727   5.187  0.2311  0.9648 -0.8520
  727MOL0     H98127   9.145   6.760   4.777 -0.6806 -1.1989  3.9499
  727MOL0     H98128   8.985   6.702   4.599  1.6955  1.1101 -0.2401
  727MOL0     H98129   7.340   5.910   4.366 -0.8320 -1.6792 -0.9408
  727MOL0     H98130   7.078   5.887   4.379  1.2728  0.3725  1.6995
  727MOL0     H98131   6.712   6.272   4.027  0.7778 -1.0406  0.3500
  727MOL0     H98132   6.470   6.335   4.037 -2.2418 -0.8043 -1.0711
  727MOL0     H98133   6.190   6.323   4.391  0.1141  0.8748 -1.1754
  727MOL0     H98134   6.244   6.161   4.378 -1.1704  0.2206  1.1492
  727MOL0     H98135   6.006   6.181   4.297  1.8602  0.0105  1.5814
  727MOL0     H98136   6.123   6.114   4.183 -0.8186 -0.4267 -0.5958
  727MOL0     H98137   6.122   6.286   4.040 -1.6492 -0.7628 -0.8626
  727MOL0     H98138   6.031   6.392   4.148  2.2686  1.2126 -2.5949
  727MOL0     H98139   5.902   6.270   3.967 -0.5544  0.4002  0.6290
  727MOL0     H98140   5.921   6.130   4.075  0.5196  0.1877 -0.8081
  727MOL0     H98141   5.615   6.374   4.260 -1.8831 -0.0932 -1.4441
  727MOL0     H98142   6.439   6.086   4.385 -1.9113  0.4033 -1.4697
  727MOL0     H98143   6.581   5.890   4.402  1.1585 -1.0623  0.4228
  727MOL0     H98144   6.729   5.898   4.314  0.5745 -0.3271  1.3315
  727MOL0     H98145   6.711   5.992   4.458 -3.2113  0.0491  1.9713
  728MOL0     O98146   2.380   7.911   5.640  0.3299  0.7594  0.0070
  728MOL0     C98147   2.334   7.891   5.750  0.3126  0.5094 -0.2575
  728MOL0     O98148   2.406   7.878   5.863  0.0135  0.0214 -0.3310
  728MOL0     C98149   2.533   7.920   5.861  0.7389 -0.6972  1.0165
  728MOL0     C98150   2.574   8.032   5.926  0.3621  0.5891 -0.2312
  728MOL0     C98151   2.706   8.084   5.912 -0.2896 -0.7668 -0.5500
  728MOL0     C98152   2.799   8.014   5.837  0.4448  0.1308  0.2940
  728MOL0     O98153   2.929   8.047   5.812 -0.1633 -0.1777 -0.2618
  728MOL0     C98154   2.975   8.170   5.870 -0.5299  0.4065 -0.4039
  728MOL0     C98155   3.124   8.189   5.839 -0.1227  0.1125  0.2108
  728MOL0     C98156   3.195   8.062   5.868 -0.1490 -0.7470  0.3164
  728MOL0     C98157   3.347   8.101   5.857 -0.6224  0.3841 -0.3136
  728MOL0     C98158   3.440   7.983   5.864 -0.2039 -0.5228  0.2276
  728MOL0     C98159   3.585   8.027   5.872 -0.2229  0.0266  0.6769
  728MOL0     C98160   3.666   7.899   5.905 -0.0817 -1.2471 -0.3672
  728MOL0     C98161   3.826   7.924   5.880  0.1833 -0.7601  0.6062
  728MOL0     N98162   3.887   7.810   5.818  0.9010  0.3980 -0.0079
  728MOL0     C98163   3.894   7.784   5.682 -0.2689 -1.0582 -0.0119
  728MOL0     C98164   3.996   7.696   5.680 -0.5185  0.1795 -0.0149
  728MOL0     C98165   4.075   7.664   5.561  0.4985 -0.2978  0.7904
  728MOL0     C98166   4.235   7.687   5.566  1.0472  0.1027  0.3636
  728MOL0     C98167   4.265   7.837   5.586  0.8334 -0.0244 -0.1376
  728MOL0     C98168   4.406   7.884   5.578 -0.1001  0.3529  0.3349
  728MOL0     O98169   4.484   7.846   5.461 -0.1289 -0.4330  0.9624
  728MOL0     C98170   4.605   7.905   5.445 -0.4629  0.1149  0.2896
  728MOL0     C98171   4.684   7.853   5.339 -0.2544  0.2402  0.1479
  728MOL0     C98172   4.820   7.897   5.317  0.7371  0.7346 -0.1557
  728MOL0     C98173   4.863   8.009   5.387  0.1408 -0.2687  0.1527
  728MOL0     C98174   4.999   8.052   5.354 -0.3314 -0.3717 -0.7131
  728MOL0     O98175   5.052   8.149   5.435 -0.2721 -0.1686  0.0042
  728MOL0     C98176   5.175   8.205   5.406  0.3113  0.6792 -0.5530
  728MOL0     C98177   5.294   8.185   5.492  0.6958  0.3736  0.3776
  728MOL0     C98178   5.404   8.268   5.477  0.6557 -0.2052 -0.4940
  728MOL0     C98179   5.396   8.360   5.374  0.1071 -0.4225 -0.1030
  728MOL0     O98180   5.507   8.431   5.354  0.9094  0.1584 -0.2623
  728MOL0     C98181   5.524   8.528   5.457 -0.3815  0.4915 -0.1264
  728MOL0     C98182   5.652   8.605   5.413  0.7096 -0.0843  0.5745
  728MOL0     C98183   5.656   8.746   5.467 -0.0257  1.2792 -0.6675
  728MOL0     C98184   5.789   8.815   5.434  0.0424  0.5712  0.1413
  728MOL0     C98185   5.805   8.959   5.484  0.3653 -0.3888 -0.5623
  728MOL0     C98186   5.938   9.016   5.439 -1.5833  0.3380 -0.3450
  728MOL0     C98187   5.971   9.159   5.478  1.3139  0.4788 -0.3689
  728MOL0     C98188   6.081   9.206   5.387  0.1894  0.4622 -0.5843
  728MOL0    Cl98189   6.240   9.114   5.405 -0.3851 -0.4587  0.2525
  728MOL0     C98190   5.283   8.387   5.291  0.0258  0.3041  0.2181
  728MOL0     C98191   5.177   8.296   5.296  0.3180 -0.8131  0.1829
  728MOL0     O98192   5.047   8.012   5.251 -0.3624  0.2666  0.2208
  728MOL0     C98193   4.787   8.062   5.486 -0.2140  0.0086 -0.1568
  728MOL0     C98194   4.658   8.016   5.516 -0.2208 -1.4086  0.1154
  728MOL0     N98195   4.033   7.646   5.807 -0.1474  0.1205  1.5012
  728MOL0     N98196   3.957   7.721   5.891 -0.4932  0.4166  0.0909
  728MOL0     C98197   2.753   7.894   5.781 -0.5669 -0.1697 -0.2508
  728MOL0     C98198   2.628   7.843   5.797  0.4604 -0.2646  0.3295
  728MOL0     C98199   2.188   7.875   5.771  0.1752 -0.4604  0.1563
  728MOL0     C98200   2.112   7.883   5.658  0.3236 -0.0165  0.1031
  728MOL0     C98201   1.977   7.845   5.659  0.2726 -0.5341 -0.8449
  728MOL0     C98202   1.906   7.806   5.770 -0.9340  0.0164  0.6974
  728MOL0     O98203   1.778   7.768   5.759  0.0089 -0.1118  0.1086
  728MOL0     C98204   1.687   7.768   5.873  0.7031 -0.2992 -0.7011
  728MOL0     C98205   1.551   7.728   5.827 -0.0451 -0.0186 -1.1788
  728MOL0     C98206   1.458   7.695   5.955  0.1686 -0.5933 -0.5255
  728MOL0     C98207   1.318   7.652   5.921 -0.2661  0.5594 -0.1747
  728MOL0     C98208   1.332   7.528   5.850  0.5355 -1.1247  0.5229
  728MOL0     C98209   1.357   7.435   5.781  1.0629 -0.0474  0.6391
  728MOL0     C98210   1.978   7.810   5.886 -1.8704 -0.0160  0.3793
  728MOL0     C98211   2.119   7.836   5.884  0.1393 -0.7074 -0.9158
  728MOL0     C98212   2.175   7.821   6.022 -0.1784  0.4154 -1.0743
  728MOL0     H98213   2.500   8.099   5.970 -0.8399  0.6161 -2.1788
  728MOL0     H98214   2.742   8.171   5.967  1.2089 -2.3802  1.1477
  728MOL0     H98215   2.932   8.257   5.820 -0.4175  0.3006 -0.6896
  728MOL0     H98216   2.952   8.174   5.977 -2.9233  0.0052 -0.8460
  728MOL0     H98217   3.164   8.269   5.901  1.1172  1.7803 -2.5403
  728MOL0     H98218   3.143   8.225   5.737  1.3851 -0.2102  0.3643
  728MOL0     H98219   3.182   7.985   5.791  0.6307 -0.0384 -0.5566
  728MOL0     H98220   3.171   8.016   5.964 -4.8014 -2.2821 -1.3194
  728MOL0     H98221   3.365   8.145   5.758  1.1388  0.5197  0.0354
  728MOL0     H98222   3.370   8.169   5.939  1.8417 -1.1359  0.3439
  728MOL0     H98223   3.411   7.938   5.959 -0.0351  0.6602  0.8515
  728MOL0     H98224   3.425   7.923   5.773 -4.7723 -0.1125  0.5148
  728MOL0     H98225   3.608   8.074   5.776  0.5117  0.0315  0.8525
  728MOL0     H98226   3.605   8.102   5.948  0.8720 -1.1968  1.6410
  728MOL0     H98227   3.638   7.830   5.826 -2.2281  1.3461 -2.0671
  728MOL0     H98228   3.653   7.857   6.006  1.5962 -1.7676 -0.3379
  728MOL0     H98229   3.837   8.002   5.805  2.6836  0.2479  1.9245
  728MOL0     H98230   3.872   7.955   5.974 -1.0084  0.1766  0.9001
  728MOL0     H98231   3.836   7.823   5.599  0.2259 -0.1896  0.0303
  728MOL0     H98232   4.052   7.560   5.532 -1.3365  0.1531  0.5014
  728MOL0     H98233   4.032   7.725   5.481 -0.8396 -1.6329  0.4249
  728MOL0     H98234   4.281   7.631   5.647  2.1279  0.9466  0.3572
  728MOL0     H98235   4.272   7.653   5.469 -1.1960  1.9097 -1.2654
  728MOL0     H98236   4.221   7.856   5.684 -1.3524 -1.6554 -0.7110
  728MOL0     H98237   4.209   7.881   5.503  4.6487  0.4854 -2.7054
  728MOL0     H98238   4.467   7.849   5.662  0.0527 -3.3065 -1.1203
  728MOL0     H98239   4.401   7.993   5.584 -0.9174  0.2755  1.3551
  728MOL0     H98240   4.646   7.763   5.292 -1.3282  1.2072 -0.8838
  728MOL0     H98241   4.888   7.838   5.257 -0.3039  0.1781 -0.8124
  728MOL0     H98242   5.284   8.114   5.574 -1.3063 -1.5177 -1.3768
  728MOL0     H98243   5.494   8.263   5.538  0.0539 -0.3721  0.3874
  728MOL0     H98244   5.434   8.591   5.457  0.3228  1.5299 -0.9023
  728MOL0     H98245   5.540   8.478   5.553  2.1821  1.0652 -0.1942
  728MOL0     H98246   5.732   8.541   5.452  0.6668 -1.7609 -1.8888
  728MOL0     H98247   5.646   8.615   5.305  2.2626 -0.8229  0.3994
  728MOL0     H98248   5.579   8.808   5.420 -1.2743  0.0527 -0.2890
  728MOL0     H98249   5.642   8.725   5.573 -1.6902 -2.6790 -1.5205
  728MOL0     H98250   5.793   8.822   5.325 -0.1070  1.0679  0.1622
  728MOL0     H98251   5.874   8.754   5.465  2.6407  4.6839  1.9315
  728MOL0     H98252   5.798   8.958   5.594  2.1209 -2.3648 -0.4104
  728MOL0     H98253   5.723   9.013   5.436 -0.9060 -1.2570  0.5752
  728MOL0     H98254   6.017   8.956   5.486 -2.4059 -0.1131  0.5010
  728MOL0     H98255   5.951   8.998   5.332 -1.3524 -1.3681 -0.0628
  728MOL0     H98256   5.994   9.171   5.584 -0.5145  3.2300 -0.1736
  728MOL0     H98257   5.882   9.224   5.478 -0.4063 -1.7323 -1.9140
  728MOL0     H98258   6.041   9.197   5.286 -2.1590 -2.4885  0.4616
  728MOL0     H98259   6.108   9.310   5.405  0.8609 -0.1827  2.8877
  728MOL0     H98260   5.291   8.469   5.220 -1.5164 -0.6046 -1.0642
  728MOL0     H98261   5.090   8.314   5.233  1.3016 -1.9807 -1.6093
  728MOL0     H98262   4.839   8.142   5.537  0.5872 -1.1158  0.8725
  728MOL0     H98263   4.619   8.071   5.601  0.4752  2.7241 -1.9853
  728MOL0     H98264   2.827   7.842   5.722 -1.3529 -1.3544 -0.2118
  728MOL0     H98265   2.597   7.755   5.742  0.0938  0.4813 -0.6993
  728MOL0     H98266   2.159   7.909   5.564 -0.4489  0.9368 -0.0390
  728MOL0     H98267   1.926   7.857   5.564 -1.6853 -0.1636  0.1870
  728MOL0     H98268   1.686   7.870   5.911  0.8583 -0.1096 -1.1986
  728MOL0     H98269   1.720   7.700   5.953  3.3188  1.8034  0.1533
  728MOL0     H98270   1.566   7.629   5.784  0.5233 -0.3593 -0.2279
  728MOL0     H98271   1.505   7.800   5.759  0.3225  0.7483 -0.6382
  728MOL0     H98272   1.454   7.784   6.019 -1.5766 -0.4399 -0.7914
  728MOL0     H98273   1.507   7.619   6.017  1.6763  0.3080 -0.5612
  728MOL0     H98274   1.254   7.628   6.007  0.5247  2.5022  1.0192
  728MOL0     H98275   1.271   7.735   5.867  0.1533 -0.3843 -2.0868
  728MOL0     H98276   1.343   7.351   5.717  0.4171  1.9487 -2.0119
  728MOL0     H98277   1.925   7.783   5.976 -3.9773  0.2633 -0.7099
  728MOL0     H98278   2.220   7.913   6.062 -3.6730  1.0407  1.8663
  728MOL0     H98279   2.104   7.803   6.103  0.7840  2.0579  0.2243
  728MOL0     H98280   2.247   7.739   6.021 -1.3689 -0.6838 -0.0136
  729MOL0     O98281   4.086   8.591   6.269 -0.3644  0.6054 -0.7671
  729MOL0     C98282   4.109   8.710   6.285 -1.0662  0.2148 -1.2435
  729MOL0     O98283   4.222   8.759   6.349  0.0918  0.0485 -0.0564
  729MOL0     C98284   4.332   8.678   6.371  0.6656 -0.0303  0.6968
  729MOL0     C98285   4.375   8.658   6.503  0.3015  0.2470 -0.0295
  729MOL0     C98286   4.488   8.579   6.531 -0.4433 -0.2900  0.2342
  729MOL0     C98287   4.565   8.526   6.419 -0.5496 -0.5021 -0.3491
  729MOL0     O98288   4.669   8.438   6.453 -0.1252 -0.5227  0.2094
  729MOL0     C98289   4.780   8.429   6.354  0.7161  0.3840 -0.2551
  729MOL0     C98290   4.897   8.364   6.422  0.5150 -0.1056  0.2190
  729MOL0     C98291   4.967   8.449   6.535  0.7024  0.1414  1.4093
  729MOL0     C98292   5.049   8.367   6.623 -1.5750 -0.0179 -0.7047
  729MOL0     C98293   5.092   8.450   6.747  0.5126 -0.1160 -0.5076
  729MOL0     C98294   5.168   8.362   6.850  0.4534  0.7463 -0.3577
  729MOL0     C98295   5.314   8.349   6.798  0.7126 -0.5182  0.3018
  729MOL0     C98296   5.396   8.289   6.911  1.1345  0.1051 -0.1801
  729MOL0     N98297   5.541   8.292   6.885  0.0197  0.0488  0.2873
  729MOL0     C98298   5.630   8.354   6.968 -0.2619  0.0021  0.5324
  729MOL0     C98299   5.754   8.308   6.924  1.0420  0.6762  0.9703
  729MOL0     C98300   5.884   8.342   6.985 -0.3858 -0.9321 -0.1016
  729MOL0     C98301   5.985   8.225   6.988  0.4661 -0.2277 -0.2227
  729MOL0     C98302   6.070   8.209   6.859 -0.4886 -0.5454  0.2327
  729MOL0     C98303   6.178   8.106   6.881  0.1227  0.0579 -1.1952
  729MOL0     O98304   6.253   8.088   6.754  0.5147  0.1210  0.0205
  729MOL0     C98305   6.385   8.056   6.775 -0.0549  0.4280 -0.0912
  729MOL0     C98306   6.462   8.157   6.726 -0.3368  0.3821 -0.0059
  729MOL0     C98307   6.598   8.155   6.737 -0.1276  0.6637 -0.8344
  729MOL0     C98308   6.663   8.050   6.801  0.7967  0.1216 -0.0220
  729MOL0     C98309   6.813   8.043   6.801  0.1719 -0.5694 -0.8463
  729MOL0     O98310   6.871   7.921   6.813 -0.1333  1.1060  0.6338
  729MOL0     C98311   7.002   7.910   6.838 -0.2852 -0.5034  1.4633
  729MOL0     C98312   7.042   7.821   6.939 -0.5179 -0.7887  0.1668
  729MOL0     C98313   7.181   7.803   6.975  0.2465 -0.0322 -0.2110
  729MOL0     C98314   7.274   7.873   6.905 -0.2817 -0.0027 -0.7052
  729MOL0     O98315   7.407   7.879   6.942 -0.9197  0.2531 -0.1536
  729MOL0     C98316   7.466   7.754   6.982  0.2661  0.7502  0.2258
  729MOL0     C98317   7.609   7.791   7.015  0.3508  0.0511 -0.0455
  729MOL0     C98318   7.710   7.678   7.034  0.9891 -0.1837  0.1807
  729MOL0     C98319   7.765   7.637   6.899 -0.0586  0.3320  0.0669
  729MOL0     C98320   7.893   7.550   6.910  0.2277 -0.3196  0.7421
  729MOL0     C98321   7.879   7.436   7.012  0.4418  0.3676  0.4139
  729MOL0     C98322   8.013   7.354   7.020 -0.9490 -0.2426  0.7774
  729MOL0     C98323   8.022   7.276   7.153  0.5884 -0.1751  0.0604
  729MOL0    Cl98324   8.182   7.210   7.174 -0.2286 -0.2483 -0.4478
  729MOL0     C98325   7.232   7.956   6.806 -0.4480  0.4151  0.2438
  729MOL0     C98326   7.100   7.974   6.764 -0.5168 -0.0521 -0.5646
  729MOL0     O98327   6.868   8.152   6.807  0.1640  0.1303  0.0120
  729MOL0     C98328   6.581   7.953   6.854 -0.3572  0.6120  0.4403
  729MOL0     C98329   6.441   7.956   6.846  0.0585 -0.2231 -1.0707
  729MOL0     N98330   5.732   8.223   6.813 -0.5492  0.3648  0.1902
  729MOL0     N98331   5.606   8.209   6.798  0.3785  0.3465  0.4685
  729MOL0     C98332   4.519   8.542   6.291 -0.2152 -1.6429  0.3541
  729MOL0     C98333   4.404   8.616   6.266  0.4235  0.2114  0.3377
  729MOL0     C98334   4.000   8.814   6.247 -0.5856 -0.1858  0.6608
  729MOL0     C98335   4.025   8.948   6.272  0.1179 -0.1996 -0.6914
  729MOL0     C98336   3.934   9.042   6.241  0.6798 -0.9952  0.3191
  729MOL0     C98337   3.813   9.013   6.188  0.4034  0.2424  1.0907
  729MOL0     O98338   3.736   9.124   6.149  0.4095  0.7271 -0.7069
  729MOL0     C98339   3.604   9.101   6.110  0.0631  0.3061 -0.0558
  729MOL0     C98340   3.560   9.197   6.011 -0.3183 -0.8041  0.7905
  729MOL0     C98341   3.674   9.230   5.911  1.4792 -0.0335 -0.2983
  729MOL0     C98342   3.617   9.292   5.780  0.0824  0.0468 -0.6072
  729MOL0     C98343   3.726   9.313   5.685 -0.9009  0.4643  1.1103
  729MOL0     C98344   3.825   9.331   5.613  0.2172 -0.5558  0.6226
  729MOL0     C98345   3.783   8.877   6.159 -0.6462  0.4310 -0.1587
  729MOL0     C98346   3.873   8.779   6.194 -0.0365 -0.1874  0.8777
  729MOL0     C98347   3.823   8.641   6.167  0.9198 -0.0579  0.7309
  729MOL0     H98348   4.323   8.709   6.584  1.3458  1.9804 -0.3821
  729MOL0     H98349   4.518   8.559   6.633  1.2821 -2.1919 -0.5782
  729MOL0     H98350   4.744   8.362   6.275  1.2663 -1.2831  0.8528
  729MOL0     H98351   4.801   8.526   6.308 -0.1921 -0.1719 -1.9364
  729MOL0     H98352   4.968   8.329   6.347 -0.7426 -1.4845 -0.3789
  729MOL0     H98353   4.858   8.277   6.476 -0.0291  0.6100  0.9944
  729MOL0     H98354   4.892   8.495   6.600  2.2123  3.7918  0.8125
  729MOL0     H98355   5.018   8.529   6.481 -0.4128 -0.2097 -0.2701
  729MOL0     H98356   4.998   8.273   6.648  0.4316 -1.8493 -2.9402
  729MOL0     H98357   5.141   8.345   6.568 -0.9082  0.2346  0.2802
  729MOL0     H98358   5.152   8.533   6.708 -0.4814  0.6538 -0.4728
  729MOL0     H98359   5.006   8.500   6.794 -0.0643 -2.5428  1.1790
  729MOL0     H98360   5.170   8.413   6.947  0.6242  0.1847 -0.0666
  729MOL0     H98361   5.115   8.269   6.871 -2.7810  2.5901  0.3684
  729MOL0     H98362   5.358   8.445   6.771 -1.2337  0.8439  1.6974
  729MOL0     H98363   5.325   8.288   6.707 -0.4564  0.9736 -0.8930
  729MOL0     H98364   5.360   8.332   7.006  1.0730 -1.2008  0.4121
  729MOL0     H98365   5.363   8.185   6.907 -0.2859  0.4490  1.3779
  729MOL0     H98366   5.619   8.414   7.057  2.3176  0.5287  0.5615
  729MOL0     H98367   5.932   8.425   6.933  0.6873 -2.6266 -1.9547
  729MOL0     H98368   5.865   8.371   7.089 -3.2298  0.1087 -0.8287
  729MOL0     H98369   6.049   8.215   7.076 -1.4334 -3.0325  0.9619
  729MOL0     H98370   5.930   8.131   6.990 -0.7339  0.4606  1.1505
  729MOL0     H98371   6.121   8.302   6.830 -2.7544  0.2089 -1.6194
  729MOL0     H98372   6.005   8.181   6.776  1.6982 -2.2194 -1.0250
  729MOL0     H98373   6.121   8.016   6.905  0.3982 -0.2617 -1.7193
  729MOL0     H98374   6.236   8.143   6.966  0.1579 -0.0411 -1.1758
  729MOL0     H98375   6.412   8.240   6.677 -0.5573 -0.3727 -1.0848
  729MOL0     H98376   6.650   8.246   6.708 -0.4886  1.5649  1.1602
  729MOL0     H98377   6.968   7.757   6.987  0.0093 -4.3156 -3.1809
  729MOL0     H98378   7.208   7.739   7.058  2.5912 -1.9223 -2.2623
  729MOL0     H98379   7.420   7.704   7.068 -1.4946 -0.6502 -1.4181
  729MOL0     H98380   7.465   7.687   6.895  0.1467  1.7975 -0.5933
  729MOL0     H98381   7.648   7.868   6.948 -0.2195 -0.3282 -0.8245
  729MOL0     H98382   7.607   7.842   7.112  2.7995  1.1029 -0.4759
  729MOL0     H98383   7.799   7.724   7.078  0.7161  0.2527  0.2909
  729MOL0     H98384   7.679   7.593   7.095 -2.8042  0.9720  0.1191
  729MOL0     H98385   7.802   7.730   6.856  1.1858  0.2262  0.8733
  729MOL0     H98386   7.683   7.581   6.851  1.1815  0.2769 -2.1205
  729MOL0     H98387   7.978   7.611   6.943  1.1575 -1.7296  1.0293
  729MOL0     H98388   7.918   7.505   6.814 -0.6060  0.3890  0.1698
  729MOL0     H98389   7.855   7.472   7.113  0.3239  0.6094  0.3018
  729MOL0     H98390   7.816   7.357   6.969  1.3446  0.2830 -0.8168
  729MOL0     H98391   8.100   7.421   7.020 -1.3092  0.2288  0.8879
  729MOL0     H98392   8.029   7.287   6.935 -1.2120  1.2870 -0.5261
  729MOL0     H98393   7.989   7.322   7.247  0.7429 -1.6943  0.8943
  729MOL0     H98394   7.952   7.193   7.141  1.4384 -0.8531 -0.3099
  729MOL0     H98395   7.308   8.006   6.748 -0.0968 -2.5204 -2.0222
  729MOL0     H98396   7.069   8.034   6.679  1.2204  0.2096 -1.0630
  729MOL0     H98397   6.630   7.871   6.906 -0.4986  0.6503  0.6336
  729MOL0     H98398   6.374   7.879   6.883  1.0657  0.1274  1.6998
  729MOL0     H98399   4.573   8.511   6.201 -0.6065  0.1728 -0.5588
  729MOL0     H98400   4.374   8.620   6.161  1.7567  1.4897 -0.0395
  729MOL0     H98401   4.116   8.994   6.310 -2.0353  2.1948  2.0020
  729MOL0     H98402   3.953   9.147   6.263 -3.0293  0.2257 -1.4769
  729MOL0     H98403   3.543   9.124   6.198  0.4164  0.4944  0.1425
  729MOL0     H98404   3.586   9.002   6.066  2.8549 -0.9007  1.3060
  729MOL0     H98405   3.518   9.287   6.058  1.6254 -0.2568  1.5692
  729MOL0     H98406   3.476   9.151   5.957 -1.4301  0.3641  1.4552
  729MOL0     H98407   3.732   9.139   5.892  0.9926 -0.3474 -0.2959
  729MOL0     H98408   3.734   9.307   5.958  2.3685 -0.7095 -0.3091
  729MOL0     H98409   3.537   9.232   5.737 -0.4923 -0.2362  0.8113
  729MOL0     H98410   3.571   9.390   5.797 -1.1298 -0.2484 -1.9607
  729MOL0     H98411   3.906   9.356   5.548 -1.8257  2.7579 -0.9026
  729MOL0     H98412   3.691   8.844   6.111 -0.6650  0.4242 -0.1179
  729MOL0     H98413   3.736   8.637   6.102 -1.8274  0.6270  4.0541
  729MOL0     H98414   3.894   8.567   6.129 -0.1517 -1.1021  0.7160
  729MOL0     H98415   3.783   8.601   6.261  0.7773 -1.9654 -0.0959
  730MOL0     O98416   8.440   7.156   9.435 -0.6390 -0.1499  0.5926
  730MOL0     C98417   8.420   7.095   9.543 -0.2251  0.0431  0.0735
  730MOL0     O98418   8.511   7.016   9.607  1.2362 -0.6962  0.1481
  730MOL0     C98419   8.638   7.003   9.569 -0.7008 -0.0323 -0.6992
  730MOL0     C98420   8.687   6.875   9.570 -0.8903  0.4148  0.0694
  730MOL0     C98421   8.819   6.847   9.578 -0.9847 -0.2496 -0.3693
  730MOL0     C98422   8.908   6.954   9.558 -0.2493  0.0132 -0.3022
  730MOL0     O98423   9.047   6.945   9.563 -0.3162 -0.5902  1.3726
  730MOL0     C98424   9.085   6.817   9.511 -0.5169  0.5121  0.3351
  730MOL0     C98425   9.236   6.812   9.507 -0.0489  0.1249 -0.0429
  730MOL0     C98426   9.292   6.802   9.650 -0.0502  0.1307  0.1566
  730MOL0     C98427   9.429   6.875   9.661 -0.7811 -0.3388 -1.7165
  730MOL0     C98428   9.547   6.822   9.576  0.5354 -0.5584  0.2015
  730MOL0     C98429   9.671   6.909   9.606 -0.1943 -0.4363  0.0551
  730MOL0     C98430   9.659   7.058   9.537 -0.6543 -0.5614  0.0559
  730MOL0     C98431   9.795   7.142   9.539 -0.2288 -0.2645 -0.6592
  730MOL0     N98432   9.863   7.133   9.668  0.0433  0.1946 -0.3966
  730MOL0     C98433   9.978   7.067   9.700 -0.1020 -0.3399 -0.6855
  730MOL0     C98434   9.990   7.094   9.830 -0.0124  0.2257 -0.0283
  730MOL0     C98435  10.106   7.029   9.913 -0.1244 -0.2626  0.7603
  730MOL0     C98436  10.237   7.103   9.902 -0.0874  0.5328 -0.3294
  730MOL0     C98437  10.307   7.077   9.765  0.6557  0.1329  0.1987
  730MOL0     C98438  10.444   7.129   9.781 -0.0058  0.3152 -0.8606
  730MOL0     O98439  10.529   7.127   9.669  0.5802 -0.6922  0.2703
  730MOL0     C98440  10.655   7.159   9.692 -0.7704  0.0106  1.0022
  730MOL0     C98441  10.745   7.127   9.591 -1.3375  0.1249  0.3653
  730MOL0     C98442  10.886   7.152   9.603  0.7634  0.3672  0.3185
  730MOL0     C98443  10.935   7.203   9.722  0.7680  0.2872  0.7113
  730MOL0     C98444  11.078   7.230   9.754 -0.3139 -0.0775  0.5085
  730MOL0     O98445  11.168   7.166   9.685 -0.1564 -0.0639 -1.1491
  730MOL0     C98446  11.290   7.148   9.739 -1.8840  0.1015 -0.3530
  730MOL0     C98447  11.321   7.137   9.876  0.0510  0.1666  0.1721
  730MOL0     C98448  11.453   7.095   9.913 -0.6345 -0.3128  0.2015
  730MOL0     C98449  11.551   7.075   9.820  0.1306 -0.6950  1.5597
  730MOL0     O98450  11.681   7.030   9.861  0.2143 -0.6702  0.4351
  730MOL0     C98451  11.751   6.931   9.781  0.5221 -0.2249 -0.2790
  730MOL0     C98452  11.889   6.888   9.839  0.7819 -0.5718  0.3409
  730MOL0     C98453  11.986   7.004   9.868 -0.1802  0.4577 -0.6937
  730MOL0     C98454  12.083   6.956   9.970 -0.3888 -0.1452  0.0575
  730MOL0     C98455  12.199   7.066   9.995 -0.3405 -0.0103  0.0859
  730MOL0     C98456  12.315   7.001  10.075  0.4334 -0.7062  0.3386
  730MOL0     C98457  12.439   7.088  10.065  0.0484 -0.5119  0.5120
  730MOL0     C98458  12.557   7.038  10.145 -0.3931 -0.8567 -0.5452
  730MOL0    Cl98459  12.693   7.158  10.128 -0.2937 -0.0609  0.3723
  730MOL0     C98460  11.521   7.103   9.687  0.0516  0.4769 -0.4559
  730MOL0     C98461  11.392   7.131   9.645  0.3429 -0.0408 -0.7709
  730MOL0     O98462  11.103   7.320   9.830 -0.6157  0.3767 -0.5194
  730MOL0     C98463  10.846   7.248   9.827  0.6436 -0.1247 -0.1158
  730MOL0     C98464  10.707   7.221   9.811 -0.3224  0.0945  0.0135
  730MOL0     N98465   9.893   7.170   9.885 -0.3383 -0.7608  0.0566
  730MOL0     N98466   9.816   7.191   9.779  1.1405 -0.3493  0.5435
  730MOL0     C98467   8.857   7.087   9.544  0.3766  0.1756 -0.7991
  730MOL0     C98468   8.717   7.107   9.553  0.0600  0.2896  1.9189
  730MOL0     C98469   8.296   7.099   9.605 -0.3842 -0.6452 -0.7829
  730MOL0     C98470   8.256   6.994   9.700 -0.1349  0.2738  0.0628
  730MOL0     C98471   8.138   6.993   9.759  0.5433 -0.0116  0.4886
  730MOL0     C98472   8.046   7.091   9.737 -0.7536 -0.0529 -0.3299
  730MOL0     O98473   7.931   7.098   9.814 -0.2386  0.3597 -0.5058
  730MOL0     C98474   7.808   7.088   9.746 -0.0597  0.1662 -0.2410
  730MOL0     C98475   7.784   6.946   9.708  0.2603 -0.3502  0.0583
  730MOL0     C98476   7.677   6.932   9.600 -1.0041  0.8610  1.0539
  730MOL0     C98477   7.531   6.964   9.630 -0.0665  0.4540  0.5405
  730MOL0     C98478   7.467   6.876   9.730  0.0374 -0.6640  0.0631
  730MOL0     C98479   7.412   6.799   9.814  0.6944 -0.9449  0.1040
  730MOL0     C98480   8.072   7.199   9.654  0.1191  0.7686 -0.0131
  730MOL0     C98481   8.196   7.201   9.586 -0.3557  0.2006 -0.3491
  730MOL0     C98482   8.208   7.317   9.485 -0.3791  0.2755 -0.3090
  730MOL0     H98483   8.620   6.790   9.582 -2.1331  1.3615  0.0243
  730MOL0     H98484   8.854   6.745   9.591  2.0423  0.9996  2.7385
  730MOL0     H98485   9.053   6.747   9.589 -0.2530  0.5403  0.4688
  730MOL0     H98486   9.039   6.801   9.413  2.0058  1.1060 -1.0291
  730MOL0     H98487   9.263   6.893   9.440 -0.0740 -3.0653 -4.3492
  730MOL0     H98488   9.273   6.719   9.462 -0.2196 -1.1646  2.2831
  730MOL0     H98489   9.310   6.698   9.679 -2.4036 -0.7809 -1.3532
  730MOL0     H98490   9.223   6.847   9.722 -0.0468  0.1602  0.1407
  730MOL0     H98491   9.414   6.980   9.635  1.9172  0.4722 -0.3183
  730MOL0     H98492   9.457   6.862   9.766  1.2359  0.1999 -2.1499
  730MOL0     H98493   9.580   6.718   9.589  2.5926  0.0361  0.1068
  730MOL0     H98494   9.512   6.826   9.473  3.6966  0.3637 -0.9686
  730MOL0     H98495   9.694   6.911   9.713  1.6650  2.1055 -0.3010
  730MOL0     H98496   9.754   6.854   9.561  0.7977  1.2520 -0.2739
  730MOL0     H98497   9.584   7.119   9.588  0.1122  1.4073 -1.0450
  730MOL0     H98498   9.621   7.044   9.435  1.5955  0.2225 -0.9621
  730MOL0     H98499   9.861   7.115   9.456  0.6180  1.2539 -0.5212
  730MOL0     H98500   9.764   7.245   9.519 -0.2911 -0.2113 -0.2890
  730MOL0     H98501  10.038   7.002   9.637 -1.6549 -3.2347  0.6150
  730MOL0     H98502  10.081   7.042  10.019 -0.7593 -3.5476  1.1056
  730MOL0     H98503  10.132   6.923   9.911  1.7474  0.1037 -2.6198
  730MOL0     H98504  10.219   7.211   9.907  0.3743  0.6110 -0.3666
  730MOL0     H98505  10.305   7.064   9.979 -0.1875 -1.3338 -1.1356
  730MOL0     H98506  10.269   7.135   9.681  1.2447 -0.6480 -0.6350
  730MOL0     H98507  10.306   6.969   9.744  1.4845  0.6609 -3.1204
  730MOL0     H98508  10.499   7.078   9.861  0.2292 -0.3839 -1.4614
  730MOL0     H98509  10.437   7.235   9.807  0.3487 -0.0687  0.9434
  730MOL0     H98510  10.710   7.100   9.492 -0.7404 -0.6964  0.3741
  730MOL0     H98511  10.943   7.137   9.512  0.6943  0.5233  0.2503
  730MOL0     H98512  11.250   7.148   9.957 -2.1022  0.7644 -1.6933
  730MOL0     H98513  11.485   7.095  10.017  1.2012 -5.5283 -0.0710
  730MOL0     H98514  11.688   6.842   9.778 -0.0601  0.0814  1.3559
  730MOL0     H98515  11.764   6.955   9.676 -4.5882 -0.6125 -1.2819
  730MOL0     H98516  11.866   6.833   9.931 -0.3684 -2.0208 -0.7579
  730MOL0     H98517  11.932   6.822   9.763 -2.6582  0.6315 -2.9971
  730MOL0     H98518  12.041   7.044   9.783  1.6586 -0.7011 -0.1151
  730MOL0     H98519  11.938   7.089   9.918  2.9970  1.6221  0.6429
  730MOL0     H98520  12.128   6.862   9.938  1.3192 -0.3458  2.7583
  730MOL0     H98521  12.040   6.933  10.068 -0.2608 -0.2566  0.0874
  730MOL0     H98522  12.154   7.151  10.047 -2.5449  0.0329 -1.7116
  730MOL0     H98523  12.226   7.110   9.899  1.9877 -2.0557 -0.2998
  730MOL0     H98524  12.283   7.000  10.180 -1.8443  1.2147 -0.2668
  730MOL0     H98525  12.347   6.905  10.034  3.6359 -0.6334  2.3198
  730MOL0     H98526  12.423   7.195  10.082  4.2354  0.3994 -0.0437
  730MOL0     H98527  12.468   7.076   9.960 -0.3128 -2.2488  0.5851
  730MOL0     H98528  12.534   7.032  10.251 -1.2524  0.8076 -0.5982
  730MOL0     H98529  12.607   6.946  10.115  0.8809 -1.2027  2.3831
  730MOL0     H98530  11.598   7.117   9.612 -2.1697  1.9911 -2.5864
  730MOL0     H98531  11.364   7.149   9.541  1.3476 -1.0418 -1.2413
  730MOL0     H98532  10.879   7.302   9.915  0.0384 -1.4803  0.9855
  730MOL0     H98533  10.641   7.234   9.897 -0.6586  1.3632 -0.4178
  730MOL0     H98534   8.928   7.169   9.548  1.0015 -0.4240  1.7850
  730MOL0     H98535   8.680   7.209   9.553 -0.4707  0.1057  2.6983
  730MOL0     H98536   8.326   6.912   9.709 -0.6816 -0.0967  1.1767
  730MOL0     H98537   8.108   6.914   9.827 -0.9907 -1.6282 -1.8983
  730MOL0     H98538   7.821   7.144   9.654  2.3215 -0.7866 -0.5734
  730MOL0     H98539   7.725   7.136   9.799 -1.1553  2.2791 -3.6078
  730MOL0     H98540   7.748   6.896   9.799 -2.6617  1.5162  0.0546
  730MOL0     H98541   7.884   6.905   9.691  1.9773  2.6946  1.8774
  730MOL0     H98542   7.678   6.828   9.568 -0.2976  0.4002  2.5049
  730MOL0     H98543   7.709   6.991   9.513 -4.1927 -0.4007 -1.1994
  730MOL0     H98544   7.514   7.068   9.661  1.4651  0.2014  2.4274
  730MOL0     H98545   7.476   6.960   9.536  0.8365 -1.9963  0.0344
  730MOL0     H98546   7.389   6.737   9.898  0.4187 -0.5993  0.2841
  730MOL0     H98547   8.000   7.280   9.647  0.2775  0.7855 -2.4305
  730MOL0     H98548   8.148   7.397   9.530 -0.3545  0.8880 -1.3382
  730MOL0     H98549   8.308   7.357   9.467  0.4569 -1.9344 -0.8279
  730MOL0     H98550   8.173   7.298   9.383 -1.4506 -0.2214  0.1308
  731MOL0     O98551   6.017  11.176   6.600 -0.2137 -0.7460  0.6198
  731MOL0     C98552   6.003  11.143   6.483 -0.9766 -0.1642 -0.2022
  731MOL0     O98553   6.110  11.096   6.403  0.6069 -0.1126 -0.1178
  731MOL0     C98554   6.239  11.121   6.439  0.1735  0.5104  0.7666
  731MOL0     C98555   6.293  11.239   6.492 -0.3683  0.1115 -1.0314
  731MOL0     C98556   6.430  11.259   6.495  0.5880  0.2468 -0.1963
  731MOL0     C98557   6.519  11.164   6.459  0.7792 -0.0554  0.5975
  731MOL0     O98558   6.654  11.193   6.468 -0.3066 -0.3403  0.7501
  731MOL0     C98559   6.750  11.138   6.368  0.6585  0.0319 -0.0415
  731MOL0     C98560   6.890  11.208   6.357  0.2867  0.2322 -0.5010
  731MOL0     C98561   6.986  11.165   6.474 -0.1633 -0.1557  0.0007
  731MOL0     C98562   6.955  11.244   6.597  0.2480 -0.5344 -0.3339
  731MOL0     C98563   7.054  11.199   6.699 -0.2006  0.0161 -0.1898
  731MOL0     C98564   7.012  11.245   6.834  0.1168 -0.2092  0.2434
  731MOL0     C98565   7.124  11.236   6.939 -0.6610 -1.2276 -0.8746
  731MOL0     C98566   7.164  11.084   6.959 -0.2384  0.4534 -0.1225
  731MOL0     N98567   7.260  11.060   7.071  0.1169 -0.6731 -0.1644
  731MOL0     C98568   7.260  10.964   7.166 -0.3134 -0.0084 -0.0660
  731MOL0     C98569   7.365  10.986   7.246 -0.9866 -0.1406 -0.3431
  731MOL0     C98570   7.417  10.907   7.365  0.8098 -0.8398  0.2518
  731MOL0     C98571   7.571  10.924   7.371 -0.3329 -0.4804  0.1706
  731MOL0     C98572   7.649  10.812   7.446  0.2399 -0.0197  0.4856
  731MOL0     C98573   7.798  10.847   7.451 -0.4008 -0.2983 -0.2750
  731MOL0     O98574   7.822  10.977   7.509  0.5102  0.0087 -0.4149
  731MOL0     C98575   7.932  11.058   7.490  0.5522  0.8833 -0.0949
  731MOL0     C98576   8.050  11.009   7.436  0.0572 -0.9597 -0.1012
  731MOL0     C98577   8.159  11.097   7.425  0.3827  0.1520  0.6777
  731MOL0     C98578   8.156  11.236   7.460  0.6176  0.2739 -0.1484
  731MOL0     C98579   8.268  11.325   7.456  0.2682 -0.3784  1.1281
  731MOL0     O98580   8.255  11.452   7.510 -0.2929  0.0363 -0.6788
  731MOL0     C98581   8.374  11.520   7.508 -0.5645  0.2098 -0.0283
  731MOL0     C98582   8.480  11.472   7.587 -0.5937  0.3810  0.1045
  731MOL0     C98583   8.586  11.558   7.601 -1.0415 -0.3599 -0.6656
  731MOL0     C98584   8.596  11.684   7.540  0.0985 -0.0661 -0.5003
  731MOL0     O98585   8.710  11.757   7.568  0.3845 -0.4065 -0.3103
  731MOL0     C98586   8.723  11.888   7.502 -0.1028  0.0159 -1.1905
  731MOL0     C98587   8.861  11.948   7.543  0.5169  0.2042 -1.2785
  731MOL0     C98588   8.864  12.096   7.523 -0.7779 -0.9729  0.0278
  731MOL0     C98589   8.818  12.168   7.647  1.6352  0.7899 -0.9966
  731MOL0     C98590   8.801  12.319   7.628  0.1851 -0.6366  0.5167
  731MOL0     C98591   8.936  12.396   7.614  0.6047  0.0008  0.1851
  731MOL0     C98592   9.005  12.431   7.752 -0.0500  0.4106 -0.4627
  731MOL0     C98593   8.952  12.547   7.839  0.4120 -0.1403 -0.2417
  731MOL0    Cl98594   8.809  12.502   7.932 -0.0975 -0.3057  0.5106
  731MOL0     C98595   8.489  11.732   7.467  0.4681  1.1785  0.5128
  731MOL0     C98596   8.375  11.652   7.446  0.2066 -0.4950 -0.0196
  731MOL0     O98597   8.361  11.280   7.393 -0.6303  0.1716 -0.8756
  731MOL0     C98598   8.034  11.280   7.513  1.0420  0.0473  0.0430
  731MOL0     C98599   7.925  11.192   7.524  0.2645  0.7441 -0.3331
  731MOL0     N98600   7.438  11.093   7.193 -0.3549  0.2754 -0.1359
  731MOL0     N98601   7.374  11.128   7.083  0.2479 -0.5272  0.7152
  731MOL0     C98602   6.469  11.047   6.400  0.0520 -0.0655 -0.5101
  731MOL0     C98603   6.335  11.031   6.385  0.4819 -0.1755  0.4471
  731MOL0     C98604   5.874  11.140   6.411 -0.2798 -0.8651  0.0769
  731MOL0     C98605   5.847  11.058   6.299 -0.0792 -0.4182  0.5777
  731MOL0     C98606   5.721  11.046   6.237 -0.2439 -1.1108 -0.3137
  731MOL0     C98607   5.611  11.104   6.288 -0.1615 -0.7866 -0.8726
  731MOL0     O98608   5.479  11.095   6.246 -0.0283  0.5027  0.2745
  731MOL0     C98609   5.460  10.974   6.158 -0.6933 -0.6727 -0.1736
  731MOL0     C98610   5.315  10.933   6.138 -0.8362 -0.1236 -0.0969
  731MOL0     C98611   5.256  11.004   6.015  0.7590  0.4948  0.1698
  731MOL0     C98612   5.106  10.965   5.968 -0.9803  0.7473 -0.0026
  731MOL0     C98613   5.098  10.831   5.910 -0.8481 -0.2782  0.2264
  731MOL0     C98614   5.086  10.730   5.848  0.0521  0.3637  1.0660
  731MOL0     C98615   5.635  11.197   6.389  0.0700 -0.3207 -0.3709
  731MOL0     C98616   5.754  11.212   6.454  0.1623 -0.2508  0.9619
  731MOL0     C98617   5.762  11.315   6.565  0.6940  0.5682  0.6546
  731MOL0     H98618   6.228  11.319   6.527  0.2761 -0.1740  0.9483
  731MOL0     H98619   6.462  11.344   6.554 -0.7370  0.4074  0.3203
  731MOL0     H98620   6.764  11.030   6.378  2.6624  0.2925  0.4754
  731MOL0     H98621   6.698  11.135   6.271 -0.7979  0.4380  0.7020
  731MOL0     H98622   6.881  11.317   6.363  0.5000  0.3109 -1.4922
  731MOL0     H98623   6.935  11.186   6.260  1.7109 -0.6455  0.3186
  731MOL0     H98624   7.088  11.195   6.451 -0.5560  2.3102  1.2171
  731MOL0     H98625   6.977  11.056   6.477 -1.8467 -0.1199 -1.6933
  731MOL0     H98626   6.964  11.352   6.591 -0.7149 -0.4155  0.1290
  731MOL0     H98627   6.853  11.221   6.630 -0.0365  0.8060 -0.2361
  731MOL0     H98628   7.058  11.089   6.700  3.5019  0.0104  1.0331
  731MOL0     H98629   7.152  11.242   6.678  0.0333 -0.5959 -0.3605
  731MOL0     H98630   6.990  11.352   6.829 -0.4012 -0.2688  1.0824
  731MOL0     H98631   6.921  11.193   6.867 -0.5026  0.7131  0.0418
  731MOL0     H98632   7.093  11.284   7.032  2.3300 -1.3007  0.3013
  731MOL0     H98633   7.207  11.297   6.901 -1.0523 -1.9813 -3.0489
  731MOL0     H98634   7.083  11.011   6.964  0.4524 -0.2596  3.5533
  731MOL0     H98635   7.208  11.061   6.861  0.0963  1.0712 -0.1275
  731MOL0     H98636   7.188  10.886   7.189 -0.9271  0.6697  0.3475
  731MOL0     H98637   7.377  10.945   7.459  0.0842 -0.1034 -0.3362
  731MOL0     H98638   7.400  10.801   7.346 -1.7548 -0.3027 -0.8502
  731MOL0     H98639   7.604  10.933   7.267 -1.8765  0.2178 -0.2865
  731MOL0     H98640   7.596  11.016   7.425  2.0322 -1.0748  0.1837
  731MOL0     H98641   7.619  10.720   7.396 -3.3110  0.7133  0.9587
  731MOL0     H98642   7.620  10.799   7.551  1.8743 -3.8196  0.6171
  731MOL0     H98643   7.843  10.844   7.352  1.2380  1.5824  0.3487
  731MOL0     H98644   7.850  10.773   7.513  2.2590  0.3508 -1.6072
  731MOL0     H98645   8.059  10.904   7.412 -1.3504 -1.0277 -0.4664
  731MOL0     H98646   8.257  11.057   7.398  0.4493  1.5926 -1.4574
  731MOL0     H98647   8.480  11.376   7.638  2.1483  1.2193  1.9202
  731MOL0     H98648   8.668  11.524   7.664 -1.7296 -1.5063 -0.3505
  731MOL0     H98649   8.726  11.886   7.392  0.1534  5.0709 -1.4933
  731MOL0     H98650   8.642  11.957   7.525 -1.8193 -2.3255  0.1128
  731MOL0     H98651   8.871  11.936   7.652  0.1847 -2.3342 -1.4584
  731MOL0     H98652   8.942  11.895   7.493  0.8783 -1.8276  1.2434
  731MOL0     H98653   8.966  12.134   7.510 -1.3637  0.9475  0.6761
  731MOL0     H98654   8.813  12.113   7.428  0.7936 -0.3283 -0.7385
  731MOL0     H98655   8.884  12.143   7.731  0.5606 -0.4470 -0.4900
  731MOL0     H98656   8.715  12.142   7.672  1.6697  1.0689 -0.5318
  731MOL0     H98657   8.749  12.364   7.712  0.1486  2.7039 -1.1290
  731MOL0     H98658   8.742  12.335   7.537  3.5286 -2.5737 -2.2827
  731MOL0     H98659   9.001  12.339   7.546  1.2403  1.2573 -0.2961
  731MOL0     H98660   8.926  12.484   7.549 -1.0928  0.2697  0.7670
  731MOL0     H98661   9.106  12.465   7.731  1.1594 -1.2674  2.1144
  731MOL0     H98662   9.021  12.339   7.808  1.4931  0.8476 -0.1424
  731MOL0     H98663   9.029  12.593   7.902  0.0911 -0.5155  0.4270
  731MOL0     H98664   8.918  12.621   7.766 -0.9125 -1.4108 -0.9663
  731MOL0     H98665   8.475  11.827   7.417 -0.5710 -1.0880 -4.0144
  731MOL0     H98666   8.288  11.692   7.397 -0.4774 -0.2940  1.3130
  731MOL0     H98667   8.024  11.383   7.544 -1.2745  0.2912 -1.3212
  731MOL0     H98668   7.838  11.235   7.574 -0.9513 -1.7408 -0.1460
  731MOL0     H98669   6.536  10.970   6.363 -0.9013 -1.2965  0.2497
  731MOL0     H98670   6.292  10.937   6.351 -0.7233  0.7659 -0.7707
  731MOL0     H98671   5.929  10.998   6.260 -1.0277 -1.0969 -0.4132
  731MOL0     H98672   5.723  10.987   6.146  1.5832 -0.4319 -0.7628
  731MOL0     H98673   5.520  10.890   6.195 -1.9275 -1.0765  0.9890
  731MOL0     H98674   5.501  11.008   6.062  2.9215  0.9630  1.7296
  731MOL0     H98675   5.262  10.940   6.233  0.7637 -0.9302  0.9124
  731MOL0     H98676   5.314  10.827   6.109 -1.9264 -0.3080  0.5662
  731MOL0     H98677   5.322  10.989   5.929  3.7746 -1.5854  2.5716
  731MOL0     H98678   5.241  11.110   6.036  1.7420  1.0909 -1.9078
  731MOL0     H98679   5.037  10.977   6.052  1.8544 -1.2204  2.8811
  731MOL0     H98680   5.079  11.028   5.883 -1.6556  0.5623  0.0716
  731MOL0     H98681   5.079  10.656   5.770 -1.9999  4.6201 -3.3457
  731MOL0     H98682   5.549  11.252   6.425  0.3419 -0.6755  0.8575
  731MOL0     H98683   5.678  11.385   6.576  1.9427  2.7762 -2.2403
  731MOL0     H98684   5.763  11.264   6.661  0.8731 -0.8962 -0.1025
  731MOL0     H98685   5.854  11.375   6.554  0.4531  0.6164 -1.6779
  732MOL0     O98686   6.481   2.387   5.191 -0.0677 -0.3881 -0.0328
  732MOL0     C98687   6.452   2.503   5.173  0.7817  0.2891 -0.3532
  732MOL0     O98688   6.548   2.603   5.172  0.0375  0.5167  0.6776
  732MOL0     C98689   6.675   2.564   5.186 -0.2514 -0.4840  0.3952
  732MOL0     C98690   6.744   2.493   5.088 -0.8740  0.4313  0.0070
  732MOL0     C98691   6.876   2.461   5.121 -0.7356 -0.2200  1.1165
  732MOL0     C98692   6.937   2.502   5.242  0.1640  0.3640 -0.1940
  732MOL0     O98693   7.073   2.486   5.294  0.5632 -0.7145  0.0470
  732MOL0     C98694   7.151   2.394   5.220  0.2116  0.3247 -0.2811
  732MOL0     C98695   7.251   2.489   5.142  0.1570 -0.6029  0.2781
  732MOL0     C98696   7.372   2.409   5.099  0.6412 -0.5940  0.7411
  732MOL0     C98697   7.482   2.412   5.203 -0.2459 -0.8547  0.3910
  732MOL0     C98698   7.597   2.317   5.169  0.5702  0.5591 -0.3651
  732MOL0     C98699   7.684   2.347   5.040  0.1092  0.4071  0.4486
  732MOL0     C98700   7.776   2.233   5.005  0.6418  0.4486 -0.3055
  732MOL0     C98701   7.909   2.243   5.076 -0.8331  0.2715 -1.1029
  732MOL0     N98702   8.012   2.151   5.018  0.7959 -0.1941 -0.2906
  732MOL0     C98703   7.991   2.029   4.952 -0.2809 -0.3991  0.3028
  732MOL0     C98704   8.107   1.972   4.927 -0.5644 -0.9395 -0.3549
  732MOL0     C98705   8.125   1.845   4.854  0.0858 -0.1462  0.1053
  732MOL0     C98706   8.269   1.800   4.818 -0.5159  0.4037 -0.0727
  732MOL0     C98707   8.338   1.906   4.733  0.3845  0.8275  0.3782
  732MOL0     C98708   8.483   1.861   4.718 -0.1730  0.0064  0.3189
  732MOL0     O98709   8.552   1.845   4.845 -0.2082 -0.5666  0.3093
  732MOL0     C98710   8.686   1.827   4.838  0.3694 -1.0036 -0.1668
  732MOL0     C98711   8.779   1.924   4.805 -0.4625  0.6444 -0.7533
  732MOL0     C98712   8.916   1.898   4.834  0.3060 -1.0741 -0.2916
  732MOL0     C98713   8.963   1.777   4.871 -0.3761  0.6462 -1.1020
  732MOL0     C98714   9.100   1.743   4.877 -1.0323 -0.5725  0.5531
  732MOL0     O98715   9.140   1.607   4.890 -0.3833 -0.7157 -0.7238
  732MOL0     C98716   9.277   1.578   4.876  0.6900  0.7443 -0.5255
  732MOL0     C98717   9.377   1.652   4.943 -0.0071 -0.5858 -0.1634
  732MOL0     C98718   9.509   1.609   4.917 -0.8051 -0.1997 -0.8424
  732MOL0     C98719   9.541   1.488   4.859  0.3847 -0.4173  1.1646
  732MOL0     O98720   9.671   1.467   4.842  0.0890  0.7364 -0.4381
  732MOL0     C98721   9.728   1.349   4.899 -0.0751  0.5655  0.4754
  732MOL0     C98722   9.868   1.384   4.953 -0.1340 -0.0614  0.5328
  732MOL0     C98723   9.875   1.506   5.049 -0.2509  0.3047 -0.1184
  732MOL0     C98724  10.004   1.511   5.136 -0.3302  0.6738 -0.1085
  732MOL0     C98725  10.137   1.543   5.063 -0.0703 -0.5716  0.5933
  732MOL0     C98726  10.234   1.587   5.168  0.1445  0.3098  0.5690
  732MOL0     C98727  10.268   1.483   5.277  0.8577 -0.2228  0.5781
  732MOL0     C98728  10.371   1.530   5.376  0.5416 -0.0278  0.0046
  732MOL0    Cl98729  10.321   1.667   5.462 -0.0719 -0.0878  0.0117
  732MOL0     C98730   9.438   1.416   4.798 -0.3808  0.1361 -0.3471
  732MOL0     C98731   9.306   1.466   4.807  1.2941  1.0795  0.3887
  732MOL0     O98732   9.182   1.841   4.873 -0.2250  0.2676 -0.0123
  732MOL0     C98733   8.870   1.681   4.897 -0.2392  0.0347  0.0425
  732MOL0     C98734   8.730   1.706   4.885  1.4013  0.2147 -0.6825
  732MOL0     N98735   8.203   2.057   4.981 -0.6487 -0.6275 -0.6723
  732MOL0     N98736   8.152   2.160   5.033 -0.1978  0.3429  0.0555
  732MOL0     C98737   6.865   2.582   5.333 -0.3310 -0.5340 -0.1674
  732MOL0     C98738   6.735   2.613   5.306  1.0337 -0.0774  0.4152
  732MOL0     C98739   6.308   2.535   5.146 -0.2362 -0.0015  0.0352
  732MOL0     C98740   6.274   2.661   5.092 -0.3206  0.3254  0.4625
  732MOL0     C98741   6.148   2.697   5.041 -0.0959  0.5960  0.5954
  732MOL0     C98742   6.050   2.597   5.041  0.5643 -0.1704  0.1026
  732MOL0     O98743   5.919   2.614   4.996 -0.2967  0.1966 -0.0619
  732MOL0     C98744   5.876   2.728   4.924 -0.7596 -0.0403 -0.0558
  732MOL0     C98745   5.735   2.707   4.888 -0.1139  0.4182 -0.2352
  732MOL0     C98746   5.681   2.836   4.831 -0.2445  1.2795  0.2954
  732MOL0     C98747   5.548   2.825   4.764  0.5806  0.2153  0.0650
  732MOL0     C98748   5.484   2.953   4.736 -0.4691 -0.3293  0.0670
  732MOL0     C98749   5.424   3.063   4.720  0.3932  0.2620 -0.6533
  732MOL0     C98750   6.082   2.469   5.099  0.0509  0.2739  0.4435
  732MOL0     C98751   6.207   2.443   5.162  0.8672  0.2365 -0.5219
  732MOL0     C98752   6.214   2.296   5.208  0.1281 -0.8648 -0.7678
  732MOL0     H98753   6.694   2.474   4.993 -1.0513 -0.6897  0.3060
  732MOL0     H98754   6.931   2.404   5.047 -2.2086 -1.4050  0.8793
  732MOL0     H98755   7.216   2.331   5.282 -0.5987 -0.4877 -0.2496
  732MOL0     H98756   7.098   2.322   5.157  1.1994 -1.3012  0.6832
  732MOL0     H98757   7.284   2.562   5.216 -0.8800 -1.6972  1.8937
  732MOL0     H98758   7.199   2.536   5.059 -0.1420 -0.4432  0.5538
  732MOL0     H98759   7.411   2.448   5.005  1.7645  2.6126  2.3804
  732MOL0     H98760   7.352   2.304   5.078 -1.4512 -0.2947  1.0465
  732MOL0     H98761   7.522   2.514   5.206  0.2098 -1.0592  2.2839
  732MOL0     H98762   7.443   2.389   5.302 -1.2718  0.9355  0.4470
  732MOL0     H98763   7.668   2.315   5.252  0.7056  0.3521 -0.4841
  732MOL0     H98764   7.555   2.216   5.161 -1.7722  1.5701 -1.8198
  732MOL0     H98765   7.613   2.344   4.956  0.2788 -0.0147  0.3200
  732MOL0     H98766   7.725   2.448   5.051 -1.3183  0.8031  3.0995
  732MOL0     H98767   7.790   2.225   4.897 -0.4836 -2.8152 -0.3193
  732MOL0     H98768   7.720   2.141   5.022 -2.5299  2.2935  0.0565
  732MOL0     H98769   7.956   2.341   5.072  4.0295 -1.6823  0.4497
  732MOL0     H98770   7.897   2.225   5.184  1.2714 -1.1023 -1.0389
  732MOL0     H98771   7.892   1.993   4.929 -1.6682  1.2841  3.0543
  732MOL0     H98772   8.079   1.775   4.925  3.0699 -1.3020  1.0671
  732MOL0     H98773   8.059   1.850   4.767  0.1950 -0.1584  0.0213
  732MOL0     H98774   8.320   1.775   4.911 -0.3237 -0.0892 -0.3092
  732MOL0     H98775   8.251   1.709   4.760 -0.7579  1.5695 -1.9261
  732MOL0     H98776   8.337   2.010   4.768 -3.7090  0.4709  1.9367
  732MOL0     H98777   8.298   1.926   4.633  0.6072 -0.5029  0.0090
  732MOL0     H98778   8.539   1.933   4.656  3.1026 -1.3153  1.5171
  732MOL0     H98779   8.474   1.766   4.666 -0.7490  0.5711 -0.6440
  732MOL0     H98780   8.734   2.010   4.758 -2.4126 -0.3717 -0.8418
  732MOL0     H98781   8.995   1.970   4.814  1.8821 -2.2744  1.3271
  732MOL0     H98782   9.357   1.738   5.006 -1.1261 -1.9814  1.5195
  732MOL0     H98783   9.594   1.669   4.948 -0.8366 -0.0492 -1.0421
  732MOL0     H98784   9.664   1.308   4.978 -0.7543  1.0296  0.1777
  732MOL0     H98785   9.739   1.275   4.819 -2.4025  0.2994  0.3286
  732MOL0     H98786   9.921   1.294   4.986  0.9177 -0.4049 -1.8719
  732MOL0     H98787   9.917   1.414   4.860  2.3061 -0.9077  1.4574
  732MOL0     H98788   9.863   1.601   4.998 -2.0448 -0.3405 -0.9680
  732MOL0     H98789   9.801   1.486   5.127  2.4415  2.2877  3.2295
  732MOL0     H98790  10.010   1.412   5.183 -1.4959 -0.9401 -3.1287
  732MOL0     H98791   9.982   1.591   5.208 -0.3249  1.2483 -0.7317
  732MOL0     H98792  10.116   1.613   4.982 -0.4857 -0.2147  0.9983
  732MOL0     H98793  10.179   1.456   5.013 -1.9838 -0.4827 -1.3291
  732MOL0     H98794  10.325   1.609   5.112 -1.6724 -0.2121 -2.8317
  732MOL0     H98795  10.193   1.683   5.202  0.0258 -0.1204  1.6943
  732MOL0     H98796  10.299   1.389   5.230 -2.4865 -1.0609 -0.2360
  732MOL0     H98797  10.172   1.466   5.327 -0.2058 -0.0026 -1.3201
  732MOL0     H98798  10.401   1.454   5.449 -2.6517  0.4753  2.0483
  732MOL0     H98799  10.456   1.559   5.314  0.2937  1.7278  0.4202
  732MOL0     H98800   9.451   1.325   4.740  2.7566  1.0176 -1.2255
  732MOL0     H98801   9.234   1.410   4.749  2.9678 -1.6896  0.7878
  732MOL0     H98802   8.906   1.586   4.933  0.0982 -0.6560 -1.9845
  732MOL0     H98803   8.659   1.624   4.896  0.1078  1.4108  0.3073
  732MOL0     H98804   6.900   2.618   5.429 -1.3046  0.1255 -0.0420
  732MOL0     H98805   6.670   2.673   5.369  1.2475 -1.5888  2.1754
  732MOL0     H98806   6.356   2.729   5.069 -0.9630  1.0868  0.3930
  732MOL0     H98807   6.138   2.795   4.996  2.9662  2.2059  2.9563
  732MOL0     H98808   5.929   2.732   4.828  1.0111  2.9662  0.9213
  732MOL0     H98809   5.890   2.817   4.985  0.5850 -1.5738  1.9694
  732MOL0     H98810   5.686   2.682   4.982 -0.2923 -2.0467 -0.9207
  732MOL0     H98811   5.716   2.625   4.819 -1.6364  0.3317  0.2428
  732MOL0     H98812   5.758   2.865   4.759 -1.6662  0.5605 -1.6093
  732MOL0     H98813   5.672   2.903   4.918  0.7358  0.3924  1.1070
  732MOL0     H98814   5.555   2.777   4.666 -2.3547 -0.7326  0.2149
  732MOL0     H98815   5.474   2.780   4.831  2.8329 -1.3026  1.7032
  732MOL0     H98816   5.361   3.150   4.718 -1.0479 -0.7166 -0.0824
  732MOL0     H98817   6.002   2.399   5.118  0.8198 -1.2827 -1.6009
  732MOL0     H98818   6.222   2.226   5.125  1.4659  0.2569 -1.6418
  732MOL0     H98819   6.301   2.282   5.273  0.3036  0.8826 -0.5624
  732MOL0     H98820   6.125   2.280   5.270 -0.0045 -0.7021 -0.9130
  733MOL0     O98821   7.648   8.220   3.611  0.5388  1.0384  0.4470
  733MOL0     C98822   7.627   8.119   3.681  0.1187  0.0779  0.2361
  733MOL0     O98823   7.724   8.032   3.713  0.2957  0.2269  0.7569
  733MOL0     C98824   7.848   8.055   3.659 -0.7516  0.4228  0.0789
  733MOL0     C98825   7.887   8.001   3.537 -0.0812  0.0066  0.1938
  733MOL0     C98826   8.010   8.021   3.478 -0.5098 -0.5519  0.2284
  733MOL0     C98827   8.106   8.087   3.561 -0.1279  0.3253 -0.0765
  733MOL0     O98828   8.228   8.110   3.508  0.1011  0.3016 -0.0040
  733MOL0     C98829   8.249   8.233   3.444  0.1004  0.2109 -0.3410
  733MOL0     C98830   8.368   8.255   3.348  0.6145 -0.3758 -0.0679
  733MOL0     C98831   8.491   8.206   3.418 -0.5291  0.4483 -0.8669
  733MOL0     C98832   8.609   8.300   3.397 -0.5098 -0.4653 -0.1955
  733MOL0     C98833   8.678   8.321   3.254 -0.3145  0.5523  0.5125
  733MOL0     C98834   8.805   8.235   3.241 -0.3251 -0.3209  0.4256
  733MOL0     C98835   8.851   8.245   3.090  0.2013  0.9767 -0.9271
  733MOL0     C98836   8.997   8.199   3.083 -0.1822 -0.5040  0.4034
  733MOL0     N98837   9.048   8.207   2.948 -0.3021 -0.0734  0.4152
  733MOL0     C98838   8.994   8.141   2.838  0.2206  0.3950  0.1121
  733MOL0     C98839   9.086   8.148   2.738  0.2323 -0.5619  0.2204
  733MOL0     C98840   9.075   8.088   2.603 -0.1757 -0.6230  1.3162
  733MOL0     C98841   8.968   8.149   2.502 -0.4673 -0.8005  0.5014
  733MOL0     C98842   9.008   8.293   2.473  0.3291 -0.6160  0.8125
  733MOL0     C98843   9.157   8.317   2.444 -0.4503 -0.6239 -0.0117
  733MOL0     O98844   9.198   8.227   2.338 -0.0470  0.3578 -0.0596
  733MOL0     C98845   9.306   8.254   2.255  0.0747 -0.1128 -0.6189
  733MOL0     C98846   9.326   8.165   2.148  0.2429  0.7990 -0.8741
  733MOL0     C98847   9.426   8.190   2.056  0.2854  0.0443  0.5321
  733MOL0     C98848   9.509   8.295   2.056 -0.6199 -0.2059 -0.2126
  733MOL0     C98849   9.618   8.318   1.959  0.2365  0.3720 -0.5152
  733MOL0     O98850   9.710   8.418   2.001  0.2543 -0.1646 -0.0408
  733MOL0     C98851   9.815   8.446   1.921  0.5468 -0.5241  0.0582
  733MOL0     C98852   9.939   8.470   1.980  0.7541  0.3125 -0.1867
  733MOL0     C98853  10.034   8.533   1.898 -0.2036 -1.2784 -0.9979
  733MOL0     C98854  10.023   8.539   1.756 -0.4355  0.4877  0.0497
  733MOL0     O98855  10.127   8.577   1.679  0.5104  0.9724  0.5400
  733MOL0     C98856  10.221   8.472   1.679 -0.1554 -0.0726 -0.4403
  733MOL0     C98857  10.365   8.524   1.659  0.1656  0.1747  0.3705
  733MOL0     C98858  10.463   8.411   1.619 -0.2332 -0.2718  0.6620
  733MOL0     C98859  10.598   8.484   1.584  0.3217 -0.7954 -0.4613
  733MOL0     C98860  10.727   8.395   1.591 -0.3488 -0.1401  1.0571
  733MOL0     C98861  10.765   8.352   1.738  0.2883  0.4339 -1.2465
  733MOL0     C98862  10.903   8.297   1.748 -0.5595  0.7445  0.4041
  733MOL0     C98863  10.965   8.292   1.891  0.1929 -0.1561  0.3433
  733MOL0    Cl98864  11.131   8.270   1.848  0.1269  0.6126 -0.0458
  733MOL0     C98865   9.909   8.506   1.700 -0.5823  0.5500  0.2969
  733MOL0     C98866   9.798   8.460   1.776 -0.2811  0.9716 -0.4005
  733MOL0     O98867   9.621   8.248   1.863  0.1367  0.2307 -0.3438
  733MOL0     C98868   9.479   8.392   2.155 -0.5037 -0.0600 -0.0068
  733MOL0     C98869   9.385   8.369   2.259 -0.0259 -0.3620 -0.8029
  733MOL0     N98870   9.185   8.226   2.781  0.5002  0.3759 -0.5940
  733MOL0     N98871   9.166   8.261   2.901  0.3289  0.4479 -0.5147
  733MOL0     C98872   8.079   8.140   3.681  1.2600  0.9286  0.6055
  733MOL0     C98873   7.949   8.123   3.727 -0.6241  0.2060  0.3194
  733MOL0     C98874   7.488   8.078   3.730 -0.4724 -0.7622  0.6850
  733MOL0     C98875   7.402   8.191   3.751  0.2948  0.0108 -0.0969
  733MOL0     C98876   7.275   8.164   3.804 -0.1308 -0.3175 -0.4823
  733MOL0     C98877   7.225   8.037   3.826 -0.2226  0.0364 -0.1039
  733MOL0     O98878   7.098   8.017   3.878 -0.3778  0.2969 -0.4586
  733MOL0     C98879   7.056   7.886   3.915 -0.0094 -0.4523  0.5452
  733MOL0     C98880   6.918   7.891   3.991 -0.6943  0.2824  0.0809
  733MOL0     C98881   6.804   7.965   3.918 -1.2409 -1.0587  0.3437
  733MOL0     C98882   6.679   7.981   4.011  1.3291 -0.5176 -0.7370
  733MOL0     C98883   6.643   7.855   4.062 -0.1634  0.9941 -1.0376
  733MOL0     C98884   6.606   7.748   4.114  0.3735  0.9765 -0.2678
  733MOL0     C98885   7.309   7.927   3.790  0.5658 -0.5792 -0.7870
  733MOL0     C98886   7.441   7.948   3.741  0.7279  0.0674  0.3323
  733MOL0     C98887   7.518   7.824   3.689 -0.0148  0.1419 -0.2798
  733MOL0     H98888   7.819   7.939   3.480 -0.7042 -0.6431  1.5983
  733MOL0     H98889   8.026   7.970   3.383 -0.7868 -3.4075  1.5942
  733MOL0     H98890   8.153   8.267   3.403 -0.8733 -0.6156  1.1663
  733MOL0     H98891   8.278   8.309   3.517  1.9888 -1.5760  0.8622
  733MOL0     H98892   8.378   8.361   3.323  0.5191 -0.6113 -1.1651
  733MOL0     H98893   8.349   8.192   3.261  1.3615 -0.6535 -0.0443
  733MOL0     H98894   8.521   8.107   3.382 -3.0384 -0.9034  0.4158
  733MOL0     H98895   8.474   8.183   3.524 -0.4684 -1.1900 -1.1737
  733MOL0     H98896   8.577   8.399   3.433  1.4282  0.0591  0.2149
  733MOL0     H98897   8.674   8.262   3.476 -2.9051 -0.6465  1.8160
  733MOL0     H98898   8.617   8.280   3.172  2.0790 -1.2578 -0.4928
  733MOL0     H98899   8.699   8.425   3.227  1.9216  0.7864  2.8383
  733MOL0     H98900   8.882   8.273   3.310  0.1125 -2.4758  1.2145
  733MOL0     H98901   8.782   8.131   3.263 -1.7072 -0.0961  0.1069
  733MOL0     H98902   8.844   8.347   3.052 -0.8041  1.5725  0.7206
  733MOL0     H98903   8.791   8.176   3.030  0.8406  0.5471 -1.0841
  733MOL0     H98904   9.065   8.253   3.150  0.2054 -2.0874  1.3304
  733MOL0     H98905   8.988   8.093   3.109 -0.4852  0.1749  3.5471
  733MOL0     H98906   8.901   8.086   2.838 -0.2837  1.1909  1.5526
  733MOL0     H98907   9.172   8.088   2.554 -0.1333 -1.8998  1.3523
  733MOL0     H98908   9.045   7.983   2.613 -0.7377 -0.5302  0.6905
  733MOL0     H98909   8.962   8.104   2.402  0.9195  3.2378 -1.6285
  733MOL0     H98910   8.867   8.135   2.542 -0.0891 -2.0566  1.0552
  733MOL0     H98911   8.968   8.358   2.551 -0.2738  0.4293 -0.3276
  733MOL0     H98912   8.947   8.338   2.395  2.2017  2.6080  1.0025
  733MOL0     H98913   9.217   8.293   2.532  1.2926  1.7394 -0.4615
  733MOL0     H98914   9.168   8.420   2.408 -2.2349 -0.5657 -0.4983
  733MOL0     H98915   9.258   8.081   2.137  0.2802  0.4068  1.2990
  733MOL0     H98916   9.454   8.119   1.979  3.0549  1.6895 -0.1185
  733MOL0     H98917   9.947   8.459   2.087 -1.1839 -0.5224 -0.1010
  733MOL0     H98918  10.122   8.572   1.949 -0.5307 -1.0838 -0.5719
  733MOL0     H98919  10.222   8.412   1.770  0.8971  1.0453  0.3163
  733MOL0     H98920  10.187   8.408   1.598 -2.0059 -1.8353  1.5869
  733MOL0     H98921  10.358   8.592   1.573 -2.7007 -0.7503 -0.2110
  733MOL0     H98922  10.388   8.586   1.747 -2.4269  1.4971  0.2196
  733MOL0     H98923  10.472   8.341   1.702 -1.7501  0.5978  1.5993
  733MOL0     H98924  10.433   8.355   1.530  3.0413 -3.0476  1.0842
  733MOL0     H98925  10.618   8.567   1.652  2.6817 -0.9849 -0.8386
  733MOL0     H98926  10.605   8.539   1.490  0.0929  2.3305  1.2085
  733MOL0     H98927  10.808   8.454   1.550 -1.6106  0.8759 -0.0579
  733MOL0     H98928  10.706   8.314   1.520  0.3975  0.3356  0.2868
  733MOL0     H98929  10.764   8.437   1.807  1.2620  0.6310 -1.4650
  733MOL0     H98930  10.687   8.280   1.763  0.5858 -0.2732 -2.2887
  733MOL0     H98931  10.960   8.364   1.683 -1.0178  2.4225  1.6428
  733MOL0     H98932  10.895   8.195   1.710  2.2747  1.2981 -2.0866
  733MOL0     H98933  10.951   8.385   1.948  1.4946  0.9312 -1.0054
  733MOL0     H98934  10.924   8.211   1.951  0.8651  0.6692  1.9715
  733MOL0     H98935   9.902   8.520   1.593 -1.6084  2.8021  0.6078
  733MOL0     H98936   9.701   8.446   1.730 -0.9816 -0.2518  1.3004
  733MOL0     H98937   9.533   8.485   2.167 -3.2075  1.6724 -0.4080
  733MOL0     H98938   9.368   8.436   2.342 -1.2949 -1.6068 -0.0162
  733MOL0     H98939   8.147   8.204   3.736  1.2560  0.1936  1.4957
  733MOL0     H98940   7.921   8.176   3.818 -1.9274  0.3277 -0.1248
  733MOL0     H98941   7.430   8.295   3.738 -0.9072  0.3898  0.2261
  733MOL0     H98942   7.211   8.243   3.843  2.3016  0.7140  1.7799
  733MOL0     H98943   7.116   7.846   3.997  1.2356 -1.4936 -0.8146
  733MOL0     H98944   7.060   7.819   3.829 -1.1889  1.8087 -1.3801
  733MOL0     H98945   6.931   7.931   4.092  2.6113 -0.5688  0.1036
  733MOL0     H98946   6.893   7.785   4.004  0.6266 -0.0257  0.3093
  733MOL0     H98947   6.779   7.910   3.826 -1.0518 -1.2601  0.4113
  733MOL0     H98948   6.833   8.066   3.890  0.4568 -1.8374 -0.8347
  733MOL0     H98949   6.706   8.054   4.088  0.6940 -1.7860  0.7504
  733MOL0     H98950   6.607   8.031   3.946 -1.8412 -1.5072  1.7834
  733MOL0     H98951   6.575   7.656   4.160  0.6109 -0.0063 -1.9671
  733MOL0     H98952   7.289   7.822   3.804  2.4489 -0.8945 -0.2888
  733MOL0     H98953   7.461   7.732   3.706 -0.2739  0.1985 -0.8235
  733MOL0     H98954   7.552   7.833   3.586 -1.2820 -1.6593 -0.9128
  733MOL0     H98955   7.614   7.828   3.741  0.7289  1.7230 -1.7020
  734MOL0     O98956   8.377   6.644   1.516  0.5703  0.1770  1.5002
  734MOL0     C98957   8.347   6.763   1.543 -0.5113 -0.1918 -1.0181
  734MOL0     O98958   8.421   6.836   1.626 -0.0686 -0.0301 -0.0785
  734MOL0     C98959   8.548   6.807   1.659 -0.4748 -0.5485 -0.1826
  734MOL0     C98960   8.635   6.755   1.571  0.0135  0.5372  0.9563
  734MOL0     C98961   8.768   6.744   1.606 -0.0169  0.2303  0.4066
  734MOL0     C98962   8.824   6.790   1.722  0.2510  0.7335 -0.5798
  734MOL0     O98963   8.962   6.774   1.745 -0.1748 -0.3353 -0.0017
  734MOL0     C98964   9.054   6.805   1.637 -0.6847  0.7358 -0.7440
  734MOL0     C98965   9.202   6.802   1.678 -0.0235  0.3534  0.5227
  734MOL0     C98966   9.215   6.858   1.817  0.6898 -0.2589 -0.2363
  734MOL0     C98967   9.359   6.900   1.853  0.2202  0.4775  0.2216
  734MOL0     C98968   9.381   6.908   2.002  0.4154 -1.0029 -1.3214
  734MOL0     C98969   9.527   6.954   2.022 -0.2770 -0.2239  0.2538
  734MOL0     C98970   9.579   6.950   2.167  0.0040  0.1596 -0.3129
  734MOL0     C98971   9.483   7.037   2.255  0.8733  0.3618 -0.5648
  734MOL0     N98972   9.522   7.000   2.390  0.2272  0.3728 -0.8226
  734MOL0     C98973   9.636   7.050   2.450 -0.4045  0.2429  0.3434
  734MOL0     C98974   9.637   6.998   2.577  0.5060 -0.8092 -0.4188
  734MOL0     C98975   9.735   7.041   2.684  0.9265 -0.0054  1.4019
  734MOL0     C98976   9.857   6.943   2.701 -0.2146 -0.0681 -0.3283
  734MOL0     C98977   9.927   6.906   2.574 -1.0835 -0.7040  0.3970
  734MOL0     C98978  10.074   6.867   2.602  0.6810  0.2185 -0.5995
  734MOL0     O98979  10.149   6.845   2.483  0.2392  0.1929  0.4217
  734MOL0     C98980  10.280   6.810   2.485  0.3982  0.2373  0.1559
  734MOL0     C98981  10.352   6.785   2.595 -0.2788 -0.2800 -0.3290
  734MOL0     C98982  10.493   6.779   2.583 -1.0681 -0.0729 -0.0604
  734MOL0     C98983  10.555   6.779   2.453  0.2154  0.7707  0.2698
  734MOL0     C98984  10.698   6.743   2.445  1.0356 -0.5389  0.1349
  734MOL0     O98985  10.754   6.735   2.321 -0.5484  0.0562  0.2386
  734MOL0     C98986  10.891   6.735   2.326 -0.3650 -0.8813  0.3759
  734MOL0     C98987  10.954   6.864   2.329  0.4477  0.5454  0.0299
  734MOL0     C98988  11.100   6.870   2.357 -0.5527 -0.7185  0.4876
  734MOL0     C98989  11.168   6.751   2.385 -0.3957 -0.7755  0.4816
  734MOL0     O98990  11.302   6.726   2.419  0.1217  0.0580 -0.1221
  734MOL0     C98991  11.354   6.844   2.483  0.1724 -0.0978 -1.2053
  734MOL0     C98992  11.499   6.822   2.512 -0.1839  0.2753  0.1080
  734MOL0     C98993  11.567   6.954   2.552  0.1381  0.7404 -0.8001
  734MOL0     C98994  11.721   6.931   2.549  0.2108 -0.3971 -0.9216
  734MOL0     C98995  11.781   7.054   2.618  0.2400  0.3523  0.6973
  734MOL0     C98996  11.924   7.040   2.671 -0.0208  0.1817 -0.2452
  734MOL0     C98997  12.022   7.002   2.560  0.2193  0.2241  0.1288
  734MOL0     C98998  12.161   6.989   2.627  0.5521 -0.3196  0.1830
  734MOL0    Cl98999  12.282   7.123   2.598 -0.0457  0.3287 -0.1003
  734MOL0     C99000  11.096   6.631   2.370 -0.2708 -0.1689  0.6178
  734MOL0     C99001  10.958   6.622   2.351 -0.4718  0.1956  0.2761
  734MOL0     O99002  10.750   6.713   2.548  0.7460 -0.2225  0.2373
  734MOL0     C99003  10.477   6.795   2.339 -0.3310  0.3040 -0.4557
  734MOL0     C99004  10.339   6.816   2.357 -0.5198 -0.0619 -1.2481
  734MOL0     N99005   9.523   6.927   2.593  0.4048  0.5594 -0.2938
  734MOL0     N99006   9.460   6.919   2.480  0.5388  0.4372  1.0426
  734MOL0     C99007   8.732   6.849   1.809 -0.2840 -0.1164 -0.7087
  734MOL0     C99008   8.596   6.859   1.782  0.5475  1.0842 -0.5058
  734MOL0     C99009   8.211   6.809   1.497  1.1027 -0.1233 -0.4324
  734MOL0     C99010   8.152   6.738   1.399  0.0792  0.4160 -0.2035
  734MOL0     C99011   8.029   6.774   1.352 -0.3258 -0.0195  0.6194
  734MOL0     C99012   7.951   6.874   1.407 -0.7912 -0.0377  0.2242
  734MOL0     O99013   7.823   6.888   1.367 -0.5927 -0.1157 -0.1044
  734MOL0     C99014   7.734   6.959   1.462 -0.5075  0.4608 -0.1299
  734MOL0     C99015   7.597   6.944   1.401 -0.3960  0.1912 -0.2337
  734MOL0     C99016   7.502   7.009   1.497  0.9831  0.1107 -0.0164
  734MOL0     C99017   7.368   6.946   1.463 -0.1814 -0.1453  1.0263
  734MOL0     C99018   7.280   6.976   1.577 -0.5314  0.0568 -0.8539
  734MOL0     C99019   7.207   6.979   1.671  0.3673 -1.0825  0.5248
  734MOL0     C99020   8.014   6.952   1.505  0.2373  0.4004  0.5023
  734MOL0     C99021   8.144   6.931   1.542 -0.7301  1.0188  0.0848
  734MOL0     C99022   8.201   7.025   1.646  0.2395  0.1516  0.9400
  734MOL0     H99023   8.599   6.710   1.479 -1.6966 -0.0575  1.8681
  734MOL0     H99024   8.833   6.699   1.532  0.8065 -1.1507  1.8997
  734MOL0     H99025   9.051   6.738   1.552  2.3252  0.0560 -0.4454
  734MOL0     H99026   9.040   6.910   1.607 -0.7188  0.8759 -0.2622
  734MOL0     H99027   9.263   6.845   1.598  1.4075 -3.3614 -0.6128
  734MOL0     H99028   9.240   6.700   1.685  2.0396  1.1201  1.2558
  734MOL0     H99029   9.179   6.779   1.883  2.1043 -1.0291 -0.3311
  734MOL0     H99030   9.143   6.940   1.825  1.2644  0.3491 -1.0678
  734MOL0     H99031   9.429   6.836   1.799 -1.4975  1.0365 -2.8953
  734MOL0     H99032   9.376   6.999   1.809 -1.3036  1.2234  1.2165
  734MOL0     H99033   9.314   6.984   2.043  0.6154 -0.0226 -2.7269
  734MOL0     H99034   9.367   6.810   2.048 -0.4533  0.6136  2.1553
  734MOL0     H99035   9.594   6.899   1.956 -0.5514  0.4664 -0.6101
  734MOL0     H99036   9.529   7.062   2.005 -3.2127  0.2828  2.3196
  734MOL0     H99037   9.675   7.004   2.163 -0.9380  1.8572 -1.3504
  734MOL0     H99038   9.593   6.853   2.215  0.1064  0.2693 -0.1165
  734MOL0     H99039   9.490   7.144   2.235 -2.6927  1.7278  3.7970
  734MOL0     H99040   9.381   7.002   2.240  0.7447 -0.5888  2.0271
  734MOL0     H99041   9.702   7.127   2.412  1.2038 -1.3633 -0.2438
  734MOL0     H99042   9.772   7.141   2.659  2.0929 -0.7326  0.0429
  734MOL0     H99043   9.685   7.049   2.780 -0.3164 -0.1376  0.7777
  734MOL0     H99044   9.928   6.992   2.768 -0.2820  0.7305 -0.8327
  734MOL0     H99045   9.822   6.850   2.746 -0.2097 -0.7292 -1.6359
  734MOL0     H99046   9.943   6.995   2.513  2.8221 -2.2312 -1.1663
  734MOL0     H99047   9.874   6.843   2.502 -0.8874  0.8899 -1.2344
  734MOL0     H99048  10.077   6.780   2.669 -0.3472  0.4657 -0.2048
  734MOL0     H99049  10.124   6.946   2.658 -1.1065 -0.5315  2.3095
  734MOL0     H99050  10.316   6.767   2.696  1.2676  2.0875  0.7523
  734MOL0     H99051  10.545   6.758   2.676 -1.1319  3.1003  0.7953
  734MOL0     H99052  10.891   6.949   2.309 -2.4316 -1.7458 -1.3762
  734MOL0     H99053  11.152   6.965   2.358  0.4706 -1.2460  1.7803
  734MOL0     H99054  11.349   6.932   2.417 -0.5831 -0.2359 -1.3470
  734MOL0     H99055  11.301   6.867   2.576 -0.5346  0.0175 -1.6234
  734MOL0     H99056  11.521   6.749   2.591 -1.5205  0.6296  0.8356
  734MOL0     H99057  11.554   6.794   2.422 -2.0672  3.7630 -2.3739
  734MOL0     H99058  11.534   7.038   2.491 -1.1528  0.6849 -0.2068
  734MOL0     H99059  11.536   6.986   2.652  2.4763  3.3432 -0.7976
  734MOL0     H99060  11.766   6.919   2.450  1.6733 -2.9405 -0.0482
  734MOL0     H99061  11.761   6.845   2.604  4.8672  0.2822 -2.7850
  734MOL0     H99062  11.727   7.093   2.705 -0.1471  3.1671 -0.7024
  734MOL0     H99063  11.779   7.133   2.543  3.8548  0.4578  0.5424
  734MOL0     H99064  11.954   7.129   2.727  2.4071 -0.3037 -0.6760
  734MOL0     H99065  11.922   6.960   2.746 -0.8969 -0.3483 -0.8029
  734MOL0     H99066  12.018   7.072   2.475 -1.9742 -0.3496 -0.3006
  734MOL0     H99067  11.989   6.902   2.531 -0.1931  0.2683  0.4353
  734MOL0     H99068  12.155   6.976   2.736  2.5708 -0.3681  0.3108
  734MOL0     H99069  12.211   6.898   2.594 -0.2074 -0.2433 -1.2402
  734MOL0     H99070  11.154   6.540   2.383 -1.2703 -0.7037  1.4913
  734MOL0     H99071  10.907   6.528   2.335  0.2217 -0.0747 -0.4155
  734MOL0     H99072  10.524   6.795   2.241 -1.1488  1.2703 -0.8735
  734MOL0     H99073  10.273   6.862   2.284  0.5867  0.6658 -1.8078
  734MOL0     H99074   8.767   6.886   1.904 -1.0041 -1.3556  0.0615
  734MOL0     H99075   8.538   6.910   1.859  1.0067 -2.1670  2.2318
  734MOL0     H99076   8.192   6.654   1.344 -0.3828 -1.4714  2.1926
  734MOL0     H99077   7.992   6.709   1.274 -0.7819  2.2702 -1.2155
  734MOL0     H99078   7.761   7.063   1.478  1.0730  0.3435 -1.7076
  734MOL0     H99079   7.750   6.916   1.561 -0.6833  0.7874  0.0411
  734MOL0     H99080   7.585   6.836   1.389 -0.8134  0.5390 -4.4156
  734MOL0     H99081   7.590   6.984   1.299 -1.6319  0.5794 -0.0177
  734MOL0     H99082   7.490   7.117   1.480 -0.1527  0.0266  0.1534
  734MOL0     H99083   7.534   6.991   1.600 -3.0801 -2.4462  1.0269
  734MOL0     H99084   7.339   6.996   1.371  1.7752 -2.4751 -1.0022
  734MOL0     H99085   7.376   6.839   1.438  2.0925  0.3006 -0.4196
  734MOL0     H99086   7.128   6.968   1.742  0.1948  0.6852  0.6489
  734MOL0     H99087   7.961   7.030   1.558 -2.5637 -1.6436  0.9731
  734MOL0     H99088   8.168   7.004   1.748 -0.7218  1.4498  0.9363
  734MOL0     H99089   8.310   7.024   1.638  0.1149  0.7544 -2.4686
  734MOL0     H99090   8.167   7.128   1.630 -1.5291 -0.0724  2.7585
  735MOL0     O99091  10.889   2.683   5.803 -0.2956  0.5663  0.2318
  735MOL0     C99092  10.780   2.671   5.862  0.1665 -0.2412  0.0579
  735MOL0     O99093  10.739   2.563   5.939 -0.1280 -0.1577  0.0717
  735MOL0     C99094  10.830   2.488   6.010 -0.3040 -0.5157 -0.6016
  735MOL0     C99095  10.933   2.562   6.083 -0.6837  0.6947  0.5860
  735MOL0     C99096  11.025   2.483   6.152  0.3659 -0.2426 -0.7603
  735MOL0     C99097  11.005   2.344   6.176  0.5770 -0.6214  0.7748
  735MOL0     O99098  11.096   2.286   6.258 -0.1565 -0.0302  0.9698
  735MOL0     C99099  11.063   2.167   6.324  0.9351 -0.9715  0.3140
  735MOL0     C99100  11.110   2.176   6.476  0.0345  0.4160  0.5846
  735MOL0     C99101  11.245   2.235   6.497 -0.0325  0.4249 -0.1991
  735MOL0     C99102  11.361   2.136   6.524 -0.0605 -0.7964  0.2210
  735MOL0     C99103  11.489   2.218   6.554  0.1400  0.3755 -0.7715
  735MOL0     C99104  11.621   2.140   6.544  0.4790 -0.1326  0.5006
  735MOL0     C99105  11.737   2.228   6.585  0.1298  0.2465 -0.6284
  735MOL0     C99106  11.871   2.186   6.521 -0.2549 -0.2051  0.1542
  735MOL0     N99107  11.983   2.239   6.603 -0.2222 -0.1956  0.0098
  735MOL0     C99108  11.990   2.373   6.638 -1.5769  0.0256 -0.8501
  735MOL0     C99109  12.118   2.388   6.677 -0.6017  0.0856 -0.8234
  735MOL0     C99110  12.173   2.523   6.716 -0.0853 -0.1981  0.8461
  735MOL0     C99111  12.328   2.533   6.704 -0.4790  0.6844 -0.2320
  735MOL0     C99112  12.401   2.500   6.839 -0.0571 -1.5738  0.1814
  735MOL0     C99113  12.501   2.394   6.815 -0.3614  0.8526 -0.0904
  735MOL0     O99114  12.570   2.352   6.934  0.0527 -0.2068 -0.2646
  735MOL0     C99115  12.690   2.416   6.961  0.5069  0.7574  0.1053
  735MOL0     C99116  12.734   2.539   6.912  0.2557 -0.7507  0.0850
  735MOL0     C99117  12.864   2.582   6.945  0.3253  0.0166  0.4507
  735MOL0     C99118  12.944   2.511   7.031 -0.6353  0.0109 -0.0794
  735MOL0     C99119  13.084   2.560   7.055  0.2718 -0.0570 -0.0429
  735MOL0     O99120  13.104   2.695   7.050 -0.1880 -0.1272 -0.8441
  735MOL0     C99121  13.221   2.743   7.112  0.4680 -0.5535  0.0082
  735MOL0     C99122  13.213   2.800   7.240  0.4623 -0.3528  0.4755
  735MOL0     C99123  13.324   2.853   7.303  0.5923 -0.0829 -0.1025
  735MOL0     C99124  13.451   2.847   7.236  0.3726  0.3809  0.6442
  735MOL0     O99125  13.545   2.920   7.291  0.5390  0.0367  0.3364
  735MOL0     C99126  13.662   2.843   7.320  0.9141 -0.3041  0.1011
  735MOL0     C99127  13.772   2.928   7.380  0.1573 -0.1485 -0.0261
  735MOL0     C99128  13.735   3.006   7.504  0.3834  0.2345  0.6713
  735MOL0     C99129  13.729   2.923   7.633  0.5460  0.2515 -0.0046
  735MOL0     C99130  13.657   3.003   7.742 -0.1799  0.0850 -0.1943
  735MOL0     C99131  13.507   3.003   7.702 -0.7638  0.2151 -0.3853
  735MOL0     C99132  13.430   3.064   7.821  0.5073  0.5036 -0.7134
  735MOL0     C99133  13.293   3.111   7.792  1.3402  0.5087 -0.1098
  735MOL0    Cl99134  13.223   3.151   7.961  0.2361 -0.2230 -0.1868
  735MOL0     C99135  13.464   2.790   7.103  0.3824  0.4805 -0.0698
  735MOL0     C99136  13.346   2.737   7.046  0.6624 -0.2923 -0.0242
  735MOL0     O99137  13.169   2.472   7.065  0.3717  0.1730 -0.3449
  735MOL0     C99138  12.896   2.397   7.090 -0.1606 -0.4039  0.6648
  735MOL0     C99139  12.780   2.341   7.041 -0.0317  0.7163 -0.0020
  735MOL0     N99140  12.188   2.269   6.658 -0.4411 -0.4589  0.2445
  735MOL0     N99141  12.097   2.182   6.631  0.5294  0.8193  1.1485
  735MOL0     C99142  10.901   2.275   6.101 -0.2162 -0.2705  0.2616
  735MOL0     C99143  10.817   2.351   6.022  0.3425 -0.2763  0.3995
  735MOL0     C99144  10.666   2.770   5.828  0.0533 -0.0314  0.0081
  735MOL0     C99145  10.676   2.847   5.714  0.2425  0.1323  0.7244
  735MOL0     C99146  10.575   2.930   5.676  0.5790 -0.4475  0.0482
  735MOL0     C99147  10.456   2.950   5.752  0.6216 -0.3940 -0.4094
  735MOL0     O99148  10.352   3.033   5.719  0.4076 -1.1433  0.3447
  735MOL0     C99149  10.356   3.133   5.616 -0.9432 -1.1224  0.4867
  735MOL0     C99150  10.230   3.221   5.635  0.7179  0.2618 -0.7309
  735MOL0     C99151  10.097   3.145   5.619 -0.0204  0.4025  0.1134
  735MOL0     C99152  10.052   3.066   5.744  0.3409  1.1114  0.2178
  735MOL0     C99153   9.919   3.006   5.708  0.7361  0.2470  0.7401
  735MOL0     C99154   9.814   2.954   5.680  0.2562 -0.0801 -0.4647
  735MOL0     C99155  10.453   2.892   5.875 -0.4406  0.9518 -0.0859
  735MOL0     C99156  10.553   2.796   5.914  0.1679  0.1065  0.1061
  735MOL0     C99157  10.524   2.738   6.050  0.3431 -1.1477  0.4212
  735MOL0     H99158  10.936   2.671   6.085 -1.5918  0.7076  2.1771
  735MOL0     H99159  11.092   2.542   6.214 -0.4471  0.5397 -0.5927
  735MOL0     H99160  10.955   2.149   6.324  0.0643  3.1418  0.4408
  735MOL0     H99161  11.105   2.080   6.272  1.5150 -2.5004  3.1045
  735MOL0     H99162  11.098   2.079   6.525  3.4792 -0.2304  0.3522
  735MOL0     H99163  11.049   2.257   6.517  0.8998  1.7535 -0.6604
  735MOL0     H99164  11.235   2.308   6.578  1.3478 -0.4458  0.8053
  735MOL0     H99165  11.273   2.299   6.412 -1.2218  1.5994  0.2590
  735MOL0     H99166  11.349   2.056   6.598  3.4067 -0.7488  0.9959
  735MOL0     H99167  11.379   2.084   6.430 -2.8599 -0.3220 -0.6802
  735MOL0     H99168  11.493   2.303   6.486 -0.2620  0.8241 -0.2437
  735MOL0     H99169  11.473   2.263   6.652 -0.1344  0.7935 -1.0013
  735MOL0     H99170  11.616   2.052   6.609  0.8719  1.2125  2.4182
  735MOL0     H99171  11.619   2.117   6.437  0.5522 -0.0758  0.4869
  735MOL0     H99172  11.748   2.217   6.693 -2.3384  0.2445 -0.3270
  735MOL0     H99173  11.722   2.333   6.560  0.5326  0.0259 -1.8642
  735MOL0     H99174  11.882   2.078   6.525  1.6454 -0.0091  0.8452
  735MOL0     H99175  11.877   2.218   6.416  1.0371  0.5212  0.4316
  735MOL0     H99176  11.908   2.445   6.634 -0.7737  1.1068  0.9061
  735MOL0     H99177  12.120   2.593   6.650 -1.5979 -0.6518  1.5265
  735MOL0     H99178  12.146   2.548   6.819  0.8286  1.9938  0.6008
  735MOL0     H99179  12.353   2.459   6.627 -3.6249 -1.0848  0.2733
  735MOL0     H99180  12.371   2.628   6.672  2.3280 -0.1758  0.6141
  735MOL0     H99181  12.332   2.474   6.920  0.1181 -3.0149 -0.1051
  735MOL0     H99182  12.455   2.586   6.879  0.1366 -0.8319 -1.5987
  735MOL0     H99183  12.574   2.414   6.737 -1.9618  0.6256 -1.7137
  735MOL0     H99184  12.447   2.304   6.782 -0.5044 -0.0951  2.4291
  735MOL0     H99185  12.677   2.601   6.843  1.5443 -1.3797 -1.5988
  735MOL0     H99186  12.900   2.673   6.898 -0.5952 -0.1388 -0.5684
  735MOL0     H99187  13.116   2.818   7.286  0.3769  0.8904 -0.1678
  735MOL0     H99188  13.305   2.903   7.397 -1.0606  0.3463 -0.6265
  735MOL0     H99189  13.637   2.762   7.389 -1.5419  0.5466  0.2791
  735MOL0     H99190  13.700   2.806   7.224 -1.0796  1.4342 -1.4479
  735MOL0     H99191  13.851   2.856   7.401  0.7609  0.9280  1.5246
  735MOL0     H99192  13.791   2.998   7.298 -2.4046 -0.6097 -1.1254
  735MOL0     H99193  13.814   3.079   7.522  0.6178 -0.5119  2.9216
  735MOL0     H99194  13.643   3.062   7.482  0.3088 -0.8719 -2.3615
  735MOL0     H99195  13.831   2.895   7.661  2.3801  0.8705 -4.9986
  735MOL0     H99196  13.675   2.829   7.619  0.6085 -0.0241  1.4477
  735MOL0     H99197  13.700   3.104   7.734  3.1430 -1.2789 -1.3740
  735MOL0     H99198  13.679   2.961   7.840  0.4527  0.9965  0.0740
  735MOL0     H99199  13.489   3.052   7.606 -0.6023 -1.8981 -1.5545
  735MOL0     H99200  13.487   2.896   7.700  1.3391 -0.2538  0.6975
  735MOL0     H99201  13.489   3.146   7.863  0.0379  0.9653 -0.9499
  735MOL0     H99202  13.421   2.991   7.902  0.1865  2.0340  0.6735
  735MOL0     H99203  13.303   3.204   7.735  0.8473  1.1071  0.7610
  735MOL0     H99204  13.243   3.034   7.734  0.8962  0.4013  0.4109
  735MOL0     H99205  13.560   2.797   7.051  0.4947 -2.7304 -0.4615
  735MOL0     H99206  13.351   2.692   6.947  0.3100 -1.7820  0.6131
  735MOL0     H99207  12.957   2.341   7.159 -0.6831  1.3590  2.6469
  735MOL0     H99208  12.754   2.242   7.078  0.0355 -0.8110 -3.5851
  735MOL0     H99209  10.871   2.171   6.105 -2.1844  0.2893  1.4352
  735MOL0     H99210  10.730   2.303   5.977  0.8965 -0.7230 -0.2038
  735MOL0     H99211  10.760   2.829   5.648 -1.9249 -1.4812 -1.8152
  735MOL0     H99212  10.577   2.981   5.581  2.9945 -2.0896 -0.9100
  735MOL0     H99213  10.343   3.093   5.514 -0.3129  0.6349 -0.3081
  735MOL0     H99214  10.447   3.192   5.624 -0.3269 -1.8189 -0.9714
  735MOL0     H99215  10.229   3.295   5.554 -1.0944  2.1150  0.8812
  735MOL0     H99216  10.239   3.267   5.735 -1.0048 -1.9339  0.5237
  735MOL0     H99217  10.107   3.081   5.531 -0.5302 -0.0047  0.3432
  735MOL0     H99218  10.013   3.211   5.597 -0.8059  0.4628  2.9248
  735MOL0     H99219  10.117   2.982   5.771  1.1106  1.8573  0.7297
  735MOL0     H99220  10.036   3.126   5.834  0.3014  0.1430  0.8720
  735MOL0     H99221   9.725   2.905   5.646  0.3148  1.6433 -3.4821
  735MOL0     H99222  10.367   2.933   5.927  0.2532  3.0141 -0.4432
  735MOL0     H99223  10.469   2.645   6.036 -2.3600  0.4317 -0.3127
  735MOL0     H99224  10.614   2.741   6.112  0.2879  3.4449  0.6825
  735MOL0     H99225  10.442   2.791   6.099  1.0761  0.5290 -0.0829
  736MOL0     O99226   2.792   2.793   4.079  0.2328  0.7521  0.0789
  736MOL0     C99227   2.769   2.831   4.189 -0.6533  0.1064 -0.4004
  736MOL0     O99228   2.850   2.824   4.306  0.3704 -0.0309  0.7382
  736MOL0     C99229   2.984   2.814   4.302 -0.4922  0.2803  0.1290
  736MOL0     C99230   3.054   2.775   4.416 -0.1174  0.3087 -0.6313
  736MOL0     C99231   3.193   2.761   4.416 -0.3600  0.7792 -0.6258
  736MOL0     C99232   3.274   2.788   4.303 -0.0285 -0.0215 -0.6940
  736MOL0     O99233   3.410   2.780   4.323  0.0050  0.0500  0.3729
  736MOL0     C99234   3.496   2.803   4.211 -0.9187 -0.2485  0.0699
  736MOL0     C99235   3.625   2.746   4.258 -0.0907  0.7794 -0.5112
  736MOL0     C99236   3.724   2.750   4.149 -0.3364  0.1761 -0.9027
  736MOL0     C99237   3.844   2.678   4.200 -0.3850 -0.1796  0.6968
  736MOL0     C99238   3.950   2.696   4.091 -0.1994  0.4643  0.2794
  736MOL0     C99239   4.024   2.830   4.102  0.8183 -0.5678  0.9981
  736MOL0     C99240   4.165   2.816   4.033  0.8411  0.6398  1.2814
  736MOL0     C99241   4.150   2.821   3.881 -0.0618  0.1868 -0.2867
  736MOL0     N99242   4.282   2.804   3.828 -0.1702  0.5324 -0.4648
  736MOL0     C99243   4.370   2.698   3.861  0.0730 -0.5765 -0.5643
  736MOL0     C99244   4.487   2.735   3.808  0.8679  0.4262 -0.9045
  736MOL0     C99245   4.625   2.655   3.825 -0.0935 -0.5586  0.1130
  736MOL0     C99246   4.747   2.758   3.835  1.0769  0.9448 -0.5636
  736MOL0     C99247   4.875   2.683   3.816  0.1250 -0.6977  0.7542
  736MOL0     C99248   4.987   2.764   3.865  0.0465 -0.5690 -0.0774
  736MOL0     O99249   5.103   2.727   3.799 -0.0262  0.5174  0.1673
  736MOL0     C99250   5.231   2.732   3.848  1.0094 -0.0350 -0.4657
  736MOL0     C99251   5.270   2.803   3.960 -1.1856  0.4523  0.6256
  736MOL0     C99252   5.409   2.808   3.995 -0.6010  0.0098 -0.3151
  736MOL0     C99253   5.507   2.755   3.913  0.2635  0.5998  0.1928
  736MOL0     C99254   5.650   2.768   3.949  0.6783  0.9776  0.5790
  736MOL0     O99255   5.680   2.877   4.029 -0.8211  0.2658  0.2149
  736MOL0     C99256   5.812   2.891   4.059  0.9684  0.1849 -0.6594
  736MOL0     C99257   5.878   2.785   4.116  0.0165  0.3552  0.1189
  736MOL0     C99258   6.007   2.790   4.154 -0.0656 -0.1453 -0.4368
  736MOL0     C99259   6.077   2.917   4.138 -0.0500 -0.2763  0.0172
  736MOL0     O99260   6.202   2.919   4.178  0.2901 -0.0063 -0.2730
  736MOL0     C99261   6.285   2.947   4.063 -0.5183 -0.7624 -0.0695
  736MOL0     C99262   6.282   2.836   3.965  0.2668 -1.0468  0.4401
  736MOL0     C99263   6.342   2.704   4.001 -0.2965  0.7512 -0.1306
  736MOL0     C99264   6.499   2.715   4.013 -0.2695  0.7221  1.2050
  736MOL0     C99265   6.567   2.576   4.054 -0.0402 -0.2932  0.7771
  736MOL0     C99266   6.716   2.581   4.040  0.1161  0.3336  0.3861
  736MOL0     C99267   6.796   2.449   4.073 -0.1546  0.6538  0.2677
  736MOL0     C99268   6.943   2.473   4.030 -0.2992 -0.5214  0.6170
  736MOL0    Cl99269   7.056   2.333   4.046  0.0309 -0.0418 -0.0295
  736MOL0     C99270   6.014   3.026   4.082  1.2458 -0.3437  0.4813
  736MOL0     C99271   5.873   3.013   4.054 -0.2362 -0.1119  0.2605
  736MOL0     O99272   5.733   2.688   3.893 -0.4861  0.3278 -0.2916
  736MOL0     C99273   5.460   2.689   3.797 -0.3639  0.2175  0.1658
  736MOL0     C99274   5.327   2.675   3.770 -0.1104 -0.3304  0.1236
  736MOL0     N99275   4.475   2.853   3.745  0.2561 -0.1547  0.9367
  736MOL0     N99276   4.355   2.898   3.759 -0.2395  0.2024 -0.1009
  736MOL0     C99277   3.209   2.827   4.184  0.1681  0.1630 -0.5384
  736MOL0     C99278   3.070   2.845   4.191 -0.3955 -0.1907  0.6273
  736MOL0     C99279   2.645   2.915   4.195  1.2068 -0.2046  0.8331
  736MOL0     C99280   2.623   3.007   4.293 -0.7875 -0.6923  0.0145
  736MOL0     C99281   2.504   3.079   4.318  0.0828 -0.3228 -0.2241
  736MOL0     C99282   2.396   3.062   4.231  0.2267  0.5975  0.2163
  736MOL0     O99283   2.287   3.144   4.255 -0.3493 -0.5372  0.7229
  736MOL0     C99284   2.151   3.093   4.270 -0.4005 -0.1778 -0.7049
  736MOL0     C99285   2.128   3.000   4.392  0.1137  0.5014 -0.8376
  736MOL0     C99286   2.195   3.050   4.524  0.3326 -0.3155 -0.0923
  736MOL0     C99287   2.141   2.975   4.654 -0.2944 -0.9688 -0.6047
  736MOL0     C99288   2.011   3.039   4.699  0.1780  0.1335  0.0036
  736MOL0     C99289   1.895   3.075   4.721 -0.4008  0.1284 -0.3547
  736MOL0     C99290   2.414   2.978   4.127 -0.8213  0.0065 -0.7645
  736MOL0     C99291   2.535   2.909   4.102 -0.2074  0.6077 -0.0309
  736MOL0     C99292   2.546   2.837   3.970 -0.0947 -1.2728 -0.4886
  736MOL0     H99293   3.005   2.759   4.512 -4.1635  1.8172 -2.1862
  736MOL0     H99294   3.244   2.727   4.505 -0.7539 -2.4236 -1.5156
  736MOL0     H99295   3.465   2.755   4.117  0.0747 -1.8770  0.5272
  736MOL0     H99296   3.509   2.909   4.188  0.7223  0.0216  1.9871
  736MOL0     H99297   3.615   2.641   4.286 -0.5689  0.6902 -0.9949
  736MOL0     H99298   3.662   2.804   4.343 -0.8624  2.1329 -1.0770
  736MOL0     H99299   3.738   2.855   4.119  1.5713 -0.4005 -2.2156
  736MOL0     H99300   3.683   2.698   4.062  0.7985 -1.5132 -0.4792
  736MOL0     H99301   3.879   2.712   4.298  2.2719  1.5371 -0.7231
  736MOL0     H99302   3.805   2.576   4.201 -0.9225  0.0216  1.4111
  736MOL0     H99303   4.025   2.620   4.117 -1.0584  0.0838  1.8064
  736MOL0     H99304   3.924   2.672   3.988  2.3128  1.0536 -0.5557
  736MOL0     H99305   3.968   2.915   4.061  4.3746  2.2572  1.4856
  736MOL0     H99306   4.051   2.854   4.205  0.5535  0.0888  0.9255
  736MOL0     H99307   4.215   2.725   4.067 -0.5191 -0.1819  1.1701
  736MOL0     H99308   4.228   2.901   4.062  0.8531  1.7132 -1.6149
  736MOL0     H99309   4.096   2.729   3.857  1.5283 -0.6615 -0.8074
  736MOL0     H99310   4.099   2.911   3.846  0.2400  0.4563 -0.0452
  736MOL0     H99311   4.348   2.607   3.915 -1.2660  0.2012  0.2524
  736MOL0     H99312   4.623   2.578   3.903 -3.1962 -1.4278 -0.6899
  736MOL0     H99313   4.638   2.600   3.732  0.4354 -1.3059  0.6195
  736MOL0     H99314   4.742   2.825   3.748  0.1089  0.3685 -0.9745
  736MOL0     H99315   4.742   2.819   3.926 -0.9679  0.2772 -0.1756
  736MOL0     H99316   4.897   2.659   3.711  0.2813  3.6767 -0.4257
  736MOL0     H99317   4.874   2.593   3.878 -1.2005 -0.9186  0.4380
  736MOL0     H99318   4.991   2.774   3.974  0.8658  0.0535 -0.1623
  736MOL0     H99319   4.977   2.866   3.825  0.9476 -0.6417 -0.4965
  736MOL0     H99320   5.194   2.866   4.005 -1.8149 -0.8463  1.4388
  736MOL0     H99321   5.440   2.862   4.085 -1.6106 -2.4401  1.6110
  736MOL0     H99322   5.820   2.694   4.135 -1.6262  1.1362 -0.9088
  736MOL0     H99323   6.057   2.719   4.219 -0.0288  0.1828 -0.1017
  736MOL0     H99324   6.269   3.043   4.014  1.9681 -0.9695 -1.4610
  736MOL0     H99325   6.391   2.955   4.088 -0.9174  0.8573  1.3285
  736MOL0     H99326   6.181   2.823   3.925 -0.4119  2.3749  0.7889
  736MOL0     H99327   6.338   2.878   3.882 -2.3684  0.3037 -0.7613
  736MOL0     H99328   6.302   2.663   4.095  2.9697 -2.2346  0.1990
  736MOL0     H99329   6.325   2.633   3.920 -1.7724  0.4575  0.4112
  736MOL0     H99330   6.526   2.800   4.075 -2.5207  2.4337  0.0216
  736MOL0     H99331   6.538   2.737   3.913  3.3032  1.1091  2.5772
  736MOL0     H99332   6.532   2.495   3.988  1.5374 -0.7856  0.4996
  736MOL0     H99333   6.548   2.552   4.159  3.7805 -1.3791  1.3743
  736MOL0     H99334   6.749   2.607   3.939  0.3142  1.7107  0.7847
  736MOL0     H99335   6.751   2.661   4.106 -2.1727  0.7851  1.1324
  736MOL0     H99336   6.750   2.367   4.017 -2.6107  0.1588  2.7831
  736MOL0     H99337   6.796   2.412   4.176  0.6636 -1.4590 -0.4309
  736MOL0     H99338   6.930   2.494   3.923  0.5347 -1.6105  0.2878
  736MOL0     H99339   6.987   2.562   4.076 -3.1552  1.2636  0.1425
  736MOL0     H99340   6.058   3.123   4.060  2.0260 -0.9256 -0.6701
  736MOL0     H99341   5.816   3.102   4.031 -0.8447 -0.8502 -1.1691
  736MOL0     H99342   5.534   2.648   3.729 -0.5496  3.2416 -2.0828
  736MOL0     H99343   5.298   2.633   3.674 -1.0584  2.2748 -0.8067
  736MOL0     H99344   3.263   2.839   4.090  3.2001  0.3694  1.0837
  736MOL0     H99345   3.021   2.874   4.098 -1.5567  0.2792  1.3656
  736MOL0     H99346   2.707   3.025   4.360 -1.1436 -0.6221  0.4453
  736MOL0     H99347   2.506   3.155   4.395 -0.0169  1.3404 -1.7671
  736MOL0     H99348   2.118   3.044   4.178 -0.9942  0.5049 -0.8691
  736MOL0     H99349   2.085   3.178   4.289 -0.7527 -0.7331  0.6631
  736MOL0     H99350   2.173   2.904   4.365  2.3649  1.3639 -0.4106
  736MOL0     H99351   2.019   2.999   4.399  0.1800  0.2650  0.6773
  736MOL0     H99352   2.173   3.157   4.533  1.2566 -0.1756  0.6144
  736MOL0     H99353   2.304   3.049   4.512  0.3601  0.7859 -0.0204
  736MOL0     H99354   2.136   2.867   4.637  1.3273 -1.0872 -0.4895
  736MOL0     H99355   2.216   2.988   4.732 -2.3944  1.4875  1.1654
  736MOL0     H99356   1.792   3.101   4.729  0.1534  2.2943  0.4702
  736MOL0     H99357   2.334   2.969   4.054 -1.0845 -0.8232 -0.3831
  736MOL0     H99358   2.443   2.827   3.936 -0.3394 -0.5331  0.0204
  736MOL0     H99359   2.609   2.898   3.904 -0.0227 -0.2752  0.4837
  736MOL0     H99360   2.597   2.740   3.966  0.2921 -1.0844 -0.1364
  737MOL0     O99361   3.604   6.808   6.569 -0.9120 -0.1409  0.3387
  737MOL0     C99362   3.548   6.710   6.623  0.0636 -0.6152  0.4480
  737MOL0     O99363   3.408   6.691   6.620  1.0173  0.4625  0.0853
  737MOL0     C99364   3.333   6.764   6.532  0.2712  0.4121 -1.2911
  737MOL0     C99365   3.219   6.827   6.590 -0.8426 -0.1741 -0.1256
  737MOL0     C99366   3.118   6.889   6.519 -0.3866 -1.4708  1.1932
  737MOL0     C99367   3.139   6.900   6.376  0.5827 -0.5462 -0.0060
  737MOL0     O99368   3.041   6.969   6.305 -0.2693 -0.2674 -0.3880
  737MOL0     C99369   3.073   6.996   6.168  0.3492 -0.0548 -0.4438
  737MOL0     C99370   2.956   7.089   6.122  0.0154  1.2118 -0.5172
  737MOL0     C99371   2.949   7.209   6.211 -0.1791 -0.8968 -0.1901
  737MOL0     C99372   2.890   7.331   6.132  0.1741  0.2029  0.3520
  737MOL0     C99373   2.897   7.465   6.207  0.0068 -0.0455  0.7996
  737MOL0     C99374   2.881   7.462   6.357 -0.2603  0.6246 -0.5288
  737MOL0     C99375   2.745   7.407   6.405 -0.2904 -0.6820  0.8622
  737MOL0     C99376   2.731   7.416   6.548  1.0039 -0.1627  0.3856
  737MOL0     N99377   2.828   7.329   6.623 -0.5638 -0.5276 -0.1170
  737MOL0     C99378   2.884   7.362   6.742 -0.2503 -0.7049  0.2378
  737MOL0     C99379   2.965   7.256   6.786 -0.6114  0.1743  0.4679
  737MOL0     C99380   3.038   7.230   6.913 -0.8807  0.2573  0.0487
  737MOL0     C99381   3.114   7.352   6.964  0.2774  0.6249 -0.5519
  737MOL0     C99382   3.220   7.309   7.068  0.3113 -0.0731 -0.6156
  737MOL0     C99383   3.349   7.239   7.008 -0.7167  0.0373  0.4022
  737MOL0     O99384   3.436   7.347   6.951  0.2067 -0.6078 -0.0428
  737MOL0     C99385   3.573   7.326   6.921  0.6863 -0.1055 -0.3081
  737MOL0     C99386   3.636   7.371   6.807  1.3157 -0.2087  0.5074
  737MOL0     C99387   3.774   7.371   6.791  0.4078  0.1241  0.0769
  737MOL0     C99388   3.854   7.335   6.903 -0.6015  0.1749 -0.2052
  737MOL0     C99389   4.004   7.338   6.903  0.4473 -0.4482 -0.7649
  737MOL0     O99390   4.062   7.354   7.029 -0.7281  0.2047  0.2263
  737MOL0     C99391   4.193   7.339   7.026 -0.3537 -0.5815 -0.6123
  737MOL0     C99392   4.238   7.224   7.095 -0.1470 -0.4319 -0.5363
  737MOL0     C99393   4.371   7.208   7.120 -0.6737  0.1550 -0.6684
  737MOL0     C99394   4.473   7.300   7.081  0.1049 -0.6711 -0.8320
  737MOL0     O99395   4.600   7.271   7.122  0.2177  0.0699  0.5295
  737MOL0     C99396   4.707   7.349   7.078 -0.9456  0.1404  0.2522
  737MOL0     C99397   4.734   7.293   6.936 -0.6509  0.1356  0.3248
  737MOL0     C99398   4.805   7.396   6.857  0.4924  0.4206  0.0131
  737MOL0     C99399   4.936   7.444   6.930  0.0304 -0.2327  0.1287
  737MOL0     C99400   5.043   7.500   6.842 -0.6159 -0.8153  0.5402
  737MOL0     C99401   5.156   7.569   6.926 -0.2577 -0.2809 -0.1195
  737MOL0     C99402   5.244   7.662   6.839  0.7117 -0.0172  0.8769
  737MOL0     C99403   5.361   7.723   6.907 -0.1744  0.6236  0.1113
  737MOL0    Cl99404   5.475   7.593   6.951  0.1389 -0.2073 -0.2254
  737MOL0     C99405   4.426   7.416   7.025 -0.2900 -0.1509  0.7988
  737MOL0     C99406   4.290   7.433   6.992 -0.0253  0.2729 -0.5833
  737MOL0     O99407   4.062   7.317   6.799 -0.8356  0.3977  0.6034
  737MOL0     C99408   3.795   7.298   7.022  0.7282 -0.8677  0.3464
  737MOL0     C99409   3.654   7.292   7.027 -0.1648 -0.1942 -0.3578
  737MOL0     N99410   2.935   7.149   6.691 -0.0015 -0.8239 -0.1564
  737MOL0     N99411   2.862   7.195   6.598  0.1393  0.4208  0.0435
  737MOL0     C99412   3.251   6.832   6.318  0.1466 -0.2977  0.9875
  737MOL0     C99413   3.345   6.762   6.398  0.3965  0.3445 -0.3652
  737MOL0     C99414   3.644   6.616   6.696 -0.8854  0.1159  0.5444
  737MOL0     C99415   3.779   6.617   6.658  0.6527 -0.8090 -0.3059
  737MOL0     C99416   3.869   6.533   6.727 -0.1227 -0.7838  0.6771
  737MOL0     C99417   3.825   6.446   6.827 -0.2997  0.0309  0.7810
  737MOL0     O99418   3.913   6.360   6.879  0.3376 -0.2070  1.0141
  737MOL0     C99419   3.961   6.266   6.790  0.2569 -0.7822 -0.5623
  737MOL0     C99420   4.114   6.282   6.760 -0.9732  0.3295 -0.5367
  737MOL0     C99421   4.188   6.324   6.895 -0.6163  1.2292  0.0321
  737MOL0     C99422   4.346   6.331   6.877  0.0937  0.2451 -0.2176
  737MOL0     C99423   4.416   6.203   6.876 -0.6199  1.0137 -0.6100
  737MOL0     C99424   4.479   6.093   6.863  0.5791 -0.3492 -0.0935
  737MOL0     C99425   3.689   6.431   6.861  0.4150  0.2541 -0.4117
  737MOL0     C99426   3.598   6.515   6.789 -0.7468 -0.1982 -0.2121
  737MOL0     C99427   3.452   6.485   6.799 -0.5622  0.6204 -0.1536
  737MOL0     H99428   3.203   6.817   6.697 -1.1204  4.1312  0.3784
  737MOL0     H99429   3.022   6.906   6.568  0.2282 -1.9235  2.6088
  737MOL0     H99430   3.172   7.043   6.163  0.0830  0.4433 -1.1861
  737MOL0     H99431   3.072   6.912   6.099  3.1290  0.0996 -0.7903
  737MOL0     H99432   2.855   7.046   6.122  0.4037  0.2746  0.4124
  737MOL0     H99433   2.972   7.117   6.017  0.0352  1.4601 -0.4474
  737MOL0     H99434   3.050   7.243   6.238  0.0378  2.6066 -4.2964
  737MOL0     H99435   2.887   7.184   6.298  0.8161  0.7169  1.0550
  737MOL0     H99436   2.945   7.339   6.038  0.8184 -2.6579  0.3901
  737MOL0     H99437   2.787   7.311   6.102  0.3512 -1.9094  0.9800
  737MOL0     H99438   2.994   7.510   6.183 -0.0400 -1.8767 -4.0482
  737MOL0     H99439   2.827   7.534   6.157  1.2948  0.0023 -1.0347
  737MOL0     H99440   2.965   7.411   6.405  1.0808  1.3476 -2.0166
  737MOL0     H99441   2.876   7.567   6.388 -2.7698 -0.0012  1.5534
  737MOL0     H99442   2.726   7.306   6.367  0.5680 -1.0551  1.3877
  737MOL0     H99443   2.666   7.473   6.369  0.9753  0.6549  0.4622
  737MOL0     H99444   2.725   7.521   6.581 -5.4075 -0.0329  0.1001
  737MOL0     H99445   2.631   7.384   6.578  1.1282  0.2702  1.3099
  737MOL0     H99446   2.863   7.453   6.797  4.8409  0.2525  1.0600
  737MOL0     H99447   2.962   7.195   6.984 -1.2918  1.0025 -0.0058
  737MOL0     H99448   3.114   7.153   6.895  2.9013  3.1492  2.0368
  737MOL0     H99449   3.173   7.401   6.887  3.0348  0.3707  1.2408
  737MOL0     H99450   3.040   7.420   7.008 -0.7489 -1.6084  1.4177
  737MOL0     H99451   3.189   7.249   7.154  3.5597  2.1679  2.4271
  737MOL0     H99452   3.257   7.400   7.117  2.6566 -2.2701  2.0123
  737MOL0     H99453   3.318   7.170   6.929 -1.9160  0.8386  0.1507
  737MOL0     H99454   3.403   7.181   7.083 -2.3949 -0.6098  1.1724
  737MOL0     H99455   3.565   7.394   6.729  0.4153 -2.5264  0.5522
  737MOL0     H99456   3.810   7.401   6.694 -0.9101 -3.5284 -1.7329
  737MOL0     H99457   4.170   7.149   7.133  0.2758  0.3246  1.8528
  737MOL0     H99458   4.403   7.116   7.168 -0.7251  1.1232  1.3289
  737MOL0     H99459   4.693   7.456   7.093  1.2753  0.6099 -0.5627
  737MOL0     H99460   4.797   7.333   7.138  0.2796  1.0270 -1.2661
  737MOL0     H99461   4.807   7.212   6.940  0.1337  0.8046 -0.0522
  737MOL0     H99462   4.643   7.259   6.887 -0.7753 -0.5203  1.0046
  737MOL0     H99463   4.832   7.346   6.764  2.6800  0.8443  0.3565
  737MOL0     H99464   4.732   7.476   6.844  0.0007  0.0387  0.4013
  737MOL0     H99465   4.985   7.367   6.989  0.1656 -1.0568 -1.0194
  737MOL0     H99466   4.905   7.514   7.008 -0.8501 -0.8285  0.3244
  737MOL0     H99467   5.002   7.580   6.778  2.6671  0.9493  0.4003
  737MOL0     H99468   5.076   7.419   6.776 -2.6817 -1.6288  0.4380
  737MOL0     H99469   5.117   7.630   7.007 -0.7003  0.2868 -0.7497
  737MOL0     H99470   5.225   7.511   6.989 -1.0805  0.8385  1.8996
  737MOL0     H99471   5.178   7.741   6.802 -0.0323 -0.9142  0.2298
  737MOL0     H99472   5.279   7.612   6.749 -1.6305  0.4048 -0.3350
  737MOL0     H99473   5.393   7.802   6.838  0.3850 -0.0086 -0.3620
  737MOL0     H99474   5.320   7.781   6.991 -0.6681  1.2586 -0.5545
  737MOL0     H99475   4.492   7.502   7.017 -1.2187  0.4059 -1.4034
  737MOL0     H99476   4.272   7.531   6.949  2.7491  0.9445 -0.4233
  737MOL0     H99477   3.849   7.274   7.113 -1.0869  0.6825  1.9299
  737MOL0     H99478   3.594   7.280   7.117 -2.3861 -0.7533 -1.8376
  737MOL0     H99479   3.257   6.806   6.213 -3.0722  1.4425  0.2554
  737MOL0     H99480   3.419   6.695   6.356 -0.7209 -2.1535  1.3957
  737MOL0     H99481   3.823   6.692   6.592  1.4442 -0.8058  0.2146
  737MOL0     H99482   3.971   6.545   6.692 -0.9251 -0.0156 -1.5232
  737MOL0     H99483   3.895   6.251   6.705 -2.9280 -0.8590  1.7358
  737MOL0     H99484   3.950   6.172   6.844 -0.8613  0.3353  1.2625
  737MOL0     H99485   4.126   6.361   6.685  3.4063  0.8476  0.4097
  737MOL0     H99486   4.168   6.198   6.715 -0.9129  0.7164 -1.1974
  737MOL0     H99487   4.165   6.248   6.969 -1.1948  0.6756 -0.6989
  737MOL0     H99488   4.156   6.422   6.931  0.1397  0.3321  3.4183
  737MOL0     H99489   4.371   6.376   6.780 -0.5203  1.1809  0.0400
  737MOL0     H99490   4.384   6.387   6.963 -0.3759 -1.0565  0.8751
  737MOL0     H99491   4.529   5.999   6.850  2.3308  0.4972  0.2071
  737MOL0     H99492   3.656   6.351   6.926 -0.0287  0.3700 -0.4881
  737MOL0     H99493   3.389   6.562   6.846  0.2317  1.3626 -0.2797
  737MOL0     H99494   3.415   6.475   6.696  0.6007  1.8399 -0.7345
  737MOL0     H99495   3.443   6.387   6.846  1.1760  1.5411  2.3183
  738MOL0     O99496   5.053   4.471   8.249  0.4108  0.3251  0.6245
  738MOL0     C99497   4.999   4.366   8.286 -0.3747 -0.9675  0.1548
  738MOL0     O99498   5.006   4.315   8.414 -0.4410  0.4106  0.0729
  738MOL0     C99499   5.056   4.383   8.514 -0.8030 -0.6088 -0.2736
  738MOL0     C99500   5.193   4.381   8.552 -0.1962 -0.5195 -0.7427
  738MOL0     C99501   5.239   4.449   8.665 -0.2920 -0.8541 -0.2060
  738MOL0     C99502   5.156   4.519   8.751 -1.2505  0.7105 -0.6360
  738MOL0     O99503   5.201   4.565   8.873 -0.7712  0.2367 -0.3022
  738MOL0     C99504   5.161   4.693   8.907  0.3129 -0.1706  0.8504
  738MOL0     C99505   5.244   4.739   9.033  0.4364  0.2786  0.4316
  738MOL0     C99506   5.394   4.748   9.008  0.8999 -0.7494  1.2265
  738MOL0     C99507   5.470   4.783   9.136  0.1432  0.2104  0.4101
  738MOL0     C99508   5.619   4.793   9.119  0.4175  0.1477 -0.1360
  738MOL0     C99509   5.701   4.812   9.245 -0.8461 -0.5677  0.4199
  738MOL0     C99510   5.683   4.952   9.300 -0.3195 -0.5773 -0.0813
  738MOL0     C99511   5.792   4.983   9.401  0.2800 -0.2295  0.3953
  738MOL0     N99512   5.800   5.122   9.444  0.0346 -0.3468 -0.1971
  738MOL0     C99513   5.711   5.202   9.507 -0.4747 -0.3912  0.0851
  738MOL0     C99514   5.780   5.316   9.540 -0.0879 -0.2965 -0.0744
  738MOL0     C99515   5.723   5.433   9.611 -0.4559 -0.5710 -0.2573
  738MOL0     C99516   5.628   5.512   9.516 -0.2777  0.2656 -1.1367
  738MOL0     C99517   5.696   5.593   9.407  0.6566  0.5029 -0.4955
  738MOL0     C99518   5.753   5.730   9.460  0.0800 -0.2410 -0.3499
  738MOL0     O99519   5.839   5.782   9.365 -0.3233 -0.0558 -0.1685
  738MOL0     C99520   5.978   5.753   9.379  0.1738  0.0578 -0.2936
  738MOL0     C99521   6.027   5.637   9.450  0.2028 -0.2767 -0.6842
  738MOL0     C99522   6.162   5.607   9.464  0.8354 -0.2086  0.4111
  738MOL0     C99523   6.252   5.691   9.398 -0.5106 -0.7355 -0.1559
  738MOL0     C99524   6.400   5.671   9.426  0.1523 -1.1549 -0.0291
  738MOL0     O99525   6.489   5.761   9.373  0.9173 -0.2322  0.1263
  738MOL0     C99526   6.621   5.731   9.373  0.0632  0.0851 -0.5048
  738MOL0     C99527   6.668   5.641   9.286 -0.7369  0.8507 -0.5897
  738MOL0     C99528   6.807   5.614   9.265 -0.0180 -0.0480 -0.1251
  738MOL0     C99529   6.906   5.679   9.341  0.9816 -0.2190 -0.2129
  738MOL0     O99530   7.038   5.634   9.334 -0.1642  0.0565 -0.1180
  738MOL0     C99531   7.128   5.666   9.433  0.0117  0.3223  0.3817
  738MOL0     C99532   7.267   5.604   9.410  0.8363  0.1554 -0.0934
  738MOL0     C99533   7.266   5.465   9.347  0.2867 -0.3738 -0.1459
  738MOL0     C99534   7.403   5.421   9.318  0.1606 -0.0150 -1.3114
  738MOL0     C99535   7.404   5.294   9.233  0.3437  0.5006  0.0969
  738MOL0     C99536   7.333   5.176   9.300 -0.2681  0.0562 -0.5225
  738MOL0     C99537   7.339   5.053   9.216 -0.1667 -0.7013  0.4053
  738MOL0     C99538   7.281   4.935   9.285  0.6156  0.4590 -0.3701
  738MOL0    Cl99539   7.098   4.964   9.300  0.0823 -0.8020  0.0952
  738MOL0     C99540   6.857   5.767   9.429  0.8588 -0.4545 -0.9257
  738MOL0     C99541   6.723   5.800   9.444  0.4374 -0.3568 -0.0356
  738MOL0     O99542   6.429   5.579   9.500 -0.5889 -0.2856  0.0482
  738MOL0     C99543   6.210   5.806   9.327  0.1690 -0.3718  0.0131
  738MOL0     C99544   6.073   5.835   9.325 -0.7504  0.7266  0.9761
  738MOL0     N99545   5.904   5.298   9.490 -0.4185 -0.4001 -0.2916
  738MOL0     N99546   5.918   5.186   9.437 -0.4360  0.5262  0.6354
  738MOL0     C99547   5.016   4.521   8.716  0.1619  0.3695 -0.5565
  738MOL0     C99548   4.968   4.461   8.597 -0.4706  0.2547 -0.8112
  738MOL0     C99549   4.913   4.288   8.184 -0.6580 -0.2056 -0.3551
  738MOL0     C99550   4.908   4.349   8.051 -0.1593 -0.0613  0.0842
  738MOL0     C99551   4.826   4.296   7.956 -0.2550  0.3260  0.5997
  738MOL0     C99552   4.747   4.184   7.978  0.7078 -0.8718 -0.7596
  738MOL0     O99553   4.648   4.138   7.891 -0.5828 -0.3621  0.7226
  738MOL0     C99554   4.628   4.199   7.761 -1.1352  0.3233 -0.9582
  738MOL0     C99555   4.515   4.119   7.696 -0.0645  0.0968 -0.2331
  738MOL0     C99556   4.388   4.110   7.786  0.6480 -0.0881  0.0075
  738MOL0     C99557   4.253   4.087   7.705  0.0063  0.8395  0.9110
  738MOL0     C99558   4.199   4.213   7.649  0.5705 -0.1653 -1.0873
  738MOL0     C99559   4.164   4.313   7.598 -0.0619 -0.5626 -0.6052
  738MOL0     C99560   4.735   4.131   8.107 -0.7538  0.5654 -0.1435
  738MOL0     C99561   4.822   4.184   8.210 -0.1907 -0.1715  0.2498
  738MOL0     C99562   4.805   4.127   8.348  0.0760  0.4329 -0.4950
  738MOL0     H99563   5.274   4.326   8.506  0.2089  0.6411 -1.4612
  738MOL0     H99564   5.345   4.450   8.687 -0.6785  1.3680  1.9998
  738MOL0     H99565   5.193   4.750   8.819 -1.2027 -0.4233  0.1065
  738MOL0     H99566   5.054   4.694   8.927 -0.4539  0.1866 -2.6640
  738MOL0     H99567   5.227   4.668   9.114 -0.8546 -1.6867 -1.4724
  738MOL0     H99568   5.210   4.841   9.055  0.7068 -0.2002  3.6026
  738MOL0     H99569   5.410   4.821   8.928 -0.7885 -2.8052 -1.1467
  738MOL0     H99570   5.419   4.649   8.968  0.9568 -0.7034  1.1485
  738MOL0     H99571   5.431   4.883   9.155 -1.6790 -0.2147 -0.8413
  738MOL0     H99572   5.439   4.713   9.215 -0.7273 -1.3064 -1.2029
  738MOL0     H99573   5.653   4.703   9.066 -0.5578 -1.0092  1.1258
  738MOL0     H99574   5.635   4.874   9.047 -1.5323  1.7590  1.1503
  738MOL0     H99575   5.687   4.734   9.320 -2.3043 -0.2388  0.5110
  738MOL0     H99576   5.804   4.799   9.208  0.1728 -0.6025  3.0870
  738MOL0     H99577   5.582   4.965   9.339 -0.0187  2.2422 -0.0619
  738MOL0     H99578   5.691   5.029   9.223 -2.0221  0.4411  0.7169
  738MOL0     H99579   5.758   4.925   9.487  1.4681 -0.8090  0.4888
  738MOL0     H99580   5.882   4.937   9.359  1.4991  3.1928 -1.1683
  738MOL0     H99581   5.612   5.172   9.540 -2.3154  1.0279 -3.4969
  738MOL0     H99582   5.675   5.394   9.701 -6.4459  1.7496 -2.0042
  738MOL0     H99583   5.801   5.502   9.645 -2.8991  3.2282 -1.7576
  738MOL0     H99584   5.565   5.437   9.467 -0.7702 -0.0700 -0.0173
  738MOL0     H99585   5.566   5.575   9.581 -0.0322  1.1178 -1.7117
  738MOL0     H99586   5.614   5.618   9.339  0.3966  0.5764 -0.1568
  738MOL0     H99587   5.763   5.531   9.347  0.2610  1.0449 -1.5160
  738MOL0     H99588   5.789   5.712   9.562  1.4942  1.4626 -0.5009
  738MOL0     H99589   5.669   5.800   9.465 -0.4239 -0.5778 -2.7271
  738MOL0     H99590   5.955   5.575   9.504 -0.8783  0.8632 -0.7627
  738MOL0     H99591   6.189   5.534   9.540  1.6496 -1.4078 -0.9809
  738MOL0     H99592   6.601   5.583   9.222  1.5712  0.4511 -2.8125
  738MOL0     H99593   6.840   5.558   9.178  1.6259  4.1091 -2.4497
  738MOL0     H99594   7.136   5.774   9.446 -0.8995  0.0787  4.1633
  738MOL0     H99595   7.091   5.621   9.526  0.6931  1.3924  1.1933
  738MOL0     H99596   7.318   5.668   9.337 -2.0433  2.3069 -0.3964
  738MOL0     H99597   7.314   5.597   9.509  1.4490 -0.9949 -0.4464
  738MOL0     H99598   7.211   5.402   9.417  1.4222 -1.1700  0.0674
  738MOL0     H99599   7.218   5.481   9.250  0.9051  0.4448 -0.3275
  738MOL0     H99600   7.450   5.393   9.412  2.2343  0.0236 -2.2839
  738MOL0     H99601   7.462   5.498   9.266  1.8451 -2.5209 -3.3952
  738MOL0     H99602   7.510   5.287   9.205  0.8510 -0.3310  2.0460
  738MOL0     H99603   7.358   5.311   9.135  0.3720 -1.6495 -0.3540
  738MOL0     H99604   7.380   5.146   9.394 -1.9309 -1.5788 -0.1505
  738MOL0     H99605   7.230   5.192   9.335  0.2112 -1.2835  1.6840
  738MOL0     H99606   7.440   5.035   9.179 -0.2131 -1.5668  0.6835
  738MOL0     H99607   7.281   5.069   9.125 -0.1420 -0.4359  0.4338
  738MOL0     H99608   7.283   4.840   9.230 -3.0824  0.6785 -1.1114
  738MOL0     H99609   7.328   4.916   9.382  0.3572  1.6187 -0.0076
  738MOL0     H99610   6.924   5.811   9.502 -0.8764 -0.7238  0.9114
  738MOL0     H99611   6.681   5.878   9.506 -1.1622 -1.7766  0.7428
  738MOL0     H99612   6.278   5.871   9.273  0.3196  0.0277  0.6587
  738MOL0     H99613   6.047   5.928   9.276  2.2740  0.4784 -1.4784
  738MOL0     H99614   4.944   4.566   8.784  1.3711  1.1443  0.2750
  738MOL0     H99615   4.862   4.466   8.573 -1.1994 -1.9854  1.4508
  738MOL0     H99616   4.978   4.429   8.028  0.6474 -1.3030 -2.0403
  738MOL0     H99617   4.805   4.345   7.861  0.5168 -1.0111 -0.2946
  738MOL0     H99618   4.720   4.178   7.707 -1.1214 -2.5796  0.0510
  738MOL0     H99619   4.604   4.306   7.766  2.1436  1.1078  1.0640
  738MOL0     H99620   4.562   4.024   7.669 -0.4096  0.0533 -0.6972
  738MOL0     H99621   4.487   4.166   7.601 -0.2285  0.4574 -0.0064
  738MOL0     H99622   4.394   4.195   7.855 -0.1766  1.3387 -1.6071
  738MOL0     H99623   4.397   4.021   7.849  1.5716 -0.5394 -0.7391
  738MOL0     H99624   4.266   4.005   7.634 -2.4530  1.0558  0.1146
  738MOL0     H99625   4.173   4.043   7.767 -1.1916  0.9052 -0.5230
  738MOL0     H99626   4.124   4.402   7.554 -1.0396 -0.7624 -0.1542
  738MOL0     H99627   4.660   4.057   8.130  1.1857 -1.3057  0.4834
  738MOL0     H99628   4.899   4.089   8.389 -0.0606 -1.3465 -1.6823
  738MOL0     H99629   4.777   4.202   8.422  1.7064 -0.8014  1.4563
  738MOL0     H99630   4.728   4.048   8.347 -1.1897  1.5945 -2.5769
  739MOL0     O99631   7.676   1.910   8.414  1.1143 -0.2230  0.2455
  739MOL0     C99632   7.714   1.883   8.301  0.1377 -0.5627 -0.4955
  739MOL0     O99633   7.841   1.884   8.261  0.0622  0.1156 -0.0926
  739MOL0     C99634   7.945   1.912   8.349  0.5569  0.3699 -0.7729
  739MOL0     C99635   7.958   2.029   8.426  0.5551 -0.6157  0.2235
  739MOL0     C99636   8.067   2.053   8.515 -0.3931 -0.0867 -0.2876
  739MOL0     C99637   8.159   1.945   8.525 -0.4351  0.2469 -0.4739
  739MOL0     O99638   8.259   1.966   8.617  0.6231  0.4453  0.3924
  739MOL0     C99639   8.358   1.870   8.634 -0.3892  0.6192 -0.4978
  739MOL0     C99640   8.468   1.922   8.731  0.5905  0.6922  0.2033
  739MOL0     C99641   8.544   2.033   8.659  0.6150 -0.3015  0.2362
  739MOL0     C99642   8.642   2.113   8.757  0.1503 -0.0659  0.4564
  739MOL0     C99643   8.736   2.199   8.675  0.2782  0.1127  0.2533
  739MOL0     C99644   8.836   2.290   8.760  0.0507 -0.6206 -1.0194
  739MOL0     C99645   8.775   2.395   8.856 -0.5255  0.0945  0.2455
  739MOL0     C99646   8.882   2.477   8.929  0.6461 -0.2173  0.6708
  739MOL0     N99647   8.969   2.550   8.836 -0.6604  0.1920  0.1219
  739MOL0     C99648   9.090   2.495   8.792 -0.0275  0.1497  0.9665
  739MOL0     C99649   9.146   2.587   8.712  0.0929  0.1223  0.3482
  739MOL0     C99650   9.268   2.581   8.630 -0.1652 -1.1114 -0.0335
  739MOL0     C99651   9.396   2.636   8.692 -0.3472  0.0479 -0.7758
  739MOL0     C99652   9.518   2.630   8.607  0.0257  0.3486  0.8845
  739MOL0     C99653   9.640   2.692   8.674  0.7255 -0.2476  0.0775
  739MOL0     O99654   9.734   2.711   8.567  0.2953  0.2824 -0.1795
  739MOL0     C99655   9.848   2.762   8.614 -0.2144 -0.0506  0.2259
  739MOL0     C99656   9.885   2.811   8.736  0.8930  0.9179  0.0618
  739MOL0     C99657  10.014   2.851   8.775 -0.4999 -0.4373  0.4348
  739MOL0     C99658  10.115   2.859   8.679 -0.2474 -0.2327 -0.9187
  739MOL0     C99659  10.241   2.928   8.708  0.3725 -0.3660  0.3731
  739MOL0     O99660  10.331   2.931   8.601  0.3641  0.0897 -0.0220
  739MOL0     C99661  10.440   3.014   8.610 -0.9530  0.1729 -0.5871
  739MOL0     C99662  10.568   2.962   8.582 -0.4010 -0.4084 -0.6056
  739MOL0     C99663  10.682   3.031   8.635  0.6086 -0.1848  0.4789
  739MOL0     C99664  10.672   3.160   8.677  0.3367 -0.3864 -0.1278
  739MOL0     O99665  10.773   3.230   8.724 -0.3742 -0.6317 -0.0480
  739MOL0     C99666  10.874   3.152   8.794  0.2369 -0.1038 -0.3252
  739MOL0     C99667  10.945   3.254   8.877  0.3946 -0.4303 -0.3684
  739MOL0     C99668  11.016   3.194   8.996  0.5616  0.1263  0.3667
  739MOL0     C99669  11.166   3.169   8.966  0.7773 -0.9003 -0.3047
  739MOL0     C99670  11.244   3.140   9.095  0.6128  0.4086  0.0455
  739MOL0     C99671  11.393   3.128   9.071  0.3266  0.0884 -0.7575
  739MOL0     C99672  11.471   3.267   9.067 -0.3419  0.6537  0.1065
  739MOL0     C99673  11.617   3.260   9.033  0.2201  0.5044  0.2151
  739MOL0    Cl99674  11.668   3.223   8.867  0.4601 -0.3403  0.2416
  739MOL0     C99675  10.546   3.224   8.670 -0.0892 -0.1002 -0.6519
  739MOL0     C99676  10.433   3.149   8.643 -0.3242  0.0106  0.5136
  739MOL0     O99677  10.249   2.997   8.812 -0.3993  0.0064  0.3447
  739MOL0     C99678  10.086   2.816   8.547  0.1893  0.1792 -0.0074
  739MOL0     C99679   9.955   2.769   8.516  0.8999 -0.3140 -0.5535
  739MOL0     N99680   9.066   2.699   8.720  0.0722  0.6950 -0.0992
  739MOL0     N99681   8.959   2.677   8.790  0.9261 -0.0238  0.3258
  739MOL0     C99682   8.151   1.837   8.436  0.2379  1.1162  0.4485
  739MOL0     C99683   8.045   1.820   8.353  0.3284  0.0312  0.0557
  739MOL0     C99684   7.612   1.870   8.194 -0.3680 -0.8796 -0.6251
  739MOL0     C99685   7.645   1.791   8.085 -0.1921  0.1719 -0.6842
  739MOL0     C99686   7.553   1.764   7.985 -1.3329 -0.3577 -0.2404
  739MOL0     C99687   7.432   1.824   7.982 -0.1889  0.1464  0.3935
  739MOL0     O99688   7.340   1.799   7.874 -0.2587 -0.3945 -0.3774
  739MOL0     C99689   7.233   1.892   7.866  0.4412 -1.0120  0.8378
  739MOL0     C99690   7.195   1.903   7.717 -0.1457  0.1840  0.4805
  739MOL0     C99691   7.113   1.778   7.675 -0.8818 -0.4745  0.1913
  739MOL0     C99692   7.068   1.766   7.524 -0.1181  0.5437 -0.1702
  739MOL0     C99693   6.964   1.665   7.506  1.2566  0.0112  0.1514
  739MOL0     C99694   6.864   1.599   7.490  0.3395  0.5896  0.0969
  739MOL0     C99695   7.406   1.918   8.095 -0.0950  0.6823 -0.0452
  739MOL0     C99696   7.495   1.948   8.195  1.1225  0.1837  0.4821
  739MOL0     C99697   7.467   2.069   8.282 -0.1861 -0.4560  0.4399
  739MOL0     H99698   7.872   2.096   8.425 -1.8144 -3.3495  2.0459
  739MOL0     H99699   8.084   2.144   8.571  0.5999  0.0692 -0.8070
  739MOL0     H99700   8.324   1.772   8.670  0.1041  0.4375 -0.5162
  739MOL0     H99701   8.398   1.858   8.533 -0.5739 -1.5431 -0.3647
  739MOL0     H99702   8.531   1.834   8.747  0.6387  0.9293  1.4182
  739MOL0     H99703   8.424   1.962   8.823 -1.4398  2.2840 -1.3614
  739MOL0     H99704   8.479   2.114   8.625  1.3093  0.4363  0.6278
  739MOL0     H99705   8.602   1.998   8.572 -1.2997  1.7861 -2.0226
  739MOL0     H99706   8.585   2.173   8.828 -0.5145  2.0408 -1.7351
  739MOL0     H99707   8.702   2.037   8.807 -1.7012  1.4060  5.4716
  739MOL0     H99708   8.796   2.127   8.618  1.1512 -0.5652  1.9793
  739MOL0     H99709   8.677   2.253   8.600  0.3418  0.9392  0.7831
  739MOL0     H99710   8.906   2.229   8.819  1.2775  0.2628 -1.5145
  739MOL0     H99711   8.898   2.346   8.690 -0.6041 -1.3322 -2.1970
  739MOL0     H99712   8.712   2.341   8.927 -0.2187 -2.1108 -1.0462
  739MOL0     H99713   8.714   2.468   8.802 -0.8581  0.3837  0.9986
  739MOL0     H99714   8.842   2.532   9.015  0.6451 -1.5074  1.5238
  739MOL0     H99715   8.940   2.396   8.975  0.8588 -1.5464 -1.7586
  739MOL0     H99716   9.139   2.400   8.811  1.7934  0.2925 -2.2887
  739MOL0     H99717   9.282   2.475   8.603  2.6240 -0.7901 -0.1281
  739MOL0     H99718   9.257   2.643   8.541  0.7399 -1.5068 -0.4338
  739MOL0     H99719   9.376   2.740   8.720 -0.2265 -0.4605  1.3784
  739MOL0     H99720   9.417   2.581   8.784 -1.2487 -1.8950 -1.6830
  739MOL0     H99721   9.497   2.680   8.512  1.0324  1.5592  1.2658
  739MOL0     H99722   9.549   2.529   8.581  4.8283  1.8503 -0.1476
  739MOL0     H99723   9.663   2.633   8.764 -2.7665 -0.1141  1.1791
  739MOL0     H99724   9.608   2.787   8.717 -2.6534 -0.7458 -1.0648
  739MOL0     H99725   9.807   2.816   8.811 -0.2832 -2.8247 -0.7130
  739MOL0     H99726  10.023   2.885   8.877 -0.4752 -1.0419  0.6405
  739MOL0     H99727  10.575   2.863   8.537 -0.8680 -1.8533  2.2645
  739MOL0     H99728  10.776   2.977   8.639  0.1038 -1.3733 -2.0319
  739MOL0     H99729  10.819   3.085   8.861  0.0232  0.6412  0.2516
  739MOL0     H99730  10.939   3.093   8.728 -1.6178 -0.0420 -2.3137
  739MOL0     H99731  11.014   3.309   8.813 -1.1761  1.3603 -0.5944
  739MOL0     H99732  10.878   3.335   8.907  1.8890  0.1479  1.6582
  739MOL0     H99733  10.999   3.261   9.081  1.6351  1.2638 -0.2750
  739MOL0     H99734  10.976   3.101   9.037 -0.6245  0.5550  0.2070
  739MOL0     H99735  11.215   3.254   8.917  1.8030 -0.5425  1.2550
  739MOL0     H99736  11.158   3.086   8.895 -2.0286 -0.6640 -0.3461
  739MOL0     H99737  11.197   3.048   9.131 -0.0753  0.3192 -1.0330
  739MOL0     H99738  11.236   3.202   9.185  3.4403 -2.6907  2.6780
  739MOL0     H99739  11.437   3.070   9.153  0.0453 -2.3592 -2.2276
  739MOL0     H99740  11.413   3.067   8.982 -1.9431 -1.1105 -0.5219
  739MOL0     H99741  11.454   3.320   9.161  3.2244  4.0828 -0.9382
  739MOL0     H99742  11.425   3.332   8.991  1.8050  4.8519  2.0667
  739MOL0     H99743  11.659   3.357   9.061  1.3045 -0.7531  3.3462
  739MOL0     H99744  11.661   3.182   9.096 -0.9073 -1.0551 -0.8540
  739MOL0     H99745  10.549   3.330   8.691  4.0781  0.3988 -2.7226
  739MOL0     H99746  10.333   3.186   8.629 -1.5879 -3.1314  0.3409
  739MOL0     H99747  10.147   2.825   8.458  1.0294 -2.5258  0.1971
  739MOL0     H99748   9.925   2.730   8.419 -1.3906 -0.6602  0.2244
  739MOL0     H99749   8.224   1.756   8.435 -3.8012 -3.0248 -2.0550
  739MOL0     H99750   8.040   1.733   8.288  1.1953 -2.0091  2.5449
  739MOL0     H99751   7.731   1.725   8.091  0.4994  1.0719 -0.5703
  739MOL0     H99752   7.584   1.701   7.902 -2.0038 -1.4455  0.3075
  739MOL0     H99753   7.263   1.992   7.898 -0.8647  0.2172 -1.5324
  739MOL0     H99754   7.140   1.873   7.920 -0.2783 -0.0202 -0.0229
  739MOL0     H99755   7.284   1.915   7.655  1.2648  2.6100  2.7885
  739MOL0     H99756   7.131   1.989   7.696  0.3709  1.1282  2.5157
  739MOL0     H99757   7.024   1.768   7.738 -1.8935 -1.5470 -1.3096
  739MOL0     H99758   7.173   1.689   7.697  4.6853  1.8095 -3.5470
  739MOL0     H99759   7.016   1.861   7.504  0.9648  1.3223  0.6099
  739MOL0     H99760   7.151   1.748   7.456  0.8714 -2.1698  1.6075
  739MOL0     H99761   6.775   1.544   7.466  1.2285 -0.8920  0.0520
  739MOL0     H99762   7.311   1.969   8.110  1.0642  2.6857  0.8576
  739MOL0     H99763   7.408   2.145   8.232  1.5790  0.8954  0.3393
  739MOL0     H99764   7.416   2.035   8.373 -0.0066 -0.9287  0.3702
  739MOL0     H99765   7.566   2.111   8.300 -0.0708  0.4421 -1.9597
  740MOL0     O99766   3.399   6.144   5.914  0.2487  0.0737 -0.1042
  740MOL0     C99767   3.343   6.063   5.990  0.4636 -0.1703 -0.1543
  740MOL0     O99768   3.404   5.951   6.048  0.8829  1.0934 -0.9302
  740MOL0     C99769   3.540   5.935   6.056 -1.3014 -0.1050  0.4824
  740MOL0     C99770   3.626   5.955   5.940  0.7969  0.3758 -0.7500
  740MOL0     C99771   3.763   5.918   5.935  0.4012 -0.6786  0.2225
  740MOL0     C99772   3.826   5.883   6.058 -0.0758  0.3665 -0.4568
  740MOL0     O99773   3.959   5.859   6.065 -0.3889 -0.7537 -0.4215
  740MOL0     C99774   4.030   5.968   6.128 -0.5837  0.9525  0.2874
  740MOL0     C99775   4.176   5.923   6.113  0.1705  0.0739 -0.2331
  740MOL0     C99776   4.277   6.042   6.152 -0.8684  0.1716  0.0796
  740MOL0     C99777   4.428   6.015   6.119 -0.2880 -0.4436  0.1035
  740MOL0     C99778   4.512   6.110   6.203 -0.1648 -0.2610 -1.2281
  740MOL0     C99779   4.663   6.086   6.215 -0.7360 -0.2218 -0.3253
  740MOL0     C99780   4.745   6.127   6.090 -0.8122  0.0722 -0.0830
  740MOL0     C99781   4.897   6.114   6.119  0.2925  0.3446 -0.0612
  740MOL0     N99782   4.976   6.152   6.006  0.4549 -0.8273  0.3326
  740MOL0     C99783   5.043   6.069   5.929 -0.7265  0.3948 -0.1500
  740MOL0     C99784   5.082   6.133   5.817  0.1476 -0.2491  0.2682
  740MOL0     C99785   5.168   6.077   5.707 -0.1392 -0.8188  0.2786
  740MOL0     C99786   5.266   6.181   5.651  0.3490 -0.0590 -0.2348
  740MOL0     C99787   5.374   6.210   5.758 -0.7684  0.6045  0.6115
  740MOL0     C99788   5.476   6.324   5.720  0.1923 -0.0098  0.0595
  740MOL0     O99789   5.553   6.273   5.608 -0.4047 -0.0597 -0.3824
  740MOL0     C99790   5.691   6.253   5.611 -0.1927 -0.4439  0.7353
  740MOL0     C99791   5.768   6.240   5.728  0.1833  0.4444  0.4871
  740MOL0     C99792   5.899   6.204   5.719  0.3108 -0.0476 -0.0730
  740MOL0     C99793   5.972   6.182   5.604 -0.2316  0.5381  0.7421
  740MOL0     C99794   6.122   6.156   5.602  0.7709 -0.3691  0.5528
  740MOL0     O99795   6.169   6.096   5.723  0.3727  0.3337  0.5058
  740MOL0     C99796   6.306   6.099   5.741  0.1452 -0.0570 -1.6242
  740MOL0     C99797   6.366   5.985   5.789  0.0093  0.3155 -0.4449
  740MOL0     C99798   6.504   5.978   5.798  0.0861  0.0470  0.4825
  740MOL0     C99799   6.580   6.096   5.797  0.5228  0.6961 -0.1576
  740MOL0     O99800   6.718   6.079   5.815  0.2200  0.1833  0.1755
  740MOL0     C99801   6.810   6.190   5.786  0.0845 -0.2931 -0.1404
  740MOL0     C99802   6.954   6.138   5.799  0.2162  0.1894 -0.0729
  740MOL0     C99803   7.062   6.247   5.774 -0.0863 -0.2053 -0.1163
  740MOL0     C99804   7.199   6.189   5.825 -0.2098 -0.1866 -0.1249
  740MOL0     C99805   7.319   6.291   5.794 -0.1147  0.4555 -0.9023
  740MOL0     C99806   7.448   6.270   5.875  0.4065 -0.1247 -0.4562
  740MOL0     C99807   7.567   6.351   5.830  0.4200 -0.0217  0.4199
  740MOL0     C99808   7.666   6.359   5.936 -0.7620 -0.2674 -0.5576
  740MOL0    Cl99809   7.837   6.369   5.869 -0.0796 -0.1805 -0.1391
  740MOL0     C99810   6.517   6.213   5.777 -0.1747  0.2962  0.6671
  740MOL0     C99811   6.385   6.215   5.739  1.1173  0.5614 -0.2154
  740MOL0     O99812   6.182   6.189   5.499  0.2213 -0.3007 -0.0428
  740MOL0     C99813   5.890   6.192   5.486  0.3003  0.2244 -0.8114
  740MOL0     C99814   5.749   6.216   5.485 -0.2155  0.7645  0.1829
  740MOL0     N99815   5.051   6.266   5.834  0.1803  0.4503  0.1787
  740MOL0     N99816   4.978   6.271   5.941  0.7762  0.2182 -0.4317
  740MOL0     C99817   3.745   5.874   6.179 -0.7079  0.8173 -0.4448
  740MOL0     C99818   3.613   5.902   6.173 -0.8691  0.8754  0.4489
  740MOL0     C99819   3.207   6.106   6.034 -0.2545  0.2244 -0.4734
  740MOL0     C99820   3.175   6.093   6.170 -0.1386  0.5138 -0.4146
  740MOL0     C99821   3.044   6.131   6.202  0.0449  0.1151 -0.8000
  740MOL0     C99822   2.945   6.164   6.103 -0.5182 -0.5689 -0.3129
  740MOL0     O99823   2.820   6.205   6.153  0.2208  1.0876  0.0578
  740MOL0     C99824   2.731   6.261   6.052 -0.2608  0.5041  0.0810
  740MOL0     C99825   2.595   6.294   6.118  0.6089 -0.3576 -0.5042
  740MOL0     C99826   2.603   6.426   6.202  1.2790 -0.0374 -0.1590
  740MOL0     C99827   2.476   6.473   6.271 -0.3237 -1.0847  0.2260
  740MOL0     C99828   2.452   6.404   6.399 -0.5373 -0.0547 -0.4690
  740MOL0     C99829   2.434   6.342   6.498  0.3090 -0.6823 -0.4897
  740MOL0     C99830   2.974   6.157   5.971 -0.3673 -0.8830  0.0325
  740MOL0     C99831   3.106   6.133   5.934  0.0210  0.2218 -0.0247
  740MOL0     C99832   3.135   6.122   5.786  0.0973 -0.4547  0.7247
  740MOL0     H99833   3.572   5.987   5.852  0.1783  0.9162 -0.1833
  740MOL0     H99834   3.821   5.928   5.843  2.0802  3.0937  1.4826
  740MOL0     H99835   4.025   6.062   6.073  2.0684  1.9481  1.5834
  740MOL0     H99836   3.996   5.972   6.232 -0.7295 -1.2416  0.3701
  740MOL0     H99837   4.199   5.883   6.014  2.4269  2.8405 -0.9734
  740MOL0     H99838   4.204   5.841   6.179  1.6780 -1.2036 -2.3211
  740MOL0     H99839   4.262   6.071   6.257 -1.1522  2.5260 -0.5643
  740MOL0     H99840   4.241   6.127   6.093 -1.0535 -0.1998 -0.3494
  740MOL0     H99841   4.454   5.914   6.153  1.1013  0.0378  0.5348
  740MOL0     H99842   4.455   6.040   6.016  0.9037 -1.6725  0.0933
  740MOL0     H99843   4.503   6.212   6.164 -0.6399  0.6656  1.1878
  740MOL0     H99844   4.477   6.108   6.306  1.3123 -0.9198 -0.7227
  740MOL0     H99845   4.702   6.145   6.298 -0.2296  0.8135 -1.2792
  740MOL0     H99846   4.691   5.986   6.249  0.6115  0.6659  1.2755
  740MOL0     H99847   4.727   6.231   6.060  1.3286 -0.1082 -2.3062
  740MOL0     H99848   4.737   6.068   5.998 -2.1956  1.3382 -0.8138
  740MOL0     H99849   4.929   6.178   6.202  1.9023 -0.9116  0.3465
  740MOL0     H99850   4.917   6.010   6.148  1.3274  0.3979 -0.5495
  740MOL0     H99851   5.065   5.964   5.948  3.4819  1.1134 -0.1482
  740MOL0     H99852   5.219   5.986   5.740  0.3456 -0.1029  1.6278
  740MOL0     H99853   5.094   6.057   5.630  0.1561 -3.3011  0.5590
  740MOL0     H99854   5.312   6.165   5.553  1.1911  0.2178  0.1023
  740MOL0     H99855   5.211   6.274   5.634 -1.0801 -0.8718 -0.1569
  740MOL0     H99856   5.424   6.114   5.774  2.5030  2.0553 -0.2239
  740MOL0     H99857   5.325   6.251   5.846 -0.9120 -2.3628  2.0414
  740MOL0     H99858   5.544   6.344   5.803 -0.0968 -0.6587  0.4615
  740MOL0     H99859   5.425   6.410   5.675  0.0470 -1.4139 -2.6416
  740MOL0     H99860   5.734   6.260   5.829 -0.2819 -0.4352  0.5135
  740MOL0     H99861   5.946   6.188   5.816 -1.5783 -1.9599  0.6223
  740MOL0     H99862   6.308   5.894   5.802  1.9460 -1.1412 -1.5067
  740MOL0     H99863   6.557   5.884   5.811  1.7846  0.5674 -2.0803
  740MOL0     H99864   6.785   6.216   5.683  1.3581 -0.6288 -0.5583
  740MOL0     H99865   6.787   6.266   5.861  3.9021  3.0199 -1.9335
  740MOL0     H99866   6.979   6.092   5.895  0.2094  1.6715  0.6701
  740MOL0     H99867   6.963   6.060   5.723  1.6641 -0.0511  0.3195
  740MOL0     H99868   7.074   6.284   5.672  1.3454 -0.4227 -0.0403
  740MOL0     H99869   7.033   6.332   5.836  1.0490 -0.5533  0.9201
  740MOL0     H99870   7.222   6.087   5.791 -0.8239 -0.9849  1.7604
  740MOL0     H99871   7.191   6.184   5.933 -0.7283  2.5583  0.0483
  740MOL0     H99872   7.274   6.388   5.815  0.2935  0.7247 -1.2589
  740MOL0     H99873   7.332   6.277   5.686 -1.5233 -1.7038 -0.8570
  740MOL0     H99874   7.422   6.292   5.979 -0.7156 -0.4799 -0.6509
  740MOL0     H99875   7.472   6.164   5.867 -1.9401 -0.9491  2.0017
  740MOL0     H99876   7.540   6.446   5.783 -3.7658 -0.9193  0.5934
  740MOL0     H99877   7.604   6.288   5.749 -2.1614 -0.4921 -0.4861
  740MOL0     H99878   7.655   6.448   6.000  1.9939 -0.1344 -0.1633
  740MOL0     H99879   7.656   6.280   6.011 -0.3595 -0.8684 -1.1246
  740MOL0     H99880   6.569   6.308   5.778  4.6087 -2.0239 -0.5429
  740MOL0     H99881   6.346   6.316   5.734 -2.7142 -0.7627 -5.2284
  740MOL0     H99882   5.929   6.187   5.385 -1.1787  2.1397 -1.5363
  740MOL0     H99883   5.693   6.223   5.393  0.6768 -2.5301 -0.7672
  740MOL0     H99884   3.786   5.858   6.278  1.0453 -0.7420 -1.3688
  740MOL0     H99885   3.563   5.887   6.269  3.2234 -0.3101  2.6126
  740MOL0     H99886   3.256   6.068   6.237  0.3243 -1.1668 -1.5444
  740MOL0     H99887   3.004   6.145   6.302 -2.0511 -2.3965 -1.1822
  740MOL0     H99888   2.715   6.201   5.963 -0.9901  1.1062 -0.2108
  740MOL0     H99889   2.779   6.357   6.028 -1.4257  1.9730  3.0289
  740MOL0     H99890   2.566   6.209   6.180  2.4753 -1.7143 -1.3921
  740MOL0     H99891   2.517   6.305   6.042 -0.0095 -1.2883 -0.0319
  740MOL0     H99892   2.654   6.504   6.143  3.3988 -1.4003 -0.2414
  740MOL0     H99893   2.687   6.414   6.271  1.0421  0.0606  0.1468
  740MOL0     H99894   2.482   6.582   6.276 -5.8945 -0.2561 -3.0320
  740MOL0     H99895   2.392   6.449   6.205  0.5445 -1.0604 -0.9079
  740MOL0     H99896   2.430   6.293   6.594  3.7823  0.0685  0.1706
  740MOL0     H99897   2.905   6.187   5.893 -0.8475  4.1924  1.9673
  740MOL0     H99898   3.042   6.100   5.733  0.3694 -0.4838  0.2561
  740MOL0     H99899   3.190   6.205   5.740  0.9074 -1.1521  0.4017
  740MOL0     H99900   3.210   6.043   5.777  0.0820 -0.4286  0.3475
  741MOL0     O99901   4.578   3.512   7.112 -0.0154 -0.2314  0.2160
  741MOL0     C99902   4.621   3.399   7.144 -0.6577  0.1422  0.3016
  741MOL0     O99903   4.550   3.293   7.148 -0.2169 -0.9889  0.2718
  741MOL0     C99904   4.425   3.293   7.093  0.0695  1.1191  0.1565
  741MOL0     C99905   4.403   3.310   6.955  0.0083  0.0805  0.0435
  741MOL0     C99906   4.277   3.301   6.899 -0.6308 -0.0899 -0.1235
  741MOL0     C99907   4.169   3.277   6.969  0.9790 -0.2804  0.7517
  741MOL0     O99908   4.039   3.266   6.923  0.2488  0.2309 -0.2879
  741MOL0     C99909   4.026   3.250   6.786  0.1230  0.0372  0.3126
  741MOL0     C99910   3.878   3.263   6.761 -0.5040 -0.1761  0.4863
  741MOL0     C99911   3.784   3.167   6.819 -0.6816 -0.1729 -0.6620
  741MOL0     C99912   3.645   3.173   6.740  0.7294 -0.7674  0.2381
  741MOL0     C99913   3.531   3.120   6.819 -0.2074  0.3630  0.0242
  741MOL0     C99914   3.393   3.159   6.764 -0.6968 -0.4777  0.0844
  741MOL0     C99915   3.287   3.119   6.858 -0.0671 -1.3772  0.0617
  741MOL0     C99916   3.150   3.161   6.817 -0.0096 -0.7579  0.3782
  741MOL0     N99917   3.123   3.309   6.816 -0.3752  0.2846 -0.5871
  741MOL0     C99918   3.006   3.366   6.774  0.0239 -0.3149  0.3672
  741MOL0     C99919   3.017   3.501   6.794  0.2635  0.3873  0.1113
  741MOL0     C99920   2.914   3.601   6.732  0.1745 -0.0754  0.1680
  741MOL0     C99921   2.770   3.587   6.793  0.0222  0.3041 -0.6265
  741MOL0     C99922   2.788   3.621   6.945  0.4346 -0.3944 -0.4984
  741MOL0     C99923   2.643   3.618   6.993 -0.3819 -0.6262  0.2720
  741MOL0     O99924   2.655   3.587   7.133  0.4420 -0.0043  0.4542
  741MOL0     C99925   2.543   3.527   7.198 -0.2488  0.1917 -0.4821
  741MOL0     C99926   2.574   3.449   7.313  0.6542 -0.5173  0.1011
  741MOL0     C99927   2.476   3.385   7.387  0.5907 -0.3984  0.1314
  741MOL0     C99928   2.341   3.409   7.345  0.1975  0.2814 -0.1465
  741MOL0     C99929   2.229   3.363   7.423  0.4460 -0.0678 -0.1139
  741MOL0     O99930   2.104   3.367   7.363 -0.7787 -0.2316 -0.5520
  741MOL0     C99931   1.995   3.331   7.434  0.2320 -0.3099 -0.0929
  741MOL0     C99932   1.931   3.405   7.535 -0.2940  0.1439  0.2660
  741MOL0     C99933   1.810   3.362   7.590  0.0272  0.0295  0.2122
  741MOL0     C99934   1.755   3.236   7.564  0.2008  0.8737 -0.0404
  741MOL0     O99935   1.635   3.190   7.617  0.5773  0.2427 -0.1389
  741MOL0     C99936   1.540   3.286   7.680 -0.4577 -0.1607 -0.1860
  741MOL0     C99937   1.456   3.208   7.787  1.3776  0.2407 -0.9214
  741MOL0     C99938   1.551   3.159   7.899  0.4789 -0.2286  0.2689
  741MOL0     C99939   1.475   3.096   8.018 -0.5790 -0.5959  0.0728
  741MOL0     C99940   1.568   3.052   8.138 -0.1869  0.9069 -0.1242
  741MOL0     C99941   1.606   3.179   8.222  1.1957 -0.0450 -0.8109
  741MOL0     C99942   1.678   3.127   8.352 -0.1856  0.3235 -0.5686
  741MOL0     C99943   1.739   3.247   8.439  0.5835  0.0950  0.3819
  741MOL0    Cl99944   1.615   3.355   8.485  0.3154 -0.1884 -0.2330
  741MOL0     C99945   1.820   3.151   7.472 -0.4437 -0.1965  0.3924
  741MOL0     C99946   1.938   3.205   7.406 -0.0677  0.1366  0.8587
  741MOL0     O99947   2.245   3.351   7.547 -0.0894 -0.3225  1.3209
  741MOL0     C99948   2.313   3.489   7.231  0.3828 -0.1307 -0.1352
  741MOL0     C99949   2.414   3.539   7.158  0.2348 -0.0813  0.3228
  741MOL0     N99950   3.139   3.527   6.858  0.3403 -0.1479 -0.6285
  741MOL0     N99951   3.199   3.408   6.877  1.0381  0.1999 -0.6333
  741MOL0     C99952   4.188   3.260   7.109  0.5745  0.3395 -0.3429
  741MOL0     C99953   4.311   3.258   7.164  0.0733  1.8942 -1.4199
  741MOL0     C99954   4.759   3.391   7.202  0.6200  0.4069 -0.4328
  741MOL0     C99955   4.837   3.511   7.224  0.4018 -0.1500  0.1461
  741MOL0     C99956   4.956   3.506   7.295  0.7662 -0.1187 -0.4716
  741MOL0     C99957   5.012   3.382   7.331 -0.3706  0.0375  0.0648
  741MOL0     O99958   5.142   3.383   7.372 -0.1345 -0.4095 -0.0815
  741MOL0     C99959   5.191   3.263   7.436 -0.6429  0.7685  0.5014
  741MOL0     C99960   5.337   3.301   7.465 -0.6826  0.0369 -0.1719
  741MOL0     C99961   5.405   3.179   7.536 -0.4940 -0.1060 -0.2888
  741MOL0     C99962   5.549   3.150   7.501 -0.0386 -0.3745 -0.4801
  741MOL0     C99963   5.636   3.249   7.557 -0.5869 -1.0072  0.1817
  741MOL0     C99964   5.730   3.318   7.585 -0.1383 -0.7594  0.1057
  741MOL0     C99965   4.941   3.266   7.316  0.1478 -0.4591  0.0427
  741MOL0     C99966   4.822   3.272   7.243  0.6365  0.1316 -0.1067
  741MOL0     C99967   4.766   3.136   7.207 -0.3698  0.2238 -0.0371
  741MOL0     H99968   4.492   3.320   6.894  0.6341 -0.0755  0.9230
  741MOL0     H99969   4.258   3.317   6.793 -0.4197  1.0546  0.0004
  741MOL0     H99970   4.066   3.333   6.727  0.9796 -1.0138 -0.6462
  741MOL0     H99971   4.071   3.156   6.753  0.8877  1.3504 -2.7547
  741MOL0     H99972   3.872   3.256   6.652  1.2499  3.3036  0.0435
  741MOL0     H99973   3.849   3.360   6.800 -2.3889 -0.6508  0.3787
  741MOL0     H99974   3.761   3.196   6.922 -1.3342  2.4528 -1.4810
  741MOL0     H99975   3.827   3.070   6.846 -0.0974  0.4786  0.8671
  741MOL0     H99976   3.629   3.279   6.718  0.5534 -0.3352  2.2443
  741MOL0     H99977   3.643   3.132   6.639 -2.8866 -1.3370  0.4272
  741MOL0     H99978   3.543   3.011   6.812 -1.7764  0.0963  0.9614
  741MOL0     H99979   3.536   3.144   6.925  1.2786  0.6762 -0.0900
  741MOL0     H99980   3.384   3.268   6.758 -1.0514 -0.5552 -1.2431
  741MOL0     H99981   3.384   3.111   6.666  0.4163 -2.1518  0.7497
  741MOL0     H99982   3.297   3.174   6.952 -1.0113  1.5044 -1.4163
  741MOL0     H99983   3.284   3.010   6.864  2.3685 -1.4424  1.7008
  741MOL0     H99984   3.133   3.119   6.717  0.5136 -0.1582  0.0351
  741MOL0     H99985   3.088   3.111   6.892 -0.0088 -0.1643  0.7807
  741MOL0     H99986   2.914   3.326   6.731  0.4467  0.7904 -1.6609
  741MOL0     H99987   2.949   3.703   6.749 -1.9860  0.3940  2.2026
  741MOL0     H99988   2.916   3.578   6.625  0.0681  1.4863 -0.2035
  741MOL0     H99989   2.704   3.658   6.743 -0.6086 -1.5194 -2.5187
  741MOL0     H99990   2.737   3.483   6.784  0.2133  0.1918 -0.0720
  741MOL0     H99991   2.837   3.718   6.956 -2.3176  0.9878  0.5852
  741MOL0     H99992   2.844   3.538   6.990 -0.2765 -0.4101  0.4001
  741MOL0     H99993   2.577   3.562   6.927  0.0602 -0.4218 -0.3566
  741MOL0     H99994   2.617   3.724   6.984  1.9900 -0.0015 -0.1110
  741MOL0     H99995   2.681   3.446   7.332  0.9621 -1.2136 -1.5862
  741MOL0     H99996   2.503   3.336   7.480 -0.1499 -1.0263  0.0171
  741MOL0     H99997   1.979   3.499   7.561 -0.3371 -0.0485  1.0829
  741MOL0     H99998   1.752   3.439   7.640  0.5528  0.5568  0.0343
  741MOL0     H99999   1.591   3.369   7.727  1.0398 -2.4112  2.4196
  741MOL0     H    0   1.464   3.323   7.609  2.7666 -1.9706 -5.1201
  741MOL0     H    1   1.379   3.273   7.829  0.1734 -2.8425  2.0936
  741MOL0     H    2   1.390   3.130   7.748 -0.7172  0.9182  1.0397
  741MOL0     H    3   1.604   3.088   7.836 -0.6634  0.6519 -1.8012
  741MOL0     H    4   1.615   3.242   7.930  1.8598 -1.4468  0.7513
  741MOL0     H    5   1.443   3.003   7.970  1.7493 -1.2273 -0.4019
  741MOL0     H    6   1.393   3.160   8.050 -1.0746 -0.1095 -2.0526
  741MOL0     H    7   1.662   3.009   8.100  0.4479  1.1623  1.0901
  741MOL0     H    8   1.513   2.979   8.197  0.9469 -1.5820 -1.9636
  741MOL0     H    9   1.674   3.249   8.172  0.9226  0.6385 -0.2508
  741MOL0     H   10   1.509   3.227   8.239  1.7849  1.1748 -0.8131
  741MOL0     H   11   1.760   3.056   8.339  1.2296  1.6844  0.5768
  741MOL0     H   12   1.594   3.086   8.408 -1.3633  0.8081 -1.9081
  741MOL0     H   13   1.787   3.216   8.532 -1.3136 -1.6863  0.8492
  741MOL0     H   14   1.809   3.305   8.379  0.3554  0.2877  0.2990
  741MOL0     H   15   1.789   3.049   7.452  0.1727 -1.2578  3.9747
  741MOL0     H   16   1.979   3.146   7.324  0.8498  1.2593  0.4716
  741MOL0     H   17   2.211   3.502   7.194  0.3046 -0.7878 -0.1747
  741MOL0     H   18   2.392   3.598   7.070 -0.8534  1.3339  1.4849
  741MOL0     H   19   4.105   3.235   7.175 -0.3425 -0.9301 -1.9032
  741MOL0     H   20   4.315   3.227   7.268  1.5191  0.5582 -1.8254
  741MOL0     H   21   4.794   3.609   7.204  1.3395  0.4450  0.9200
  741MOL0     H   22   5.027   3.588   7.303 -0.3817  0.7732  1.2371
  741MOL0     H   23   5.170   3.167   7.388 -1.6730  0.6243  1.1997
  741MOL0     H   24   5.148   3.247   7.535  1.6996 -0.3064  1.4240
  741MOL0     H   25   5.331   3.392   7.526 -0.9480  0.4969 -0.8563
  741MOL0     H   26   5.390   3.318   7.371  0.7679 -1.1614  0.4057
  741MOL0     H   27   5.351   3.084   7.527  1.0997 -1.0179 -0.7673
  741MOL0     H   28   5.406   3.198   7.644 -0.1715 -2.4505  0.1845
  741MOL0     H   29   5.583   3.052   7.534  0.7697  1.0521  3.3848
  741MOL0     H   30   5.555   3.147   7.392  0.0429 -2.0627 -0.4500
  741MOL0     H   31   5.816   3.377   7.608 -0.3802 -1.0329  1.8469
  741MOL0     H   32   4.976   3.170   7.353 -1.7181 -0.3372  2.2958
  741MOL0     H   33   4.659   3.125   7.225 -1.0615  3.8199 -1.2144
  741MOL0     H   34   4.780   3.124   7.099  2.0906  3.2827 -0.2167
  741MOL0     H   35   4.828   3.057   7.250 -1.8051 -0.5449  0.6963
  742MOL0     O   36  10.586   7.677   7.821  0.2541 -0.5058 -0.1272
  742MOL0     C   37  10.519   7.659   7.925  0.3397 -0.6367  0.0766
  742MOL0     O   38  10.578   7.639   8.049  0.0655 -0.2542  0.2378
  742MOL0     C   39  10.711   7.669   8.070 -0.0011  0.4463  1.0812
  742MOL0     C   40  10.816   7.622   7.987 -0.4264  0.3655 -0.2185
  742MOL0     C   41  10.947   7.656   8.019 -0.2586 -0.5217 -0.4324
  742MOL0     C   42  10.974   7.737   8.124  0.4936  0.0136  0.3685
  742MOL0     O   43  11.101   7.764   8.160  0.7068  0.2279 -0.0806
  742MOL0     C   44  11.154   7.880   8.098 -0.5079 -0.5988 -0.1402
  742MOL0     C   45  11.284   7.824   8.020  0.3916 -0.0261 -0.0945
  742MOL0     C   46  11.395   7.930   8.000  0.1066  0.4842 -0.3796
  742MOL0     C   47  11.513   7.882   7.912  0.0708 -0.6129 -0.6397
  742MOL0     C   48  11.595   7.997   7.862 -0.5898 -0.3200 -0.6420
  742MOL0     C   49  11.737   7.946   7.821  0.4254  0.1576  0.0782
  742MOL0     C   50  11.801   8.046   7.732 -0.4170  0.4302 -0.1949
  742MOL0     C   51  11.948   8.007   7.710  0.1438 -0.1118 -0.1250
  742MOL0     N   52  12.029   8.098   7.626 -0.4214  0.5461 -0.3682
  742MOL0     C   53  12.097   8.214   7.674 -0.5735  0.3949  0.5053
  742MOL0     C   54  12.175   8.255   7.566 -0.0791  0.1907  0.4011
  742MOL0     C   55  12.254   8.391   7.552 -0.4189  0.5938  0.2715
  742MOL0     C   56  12.376   8.388   7.644 -0.5675 -0.2641 -0.1996
  742MOL0     C   57  12.362   8.446   7.783  1.0103 -1.2819  0.6768
  742MOL0     C   58  12.474   8.421   7.882 -0.7803 -0.0607  0.5749
  742MOL0     O   59  12.591   8.494   7.842  0.4489 -0.4126 -0.3651
  742MOL0     C   60  12.710   8.451   7.875 -1.1571 -0.9030  0.2312
  742MOL0     C   61  12.724   8.359   7.979 -0.0305 -0.5580  0.8273
  742MOL0     C   62  12.860   8.323   8.006 -0.3425 -0.2200 -0.6537
  742MOL0     C   63  12.975   8.364   7.930  0.6778 -0.9152 -0.7152
  742MOL0     C   64  13.106   8.312   7.956 -0.2604 -0.6042  0.3044
  742MOL0     O   65  13.205   8.348   7.870  0.6332 -0.5193  0.0795
  742MOL0     C   66  13.319   8.280   7.878  0.2596  0.1688 -0.1703
  742MOL0     C   67  13.332   8.140   7.865 -0.5503  0.0333 -1.2943
  742MOL0     C   68  13.454   8.070   7.896 -0.3502  0.0794 -0.6836
  742MOL0     C   69  13.572   8.147   7.914  0.1026 -0.2167 -0.1295
  742MOL0     O   70  13.690   8.087   7.933 -0.4749 -0.0240  0.2415
  742MOL0     C   71  13.717   7.960   7.877 -0.6315  0.3231 -0.1818
  742MOL0     C   72  13.875   7.940   7.874 -0.0468  0.4603  0.2887
  742MOL0     C   73  13.952   7.932   8.010  0.5646  0.2097 -0.5046
  742MOL0     C   74  14.096   7.918   7.980 -0.1690  0.2554 -0.5287
  742MOL0     C   75  14.190   7.900   8.098  0.5133 -0.1696 -0.2590
  742MOL0     C   76  14.342   7.896   8.056 -0.7972 -0.6373  0.3492
  742MOL0     C   77  14.430   7.915   8.172  0.3469  0.0212  0.1439
  742MOL0     C   78  14.569   7.963   8.130 -0.0103 -0.2634  0.2496
  742MOL0    Cl   79  14.672   7.943   8.281  0.0084  0.0856  0.2010
  742MOL0     C   80  13.562   8.287   7.931  0.7109  0.1932  0.5507
  742MOL0     C   81  13.435   8.352   7.906 -0.8228  0.4545 -0.5552
  742MOL0     O   82  13.123   8.238   8.054  0.1337 -0.1701  0.3587
  742MOL0     C   83  12.952   8.468   7.835  0.3848  0.3830  1.5701
  742MOL0     C   84  12.824   8.511   7.810  0.6408  0.3027 -0.7624
  742MOL0     N   85  12.162   8.159   7.466 -0.0444  0.0975  0.5405
  742MOL0     N   86  12.068   8.078   7.497 -0.0602  0.2485 -0.4544
  742MOL0     C   87  10.876   7.787   8.205  0.7385  0.1986  0.9312
  742MOL0     C   88  10.744   7.746   8.182  0.6374 -0.1344  0.1889
  742MOL0     C   89  10.372   7.649   7.911 -0.2713 -0.2623  0.1547
  742MOL0     C   90  10.294   7.595   8.010 -0.5746  0.3103 -0.7068
  742MOL0     C   91  10.156   7.568   8.000 -0.4544 -0.0374 -0.3404
  742MOL0     C   92  10.092   7.613   7.889  0.2125  0.4241  0.3147
  742MOL0     O   93   9.955   7.615   7.865 -0.3889 -0.3994  0.0356
  742MOL0     C   94   9.861   7.569   7.959  0.6435 -0.3109  0.4355
  742MOL0     C   95   9.732   7.572   7.889  0.5094  0.0169  0.0407
  742MOL0     C   96   9.607   7.490   7.951 -0.2506  0.0756 -0.7664
  742MOL0     C   97   9.611   7.328   7.921 -1.0305 -0.0447 -1.1755
  742MOL0     C   98   9.724   7.267   8.000  1.1823 -0.7356  1.3532
  742MOL0     C   99   9.820   7.236   8.063  0.9740 -0.1172  0.3735
  742MOL0     C  100  10.169   7.667   7.783 -0.3206 -0.4452 -0.3958
  742MOL0     C  101  10.304   7.690   7.789 -1.3518 -0.1878 -1.2683
  742MOL0     C  102  10.360   7.745   7.659  0.6163 -0.0680 -0.6649
  742MOL0     H  103  10.804   7.573   7.890  0.8579 -1.0264  0.2792
  742MOL0     H  104  11.032   7.632   7.956 -2.2215 -0.5642 -3.2542
  742MOL0     H  105  11.090   7.935   8.028 -0.9206  0.9570  1.3923
  742MOL0     H  106  11.189   7.950   8.174 -0.5769 -0.7069 -0.0085
  742MOL0     H  107  11.252   7.798   7.919 -0.0694  0.1100  0.0167
  742MOL0     H  108  11.335   7.743   8.073 -2.2024  0.5679  3.7163
  742MOL0     H  109  11.434   7.963   8.097 -0.8255  0.7478 -0.0922
  742MOL0     H  110  11.358   8.020   7.951  1.4453  1.4115  0.2580
  742MOL0     H  111  11.567   7.815   7.979  0.4827 -0.0099 -0.3541
  742MOL0     H  112  11.474   7.818   7.832 -1.9430 -0.4566  0.1647
  742MOL0     H  113  11.551   8.054   7.780  1.3963  1.7493 -0.3789
  742MOL0     H  114  11.619   8.067   7.943  2.0994 -0.2400 -1.4364
  742MOL0     H  115  11.798   7.911   7.905  1.0178 -3.0103 -1.5151
  742MOL0     H  116  11.718   7.855   7.763 -0.4720 -1.0148  2.1114
  742MOL0     H  117  11.803   8.146   7.776  0.4869  1.1681 -1.8192
  742MOL0     H  118  11.743   8.070   7.642  0.3011  1.4985 -0.3925
  742MOL0     H  119  12.003   8.008   7.805 -0.2686  1.2573  0.1171
  742MOL0     H  120  11.943   7.909   7.663 -1.3757  0.4628 -1.2210
  742MOL0     H  121  12.083   8.273   7.764  1.1181  0.4554  0.7572
  742MOL0     H  122  12.286   8.396   7.448 -0.9349 -3.8972 -0.3077
  742MOL0     H  123  12.196   8.477   7.587  0.2857  0.9398  0.6243
  742MOL0     H  124  12.410   8.284   7.648  1.0318  0.2132  3.8369
  742MOL0     H  125  12.459   8.443   7.600  0.5951 -0.7688  1.2522
  742MOL0     H  126  12.267   8.413   7.826  0.6036 -1.7919 -0.5670
  742MOL0     H  127  12.343   8.554   7.783  2.5341 -0.9844 -0.1757
  742MOL0     H  128  12.483   8.312   7.889 -1.5309 -0.2791 -1.2408
  742MOL0     H  129  12.458   8.454   7.985 -1.2910  0.8807  0.2084
  742MOL0     H  130  12.644   8.315   8.038  0.5610  0.8287  2.7658
  742MOL0     H  131  12.871   8.256   8.091  0.6902  0.2365 -0.4086
  742MOL0     H  132  13.240   8.083   7.857 -1.5386 -0.0227  5.3128
  742MOL0     H  133  13.458   7.962   7.905 -0.2505 -0.0037 -1.6175
  742MOL0     H  134  13.671   7.879   7.936 -0.9033  0.1442 -0.6347
  742MOL0     H  135  13.687   7.955   7.772  2.5491 -0.1316 -1.1749
  742MOL0     H  136  13.885   7.845   7.820 -0.0369  2.0107 -2.6492
  742MOL0     H  137  13.916   8.024   7.817 -2.8545  0.9821 -1.1244
  742MOL0     H  138  13.936   8.015   8.081  1.1928 -2.1222  2.5671
  742MOL0     H  139  13.911   7.846   8.063  0.6004  1.6799  2.1152
  742MOL0     H  140  14.122   8.012   7.931 -1.1204  0.4583 -0.6730
  742MOL0     H  141  14.120   7.835   7.912  2.7414  0.5334  0.0398
  742MOL0     H  142  14.163   7.804   8.142  2.1726 -2.2311 -3.4081
  742MOL0     H  143  14.166   7.975   8.175 -2.2985 -2.1256  0.9257
  742MOL0     H  144  14.368   7.799   8.011  0.2679 -1.3259  2.3562
  742MOL0     H  145  14.356   7.984   7.993 -1.0187 -1.3953 -0.8041
  742MOL0     H  146  14.432   7.819   8.226 -0.1742 -0.1826 -0.1909
  742MOL0     H  147  14.389   7.989   8.241  1.8091  4.0276 -2.9142
  742MOL0     H  148  14.622   7.906   8.053 -2.3228  3.0725 -4.3555
  742MOL0     H  149  14.567   8.066   8.091  1.8007  0.0759  0.9288
  742MOL0     H  150  13.646   8.346   7.968  1.2601  0.7651 -1.4825
  742MOL0     H  151  13.415   8.456   7.929  1.0542  0.5967  0.6769
  742MOL0     H  152  13.033   8.526   7.792  1.5367 -1.1690  1.5793
  742MOL0     H  153  12.813   8.597   7.744 -0.0232 -0.3276 -1.4969
  742MOL0     H  154  10.905   7.856   8.284  2.5274 -0.3060  0.7530
  742MOL0     H  155  10.658   7.767   8.245  0.0538 -1.9781  0.0511
  742MOL0     H  156  10.337   7.566   8.106 -1.0710 -0.8752 -0.8278
  742MOL0     H  157  10.105   7.538   8.091  2.3192  0.8611  1.6407
  742MOL0     H  158   9.854   7.641   8.041 -0.5498  0.9496 -0.7076
  742MOL0     H  159   9.895   7.473   7.999 -0.6886 -0.0960  2.1972
  742MOL0     H  160   9.744   7.547   7.783  1.3808 -1.7640  0.5242
  742MOL0     H  161   9.709   7.679   7.892  2.8663  0.6178  3.6722
  742MOL0     H  162   9.517   7.537   7.909 -1.1917  0.3529  1.4152
  742MOL0     H  163   9.605   7.505   8.060 -0.2231  2.9147 -1.0734
  742MOL0     H  164   9.518   7.281   7.954 -0.1058 -1.2885 -0.1631
  742MOL0     H  165   9.627   7.301   7.817  0.8109 -1.0025 -0.7039
  742MOL0     H  166   9.914   7.213   8.108  1.4725  0.1820 -0.4821
  742MOL0     H  167  10.106   7.703   7.702  1.2685 -0.2561 -1.5935
  742MOL0     H  168  10.424   7.673   7.608  1.5516 -0.8204  1.4667
  742MOL0     H  169  10.285   7.806   7.609  0.4844  2.3360  2.1501
  742MOL0     H  170  10.433   7.818   7.698  1.4513 -0.1335 -2.0573
  743MOL0     O  171   1.745   5.124   2.818  0.4716 -0.0390 -0.1267
  743MOL0     C  172   1.737   5.015   2.769  0.1986  0.0587 -1.1857
  743MOL0     O  173   1.849   4.947   2.720  0.7433 -0.7149 -0.4286
  743MOL0     C  174   1.973   4.981   2.771  0.4612  0.1571  0.4473
  743MOL0     C  175   2.028   4.883   2.850 -0.6075  0.2632 -0.2333
  743MOL0     C  176   2.159   4.899   2.901  0.5735 -0.3248  0.0694
  743MOL0     C  177   2.228   5.013   2.873 -0.1317 -0.4189 -0.2043
  743MOL0     O  178   2.349   5.046   2.927 -0.3788  0.3988  1.3746
  743MOL0     C  179   2.397   4.971   3.033 -0.7096 -0.1442 -0.8782
  743MOL0     C  180   2.482   4.870   2.975 -0.6992 -0.0395  0.7524
  743MOL0     C  181   2.620   4.933   2.943 -0.3212  0.5924 -0.5352
  743MOL0     C  182   2.706   4.819   2.891 -0.7449 -0.1046  0.5984
  743MOL0     C  183   2.847   4.868   2.858  0.2105 -0.3013 -0.2370
  743MOL0     C  184   2.928   4.755   2.816  0.2303  0.0702  0.2458
  743MOL0     C  185   3.072   4.792   2.814  0.2686  0.1880 -0.2118
  743MOL0     C  186   3.144   4.668   2.781  0.1626 -0.4529 -0.1426
  743MOL0     N  187   3.283   4.698   2.773 -0.0731  0.1941 -0.8362
  743MOL0     C  188   3.374   4.605   2.823 -0.4126 -0.2970 -0.5245
  743MOL0     C  189   3.499   4.648   2.779  0.7740  0.2588 -0.4660
  743MOL0     C  190   3.621   4.582   2.847 -0.3872 -0.0027  0.6118
  743MOL0     C  191   3.758   4.626   2.773  0.5512  0.7610 -0.8592
  743MOL0     C  192   3.882   4.558   2.853  0.3351  0.1561 -0.3131
  743MOL0     C  193   4.002   4.516   2.761 -0.6486 -0.0747  0.7530
  743MOL0     O  194   4.053   4.634   2.693 -0.3703 -1.0117 -0.2008
  743MOL0     C  195   4.178   4.620   2.628 -0.3070  0.2181  0.4539
  743MOL0     C  196   4.231   4.736   2.563  0.5157  0.6566  0.7024
  743MOL0     C  197   4.361   4.727   2.506  0.7073  0.2227  0.1052
  743MOL0     C  198   4.436   4.611   2.507  0.5388 -0.4537 -0.3449
  743MOL0     C  199   4.572   4.606   2.445 -0.0040  0.6358 -0.2375
  743MOL0     O  200   4.623   4.484   2.423 -0.3323  0.1184 -0.2105
  743MOL0     C  201   4.737   4.459   2.357 -0.3479  0.1356  0.3054
  743MOL0     C  202   4.765   4.515   2.228 -0.1973 -0.3109 -0.0810
  743MOL0     C  203   4.875   4.472   2.152  0.0644  0.1701 -0.3037
  743MOL0     C  204   4.965   4.379   2.196  0.2581  0.1878  0.1883
  743MOL0     O  205   5.066   4.346   2.117  0.5902  0.3275 -0.2205
  743MOL0     C  206   5.196   4.328   2.187  0.4535 -0.1574 -0.3413
  743MOL0     C  207   5.294   4.312   2.076 -0.3815  0.3479 -0.8096
  743MOL0     C  208   5.443   4.319   2.131 -0.9687 -0.1664 -0.1088
  743MOL0     C  209   5.539   4.334   2.019 -0.2583 -0.6511 -0.1838
  743MOL0     C  210   5.681   4.338   2.071  0.2563  0.4547 -0.3231
  743MOL0     C  211   5.775   4.342   1.948  0.4007  0.0754  0.1049
  743MOL0     C  212   5.791   4.474   1.859  0.0736 -1.0747 -0.4324
  743MOL0     C  213   5.906   4.464   1.752  0.2881 -0.8245 -0.5149
  743MOL0    Cl  214   6.062   4.510   1.814  0.1101 -0.4463 -0.6351
  743MOL0     C  215   4.933   4.317   2.317 -0.4899 -1.0179  0.0043
  743MOL0     C  216   4.820   4.357   2.399  0.0261 -0.5426  0.0022
  743MOL0     O  217   4.626   4.711   2.420  0.1586  0.5769  0.2960
  743MOL0     C  218   4.379   4.493   2.558  0.8673  0.1874  0.5847
  743MOL0     C  219   4.248   4.496   2.618  0.1997 -0.5066  0.0713
  743MOL0     N  220   3.483   4.753   2.690  0.0807 -0.0799  0.0112
  743MOL0     N  221   3.352   4.781   2.691 -0.6705 -0.1113 -0.4863
  743MOL0     C  222   2.170   5.112   2.793  0.1277 -0.4187 -0.9561
  743MOL0     C  223   2.036   5.101   2.749 -0.6366  0.4797  0.3658
  743MOL0     C  224   1.608   4.940   2.767 -1.0696  0.0257 -0.1468
  743MOL0     C  225   1.616   4.800   2.758  0.0802  0.2135 -0.0441
  743MOL0     C  226   1.499   4.722   2.766  0.2593 -1.0983 -0.2647
  743MOL0     C  227   1.375   4.776   2.770  0.6303  0.1556  0.4202
  743MOL0     O  228   1.267   4.693   2.740 -0.7081 -0.2952 -0.9678
  743MOL0     C  229   1.139   4.730   2.764 -1.0080 -0.3131 -0.6244
  743MOL0     C  230   1.048   4.620   2.725 -0.6017  0.7975  0.0563
  743MOL0     C  231   1.010   4.516   2.828 -0.5392  0.2856 -0.4055
  743MOL0     C  232   1.127   4.424   2.851  0.0876  0.7310 -0.8021
  743MOL0     C  233   1.092   4.332   2.962 -0.6647 -0.1865 -0.0573
  743MOL0     C  234   1.065   4.252   3.049 -0.2639 -0.2439 -0.1508
  743MOL0     C  235   1.363   4.912   2.782 -0.5817  0.5714 -0.2933
  743MOL0     C  236   1.473   4.995   2.786 -0.1697  0.2965  0.2290
  743MOL0     C  237   1.456   5.137   2.818  0.3486  0.0557  0.2883
  743MOL0     H  238   1.975   4.796   2.887  0.1982  0.3104  1.1202
  743MOL0     H  239   2.200   4.817   2.959 -0.0110  0.5447  1.7795
  743MOL0     H  240   2.458   5.041   3.092  1.1340 -2.2719 -0.1239
  743MOL0     H  241   2.314   4.942   3.099 -2.9908  3.1127 -2.0705
  743MOL0     H  242   2.431   4.832   2.885 -1.6604  2.8530 -0.0406
  743MOL0     H  243   2.501   4.783   3.038 -0.1758 -0.5486 -0.0921
  743MOL0     H  244   2.665   4.981   3.031 -2.2569 -0.5701  1.1768
  743MOL0     H  245   2.604   5.020   2.878 -0.0847  0.2533 -1.0568
  743MOL0     H  246   2.712   4.734   2.959 -1.4622 -0.3824  0.3249
  743MOL0     H  247   2.660   4.785   2.798 -2.4651  1.3534  0.8623
  743MOL0     H  248   2.839   4.947   2.782 -2.2334 -0.2688 -0.0185
  743MOL0     H  249   2.892   4.906   2.950 -0.0746  0.2982 -0.3389
  743MOL0     H  250   2.913   4.670   2.884 -2.8205  0.8427  0.7049
  743MOL0     H  251   2.892   4.717   2.720  0.5122 -2.0117  0.9211
  743MOL0     H  252   3.102   4.825   2.914  1.9554  4.9832 -2.0235
  743MOL0     H  253   3.095   4.873   2.744 -0.8740  0.4685 -0.2913
  743MOL0     H  254   3.130   4.587   2.853  2.4613 -0.7574  0.0517
  743MOL0     H  255   3.106   4.643   2.681  0.8854  3.3653 -1.5440
  743MOL0     H  256   3.362   4.520   2.889 -0.8113  0.0163 -0.1877
  743MOL0     H  257   3.621   4.600   2.955 -4.1027  0.3692  0.6613
  743MOL0     H  258   3.615   4.473   2.851 -2.1567  0.0684  0.4317
  743MOL0     H  259   3.763   4.598   2.667  0.2296  1.3394 -1.0317
  743MOL0     H  260   3.756   4.734   2.793 -1.0330  0.2888  2.1517
  743MOL0     H  261   3.850   4.462   2.896  0.7807 -0.8610 -2.1207
  743MOL0     H  262   3.917   4.622   2.935  0.6149 -0.4266  0.0363
  743MOL0     H  263   3.971   4.447   2.682 -0.3967 -1.1685  1.5901
  743MOL0     H  264   4.074   4.456   2.818  0.1331  0.7248  0.6349
  743MOL0     H  265   4.174   4.827   2.550  1.4542  0.8998 -2.5729
  743MOL0     H  266   4.407   4.811   2.454 -0.4912  3.1336  3.3313
  743MOL0     H  267   4.709   4.596   2.182  0.9454 -0.8838 -2.5900
  743MOL0     H  268   4.894   4.532   2.064 -0.2580  1.5464  0.5375
  743MOL0     H  269   5.222   4.419   2.241  0.9654  0.4437 -1.5487
  743MOL0     H  270   5.198   4.235   2.245  4.2883 -0.7780 -1.1739
  743MOL0     H  271   5.282   4.214   2.029  1.9428 -0.0934 -0.5979
  743MOL0     H  272   5.267   4.387   2.001 -0.2568 -0.0455 -1.2578
  743MOL0     H  273   5.457   4.392   2.211 -1.3851  1.9012 -1.8420
  743MOL0     H  274   5.446   4.224   2.186 -1.5991  1.1477  2.3318
  743MOL0     H  275   5.514   4.421   1.957 -2.3209  0.3111  1.8755
  743MOL0     H  276   5.530   4.244   1.956 -1.7513 -2.2278  2.1419
  743MOL0     H  277   5.699   4.247   2.129  1.8535  0.0778 -1.3353
  743MOL0     H  278   5.697   4.417   2.145 -1.4104  0.0727  0.4806
  743MOL0     H  279   5.875   4.323   1.988  0.8516  1.8017 -0.1330
  743MOL0     H  280   5.748   4.260   1.880  0.0833  0.5913 -0.3992
  743MOL0     H  281   5.805   4.564   1.920 -1.8152 -1.3351  0.4440
  743MOL0     H  282   5.693   4.490   1.814  0.7234  0.2041 -1.4442
  743MOL0     H  283   5.918   4.364   1.710  5.2670 -0.6941 -0.0062
  743MOL0     H  284   5.884   4.530   1.667  2.4184 -2.3617 -2.3884
  743MOL0     H  285   5.007   4.247   2.354  1.2125  0.2768 -0.7839
  743MOL0     H  286   4.811   4.311   2.497 -0.2599 -1.1842 -0.3215
  743MOL0     H  287   4.438   4.402   2.565  1.0526  0.3433  1.1311
  743MOL0     H  288   4.219   4.407   2.672  0.4255 -1.7474 -1.7730
  743MOL0     H  289   2.225   5.202   2.768  0.9794 -0.1290  1.6317
  743MOL0     H  290   1.985   5.176   2.690 -0.4948 -0.7340 -1.3711
  743MOL0     H  291   1.709   4.744   2.747  0.4507  0.8410 -0.2240
  743MOL0     H  292   1.494   4.615   2.777 -1.9558 -1.0351 -0.2775
  743MOL0     H  293   1.116   4.819   2.705 -0.0328  1.3503  1.3627
  743MOL0     H  294   1.134   4.768   2.867  2.9273 -1.8327  0.2865
  743MOL0     H  295   1.095   4.570   2.640 -2.4160 -1.3268  0.2054
  743MOL0     H  296   0.959   4.671   2.687 -0.0273  1.9920  0.2994
  743MOL0     H  297   0.914   4.467   2.808 -0.3440 -1.5951  2.6098
  743MOL0     H  298   0.991   4.560   2.927 -1.0740 -2.6384  0.8919
  743MOL0     H  299   1.161   4.376   2.758  2.5444  0.7593  0.0075
  743MOL0     H  300   1.213   4.483   2.885  0.6652 -0.1839 -0.6210
  743MOL0     H  301   1.032   4.175   3.115 -1.1954 -0.8461 -1.2925
  743MOL0     H  302   1.270   4.967   2.790  0.7180  2.7148  0.9977
  743MOL0     H  303   1.515   5.192   2.744  0.1300 -0.7624 -0.5139
  743MOL0     H  304   1.350   5.165   2.816 -0.1591 -1.4762  2.1994
  743MOL0     H  305   1.493   5.148   2.920  3.2471  0.3644 -0.6959
  744MOL0     O  306   8.635   0.834   0.442  0.4477 -0.6374  0.6179
  744MOL0     C  307   8.551   0.780   0.511 -0.6374 -0.4751 -0.4175
  744MOL0     O  308   8.583   0.726   0.628 -0.4364 -0.2606  0.3438
  744MOL0     C  309   8.717   0.686   0.628 -0.0542  0.4293 -0.1235
  744MOL0     C  310   8.826   0.750   0.684 -0.2130 -0.4745  0.2358
  744MOL0     C  311   8.953   0.693   0.691  0.4701  0.5221  0.0291
  744MOL0     C  312   8.975   0.562   0.639  0.3114 -0.8499  0.0427
  744MOL0     O  313   9.109   0.526   0.649 -0.4852 -0.3701 -0.4588
  744MOL0     C  314   9.148   0.419   0.563  0.8304 -0.4095  0.7963
  744MOL0     C  315   9.290   0.366   0.583  0.7266 -0.7336 -0.4734
  744MOL0     C  316   9.394   0.476   0.577 -0.8969 -0.0592  0.3447
  744MOL0     C  317   9.434   0.509   0.432  0.4293  0.8684 -0.0792
  744MOL0     C  318   9.554   0.606   0.413 -0.8809 -0.0317 -0.2224
  744MOL0     C  319   9.693   0.535   0.458  0.4059  0.0355 -0.4586
  744MOL0     C  320   9.800   0.566   0.348  0.1723 -0.2092 -0.8974
  744MOL0     C  321   9.846   0.714   0.350 -0.3536  0.4887 -0.2635
  744MOL0     N  322   9.958   0.726   0.262 -0.1852  0.8583 -0.0197
  744MOL0     C  323   9.945   0.740   0.127 -0.9733 -0.5738  0.0427
  744MOL0     C  324  10.073   0.762   0.082  0.9163 -0.5767 -0.2098
  744MOL0     C  325  10.109   0.773  -0.068  0.0887  0.9964  0.1078
  744MOL0     C  326  10.024   0.879  -0.138 -0.4549  0.0250  0.3404
  744MOL0     C  327  10.099   0.941  -0.255  0.2668  0.9875  0.7798
  744MOL0     C  328  10.206   1.035  -0.214  0.0396 -0.1776 -1.5868
  744MOL0     O  329  10.295   1.038  -0.324  0.5442 -0.9791 -0.1178
  744MOL0     C  330  10.403   1.123  -0.347 -0.2995 -0.4810 -0.8186
  744MOL0     C  331  10.448   1.220  -0.252  0.3636  0.6621 -0.0163
  744MOL0     C  332  10.553   1.304  -0.283 -0.0091  0.2876 -0.2692
  744MOL0     C  333  10.622   1.288  -0.410  0.3654 -0.3202  0.4473
  744MOL0     C  334  10.741   1.369  -0.446 -0.0109  0.5057 -0.7556
  744MOL0     O  335  10.792   1.362  -0.575  0.4259 -0.2692  0.3361
  744MOL0     C  336  10.909   1.433  -0.605  0.3662 -0.5219 -0.7747
  744MOL0     C  337  11.012   1.348  -0.662 -0.7135  0.0533 -0.5926
  744MOL0     C  338  11.138   1.411  -0.684 -0.3870  0.7018  0.1595
  744MOL0     C  339  11.146   1.545  -0.675 -0.7886  0.4952 -0.7116
  744MOL0     O  340  11.265   1.604  -0.715  0.2349  0.9343 -0.5334
  744MOL0     C  341  11.323   1.684  -0.607 -0.6631  0.3557  0.8850
  744MOL0     C  342  11.473   1.702  -0.632 -0.8008  0.1428  0.1102
  744MOL0     C  343  11.507   1.741  -0.773 -0.8006  0.0434  0.0815
  744MOL0     C  344  11.638   1.808  -0.784  0.7425  0.1715  0.1429
  744MOL0     C  345  11.678   1.841  -0.924 -0.1710  0.4081 -0.4963
  744MOL0     C  346  11.825   1.867  -0.938 -0.3360 -0.3029  0.1051
  744MOL0     C  347  11.843   1.971  -1.045 -0.7392 -0.0480  0.0131
  744MOL0     C  348  11.984   1.980  -1.078 -0.7664 -0.6572  0.3887
  744MOL0    Cl  349  12.005   2.131  -1.189  0.3218  0.1900 -0.1126
  744MOL0     C  350  11.046   1.625  -0.627 -0.2524  0.2593  0.1013
  744MOL0     C  351  10.930   1.566  -0.585  0.2910  0.7114 -0.5870
  744MOL0     O  352  10.782   1.437  -0.355 -0.5183 -0.2830  0.0777
  744MOL0     C  353  10.588   1.183  -0.497 -0.4450  0.0280 -0.5375
  744MOL0     C  354  10.483   1.099  -0.456 -0.9069 -0.1209  0.0329
  744MOL0     N  355  10.153   0.768   0.190 -1.1938  0.5653 -0.6587
  744MOL0     N  356  10.093   0.753   0.302  0.6195 -0.9371 -0.5793
  744MOL0     C  357   8.865   0.504   0.561 -0.1918 -0.3559 -0.1835
  744MOL0     C  358   8.741   0.567   0.557 -0.2036 -0.2939 -0.0464
  744MOL0     C  359   8.406   0.795   0.475 -0.2338  0.6485  0.5445
  744MOL0     C  360   8.313   0.795   0.578 -0.7468  0.7273  0.0921
  744MOL0     C  361   8.177   0.802   0.551 -0.3736 -0.3860  0.3505
  744MOL0     C  362   8.130   0.836   0.421 -0.1739  1.0887  0.1066
  744MOL0     O  363   8.002   0.863   0.388 -0.1391 -0.2059 -0.8611
  744MOL0     C  364   7.907   0.861   0.497  0.2111 -1.3873  0.7820
  744MOL0     C  365   7.788   0.953   0.449  0.1957 -0.2102  1.8399
  744MOL0     C  366   7.834   1.096   0.435 -0.4199 -0.6023 -0.4341
  744MOL0     C  367   7.754   1.178   0.336 -0.2843 -0.6725 -0.1254
  744MOL0     C  368   7.618   1.199   0.378  0.6988  0.1461 -1.1107
  744MOL0     C  369   7.501   1.204   0.410 -0.1904 -0.6557  1.1154
  744MOL0     C  370   8.230   0.851   0.320  0.5158  0.5936  0.1316
  744MOL0     C  371   8.361   0.823   0.340 -0.4738 -0.1848 -0.2679
  744MOL0     C  372   8.446   0.831   0.216  0.1205 -0.3837 -0.1746
  744MOL0     H  373   8.797   0.845   0.728 -2.4708 -0.5205 -0.9642
  744MOL0     H  374   9.039   0.743   0.734  0.9658  1.6030 -2.0866
  744MOL0     H  375   9.078   0.338   0.588 -0.8467  0.4258 -0.9441
  744MOL0     H  376   9.136   0.442   0.457 -1.9284 -1.7013  0.7254
  744MOL0     H  377   9.319   0.301   0.500  1.1095 -0.2602 -0.7120
  744MOL0     H  378   9.285   0.308   0.676 -1.2885  1.9226  1.2543
  744MOL0     H  379   9.481   0.430   0.626 -0.6930 -0.6421 -0.5336
  744MOL0     H  380   9.373   0.567   0.633 -1.8010  0.1783 -0.3694
  744MOL0     H  381   9.459   0.419   0.375 -1.6814  1.0649 -1.4207
  744MOL0     H  382   9.351   0.555   0.380 -0.3793  1.2004  1.4465
  744MOL0     H  383   9.553   0.639   0.309 -0.7177  1.1099  0.1251
  744MOL0     H  384   9.531   0.691   0.477  0.2079  1.8527 -2.2160
  744MOL0     H  385   9.729   0.568   0.556  1.7852 -1.3403 -0.4676
  744MOL0     H  386   9.660   0.432   0.467 -2.6635  0.9734  0.2090
  744MOL0     H  387   9.753   0.544   0.251 -0.6022  4.4868 -1.8044
  744MOL0     H  388   9.887   0.500   0.360  2.5738  2.8702 -0.2787
  744MOL0     H  389   9.765   0.781   0.318  0.8555  0.6782 -3.2853
  744MOL0     H  390   9.858   0.734   0.457 -1.1332  0.8282 -0.2318
  744MOL0     H  391   9.855   0.752   0.068 -1.5860  0.4037  1.1409
  744MOL0     H  392  10.214   0.805  -0.074  0.1135  1.0106  0.5439
  744MOL0     H  393  10.109   0.674  -0.114 -0.0090  0.3095  1.5208
  744MOL0     H  394   9.932   0.831  -0.172 -1.2504  2.5226 -1.2804
  744MOL0     H  395  10.006   0.957  -0.064  1.4513  0.2458  0.6439
  744MOL0     H  396  10.031   1.003  -0.314  2.0005  0.5787 -1.8118
  744MOL0     H  397  10.136   0.863  -0.322 -1.4641  1.3113 -0.6323
  744MOL0     H  398  10.271   0.997  -0.134  0.3618  0.2016 -1.6645
  744MOL0     H  399  10.164   1.133  -0.189 -1.5866 -0.6715 -2.2529
  744MOL0     H  400  10.402   1.241  -0.156  2.0057  1.2727  0.6880
  744MOL0     H  401  10.581   1.377  -0.208 -1.3981  1.2898 -0.6907
  744MOL0     H  402  10.991   1.246  -0.695 -1.2952 -0.1198  0.2700
  744MOL0     H  403  11.218   1.348  -0.720 -0.9339 -1.0501  1.8392
  744MOL0     H  404  11.285   1.786  -0.594  1.1916  1.2103  0.0101
  744MOL0     H  405  11.312   1.629  -0.513  2.2862 -0.9371  0.6034
  744MOL0     H  406  11.504   1.769  -0.552  0.2281 -0.6068  0.3684
  744MOL0     H  407  11.516   1.606  -0.601 -2.2509 -0.8740 -0.9183
  744MOL0     H  408  11.499   1.655  -0.840  1.8678  0.0454 -0.3427
  744MOL0     H  409  11.433   1.814  -0.806 -1.1019 -0.3708 -0.1663
  744MOL0     H  410  11.698   1.730  -0.737 -1.8427 -2.4361 -0.5766
  744MOL0     H  411  11.647   1.894  -0.717 -0.1451  3.0065 -3.1216
  744MOL0     H  412  11.622   1.927  -0.960 -0.3808 -0.9177 -3.6356
  744MOL0     H  413  11.662   1.761  -0.997  0.6470  1.5076 -1.9284
  744MOL0     H  414  11.855   1.891  -0.836 -2.1765  0.0755  0.5931
  744MOL0     H  415  11.885   1.779  -0.964 -0.3047 -0.3453  0.3224
  744MOL0     H  416  11.807   2.071  -1.019 -2.1085 -0.7394  0.8904
  744MOL0     H  417  11.778   1.941  -1.127  0.5919  1.3704 -1.6273
  744MOL0     H  418  12.054   1.990  -0.995  0.5749 -1.0779 -0.6486
  744MOL0     H  419  12.011   1.891  -1.135 -3.6462 -1.7071  0.5250
  744MOL0     H  420  11.052   1.733  -0.632  2.8681  0.1708 -4.0181
  744MOL0     H  421  10.839   1.620  -0.557 -2.4774 -3.4818 -0.5899
  744MOL0     H  422  10.639   1.170  -0.592 -1.7517  1.5235 -1.5040
  744MOL0     H  423  10.441   1.022  -0.519  2.5404 -2.3337  0.1762
  744MOL0     H  424   8.886   0.413   0.505  3.9863  1.5104 -2.0913
  744MOL0     H  425   8.649   0.522   0.521 -1.4426  0.3969  2.0692
  744MOL0     H  426   8.336   0.760   0.678  2.1668  0.3645 -0.5843
  744MOL0     H  427   8.106   0.791   0.631 -0.4858 -0.0915  0.2923
  744MOL0     H  428   7.949   0.906   0.587 -2.0144  2.0572  0.2820
  744MOL0     H  429   7.864   0.764   0.522 -3.8964  0.3463  1.2001
  744MOL0     H  430   7.700   0.954   0.514  0.4545 -0.0175  2.1929
  744MOL0     H  431   7.749   0.914   0.354  0.8972 -1.4130  2.0224
  744MOL0     H  432   7.941   1.102   0.413 -0.0759 -0.8465  1.0501
  744MOL0     H  433   7.824   1.149   0.530 -0.3604  2.8821 -2.2196
  744MOL0     H  434   7.795   1.279   0.324 -0.7183 -0.1284  2.4283
  744MOL0     H  435   7.760   1.133   0.236  1.3457  0.0612 -0.3999
  744MOL0     H  436   7.403   1.242   0.432  0.2416  0.4422  1.1959
  744MOL0     H  437   8.197   0.889   0.224 -0.4010 -0.5403 -0.0269
  744MOL0     H  438   8.382   0.822   0.128  0.9359  0.5916 -0.8958
  744MOL0     H  439   8.502   0.925   0.215 -1.3747  0.5497 -1.1067
  744MOL0     H  440   8.515   0.747   0.218  2.9916  1.8219  1.8829
  745MOL0     O  441   7.403   1.049   2.685  0.1791  0.1883 -0.4207
  745MOL0     C  442   7.337   1.127   2.744 -0.3328 -0.3711  0.1552
  745MOL0     O  443   7.389   1.221   2.826  0.3280 -0.3464  0.2231
  745MOL0     C  444   7.524   1.234   2.842  0.1982  0.3710  0.1574
  745MOL0     C  445   7.615   1.248   2.742  0.0189  0.6305  0.1379
  745MOL0     C  446   7.753   1.276   2.772  0.1214 -0.2122 -0.2137
  745MOL0     C  447   7.783   1.289   2.911 -0.5333  0.2462  0.6121
  745MOL0     O  448   7.914   1.315   2.944 -0.0025 -0.1666  0.1030
  745MOL0     C  449   7.971   1.287   3.079 -0.5928  0.8287 -0.4926
  745MOL0     C  450   8.120   1.328   3.070 -0.3748  0.1249  1.3519
  745MOL0     C  451   8.196   1.251   2.965  0.3019  0.5476 -0.5233
  745MOL0     C  452   8.344   1.230   3.005  0.1686 -0.8932  0.7472
  745MOL0     C  453   8.444   1.229   2.885 -0.5532 -0.9107  0.6769
  745MOL0     C  454   8.546   1.117   2.894 -0.1119 -0.1768  0.2111
  745MOL0     C  455   8.630   1.094   2.763  0.2899  0.1867 -1.0872
  745MOL0     C  456   8.693   0.952   2.744  0.0981  0.1564  0.1049
  745MOL0     N  457   8.815   0.934   2.822 -0.2248 -0.3113 -0.0704
  745MOL0     C  458   8.889   0.814   2.837  0.5086 -0.3134  0.2309
  745MOL0     C  459   8.994   0.843   2.921 -0.1786 -0.4676 -0.4260
  745MOL0     C  460   9.103   0.747   2.961 -0.0503  0.3283  0.2654
  745MOL0     C  461   9.241   0.812   2.968  1.0293 -0.6782  1.4380
  745MOL0     C  462   9.294   0.856   2.826 -0.2768 -0.5060  0.2505
  745MOL0     C  463   9.423   0.939   2.831  0.1472  0.9297 -0.6807
  745MOL0     O  464   9.520   0.856   2.902  0.6857  0.2931  0.4337
  745MOL0     C  465   9.543   0.858   3.040 -0.9622 -0.1857  0.0925
  745MOL0     C  466   9.515   0.971   3.116  1.1358  0.2262  0.2420
  745MOL0     C  467   9.551   0.977   3.246  0.0271 -0.5239  0.5434
  745MOL0     C  468   9.618   0.874   3.311 -0.4494 -0.3471 -0.3727
  745MOL0     C  469   9.649   0.884   3.454  0.4397 -0.5534 -1.1656
  745MOL0     O  470   9.707   0.781   3.522  0.0588  0.2268 -0.1869
  745MOL0     C  471   9.741   0.782   3.660  0.0484  0.0037  0.2368
  745MOL0     C  472   9.688   0.851   3.763  0.4805  0.2335 -0.0224
  745MOL0     C  473   9.752   0.865   3.882  0.0724 -0.6945 -0.1510
  745MOL0     C  474   9.858   0.776   3.924  0.6572 -0.0972 -0.8243
  745MOL0     O  475   9.911   0.773   4.042 -0.6093 -0.9458  0.4371
  745MOL0     C  476   9.870   0.872   4.144 -0.7469 -0.2582  0.0238
  745MOL0     C  477   9.945   0.860   4.283  0.1923 -0.3099  0.4002
  745MOL0     C  478  10.095   0.908   4.256 -0.6049  0.3234 -0.8729
  745MOL0     C  479  10.171   0.874   4.389 -0.6653 -0.4175  0.1497
  745MOL0     C  480  10.325   0.887   4.374 -0.0192 -0.0566 -0.0962
  745MOL0     C  481  10.388   0.845   4.506  0.4949 -0.7783 -0.4723
  745MOL0     C  482  10.520   0.908   4.513 -1.9011 -0.0906 -0.5864
  745MOL0     C  483  10.609   0.848   4.626  0.1218  0.5894 -0.2093
  745MOL0    Cl  484  10.751   0.954   4.628  0.1340 -0.3053  0.0849
  745MOL0     C  485   9.907   0.691   3.823 -0.2125 -0.3698 -0.1745
  745MOL0     C  486   9.858   0.701   3.691  0.4326  0.3358 -0.3000
  745MOL0     O  487   9.624   0.992   3.507  0.0631  0.1641 -0.4980
  745MOL0     C  488   9.653   0.761   3.235  0.0086  0.1493 -0.4781
  745MOL0     C  489   9.611   0.744   3.101 -0.4117  0.2646 -0.8139
  745MOL0     N  490   8.990   0.982   2.945 -0.0557  0.7395 -0.4413
  745MOL0     N  491   8.875   1.030   2.896 -0.8275  0.5868 -0.3741
  745MOL0     C  492   7.688   1.274   3.013  0.5162  0.0510  0.2170
  745MOL0     C  493   7.558   1.245   2.978  0.3350 -0.6796 -0.7096
  745MOL0     C  494   7.190   1.101   2.747  0.4689  0.3257 -0.9021
  745MOL0     C  495   7.123   1.157   2.854  1.2162 -0.6400 -0.3494
  745MOL0     C  496   6.980   1.148   2.858  0.4280  0.5301 -0.7207
  745MOL0     C  497   6.907   1.074   2.762 -0.0694 -0.0132  0.0053
  745MOL0     O  498   6.769   1.075   2.773 -0.5152 -0.7896 -0.1511
  745MOL0     C  499   6.702   0.958   2.729  0.9307  0.2030 -0.8800
  745MOL0     C  500   6.569   0.938   2.810 -0.3706  0.5015 -0.6909
  745MOL0     C  501   6.581   0.960   2.965 -0.2808  0.1983 -0.2302
  745MOL0     C  502   6.678   0.870   3.041 -0.2933  0.0800  0.7859
  745MOL0     C  503   6.637   0.725   3.031  0.0319 -0.8050  0.2369
  745MOL0     C  504   6.610   0.609   3.031 -0.1352  0.1525 -0.8244
  745MOL0     C  505   6.982   1.014   2.657  0.6289  0.7267 -0.4584
  745MOL0     C  506   7.121   1.027   2.641  1.1069 -0.1321 -0.4061
  745MOL0     C  507   7.189   0.954   2.523  0.5040  0.7926  0.5603
  745MOL0     H  508   7.593   1.244   2.636 -0.3706 -0.1166  0.2394
  745MOL0     H  509   7.827   1.273   2.693 -1.9947 -1.3584 -2.2822
  745MOL0     H  510   7.916   1.345   3.154  1.3627 -1.2012  2.7212
  745MOL0     H  511   7.963   1.180   3.098 -0.8711  1.0763  0.8436
  745MOL0     H  512   8.172   1.323   3.166 -1.2908  1.6270  1.9718
  745MOL0     H  513   8.128   1.434   3.041 -0.1295 -0.4816 -0.9992
  745MOL0     H  514   8.180   1.301   2.869  0.9570  0.5120 -0.6577
  745MOL0     H  515   8.152   1.150   2.969 -0.1075  0.7319 -0.3226
  745MOL0     H  516   8.384   1.310   3.067  1.1224  1.4316 -2.5881
  745MOL0     H  517   8.336   1.133   3.056 -2.0981 -2.0339 -1.5697
  745MOL0     H  518   8.384   1.212   2.796  1.3558 -0.3019 -0.7809
  745MOL0     H  519   8.492   1.327   2.878  1.0293 -1.7915 -2.2163
  745MOL0     H  520   8.607   1.147   2.980 -1.1882  1.4910  0.4363
  745MOL0     H  521   8.493   1.024   2.918 -1.1225  0.2804 -0.1930
  745MOL0     H  522   8.704   1.174   2.768  0.3892  0.0307  0.7112
  745MOL0     H  523   8.555   1.100   2.683 -0.9778  1.1166  0.1224
  745MOL0     H  524   8.621   0.875   2.773  2.4019 -1.2330  2.6142
  745MOL0     H  525   8.719   0.947   2.638  1.4102 -1.2320  0.4599
  745MOL0     H  526   8.861   0.717   2.799 -1.1701 -0.0291  0.6545
  745MOL0     H  527   9.084   0.721   3.066 -0.9640  2.0428  0.5571
  745MOL0     H  528   9.114   0.664   2.890 -2.8309 -0.0828  0.1987
  745MOL0     H  529   9.234   0.891   3.043  0.0513 -1.0502  1.7660
  745MOL0     H  530   9.309   0.738   3.011  0.5235 -1.6183  0.6412
  745MOL0     H  531   9.219   0.917   2.774 -0.6270  1.2293  2.6184
  745MOL0     H  532   9.318   0.763   2.774  1.8004 -0.6753  1.3711
  745MOL0     H  533   9.401   1.032   2.885 -2.9122 -0.5970  0.9165
  745MOL0     H  534   9.453   0.959   2.728  0.7125  0.3118 -0.6408
  745MOL0     H  535   9.467   1.055   3.067 -0.2265 -1.7882 -2.1235
  745MOL0     H  536   9.521   1.066   3.301 -1.0263 -0.6709  0.2257
  745MOL0     H  537   9.606   0.917   3.735 -0.2910 -1.2094 -1.3112
  745MOL0     H  538   9.705   0.940   3.944  0.1321  0.4182 -1.4206
  745MOL0     H  539   9.878   0.974   4.104  0.7399  1.5598  4.4083
  745MOL0     H  540   9.764   0.860   4.168 -1.2795 -0.2155 -2.0625
  745MOL0     H  541   9.904   0.931   4.356 -0.1215  2.4034 -2.2393
  745MOL0     H  542   9.946   0.761   4.331  1.0840 -0.0304  0.9891
  745MOL0     H  543  10.141   0.855   4.172 -0.3724  0.1998 -0.6705
  745MOL0     H  544  10.091   1.015   4.232  1.3222  0.1160 -2.4379
  745MOL0     H  545  10.147   0.773   4.424 -3.3192  0.9679  2.7388
  745MOL0     H  546  10.115   0.930   4.464 -1.1913 -0.3902 -0.2526
  745MOL0     H  547  10.349   0.991   4.348  2.3463 -0.5484 -0.0578
  745MOL0     H  548  10.356   0.811   4.302 -0.3187  0.5660 -0.8900
  745MOL0     H  549  10.327   0.892   4.584  0.4134  1.9473 -2.0662
  745MOL0     H  550  10.390   0.736   4.519  4.4457 -0.8497 -0.4463
  745MOL0     H  551  10.508   1.015   4.535 -1.0059 -0.2082  0.5575
  745MOL0     H  552  10.582   0.892   4.425  0.1096 -1.8196  1.0449
  745MOL0     H  553  10.553   0.867   4.718  2.3031  0.7245  1.1490
  745MOL0     H  554  10.637   0.743   4.614 -0.5803 -0.2053  3.6437
  745MOL0     H  555   9.993   0.627   3.842  0.2872  0.5695  0.8455
  745MOL0     H  556   9.905   0.645   3.612  1.5642  1.2671 -0.3131
  745MOL0     H  557   9.706   0.678   3.280  0.7049  1.2391  0.7778
  745MOL0     H  558   9.639   0.647   3.061  0.2021 -0.2835  0.8640
  745MOL0     H  559   7.700   1.285   3.121 -3.5955 -2.5626  1.1677
  745MOL0     H  560   7.479   1.234   3.052 -0.1083  2.6820 -0.5303
  745MOL0     H  561   7.163   1.224   2.930 -1.8842  0.9584  0.0506
  745MOL0     H  562   6.913   1.177   2.939  0.7488 -0.9702  0.1173
  745MOL0     H  563   6.757   0.864   2.741 -0.3757 -0.7254 -1.8880
  745MOL0     H  564   6.683   0.968   2.622  0.9197 -0.1430 -0.9099
  745MOL0     H  565   6.522   0.842   2.785  1.6977 -0.9256  0.5349
  745MOL0     H  566   6.498   1.009   2.767 -0.1028 -0.6429 -3.2511
  745MOL0     H  567   6.487   0.955   3.021 -1.4162  2.6333 -1.7284
  745MOL0     H  568   6.600   1.064   2.991 -0.6711 -0.2539  2.0964
  745MOL0     H  569   6.782   0.881   3.011 -1.2023 -3.0045 -4.7069
  745MOL0     H  570   6.674   0.898   3.147 -1.0065  1.7337  0.3536
  745MOL0     H  571   6.581   0.506   3.030 -0.9645  0.3347  0.9910
  745MOL0     H  572   6.929   0.956   2.582 -3.2438  3.6597 -0.3231
  745MOL0     H  573   7.120   0.903   2.455  2.1716 -1.6369  0.5358
  745MOL0     H  574   7.262   1.010   2.465 -0.2677  1.3808  0.1464
  745MOL0     H  575   7.251   0.871   2.558 -2.3192 -2.6006 -1.7439
  746MOL0     O  576   7.855  10.860  11.315  1.0354 -0.0582 -0.2384
  746MOL0     C  577   7.822  10.947  11.389 -0.1946 -0.4500 -0.0471
  746MOL0     O  578   7.905  11.051  11.425 -0.4753 -0.0805  0.4132
  746MOL0     C  579   8.042  11.033  11.412 -0.0201  0.1303  0.6191
  746MOL0     C  580   8.116  11.095  11.312 -0.7742 -0.2609  0.1322
  746MOL0     C  581   8.253  11.085  11.308 -0.4185 -0.0457 -0.1764
  746MOL0     C  582   8.322  11.007  11.409 -0.1637 -0.5042  0.1877
  746MOL0     O  583   8.456  10.987  11.420 -0.5539 -0.3295 -0.7834
  746MOL0     C  584   8.540  11.098  11.398  0.0457  0.3490 -0.2725
  746MOL0     C  585   8.684  11.067  11.438  0.1059 -0.1833 -0.3383
  746MOL0     C  586   8.693  11.040  11.591 -0.0382 -0.5982 -1.0859
  746MOL0     C  587   8.838  11.009  11.634  0.1751 -0.1495  0.6426
  746MOL0     C  588   8.850  10.989  11.788 -0.9876 -0.4215 -0.4845
  746MOL0     C  589   8.993  10.968  11.836  0.3516 -0.4511  0.5120
  746MOL0     C  590   9.056  10.840  11.777 -0.1732 -0.2608  0.3600
  746MOL0     C  591   9.179  10.854  11.684 -0.5779 -0.2055 -0.3966
  746MOL0     N  592   9.305  10.851  11.763  0.2161 -0.5079  0.0783
  746MOL0     C  593   9.388  10.746  11.795  1.0898 -0.3424  0.3936
  746MOL0     C  594   9.472  10.781  11.890  0.3806  0.6757 -0.0150
  746MOL0     C  595   9.581  10.693  11.946 -0.2709  0.1764  0.2578
  746MOL0     C  596   9.712  10.764  11.977  0.3137  0.8484 -0.5020
  746MOL0     C  597   9.834  10.688  12.036  0.2106  1.1449 -0.1415
  746MOL0     C  598   9.880  10.562  11.959 -0.1058 -0.4424 -0.3480
  746MOL0     O  599   9.939  10.586  11.830 -0.3272 -0.2966  0.2465
  746MOL0     C  600  10.064  10.645  11.814 -0.0441 -0.2743  0.4945
  746MOL0     C  601  10.099  10.688  11.692  0.4069 -0.5090 -0.1150
  746MOL0     C  602  10.217  10.755  11.659 -0.2973  0.6679 -0.0560
  746MOL0     C  603  10.313  10.785  11.764 -0.0305 -0.1655 -0.9030
  746MOL0     C  604  10.436  10.868  11.735  0.2469  0.2201 -0.1855
  746MOL0     O  605  10.524  10.899  11.838  0.3415 -0.5743  0.4300
  746MOL0     C  606  10.634  10.967  11.810 -1.6231  0.3294 -0.3064
  746MOL0     C  607  10.724  10.934  11.714  0.5002  0.7169  0.0634
  746MOL0     C  608  10.848  11.005  11.690  0.2818  0.4097 -0.3211
  746MOL0     C  609  10.890  11.100  11.790  0.0664 -0.6694  0.1903
  746MOL0     O  610  11.001  11.180  11.784 -0.3195  0.4576 -0.0877
  746MOL0     C  611  11.037  11.226  11.655 -0.3441 -0.4811 -0.3257
  746MOL0     C  612  11.171  11.302  11.650  0.2005  0.9553  0.5611
  746MOL0     C  613  11.213  11.325  11.499 -0.1875  0.4193  0.4840
  746MOL0     C  614  11.321  11.440  11.495  0.3546  0.1831  0.2222
  746MOL0     C  615  11.269  11.580  11.557 -0.2995 -0.5491 -0.1546
  746MOL0     C  616  11.330  11.700  11.488  0.1317 -0.0601  0.6829
  746MOL0     C  617  11.470  11.734  11.540 -0.1456  0.7652 -0.6001
  746MOL0     C  618  11.521  11.858  11.463 -0.5105 -1.1296  0.0250
  746MOL0    Cl  619  11.692  11.884  11.481  0.4016  0.0302  0.6525
  746MOL0     C  620  10.814  11.111  11.901  0.5798 -0.1585 -0.3489
  746MOL0     C  621  10.674  11.062  11.898 -0.1712  0.1765 -0.2678
  746MOL0     O  622  10.443  10.916  11.626 -0.2447 -0.1548 -0.0830
  746MOL0     C  623  10.287  10.722  11.892 -0.7012 -0.0984  0.1451
  746MOL0     C  624  10.168  10.654  11.912 -0.0577 -0.6415  0.0520
  746MOL0     N  625   9.432  10.906  11.929  0.4158 -0.1827  0.4491
  746MOL0     N  626   9.337  10.945  11.852  0.7843  0.3434 -0.2708
  746MOL0     C  627   8.244  10.939  11.500  0.8473  0.1617  0.3722
  746MOL0     C  628   8.105  10.947  11.507 -1.2433  0.3155  0.8208
  746MOL0     C  629   7.692  10.935  11.463  0.6385 -0.1078 -0.0499
  746MOL0     C  630   7.688  10.973  11.597  0.4121 -0.4840  0.6026
  746MOL0     C  631   7.565  10.984  11.669 -0.2585 -0.0740 -0.2190
  746MOL0     C  632   7.441  10.944  11.622 -0.6009 -0.6964  0.5508
  746MOL0     O  633   7.337  10.949  11.712  0.0829  0.4888  0.0676
  746MOL0     C  634   7.222  10.889  11.661  0.1413 -0.5558  0.2262
  746MOL0     C  635   7.116  10.896  11.757  0.1030  0.8330 -0.1462
  746MOL0     C  636   7.074  11.036  11.797  0.5331  0.3145  0.7337
  746MOL0     C  637   7.027  11.119  11.668 -0.0069  0.1199 -0.7770
  746MOL0     C  638   6.914  11.210  11.706 -0.3860 -0.2081  0.3842
  746MOL0     C  639   6.825  11.283  11.728  0.9989 -0.4743 -0.3503
  746MOL0     C  640   7.449  10.898  11.493  0.2133  0.6111  0.9588
  746MOL0     C  641   7.565  10.905  11.407 -0.0705  0.7893 -0.5326
  746MOL0     C  642   7.545  10.873  11.266  0.6159 -0.3442  0.1037
  746MOL0     H  643   8.068  11.156  11.236  2.0549 -0.1048 -1.6939
  746MOL0     H  644   8.303  11.150  11.237  0.0880  0.4202  0.5831
  746MOL0     H  645   8.539  11.113  11.289  0.1342  2.3598 -0.0294
  746MOL0     H  646   8.499  11.186  11.448 -0.7639 -1.0947  1.7154
  746MOL0     H  647   8.755  11.142  11.402  0.7946 -0.7320 -0.1534
  746MOL0     H  648   8.719  10.973  11.394 -2.2308 -0.5679 -1.5218
  746MOL0     H  649   8.630  10.953  11.611  1.1053 -1.0950  0.6118
  746MOL0     H  650   8.643  11.119  11.648  0.2405  0.6098 -2.4536
  746MOL0     H  651   8.879  10.926  11.575  1.8910  1.7166 -0.9394
  746MOL0     H  652   8.905  11.093  11.617  0.0350  0.1231  1.4064
  746MOL0     H  653   8.808  11.078  11.837  0.6276  0.5193 -0.7274
  746MOL0     H  654   8.791  10.899  11.806 -1.5889 -0.9007 -4.0221
  746MOL0     H  655   9.066  11.044  11.805 -1.4833  0.6735 -1.3033
  746MOL0     H  656   8.982  10.960  11.944 -0.9997  0.0115  0.4245
  746MOL0     H  657   8.995  10.778  11.710  1.0779  0.2865 -1.3854
  746MOL0     H  658   9.082  10.769  11.855  2.9742  1.3648  0.9397
  746MOL0     H  659   9.168  10.773  11.611  0.2608  0.2532 -1.0444
  746MOL0     H  660   9.162  10.949  11.634 -4.3219  2.6384  5.1479
  746MOL0     H  661   9.374  10.652  11.742  0.3448 -0.1258  0.2022
  746MOL0     H  662   9.557  10.634  12.035 -0.7759 -0.0019  0.0103
  746MOL0     H  663   9.609  10.609  11.882  0.3680 -0.8570  1.8114
  746MOL0     H  664   9.751  10.798  11.881  2.1126 -4.6015 -2.0497
  746MOL0     H  665   9.694  10.847  12.046  2.2256  0.3432  0.6593
  746MOL0     H  666   9.810  10.655  12.138 -2.1780  1.3462 -0.5937
  746MOL0     H  667   9.917  10.757  12.058  3.1414 -3.0192  3.7361
  746MOL0     H  668   9.789  10.501  11.952  0.5253 -1.4417 -0.0048
  746MOL0     H  669   9.952  10.509  12.022  0.9541  2.2976  0.9022
  746MOL0     H  670  10.032  10.689  11.607  0.6413  4.9048 -0.6441
  746MOL0     H  671  10.248  10.767  11.555  1.7656  3.5246  0.7726
  746MOL0     H  672  10.701  10.853  11.645 -0.3046  1.1956 -0.2416
  746MOL0     H  673  10.916  10.980  11.610 -0.9802  2.4486 -2.1474
  746MOL0     H  674  11.043  11.144  11.584  0.2694  1.0463 -2.1189
  746MOL0     H  675  10.962  11.295  11.616  0.6812  1.7778  1.4488
  746MOL0     H  676  11.158  11.400  11.696  2.1139  2.5260 -1.9561
  746MOL0     H  677  11.250  11.250  11.704 -1.2482  1.6850  3.5543
  746MOL0     H  678  11.258  11.231  11.465 -0.4194  0.2892  0.5317
  746MOL0     H  679  11.124  11.336  11.437  0.4038 -0.6450 -0.6194
  746MOL0     H  680  11.343  11.456  11.389 -2.1392 -0.4360 -0.4401
  746MOL0     H  681  11.409  11.403  11.549 -1.1072 -0.4121  2.3213
  746MOL0     H  682  11.285  11.593  11.664  0.7102  1.3472 -0.4959
  746MOL0     H  683  11.162  11.569  11.538 -0.6078 -0.5411  1.4790
  746MOL0     H  684  11.328  11.676  11.382 -1.1630 -2.1104  1.1263
  746MOL0     H  685  11.266  11.785  11.513 -0.8934 -1.0716  1.6094
  746MOL0     H  686  11.523  11.640  11.523 -2.6248 -1.2082  1.8125
  746MOL0     H  687  11.482  11.754  11.647  0.3235  1.3413 -0.7512
  746MOL0     H  688  11.510  11.841  11.355  1.3986  1.8557 -0.7655
  746MOL0     H  689  11.462  11.946  11.491 -1.9189 -1.3651 -1.9708
  746MOL0     H  690  10.850  11.167  11.986  1.4128 -0.1642 -0.6885
  746MOL0     H  691  10.610  11.084  11.983 -0.2483  3.3656 -1.0185
  746MOL0     H  692  10.362  10.748  11.966  1.9530 -0.1988 -2.3510
  746MOL0     H  693  10.160  10.622  12.015 -0.2881 -0.7544 -0.0011
  746MOL0     H  694   8.292  10.883  11.580  1.4120  1.6664  1.1281
  746MOL0     H  695   8.055  10.912  11.597  0.5900  3.3549  3.2447
  746MOL0     H  696   7.774  11.009  11.654 -1.3876  1.3809  2.3262
  746MOL0     H  697   7.565  11.037  11.763 -2.3695 -0.8027  0.2300
  746MOL0     H  698   7.233  10.781  11.656  0.0545 -0.5770  0.4985
  746MOL0     H  699   7.192  10.938  11.567 -1.0247 -3.2192 -0.8901
  746MOL0     H  700   7.156  10.843  11.844  0.5081  0.3499 -0.6226
  746MOL0     H  701   7.039  10.828  11.720  0.7284  0.6911 -1.1972
  746MOL0     H  702   7.169  11.076  11.833  1.5068 -0.0990 -1.2164
  746MOL0     H  703   7.013  11.037  11.888  1.1626 -0.9926  1.1809
  746MOL0     H  704   7.109  11.172  11.618  0.4838  0.0770 -0.0408
  746MOL0     H  705   6.972  11.059  11.595 -2.5802  2.3583 -0.8226
  746MOL0     H  706   6.753  11.362  11.739  0.0619 -1.3218 -0.2896
  746MOL0     H  707   7.353  10.869  11.451 -0.3011  1.8873  1.2089
  746MOL0     H  708   7.449  10.830  11.236  0.4595 -0.9246  1.3703
  746MOL0     H  709   7.552  10.969  11.214 -1.5972 -1.1356 -1.8301
  746MOL0     H  710   7.621  10.799  11.241 -1.2387 -2.2756 -0.1434
  747MOL0     O  711   2.137   6.102   5.316  0.2644 -0.6657 -0.1952
  747MOL0     C  712   2.164   6.161   5.206 -0.7856 -0.2255 -0.3051
  747MOL0     O  713   2.292   6.184   5.154  0.2673 -0.2657  0.3276
  747MOL0     C  714   2.407   6.161   5.220  0.5309  0.8144  0.3677
  747MOL0     C  715   2.514   6.138   5.139 -0.4714 -0.3147  0.9804
  747MOL0     C  716   2.637   6.105   5.199  0.2165  0.6700 -0.0029
  747MOL0     C  717   2.655   6.096   5.336 -0.2759 -0.3759 -0.3178
  747MOL0     O  718   2.772   6.071   5.389 -0.4945  0.4335 -0.0202
  747MOL0     C  719   2.790   5.929   5.409  1.0621 -0.1103 -0.3439
  747MOL0     C  720   2.903   5.918   5.515 -0.2351 -0.3298 -0.1813
  747MOL0     C  721   3.034   5.963   5.456  0.6373 -0.0431 -0.1642
  747MOL0     C  722   3.156   5.865   5.484  0.7818 -0.0802 -0.2214
  747MOL0     C  723   3.290   5.944   5.488 -0.3330  0.2701 -0.3380
  747MOL0     C  724   3.399   5.878   5.572 -0.6187  0.0183 -1.0005
  747MOL0     C  725   3.462   5.760   5.507 -0.5468  0.8820  0.2353
  747MOL0     C  726   3.565   5.787   5.396  0.0187  0.1531  0.5045
  747MOL0     N  727   3.697   5.794   5.463  0.3838 -0.1868 -0.8577
  747MOL0     C  728   3.752   5.686   5.529 -0.0640 -0.9470 -0.9896
  747MOL0     C  729   3.862   5.736   5.583  0.0920  0.3020  0.2406
  747MOL0     C  730   3.969   5.680   5.673 -0.9447  0.4610 -0.3726
  747MOL0     C  731   4.084   5.650   5.574 -0.3928  0.7153  0.0247
  747MOL0     C  732   4.200   5.576   5.641 -0.0373 -0.1285  0.0956
  747MOL0     C  733   4.328   5.571   5.551  0.2942 -0.5461  0.1259
  747MOL0     O  734   4.400   5.698   5.567  0.5395  0.0013 -0.0574
  747MOL0     C  735   4.523   5.691   5.620  0.2478 -0.2642  0.5107
  747MOL0     C  736   4.613   5.603   5.555  0.2135 -0.4642 -0.1530
  747MOL0     C  737   4.750   5.596   5.603 -0.0066  0.2688  0.8843
  747MOL0     C  738   4.791   5.675   5.711  0.2695 -0.5908  0.5650
  747MOL0     C  739   4.931   5.688   5.751 -0.9512  0.2726 -1.0810
  747MOL0     O  740   5.016   5.591   5.698 -0.2848  0.1099  0.5548
  747MOL0     C  741   5.149   5.598   5.739 -0.6415 -0.0679  0.0121
  747MOL0     C  742   5.197   5.530   5.854 -0.4232 -0.6306 -0.4193
  747MOL0     C  743   5.330   5.530   5.898 -0.7685  0.3390  0.4017
  747MOL0     C  744   5.426   5.604   5.829  0.3125 -0.1294  0.3248
  747MOL0     O  745   5.557   5.619   5.883 -0.2759 -0.1445 -0.2728
  747MOL0     C  746   5.631   5.726   5.826 -1.3509 -0.1572 -0.4283
  747MOL0     C  747   5.751   5.752   5.916 -0.1950 -0.4766  0.6547
  747MOL0     C  748   5.846   5.857   5.856  0.1559 -0.2166 -0.2197
  747MOL0     C  749   5.924   5.946   5.957  0.2053  0.7326 -0.3375
  747MOL0     C  750   6.017   5.862   6.042 -0.1447  0.8100 -0.2576
  747MOL0     C  751   6.129   5.943   6.101  0.4450 -0.9741 -0.8259
  747MOL0     C  752   6.090   6.050   6.207  0.0573 -0.4850 -0.5653
  747MOL0     C  753   6.212   6.084   6.291 -0.7604 -0.0077 -0.1463
  747MOL0    Cl  754   6.362   6.122   6.195 -0.2151  0.4373  0.1602
  747MOL0     C  755   5.378   5.673   5.711 -0.7024 -0.1839 -0.3344
  747MOL0     C  756   5.248   5.661   5.664  0.0396 -0.2814  0.4755
  747MOL0     O  757   4.973   5.763   5.838  0.3375 -0.8156 -0.2935
  747MOL0     C  758   4.696   5.764   5.768  0.3090 -0.4182  0.1700
  747MOL0     C  759   4.563   5.763   5.728 -0.1537  0.0037 -0.4924
  747MOL0     N  760   3.878   5.868   5.537 -0.3386  0.2421  0.4571
  747MOL0     N  761   3.776   5.908   5.474  0.7277  0.4953 -0.1675
  747MOL0     C  762   2.551   6.143   5.416  0.5546  0.2761 -0.0153
  747MOL0     C  763   2.427   6.163   5.358  0.5375  0.1676 -0.3026
  747MOL0     C  764   2.063   6.210   5.111 -0.3481  1.0166 -0.5688
  747MOL0     C  765   2.110   6.267   4.989  0.2662 -0.2064  0.6071
  747MOL0     C  766   2.023   6.321   4.892  0.6583  0.2504  0.5099
  747MOL0     C  767   1.883   6.308   4.905 -0.3672  0.6947 -0.2301
  747MOL0     O  768   1.805   6.356   4.803 -0.1651 -0.5693  0.3483
  747MOL0     C  769   1.675   6.288   4.789  0.5050 -0.5487  0.2802
  747MOL0     C  770   1.641   6.300   4.643 -0.1442 -0.5885 -0.3863
  747MOL0     C  771   1.492   6.292   4.614 -0.0816 -0.3841  0.4223
  747MOL0     C  772   1.444   6.322   4.471  0.0706  0.4577 -0.5143
  747MOL0     C  773   1.300   6.291   4.471 -0.6352 -0.5453  0.1589
  747MOL0     C  774   1.185   6.270   4.452  0.4523  0.0427  0.0960
  747MOL0     C  775   1.839   6.259   5.028  0.3006  1.1810 -0.3822
  747MOL0     C  776   1.926   6.207   5.126  0.3116 -0.5071 -0.3915
  747MOL0     C  777   1.869   6.156   5.260  0.2556  0.6097  0.2256
  747MOL0     H  778   2.507   6.149   5.031  2.1559 -0.5193  0.7028
  747MOL0     H  779   2.730   6.087   5.145 -0.1355 -0.6058 -0.1943
  747MOL0     H  780   2.701   5.884   5.454  0.8010  1.4265  0.7372
  747MOL0     H  781   2.803   5.882   5.311  1.6165  0.7791 -0.7104
  747MOL0     H  782   2.918   5.814   5.544  1.7316  0.7412  3.3829
  747MOL0     H  783   2.882   5.975   5.606  1.4425  0.7778 -0.4374
  747MOL0     H  784   3.058   6.057   5.507  1.3796 -0.1949 -0.2092
  747MOL0     H  785   3.027   5.994   5.351  0.8444 -1.6213 -0.6569
  747MOL0     H  786   3.142   5.826   5.586  1.9387 -0.6574 -0.2668
  747MOL0     H  787   3.165   5.781   5.415 -1.3394 -1.4265  1.0044
  747MOL0     H  788   3.319   5.961   5.384  0.3596  0.3563 -0.1332
  747MOL0     H  789   3.266   6.031   5.549 -3.1621 -0.7425  0.1563
  747MOL0     H  790   3.469   5.961   5.576  0.3596 -0.7428 -1.7023
  747MOL0     H  791   3.351   5.850   5.666 -0.2032 -0.1727 -0.8402
  747MOL0     H  792   3.387   5.694   5.462  0.1725  0.8257 -0.9235
  747MOL0     H  793   3.507   5.704   5.590  0.4403  3.8632  1.8571
  747MOL0     H  794   3.565   5.710   5.318  1.5767  0.0467  0.5784
  747MOL0     H  795   3.550   5.870   5.327 -1.1353 -1.1359 -0.8818
  747MOL0     H  796   3.729   5.581   5.538  2.6581 -1.4509  2.7773
  747MOL0     H  797   3.988   5.761   5.745  2.4964  1.2706 -2.0179
  747MOL0     H  798   3.945   5.586   5.725  1.9198 -0.8286 -1.1850
  747MOL0     H  799   4.047   5.598   5.486  0.4697  2.5364 -1.4925
  747MOL0     H  800   4.125   5.745   5.538  1.2573  0.1359  0.3310
  747MOL0     H  801   4.158   5.476   5.650 -0.8849  0.4377  3.7600
  747MOL0     H  802   4.223   5.618   5.739  0.6431  1.4965 -0.7113
  747MOL0     H  803   4.305   5.558   5.444 -2.1868 -0.3593  0.5622
  747MOL0     H  804   4.388   5.487   5.585 -2.1025 -0.8013  4.4663
  747MOL0     H  805   4.583   5.534   5.477  0.1957 -1.2160  0.5003
  747MOL0     H  806   4.814   5.527   5.548  1.2941  3.0524 -1.3518
  747MOL0     H  807   5.122   5.504   5.928 -0.0096  1.2156  0.7195
  747MOL0     H  808   5.352   5.477   5.990 -1.7511  0.3305  0.6493
  747MOL0     H  809   5.658   5.695   5.724  1.6235  0.3251  0.1150
  747MOL0     H  810   5.567   5.815   5.821 -0.9031  0.2995  1.3384
  747MOL0     H  811   5.723   5.775   6.019  1.5851 -2.2076  1.5998
  747MOL0     H  812   5.820   5.667   5.923 -0.4650 -0.6337  1.4577
  747MOL0     H  813   5.921   5.804   5.796 -0.0919 -0.2253 -0.5248
  747MOL0     H  814   5.789   5.930   5.797  1.1809  0.1654 -0.7594
  747MOL0     H  815   5.863   6.014   6.018 -0.1299 -0.0233  0.1747
  747MOL0     H  816   5.992   6.005   5.894 -0.0316 -1.0474 -2.4052
  747MOL0     H  817   6.056   5.786   5.973 -2.9252  0.1972 -1.2897
  747MOL0     H  818   5.963   5.812   6.122  0.4478  0.5102 -0.0383
  747MOL0     H  819   6.195   5.875   6.157 -2.0092 -0.8625  2.5247
  747MOL0     H  820   6.190   5.985   6.021  1.3469  1.0825  0.8241
  747MOL0     H  821   6.001   6.031   6.268  0.7795  0.6157  0.8935
  747MOL0     H  822   6.062   6.138   6.149 -0.0698 -2.3289 -3.5336
  747MOL0     H  823   6.182   6.175   6.344 -0.0001  1.9990 -2.9651
  747MOL0     H  824   6.228   6.007   6.367 -0.8544  1.4024  1.3832
  747MOL0     H  825   5.450   5.735   5.659 -0.3483  1.0023  1.4436
  747MOL0     H  826   5.221   5.725   5.580  0.6909 -0.9174 -0.2298
  747MOL0     H  827   4.726   5.826   5.852 -0.5347 -0.9063  0.8497
  747MOL0     H  828   4.489   5.832   5.767 -0.0904  0.9478 -1.9193
  747MOL0     H  829   2.557   6.156   5.524  0.3835 -4.1211  0.7173
  747MOL0     H  830   2.340   6.190   5.418  1.3824  1.3629  0.4199
  747MOL0     H  831   2.214   6.277   4.958 -0.1171 -1.2648 -1.1383
  747MOL0     H  832   2.061   6.374   4.805  1.6432 -0.1453  0.6786
  747MOL0     H  833   1.602   6.332   4.857 -0.3151 -2.0393  0.3938
  747MOL0     H  834   1.694   6.182   4.810 -2.3198 -0.8795  1.6407
  747MOL0     H  835   1.707   6.229   4.593  5.3614  1.0692  3.6253
  747MOL0     H  836   1.680   6.391   4.596 -0.0458  0.2939  1.3392
  747MOL0     H  837   1.442   6.357   4.687  1.1625 -0.1943  1.1478
  747MOL0     H  838   1.469   6.187   4.635  0.6002 -1.7357 -4.4266
  747MOL0     H  839   1.473   6.421   4.435 -1.1326  1.7709  1.8860
  747MOL0     H  840   1.476   6.250   4.395 -2.7120 -2.0900  0.5331
  747MOL0     H  841   1.087   6.246   4.414  1.3183 -0.6866 -1.8096
  747MOL0     H  842   1.734   6.264   5.056  0.2262 -0.9075 -0.1424
  747MOL0     H  843   1.901   6.052   5.256  0.8120  0.8092 -0.7063
  747MOL0     H  844   1.906   6.209   5.349  0.5957  0.9003 -0.0839
  747MOL0     H  845   1.760   6.164   5.256  0.2644  0.6576  0.0803
  748MOL0     O  846  10.504   1.526   6.968 -0.5870  0.6236 -0.2175
  748MOL0     C  847  10.480   1.613   6.884  1.6787 -0.1032  0.2646
  748MOL0     O  848  10.561   1.633   6.776 -0.0173 -1.8653 -0.4939
  748MOL0     C  849  10.669   1.556   6.761  0.3082  0.0397 -0.0288
  748MOL0     C  850  10.785   1.587   6.829 -0.6901 -0.4198 -0.7201
  748MOL0     C  851  10.903   1.509   6.810 -0.1129 -0.1922  0.5270
  748MOL0     C  852  10.900   1.393   6.729  0.0598 -0.2472  0.0896
  748MOL0     O  853  11.021   1.323   6.711  0.9872  0.4579 -0.0207
  748MOL0     C  854  11.029   1.223   6.612 -0.5048  0.5209  0.3166
  748MOL0     C  855  11.130   1.123   6.655  0.3935  1.0716  0.2803
  748MOL0     C  856  11.272   1.180   6.649  0.4406  0.3999  0.0248
  748MOL0     C  857  11.373   1.062   6.671 -0.4100  0.4606 -0.5425
  748MOL0     C  858  11.516   1.114   6.636  0.2836  0.3627  0.5690
  748MOL0     C  859  11.616   1.007   6.673  0.5338  0.0864 -0.0437
  748MOL0     C  860  11.754   1.048   6.629 -0.7109  0.5523 -0.0470
  748MOL0     C  861  11.867   0.956   6.687 -1.1718  0.2420 -0.4218
  748MOL0     N  862  12.000   0.972   6.614  0.2096  0.7149 -0.0096
  748MOL0     C  863  12.045   1.097   6.586  0.2233  0.8650  0.3582
  748MOL0     C  864  12.180   1.083   6.584  0.2269  0.0165 -0.3005
  748MOL0     C  865  12.279   1.186   6.548 -0.3367  0.2227  0.1346
  748MOL0     C  866  12.379   1.204   6.657 -1.0197  0.3826  0.4018
  748MOL0     C  867  12.483   1.086   6.654  0.1310 -0.7326 -0.3577
  748MOL0     C  868  12.607   1.128   6.734  0.0809  0.5598 -0.1587
  748MOL0     O  869  12.675   1.224   6.657  0.8351 -0.3645  0.2428
  748MOL0     C  870  12.811   1.230   6.670 -0.0827  0.0979  0.2668
  748MOL0     C  871  12.881   1.155   6.776  0.0490 -0.0340  0.1350
  748MOL0     C  872  13.022   1.154   6.778 -0.0182  0.1793  0.0186
  748MOL0     C  873  13.090   1.221   6.670  0.0115 -1.0246  0.6493
  748MOL0     C  874  13.243   1.210   6.658  0.1249 -0.0014 -0.8336
  748MOL0     O  875  13.296   1.157   6.771 -0.1072 -0.1609 -0.1560
  748MOL0     C  876  13.434   1.160   6.765  0.6128  0.1098  0.2949
  748MOL0     C  877  13.496   1.031   6.768 -0.6422  0.3503  0.5035
  748MOL0     C  878  13.634   1.027   6.782 -0.6762 -0.1831 -0.0902
  748MOL0     C  879  13.710   1.143   6.790  0.1524 -0.0826  0.0425
  748MOL0     O  880  13.848   1.160   6.785 -0.0877  1.0156  0.0061
  748MOL0     C  881  13.926   1.049   6.821 -0.3908 -0.2813  0.0204
  748MOL0     C  882  14.071   1.104   6.845 -0.2526  0.9280  0.8491
  748MOL0     C  883  14.170   0.976   6.867  0.2419  1.0599  0.1648
  748MOL0     C  884  14.314   1.004   6.922  0.4437  0.7207 -0.3897
  748MOL0     C  885  14.369   0.880   6.998 -0.5229 -0.1787  0.8622
  748MOL0     C  886  14.502   0.918   7.060  0.0990 -0.0439 -0.0394
  748MOL0     C  887  14.537   0.815   7.177 -0.1565  0.1201 -0.1990
  748MOL0     C  888  14.669   0.869   7.236  0.5790  0.0027 -0.2963
  748MOL0    Cl  889  14.707   0.763   7.382  0.1249  0.1260 -0.1010
  748MOL0     C  890  13.645   1.268   6.794  0.5268 -0.1118 -0.4242
  748MOL0     C  891  13.506   1.274   6.789  0.4049 -0.4432 -0.5459
  748MOL0     O  892  13.298   1.240   6.548 -0.0533  0.2671 -0.3345
  748MOL0     C  893  13.018   1.308   6.581 -0.6219 -0.7951  0.4210
  748MOL0     C  894  12.882   1.306   6.586  0.0156 -0.0648 -0.5494
  748MOL0     N  895  12.212   0.955   6.598  0.8026  0.4888 -0.1573
  748MOL0     N  896  12.106   0.886   6.626 -0.3325  1.3233 -0.3159
  748MOL0     C  897  10.775   1.360   6.672 -0.3632 -0.2492  0.7748
  748MOL0     C  898  10.666   1.446   6.681  0.4596  0.7749  0.7788
  748MOL0     C  899  10.353   1.696   6.894 -0.3528 -0.0689  0.0011
  748MOL0     C  900  10.285   1.752   6.782  0.3060  0.0844 -0.8641
  748MOL0     C  901  10.164   1.833   6.793 -0.4702  0.2019  0.0486
  748MOL0     C  902  10.119   1.882   6.914  0.6707 -0.6197 -0.4553
  748MOL0     O  903  10.018   1.975   6.920 -0.5717 -0.2884  1.3057
  748MOL0     C  904   9.951   2.022   7.042  0.2124 -0.3250  0.2378
  748MOL0     C  905   9.868   1.914   7.115  0.5026  0.4733 -0.4579
  748MOL0     C  906   9.780   1.843   7.016  0.2817 -0.3776 -0.6947
  748MOL0     C  907   9.709   1.722   7.078  0.3416 -0.2750 -0.0832
  748MOL0     C  908   9.632   1.662   6.967  0.3223 -0.5261  0.3397
  748MOL0     C  909   9.573   1.618   6.873 -0.1813  0.5552 -0.0414
  748MOL0     C  910  10.186   1.827   7.024 -0.2922 -0.0870 -0.2978
  748MOL0     C  911  10.300   1.737   7.014  0.6697 -0.3413 -0.9062
  748MOL0     C  912  10.364   1.704   7.157 -0.3684  0.7626  0.4934
  748MOL0     H  913  10.777   1.668   6.900 -1.4685 -0.9224 -0.2208
  748MOL0     H  914  10.995   1.539   6.859  1.0189  0.5242 -1.8906
  748MOL0     H  915  10.932   1.172   6.607 -0.2399 -0.2715  2.3343
  748MOL0     H  916  11.051   1.255   6.509 -1.5759 -2.6244 -1.0238
  748MOL0     H  917  11.133   1.029   6.600  1.2724  0.8966  0.6029
  748MOL0     H  918  11.113   1.101   6.761 -1.0796 -0.6025 -0.2658
  748MOL0     H  919  11.280   1.248   6.734  0.0564 -1.0569  1.2908
  748MOL0     H  920  11.286   1.231   6.554 -2.9328 -1.4619 -1.6486
  748MOL0     H  921  11.367   1.036   6.777 -0.4982  1.6268 -0.2583
  748MOL0     H  922  11.341   0.978   6.607 -2.1671 -1.0241  2.1066
  748MOL0     H  923  11.516   1.142   6.530 -1.3154 -0.8925  0.1880
  748MOL0     H  924  11.543   1.203   6.692 -2.4968 -1.1170  4.7165
  748MOL0     H  925  11.623   0.996   6.781  0.9050  2.3194  0.2151
  748MOL0     H  926  11.598   0.917   6.614 -1.2694  0.6586 -0.4393
  748MOL0     H  927  11.769   1.153   6.657 -0.1704  0.7566 -1.0500
  748MOL0     H  928  11.765   1.032   6.522  1.3003 -1.0725  0.3274
  748MOL0     H  929  11.881   0.963   6.796  1.5748  0.4586 -0.7327
  748MOL0     H  930  11.834   0.853   6.667 -2.9897  0.7394 -0.1379
  748MOL0     H  931  11.990   1.190   6.572 -2.0335 -0.6265 -1.3915
  748MOL0     H  932  12.330   1.172   6.452 -1.4666  4.2740 -1.2675
  748MOL0     H  933  12.226   1.281   6.541 -1.2834 -0.3326 -0.5372
  748MOL0     H  934  12.433   1.296   6.633  1.9834 -1.9177 -2.5363
  748MOL0     H  935  12.324   1.214   6.751  0.8006 -2.4311  1.9075
  748MOL0     H  936  12.515   1.057   6.553 -0.5064  0.0276 -0.7827
  748MOL0     H  937  12.430   1.005   6.704 -2.1040  1.5832  1.2341
  748MOL0     H  938  12.663   1.034   6.742  1.1760  1.0517 -1.5691
  748MOL0     H  939  12.571   1.169   6.828  0.6869  0.0086  0.3238
  748MOL0     H  940  12.823   1.098   6.848 -0.4817 -0.1877 -0.4003
  748MOL0     H  941  13.082   1.092   6.843 -0.6261  2.2081  2.6688
  748MOL0     H  942  13.432   0.945   6.753 -0.3534  0.0548  0.9490
  748MOL0     H  943  13.686   0.932   6.772 -2.8556 -1.2471 -3.0574
  748MOL0     H  944  13.886   1.005   6.913  1.0387  2.2894  2.0116
  748MOL0     H  945  13.939   0.974   6.742  5.2472  0.0711  0.1915
  748MOL0     H  946  14.110   1.155   6.756 -3.1000  1.8714  0.0348
  748MOL0     H  947  14.090   1.171   6.929  2.8392  0.5098  0.5718
  748MOL0     H  948  14.122   0.900   6.930 -1.6960  0.8171 -1.5140
  748MOL0     H  949  14.183   0.925   6.771 -0.6797  1.4840 -0.1947
  748MOL0     H  950  14.322   1.096   6.981 -1.2424  2.1849 -2.3229
  748MOL0     H  951  14.372   1.023   6.832  0.3055  0.6410 -0.4961
  748MOL0     H  952  14.374   0.801   6.922 -2.2050  1.9082 -1.5829
  748MOL0     H  953  14.301   0.847   7.077 -0.7837 -0.2988  0.5876
  748MOL0     H  954  14.575   0.914   6.978  0.4407 -0.7711  0.2893
  748MOL0     H  955  14.502   1.022   7.092  0.3575  1.1082 -3.3300
  748MOL0     H  956  14.544   0.711   7.145  0.3123 -1.2120  3.6652
  748MOL0     H  957  14.464   0.807   7.258 -0.8194 -0.4588 -0.8368
  748MOL0     H  958  14.751   0.882   7.164  1.1537  0.6057  0.4597
  748MOL0     H  959  14.651   0.971   7.271  1.4512 -0.2773  1.0394
  748MOL0     H  960  13.704   1.360   6.797 -0.1600  0.4659 -2.7049
  748MOL0     H  961  13.455   1.369   6.795  0.2168 -0.4983 -1.1397
  748MOL0     H  962  13.061   1.364   6.498 -3.2242  0.7853  0.0399
  748MOL0     H  963  12.818   1.352   6.511  1.2661 -2.0124 -2.9814
  748MOL0     H  964  10.764   1.269   6.613  1.8642  0.4749 -0.9015
  748MOL0     H  965  10.572   1.423   6.632 -0.1619  1.3390  1.6836
  748MOL0     H  966  10.319   1.734   6.680 -0.7518  0.4432 -1.2832
  748MOL0     H  967  10.112   1.869   6.705  0.3874 -0.1278 -0.6089
  748MOL0     H  968   9.886   2.103   7.006  3.2301  2.1111 -0.1296
  748MOL0     H  969  10.027   2.063   7.109  0.0710 -2.2119  1.6275
  748MOL0     H  970   9.806   1.951   7.197 -1.2346 -1.8491 -0.6179
  748MOL0     H  971   9.935   1.842   7.162  1.7609  2.9437  1.8027
  748MOL0     H  972   9.839   1.789   6.942 -0.1468 -1.0653 -0.5504
  748MOL0     H  973   9.704   1.905   6.967 -1.3349 -0.3986  1.6157
  748MOL0     H  974   9.791   1.658   7.110  1.2677  0.2624 -1.2992
  748MOL0     H  975   9.631   1.751   7.149 -1.7668  0.9191 -2.6901
  748MOL0     H  976   9.509   1.580   6.797 -1.9778  0.5083  1.4095
  748MOL0     H  977  10.147   1.860   7.119  0.1740 -2.6498  0.8596
  748MOL0     H  978  10.472   1.716   7.146 -0.4464  3.5599  1.7499
  748MOL0     H  979  10.335   1.788   7.221  1.6275  1.8507  0.0545
  748MOL0     H  980  10.328   1.607   7.192  1.0984 -0.3447 -0.9361
  749MOL0     O  981   7.509   6.547   4.932  0.1238 -0.4082 -0.2076
  749MOL0     C  982   7.482   6.448   5.001 -0.4846 -0.6213  0.5655
  749MOL0     O  983   7.571   6.357   5.047  0.1906 -0.2939  0.3936
  749MOL0     C  984   7.704   6.376   5.018  0.6167  0.2967 -0.5695
  749MOL0     C  985   7.794   6.378   5.125  0.5548  0.3802 -0.8430
  749MOL0     C  986   7.936   6.389   5.106  0.6320  0.2001 -0.3289
  749MOL0     C  987   7.992   6.369   4.977 -0.6365 -0.1223 -0.1289
  749MOL0     O  988   8.126   6.369   4.967  0.4912  0.1037 -0.2979
  749MOL0     C  989   8.182   6.338   4.839  0.3871  0.7024  0.3295
  749MOL0     C  990   8.328   6.324   4.835 -0.9136 -1.0158  0.0732
  749MOL0     C  991   8.386   6.466   4.863 -0.5150  0.2486  0.3129
  749MOL0     C  992   8.536   6.473   4.858 -0.1963 -0.5390 -0.7380
  749MOL0     C  993   8.604   6.405   4.979 -0.0827  0.1554 -0.2180
  749MOL0     C  994   8.759   6.387   4.968 -0.4458  0.2516 -0.8427
  749MOL0     C  995   8.816   6.291   5.080 -0.4867  0.0682 -0.4494
  749MOL0     C  996   8.967   6.324   5.103  0.8814  0.2383  0.0597
  749MOL0     N  997   9.010   6.253   5.229 -0.1761 -0.2142  0.2448
  749MOL0     C  998   9.140   6.257   5.269 -0.5236  0.2656  0.5101
  749MOL0     C  999   9.149   6.207   5.396  0.0381 -0.3149 -0.6877
  749MOL0     C 1000   9.281   6.184   5.471  0.3009  0.0967  0.0554
  749MOL0     C 1001   9.317   6.294   5.570 -0.1814 -0.1377  0.8949
  749MOL0     C 1002   9.236   6.274   5.703  0.2647 -0.2129 -0.8629
  749MOL0     C 1003   9.280   6.377   5.810  0.0778  0.5051 -0.7770
  749MOL0     O 1004   9.419   6.352   5.854 -0.2328 -0.3975 -0.4871
  749MOL0     C 1005   9.452   6.414   5.971 -0.7729  0.3035  1.0175
  749MOL0     C 1006   9.549   6.510   5.965 -0.3236 -0.7609 -0.0352
  749MOL0     C 1007   9.599   6.592   6.072 -0.0467  0.0164 -0.9100
  749MOL0     C 1008   9.564   6.552   6.207 -0.4666 -0.0155  0.3213
  749MOL0     C 1009   9.609   6.614   6.327  0.5207  0.4419 -0.7098
  749MOL0     O 1010   9.566   6.571   6.454 -0.1434  0.4800  0.2679
  749MOL0     C 1011   9.607   6.638   6.564  0.3238 -0.0264 -0.7391
  749MOL0     C 1012   9.721   6.596   6.640 -0.3884 -0.1936 -0.5005
  749MOL0     C 1013   9.753   6.668   6.751  0.1108  0.6392  0.7706
  749MOL0     C 1014   9.678   6.774   6.804  0.3349 -0.9378  0.9568
  749MOL0     O 1015   9.713   6.843   6.919 -0.0614 -0.5168  0.3172
  749MOL0     C 1016   9.856   6.890   6.932  0.5188  0.7552  0.2934
  749MOL0     C 1017   9.868   7.002   7.033  0.4880  1.0422 -1.4473
  749MOL0     C 1018   9.993   6.997   7.119  0.4147  0.3139 -0.1648
  749MOL0     C 1019   9.974   6.889   7.226  0.4928  0.3928  0.4004
  749MOL0     C 1020   9.966   6.955   7.368  0.5556  0.6921 -0.0664
  749MOL0     C 1021   9.833   7.031   7.386 -0.4230 -0.2745  0.4978
  749MOL0     C 1022   9.827   7.141   7.494  0.3321  0.4161  0.3038
  749MOL0     C 1023   9.822   7.071   7.640  0.4069 -0.0492 -0.5582
  749MOL0    Cl 1024   9.658   7.021   7.675  0.1232  0.1744  0.2484
  749MOL0     C 1025   9.565   6.805   6.726  1.3556  0.2788  0.2021
  749MOL0     C 1026   9.527   6.740   6.614  0.1552 -0.2945  1.1847
  749MOL0     O 1027   9.679   6.712   6.312 -0.3047 -0.7925  0.0868
  749MOL0     C 1028   9.467   6.437   6.218 -0.2471 -0.3365  0.1895
  749MOL0     C 1029   9.408   6.382   6.097  0.1950  0.5874 -0.4715
  749MOL0     N 1030   9.025   6.168   5.442 -0.0906  0.1868 -0.0763
  749MOL0     N 1031   8.940   6.188   5.333 -0.4944 -0.8837 -0.4095
  749MOL0     C 1032   7.902   6.371   4.869  0.4745  0.2767  0.9745
  749MOL0     C 1033   7.758   6.369   4.891  1.2869  0.0431  0.0521
  749MOL0     C 1034   7.338   6.428   5.033 -0.3080 -0.0043 -0.3716
  749MOL0     C 1035   7.308   6.337   5.145  0.3956 -0.5690  0.5359
  749MOL0     C 1036   7.174   6.331   5.193 -0.2910  0.9604 -0.6431
  749MOL0     C 1037   7.067   6.402   5.142 -0.6373  0.0607 -0.4436
  749MOL0     O 1038   6.936   6.396   5.184 -0.3986 -0.2608 -0.5706
  749MOL0     C 1039   6.886   6.262   5.173 -0.6516  0.8186 -0.2895
  749MOL0     C 1040   6.835   6.226   5.036 -0.3750 -0.4151 -0.6498
  749MOL0     C 1041   6.726   6.327   4.993  0.6971 -0.0925  0.1011
  749MOL0     C 1042   6.600   6.304   5.079  0.1433 -0.3892 -0.2604
  749MOL0     C 1043   6.481   6.361   5.023 -0.0197 -0.0485 -0.0912
  749MOL0     C 1044   6.378   6.420   4.982  0.0569 -0.4202  0.2845
  749MOL0     C 1045   7.094   6.492   5.036 -0.6387 -0.8331  0.9545
  749MOL0     C 1046   7.223   6.503   4.982 -0.1202  0.5303 -1.1071
  749MOL0     C 1047   7.242   6.601   4.872 -0.0376  0.8579 -0.7126
  749MOL0     H 1048   7.757   6.368   5.227  1.0221  2.8645 -0.3623
  749MOL0     H 1049   7.999   6.390   5.195  0.9250 -6.1299 -0.0385
  749MOL0     H 1050   8.134   6.241   4.817 -0.7332  1.6039 -1.5076
  749MOL0     H 1051   8.159   6.414   4.764 -0.1290 -0.2623 -0.5355
  749MOL0     H 1052   8.348   6.298   4.730  1.7461 -2.3073  0.8233
  749MOL0     H 1053   8.364   6.253   4.909 -0.1910  1.0575  1.8182
  749MOL0     H 1054   8.356   6.513   4.958 -0.3049 -1.1058  1.0756
  749MOL0     H 1055   8.349   6.520   4.776  2.0069 -2.3149 -2.6081
  749MOL0     H 1056   8.575   6.423   4.769 -0.6063 -1.3710 -0.4508
  749MOL0     H 1057   8.562   6.580   4.853 -1.9453 -0.0607 -0.1829
  749MOL0     H 1058   8.580   6.467   5.066 -1.1773  0.9044 -1.0240
  749MOL0     H 1059   8.572   6.302   4.996  2.2112 -0.4201  1.1305
  749MOL0     H 1060   8.774   6.343   4.869 -0.1960  0.2788 -0.8187
  749MOL0     H 1061   8.815   6.480   4.977 -0.3239  0.0383  0.8880
  749MOL0     H 1062   8.814   6.188   5.041  0.9857 -1.4778  3.0950
  749MOL0     H 1063   8.764   6.309   5.174 -1.3313  0.7544 -1.0333
  749MOL0     H 1064   9.034   6.288   5.024  2.1883 -0.9879  1.6449
  749MOL0     H 1065   8.965   6.433   5.112 -3.5337  0.3088  0.2210
  749MOL0     H 1066   9.225   6.301   5.218  0.1355  0.6538  1.9022
  749MOL0     H 1067   9.274   6.082   5.511  0.8939 -1.3085 -3.1474
  749MOL0     H 1068   9.363   6.177   5.400  1.1989 -2.6143  1.2323
  749MOL0     H 1069   9.425   6.295   5.586  0.1656  2.1932 -1.0113
  749MOL0     H 1070   9.293   6.398   5.547 -0.6971 -0.0897  1.6220
  749MOL0     H 1071   9.262   6.174   5.739 -1.4174 -0.8371 -1.3027
  749MOL0     H 1072   9.132   6.291   5.673  0.4061  0.1219 -1.1823
  749MOL0     H 1073   9.210   6.358   5.892 -0.7624 -0.1232 -1.6132
  749MOL0     H 1074   9.264   6.481   5.777 -4.4514 -0.5617 -2.7520
  749MOL0     H 1075   9.580   6.534   5.864  0.8630  1.1104  0.7061
  749MOL0     H 1076   9.662   6.678   6.054 -2.1211  1.3452 -2.2467
  749MOL0     H 1077   9.781   6.515   6.599  1.4894  1.9216 -2.2080
  749MOL0     H 1078   9.843   6.628   6.796 -0.0139  0.0056  0.4720
  749MOL0     H 1079   9.921   6.806   6.960  0.4894  0.5333 -0.2935
  749MOL0     H 1080   9.881   6.911   6.827  1.5556  0.1495  0.4109
  749MOL0     H 1081   9.868   7.097   6.978 -0.5220  0.2852 -2.8054
  749MOL0     H 1082   9.777   7.019   7.092  1.6810 -0.2196  0.8902
  749MOL0     H 1083  10.083   6.971   7.062  0.4200 -2.9972  1.1376
  749MOL0     H 1084  10.003   7.094   7.166 -2.3555 -1.4383  4.7399
  749MOL0     H 1085  10.066   6.832   7.218  0.2784  0.1859 -0.7551
  749MOL0     H 1086   9.884   6.832   7.204 -0.1103  0.7951  1.6931
  749MOL0     H 1087  10.048   7.027   7.374  0.0335  1.2242  1.1154
  749MOL0     H 1088   9.973   6.889   7.455 -0.7712  1.8943  1.0116
  749MOL0     H 1089   9.794   7.084   7.299 -3.9868 -0.0399  2.0702
  749MOL0     H 1090   9.758   6.952   7.399  1.7675 -2.5835 -0.0032
  749MOL0     H 1091   9.738   7.203   7.486 -0.4296 -0.8299 -1.8476
  749MOL0     H 1092   9.914   7.206   7.476 -1.5368  2.7892 -0.6939
  749MOL0     H 1093   9.894   6.990   7.655 -1.0009 -1.2663 -0.1814
  749MOL0     H 1094   9.850   7.150   7.709  1.2354 -0.3320 -0.5594
  749MOL0     H 1095   9.502   6.891   6.746 -1.8192 -1.0718 -2.9382
  749MOL0     H 1096   9.447   6.789   6.559  0.0399  0.3591  1.9206
  749MOL0     H 1097   9.435   6.413   6.319  0.0511  0.9067  0.6056
  749MOL0     H 1098   9.335   6.302   6.100  2.5637 -1.7356  1.8504
  749MOL0     H 1099   7.936   6.379   4.766 -0.1551 -0.1518  0.7278
  749MOL0     H 1100   7.681   6.374   4.814 -0.9616 -1.9634  1.9746
  749MOL0     H 1101   7.394   6.284   5.184  3.4580  1.0852 -3.3384
  749MOL0     H 1102   7.148   6.263   5.274  0.4885  0.4286 -0.8296
  749MOL0     H 1103   6.812   6.252   5.252 -2.2990 -2.3249 -2.0403
  749MOL0     H 1104   6.954   6.182   5.205  0.9946  1.4006 -2.0929
  749MOL0     H 1105   6.779   6.133   5.033 -0.8895 -0.1433  0.2521
  749MOL0     H 1106   6.912   6.215   4.960 -0.4609 -0.9096 -0.6693
  749MOL0     H 1107   6.690   6.309   4.892  0.7683  2.5990 -0.4642
  749MOL0     H 1108   6.763   6.429   5.005  0.7591  0.0056 -0.9036
  749MOL0     H 1109   6.591   6.196   5.098  0.0574 -0.0783  1.6690
  749MOL0     H 1110   6.619   6.352   5.175 -2.4629 -1.1693  0.7362
  749MOL0     H 1111   6.281   6.455   4.953  0.8238  2.7581  1.2239
  749MOL0     H 1112   7.009   6.544   4.993  0.2649 -0.8883 -0.9764
  749MOL0     H 1113   7.141   6.629   4.842 -1.2843 -2.1842  0.2929
  749MOL0     H 1114   7.303   6.687   4.902  0.8032  0.1287 -0.2865
  749MOL0     H 1115   7.298   6.560   4.787  1.0540 -1.7639  1.1723
  750MOL0     O 1116   4.618   3.989   3.540 -0.3618 -0.3833 -0.4867
  750MOL0     C 1117   4.566   4.098   3.518 -0.3335  0.1833 -1.3148
  750MOL0     O 1118   4.578   4.176   3.413 -0.4051 -0.0141  0.1581
  750MOL0     C 1119   4.659   4.122   3.324 -0.1052 -0.0311 -0.1296
  750MOL0     C 1120   4.607   4.053   3.214  0.6235 -1.1389  0.3666
  750MOL0     C 1121   4.690   3.990   3.127  0.1282 -0.4680  0.2486
  750MOL0     C 1122   4.831   4.002   3.132  1.4043 -0.6377 -0.5486
  750MOL0     O 1123   4.909   3.927   3.055 -0.3311 -0.2321  0.3430
  750MOL0     C 1124   5.046   3.961   3.040 -0.6810 -0.7691  0.4545
  750MOL0     C 1125   5.099   3.887   2.920 -0.6706 -0.7283  0.5745
  750MOL0     C 1126   5.239   3.929   2.869 -0.4925  0.4528 -0.2282
  750MOL0     C 1127   5.279   3.820   2.765 -0.4991 -0.0056  0.3151
  750MOL0     C 1128   5.415   3.841   2.693  0.2515  0.3395 -0.3081
  750MOL0     C 1129   5.459   3.737   2.593  0.3185 -0.0716 -0.3575
  750MOL0     C 1130   5.605   3.778   2.548 -0.8746  0.5897  0.1945
  750MOL0     C 1131   5.662   3.688   2.437 -0.8966 -0.3334  0.2247
  750MOL0     N 1132   5.802   3.719   2.406  0.6036 -0.6320 -0.2724
  750MOL0     C 1133   5.832   3.811   2.307 -0.1477  0.6287  0.0113
  750MOL0     C 1134   5.968   3.821   2.314 -0.1384 -0.2757 -0.1303
  750MOL0     C 1135   6.050   3.904   2.221  0.1842  0.6444  0.0312
  750MOL0     C 1136   5.979   3.970   2.109 -0.3015 -0.1950  0.1287
  750MOL0     C 1137   6.072   4.046   2.008  0.8153  0.8754  0.6608
  750MOL0     C 1138   6.162   4.156   2.054 -0.4949 -0.5702 -0.5204
  750MOL0     O 1139   6.217   4.207   1.934 -0.1030  0.6899  0.4651
  750MOL0     C 1140   6.339   4.277   1.950 -0.1229  0.1759  0.7220
  750MOL0     C 1141   6.403   4.323   1.836 -0.6228  0.5863 -0.2398
  750MOL0     C 1142   6.531   4.385   1.835 -0.3402 -0.1519 -0.0988
  750MOL0     C 1143   6.599   4.408   1.962 -0.3151 -0.2531 -0.1283
  750MOL0     C 1144   6.733   4.456   1.957  0.5947 -0.4445 -0.5912
  750MOL0     O 1145   6.762   4.534   1.851 -0.1779 -0.3028 -0.0031
  750MOL0     C 1146   6.889   4.588   1.848 -0.7219 -0.6029  0.1623
  750MOL0     C 1147   6.907   4.707   1.913 -0.7323  0.2758 -0.2352
  750MOL0     C 1148   7.030   4.774   1.910  1.4170  0.0391 -0.2432
  750MOL0     C 1149   7.139   4.729   1.846  0.4126  0.0116  0.2491
  750MOL0     O 1150   7.249   4.810   1.858  0.3574 -0.2740 -0.3787
  750MOL0     C 1151   7.355   4.771   1.770  0.1871 -0.3296  0.0970
  750MOL0     C 1152   7.463   4.880   1.758  0.4043  0.1383 -0.0058
  750MOL0     C 1153   7.554   4.848   1.638 -0.6167  0.4903  0.5192
  750MOL0     C 1154   7.683   4.937   1.631 -0.4892  0.9345  0.0857
  750MOL0     C 1155   7.791   4.875   1.722  0.3075  0.3149  0.1790
  750MOL0     C 1156   7.921   4.956   1.709  0.6444 -0.9650  0.2270
  750MOL0     C 1157   8.048   4.887   1.752  0.5055 -0.1338  0.1721
  750MOL0     C 1158   8.166   4.977   1.734 -0.0703 -0.6964  0.6969
  750MOL0    Cl 1159   8.308   4.883   1.787 -0.1086  0.3556  0.0205
  750MOL0     C 1160   7.124   4.612   1.773  0.0253 -0.3468 -0.5264
  750MOL0     C 1161   7.002   4.538   1.774 -0.3997 -0.5569  0.9094
  750MOL0     O 1162   6.806   4.443   2.053 -0.0118  0.7388 -0.4834
  750MOL0     C 1163   6.530   4.368   2.079  0.0160 -0.5175 -1.1402
  750MOL0     C 1164   6.405   4.303   2.074  0.4934 -0.3499  0.1089
  750MOL0     N 1165   6.018   3.732   2.406  0.4276 -0.0036 -0.3827
  750MOL0     N 1166   5.917   3.671   2.457  0.0564  0.6041 -0.3476
  750MOL0     C 1167   4.880   4.083   3.237  0.4525 -0.0420  0.3832
  750MOL0     C 1168   4.793   4.144   3.325 -0.3138  0.4264 -0.9731
  750MOL0     C 1169   4.469   4.156   3.621  0.3222 -0.0937  0.0102
  750MOL0     C 1170   4.420   4.290   3.605  0.5049 -0.1756  0.0460
  750MOL0     C 1171   4.341   4.342   3.700  0.2163  0.0788 -0.0404
  750MOL0     C 1172   4.283   4.271   3.809 -0.8338 -0.2809 -0.0096
  750MOL0     O 1173   4.190   4.326   3.896 -0.4394  0.5432 -0.1367
  750MOL0     C 1174   4.121   4.442   3.856 -0.5429 -0.4724 -0.0039
  750MOL0     C 1175   4.052   4.494   3.976  0.0185  0.1036  0.1013
  750MOL0     C 1176   3.938   4.402   4.019  0.1706  0.2792 -0.3202
  750MOL0     C 1177   3.858   4.457   4.144  1.0249  0.2531  0.0873
  750MOL0     C 1178   3.743   4.372   4.174  0.3945  0.6526  0.0286
  750MOL0     C 1179   3.633   4.313   4.200 -0.5116 -0.1317  0.0380
  750MOL0     C 1180   4.321   4.141   3.824  0.9653 -0.1922  0.1251
  750MOL0     C 1181   4.412   4.084   3.731  0.3071  0.6237 -1.5313
  750MOL0     C 1182   4.432   3.927   3.765 -0.3335 -0.4048  0.2695
  750MOL0     H 1183   4.499   4.043   3.202  0.4345 -1.9846  2.3232
  750MOL0     H 1184   4.649   3.938   3.041 -0.1890  1.9764 -1.1777
  750MOL0     H 1185   5.052   4.067   3.017 -0.4513 -0.5248  1.5931
  750MOL0     H 1186   5.101   3.942   3.133 -3.3658 -1.1975  2.0518
  750MOL0     H 1187   5.025   3.886   2.839 -0.5992  0.9387  0.4647
  750MOL0     H 1188   5.103   3.782   2.952 -1.3525 -1.1552 -0.6741
  750MOL0     H 1189   5.315   3.939   2.947  0.3258 -2.3263 -0.5676
  750MOL0     H 1190   5.218   4.021   2.813 -1.5057 -0.9341 -2.2719
  750MOL0     H 1191   5.292   3.721   2.808  0.2836  0.6629  1.6715
  750MOL0     H 1192   5.203   3.791   2.692  1.0297 -4.9014  0.3028
  750MOL0     H 1193   5.407   3.938   2.643  0.1564  2.0492  2.7731
  750MOL0     H 1194   5.489   3.849   2.773  0.1242 -0.2913 -0.1237
  750MOL0     H 1195   5.467   3.636   2.634 -0.8196  0.7035  1.9458
  750MOL0     H 1196   5.376   3.733   2.522 -1.8653 -0.7378  2.1094
  750MOL0     H 1197   5.667   3.769   2.637 -0.3482 -1.1873 -0.3151
  750MOL0     H 1198   5.614   3.877   2.502 -0.4449 -0.7259 -2.7892
  750MOL0     H 1199   5.665   3.580   2.450 -0.3156 -0.6792 -2.3000
  750MOL0     H 1200   5.594   3.705   2.353 -3.2304  0.6426  2.1817
  750MOL0     H 1201   5.760   3.861   2.244 -3.3262 -2.7199  0.6746
  750MOL0     H 1202   6.092   3.979   2.289 -2.0196  1.4309  0.6194
  750MOL0     H 1203   6.121   3.836   2.172  0.7219  0.4747  1.0193
  750MOL0     H 1204   5.927   3.893   2.051 -1.7630  0.2344  0.8321
  750MOL0     H 1205   5.898   4.031   2.148  0.2093  1.7983 -1.7071
  750MOL0     H 1206   6.004   4.085   1.932 -2.7204 -1.0199  2.6164
  750MOL0     H 1207   6.141   3.970   1.970  0.2387  0.5549  0.2298
  750MOL0     H 1208   6.240   4.123   2.122 -1.1909  0.5831  0.8995
  750MOL0     H 1209   6.094   4.224   2.106  1.7120 -1.0075  3.2928
  750MOL0     H 1210   6.349   4.306   1.743 -1.3580 -0.1433  0.3082
  750MOL0     H 1211   6.568   4.425   1.741 -0.5003  0.0837 -0.0656
  750MOL0     H 1212   6.833   4.753   1.978  2.0628  1.6417  2.1830
  750MOL0     H 1213   7.040   4.875   1.949 -0.1184 -0.1529  0.7269
  750MOL0     H 1214   7.409   4.682   1.803  0.5015  0.4095  1.6699
  750MOL0     H 1215   7.311   4.762   1.670  0.6618 -0.2866 -0.1141
  750MOL0     H 1216   7.418   4.979   1.743 -0.4218  0.1716  2.3538
  750MOL0     H 1217   7.516   4.879   1.854  0.5439 -2.9100 -0.0292
  750MOL0     H 1218   7.591   4.746   1.650  1.7009  1.0422 -1.1072
  750MOL0     H 1219   7.493   4.855   1.547 -0.5596 -1.7902  0.2529
  750MOL0     H 1220   7.662   5.043   1.649 -2.0384  0.8749 -1.0958
  750MOL0     H 1221   7.710   4.932   1.525  2.0220  3.2918  0.5173
  750MOL0     H 1222   7.814   4.773   1.690  0.8765  0.8116 -1.0511
  750MOL0     H 1223   7.758   4.879   1.827  2.3584  2.4046  0.8136
  750MOL0     H 1224   7.937   4.986   1.605 -1.1618  2.0520  0.7208
  750MOL0     H 1225   7.899   5.038   1.777 -0.4395 -0.7217 -0.4070
  750MOL0     H 1226   8.058   4.794   1.695  0.3262  0.4506 -0.8256
  750MOL0     H 1227   8.035   4.862   1.858 -1.3762  0.3537  0.0847
  750MOL0     H 1228   8.177   5.000   1.627  1.6501 -2.7122  0.3699
  750MOL0     H 1229   8.158   5.078   1.775  0.5007  1.6843 -4.2635
  750MOL0     H 1230   7.213   4.577   1.723  1.7739  4.0021 -0.8997
  750MOL0     H 1231   6.994   4.440   1.728  1.2060 -0.7257  0.9437
  750MOL0     H 1232   6.568   4.375   2.180 -0.5144 -2.7775 -0.7226
  750MOL0     H 1233   6.357   4.276   2.168 -0.4687 -3.1939 -1.1022
  750MOL0     H 1234   4.986   4.106   3.234  0.5583 -0.5806 -0.2739
  750MOL0     H 1235   4.832   4.201   3.409 -0.2173 -2.1144  0.8383
  750MOL0     H 1236   4.453   4.351   3.521  3.7640 -0.4244  0.9928
  750MOL0     H 1237   4.319   4.447   3.683  1.4698  0.3808  0.1495
  750MOL0     H 1238   4.046   4.435   3.776 -0.0501 -1.5587 -0.3920
  750MOL0     H 1239   4.191   4.524   3.835  1.2856 -0.8706  3.7581
  750MOL0     H 1240   4.004   4.592   3.962  0.4435  0.4015  0.6823
  750MOL0     H 1241   4.118   4.502   4.063 -0.0711 -0.7121  0.2483
  750MOL0     H 1242   3.986   4.310   4.054  0.3064  1.2001  2.1703
  750MOL0     H 1243   3.869   4.393   3.935  0.4644 -0.7770 -0.4573
  750MOL0     H 1244   3.933   4.460   4.223  1.2295  4.0565 -0.0789
  750MOL0     H 1245   3.822   4.560   4.135  0.2759 -0.1076 -1.4709
  750MOL0     H 1246   3.551   4.250   4.227 -0.6584 -0.8309 -1.8342
  750MOL0     H 1247   4.268   4.082   3.898 -0.9679  0.8681 -0.3245
  750MOL0     H 1248   4.370   3.878   3.689 -2.5622  1.8160  0.4976
  750MOL0     H 1249   4.534   3.890   3.765 -0.5369 -1.0794 -1.4484
  750MOL0     H 1250   4.394   3.912   3.866 -1.2756  1.6053  0.2858
  751MOL0     O 1251   7.617   7.641   4.708  0.3605  0.4425  0.4523
  751MOL0     C 1252   7.634   7.680   4.822  0.1015 -1.0934 -0.7385
  751MOL0     O 1253   7.759   7.712   4.871  0.9875  0.0069 -0.4959
  751MOL0     C 1254   7.867   7.733   4.788 -0.3372  0.1753 -0.5781
  751MOL0     C 1255   7.863   7.800   4.668 -0.1989 -0.0650  0.2203
  751MOL0     C 1256   7.967   7.804   4.579 -0.4070  0.0543  0.2667
  751MOL0     C 1257   8.092   7.753   4.619 -0.7071  0.1576  0.3230
  751MOL0     O 1258   8.185   7.755   4.514  0.0049  0.9873 -0.1630
  751MOL0     C 1259   8.292   7.670   4.527 -0.5298  0.1755 -0.1679
  751MOL0     C 1260   8.376   7.673   4.403  0.2234 -0.4699  0.7041
  751MOL0     C 1261   8.297   7.642   4.266 -0.4632  0.3051 -0.1555
  751MOL0     C 1262   8.401   7.631   4.155  0.1612 -0.0684 -0.1363
  751MOL0     C 1263   8.345   7.567   4.032 -0.2292 -0.2623  0.3314
  751MOL0     C 1264   8.324   7.413   4.035 -0.1567  0.0309  0.7503
  751MOL0     C 1265   8.234   7.377   3.923  0.3573 -0.2946 -0.2056
  751MOL0     C 1266   8.196   7.222   3.947 -0.3558 -0.8371  0.3496
  751MOL0     N 1267   8.307   7.130   3.909 -0.5655 -0.1392  0.0301
  751MOL0     C 1268   8.365   7.045   3.998  0.6396  0.7147  0.2184
  751MOL0     C 1269   8.423   6.953   3.921 -0.1878 -0.1785 -1.0937
  751MOL0     C 1270   8.504   6.839   3.982  0.0203 -0.1585  0.5350
  751MOL0     C 1271   8.654   6.852   3.953 -0.3849 -0.3003 -0.3712
  751MOL0     C 1272   8.694   6.828   3.802 -0.5637 -0.1804  0.1794
  751MOL0     C 1273   8.832   6.871   3.753  0.0541  0.6556 -0.4204
  751MOL0     O 1274   8.863   6.994   3.821 -0.0832 -0.1441  0.2540
  751MOL0     C 1275   8.995   7.033   3.815 -0.4731  0.5632 -0.4483
  751MOL0     C 1276   9.038   7.121   3.916 -0.6947  0.9049 -0.0374
  751MOL0     C 1277   9.164   7.169   3.905  0.2122 -0.7650  0.1987
  751MOL0     C 1278   9.253   7.141   3.800 -0.0678 -0.8281  0.6804
  751MOL0     C 1279   9.396   7.195   3.787  0.2411  0.3456 -0.5994
  751MOL0     O 1280   9.406   7.325   3.816  0.3387 -0.4172  0.0181
  751MOL0     C 1281   9.522   7.392   3.791 -0.0640 -0.4842 -0.3832
  751MOL0     C 1282   9.644   7.370   3.854  0.5749 -0.2409 -0.1245
  751MOL0     C 1283   9.757   7.444   3.821  1.0830  1.0972 -0.4147
  751MOL0     C 1284   9.748   7.539   3.718 -0.5254  0.7164 -0.2274
  751MOL0     O 1285   9.857   7.617   3.689  0.5190 -0.0933 -0.3573
  751MOL0     C 1286   9.880   7.629   3.552 -0.1202 -0.9406 -0.6970
  751MOL0     C 1287  10.016   7.655   3.504 -0.3535  0.4945 -0.5669
  751MOL0     C 1288  10.115   7.569   3.584 -0.4463  0.3629 -0.0639
  751MOL0     C 1289  10.250   7.569   3.523 -0.4197 -0.1225 -0.7486
  751MOL0     C 1290  10.339   7.695   3.552  0.6801  0.4463 -0.9504
  751MOL0     C 1291  10.485   7.659   3.565  0.1893 -0.1619  0.5695
  751MOL0     C 1292  10.582   7.768   3.615 -0.0043 -0.6972  0.6281
  751MOL0     C 1293  10.735   7.724   3.601  0.3177  0.2179  0.4398
  751MOL0    Cl 1294  10.785   7.671   3.438 -0.0268  0.1754  0.1089
  751MOL0     C 1295   9.622   7.557   3.645 -0.6625  0.2095 -0.2095
  751MOL0     C 1296   9.510   7.490   3.691 -0.1648 -0.3033 -0.5401
  751MOL0     O 1297   9.484   7.123   3.745 -0.2116  0.1821  0.2339
  751MOL0     C 1298   9.209   7.046   3.706  0.5461 -0.3413 -0.2592
  751MOL0     C 1299   9.083   6.996   3.714 -0.7259  0.0819  0.1745
  751MOL0     N 1300   8.415   6.993   3.790  0.4036  0.0578 -0.3692
  751MOL0     N 1301   8.338   7.095   3.782 -0.1113  0.3640 -0.1636
  751MOL0     C 1302   8.112   7.712   4.744  0.6256 -0.1164 -0.1961
  751MOL0     C 1303   8.003   7.703   4.828 -1.1898 -0.1551  0.7709
  751MOL0     C 1304   7.510   7.705   4.901  0.3367 -0.4749  0.0692
  751MOL0     C 1305   7.381   7.682   4.837 -0.5448 -0.6491  0.1346
  751MOL0     C 1306   7.263   7.701   4.903  0.5354 -0.0338  0.5732
  751MOL0     C 1307   7.257   7.737   5.035  0.6874  0.3650  0.4180
  751MOL0     O 1308   7.133   7.755   5.111  0.0486  0.5195  0.0722
  751MOL0     C 1309   7.005   7.713   5.049 -0.1348 -0.0161 -1.2925
  751MOL0     C 1310   6.884   7.794   5.098 -0.5020 -0.6886  0.2542
  751MOL0     C 1311   6.858   7.799   5.252  1.1219 -0.4119  0.0817
  751MOL0     C 1312   6.714   7.845   5.279  0.3457  0.0195 -0.4302
  751MOL0     C 1313   6.682   7.823   5.422  0.3444 -0.8094  0.0504
  751MOL0     C 1314   6.666   7.812   5.544  0.6748 -0.1067  0.3011
  751MOL0     C 1315   7.375   7.763   5.099  0.1236 -1.2703 -0.4892
  751MOL0     C 1316   7.504   7.746   5.039  0.6977 -0.1136  1.4622
  751MOL0     C 1317   7.616   7.769   5.138  0.2689 -0.3325  0.5840
  751MOL0     H 1318   7.760   7.816   4.637 -0.0440  1.9804  0.6040
  751MOL0     H 1319   7.947   7.834   4.477 -0.6823 -0.6759  0.0963
  751MOL0     H 1320   8.357   7.701   4.608  1.3670 -0.0909 -1.5302
  751MOL0     H 1321   8.261   7.571   4.561  2.7897 -0.7814  0.3587
  751MOL0     H 1322   8.458   7.601   4.409  0.5931 -0.5502 -3.1377
  751MOL0     H 1323   8.417   7.774   4.396 -0.7895 -0.0017  1.1595
  751MOL0     H 1324   8.246   7.737   4.249  0.9156  1.4447  1.6971
  751MOL0     H 1325   8.230   7.557   4.282  0.7775 -0.3150  2.2734
  751MOL0     H 1326   8.433   7.732   4.126 -0.7858  0.1188 -0.5864
  751MOL0     H 1327   8.490   7.580   4.191 -0.6915 -2.5413 -1.3040
  751MOL0     H 1328   8.255   7.617   3.997  0.3218  1.1225  0.8176
  751MOL0     H 1329   8.422   7.583   3.956 -1.2169 -0.6793 -0.7758
  751MOL0     H 1330   8.421   7.363   4.027 -0.3670 -0.2434 -0.2625
  751MOL0     H 1331   8.279   7.373   4.126  0.3684 -1.3620  0.4183
  751MOL0     H 1332   8.280   7.393   3.825 -0.5269  2.4699 -0.2459
  751MOL0     H 1333   8.144   7.439   3.920 -0.4765 -1.2992  2.0635
  751MOL0     H 1334   8.169   7.201   4.051 -1.9208  1.3843  0.4636
  751MOL0     H 1335   8.113   7.195   3.881  0.3366  1.4065 -1.5492
  751MOL0     H 1336   8.362   7.055   4.106 -1.4772  0.4388  0.2377
  751MOL0     H 1337   8.481   6.841   4.089 -0.7838 -1.3775  0.4035
  751MOL0     H 1338   8.481   6.741   3.938  2.5389 -0.3744 -0.5043
  751MOL0     H 1339   8.683   6.954   3.978 -0.0239  0.1589 -2.4675
  751MOL0     H 1340   8.708   6.782   4.018 -0.0415  1.5695  1.4292
  751MOL0     H 1341   8.626   6.895   3.749 -2.6065 -1.0264  1.5904
  751MOL0     H 1342   8.664   6.726   3.776  0.3929 -0.2880 -0.5466
  751MOL0     H 1343   8.836   6.889   3.646 -0.1189  0.7420 -0.4126
  751MOL0     H 1344   8.907   6.796   3.781  1.3812  1.5930 -1.3351
  751MOL0     H 1345   8.980   7.141   4.005 -1.4725  0.8517 -0.5277
  751MOL0     H 1346   9.215   7.228   3.981 -2.3070 -0.4369  1.7271
  751MOL0     H 1347   9.626   7.296   3.931 -2.4931  0.2390 -0.2705
  751MOL0     H 1348   9.855   7.423   3.865  1.4666 -0.1859 -1.7965
  751MOL0     H 1349   9.848   7.535   3.505  0.8424 -2.3812  1.3843
  751MOL0     H 1350   9.817   7.714   3.525  1.0619  0.7850  1.6667
  751MOL0     H 1351  10.021   7.633   3.397 -1.1763 -2.6110 -0.0463
  751MOL0     H 1352  10.045   7.759   3.522 -2.8035  1.0698  0.4158
  751MOL0     H 1353  10.124   7.620   3.680  1.4472 -1.1187  0.5973
  751MOL0     H 1354  10.077   7.468   3.606 -0.0376  0.0929 -0.5657
  751MOL0     H 1355  10.243   7.543   3.417  1.2822 -0.3475 -0.8370
  751MOL0     H 1356  10.295   7.480   3.568  6.3382  1.1954 -3.6260
  751MOL0     H 1357  10.308   7.733   3.650  3.8054 -0.1043  0.3580
  751MOL0     H 1358  10.319   7.778   3.484 -0.1775  2.2398  1.3234
  751MOL0     H 1359  10.488   7.574   3.634 -0.7318 -0.5324  0.1648
  751MOL0     H 1360  10.517   7.631   3.464 -1.7523  2.4807 -0.8760
  751MOL0     H 1361  10.561   7.782   3.722 -1.4250  1.6869  0.0963
  751MOL0     H 1362  10.564   7.865   3.569  0.0001 -0.2253  1.5877
  751MOL0     H 1363  10.804   7.806   3.620 -1.6155  1.9634  0.3437
  751MOL0     H 1364  10.753   7.638   3.666 -0.8401  1.3656  2.3869
  751MOL0     H 1365   9.622   7.619   3.556 -1.8211 -0.5964 -0.7956
  751MOL0     H 1366   9.416   7.507   3.639  0.1923 -1.7008 -1.7189
  751MOL0     H 1367   9.288   7.020   3.636 -0.3920  0.3125 -1.6036
  751MOL0     H 1368   9.045   6.928   3.638  1.9969 -0.0145 -1.2011
  751MOL0     H 1369   8.203   7.679   4.792  0.4332 -1.3224 -0.6182
  751MOL0     H 1370   8.010   7.665   4.930 -0.9331  0.4681  0.9893
  751MOL0     H 1371   7.374   7.667   4.729 -1.8932  0.1046  0.0920
  751MOL0     H 1372   7.178   7.693   4.836  0.8146  0.6260  0.1284
  751MOL0     H 1373   7.005   7.604   5.056  0.8568  0.0822  1.6784
  751MOL0     H 1374   7.008   7.742   4.944  1.3732  0.8005 -1.0536
  751MOL0     H 1375   6.796   7.753   5.046 -2.1013  2.5366  0.2103
  751MOL0     H 1376   6.880   7.894   5.056 -1.0022 -1.1944 -0.9530
  751MOL0     H 1377   6.941   7.856   5.297 -0.4170  1.3924  0.7564
  751MOL0     H 1378   6.877   7.699   5.292  0.0710 -1.0769 -1.0149
  751MOL0     H 1379   6.712   7.950   5.248  1.3021 -0.1643 -1.1752
  751MOL0     H 1380   6.640   7.790   5.220  2.7967 -2.1332 -1.7102
  751MOL0     H 1381   6.645   7.801   5.649  0.1305 -0.2655  0.1777
  751MOL0     H 1382   7.359   7.793   5.203  2.4672 -1.1002 -0.1316
  751MOL0     H 1383   7.580   7.788   5.239 -1.0512 -2.8318  0.6653
  751MOL0     H 1384   7.703   7.702   5.137  1.7011  1.3958 -2.1508
  751MOL0     H 1385   7.653   7.861   5.092 -1.1942 -0.2449 -0.4793
  752MOL0     O 1386   2.097   9.646   4.352 -0.2861  0.2148  0.0069
  752MOL0     C 1387   2.040   9.599   4.256 -0.7358  0.2466  0.4411
  752MOL0     O 1388   2.089   9.599   4.124  0.3445 -0.4069 -0.4183
  752MOL0     C 1389   2.214   9.644   4.108  0.4597 -0.0550 -0.0983
  752MOL0     C 1390   2.316   9.568   4.158  0.2473  0.3922  0.0623
  752MOL0     C 1391   2.447   9.607   4.141 -0.3986 -0.9823 -0.2942
  752MOL0     C 1392   2.481   9.735   4.086  0.1476  0.5321 -0.2972
  752MOL0     O 1393   2.604   9.786   4.067  0.4067  0.0040  0.3900
  752MOL0     C 1394   2.712   9.707   4.119  0.4179  0.7655  0.2468
  752MOL0     C 1395   2.842   9.779   4.080 -0.2396  0.2905  0.0158
  752MOL0     C 1396   2.965   9.702   4.133  1.2732 -0.0903  0.1053
  752MOL0     C 1397   2.981   9.569   4.054  0.9107  0.4370  0.1921
  752MOL0     C 1398   3.130   9.537   4.035 -0.5485  0.4103 -0.4952
  752MOL0     C 1399   3.161   9.401   3.963 -0.3990  1.1560  0.1824
  752MOL0     C 1400   3.279   9.412   3.861  0.6187 -0.2187  0.2436
  752MOL0     C 1401   3.414   9.454   3.921 -0.2327 -0.9504  0.2579
  752MOL0     N 1402   3.504   9.488   3.809  0.2569 -0.2882  0.5880
  752MOL0     C 1403   3.509   9.615   3.746  0.8753  0.9904 -0.1303
  752MOL0     C 1404   3.604   9.605   3.651  0.5012 -0.3301 -0.5481
  752MOL0     C 1405   3.647   9.703   3.537 -0.1119 -1.1242  0.3981
  752MOL0     C 1406   3.790   9.750   3.548  0.2770 -0.5172 -0.1862
  752MOL0     C 1407   3.850   9.836   3.432  0.4893  0.8455 -0.7396
  752MOL0     C 1408   3.812   9.982   3.459 -0.1684 -0.4902 -0.0525
  752MOL0     O 1409   3.859  10.041   3.585 -0.0832  0.1212 -0.2863
  752MOL0     C 1410   3.994  10.056   3.617  0.2271  0.3299  1.7149
  752MOL0     C 1411   4.054   9.981   3.712 -0.4411  0.1032 -0.2442
  752MOL0     C 1412   4.192   9.997   3.740  0.7653  1.2583  0.5966
  752MOL0     C 1413   4.278  10.092   3.672  0.9247  0.9212 -0.4562
  752MOL0     C 1414   4.416  10.095   3.699 -0.0591  0.1701 -0.5944
  752MOL0     O 1415   4.474   9.977   3.733 -0.2128  0.4962 -0.4627
  752MOL0     C 1416   4.608   9.968   3.754 -1.9655 -0.0029 -0.0954
  752MOL0     C 1417   4.674   9.839   3.728  0.3768 -0.0117  0.5896
  752MOL0     C 1418   4.802   9.809   3.766 -0.3167  0.0918  0.2632
  752MOL0     C 1419   4.888   9.911   3.819 -0.0153 -0.0343 -1.2293
  752MOL0     O 1420   5.024   9.902   3.856  0.5236  0.1540 -0.8674
  752MOL0     C 1421   5.087   9.775   3.879 -0.1371  0.5271  0.0253
  752MOL0     C 1422   5.220   9.805   3.951  0.5230 -1.1159  0.1341
  752MOL0     C 1423   5.286   9.935   3.901  0.8008  0.1444  0.2872
  752MOL0     C 1424   5.421   9.952   3.972  0.5585  0.6184  0.2893
  752MOL0     C 1425   5.485  10.078   3.921 -0.5099  0.4886 -0.0103
  752MOL0     C 1426   5.611  10.099   4.004 -0.1434  0.2291 -0.3049
  752MOL0     C 1427   5.686  10.220   3.966 -0.2933 -0.1827 -1.1002
  752MOL0     C 1428   5.610  10.353   4.007  0.4428  0.2533 -0.1100
  752MOL0    Cl 1429   5.711  10.485   3.937  0.2635 -0.1034  0.1187
  752MOL0     C 1430   4.827  10.044   3.834 -0.1699  0.3607  0.2196
  752MOL0     C 1431   4.697  10.073   3.808 -0.4023  0.2061  0.7525
  752MOL0     O 1432   4.467  10.203   3.682 -0.2195  0.1567  0.2558
  752MOL0     C 1433   4.214  10.176   3.577 -0.5157  0.8928  0.2613
  752MOL0     C 1434   4.070  10.158   3.554 -0.5521 -0.0917  0.2113
  752MOL0     N 1435   3.668   9.482   3.668  0.4893 -0.7566  0.2299
  752MOL0     N 1436   3.615   9.417   3.761  0.3080  0.0506 -0.1634
  752MOL0     C 1437   2.371   9.804   4.047  1.4767  0.1354  0.0372
  752MOL0     C 1438   2.237   9.763   4.059  0.3524  0.1784  0.9190
  752MOL0     C 1439   1.922   9.511   4.283  0.1785  0.2540  1.1194
  752MOL0     C 1440   1.820   9.519   4.187  0.4501 -0.7173  0.0861
  752MOL0     C 1441   1.703   9.452   4.199 -0.1598  0.1388  0.3315
  752MOL0     C 1442   1.692   9.364   4.309  0.3763 -0.9792  0.2703
  752MOL0     O 1443   1.581   9.289   4.310 -0.1380  0.1477  0.6787
  752MOL0     C 1444   1.555   9.191   4.409 -0.1655  0.3523 -0.6373
  752MOL0     C 1445   1.479   9.253   4.527  0.9579 -1.3635 -0.5915
  752MOL0     C 1446   1.446   9.142   4.637 -0.2399 -0.0993 -0.5035
  752MOL0     C 1447   1.388   9.215   4.769  0.2866  0.5346  0.2636
  752MOL0     C 1448   1.514   9.253   4.835 -0.2015 -0.5617 -0.2006
  752MOL0     C 1449   1.626   9.287   4.870 -1.0233 -0.5610 -0.6816
  752MOL0     C 1450   1.790   9.355   4.406  0.2076 -0.1084 -0.2450
  752MOL0     C 1451   1.911   9.419   4.389  0.9961  0.2748 -0.2646
  752MOL0     C 1452   2.037   9.382   4.467 -0.9467 -0.0003  0.5158
  752MOL0     H 1453   2.280   9.479   4.208 -0.0634  2.2717  3.5793
  752MOL0     H 1454   2.514   9.526   4.170  2.6973  0.3900 -3.0248
  752MOL0     H 1455   2.698   9.696   4.227  1.7396 -0.3538  0.3333
  752MOL0     H 1456   2.707   9.612   4.064 -0.7162  1.2475 -0.5312
  752MOL0     H 1457   2.845   9.879   4.125 -0.3375  0.4409 -0.3067
  752MOL0     H 1458   2.837   9.783   3.971 -2.2999 -2.0677 -0.0877
  752MOL0     H 1459   2.950   9.691   4.241  2.7088  2.6936  0.6699
  752MOL0     H 1460   3.054   9.763   4.117  0.2206  1.1004 -1.5564
  752MOL0     H 1461   2.934   9.479   4.094  2.1349  0.4384  1.7078
  752MOL0     H 1462   2.931   9.577   3.957  0.2753 -1.2364  0.3572
  752MOL0     H 1463   3.155   9.620   3.968 -1.0443 -0.0529 -1.2657
  752MOL0     H 1464   3.172   9.538   4.136 -1.7600  0.2454  0.0327
  752MOL0     H 1465   3.183   9.326   4.040 -2.5752 -2.1191 -2.1249
  752MOL0     H 1466   3.069   9.375   3.912 -1.4140  2.3302  1.3507
  752MOL0     H 1467   3.244   9.481   3.783  1.5755 -2.1049 -1.9687
  752MOL0     H 1468   3.297   9.318   3.809  1.1808 -0.1269  0.2581
  752MOL0     H 1469   3.399   9.542   3.985  0.0269  1.8694 -3.2053
  752MOL0     H 1470   3.446   9.368   3.980  0.3734 -0.3628  0.8089
  752MOL0     H 1471   3.441   9.699   3.758  0.1696  0.4351 -0.1824
  752MOL0     H 1472   3.622   9.650   3.444  0.2774  0.0841 -0.4139
  752MOL0     H 1473   3.586   9.794   3.544  3.1803  1.3533 -0.6090
  752MOL0     H 1474   3.806   9.806   3.641 -1.7865 -0.1318 -0.0253
  752MOL0     H 1475   3.854   9.662   3.544 -0.0556 -0.7190 -3.2067
  752MOL0     H 1476   3.815   9.791   3.339 -3.1489 -1.2586  1.4223
  752MOL0     H 1477   3.959   9.834   3.434  0.4795  0.5207 -0.5731
  752MOL0     H 1478   3.703   9.974   3.457 -0.0663 -2.2098 -0.0336
  752MOL0     H 1479   3.855  10.042   3.378  1.0776  0.5066  1.2991
  752MOL0     H 1480   4.010   9.897   3.766  0.0092 -0.5490 -0.8788
  752MOL0     H 1481   4.226   9.936   3.823 -0.2282 -1.7757 -1.0343
  752MOL0     H 1482   4.618   9.763   3.675  0.6407  0.5029 -0.4485
  752MOL0     H 1483   4.848   9.715   3.736 -0.5022  0.8176 -2.5530
  752MOL0     H 1484   5.022   9.712   3.941  1.7275 -3.3578 -1.6277
  752MOL0     H 1485   5.118   9.718   3.792  3.1648  0.2089  1.2799
  752MOL0     H 1486   5.198   9.814   4.057  2.3041 -2.2137  0.6419
  752MOL0     H 1487   5.286   9.717   3.951  0.3042 -1.3058  1.7511
  752MOL0     H 1488   5.297   9.925   3.793 -2.4995  0.8885 -0.2354
  752MOL0     H 1489   5.221  10.018   3.931  0.0043  0.1895 -1.4231
  752MOL0     H 1490   5.473   9.861   3.942 -2.0142 -0.6268 -0.6626
  752MOL0     H 1491   5.394   9.949   4.078  0.8217 -0.7475  0.3286
  752MOL0     H 1492   5.421  10.167   3.918  0.9781  1.6598  1.2412
  752MOL0     H 1493   5.516  10.065   3.817  0.7426  1.8847  0.1596
  752MOL0     H 1494   5.566  10.101   4.104  1.8477 -0.0249  0.6383
  752MOL0     H 1495   5.677  10.013   4.002  0.5793  0.7220  1.0211
  752MOL0     H 1496   5.694  10.224   3.857 -1.8805  2.4053 -1.2017
  752MOL0     H 1497   5.787  10.229   4.006 -0.7925  2.0268 -0.1999
  752MOL0     H 1498   5.511  10.359   3.961  1.1853 -2.7909 -2.4809
  752MOL0     H 1499   5.614  10.356   4.116  1.4906  2.1134 -0.1565
  752MOL0     H 1500   4.877  10.133   3.871 -0.4372  0.2064  0.9800
  752MOL0     H 1501   4.644  10.164   3.834 -1.1864 -0.0396  0.0487
  752MOL0     H 1502   4.272  10.250   3.523 -1.5290  3.0050  1.9294
  752MOL0     H 1503   4.018  10.220   3.481  0.2901  0.6541  0.2278
  752MOL0     H 1504   2.377   9.905   4.006 -4.7059  1.9051  2.4037
  752MOL0     H 1505   2.157   9.835   4.043 -0.5707 -1.4651 -3.1644
  752MOL0     H 1506   1.819   9.580   4.097  0.2678 -3.0541 -1.5670
  752MOL0     H 1507   1.626   9.457   4.122  2.6124 -0.2229 -2.6634
  752MOL0     H 1508   1.641   9.135   4.447 -1.8190  0.2917  3.5765
  752MOL0     H 1509   1.482   9.117   4.374  0.8962 -1.0448  0.0193
  752MOL0     H 1510   1.380   9.290   4.499  0.3408 -2.3489  0.2357
  752MOL0     H 1511   1.539   9.329   4.578  0.4207 -1.3880  0.0800
  752MOL0     H 1512   1.534   9.085   4.666 -0.5813  1.1147  3.5112
  752MOL0     H 1513   1.361   9.079   4.610  0.7036 -1.6809  0.0968
  752MOL0     H 1514   1.320   9.300   4.758  0.5070  0.7797  0.7558
  752MOL0     H 1515   1.332   9.140   4.826  0.3492 -0.6177 -1.1275
  752MOL0     H 1516   1.733   9.300   4.872 -1.0746 -0.1583  0.8675
  752MOL0     H 1517   1.778   9.292   4.494  2.6417  2.5754  2.2186
  752MOL0     H 1518   2.121   9.377   4.397 -2.2057  1.9729 -1.2342
  752MOL0     H 1519   2.059   9.469   4.530 -1.5696 -0.1638  0.9719
  752MOL0     H 1520   2.029   9.291   4.527 -0.5591  1.1258  2.3735
  753MOL0     O 1521   3.297   0.673   1.497 -0.0630 -0.4040  0.2109
  753MOL0     C 1522   3.275   0.749   1.591 -0.2478 -0.3572 -0.5999
  753MOL0     O 1523   3.365   0.836   1.645  0.8295  0.3669 -0.4997
  753MOL0     C 1524   3.487   0.821   1.590  0.4070  0.0394  0.4037
  753MOL0     C 1525   3.537   0.909   1.501 -0.9567  0.7313 -0.2286
  753MOL0     C 1526   3.674   0.912   1.469  0.0324  0.2105 -0.3102
  753MOL0     C 1527   3.763   0.821   1.524  0.1343  0.3231  0.2707
  753MOL0     O 1528   3.897   0.812   1.488  0.3600 -0.7271  0.5128
  753MOL0     C 1529   3.925   0.826   1.348  0.1651  0.0422  0.3825
  753MOL0     C 1530   4.074   0.805   1.332 -0.1991 -0.0782 -0.5299
  753MOL0     C 1531   4.119   0.658   1.356 -0.2188  0.6639 -1.2484
  753MOL0     C 1532   4.268   0.657   1.353 -0.1627 -0.1601 -0.8021
  753MOL0     C 1533   4.324   0.525   1.395  0.5938  0.4435 -0.6555
  753MOL0     C 1534   4.271   0.405   1.318 -0.5609 -0.6492  0.1206
  753MOL0     C 1535   4.341   0.271   1.357 -0.0865 -0.9032 -0.0824
  753MOL0     C 1536   4.269   0.143   1.312  0.5108 -0.1028 -0.0470
  753MOL0     N 1537   4.136   0.142   1.387  0.0930 -0.0072 -0.2445
  753MOL0     C 1538   4.100   0.049   1.482 -0.1717  0.0551  0.3971
  753MOL0     C 1539   3.963   0.068   1.503  0.1238  0.2881 -0.0773
  753MOL0     C 1540   3.872  -0.002   1.606  0.5751  0.5288  0.9513
  753MOL0     C 1541   3.730  -0.009   1.558  0.3559 -0.3281  0.1340
  753MOL0     C 1542   3.637  -0.062   1.661  0.2560 -0.3685  0.6282
  753MOL0     C 1543   3.504  -0.105   1.602 -0.1778  0.1732 -0.4060
  753MOL0     O 1544   3.445  -0.198   1.687 -0.3769  0.5699  0.3371
  753MOL0     C 1545   3.312  -0.214   1.678 -0.1537 -0.8264  0.7255
  753MOL0     C 1546   3.234  -0.283   1.771  0.1491  0.5149 -0.1146
  753MOL0     C 1547   3.100  -0.306   1.755  0.4262  0.2854  0.0384
  753MOL0     C 1548   3.029  -0.254   1.642  0.4670  1.5046  0.6419
  753MOL0     C 1549   2.882  -0.260   1.628 -0.0122 -0.3199 -0.8858
  753MOL0     O 1550   2.844  -0.213   1.499  0.6018  0.0020 -0.4216
  753MOL0     C 1551   2.712  -0.192   1.464 -0.3761  0.2158  0.0580
  753MOL0     C 1552   2.600  -0.248   1.526  0.1327 -0.4796  0.0508
  753MOL0     C 1553   2.474  -0.192   1.506 -0.1395 -0.1357  0.4358
  753MOL0     C 1554   2.451  -0.083   1.427 -0.0456 -1.3256  0.2441
  753MOL0     O 1555   2.323  -0.036   1.415  0.2758 -0.2848 -0.5416
  753MOL0     C 1556   2.299   0.070   1.331  0.4376  0.3233 -0.0234
  753MOL0     C 1557   2.145   0.090   1.324 -1.0310  0.3564 -0.1074
  753MOL0     C 1558   2.103   0.125   1.472 -0.2721 -0.2592  0.1528
  753MOL0     C 1559   1.949   0.163   1.469  0.0954 -0.2271  0.4281
  753MOL0     C 1560   1.904   0.213   1.607  0.5304  0.2237  0.9230
  753MOL0     C 1561   1.772   0.287   1.593  0.4486 -0.9311 -0.8872
  753MOL0     C 1562   1.732   0.324   1.740  0.3088 -0.1469  0.2022
  753MOL0     C 1563   1.615   0.418   1.714 -0.4630 -0.1038 -0.5614
  753MOL0    Cl 1564   1.673   0.583   1.688 -0.5027  0.0660 -0.1397
  753MOL0     C 1565   2.562  -0.033   1.354  0.2071 -0.0380  0.8701
  753MOL0     C 1566   2.687  -0.094   1.370  0.2500  0.6381  0.3880
  753MOL0     O 1567   2.810  -0.288   1.725  0.4294  0.0627 -0.2925
  753MOL0     C 1568   3.110  -0.208   1.539 -0.3523  1.0427  0.6795
  753MOL0     C 1569   3.245  -0.177   1.556  0.3354  0.5013  0.3286
  753MOL0     N 1570   3.920   0.157   1.403  0.7075  0.2782 -0.1190
  753MOL0     N 1571   4.024   0.206   1.340  0.4060 -0.0701  0.0065
  753MOL0     C 1572   3.712   0.713   1.598 -0.2368 -0.3254 -0.2811
  753MOL0     C 1573   3.579   0.727   1.643 -0.3087 -0.2472 -0.0125
  753MOL0     C 1574   3.139   0.750   1.649 -0.6643  1.1643 -0.1260
  753MOL0     C 1575   3.028   0.783   1.570  0.5074  1.2346  0.8331
  753MOL0     C 1576   2.904   0.807   1.626  0.2335 -0.1075  0.6030
  753MOL0     C 1577   2.872   0.769   1.755 -0.1510  0.2861  0.1669
  753MOL0     O 1578   2.751   0.791   1.820  0.1595 -0.1642  0.2986
  753MOL0     C 1579   2.622   0.780   1.758 -0.7285 -0.2063  0.5563
  753MOL0     C 1580   2.603   0.632   1.720 -0.0395 -0.3133 -0.0479
  753MOL0     C 1581   2.470   0.603   1.626 -0.4089 -0.2819 -0.1832
  753MOL0     C 1582   2.466   0.451   1.589  0.3555  0.5247 -0.2725
  753MOL0     C 1583   2.581   0.415   1.503  1.2085 -0.7145  0.6574
  753MOL0     C 1584   2.666   0.393   1.424 -0.1583  0.1755  0.5449
  753MOL0     C 1585   2.985   0.733   1.830 -0.0334 -0.4747 -0.5365
  753MOL0     C 1586   3.116   0.727   1.783  1.0692  0.2940 -0.4116
  753MOL0     C 1587   3.223   0.666   1.865 -1.1923  0.0234 -0.0119
  753MOL0     H 1588   3.477   0.988   1.457 -1.3019  0.1514 -0.8149
  753MOL0     H 1589   3.699   0.992   1.400 -1.4743  0.7125 -0.3218
  753MOL0     H 1590   3.868   0.763   1.279 -1.0691  1.7957 -0.2894
  753MOL0     H 1591   3.903   0.928   1.314 -0.7306 -0.2582  0.0125
  753MOL0     H 1592   4.123   0.864   1.409 -0.7031  0.6504 -0.7573
  753MOL0     H 1593   4.104   0.853   1.238  4.6594 -0.9591  0.3045
  753MOL0     H 1594   4.083   0.592   1.276 -1.5516 -0.7933  0.4632
  753MOL0     H 1595   4.083   0.609   1.447  0.5273  1.7509 -0.3438
  753MOL0     H 1596   4.300   0.696   1.256 -0.5531  3.0273  0.2562
  753MOL0     H 1597   4.310   0.726   1.426 -1.2787 -0.6190  0.2995
  753MOL0     H 1598   4.432   0.532   1.379  0.3460  1.4667 -2.0999
  753MOL0     H 1599   4.302   0.508   1.500  0.0418  0.5844 -0.7480
  753MOL0     H 1600   4.162   0.401   1.315 -0.6239 -2.3068  2.1983
  753MOL0     H 1601   4.302   0.415   1.214  2.6909 -1.6158  0.8863
  753MOL0     H 1602   4.368   0.272   1.463  0.5435  1.6724 -0.1988
  753MOL0     H 1603   4.441   0.273   1.313  0.0915  1.5786  0.2870
  753MOL0     H 1604   4.272   0.134   1.203 -0.9977  2.1690 -0.3360
  753MOL0     H 1605   4.333   0.071   1.365 -1.0826 -1.0469  0.6598
  753MOL0     H 1606   4.159  -0.025   1.536  1.4637  0.0665 -1.2712
  753MOL0     H 1607   3.912  -0.104   1.600 -0.5642  0.1280 -0.3784
  753MOL0     H 1608   3.877   0.045   1.705 -3.9932 -0.4191  1.8485
  753MOL0     H 1609   3.701   0.095   1.540 -0.3675  0.0137  2.9128
  753MOL0     H 1610   3.718  -0.068   1.467 -2.0280 -0.5075  0.5054
  753MOL0     H 1611   3.615   0.008   1.743  0.2107  1.7896 -1.1337
  753MOL0     H 1612   3.689  -0.152   1.697  0.6893 -0.3777 -0.0061
  753MOL0     H 1613   3.524  -0.157   1.508 -1.8771 -0.0597 -0.6662
  753MOL0     H 1614   3.439  -0.017   1.596 -0.4416  0.0766  0.8166
  753MOL0     H 1615   3.280  -0.307   1.867  0.4088 -1.2936 -0.6450
  753MOL0     H 1616   3.041  -0.345   1.837 -0.0548  0.6169 -0.1475
  753MOL0     H 1617   2.611  -0.325   1.602 -3.3437 -0.7069  0.4830
  753MOL0     H 1618   2.392  -0.231   1.566 -0.0417  0.3075  0.8679
  753MOL0     H 1619   2.346   0.161   1.368  2.9365 -0.4499 -1.0960
  753MOL0     H 1620   2.334   0.046   1.230 -1.2427 -1.4568 -0.2416
  753MOL0     H 1621   2.125   0.175   1.258 -0.0540  1.7788  1.3477
  753MOL0     H 1622   2.102   0.000   1.278  3.0929 -0.8850 -2.0357
  753MOL0     H 1623   2.108   0.038   1.538  1.2301  1.2018  2.0977
  753MOL0     H 1624   2.159   0.206   1.520 -3.7537  1.5185  1.5302
  753MOL0     H 1625   1.895   0.077   1.428  1.4782 -0.7392 -0.3994
  753MOL0     H 1626   1.942   0.239   1.391  1.0672 -0.7138 -0.1572
  753MOL0     H 1627   1.985   0.278   1.642  1.7458 -0.6210 -0.1794
  753MOL0     H 1628   1.897   0.126   1.674 -1.0535 -0.6311 -0.2765
  753MOL0     H 1629   1.783   0.377   1.531 -0.9745 -0.0792  0.0549
  753MOL0     H 1630   1.694   0.225   1.548 -0.7883 -1.2015  1.5045
  753MOL0     H 1631   1.804   0.372   1.807 -0.4924  0.7761  0.4149
  753MOL0     H 1632   1.694   0.228   1.778  1.0614 -0.9486 -0.9795
  753MOL0     H 1633   1.556   0.382   1.629 -2.7305  0.9041  0.5090
  753MOL0     H 1634   1.544   0.410   1.797 -0.2369 -0.7347 -0.4167
  753MOL0     H 1635   2.555   0.057   1.294  1.1466  0.7410  1.8876
  753MOL0     H 1636   2.767  -0.042   1.318  0.0948  1.4084  0.8969
  753MOL0     H 1637   3.059  -0.167   1.452  1.3848  0.0613 -0.8798
  753MOL0     H 1638   3.295  -0.131   1.471 -3.9462 -0.7530 -3.2098
  753MOL0     H 1639   3.789   0.646   1.634 -0.6268 -1.7460 -1.9638
  753MOL0     H 1640   3.549   0.670   1.730  2.8129  1.7800  2.6155
  753MOL0     H 1641   3.047   0.798   1.464 -0.6917  1.0955  0.5779
  753MOL0     H 1642   2.818   0.836   1.566 -0.0585 -0.5162  0.8181
  753MOL0     H 1643   2.623   0.848   1.672 -1.8723  2.3565  2.4195
  753MOL0     H 1644   2.552   0.814   1.835 -0.7336  2.5901 -0.5541
  753MOL0     H 1645   2.600   0.566   1.807 -0.7160 -0.1605  0.0496
  753MOL0     H 1646   2.689   0.595   1.663 -0.8739 -0.9509 -0.9500
  753MOL0     H 1647   2.465   0.663   1.535  2.5150 -0.8306 -0.8261
  753MOL0     H 1648   2.380   0.624   1.684 -2.2409  0.5326 -3.1402
  753MOL0     H 1649   2.459   0.393   1.682  2.8072  1.5953  0.6620
  753MOL0     H 1650   2.373   0.422   1.539  0.3279  0.4815 -0.1972
  753MOL0     H 1651   2.737   0.356   1.352  0.9722 -1.9809  2.5912
  753MOL0     H 1652   2.980   0.714   1.936  2.0464 -1.9854 -0.6420
  753MOL0     H 1653   3.258   0.742   1.936 -0.1556 -3.1980  3.2047
  753MOL0     H 1654   3.188   0.578   1.919  0.5050  1.0058  2.9233
  753MOL0     H 1655   3.309   0.631   1.808  0.8626  0.1864  2.8022
  754MOL0     O 1656   5.029   2.861   2.940  0.9459  0.2267 -0.6544
  754MOL0     C 1657   4.915   2.801   2.939 -0.6054  0.7096  0.6459
  754MOL0     O 1658   4.887   2.702   2.851  0.2800 -0.6515  0.3170
  754MOL0     C 1659   4.958   2.675   2.739  0.2008 -0.3943  0.0490
  754MOL0     C 1660   5.102   2.654   2.741  0.2847  0.3804 -0.2083
  754MOL0     C 1661   5.174   2.649   2.624 -0.0202 -0.1740 -0.0760
  754MOL0     C 1662   5.104   2.670   2.496 -0.2016  0.0817 -0.5106
  754MOL0     O 1663   5.152   2.695   2.372  0.2167  0.0263 -0.6644
  754MOL0     C 1664   5.275   2.779   2.362  0.6565  0.6672  0.5228
  754MOL0     C 1665   5.386   2.700   2.293 -0.0150  0.1764 -0.1054
  754MOL0     C 1666   5.519   2.774   2.313 -0.0008 -0.3704 -0.4307
  754MOL0     C 1667   5.625   2.705   2.213  0.1643  0.3697 -0.1376
  754MOL0     C 1668   5.768   2.737   2.247 -0.5483 -0.0926  0.4080
  754MOL0     C 1669   5.877   2.659   2.170  0.0622 -0.5740 -0.0346
  754MOL0     C 1670   6.015   2.697   2.221  0.0303  0.7724 -0.3044
  754MOL0     C 1671   6.128   2.610   2.167  0.5803 -0.5112 -0.2934
  754MOL0     N 1672   6.168   2.651   2.031  0.2837  0.3746 -0.1538
  754MOL0     C 1673   6.280   2.728   2.009  0.3246  0.0925  0.4966
  754MOL0     C 1674   6.301   2.714   1.879 -0.2891  0.0198 -0.3634
  754MOL0     C 1675   6.419   2.752   1.792 -0.3289  0.3291  0.0829
  754MOL0     C 1676   6.543   2.676   1.829 -0.8413  0.3717 -0.7202
  754MOL0     C 1677   6.555   2.540   1.764 -0.6066 -0.2316 -0.4361
  754MOL0     C 1678   6.650   2.454   1.839  0.1569  0.4525  0.9344
  754MOL0     O 1679   6.780   2.463   1.772  0.4240  1.0423  0.3028
  754MOL0     C 1680   6.886   2.456   1.853 -0.4717 -0.2695  0.6458
  754MOL0     C 1681   6.923   2.571   1.921 -1.2690  0.0135  0.7195
  754MOL0     C 1682   7.044   2.559   1.995  0.6668  0.2238  0.6446
  754MOL0     C 1683   7.120   2.440   2.004  0.1275  0.5557 -0.0459
  754MOL0     C 1684   7.245   2.436   2.084  0.0603  0.3465 -0.0356
  754MOL0     O 1685   7.328   2.328   2.065 -0.3574  0.1618 -0.3243
  754MOL0     C 1686   7.460   2.316   2.124 -0.4017  0.0958 -0.4719
  754MOL0     C 1687   7.564   2.385   2.072 -0.7475  0.6128 -0.1218
  754MOL0     C 1688   7.693   2.392   2.134  0.3574  0.1764  0.1398
  754MOL0     C 1689   7.719   2.310   2.247  0.2103 -0.1714 -0.2443
  754MOL0     O 1690   7.850   2.305   2.289  0.2656 -0.5834  0.1698
  754MOL0     C 1691   7.890   2.218   2.400  0.0877  0.0585 -0.3294
  754MOL0     C 1692   8.044   2.251   2.415  0.5204  0.4239 -0.0991
  754MOL0     C 1693   8.103   2.161   2.523 -0.1234 -0.6914  0.5195
  754MOL0     C 1694   8.128   2.009   2.481  0.6100 -0.2230 -0.1882
  754MOL0     C 1695   8.279   1.969   2.493  0.4440  0.6953 -0.5062
  754MOL0     C 1696   8.364   2.032   2.377  0.7816 -0.0824  0.4465
  754MOL0     C 1697   8.512   2.065   2.413  0.6773 -0.9464  0.2317
  754MOL0     C 1698   8.607   1.984   2.327 -0.4009 -0.0627  0.6968
  754MOL0    Cl 1699   8.600   2.055   2.151 -0.0805  0.0749  0.0454
  754MOL0     C 1700   7.608   2.243   2.305 -0.5291 -0.1728  0.0140
  754MOL0     C 1701   7.477   2.242   2.244 -0.4537  0.1210 -0.1354
  754MOL0     O 1702   7.261   2.530   2.165  0.0254 -0.4870  0.2393
  754MOL0     C 1703   7.082   2.324   1.934  0.6260 -1.2234  0.4690
  754MOL0     C 1704   6.966   2.342   1.854  0.2411 -0.0037  0.1217
  754MOL0     N 1705   6.202   2.632   1.820 -0.0249  0.0542 -0.3163
  754MOL0     N 1706   6.130   2.586   1.917  0.2311 -0.4468  0.1826
  754MOL0     C 1707   4.962   2.671   2.493 -0.6824  0.4381  0.5089
  754MOL0     C 1708   4.892   2.688   2.611 -0.2516  0.2135 -1.0139
  754MOL0     C 1709   4.819   2.829   3.051 -0.3404  0.0923  0.1476
  754MOL0     C 1710   4.814   2.960   3.090  0.1009 -0.3786  0.0027
  754MOL0     C 1711   4.725   3.008   3.181 -0.3636 -0.6787 -0.8143
  754MOL0     C 1712   4.631   2.923   3.237 -0.2777 -0.5932 -0.2827
  754MOL0     O 1713   4.539   2.994   3.309 -0.1803 -0.3664 -0.0799
  754MOL0     C 1714   4.463   2.928   3.412 -0.3709 -0.5642 -0.2612
  754MOL0     C 1715   4.333   2.868   3.362 -0.6691  1.3378 -0.1067
  754MOL0     C 1716   4.226   2.981   3.332  0.2728  0.7697 -0.3336
  754MOL0     C 1717   4.172   3.038   3.461  0.1799  0.5595  0.5225
  754MOL0     C 1718   4.064   3.133   3.431  0.5423 -0.6967  0.0539
  754MOL0     C 1719   3.976   3.199   3.399  0.6477  1.2224  0.2202
  754MOL0     C 1720   4.637   2.783   3.205 -0.0150 -0.6917  0.7876
  754MOL0     C 1721   4.733   2.734   3.115 -0.2092 -0.5504 -0.3688
  754MOL0     C 1722   4.749   2.586   3.087 -0.6751 -0.3272  0.7524
  754MOL0     H 1723   5.161   2.639   2.831  2.1284 -0.3126 -1.4805
  754MOL0     H 1724   5.281   2.634   2.639 -0.0491  0.0088  0.3258
  754MOL0     H 1725   5.239   2.864   2.304  0.7062  0.2634 -0.1027
  754MOL0     H 1726   5.306   2.812   2.462  1.4998 -2.0235  1.2424
  754MOL0     H 1727   5.359   2.684   2.188 -2.3078  1.7447  0.1621
  754MOL0     H 1728   5.400   2.602   2.340  1.7185 -0.7883 -2.4553
  754MOL0     H 1729   5.543   2.760   2.419  0.1628 -0.2367 -0.4512
  754MOL0     H 1730   5.503   2.878   2.286 -2.2164 -1.2445 -2.8536
  754MOL0     H 1731   5.613   2.598   2.231  1.4862  0.0011 -1.2720
  754MOL0     H 1732   5.615   2.722   2.105 -1.9045  1.1331  0.1344
  754MOL0     H 1733   5.770   2.846   2.239 -0.0843  0.0149  1.7926
  754MOL0     H 1734   5.776   2.716   2.354 -0.7213 -0.8918  0.2660
  754MOL0     H 1735   5.855   2.553   2.191 -0.4625 -0.6082 -0.7452
  754MOL0     H 1736   5.863   2.678   2.064 -0.3011  2.1033  0.4413
  754MOL0     H 1737   6.018   2.698   2.331  1.8072  3.4465 -0.2796
  754MOL0     H 1738   6.041   2.802   2.202  0.9808  0.9963  1.9321
  754MOL0     H 1739   6.209   2.617   2.240  1.2457  0.5685 -1.0899
  754MOL0     H 1740   6.108   2.503   2.164  2.2912 -0.8826  0.3926
  754MOL0     H 1741   6.338   2.777   2.086  2.2129  0.3159 -0.9592
  754MOL0     H 1742   6.402   2.737   1.685  0.1128  0.1262  0.0354
  754MOL0     H 1743   6.430   2.860   1.807  1.0349  0.4966 -1.7422
  754MOL0     H 1744   6.631   2.737   1.802 -1.6185  0.6407 -2.8953
  754MOL0     H 1745   6.547   2.662   1.937  1.2016  2.4194 -0.4548
  754MOL0     H 1746   6.578   2.552   1.658 -2.9404  3.1931 -0.7207
  754MOL0     H 1747   6.461   2.488   1.783 -0.1241 -1.3213 -0.9672
  754MOL0     H 1748   6.622   2.349   1.827 -2.0387  1.2457 -2.2960
  754MOL0     H 1749   6.655   2.481   1.945 -0.5037  0.4200  0.9771
  754MOL0     H 1750   6.853   2.653   1.918 -0.3984  0.7644  0.5475
  754MOL0     H 1751   7.072   2.655   2.039  0.6063  0.2569  0.6106
  754MOL0     H 1752   7.551   2.438   1.978  0.0131 -0.3758 -0.8023
  754MOL0     H 1753   7.760   2.464   2.086 -1.3177  3.2092  2.0484
  754MOL0     H 1754   7.843   2.243   2.496  0.6663  1.5433 -0.4027
  754MOL0     H 1755   7.874   2.117   2.364 -1.8082  0.8740 -1.9445
  754MOL0     H 1756   8.086   2.236   2.315  0.3589 -1.4731  0.0765
  754MOL0     H 1757   8.056   2.357   2.435  0.8519  0.7900 -2.0755
  754MOL0     H 1758   8.195   2.207   2.561 -1.3724  0.1592  2.6993
  754MOL0     H 1759   8.039   2.176   2.610  0.7009  0.0011  1.0267
  754MOL0     H 1760   8.084   1.984   2.384 -3.0002 -1.5881  1.6329
  754MOL0     H 1761   8.076   1.947   2.554 -0.6520  0.4560 -0.4840
  754MOL0     H 1762   8.288   1.860   2.485 -0.6626  0.5374  0.2199
  754MOL0     H 1763   8.310   1.992   2.595  0.5967 -2.0561  0.1479
  754MOL0     H 1764   8.347   1.981   2.283  1.1074  0.8128 -0.1146
  754MOL0     H 1765   8.315   2.127   2.354  0.5248  0.7348  3.8230
  754MOL0     H 1766   8.518   2.051   2.521 -1.4516  2.1559  0.8832
  754MOL0     H 1767   8.540   2.170   2.401 -1.5300 -0.3771 -0.4392
  754MOL0     H 1768   8.709   1.993   2.367  1.8732 -1.5310 -4.0868
  754MOL0     H 1769   8.580   1.878   2.321 -1.1079  0.0872  1.1774
  754MOL0     H 1770   7.624   2.182   2.393 -2.1561  0.0050  0.4661
  754MOL0     H 1771   7.391   2.184   2.274 -2.2613  0.4644 -4.0120
  754MOL0     H 1772   7.150   2.240   1.927  1.8520 -0.3302  1.2975
  754MOL0     H 1773   6.941   2.259   1.788 -1.5548  1.6889 -1.4495
  754MOL0     H 1774   4.902   2.672   2.402  0.1818 -0.9436 -0.1059
  754MOL0     H 1775   4.787   2.713   2.602 -0.3445 -0.1241 -0.8801
  754MOL0     H 1776   4.878   3.032   3.040  1.9182 -0.5683  1.9219
  754MOL0     H 1777   4.744   3.114   3.194  2.0607 -1.2608  1.1213
  754MOL0     H 1778   4.443   2.996   3.495  0.5124  1.4981 -1.6699
  754MOL0     H 1779   4.532   2.849   3.446  2.2862  2.0569  0.8689
  754MOL0     H 1780   4.316   2.783   3.429  0.2874  0.8821 -0.4176
  754MOL0     H 1781   4.338   2.805   3.272  0.3043  1.5903 -0.2325
  754MOL0     H 1782   4.143   2.928   3.284  1.3951 -2.2283  0.8407
  754MOL0     H 1783   4.271   3.057   3.266 -2.9605  1.1972 -2.2823
  754MOL0     H 1784   4.123   2.961   3.521  1.3414  0.9240  1.9877
  754MOL0     H 1785   4.237   3.079   3.539  1.2433  0.8702 -0.5068
  754MOL0     H 1786   3.882   3.249   3.390  0.3505  0.6480  0.0288
  754MOL0     H 1787   4.563   2.715   3.247 -0.5652 -1.1674 -0.8687
  754MOL0     H 1788   4.672   2.535   3.144 -1.1339 -0.9211 -0.3771
  754MOL0     H 1789   4.728   2.570   2.981  0.5147  2.1827  0.0613
  754MOL0     H 1790   4.853   2.555   3.105 -0.3056  1.6014  2.3200
  755MOL0     O 1791   6.422   5.783   3.215 -0.0599 -0.3648 -0.6825
  755MOL0     C 1792   6.386   5.851   3.308 -1.2090  0.1055  0.5168
  755MOL0     O 1793   6.466   5.924   3.388  0.0530 -0.8609  0.1048
  755MOL0     C 1794   6.603   5.895   3.409  0.0320 -0.9774  0.2180
  755MOL0     C 1795   6.662   5.771   3.415 -0.4634  0.2756 -0.4123
  755MOL0     C 1796   6.801   5.755   3.439  0.6281 -0.7107  0.3764
  755MOL0     C 1797   6.883   5.865   3.463 -0.3087 -0.0718  0.6189
  755MOL0     O 1798   7.021   5.840   3.472 -0.2897  0.3990  0.5159
  755MOL0     C 1799   7.088   5.897   3.585  0.9697 -0.3400 -0.2440
  755MOL0     C 1800   7.072   5.820   3.719 -0.8921 -0.0369  0.3762
  755MOL0     C 1801   7.096   5.668   3.709 -0.1704 -0.1729 -0.0525
  755MOL0     C 1802   7.249   5.652   3.725  0.2517 -0.1622 -0.2089
  755MOL0     C 1803   7.278   5.522   3.795  0.5789  0.2973 -0.4718
  755MOL0     C 1804   7.426   5.495   3.810  0.5429  0.0709  0.1241
  755MOL0     C 1805   7.480   5.457   3.669  1.4640  0.4671  0.6594
  755MOL0     C 1806   7.604   5.365   3.680  0.8008  1.0078 -0.2669
  755MOL0     N 1807   7.718   5.434   3.734 -0.0379  1.0431  0.8013
  755MOL0     C 1808   7.749   5.466   3.863 -0.2647  0.2046  0.1947
  755MOL0     C 1809   7.876   5.522   3.846  0.2416 -0.8428  0.5760
  755MOL0     C 1810   7.968   5.558   3.959  0.5654  0.0888  0.0845
  755MOL0     C 1811   8.056   5.447   4.002  0.3803 -0.0221 -0.4147
  755MOL0     C 1812   8.179   5.428   3.920  0.0308  0.0700  0.1173
  755MOL0     C 1813   8.283   5.539   3.921  0.5458 -0.6318  0.1522
  755MOL0     O 1814   8.344   5.540   4.048 -0.3160  0.5903  0.3115
  755MOL0     C 1815   8.459   5.606   4.094  0.4026  0.0138 -0.3621
  755MOL0     C 1816   8.488   5.587   4.232 -0.4644  0.1106 -0.1008
  755MOL0     C 1817   8.612   5.628   4.279 -0.5278 -0.1136 -0.6816
  755MOL0     C 1818   8.697   5.708   4.192 -0.3021  0.3774  0.0008
  755MOL0     C 1819   8.813   5.771   4.250 -0.1943 -0.5177 -0.1345
  755MOL0     O 1820   8.917   5.784   4.172  0.9210  0.3053  0.2075
  755MOL0     C 1821   9.015   5.873   4.216 -0.5607  0.5362 -0.2098
  755MOL0     C 1822   9.120   5.820   4.291  0.6883 -0.4188  0.4324
  755MOL0     C 1823   9.223   5.898   4.328 -0.1851 -0.3155 -0.8451
  755MOL0     C 1824   9.220   6.041   4.309 -0.4446  0.3091 -0.0482
  755MOL0     O 1825   9.322   6.121   4.371  1.3497 -0.0207 -0.6781
  755MOL0     C 1826   9.297   6.266   4.386 -0.4216  0.4111 -0.3851
  755MOL0     C 1827   9.383   6.310   4.500  0.0435 -0.1711  0.2852
  755MOL0     C 1828   9.395   6.468   4.500 -1.1216 -0.1918 -0.4820
  755MOL0     C 1829   9.498   6.521   4.598 -0.0515  0.6253  0.5357
  755MOL0     C 1830   9.577   6.637   4.536 -0.0080  0.2697 -0.3668
  755MOL0     C 1831   9.720   6.596   4.478 -0.0928  0.7766 -0.1217
  755MOL0     C 1832   9.821   6.595   4.593 -0.7008  0.5786  0.6292
  755MOL0     C 1833   9.935   6.501   4.555 -0.1816 -0.2391  0.6103
  755MOL0    Cl 1834   9.988   6.543   4.391  0.3959 -0.0143  0.0319
  755MOL0     C 1835   9.117   6.090   4.229 -0.6154  0.1677  0.4602
  755MOL0     C 1836   9.012   6.009   4.182  0.2565  0.2030  0.0028
  755MOL0     O 1837   8.809   5.811   4.367  0.0648 -0.2032  0.2525
  755MOL0     C 1838   8.659   5.736   4.060  1.4024 -0.7899  0.3599
  755MOL0     C 1839   8.533   5.697   4.016 -0.0676  0.0200 -0.5229
  755MOL0     N 1840   7.919   5.515   3.715  0.1804  0.2178  0.1742
  755MOL0     N 1841   7.821   5.458   3.648  0.1566 -0.3879  0.6019
  755MOL0     C 1842   6.825   5.993   3.457 -0.3840  0.0229  0.1925
  755MOL0     C 1843   6.686   6.004   3.437 -0.5605 -0.2783 -0.9919
  755MOL0     C 1844   6.247   5.875   3.317  0.0413  0.1213  0.7526
  755MOL0     C 1845   6.205   6.000   3.352  0.5687  0.4585  0.1832
  755MOL0     C 1846   6.067   6.039   3.355 -0.1796  0.2756 -0.4187
  755MOL0     C 1847   5.971   5.941   3.336  1.2715 -0.0453  0.1692
  755MOL0     O 1848   5.844   5.978   3.360  0.4097 -0.1706 -0.8290
  755MOL0     C 1849   5.740   5.876   3.363  0.0565 -0.2563 -0.2292
  755MOL0     C 1850   5.605   5.943   3.411  0.2828 -0.3817  0.6118
  755MOL0     C 1851   5.607   5.998   3.557 -0.0783 -0.1771  0.4816
  755MOL0     C 1852   5.668   5.904   3.660  0.1466  0.2559 -0.1882
  755MOL0     C 1853   5.643   5.959   3.800 -0.2375  0.1409  0.8009
  755MOL0     C 1854   5.637   5.999   3.915  0.5309  0.2991  0.3687
  755MOL0     C 1855   6.012   5.813   3.302  0.3431 -0.4580  0.0417
  755MOL0     C 1856   6.144   5.773   3.301  0.1967 -0.3859 -0.5661
  755MOL0     C 1857   6.166   5.633   3.258  0.5397  0.7525  0.6082
  755MOL0     H 1858   6.597   5.684   3.405 -1.0436  0.8584 -1.9522
  755MOL0     H 1859   6.857   5.661   3.434  1.7987 -0.0590  0.8659
  755MOL0     H 1860   7.194   5.918   3.570  1.7424 -1.9150  2.3172
  755MOL0     H 1861   7.037   5.993   3.596 -0.2758 -0.5697 -3.1563
  755MOL0     H 1862   6.970   5.821   3.758 -1.1923 -1.9100 -0.2351
  755MOL0     H 1863   7.124   5.879   3.795  0.5022  1.7009 -1.7831
  755MOL0     H 1864   7.055   5.631   3.615 -1.6491  0.1718  0.4178
  755MOL0     H 1865   7.055   5.614   3.795  3.0270  0.7442  2.2494
  755MOL0     H 1866   7.291   5.656   3.624 -0.8231  0.5360 -0.6529
  755MOL0     H 1867   7.281   5.731   3.794 -0.7536 -0.4474  0.6232
  755MOL0     H 1868   7.233   5.514   3.894  0.2272 -0.4632 -0.6868
  755MOL0     H 1869   7.225   5.434   3.758 -1.6143  0.9492  0.8763
  755MOL0     H 1870   7.474   5.587   3.847  1.5248 -0.7333  0.9155
  755MOL0     H 1871   7.447   5.420   3.887  0.2974  0.2027  0.3240
  755MOL0     H 1872   7.512   5.544   3.611  1.7739 -0.1235 -0.0680
  755MOL0     H 1873   7.403   5.409   3.608  2.1404 -0.2911  0.3714
  755MOL0     H 1874   7.580   5.281   3.746 -1.5580 -0.3066 -2.6012
  755MOL0     H 1875   7.624   5.317   3.583 -1.9133 -0.6542 -0.0873
  755MOL0     H 1876   7.697   5.452   3.957  1.5653  0.0827  1.2357
  755MOL0     H 1877   8.029   5.646   3.939 -0.4904  0.5715 -1.1690
  755MOL0     H 1878   7.916   5.590   4.049  0.9758  2.8021 -0.5527
  755MOL0     H 1879   8.083   5.457   4.107 -0.3791 -1.7668 -0.0047
  755MOL0     H 1880   7.997   5.355   3.989  0.0314  0.4205 -2.3103
  755MOL0     H 1881   8.150   5.411   3.816  1.8744 -0.3137 -0.3707
  755MOL0     H 1882   8.235   5.341   3.955 -2.2524 -1.5532 -0.0743
  755MOL0     H 1883   8.230   5.627   3.885 -0.6519 -2.2576 -2.3249
  755MOL0     H 1884   8.354   5.522   3.840 -1.3429 -2.9197 -1.1466
  755MOL0     H 1885   8.402   5.546   4.283 -2.9000  3.7023 -0.9699
  755MOL0     H 1886   8.637   5.603   4.382  0.9420 -0.4318 -1.0869
  755MOL0     H 1887   9.120   5.714   4.313  1.3914 -1.1027 -2.4389
  755MOL0     H 1888   9.300   5.858   4.392  0.1510  2.2304  0.4475
  755MOL0     H 1889   9.322   6.316   4.292  0.6229 -0.5855 -0.6582
  755MOL0     H 1890   9.197   6.286   4.427 -0.3114  1.0964 -0.4460
  755MOL0     H 1891   9.338   6.273   4.592  1.8030 -3.8626 -0.1532
  755MOL0     H 1892   9.485   6.272   4.491  1.8497  4.2705 -0.9671
  755MOL0     H 1893   9.426   6.501   4.400  1.1463  3.2951  1.1765
  755MOL0     H 1894   9.296   6.513   4.514 -0.9707 -0.3347  1.2869
  755MOL0     H 1895   9.564   6.436   4.619  1.3708  2.0511  2.1276
  755MOL0     H 1896   9.442   6.545   4.689 -2.7417 -1.0140 -0.5809
  755MOL0     H 1897   9.591   6.709   4.617 -0.1892 -0.4832  0.3512
  755MOL0     H 1898   9.521   6.691   4.459  0.7650  0.6481 -0.6768
  755MOL0     H 1899   9.727   6.510   4.411  2.8438  1.1670 -0.4421
  755MOL0     H 1900   9.740   6.676   4.406 -0.2894  0.3484 -0.6608
  755MOL0     H 1901   9.778   6.561   4.687 -1.8548 -0.0632 -0.1042
  755MOL0     H 1902   9.870   6.693   4.596  1.3417 -0.3818  0.2770
  755MOL0     H 1903  10.018   6.520   4.625 -0.4004  1.6998  0.4152
  755MOL0     H 1904   9.906   6.396   4.550  0.8592 -0.5571 -4.5880
  755MOL0     H 1905   9.121   6.193   4.193  2.9632 -0.0767 -0.2042
  755MOL0     H 1906   8.925   6.040   4.126 -2.0064  0.8264  3.5601
  755MOL0     H 1907   8.709   5.809   3.997  0.7575  0.7000  1.5340
  755MOL0     H 1908   8.510   5.727   3.915  0.3039 -1.0513 -0.9408
  755MOL0     H 1909   6.884   6.084   3.465  2.8275 -1.8757 -0.0614
  755MOL0     H 1910   6.645   6.104   3.427 -0.3287 -0.0233  0.4487
  755MOL0     H 1911   6.276   6.081   3.367 -2.2857  3.1949 -0.0677
  755MOL0     H 1912   6.041   6.140   3.385 -1.1117 -0.0128 -0.2317
  755MOL0     H 1913   5.760   5.788   3.424  1.4685 -0.6834 -1.2521
  755MOL0     H 1914   5.716   5.842   3.262 -0.3094 -0.9113  0.0757
  755MOL0     H 1915   5.522   5.872   3.400  0.1909 -0.2116  0.1702
  755MOL0     H 1916   5.587   6.029   3.346  3.0669 -1.2864 -1.5881
  755MOL0     H 1917   5.505   6.030   3.582 -1.0252 -1.4666 -1.4916
  755MOL0     H 1918   5.672   6.085   3.555 -1.6005  1.0038 -1.8674
  755MOL0     H 1919   5.616   5.810   3.642 -2.5777  2.1002 -3.0344
  755MOL0     H 1920   5.776   5.891   3.649 -0.1003 -0.8484 -1.6310
  755MOL0     H 1921   5.624   6.036   4.014  1.6852  1.8700 -0.0158
  755MOL0     H 1922   5.924   5.762   3.266 -1.6438  0.9609  2.5083
  755MOL0     H 1923   6.213   5.640   3.159 -0.9256  0.6741 -0.1258
  755MOL0     H 1924   6.230   5.576   3.325  0.8149  0.1639 -0.1402
  755MOL0     H 1925   6.072   5.580   3.240  1.9690 -1.8279  0.4047
  756MOL0     O 1926   2.272   7.436  10.436 -0.0010 -0.5689 -0.3353
  756MOL0     C 1927   2.177   7.522  10.437  1.1086  1.3251 -0.5972
  756MOL0     O 1928   2.190   7.649  10.397 -0.1993  0.1735  0.3474
  756MOL0     C 1929   2.313   7.699  10.351  0.2787  1.0739 -1.0914
  756MOL0     C 1930   2.395   7.644  10.248  0.0382  0.2127 -0.1523
  756MOL0     C 1931   2.510   7.710  10.201  0.5877 -0.1419  0.7917
  756MOL0     C 1932   2.548   7.833  10.247  1.3455 -0.5695 -0.0997
  756MOL0     O 1933   2.657   7.887  10.197 -0.1890 -0.6841 -0.8418
  756MOL0     C 1934   2.747   7.976  10.275  0.3666  0.5253  0.5269
  756MOL0     C 1935   2.881   7.992  10.207  0.2864 -0.3563  0.6792
  756MOL0     C 1936   2.996   8.043  10.299 -0.0062  0.1569  0.5355
  756MOL0     C 1937   3.127   8.024  10.224  0.0714 -0.1608  0.3914
  756MOL0     C 1938   3.232   8.069  10.328  0.0380 -0.2961  0.1812
  756MOL0     C 1939   3.377   8.048  10.279  0.0795 -0.2151 -0.0520
  756MOL0     C 1940   3.474   8.065  10.397  1.5610  0.0147  0.2684
  756MOL0     C 1941   3.611   8.079  10.330  0.3421  0.0591 -0.1251
  756MOL0     N 1942   3.715   8.087  10.440  0.4898  0.8914 -0.0168
  756MOL0     C 1943   3.764   8.205  10.490  0.8045 -0.0489  0.0243
  756MOL0     C 1944   3.877   8.171  10.544  0.7438  0.2557 -0.5769
  756MOL0     C 1945   3.982   8.249  10.629 -0.1591  0.1499 -0.2417
  756MOL0     C 1946   4.104   8.284  10.554  0.4656  0.3250 -0.2217
  756MOL0     C 1947   4.203   8.170  10.562  0.3599  0.1271 -0.1706
  756MOL0     C 1948   4.339   8.214  10.502  0.3747 -0.5699  0.2028
  756MOL0     O 1949   4.427   8.103  10.511  0.6763  0.1642  0.8469
  756MOL0     C 1950   4.547   8.128  10.462 -0.0161  0.5924  0.5047
  756MOL0     C 1951   4.561   8.138  10.324 -0.0292  0.2251 -0.1126
  756MOL0     C 1952   4.690   8.152  10.266  0.5701 -0.8839  0.3362
  756MOL0     C 1953   4.804   8.159  10.346 -0.0909 -0.4075 -0.8253
  756MOL0     C 1954   4.943   8.167  10.295  0.1894  0.4368  0.2827
  756MOL0     O 1955   5.041   8.196  10.390  0.1070  0.6678  0.4662
  756MOL0     C 1956   5.169   8.228  10.350 -0.7442  0.0493  0.0453
  756MOL0     C 1957   5.188   8.360  10.312 -0.4027 -0.3483 -0.4437
  756MOL0     C 1958   5.307   8.405  10.268  0.6140 -0.0972 -0.3491
  756MOL0     C 1959   5.412   8.313  10.256 -0.5770  0.1390 -0.2264
  756MOL0     O 1960   5.543   8.347  10.223 -0.0428 -0.8786 -0.1310
  756MOL0     C 1961   5.582   8.492  10.204 -0.3882  0.5283  0.1808
  756MOL0     C 1962   5.733   8.499  10.182  0.0722 -0.0281  0.2826
  756MOL0     C 1963   5.819   8.429  10.301  0.0066  0.5171 -0.2897
  756MOL0     C 1964   5.973   8.420  10.271 -0.1563 -0.5150  0.2742
  756MOL0     C 1965   6.039   8.300  10.340 -0.2311 -0.4183  0.0217
  756MOL0     C 1966   6.183   8.265  10.293  0.3099 -0.8942 -0.7017
  756MOL0     C 1967   6.281   8.378  10.330 -0.3881  0.5690 -0.7793
  756MOL0     C 1968   6.417   8.314  10.309 -0.1236 -0.8118  0.1401
  756MOL0    Cl 1969   6.560   8.435  10.336  0.2218  0.4245 -0.2208
  756MOL0     C 1970   5.393   8.179  10.289 -0.0647 -0.3624 -0.4039
  756MOL0     C 1971   5.276   8.136  10.333  0.0777 -0.0966 -0.2231
  756MOL0     O 1972   4.960   8.161  10.175  0.3521  0.1218  0.8862
  756MOL0     C 1973   4.791   8.163  10.489 -0.1385 -0.2178  0.0200
  756MOL0     C 1974   4.665   8.147  10.542  1.3785  0.0259 -0.1407
  756MOL0     N 1975   3.904   8.038  10.530  0.5773 -0.4352 -0.2545
  756MOL0     N 1976   3.810   7.988  10.465  1.0552 -0.1098 -0.0091
  756MOL0     C 1977   2.460   7.891  10.344  1.0444 -0.2870  0.6654
  756MOL0     C 1978   2.352   7.827  10.399  1.2031 -0.4019  0.5566
  756MOL0     C 1979   2.030   7.476  10.456  0.3778  0.0858  0.4331
  756MOL0     C 1980   1.929   7.541  10.381 -0.2722  0.6158 -0.0301
  756MOL0     C 1981   1.797   7.493  10.385  0.8745 -0.2183  0.7389
  756MOL0     C 1982   1.768   7.385  10.461 -0.5356  0.3018  0.6426
  756MOL0     O 1983   1.640   7.358  10.506 -0.2500  0.5376 -0.0811
  756MOL0     C 1984   1.525   7.430  10.456 -0.8669  0.4544  0.3804
  756MOL0     C 1985   1.410   7.340  10.422  0.1304 -0.0292  0.4609
  756MOL0     C 1986   1.323   7.303  10.545 -0.4852  0.4502  1.0653
  756MOL0     C 1987   1.189   7.245  10.504  0.1531  0.2154  0.2769
  756MOL0     C 1988   1.108   7.348  10.431  0.8352  0.2756 -0.0755
  756MOL0     C 1989   1.038   7.436  10.382  1.1429 -0.0180 -0.4569
  756MOL0     C 1990   1.869   7.325  10.532  0.2541  0.8579 -0.2805
  756MOL0     C 1991   1.999   7.369  10.539  0.0635  0.5338 -0.7230
  756MOL0     C 1992   2.108   7.290  10.628  0.1119 -0.6611  0.7570
  756MOL0     H 1993   2.377   7.544  10.210  0.3334 -0.0022  0.2751
  756MOL0     H 1994   2.567   7.658  10.125 -1.7415 -1.1119 -0.4029
  756MOL0     H 1995   2.701   8.075  10.281  0.1303  0.4337  0.2417
  756MOL0     H 1996   2.769   7.925  10.369 -1.3985  2.2145  1.9557
  756MOL0     H 1997   2.863   8.064  10.127  0.5484 -2.4058 -1.3634
  756MOL0     H 1998   2.913   7.899  10.158  2.0753  0.8684 -0.5829
  756MOL0     H 1999   2.997   7.990  10.395  0.9208 -0.6643  0.0771
  756MOL0     H 2000   2.986   8.152  10.306  2.0978  0.6210 -2.1118
  756MOL0     H 2001   3.141   7.920  10.195  2.2217  0.6760 -1.8861
  756MOL0     H 2002   3.129   8.083  10.132  1.7519 -1.9651 -0.8179
  756MOL0     H 2003   3.219   8.177  10.339 -2.8979 -0.0979 -3.4221
  756MOL0     H 2004   3.221   8.012  10.420  5.3101  0.1544  1.4378
  756MOL0     H 2005   3.387   7.946  10.242  0.1575 -0.4611  0.6301
  756MOL0     H 2006   3.392   8.112  10.192  0.1647  0.0437  0.1521
  756MOL0     H 2007   3.465   7.981  10.466  0.7356  0.4067  0.6476
  756MOL0     H 2008   3.441   8.155  10.450 -1.6177 -1.3492  0.8426
  756MOL0     H 2009   3.626   7.986  10.275 -1.3947  0.4208 -1.3026
  756MOL0     H 2010   3.620   8.166  10.263 -0.0257 -0.2388 -0.5680
  756MOL0     H 2011   3.712   8.299  10.477  0.4202 -0.0937  1.1940
  756MOL0     H 2012   3.924   8.339  10.650 -1.8958  0.2387 -4.4042
  756MOL0     H 2013   4.011   8.191  10.717 -2.8962 -2.4009 -0.8435
  756MOL0     H 2014   4.090   8.296  10.446  1.0849  1.1952 -0.2095
  756MOL0     H 2015   4.149   8.375  10.594 -1.3763  0.2674  2.1803
  756MOL0     H 2016   4.172   8.088  10.497 -0.0969 -0.8103  1.1899
  756MOL0     H 2017   4.210   8.127  10.662 -0.9949  0.0476 -0.0912
  756MOL0     H 2018   4.385   8.295  10.560 -2.3185  0.7303  0.6596
  756MOL0     H 2019   4.328   8.248  10.398 -0.8074 -0.3267  0.3952
  756MOL0     H 2020   4.471   8.126  10.265  0.6265 -2.1468 -0.7309
  756MOL0     H 2021   4.705   8.156  10.158  0.2188  2.5355  0.3165
  756MOL0     H 2022   5.101   8.423  10.326  0.0049  0.4414 -1.3481
  756MOL0     H 2023   5.302   8.509  10.236  0.1813 -0.1256 -0.3860
  756MOL0     H 2024   5.529   8.543  10.124  0.1790 -0.6490 -0.9852
  756MOL0     H 2025   5.550   8.545  10.294  2.1875  1.7300  0.4864
  756MOL0     H 2026   5.754   8.441  10.091  0.3918 -3.1749  2.2073
  756MOL0     H 2027   5.775   8.600  10.177 -0.1716  0.0492 -0.2446
  756MOL0     H 2028   5.806   8.475  10.400  0.2680 -0.0682  0.0216
  756MOL0     H 2029   5.776   8.329  10.313 -1.1997  1.0737  0.2486
  756MOL0     H 2030   6.022   8.516  10.290 -0.3647  0.0962 -1.9674
  756MOL0     H 2031   5.982   8.397  10.165 -1.0914 -0.5713  0.1999
  756MOL0     H 2032   5.972   8.214  10.337  0.1410 -0.7211  0.2721
  756MOL0     H 2033   6.055   8.330  10.444 -0.8810  0.2338 -0.0641
  756MOL0     H 2034   6.209   8.176  10.352 -2.6628 -0.0895  2.1204
  756MOL0     H 2035   6.181   8.241  10.186  1.1164  0.5188 -1.0640
  756MOL0     H 2036   6.275   8.410  10.435  1.1083 -0.5256 -0.3240
  756MOL0     H 2037   6.264   8.466  10.267 -0.4265  2.9749  2.3428
  756MOL0     H 2038   6.430   8.226  10.372 -0.8209 -1.1421 -0.1673
  756MOL0     H 2039   6.419   8.295  10.201 -0.9733 -0.5442  0.0684
  756MOL0     H 2040   5.472   8.105  10.292 -0.1835 -0.4653  0.2814
  756MOL0     H 2041   5.250   8.033  10.358 -0.5712  0.0352 -0.3254
  756MOL0     H 2042   4.876   8.165  10.557 -0.7496  0.5721  0.7810
  756MOL0     H 2043   4.654   8.145  10.650  0.1932 -1.5804 -0.2517
  756MOL0     H 2044   2.482   7.993  10.372 -1.2379  0.9425 -1.5709
  756MOL0     H 2045   2.301   7.878  10.479 -0.8912 -1.0347 -0.3188
  756MOL0     H 2046   1.948   7.630  10.321  2.2168  0.2413  0.0839
  756MOL0     H 2047   1.730   7.562  10.334 -0.7272 -0.4940  2.3712
  756MOL0     H 2048   1.550   7.468  10.357 -0.7270  3.0151  1.3189
  756MOL0     H 2049   1.502   7.511  10.526  3.3403  1.0384  1.3401
  756MOL0     H 2050   1.443   7.242  10.386 -2.1994 -0.4947 -0.6114
  756MOL0     H 2051   1.349   7.384  10.343 -0.0994 -0.2960  0.4868
  756MOL0     H 2052   1.296   7.391  10.604 -1.0220  1.1350 -0.1577
  756MOL0     H 2053   1.386   7.230  10.596 -0.9912 -1.8941 -1.4161
  756MOL0     H 2054   1.201   7.163  10.433 -0.3596 -0.2819  0.7498
  756MOL0     H 2055   1.136   7.213  10.594 -2.1260  1.0327 -0.7010
  756MOL0     H 2056   0.975   7.516  10.348  1.5293  0.4688 -0.0419
  756MOL0     H 2057   1.844   7.242  10.596  1.8994  1.7774  1.6845
  756MOL0     H 2058   2.059   7.199  10.665 -1.0113 -0.2682  0.2979
  756MOL0     H 2059   2.189   7.255  10.563 -1.6770 -1.4581 -1.1683
  756MOL0     H 2060   2.151   7.343  10.714  0.6334 -1.3099  0.9034
  757MOL0     O 2061   5.266  10.942   0.513 -0.1103  0.0199  1.1017
  757MOL0     C 2062   5.256  11.067   0.520  0.4759  0.3026 -0.6677
  757MOL0     O 2063   5.361  11.155   0.540  0.1738 -0.2636 -0.1214
  757MOL0     C 2064   5.489  11.123   0.588 -0.2239  0.2159  1.3103
  757MOL0     C 2065   5.566  11.227   0.616 -0.4976 -0.2292  0.6612
  757MOL0     C 2066   5.699  11.211   0.660 -0.2758  0.1533 -0.4189
  757MOL0     C 2067   5.754  11.081   0.682 -0.2412 -0.3035  0.3952
  757MOL0     O 2068   5.878  11.048   0.736 -0.0746 -0.4977 -0.6744
  757MOL0     C 2069   5.939  11.148   0.817 -0.2961 -1.1492  0.2249
  757MOL0     C 2070   6.060  11.099   0.896  0.3186  0.2232 -1.1641
  757MOL0     C 2071   6.150  11.024   0.807 -0.1988  0.5545 -0.0473
  757MOL0     C 2072   6.277  10.988   0.894 -0.6424  0.0241  0.1811
  757MOL0     C 2073   6.356  10.877   0.828 -0.2907 -0.5646 -0.0352
  757MOL0     C 2074   6.432  10.926   0.694  0.5101 -0.4589 -0.0482
  757MOL0     C 2075   6.538  10.813   0.665 -0.2445  0.2446 -0.3736
  757MOL0     C 2076   6.674  10.882   0.664 -0.4886  0.2039 -0.8437
  757MOL0     N 2077   6.782  10.793   0.662  0.3933  0.5589 -0.2544
  757MOL0     C 2078   6.868  10.753   0.757 -0.4599 -0.4040  0.1236
  757MOL0     C 2079   6.942  10.650   0.703 -0.1252 -0.2897 -0.5561
  757MOL0     C 2080   7.031  10.548   0.760 -0.3721  0.0225 -0.9145
  757MOL0     C 2081   7.153  10.537   0.670 -0.0580  0.5837 -0.4812
  757MOL0     C 2082   7.221  10.411   0.709 -0.8358  0.1625 -0.1739
  757MOL0     C 2083   7.351  10.399   0.630 -0.2879 -0.4200  0.1705
  757MOL0     O 2084   7.443  10.484   0.681 -0.1591 -0.0971  0.1381
  757MOL0     C 2085   7.573  10.452   0.690 -0.4381  0.0239  1.0227
  757MOL0     C 2086   7.652  10.525   0.786  0.6298  0.2734  1.1617
  757MOL0     C 2087   7.780  10.484   0.820  0.4041 -0.4025  0.0987
  757MOL0     C 2088   7.834  10.364   0.760  0.8256 -0.3292  0.1122
  757MOL0     C 2089   7.984  10.342   0.762  0.5155  0.9777  0.6570
  757MOL0     O 2090   8.030  10.264   0.660 -0.0727  0.2860 -0.0656
  757MOL0     C 2091   8.163  10.248   0.643  0.4372 -0.7262 -0.2102
  757MOL0     C 2092   8.245  10.199   0.741 -0.4166  0.6823 -1.0613
  757MOL0     C 2093   8.382  10.179   0.731  0.1504 -0.0888  0.0036
  757MOL0     C 2094   8.442  10.203   0.607  0.1453  0.1484  0.9437
  757MOL0     O 2095   8.580  10.188   0.599 -0.0417  0.3754  0.5636
  757MOL0     C 2096   8.641  10.075   0.525 -0.1323  0.5530 -0.3050
  757MOL0     C 2097   8.741   9.997   0.598 -0.1914  0.2490 -0.0058
  757MOL0     C 2098   8.867  10.077   0.636 -0.5021  0.1122  0.2048
  757MOL0     C 2099   8.975   9.988   0.705  0.1810 -0.0562  0.2761
  757MOL0     C 2100   9.063   9.913   0.601  0.6312  0.4180  0.2341
  757MOL0     C 2101   9.185   9.844   0.659  0.6440  0.1478  0.3891
  757MOL0     C 2102   9.289   9.927   0.695  0.8786 -0.7566 -0.7769
  757MOL0     C 2103   9.416   9.853   0.759  0.6430 -0.3613 -0.2378
  757MOL0    Cl 2104   9.507   9.741   0.651 -0.1306 -0.4684  0.1454
  757MOL0     C 2105   8.367  10.240   0.498 -0.1367  0.5119 -0.0876
  757MOL0     C 2106   8.229  10.263   0.525 -0.1874  0.0326  0.0185
  757MOL0     O 2107   8.053  10.397   0.841 -0.4671 -0.0704 -0.1508
  757MOL0     C 2108   7.755  10.289   0.674 -0.2402 -0.2125 -0.7649
  757MOL0     C 2109   7.628  10.331   0.642  0.2754 -0.1971  0.0411
  757MOL0     N 2110   6.900  10.649   0.572  0.1958  0.0869  0.4653
  757MOL0     N 2111   6.804  10.729   0.542 -1.0652  0.1193 -0.4773
  757MOL0     C 2112   5.666  10.976   0.663 -0.0379  0.4384  0.6863
  757MOL0     C 2113   5.538  10.994   0.608 -0.7473 -0.5347  0.0471
  757MOL0     C 2114   5.120  11.124   0.507  0.4863  0.2970 -0.3566
  757MOL0     C 2115   5.007  11.039   0.490 -0.1933 -0.1194  0.3346
  757MOL0     C 2116   4.876  11.087   0.468  0.2134 -0.0451  0.9371
  757MOL0     C 2117   4.853  11.222   0.463 -0.1149  0.8927 -0.0101
  757MOL0     O 2118   4.715  11.258   0.456 -0.5181  1.2690 -0.1486
  757MOL0     C 2119   4.687  11.392   0.473  0.2103 -0.3042 -0.0530
  757MOL0     C 2120   4.537  11.422   0.488 -0.3479  0.2572  0.0738
  757MOL0     C 2121   4.508  11.570   0.494 -0.0757  0.1161 -0.4689
  757MOL0     C 2122   4.358  11.600   0.531 -0.0639  0.1702  1.0929
  757MOL0     C 2123   4.345  11.747   0.543 -0.5044  0.6412  0.3977
  757MOL0     C 2124   4.356  11.867   0.575 -0.1220  0.5639  0.3605
  757MOL0     C 2125   4.963  11.313   0.469  0.1654 -0.0359 -0.0120
  757MOL0     C 2126   5.088  11.270   0.483 -0.6255 -0.1062  0.1918
  757MOL0     C 2127   5.199  11.378   0.475  0.2298 -1.1078 -0.4054
  757MOL0     H 2128   5.524  11.326   0.601  0.4007  0.3608  1.8340
  757MOL0     H 2129   5.758  11.300   0.680 -1.5467  0.6850  1.1463
  757MOL0     H 2130   5.976  11.233   0.760 -0.9361 -0.2395  1.1383
  757MOL0     H 2131   5.861  11.186   0.884 -3.3157 -3.2231 -1.8315
  757MOL0     H 2132   6.028  11.033   0.977  0.4300 -0.3770 -1.6082
  757MOL0     H 2133   6.114  11.183   0.943  1.5304 -0.7567 -0.7375
  757MOL0     H 2134   6.172  11.085   0.719 -2.4485 -0.7347 -1.6204
  757MOL0     H 2135   6.098  10.930   0.787 -1.7854  0.8848  2.1610
  757MOL0     H 2136   6.341  11.076   0.892  0.5251 -0.7085 -3.7016
  757MOL0     H 2137   6.261  10.956   0.997  0.3888 -1.2820 -0.0398
  757MOL0     H 2138   6.425  10.839   0.904  0.3653 -3.2662 -1.8378
  757MOL0     H 2139   6.309  10.780   0.810  3.3528 -2.8396  1.5375
  757MOL0     H 2140   6.356  10.933   0.616 -0.0874  1.5472  0.6715
  757MOL0     H 2141   6.486  11.020   0.711  2.6146 -1.5482 -0.3560
  757MOL0     H 2142   6.516  10.768   0.567 -0.5290 -2.5595  0.8930
  757MOL0     H 2143   6.521  10.726   0.728 -0.4170 -0.1530 -0.9549
  757MOL0     H 2144   6.689  10.952   0.581  0.1438  1.5486  0.3597
  757MOL0     H 2145   6.689  10.936   0.757 -1.8669 -1.2558  0.2748
  757MOL0     H 2146   6.851  10.769   0.863 -0.0841 -1.5820  0.3855
  757MOL0     H 2147   7.079  10.579   0.854 -1.7432 -1.7667  0.4425
  757MOL0     H 2148   6.980  10.455   0.787 -0.7300  0.8670  1.5633
  757MOL0     H 2149   7.123  10.520   0.566  1.2899 -2.4410 -0.4807
  757MOL0     H 2150   7.217  10.626   0.667  2.3061 -1.0270 -0.8065
  757MOL0     H 2151   7.154  10.329   0.682 -1.3601  0.9343 -1.3315
  757MOL0     H 2152   7.258  10.403   0.811 -0.1256 -0.9490 -0.4970
  757MOL0     H 2153   7.335  10.411   0.522  1.5809 -0.9699 -0.2059
  757MOL0     H 2154   7.379  10.295   0.648 -2.8233 -0.9890  1.2924
  757MOL0     H 2155   7.611  10.612   0.837 -2.1833 -1.1396  1.5194
  757MOL0     H 2156   7.838  10.538   0.893  0.0417  0.2802 -0.1140
  757MOL0     H 2157   8.208  10.203   0.843  0.7112  1.0574 -0.6563
  757MOL0     H 2158   8.445  10.156   0.816  1.3075 -0.2647 -0.8627
  757MOL0     H 2159   8.562  10.007   0.495  0.0145  1.5490 -3.3249
  757MOL0     H 2160   8.692  10.115   0.436  0.4956  1.3747  0.4111
  757MOL0     H 2161   8.689   9.964   0.688  1.7894 -0.1023  1.0628
  757MOL0     H 2162   8.776   9.914   0.537  1.3467  2.4290 -2.3274
  757MOL0     H 2163   8.918  10.121   0.551 -1.3808  1.3194  0.2749
  757MOL0     H 2164   8.838  10.161   0.700  1.5138  1.3247 -0.4080
  757MOL0     H 2165   8.932   9.931   0.787 -0.2509  0.5197  0.4604
  757MOL0     H 2166   9.051  10.051   0.751  0.1642  2.0933 -2.3602
  757MOL0     H 2167   9.101   9.978   0.522 -2.0155 -0.4050 -1.8672
  757MOL0     H 2168   8.992   9.839   0.562  2.3619 -0.2386 -1.8264
  757MOL0     H 2169   9.161   9.781   0.746  4.3214 -1.6826  0.2902
  757MOL0     H 2170   9.220   9.774   0.583 -1.9749 -1.7804  0.8042
  757MOL0     H 2171   9.253   9.987   0.780  2.2185 -2.9699  1.4842
  757MOL0     H 2172   9.324   9.987   0.610 -0.7421  2.3682  0.5666
  757MOL0     H 2173   9.494   9.925   0.785  1.4609 -0.7733 -1.4738
  757MOL0     H 2174   9.392   9.793   0.847 -1.7792 -1.2720 -1.4131
  757MOL0     H 2175   8.406  10.252   0.397 -3.2341  3.2299 -1.1756
  757MOL0     H 2176   8.161  10.288   0.444 -1.6035 -0.2884  1.0509
  757MOL0     H 2177   7.807  10.221   0.608 -0.4395 -0.6272 -0.4962
  757MOL0     H 2178   7.581  10.254   0.581  0.3538  0.4375 -0.8380
  757MOL0     H 2179   5.687  10.874   0.695  1.4517  0.7336  0.6770
  757MOL0     H 2180   5.476  10.905   0.594  1.9997 -2.6135  0.3267
  757MOL0     H 2181   5.007  10.932   0.510 -1.4792 -0.0060  1.0323
  757MOL0     H 2182   4.793  11.019   0.483  1.1808 -1.3824  0.3633
  757MOL0     H 2183   4.726  11.445   0.385  0.3351 -0.7402 -0.2629
  757MOL0     H 2184   4.732  11.434   0.563 -2.0229  2.8083 -0.2170
  757MOL0     H 2185   4.500  11.374   0.580 -0.2425  1.9888  1.0666
  757MOL0     H 2186   4.481  11.385   0.402 -1.6488  1.5661  0.3115
  757MOL0     H 2187   4.519  11.612   0.394 -1.4288 -4.0453 -2.6115
  757MOL0     H 2188   4.584  11.610   0.561  0.2884 -2.7322  1.0132
  757MOL0     H 2189   4.290  11.563   0.454 -2.6798  0.9551  2.8718
  757MOL0     H 2190   4.343  11.551   0.628  1.3990  0.1051  1.2992
  757MOL0     H 2191   4.393  11.962   0.609  1.2181 -0.4338  1.8322
  757MOL0     H 2192   4.946  11.420   0.469  1.3990  0.1899 -1.7301
  757MOL0     H 2193   5.169  11.484   0.468  0.5777 -0.9111  0.9028
  757MOL0     H 2194   5.259  11.377   0.566 -2.5965  1.8738  1.7585
  757MOL0     H 2195   5.263  11.356   0.389 -0.4756 -3.1763 -0.4533
  758MOL0     O 2196   4.867   7.942   3.960 -0.3581  0.7356 -0.0915
  758MOL0     C 2197   4.763   7.999   3.939  0.7382 -0.4298  0.3989
  758MOL0     O 2198   4.725   8.052   3.819 -0.2626  0.6982 -0.1953
  758MOL0     C 2199   4.821   8.056   3.727 -0.9336  0.4729  0.5780
  758MOL0     C 2200   4.824   7.957   3.625 -0.1861 -0.6357 -0.2438
  758MOL0     C 2201   4.901   7.979   3.503  0.1780  0.8412 -0.6799
  758MOL0     C 2202   4.992   8.090   3.496  0.4262  0.3111 -1.4886
  758MOL0     O 2203   5.087   8.097   3.401 -0.2140  0.0050  0.5435
  758MOL0     C 2204   5.051   8.196   3.305  0.5709  0.4716  0.7392
  758MOL0     C 2205   5.173   8.254   3.240  0.2138  0.4522 -0.6396
  758MOL0     C 2206   5.280   8.291   3.339  0.1155  0.3101  1.3669
  758MOL0     C 2207   5.359   8.408   3.270 -0.3719 -0.0721  0.2994
  758MOL0     C 2208   5.485   8.449   3.347  0.6270 -0.5480 -0.4874
  758MOL0     C 2209   5.460   8.515   3.481  0.2139 -0.5651 -0.5649
  758MOL0     C 2210   5.582   8.602   3.539 -0.0078 -0.1920  0.3934
  758MOL0     C 2211   5.542   8.657   3.671 -0.8611  0.1188  0.3206
  758MOL0     N 2212   5.623   8.783   3.697 -0.9064 -0.3053 -0.2761
  758MOL0     C 2213   5.743   8.776   3.757 -0.0585 -0.4807  0.4657
  758MOL0     C 2214   5.773   8.901   3.790  0.0701 -0.7495  0.2665
  758MOL0     C 2215   5.901   8.942   3.846 -0.3311  0.0749 -0.6203
  758MOL0     C 2216   6.009   8.839   3.820  0.1100 -0.2074  0.6394
  758MOL0     C 2217   6.142   8.885   3.872 -1.2013  0.1526 -0.1435
  758MOL0     C 2218   6.241   8.783   3.846 -0.4353  0.5556  1.2740
  758MOL0     O 2219   6.377   8.829   3.868  0.2681  0.2358  0.0830
  758MOL0     C 2220   6.425   8.839   3.992 -0.7364 -0.7359 -0.5826
  758MOL0     C 2221   6.357   8.785   4.102 -0.5901  0.0795  0.0950
  758MOL0     C 2222   6.410   8.792   4.229 -0.0947 -0.2325 -0.5856
  758MOL0     C 2223   6.549   8.845   4.244  0.8928  0.4110  0.4159
  758MOL0     C 2224   6.619   8.856   4.372  0.8152  0.3384  0.1100
  758MOL0     O 2225   6.544   8.852   4.487 -0.2298  0.1268  0.1539
  758MOL0     C 2226   6.617   8.864   4.598 -1.0193  0.1610 -0.8658
  758MOL0     C 2227   6.696   8.755   4.649 -0.4873  0.1324  0.1054
  758MOL0     C 2228   6.786   8.784   4.747 -0.0599  0.1901  0.2074
  758MOL0     C 2229   6.799   8.903   4.816 -0.2129  0.0971 -0.0016
  758MOL0     O 2230   6.862   8.921   4.939 -0.2511 -0.5231  0.0446
  758MOL0     C 2231   6.908   8.804   5.011  0.4871  1.0992  0.6465
  758MOL0     C 2232   6.973   8.827   5.140 -0.0797 -1.2899  0.3717
  758MOL0     C 2233   7.018   8.692   5.205  0.7445 -1.2459 -0.5194
  758MOL0     C 2234   7.126   8.698   5.313 -0.4963 -0.3826  0.1641
  758MOL0     C 2235   7.073   8.754   5.442 -0.4121  0.0001  0.5559
  758MOL0     C 2236   7.185   8.753   5.550  0.0377 -0.1166 -1.4399
  758MOL0     C 2237   7.134   8.727   5.694  0.3683 -0.0824 -0.1437
  758MOL0     C 2238   7.235   8.729   5.800 -0.1503  0.3158 -0.5984
  758MOL0    Cl 2239   7.376   8.630   5.757 -0.1194  0.4836 -0.2027
  758MOL0     C 2240   6.723   9.014   4.775  0.0934 -0.1198  1.5040
  758MOL0     C 2241   6.634   8.990   4.661 -0.2120  0.1581 -0.5294
  758MOL0     O 2242   6.730   8.889   4.364 -0.7445  0.0830 -0.3273
  758MOL0     C 2243   6.611   8.901   4.130 -0.1973 -0.9343 -0.2117
  758MOL0     C 2244   6.549   8.907   4.009  0.4888 -0.0209 -0.3250
  758MOL0     N 2245   5.665   8.985   3.752 -0.2970 -0.2784  0.2969
  758MOL0     N 2246   5.574   8.905   3.693  0.7335  0.0059  0.4422
  758MOL0     C 2247   5.001   8.175   3.614  0.3603 -0.0558  0.2332
  758MOL0     C 2248   4.906   8.164   3.717  0.0521  0.8090  0.6593
  758MOL0     C 2249   4.657   8.019   4.041  0.0338 -0.2581  0.0869
  758MOL0     C 2250   4.649   7.925   4.150 -0.8721  0.1429 -0.2293
  758MOL0     C 2251   4.539   7.930   4.241  0.0954  0.3710  0.2680
  758MOL0     C 2252   4.436   8.015   4.226  0.8262 -0.1114  0.4743
  758MOL0     O 2253   4.337   8.013   4.319 -0.5300 -0.2555  0.1492
  758MOL0     C 2254   4.265   7.894   4.350  0.3494 -0.0598  0.0266
  758MOL0     C 2255   4.124   7.938   4.331 -0.0373 -0.2865  0.2027
  758MOL0     C 2256   4.026   7.828   4.363 -0.2573 -0.2780 -0.0166
  758MOL0     C 2257   3.882   7.883   4.377 -0.5589  0.4708  0.7674
  758MOL0     C 2258   3.796   7.770   4.364  0.9617 -0.7192 -0.3075
  758MOL0     C 2259   3.719   7.681   4.361 -0.0927  0.5216  0.5185
  758MOL0     C 2260   4.446   8.120   4.135 -0.4140 -0.2168  0.5189
  758MOL0     C 2261   4.561   8.122   4.043 -0.3554  0.9357 -1.2831
  758MOL0     C 2262   4.571   8.239   3.958 -0.3922 -0.4357 -0.0841
  758MOL0     H 2263   4.755   7.876   3.646  2.0310 -3.0281 -1.5866
  758MOL0     H 2264   4.912   7.895   3.435  0.2565  0.9581 -0.8135
  758MOL0     H 2265   4.988   8.148   3.229  1.6239  0.2140  0.0176
  758MOL0     H 2266   5.000   8.283   3.348 -2.3502 -1.6796  1.9847
  758MOL0     H 2267   5.151   8.346   3.186  0.6667  0.4334 -0.8613
  758MOL0     H 2268   5.206   8.172   3.175 -1.6461 -0.9762  0.1057
  758MOL0     H 2269   5.334   8.201   3.368 -1.0951  0.4762  4.5641
  758MOL0     H 2270   5.236   8.324   3.433  2.3444  0.5396  2.4067
  758MOL0     H 2271   5.398   8.378   3.173 -0.0565  0.9759  0.0867
  758MOL0     H 2272   5.289   8.493   3.267 -3.1637 -2.1284  2.1995
  758MOL0     H 2273   5.556   8.367   3.358  2.8483  1.3833  0.3848
  758MOL0     H 2274   5.540   8.517   3.282 -0.1127 -2.2517 -3.0386
  758MOL0     H 2275   5.373   8.580   3.489  1.8858  1.5801  1.6444
  758MOL0     H 2276   5.431   8.441   3.556 -2.0539  0.5219 -0.2797
  758MOL0     H 2277   5.587   8.687   3.470 -2.3211  1.1910  1.7593
  758MOL0     H 2278   5.674   8.543   3.533  1.0966  1.6367 -2.8094
  758MOL0     H 2279   5.435   8.682   3.672 -0.8435  0.1772  1.0396
  758MOL0     H 2280   5.553   8.583   3.751  0.1765 -0.6204 -0.4812
  758MOL0     H 2281   5.816   8.697   3.760  2.0150  1.2654 -0.9786
  758MOL0     H 2282   5.929   9.036   3.797 -1.5256  0.9493  0.3237
  758MOL0     H 2283   5.886   8.961   3.952  2.5740 -1.1149  0.1022
  758MOL0     H 2284   5.987   8.747   3.875  0.3145 -0.1239  0.8632
  758MOL0     H 2285   6.022   8.821   3.713  2.6377  3.0114  0.2459
  758MOL0     H 2286   6.132   8.906   3.979  0.2670  0.7213 -0.0872
  758MOL0     H 2287   6.173   8.974   3.815  1.3722 -1.3542 -1.2841
  758MOL0     H 2288   6.235   8.773   3.737 -1.4112  0.5082  1.3185
  758MOL0     H 2289   6.225   8.682   3.885  3.0764 -0.4792  0.4017
  758MOL0     H 2290   6.256   8.745   4.095 -0.7919  0.0032  2.6547
  758MOL0     H 2291   6.371   8.748   4.320  2.6694 -1.6456  0.0327
  758MOL0     H 2292   6.706   8.658   4.602 -0.5871  0.3782 -0.4210
  758MOL0     H 2293   6.840   8.692   4.770 -2.3070 -1.2413  0.0364
  758MOL0     H 2294   6.825   8.736   5.032  1.6659  0.3325  3.1639
  758MOL0     H 2295   6.977   8.761   4.938 -1.8827  1.6063 -2.0896
  758MOL0     H 2296   7.058   8.894   5.131  1.4606 -3.4416 -4.3157
  758MOL0     H 2297   6.903   8.884   5.202  0.2277 -0.8079  0.2746
  758MOL0     H 2298   6.928   8.641   5.240  0.3411  0.0976  0.4645
  758MOL0     H 2299   7.051   8.635   5.117  1.0993  1.0783 -1.9854
  758MOL0     H 2300   7.215   8.745   5.271  0.6607 -2.1085  0.5888
  758MOL0     H 2301   7.158   8.595   5.332 -3.3464 -1.4741 -0.5155
  758MOL0     H 2302   6.977   8.718   5.480 -1.0305 -0.4654 -1.3337
  758MOL0     H 2303   7.039   8.854   5.414 -4.9334 -1.5998 -0.5308
  758MOL0     H 2304   7.261   8.678   5.523  0.6622 -1.1072  2.4745
  758MOL0     H 2305   7.246   8.844   5.550  1.8980 -1.2946 -0.2622
  758MOL0     H 2306   7.086   8.628   5.691  0.3571 -0.0688 -3.4234
  758MOL0     H 2307   7.060   8.804   5.716  0.9991  0.1452  1.3159
  758MOL0     H 2308   7.267   8.832   5.813 -2.1976  0.9117  0.1955
  758MOL0     H 2309   7.198   8.692   5.896 -1.1828  0.5858 -0.8735
  758MOL0     H 2310   6.729   9.115   4.814 -0.0779 -0.1298  1.5603
  758MOL0     H 2311   6.583   9.075   4.618  1.5503  2.5856  1.8371
  758MOL0     H 2312   6.712   8.941   4.134 -0.7918  0.5515  1.1602
  758MOL0     H 2313   6.605   8.964   3.935  1.3629 -0.7018 -0.1988
  758MOL0     H 2314   5.077   8.252   3.618 -0.9234  1.2254  0.9344
  758MOL0     H 2315   4.890   8.245   3.788  0.8662  0.1733  1.5938
  758MOL0     H 2316   4.723   7.848   4.165 -1.1882 -0.1810 -0.3272
  758MOL0     H 2317   4.548   7.861   4.324  0.3305  0.8797  0.6665
  758MOL0     H 2318   4.274   7.871   4.457  1.2844  0.5904  0.1040
  758MOL0     H 2319   4.292   7.803   4.296 -0.7853 -0.4602  0.1117
  758MOL0     H 2320   4.115   7.960   4.224 -1.3847 -0.9696  0.1577
  758MOL0     H 2321   4.109   8.027   4.392  0.1328  0.3048 -0.5942
  758MOL0     H 2322   4.064   7.773   4.449 -1.2969 -3.0871 -1.2134
  758MOL0     H 2323   4.043   7.765   4.275 -0.2432  0.5936 -0.6476
  758MOL0     H 2324   3.875   7.919   4.480  2.5184 -1.0862  1.6455
  758MOL0     H 2325   3.857   7.964   4.307 -0.5150 -0.3445 -0.2245
  758MOL0     H 2326   3.639   7.610   4.359 -0.5059  0.9135  1.9593
  758MOL0     H 2327   4.375   8.200   4.120 -0.2739 -0.6183 -3.3573
  758MOL0     H 2328   4.677   8.263   3.945 -0.4168  0.0896  0.6216
  758MOL0     H 2329   4.529   8.208   3.862  1.0957 -2.7131 -0.0792
  758MOL0     H 2330   4.526   8.328   4.002  1.2062 -0.1422  1.0378
  759MOL0     O 2331   1.818   7.175   0.052  0.5350  0.1431  0.0795
  759MOL0     C 2332   1.730   7.118  -0.014  0.2220  0.3324 -0.0584
  759MOL0     O 2333   1.758   7.031  -0.113 -0.0378 -0.0089  0.5689
  759MOL0     C 2334   1.889   7.028  -0.167 -0.1001 -1.0788 -0.0808
  759MOL0     C 2335   1.962   6.904  -0.147  0.1571  0.5382 -0.2138
  759MOL0     C 2336   2.091   6.903  -0.196  1.1342 -0.6937 -0.0407
  759MOL0     C 2337   2.135   7.008  -0.276 -0.8706 -0.1306  0.2301
  759MOL0     O 2338   2.261   6.995  -0.330  0.2897  0.4528  0.0906
  759MOL0     C 2339   2.328   7.112  -0.380  0.8507  0.1873  0.3653
  759MOL0     C 2340   2.466   7.081  -0.428  0.7152  0.3552 -0.3023
  759MOL0     C 2341   2.533   7.201  -0.497 -0.8166 -0.1092 -0.4459
  759MOL0     C 2342   2.684   7.178  -0.515  0.4801  0.2535 -0.1138
  759MOL0     C 2343   2.771   7.299  -0.560  0.6327 -0.6393  0.4637
  759MOL0     C 2344   2.920   7.252  -0.544  0.7504  0.6255  0.2669
  759MOL0     C 2345   3.031   7.370  -0.544 -0.4393  1.1612  0.4979
  759MOL0     C 2346   3.166   7.310  -0.491  0.4874 -0.3019  0.4065
  759MOL0     N 2347   3.279   7.385  -0.539 -1.1337 -1.1865  0.1842
  759MOL0     C 2348   3.310   7.515  -0.496 -0.7256 -0.2832 -0.5958
  759MOL0     C 2349   3.431   7.549  -0.557  0.0209 -0.7693 -0.3010
  759MOL0     C 2350   3.496   7.684  -0.527 -0.0019  0.6984  0.3245
  759MOL0     C 2351   3.646   7.672  -0.547  0.4259  0.1613  0.0247
  759MOL0     C 2352   3.716   7.810  -0.543  0.5697  0.5254 -0.1536
  759MOL0     C 2353   3.865   7.800  -0.563  0.2967 -0.5165 -0.6858
  759MOL0     O 2354   3.942   7.729  -0.464  0.0925 -0.1499 -0.1814
  759MOL0     C 2355   4.079   7.744  -0.493  0.2059  0.0692 -0.3130
  759MOL0     C 2356   4.154   7.649  -0.427 -0.8155  0.1012  0.7460
  759MOL0     C 2357   4.295   7.640  -0.449 -0.1168 -0.7794  0.5796
  759MOL0     C 2358   4.359   7.722  -0.538  0.0855 -0.7385 -0.2701
  759MOL0     C 2359   4.510   7.722  -0.550  0.1362 -0.3725  0.1191
  759MOL0     O 2360   4.568   7.808  -0.646 -0.2033 -0.3412  0.3301
  759MOL0     C 2361   4.705   7.800  -0.674 -0.0679 -0.2965 -0.2130
  759MOL0     C 2362   4.741   7.775  -0.806  0.5097 -0.5959 -0.0939
  759MOL0     C 2363   4.877   7.760  -0.842  0.6853 -1.0074 -0.2248
  759MOL0     C 2364   4.981   7.756  -0.739  1.0583 -0.2576  0.2862
  759MOL0     O 2365   5.108   7.753  -0.765  0.2901 -0.1003  0.3361
  759MOL0     C 2366   5.155   7.747  -0.898 -0.6764 -0.0326  0.6920
  759MOL0     C 2367   5.311   7.764  -0.887 -0.1035  0.7251 -0.0216
  759MOL0     C 2368   5.386   7.729  -1.010 -0.9062  0.5173  0.1866
  759MOL0     C 2369   5.542   7.758  -0.998 -0.3204  0.5444  0.3208
  759MOL0     C 2370   5.595   7.795  -1.135  0.0440  0.8352 -0.1644
  759MOL0     C 2371   5.744   7.794  -1.158 -1.0100 -0.0473  0.2296
  759MOL0     C 2372   5.820   7.918  -1.110 -0.5272 -0.2472  0.6602
  759MOL0     C 2373   5.969   7.926  -1.133 -0.1268  0.5469 -0.6264
  759MOL0    Cl 2374   5.999   7.931  -1.309  0.3537  0.4605 -0.3756
  759MOL0     C 2375   4.935   7.757  -0.607 -0.1376  0.5954 -0.2855
  759MOL0     C 2376   4.806   7.793  -0.573 -0.3185 -0.1432  0.0947
  759MOL0     O 2377   4.569   7.639  -0.487  0.0579  1.1064  0.2079
  759MOL0     C 2378   4.284   7.811  -0.622  0.4062  0.0774 -0.1931
  759MOL0     C 2379   4.148   7.822  -0.594  0.2311 -0.0118  0.9964
  759MOL0     N 2380   3.472   7.435  -0.629  0.0477  0.3638 -0.5315
  759MOL0     N 2381   3.388   7.340  -0.614 -0.2908  0.8265  0.2556
  759MOL0     C 2382   2.061   7.128  -0.290 -0.9602 -0.5755 -0.5325
  759MOL0     C 2383   1.941   7.138  -0.233  0.5533  0.0508 -0.5570
  759MOL0     C 2384   1.584   7.130   0.018 -1.0336 -0.4707  0.0858
  759MOL0     C 2385   1.495   7.091  -0.087 -0.0474 -0.5895  0.5467
  759MOL0     C 2386   1.359   7.111  -0.083  0.1318  0.1526  0.9976
  759MOL0     C 2387   1.305   7.174   0.036  0.0200  0.1741  0.0926
  759MOL0     O 2388   1.170   7.207   0.049 -0.4735 -0.9357  0.0365
  759MOL0     C 2389   1.120   7.286  -0.065  0.4420  0.1292  0.4194
  759MOL0     C 2390   1.058   7.413  -0.012 -0.2565 -0.1043  0.0442
  759MOL0     C 2391   0.926   7.385   0.066  0.4065 -0.9184  0.0661
  759MOL0     C 2392   0.838   7.518   0.068  0.3074  1.2940 -0.6556
  759MOL0     C 2393   0.896   7.616   0.161 -0.7176 -0.2529 -0.9624
  759MOL0     C 2394   0.944   7.699   0.243  0.8046 -0.4024  1.5662
  759MOL0     C 2395   1.394   7.201   0.139 -0.3880 -0.8793 -0.5879
  759MOL0     C 2396   1.535   7.177   0.137  0.2828 -0.7906  1.0896
  759MOL0     C 2397   1.607   7.227   0.254  0.6632  0.2635 -0.9206
  759MOL0     H 2398   1.938   6.821  -0.082  0.6230 -0.0505 -0.7924
  759MOL0     H 2399   2.146   6.811  -0.185 -0.2391 -1.5414 -0.0572
  759MOL0     H 2400   2.279   7.128  -0.477 -0.1783  0.6782  0.9548
  759MOL0     H 2401   2.325   7.202  -0.319 -0.2117  0.6165 -0.2846
  759MOL0     H 2402   2.463   6.999  -0.500  0.0859 -0.5345  0.6988
  759MOL0     H 2403   2.520   7.048  -0.338 -2.4313  0.0287  1.5974
  759MOL0     H 2404   2.522   7.286  -0.430  1.6528 -1.0450  1.3011
  759MOL0     H 2405   2.492   7.224  -0.596 -0.4268 -0.0898 -0.6019
  759MOL0     H 2406   2.720   7.150  -0.415  0.6485  0.1047 -0.2164
  759MOL0     H 2407   2.705   7.093  -0.581  1.5056  0.2102  0.2451
  759MOL0     H 2408   2.761   7.331  -0.664  0.6032  2.1938  1.2528
  759MOL0     H 2409   2.752   7.383  -0.493 -1.3346 -0.4624 -0.2516
  759MOL0     H 2410   2.943   7.198  -0.452  0.0497  3.2782  2.0936
  759MOL0     H 2411   2.940   7.184  -0.627 -1.5473 -0.3355  0.4055
  759MOL0     H 2412   2.993   7.449  -0.479 -1.8331  0.4695  0.5702
  759MOL0     H 2413   3.031   7.422  -0.640  0.0147  0.1538 -0.0684
  759MOL0     H 2414   3.163   7.300  -0.382 -0.5559  1.6121  0.5925
  759MOL0     H 2415   3.167   7.204  -0.517  1.6821 -0.0670 -0.5803
  759MOL0     H 2416   3.254   7.587  -0.436 -0.5129 -0.6028 -0.0061
  759MOL0     H 2417   3.441   7.748  -0.597 -0.5866 -1.1598 -1.0034
  759MOL0     H 2418   3.489   7.715  -0.422  1.1513 -1.5941  1.1323
  759MOL0     H 2419   3.687   7.608  -0.468  0.8070  0.4524  0.0700
  759MOL0     H 2420   3.669   7.635  -0.647  0.1263  0.1578 -0.0440
  759MOL0     H 2421   3.706   7.858  -0.445  3.5884  0.3666  0.3350
  759MOL0     H 2422   3.686   7.866  -0.632  1.1076  0.4289 -0.3963
  759MOL0     H 2423   3.901   7.904  -0.568  0.4351 -0.6035 -1.8279
  759MOL0     H 2424   3.875   7.758  -0.663 -0.8117  1.3109 -1.6213
  759MOL0     H 2425   4.091   7.590  -0.360 -1.8871  1.9052  1.4054
  759MOL0     H 2426   4.355   7.575  -0.386  2.1171 -0.2603 -0.8911
  759MOL0     H 2427   4.675   7.768  -0.893  2.4514  1.0666 -1.8049
  759MOL0     H 2428   4.909   7.753  -0.945  0.9144 -0.9743 -0.1556
  759MOL0     H 2429   5.132   7.654  -0.950 -1.3773  0.0543  0.8257
  759MOL0     H 2430   5.114   7.825  -0.964 -0.4945  0.6976  1.4233
  759MOL0     H 2431   5.330   7.869  -0.861 -1.2394  1.0551 -0.4629
  759MOL0     H 2432   5.353   7.712  -0.801  1.3756  2.0000  0.0808
  759MOL0     H 2433   5.378   7.624  -1.038  1.4631 -0.1374  1.6657
  759MOL0     H 2434   5.353   7.798  -1.089  1.2962  2.4919  0.8425
  759MOL0     H 2435   5.598   7.674  -0.955  1.3771  0.6551 -1.5434
  759MOL0     H 2436   5.568   7.848  -0.942  1.6968  0.3910 -0.3181
  759MOL0     H 2437   5.542   7.882  -1.175 -1.3858 -0.0441 -0.2735
  759MOL0     H 2438   5.563   7.706  -1.191  1.7232 -0.3833  0.7124
  759MOL0     H 2439   5.780   7.703  -1.109 -2.4958  0.0529  1.5890
  759MOL0     H 2440   5.760   7.780  -1.265  0.0137  2.7232 -0.0444
  759MOL0     H 2441   5.795   7.934  -1.005 -1.2627  0.2877  0.4167
  759MOL0     H 2442   5.778   8.008  -1.156  1.6393  0.8680  0.7459
  759MOL0     H 2443   6.014   8.017  -1.092 -0.9998  0.9275 -0.4827
  759MOL0     H 2444   6.009   7.842  -1.076 -1.3883  0.8303  0.7712
  759MOL0     H 2445   5.011   7.752  -0.529 -0.3037 -0.5103 -0.1787
  759MOL0     H 2446   4.785   7.805  -0.467  2.7143 -1.2160  0.9342
  759MOL0     H 2447   4.343   7.869  -0.693  1.6910  3.4413  3.2179
  759MOL0     H 2448   4.088   7.890  -0.655 -2.5555  0.9277  4.4395
  759MOL0     H 2449   2.096   7.215  -0.344  1.5304 -0.5116  1.0406
  759MOL0     H 2450   1.878   7.226  -0.242 -0.3553 -0.4529  0.6001
  759MOL0     H 2451   1.544   7.059  -0.178 -0.5344 -0.1038  0.1020
  759MOL0     H 2452   1.298   7.084  -0.168  0.8484  2.0460 -0.1584
  759MOL0     H 2453   1.044   7.228  -0.119  1.9872 -0.4972 -1.1798
  759MOL0     H 2454   1.199   7.299  -0.140 -0.4102 -0.4056 -0.6075
  759MOL0     H 2455   1.029   7.480  -0.093 -4.0429 -0.3532  1.0226
  759MOL0     H 2456   1.135   7.453   0.054 -1.1833  0.8064  0.6087
  759MOL0     H 2457   0.949   7.351   0.167 -4.2635 -0.1001  1.6690
  759MOL0     H 2458   0.873   7.312   0.004  0.7095 -1.5639  0.5541
  759MOL0     H 2459   0.830   7.556  -0.034  1.3421  2.8173 -0.2198
  759MOL0     H 2460   0.735   7.494   0.098  0.1705  4.8608  2.6049
  759MOL0     H 2461   0.979   7.780   0.303  2.8558  0.2645 -0.3713
  759MOL0     H 2462   1.355   7.259   0.222  3.7832  0.2494  0.8399
  759MOL0     H 2463   1.638   7.329   0.231  1.9922 -0.0464 -0.6044
  759MOL0     H 2464   1.540   7.222   0.340 -1.5782  1.2966 -2.4977
  759MOL0     H 2465   1.694   7.162   0.272 -0.3611 -0.3650  2.3454
  760MOL0     O 2466   0.953   9.060   3.186 -0.3044 -0.5070  0.8635
  760MOL0     C 2467   0.967   9.039   3.303 -0.1458 -0.8118 -0.5359
  760MOL0     O 2468   1.077   9.092   3.377 -0.1612 -0.5559 -0.4025
  760MOL0     C 2469   1.170   9.173   3.316  0.6776 -0.0632  0.6400
  760MOL0     C 2470   1.146   9.292   3.239 -0.3196  1.2361 -0.0038
  760MOL0     C 2471   1.249   9.362   3.174 -0.3889 -0.5890  0.4780
  760MOL0     C 2472   1.386   9.321   3.195  0.2743 -0.2373  0.5717
  760MOL0     O 2473   1.496   9.389   3.150 -0.8643 -0.1146  0.1530
  760MOL0     C 2474   1.479   9.469   3.031  0.4100 -0.3680  0.6470
  760MOL0     C 2475   1.602   9.487   2.946  0.8841  0.3580 -0.0994
  760MOL0     C 2476   1.716   9.572   3.014 -0.2409 -0.1747 -0.8010
  760MOL0     C 2477   1.829   9.597   2.921  0.5644  0.3023 -0.2303
  760MOL0     C 2478   1.942   9.677   2.986  0.3624  0.0822  0.1157
  760MOL0     C 2479   2.049   9.729   2.887  0.0688 -0.5229 -0.4962
  760MOL0     C 2480   2.171   9.783   2.956 -0.5525  0.4290  0.4066
  760MOL0     C 2481   2.236   9.716   3.084  0.4122  0.4316 -0.7729
  760MOL0     N 2482   2.361   9.778   3.120 -0.2891  0.3695  0.0597
  760MOL0     C 2483   2.482   9.717   3.096  0.2002  0.3324 -0.2871
  760MOL0     C 2484   2.571   9.820   3.094  0.2572  0.4512  0.2926
  760MOL0     C 2485   2.718   9.819   3.067 -0.9087  0.0103 -1.4080
  760MOL0     C 2486   2.801   9.836   3.198  0.0302 -0.0325  0.8882
  760MOL0     C 2487   2.929   9.740   3.202  1.0037  0.7469  0.3724
  760MOL0     C 2488   3.022   9.765   3.315 -0.3652  0.0805 -0.0116
  760MOL0     O 2489   3.097   9.892   3.295  0.6827  0.2978 -0.6363
  760MOL0     C 2490   3.227   9.885   3.267  1.0817 -0.0468 -0.5814
  760MOL0     C 2491   3.307   9.991   3.310 -0.7141 -0.3754  0.5058
  760MOL0     C 2492   3.439  10.005   3.274 -0.4380 -0.8309 -0.0442
  760MOL0     C 2493   3.499   9.908   3.180  0.0661 -0.2626  0.8314
  760MOL0     C 2494   3.642   9.921   3.137 -0.2635 -0.3600  0.2806
  760MOL0     O 2495   3.696   9.810   3.069  0.0645  0.4810  0.2584
  760MOL0     C 2496   3.830   9.810   3.031  0.0207 -0.8816 -0.0612
  760MOL0     C 2497   3.884   9.907   2.942 -0.1092 -0.2991 -0.3397
  760MOL0     C 2498   4.012   9.881   2.881 -1.0147  0.2040 -0.6286
  760MOL0     C 2499   4.084   9.765   2.913 -0.5044 -0.0903 -0.2081
  760MOL0     O 2500   4.213   9.745   2.859  0.2322 -0.2695  0.6137
  760MOL0     C 2501   4.238   9.760   2.720  0.1619 -0.3603 -0.3790
  760MOL0     C 2502   4.387   9.764   2.703  0.3066  0.5870  0.2386
  760MOL0     C 2503   4.415   9.795   2.554  0.1739 -0.0007 -0.2843
  760MOL0     C 2504   4.565   9.825   2.538 -0.2826  0.7619 -0.1001
  760MOL0     C 2505   4.622   9.826   2.396 -0.4280 -0.4356  0.3897
  760MOL0     C 2506   4.646   9.690   2.328 -0.2223  0.9045  0.4444
  760MOL0     C 2507   4.766   9.625   2.407  0.0335  0.0582 -2.0193
  760MOL0     C 2508   4.866   9.562   2.322  0.4048  0.0553 -0.1742
  760MOL0    Cl 2509   4.988   9.683   2.277 -0.4812 -0.2660  0.1708
  760MOL0     C 2510   4.032   9.684   3.010 -0.3138  0.2048 -0.3713
  760MOL0     C 2511   3.915   9.705   3.067  0.8060 -0.6647 -0.1551
  760MOL0     O 2512   3.702  10.029   3.160  0.2974 -1.0237 -0.5943
  760MOL0     C 2513   3.412   9.804   3.126  0.0700 -0.4342 -0.3693
  760MOL0     C 2514   3.280   9.793   3.173  0.5603 -0.0086 -0.4789
  760MOL0     N 2515   2.504   9.936   3.095 -0.8613 -0.5610 -0.2459
  760MOL0     N 2516   2.378   9.913   3.112 -0.0155 -0.2139 -0.4177
  760MOL0     C 2517   1.398   9.208   3.279 -0.2290 -0.5436  0.9309
  760MOL0     C 2518   1.300   9.130   3.337  0.8129  0.7578  0.1399
  760MOL0     C 2519   0.879   8.957   3.379 -0.1651  0.3210 -0.5471
  760MOL0     C 2520   0.884   8.957   3.516  0.2228 -0.3487 -0.3315
  760MOL0     C 2521   0.792   8.897   3.607 -1.0659  0.3168  0.6311
  760MOL0     C 2522   0.698   8.816   3.554  0.4125 -0.2061 -0.3464
  760MOL0     O 2523   0.611   8.739   3.627 -0.2137  0.6071 -0.7632
  760MOL0     C 2524   0.582   8.770   3.770  0.2924 -0.6964  0.6677
  760MOL0     C 2525   0.482   8.662   3.827 -0.5263  0.4192  0.0700
  760MOL0     C 2526   0.339   8.707   3.824  0.8392 -0.5086  0.0153
  760MOL0     C 2527   0.249   8.598   3.882 -0.7297 -0.5969  0.2881
  760MOL0     C 2528   0.110   8.632   3.875 -0.1579  0.0955 -0.1975
  760MOL0     C 2529  -0.008   8.653   3.859 -1.1665 -0.0685  0.4607
  760MOL0     C 2530   0.701   8.793   3.414 -0.4184  0.5896 -0.4878
  760MOL0     C 2531   0.791   8.860   3.325  0.0514  1.6391 -1.2459
  760MOL0     C 2532   0.776   8.838   3.184  0.5338  0.9085  0.7953
  760MOL0     H 2533   1.042   9.324   3.230 -0.6759  0.4490  1.0421
  760MOL0     H 2534   1.226   9.449   3.113 -0.2892 -0.8761  0.0298
  760MOL0     H 2535   1.402   9.430   2.963  0.0281  1.7199 -0.2023
  760MOL0     H 2536   1.446   9.567   3.065 -1.9638 -0.4223 -1.2077
  760MOL0     H 2537   1.565   9.535   2.855  3.4728  2.5213 -0.1366
  760MOL0     H 2538   1.652   9.391   2.929  0.8565  0.0872  1.2428
  760MOL0     H 2539   1.755   9.521   3.102 -2.1372 -1.6410 -0.7506
  760MOL0     H 2540   1.676   9.667   3.052  1.0118  0.1081 -0.1392
  760MOL0     H 2541   1.869   9.500   2.890 -0.2832 -0.1877  0.1534
  760MOL0     H 2542   1.789   9.645   2.831  0.7293  0.2833 -0.3144
  760MOL0     H 2543   1.907   9.766   3.039  0.7354  0.7125 -0.6639
  760MOL0     H 2544   1.984   9.607   3.058  2.5580  0.0273 -1.1316
  760MOL0     H 2545   2.077   9.657   2.810 -1.8180 -3.5333  1.4283
  760MOL0     H 2546   2.010   9.811   2.826  1.4534  1.7029  1.4475
  760MOL0     H 2547   2.153   9.889   2.975 -0.3813  0.5996 -0.3675
  760MOL0     H 2548   2.250   9.783   2.880  0.4255 -2.5721  1.2471
  760MOL0     H 2549   2.160   9.713   3.163  1.6560  3.4194  0.6648
  760MOL0     H 2550   2.259   9.610   3.067  1.6183 -0.1047  3.2143
  760MOL0     H 2551   2.496   9.609   3.093 -2.2911 -0.1253  1.1408
  760MOL0     H 2552   2.737   9.718   3.028 -1.7946 -0.6132 -0.2833
  760MOL0     H 2553   2.749   9.899   2.999  1.6922 -0.5711 -1.0080
  760MOL0     H 2554   2.833   9.941   3.203  0.1683 -0.0824  1.0609
  760MOL0     H 2555   2.741   9.823   3.289 -3.1621  0.5962 -0.9624
  760MOL0     H 2556   2.978   9.753   3.106 -0.1418 -0.3585 -0.3913
  760MOL0     H 2557   2.892   9.638   3.207  3.1127 -0.0100  1.9611
  760MOL0     H 2558   3.092   9.680   3.315 -1.8615 -1.2650 -2.4425
  760MOL0     H 2559   2.979   9.756   3.416 -0.4370 -0.6479 -0.0970
  760MOL0     H 2560   3.267  10.065   3.379  0.6977  2.2165 -1.2969
  760MOL0     H 2561   3.497  10.085   3.319 -0.8840  0.4403 -1.6363
  760MOL0     H 2562   3.829   9.999   2.930 -2.2972 -1.3482  0.9940
  760MOL0     H 2563   4.055   9.954   2.813  3.4749 -1.2869  0.3386
  760MOL0     H 2564   4.195   9.677   2.662 -1.9322  0.1079  0.4242
  760MOL0     H 2565   4.193   9.854   2.689 -0.2239 -0.1751  0.7071
  760MOL0     H 2566   4.422   9.845   2.767  4.5287 -0.7072 -0.1574
  760MOL0     H 2567   4.424   9.663   2.723  2.6750  0.9257 -1.8419
  760MOL0     H 2568   4.390   9.713   2.486 -0.0421  0.5775 -0.9012
  760MOL0     H 2569   4.343   9.870   2.522 -1.0968 -0.3017  1.6740
  760MOL0     H 2570   4.619   9.747   2.594 -0.6637  1.3385  1.1075
  760MOL0     H 2571   4.584   9.916   2.595 -0.2184 -1.3926  3.6361
  760MOL0     H 2572   4.715   9.883   2.402 -0.5583 -0.3672  2.2915
  760MOL0     H 2573   4.549   9.885   2.339  0.4025  1.7360  1.4628
  760MOL0     H 2574   4.556   9.629   2.322  1.4589 -1.6996 -0.5717
  760MOL0     H 2575   4.673   9.712   2.224 -3.6603  5.5721  0.2649
  760MOL0     H 2576   4.723   9.545   2.467 -2.1575  3.3675  1.2858
  760MOL0     H 2577   4.820   9.692   2.475  1.4214  1.0708 -4.0030
  760MOL0     H 2578   4.915   9.484   2.381  0.7598  2.1676  2.5362
  760MOL0     H 2579   4.820   9.524   2.231 -1.7930  0.9589  0.4944
  760MOL0     H 2580   4.093   9.599   3.042  2.8415  2.1371 -0.7564
  760MOL0     H 2581   3.890   9.621   3.131 -0.7536 -2.2691 -2.6923
  760MOL0     H 2582   3.444   9.740   3.045 -0.7742 -0.1977 -0.8932
  760MOL0     H 2583   3.220   9.713   3.132 -0.7284  0.3993  0.5450
  760MOL0     H 2584   1.505   9.190   3.290  0.6117  1.8759 -1.8541
  760MOL0     H 2585   1.326   9.050   3.405  0.3616  1.1126  0.7461
  760MOL0     H 2586   0.963   9.007   3.572 -0.4189  0.7509 -0.3626
  760MOL0     H 2587   0.816   8.903   3.713 -1.7973  1.2508  0.7621
  760MOL0     H 2588   0.536   8.868   3.779  0.4688 -0.0575 -3.4260
  760MOL0     H 2589   0.677   8.764   3.824  0.3980  0.4572  0.6318
  760MOL0     H 2590   0.518   8.638   3.927 -0.9470  3.3694  1.0478
  760MOL0     H 2591   0.479   8.570   3.768  0.8920  1.2781 -1.4438
  760MOL0     H 2592   0.313   8.720   3.718  0.2293 -3.6742 -0.3215
  760MOL0     H 2593   0.326   8.798   3.884 -0.1764 -1.2271  0.8954
  760MOL0     H 2594   0.262   8.509   3.821  2.2156  0.5893 -1.0610
  760MOL0     H 2595   0.284   8.570   3.982 -0.0995 -1.4701 -0.1642
  760MOL0     H 2596  -0.112   8.658   3.832 -1.2396 -1.7296  0.3188
  760MOL0     H 2597   0.628   8.726   3.369 -0.5393 -0.7797  1.6042
  760MOL0     H 2598   0.723   8.744   3.166  1.1059  0.0029  3.3768
  760MOL0     H 2599   0.716   8.917   3.138 -0.5013 -0.8348 -0.9604
  760MOL0     H 2600   0.865   8.821   3.124 -2.1316 -0.6162 -3.1069
  761MOL0     O 2601   5.158   9.062   7.749  0.6905 -0.6850 -0.2172
  761MOL0     C 2602   5.123   9.132   7.846 -0.0489 -0.6673  0.2499
  761MOL0     O 2603   5.183   9.250   7.886  0.6148 -0.1632 -0.2829
  761MOL0     C 2604   5.319   9.283   7.867  0.8243  0.7321  0.4687
  761MOL0     C 2605   5.348   9.417   7.839  0.2973  0.0521 -0.2570
  761MOL0     C 2606   5.477   9.461   7.826  0.4823  0.0727 -0.1139
  761MOL0     C 2607   5.583   9.382   7.832 -0.5667  0.2916  0.3269
  761MOL0     O 2608   5.703   9.444   7.821 -0.0821  0.0690  0.3657
  761MOL0     C 2609   5.823   9.371   7.858 -0.8301 -0.0237 -0.6549
  761MOL0     C 2610   5.945   9.469   7.885  0.1693 -1.0828 -0.7474
  761MOL0     C 2611   6.074   9.401   7.932 -0.3234  0.0157  0.2452
  761MOL0     C 2612   6.191   9.500   7.909  1.0085  0.8007  0.7900
  761MOL0     C 2613   6.325   9.440   7.948  0.3729 -0.0318 -0.0383
  761MOL0     C 2614   6.373   9.312   7.864  0.0468 -0.7479 -0.0648
  761MOL0     C 2615   6.521   9.290   7.886  0.4887 -0.5626  0.0302
  761MOL0     C 2616   6.597   9.398   7.817  0.5981 -0.4640  0.7612
  761MOL0     N 2617   6.731   9.364   7.792  0.1333  0.3272  0.7353
  761MOL0     C 2618   6.835   9.405   7.862 -0.3203 -0.2304  0.3644
  761MOL0     C 2619   6.940   9.367   7.790  0.2110 -0.2893 -0.1506
  761MOL0     C 2620   7.081   9.409   7.826  0.3073  0.9818  0.1527
  761MOL0     C 2621   7.174   9.439   7.697 -0.1494 -0.3781 -0.9924
  761MOL0     C 2622   7.117   9.555   7.614 -1.0059 -0.2384  0.1935
  761MOL0     C 2623   7.107   9.695   7.681 -0.5763 -1.3167 -0.0454
  761MOL0     O 2624   7.073   9.799   7.579  0.5965  0.3061 -0.0859
  761MOL0     C 2625   7.155   9.908   7.572  0.2729  1.9079  0.2043
  761MOL0     C 2626   7.270   9.889   7.493 -1.2519  0.5731  0.3041
  761MOL0     C 2627   7.365   9.992   7.494 -0.3376  0.5981  0.0446
  761MOL0     C 2628   7.337  10.116   7.563  0.7941 -0.4897  0.5281
  761MOL0     C 2629   7.429  10.232   7.556  0.5404 -0.1271  0.1966
  761MOL0     O 2630   7.546  10.203   7.484 -0.4241 -0.3531 -0.2474
  761MOL0     C 2631   7.632  10.307   7.450  0.1311 -1.0267 -0.0320
  761MOL0     C 2632   7.645  10.336   7.310  0.8186  0.2523  0.3527
  761MOL0     C 2633   7.724  10.442   7.264 -0.4299  0.3371  0.0039
  761MOL0     C 2634   7.815  10.495   7.358 -0.7952  0.4519  0.0355
  761MOL0     O 2635   7.903  10.590   7.295 -0.4476  0.3303 -0.4842
  761MOL0     C 2636   8.033  10.611   7.349 -0.8809  0.3740 -0.0277
  761MOL0     C 2637   8.142  10.497   7.316 -0.4210  1.2011 -0.0190
  761MOL0     C 2638   8.173  10.499   7.168  0.9878  0.1362 -0.5041
  761MOL0     C 2639   8.205  10.362   7.106  0.4007  0.4766  0.2726
  761MOL0     C 2640   8.072  10.275   7.060 -0.6037  0.1324  0.7437
  761MOL0     C 2641   8.017  10.172   7.157 -1.4354  0.3305  0.0065
  761MOL0     C 2642   7.902  10.102   7.107  0.7645 -0.1930  0.3320
  761MOL0     C 2643   7.846   9.992   7.197 -0.8243 -0.8144 -0.5838
  761MOL0    Cl 2644   7.783  10.052   7.346 -0.1437  0.0762 -0.0027
  761MOL0     C 2645   7.814  10.463   7.500 -0.0007 -0.7509 -0.0541
  761MOL0     C 2646   7.711  10.373   7.539 -0.3085 -0.0626 -0.0578
  761MOL0     O 2647   7.396  10.335   7.599 -0.2871 -0.2436 -0.4873
  761MOL0     C 2648   7.224  10.132   7.645 -0.1355 -0.5805  0.7629
  761MOL0     C 2649   7.133  10.028   7.641 -0.1867  0.3206 -0.8003
  761MOL0     N 2650   6.903   9.297   7.673  0.0582 -0.0210 -0.1294
  761MOL0     N 2651   6.768   9.300   7.679  0.0352  0.9286  0.4199
  761MOL0     C 2652   5.557   9.247   7.865 -0.4354  0.7106 -0.0554
  761MOL0     C 2653   5.429   9.193   7.882  0.3407 -0.2845 -0.3980
  761MOL0     C 2654   4.987   9.097   7.913 -0.3053  0.2936  0.7259
  761MOL0     C 2655   4.890   9.049   7.827  0.6985 -0.6146  0.0880
  761MOL0     C 2656   4.760   9.019   7.874 -0.1267  0.6032 -0.7048
  761MOL0     C 2657   4.724   9.046   8.002  0.4501 -0.1022  0.1419
  761MOL0     O 2658   4.603   9.016   8.060  0.0063 -0.4160  0.8109
  761MOL0     C 2659   4.485   9.005   7.964 -0.2465  0.3552 -0.1951
  761MOL0     C 2660   4.471   8.861   7.909 -0.2321 -0.7934  0.0999
  761MOL0     C 2661   4.521   8.749   8.000  0.1650  0.0062  0.1434
  761MOL0     C 2662   4.445   8.615   7.963 -1.0691 -0.5780 -0.1962
  761MOL0     C 2663   4.313   8.608   8.022 -0.6441 -0.2642 -0.1413
  761MOL0     C 2664   4.215   8.607   8.087  1.0340 -1.5954 -0.6936
  761MOL0     C 2665   4.825   9.088   8.093 -0.3164  0.0683 -0.2685
  761MOL0     C 2666   4.958   9.110   8.050  0.7117 -0.9367  0.0981
  761MOL0     C 2667   5.066   9.141   8.145 -0.0605 -0.4897  0.7865
  761MOL0     H 2668   5.270   9.493   7.842  0.5382  0.3288 -0.9542
  761MOL0     H 2669   5.484   9.569   7.816 -5.0635  0.5842 -1.4073
  761MOL0     H 2670   5.803   9.334   7.959  1.4946  2.0338  0.6435
  761MOL0     H 2671   5.838   9.289   7.787  0.4226  2.2809 -3.2185
  761MOL0     H 2672   5.897   9.545   7.946 -2.1662 -2.4705 -0.7662
  761MOL0     H 2673   5.965   9.522   7.791  0.6824  2.3849  1.1546
  761MOL0     H 2674   6.091   9.308   7.877  0.0820 -0.2024  0.7352
  761MOL0     H 2675   6.069   9.374   8.038 -0.2364 -1.7663 -0.1730
  761MOL0     H 2676   6.196   9.519   7.801  2.5661 -2.5070  0.1655
  761MOL0     H 2677   6.177   9.593   7.964 -1.0116  1.6117 -0.9309
  761MOL0     H 2678   6.392   9.525   7.931 -2.8064  2.2072 -2.6303
  761MOL0     H 2679   6.333   9.410   8.053 -0.2186  1.3911  0.4322
  761MOL0     H 2680   6.316   9.227   7.903 -0.3220 -0.0778  0.8891
  761MOL0     H 2681   6.345   9.321   7.759 -0.0011  0.3745  0.0314
  761MOL0     H 2682   6.557   9.196   7.843  1.5226  0.4368 -1.3977
  761MOL0     H 2683   6.537   9.288   7.994 -0.5334  0.3115  0.2099
  761MOL0     H 2684   6.547   9.416   7.721 -2.8155 -2.6731  1.9431
  761MOL0     H 2685   6.604   9.492   7.873 -0.6739  3.9346 -5.4171
  761MOL0     H 2686   6.835   9.470   7.949  2.2250  0.0711  0.2148
  761MOL0     H 2687   7.076   9.493   7.896 -1.2296  0.2719  0.9186
  761MOL0     H 2688   7.131   9.332   7.886 -1.0703  0.1271  0.2314
  761MOL0     H 2689   7.277   9.443   7.732 -0.3020  0.3480 -0.6145
  761MOL0     H 2690   7.180   9.356   7.626  0.2457  1.3944 -3.1329
  761MOL0     H 2691   7.023   9.525   7.565  1.2905 -0.7547 -4.4583
  761MOL0     H 2692   7.182   9.562   7.526  0.5756 -0.3370  1.3119
  761MOL0     H 2693   7.201   9.715   7.732 -0.4816 -0.5964 -0.4785
  761MOL0     H 2694   7.033   9.706   7.762 -0.9408  0.5596 -0.5723
  761MOL0     H 2695   7.281   9.793   7.445  0.6738 -0.0016  1.7634
  761MOL0     H 2696   7.458   9.972   7.442  0.7204  1.6288  1.4537
  761MOL0     H 2697   7.591  10.281   7.235  3.3289  0.9021 -2.1122
  761MOL0     H 2698   7.734  10.465   7.159  1.1885 -0.9093 -0.1607
  761MOL0     H 2699   8.069  10.702   7.300 -1.3709  1.6408  1.8757
  761MOL0     H 2700   8.035  10.626   7.457 -0.1796  1.5924 -0.1848
  761MOL0     H 2701   8.230  10.511   7.380 -0.4206  3.7743 -0.4550
  761MOL0     H 2702   8.099  10.399   7.336  2.3860  0.6549  5.3850
  761MOL0     H 2703   8.082  10.537   7.121  0.8597 -1.5635 -1.7024
  761MOL0     H 2704   8.249  10.576   7.153 -0.7080  1.7831 -0.9472
  761MOL0     H 2705   8.256  10.292   7.173 -2.3157 -2.1995 -0.2151
  761MOL0     H 2706   8.270  10.366   7.018  1.5338  0.2047  1.0717
  761MOL0     H 2707   8.100  10.224   6.968 -0.4719 -1.6367  1.7146
  761MOL0     H 2708   7.998  10.349   7.028  2.3412  2.6018 -0.9516
  761MOL0     H 2709   8.097  10.102   7.180  0.7894  2.3667 -1.1171
  761MOL0     H 2710   7.984  10.220   7.250  0.5285 -1.8515  1.9373
  761MOL0     H 2711   7.937  10.058   7.013  1.3099  1.1352 -0.1150
  761MOL0     H 2712   7.818  10.169   7.088 -1.7185 -2.4045  2.5928
  761MOL0     H 2713   7.771   9.939   7.139 -1.3212  1.0834 -1.7871
  761MOL0     H 2714   7.924   9.919   7.220  2.2255  1.9863 -1.1447
  761MOL0     H 2715   7.874  10.521   7.568  0.4779  0.7455 -1.6874
  761MOL0     H 2716   7.705  10.344   7.643  1.8498  0.2328  0.2085
  761MOL0     H 2717   7.204  10.221   7.704  1.9837 -0.2806  1.0849
  761MOL0     H 2718   7.047  10.023   7.707 -1.3611 -0.8790 -2.3355
  761MOL0     H 2719   5.639   9.179   7.882 -2.7394 -2.4620 -0.7192
  761MOL0     H 2720   5.405   9.090   7.906 -0.2236  0.5853  3.3173
  761MOL0     H 2721   4.912   9.029   7.723 -1.0114 -3.2970  0.1327
  761MOL0     H 2722   4.690   8.967   7.809  2.3849 -3.3492 -0.5328
  761MOL0     H 2723   4.483   9.077   7.882  0.1629  0.3101 -0.2463
  761MOL0     H 2724   4.395   9.029   8.023 -3.0920  2.4821 -4.8791
  761MOL0     H 2725   4.532   8.851   7.819  0.1708  0.6899  0.1752
  761MOL0     H 2726   4.362   8.855   7.895 -0.7653  1.8421  2.2876
  761MOL0     H 2727   4.493   8.778   8.102  0.4061 -2.4583  0.9915
  761MOL0     H 2728   4.629   8.738   7.989  0.7041  2.7662  1.7382
  761MOL0     H 2729   4.446   8.589   7.856 -1.0039 -1.6107  0.0459
  761MOL0     H 2730   4.490   8.527   8.011  2.3856  1.1652  0.0579
  761MOL0     H 2731   4.126   8.602   8.145  2.5887 -1.3378  1.8799
  761MOL0     H 2732   4.802   9.096   8.199  0.0405  1.6337 -0.2898
  761MOL0     H 2733   5.069   9.089   8.241 -0.3879  1.0102  1.6415
  761MOL0     H 2734   5.162   9.110   8.101  0.1705  1.0653  0.1471
  761MOL0     H 2735   5.075   9.250   8.150  1.3582 -0.5441  0.0730
  762MOL0     O 2736   8.931   1.553   1.139 -0.3083  0.2533  0.1216
  762MOL0     C 2737   8.949   1.470   1.229  0.1557 -0.0611 -0.6075
  762MOL0     O 2738   8.852   1.424   1.310  0.7090 -1.4070  0.8123
  762MOL0     C 2739   8.715   1.449   1.286 -0.3139  0.1251  0.6564
  762MOL0     C 2740   8.656   1.467   1.161  0.2338  0.0121 -0.2486
  762MOL0     C 2741   8.525   1.487   1.144  0.8919 -1.0113 -0.7213
  762MOL0     C 2742   8.434   1.490   1.251 -0.4435  0.1493  0.1697
  762MOL0     O 2743   8.304   1.512   1.211 -0.5928 -0.3915  0.4458
  762MOL0     C 2744   8.230   1.580   1.316 -1.0922 -0.3155 -0.4741
  762MOL0     C 2745   8.118   1.634   1.242  0.7466 -0.3074 -0.6267
  762MOL0     C 2746   8.166   1.758   1.156  0.0356  0.4317  0.8720
  762MOL0     C 2747   8.050   1.822   1.084 -1.2738  0.2761  0.2602
  762MOL0     C 2748   8.107   1.924   0.985  0.5349 -0.1205 -0.1342
  762MOL0     C 2749   7.994   1.984   0.907  0.6673 -0.6824  0.2641
  762MOL0     C 2750   7.902   2.083   0.995 -0.8744  0.1598  0.0777
  762MOL0     C 2751   7.807   2.162   0.907  1.5156 -0.6858  0.6104
  762MOL0     N 2752   7.748   2.274   0.985  0.3266 -0.1947  0.3546
  762MOL0     C 2753   7.807   2.374   1.045  0.3454 -0.6927  0.0150
  762MOL0     C 2754   7.701   2.456   1.084 -0.0628  0.3945  0.1888
  762MOL0     C 2755   7.727   2.580   1.160 -0.8016  0.9157  0.0191
  762MOL0     C 2756   7.810   2.557   1.282 -0.1419 -0.0420 -0.6464
  762MOL0     C 2757   7.807   2.681   1.367  0.9917 -0.1497  0.2752
  762MOL0     C 2758   7.910   2.678   1.476 -0.0943 -0.0183  0.3960
  762MOL0     O 2759   8.041   2.706   1.413  0.1149 -0.5068  0.0708
  762MOL0     C 2760   8.143   2.702   1.506  0.7015 -0.2016  0.3483
  762MOL0     C 2761   8.144   2.657   1.646  0.2204  0.1204  0.3237
  762MOL0     C 2762   8.266   2.664   1.718  0.9015 -0.3938  0.2441
  762MOL0     C 2763   8.391   2.699   1.659  0.0722 -0.3869 -0.0671
  762MOL0     C 2764   8.517   2.710   1.742 -0.1424  0.5115 -0.5890
  762MOL0     O 2765   8.614   2.779   1.700  0.6364  0.1352  0.1955
  762MOL0     C 2766   8.731   2.781   1.773  0.0817  0.3897 -0.6511
  762MOL0     C 2767   8.807   2.664   1.779  0.6754  0.3085 -0.0841
  762MOL0     C 2768   8.916   2.666   1.859  0.3032 -0.5307 -0.6854
  762MOL0     C 2769   8.956   2.779   1.937 -0.1741 -0.1115 -0.3828
  762MOL0     O 2770   9.068   2.757   2.016  0.4191  0.0118  0.6428
  762MOL0     C 2771   9.175   2.853   1.989 -0.5309  0.1992  0.6435
  762MOL0     C 2772   9.213   2.901   1.850  0.0731 -0.1143  0.6474
  762MOL0     C 2773   9.346   2.968   1.821  0.3133 -0.2420  0.3425
  762MOL0     C 2774   9.323   3.113   1.766  0.0961 -0.5140 -0.1732
  762MOL0     C 2775   9.441   3.192   1.748  0.2050  0.6254  0.1670
  762MOL0     C 2776   9.404   3.340   1.746 -0.4775  0.8391 -0.6180
  762MOL0     C 2777   9.328   3.400   1.624 -0.3526  0.1695  0.3808
  762MOL0     C 2778   9.298   3.556   1.634  0.0442  0.4474 -0.4260
  762MOL0    Cl 2779   9.127   3.587   1.658 -0.0227 -0.0615  0.2566
  762MOL0     C 2780   8.888   2.899   1.924 -0.4951  0.7244 -0.0963
  762MOL0     C 2781   8.781   2.900   1.842  0.9141  0.1991 -0.0557
  762MOL0     O 2782   8.520   2.654   1.853 -0.3498  0.0229  0.1246
  762MOL0     C 2783   8.390   2.738   1.527  0.1835 -0.1168  0.0296
  762MOL0     C 2784   8.267   2.750   1.455  0.7828  0.3101 -0.0466
  762MOL0     N 2785   7.580   2.396   1.051 -0.4358  0.1238  0.3350
  762MOL0     N 2786   7.612   2.279   1.003 -0.3229 -0.3049  0.2328
  762MOL0     C 2787   8.490   1.469   1.381  0.2723  0.6276  0.3954
  762MOL0     C 2788   8.626   1.443   1.397 -1.4433 -0.0745  0.0255
  762MOL0     C 2789   9.092   1.428   1.264  0.4486 -0.0753  0.1288
  762MOL0     C 2790   9.180   1.437   1.150  0.3387 -1.3845  0.4502
  762MOL0     C 2791   9.317   1.400   1.161 -0.3583 -0.5385  1.1438
  762MOL0     C 2792   9.362   1.347   1.283  0.6517  0.2009 -0.4941
  762MOL0     O 2793   9.492   1.323   1.319 -0.1268  0.0818  0.3705
  762MOL0     C 2794   9.596   1.357   1.221  0.7865 -0.0464 -0.6745
  762MOL0     C 2795   9.627   1.251   1.110  0.1366 -0.5847  0.0997
  762MOL0     C 2796   9.748   1.295   1.033  0.9456 -1.0468  0.0349
  762MOL0     C 2797   9.807   1.189   0.935  0.1305 -0.7022  0.1379
  762MOL0     C 2798   9.901   1.241   0.835 -0.0715 -0.4188 -0.1675
  762MOL0     C 2799   9.977   1.283   0.742 -0.1051  0.3533 -1.0042
  762MOL0     C 2800   9.275   1.330   1.384 -0.8004  0.1421 -0.4869
  762MOL0     C 2801   9.143   1.365   1.381 -0.0143  0.7554  0.3173
  762MOL0     C 2802   9.063   1.352   1.506  0.2320  0.7806 -0.7499
  762MOL0     H 2803   8.720   1.458   1.073  2.0611  0.4180  0.9711
  762MOL0     H 2804   8.484   1.495   1.043 -0.7962  3.0616  0.0904
  762MOL0     H 2805   8.199   1.514   1.396 -1.0526 -0.5405 -0.6435
  762MOL0     H 2806   8.294   1.652   1.369 -1.5908  0.3343 -0.7383
  762MOL0     H 2807   8.039   1.662   1.312  2.7469 -3.8854  3.5046
  762MOL0     H 2808   8.071   1.556   1.181 -2.0325 -1.7485  2.9753
  762MOL0     H 2809   8.240   1.741   1.077  0.6933  2.3507  1.0111
  762MOL0     H 2810   8.212   1.829   1.226  1.2538  3.2575 -2.4988
  762MOL0     H 2811   7.982   1.753   1.033 -2.2752  1.3020  0.1433
  762MOL0     H 2812   7.994   1.869   1.166 -1.4094  3.3664 -1.4402
  762MOL0     H 2813   8.155   2.004   1.042  2.1207  0.0045 -1.5621
  762MOL0     H 2814   8.173   1.880   0.910 -0.4253  0.4968 -1.3872
  762MOL0     H 2815   8.034   2.043   0.825 -2.2675  2.3493  0.7653
  762MOL0     H 2816   7.929   1.904   0.871  0.1460 -0.5668  0.9216
  762MOL0     H 2817   7.958   2.160   1.049  0.8367 -1.8326  1.3279
  762MOL0     H 2818   7.851   2.026   1.073  2.2745  2.5455  4.2803
  762MOL0     H 2819   7.858   2.202   0.819  0.9295 -0.2871  0.4491
  762MOL0     H 2820   7.727   2.093   0.877  1.0131 -0.2629  0.9612
  762MOL0     H 2821   7.914   2.395   1.054  0.3592  1.2477 -3.1937
  762MOL0     H 2822   7.775   2.662   1.105 -0.1145  0.5019 -0.0132
  762MOL0     H 2823   7.630   2.623   1.187 -0.3171  0.8447  2.0137
  762MOL0     H 2824   7.767   2.470   1.334  1.1394 -0.3594 -0.0801
  762MOL0     H 2825   7.915   2.539   1.257  0.7450  3.8364 -0.4095
  762MOL0     H 2826   7.706   2.693   1.407  1.5436  1.6660  1.2143
  762MOL0     H 2827   7.827   2.775   1.315  1.8256 -0.6153 -0.2739
  762MOL0     H 2828   7.899   2.580   1.524 -0.4146 -0.4640 -0.5601
  762MOL0     H 2829   7.893   2.752   1.554 -0.1585 -1.0715  1.4032
  762MOL0     H 2830   8.056   2.610   1.689 -0.1118  1.2992  0.9719
  762MOL0     H 2831   8.270   2.633   1.822 -0.6624  1.8045  1.0116
  762MOL0     H 2832   8.774   2.574   1.727  0.7458  0.8396 -1.0664
  762MOL0     H 2833   8.969   2.573   1.876  2.0218  0.6145  0.4832
  762MOL0     H 2834   9.149   2.945   2.041 -3.2450 -0.7077  1.0776
  762MOL0     H 2835   9.262   2.808   2.036 -0.6713 -0.4919  0.2615
  762MOL0     H 2836   9.205   2.819   1.778 -1.9541 -0.1471  0.8539
  762MOL0     H 2837   9.132   2.967   1.816  0.2310  0.0612  0.6064
  762MOL0     H 2838   9.401   2.976   1.915 -0.8138  2.1862  0.8571
  762MOL0     H 2839   9.405   2.900   1.757  4.3926  1.8107  1.5683
  762MOL0     H 2840   9.253   3.165   1.833 -0.6163 -2.0217  0.3034
  762MOL0     H 2841   9.265   3.094   1.675 -0.1474  2.7709 -0.8331
  762MOL0     H 2842   9.491   3.163   1.655 -0.4367  1.9018 -0.6062
  762MOL0     H 2843   9.508   3.168   1.831  0.3261 -2.2115 -0.6460
  762MOL0     H 2844   9.334   3.353   1.829  0.1163 -0.8609  0.1820
  762MOL0     H 2845   9.494   3.399   1.766 -0.4524  0.4139  0.6297
  762MOL0     H 2846   9.230   3.352   1.614 -0.9928  1.9314 -3.2354
  762MOL0     H 2847   9.387   3.390   1.533  1.4614 -0.8519  1.5949
  762MOL0     H 2848   9.348   3.596   1.723 -2.6198  0.7470  1.0381
  762MOL0     H 2849   9.335   3.618   1.551 -0.5919  0.3717 -0.7692
  762MOL0     H 2850   8.929   2.985   1.974 -0.2578  1.4363 -1.4559
  762MOL0     H 2851   8.713   2.983   1.826  0.0514 -0.4614  0.0723
  762MOL0     H 2852   8.476   2.791   1.488  0.1253  2.4311  3.0307
  762MOL0     H 2853   8.263   2.793   1.356 -1.7979  0.2251 -0.0564
  762MOL0     H 2854   8.419   1.460   1.462 -0.8248  0.4704 -0.5562
  762MOL0     H 2855   8.669   1.432   1.496 -2.5253 -0.4844  0.4662
  762MOL0     H 2856   9.138   1.480   1.060 -0.0642 -0.3114  1.1286
  762MOL0     H 2857   9.381   1.429   1.078 -1.6513 -0.6531  0.0745
  762MOL0     H 2858   9.684   1.366   1.285 -1.6938 -3.7465  3.9084
  762MOL0     H 2859   9.563   1.453   1.180  0.6729  0.5676  0.7659
  762MOL0     H 2860   9.542   1.240   1.042 -0.2241 -2.1191  0.7474
  762MOL0     H 2861   9.645   1.152   1.152  4.3647  0.6739  1.7383
  762MOL0     H 2862   9.824   1.312   1.110  1.9315  0.7125 -1.2451
  762MOL0     H 2863   9.725   1.391   0.987 -0.3631  0.9670  4.3339
  762MOL0     H 2864   9.836   1.099   0.989 -2.1038 -1.3459  0.3737
  762MOL0     H 2865   9.722   1.147   0.881 -0.0123  0.0396 -0.2418
  762MOL0     H 2866  10.033   1.303   0.653  0.9151 -0.0290 -0.4701
  762MOL0     H 2867   9.307   1.293   1.481 -3.3372  1.2477  0.8803
  762MOL0     H 2868   8.998   1.436   1.534  1.7367  0.9534  2.7984
  762MOL0     H 2869   8.989   1.273   1.489 -0.1958  1.4088 -1.8894
  762MOL0     H 2870   9.118   1.329   1.598 -1.1141 -0.4288 -0.2008
  763MOL0     O 2871   7.615   8.506   9.888 -0.3785  0.3501  0.3720
  763MOL0     C 2872   7.623   8.529  10.009  0.3516 -0.8072  0.1282
  763MOL0     O 2873   7.726   8.589  10.088 -0.0703 -0.5504  0.2902
  763MOL0     C 2874   7.834   8.625  10.016  0.1178  0.7463  0.3374
  763MOL0     C 2875   7.840   8.738   9.930  0.8809 -0.5663  0.6365
  763MOL0     C 2876   7.955   8.765   9.848 -0.1756  0.0341 -0.6952
  763MOL0     C 2877   8.061   8.675   9.858 -0.4430 -0.0454  0.3697
  763MOL0     O 2878   8.169   8.720   9.786  1.1220  0.2034  0.3412
  763MOL0     C 2879   8.299   8.663   9.803 -0.3856 -0.3122  1.2403
  763MOL0     C 2880   8.403   8.722   9.715 -1.1604  0.1436  0.0697
  763MOL0     C 2881   8.433   8.877   9.729 -0.5036 -0.3968 -0.4776
  763MOL0     C 2882   8.521   8.919   9.609  0.3602 -0.3676 -0.2730
  763MOL0     C 2883   8.514   9.070   9.595  0.4136  0.2341 -0.7801
  763MOL0     C 2884   8.592   9.115   9.472 -0.3668  1.0894  0.4276
  763MOL0     C 2885   8.744   9.095   9.476 -0.8446 -0.0926 -0.1017
  763MOL0     C 2886   8.812   9.142   9.605 -0.7043 -0.8288  0.1786
  763MOL0     N 2887   8.959   9.133   9.595 -0.8728  0.2457 -0.1895
  763MOL0     C 2888   9.030   9.009   9.599 -0.0059  0.1255  0.1092
  763MOL0     C 2889   9.150   9.040   9.644  0.3305  1.3614 -0.3475
  763MOL0     C 2890   9.271   8.953   9.667  0.7965 -0.0113  0.2240
  763MOL0     C 2891   9.362   8.954   9.547  0.3157 -0.4119  0.0079
  763MOL0     C 2892   9.491   8.872   9.571  0.4121 -0.3330 -0.3390
  763MOL0     C 2893   9.569   8.869   9.437  0.2097 -0.3123 -0.5771
  763MOL0     O 2894   9.654   8.758   9.435 -0.7741  0.4203 -0.4617
  763MOL0     C 2895   9.786   8.784   9.428 -0.6089 -0.7158 -0.7423
  763MOL0     C 2896   9.860   8.904   9.408  1.0279  0.0104 -0.8075
  763MOL0     C 2897  10.000   8.901   9.417  0.5075 -0.4111  0.1485
  763MOL0     C 2898  10.071   8.783   9.436 -0.0347 -0.2454 -0.6777
  763MOL0     C 2899  10.216   8.790   9.449 -0.5176 -0.1793  0.2112
  763MOL0     O 2900  10.269   8.690   9.524  0.2381  0.0657  0.2175
  763MOL0     C 2901  10.407   8.677   9.533 -0.0950 -0.1135  0.7815
  763MOL0     C 2902  10.464   8.561   9.496 -0.3103  0.8074  0.0761
  763MOL0     C 2903  10.602   8.537   9.485 -0.4325  0.6970 -0.5560
  763MOL0     C 2904  10.684   8.639   9.531  0.0948 -0.6132 -0.3713
  763MOL0     O 2905  10.812   8.611   9.552 -0.6433  0.1710  0.2954
  763MOL0     C 2906  10.876   8.646   9.680  0.1161 -0.5001 -0.7538
  763MOL0     C 2907  11.029   8.646   9.670 -1.0269 -0.1648 -0.4790
  763MOL0     C 2908  11.100   8.706   9.791  0.3490 -0.3508 -0.1917
  763MOL0     C 2909  11.230   8.771   9.748  0.3213  0.4944 -0.4307
  763MOL0     C 2910  11.341   8.664   9.738  0.1921  0.3263  0.5306
  763MOL0     C 2911  11.463   8.707   9.656 -0.8436  0.0098 -0.0916
  763MOL0     C 2912  11.519   8.835   9.720 -0.0118 -0.2416 -0.0247
  763MOL0     C 2913  11.646   8.876   9.644 -0.3798  0.1752  0.2891
  763MOL0    Cl 2914  11.784   8.908   9.757  0.1712 -0.0752  0.5529
  763MOL0     C 2915  10.638   8.769   9.558 -0.7030  0.0175  0.9989
  763MOL0     C 2916  10.495   8.778   9.565  0.0478 -0.0351  0.0112
  763MOL0     O 2917  10.274   8.888   9.405 -1.3771 -0.1120  0.0405
  763MOL0     C 2918   9.995   8.664   9.463 -0.9802 -0.7777 -0.2267
  763MOL0     C 2919   9.859   8.668   9.464 -0.4939 -0.1286  0.3145
  763MOL0     N 2920   9.162   9.174   9.647  0.8991  0.5597  0.4602
  763MOL0     N 2921   9.048   9.235   9.616  0.4165  0.1650  0.5653
  763MOL0     C 2922   8.061   8.563   9.943 -0.3657  0.1661  1.2155
  763MOL0     C 2923   7.944   8.544  10.024  0.5613  0.1983  1.1579
  763MOL0     C 2924   7.495   8.493  10.083 -0.7176 -0.4619 -0.6235
  763MOL0     C 2925   7.413   8.600  10.124  0.5556  0.7419  0.0715
  763MOL0     C 2926   7.311   8.570  10.208  0.0078 -1.0472 -0.5688
  763MOL0     C 2927   7.257   8.436  10.234 -0.8338  0.1977  1.0007
  763MOL0     O 2928   7.145   8.420  10.317  0.2060  0.4888 -0.4434
  763MOL0     C 2929   7.085   8.289  10.325  0.0489  0.4822  0.0928
  763MOL0     C 2930   6.968   8.316  10.416  0.0433  0.3178 -0.0759
  763MOL0     C 2931   6.908   8.180  10.456 -1.0623 -0.1135  1.4307
  763MOL0     C 2932   6.815   8.185  10.578 -0.4786  0.7857  0.7907
  763MOL0     C 2933   6.751   8.057  10.604 -0.3494 -0.0913 -0.7224
  763MOL0     C 2934   6.691   7.952  10.624  0.2160  1.1844 -0.4373
  763MOL0     C 2935   7.339   8.336  10.181  0.4772  0.3062 -0.1901
  763MOL0     C 2936   7.452   8.363  10.103 -0.9116  0.9452 -0.3069
  763MOL0     C 2937   7.544   8.256  10.063 -0.5068  1.1291 -0.3488
  763MOL0     H 2938   7.745   8.789   9.926  0.4215 -1.4628 -0.5477
  763MOL0     H 2939   7.966   8.844   9.775  2.6749 -0.0203 -0.4372
  763MOL0     H 2940   8.337   8.664   9.906  1.6856  0.2146  0.5282
  763MOL0     H 2941   8.301   8.559   9.770 -0.4129  0.2535 -0.6614
  763MOL0     H 2942   8.359   8.718   9.615  0.8409  1.0705 -0.8909
  763MOL0     H 2943   8.490   8.656   9.712 -2.9201 -2.2749 -0.8742
  763MOL0     H 2944   8.466   8.914   9.826 -5.4836  2.7513  0.4011
  763MOL0     H 2945   8.334   8.924   9.727 -0.1641  0.4433  0.8421
  763MOL0     H 2946   8.625   8.887   9.607 -0.4887 -3.4539 -0.4740
  763MOL0     H 2947   8.469   8.884   9.519 -1.0753  2.6903 -0.7606
  763MOL0     H 2948   8.408   9.100   9.590  1.0668  2.4957 -2.5628
  763MOL0     H 2949   8.548   9.118   9.688  1.6058 -1.0338 -0.5351
  763MOL0     H 2950   8.547   9.070   9.384 -2.1111  0.8599  1.3882
  763MOL0     H 2951   8.583   9.223   9.455  2.7418  1.2799 -0.6195
  763MOL0     H 2952   8.780   9.154   9.391  0.0756 -0.7240 -0.1632
  763MOL0     H 2953   8.765   8.989   9.459 -3.9902 -1.1743  1.9963
  763MOL0     H 2954   8.786   9.244   9.634 -1.8882 -0.9119 -0.5415
  763MOL0     H 2955   8.779   9.085   9.693  0.0553 -1.3748  0.1261
  763MOL0     H 2956   8.986   8.911   9.583 -0.9263  0.4184  0.7086
  763MOL0     H 2957   9.305   8.984   9.766 -0.5630 -0.8989  1.0045
  763MOL0     H 2958   9.239   8.852   9.693 -0.4969  0.4684  0.5906
  763MOL0     H 2959   9.307   8.908   9.464  1.8559 -1.3510 -0.5321
  763MOL0     H 2960   9.381   9.056   9.512  1.2952 -0.6513 -0.1935
  763MOL0     H 2961   9.461   8.771   9.601  1.2973 -0.9621 -1.4488
  763MOL0     H 2962   9.554   8.917   9.648  0.2189  1.9425 -1.4485
  763MOL0     H 2963   9.614   8.968   9.431  0.0874 -0.2942 -1.1925
  763MOL0     H 2964   9.504   8.874   9.350  0.1526  2.2584 -0.4392
  763MOL0     H 2965   9.812   8.999   9.385 -0.8763 -0.6469  0.1666
  763MOL0     H 2966  10.055   8.990   9.390  0.4255 -0.1991  0.6819
  763MOL0     H 2967  10.392   8.485   9.468  1.0807 -0.4848 -0.1284
  763MOL0     H 2968  10.622   8.434   9.458 -3.1010 -0.3865  1.1659
  763MOL0     H 2969  10.838   8.741   9.720  0.5462 -0.4451 -0.4661
  763MOL0     H 2970  10.844   8.581   9.763  0.3952 -0.7815 -0.8670
  763MOL0     H 2971  11.068   8.545   9.651  2.5653  1.2042 -1.2476
  763MOL0     H 2972  11.052   8.699   9.578  2.2030  0.3627  0.5185
  763MOL0     H 2973  11.044   8.791   9.832  0.9579  0.9166 -1.8836
  763MOL0     H 2974  11.125   8.623   9.857 -1.8452 -2.4670 -1.8309
  763MOL0     H 2975  11.246   8.858   9.812  1.2440  0.0685 -0.0672
  763MOL0     H 2976  11.218   8.807   9.646 -1.5930 -0.2049 -0.4954
  763MOL0     H 2977  11.295   8.587   9.675 -0.9178  1.2571  0.1467
  763MOL0     H 2978  11.368   8.623   9.835 -0.7674 -0.0134  0.6708
  763MOL0     H 2979  11.544   8.634   9.661  1.4383  2.4722  3.4473
  763MOL0     H 2980  11.436   8.725   9.552  3.2562  0.7459 -1.1886
  763MOL0     H 2981  11.551   8.806   9.820  2.3380  0.1540 -0.6130
  763MOL0     H 2982  11.446   8.917   9.723 -0.7530 -0.8462 -0.7532
  763MOL0     H 2983  11.686   8.794   9.583  0.9440  0.8039  0.2764
  763MOL0     H 2984  11.628   8.958   9.573  1.7815 -0.4614 -1.1140
  763MOL0     H 2985  10.699   8.857   9.576 -0.5622  0.5790 -1.7252
  763MOL0     H 2986  10.456   8.873   9.602  0.2267  0.6782 -1.5653
  763MOL0     H 2987  10.030   8.563   9.484  0.6524  0.2278  2.3975
  763MOL0     H 2988   9.800   8.580   9.489  0.3745 -0.8454 -0.1135
  763MOL0     H 2989   8.147   8.497   9.952  0.1759  0.3792 -1.6170
  763MOL0     H 2990   7.940   8.470  10.104 -0.4704  0.6116  1.4982
  763MOL0     H 2991   7.436   8.704  10.102 -1.3989  1.0623 -0.6107
  763MOL0     H 2992   7.255   8.656  10.243  1.6585 -1.0683  2.4890
  763MOL0     H 2993   7.152   8.222  10.379 -1.0030 -1.7782 -1.2095
  763MOL0     H 2994   7.039   8.259  10.230  0.0373  1.0216 -0.0746
  763MOL0     H 2995   6.889   8.367  10.361  0.1419  0.3828 -0.1593
  763MOL0     H 2996   7.012   8.373  10.499  2.0556 -0.1480 -0.7602
  763MOL0     H 2997   6.986   8.106  10.476  0.1053  1.2819  2.1396
  763MOL0     H 2998   6.852   8.142  10.370 -0.1252  0.1596  0.6861
  763MOL0     H 2999   6.865   8.228  10.665  0.5832 -0.4274  0.8137
  763MOL0     H 3000   6.734   8.258  10.571 -0.0180  1.1621 -1.3881
  763MOL0     H 3001   6.633   7.865  10.645  2.7842 -1.0204 -1.8822
  763MOL0     H 3002   7.311   8.234  10.209  1.2281  0.8659  3.0467
  763MOL0     H 3003   7.519   8.165  10.118  0.6456  1.2630  0.4349
  763MOL0     H 3004   7.535   8.244   9.954 -1.0572  2.5092 -0.4717
  763MOL0     H 3005   7.650   8.282  10.071  0.1340 -0.8984 -1.5668
  764MOL0     O 3006   9.002   5.590  10.848  0.8967 -0.3297  1.0249
  764MOL0     C 3007   8.963   5.692  10.904 -0.3684  0.4399  0.2079
  764MOL0     O 3008   9.047   5.787  10.966 -0.0908  0.4327 -0.0448
  764MOL0     C 3009   9.178   5.761  10.988 -1.0279 -0.3356  1.2773
  764MOL0     C 3010   9.226   5.743  11.117 -0.3017  0.0702 -0.1172
  764MOL0     C 3011   9.363   5.715  11.137  0.5268  1.2775  0.3365
  764MOL0     C 3012   9.460   5.710  11.036  0.1231  0.1297 -0.3684
  764MOL0     O 3013   9.584   5.685  11.070 -0.5920  1.0951 -0.0241
  764MOL0     C 3014   9.664   5.634  10.964 -0.1694 -0.1660  0.3812
  764MOL0     C 3015   9.784   5.590  11.041 -0.3776  0.4272  0.2424
  764MOL0     C 3016   9.893   5.528  10.942  0.2435  0.5037 -0.3816
  764MOL0     C 3017  10.029   5.523  10.994 -0.7461  0.6860 -0.0129
  764MOL0     C 3018  10.117   5.456  10.885 -0.2278 -0.3144  0.2824
  764MOL0     C 3019  10.256   5.409  10.927 -0.7078 -0.3583  0.0700
  764MOL0     C 3020  10.344   5.534  10.914  0.4091  0.4203 -0.0209
  764MOL0     C 3021  10.482   5.471  10.917  0.0084 -0.5477  0.1337
  764MOL0     N 3022  10.588   5.576  10.915  0.0302  0.4743  0.3754
  764MOL0     C 3023  10.715   5.565  10.862  0.2098  0.3137  0.5241
  764MOL0     C 3024  10.765   5.696  10.871  0.3806  0.8327  0.5446
  764MOL0     C 3025  10.885   5.748  10.805 -0.2536  0.8029  1.0323
  764MOL0     C 3026  10.985   5.825  10.893 -0.2072 -0.1662  0.6938
  764MOL0     C 3027  11.061   5.748  11.002  0.3963  0.0701 -0.4045
  764MOL0     C 3028  11.197   5.814  11.042  0.2454  0.7574  0.6798
  764MOL0     O 3029  11.244   5.791  11.173  0.2060 -0.6000 -0.4270
  764MOL0     C 3030  11.368   5.846  11.192  0.3534 -0.2772  0.6746
  764MOL0     C 3031  11.387   5.970  11.246 -0.3941  0.1311 -0.1643
  764MOL0     C 3032  11.521   6.013  11.283 -0.7143  0.4524  0.1601
  764MOL0     C 3033  11.623   5.914  11.282 -0.0293  0.7561 -0.2692
  764MOL0     C 3034  11.757   5.940  11.324 -0.0256  0.0772 -0.2549
  764MOL0     O 3035  11.861   5.861  11.280  0.3974  0.1862 -0.6028
  764MOL0     C 3036  11.983   5.910  11.285 -0.1243 -0.0859 -0.4043
  764MOL0     C 3037  12.050   5.907  11.413 -0.6171 -0.6096  0.6944
  764MOL0     C 3038  12.189   5.935  11.418  0.1500 -0.8914 -0.7108
  764MOL0     C 3039  12.260   5.939  11.300 -0.0178 -0.4432  0.6806
  764MOL0     O 3040  12.397   5.939  11.303 -0.4790  0.1015 -0.1840
  764MOL0     C 3041  12.461   5.922  11.432  0.6311 -0.0008 -0.9556
  764MOL0     C 3042  12.614   5.912  11.415 -0.4977 -0.7107  0.0991
  764MOL0     C 3043  12.677   6.050  11.427 -0.0532 -0.1665  0.6017
  764MOL0     C 3044  12.818   6.050  11.369  0.9541 -0.2066  0.4328
  764MOL0     C 3045  12.871   6.195  11.384  0.1771  0.6123  0.3358
  764MOL0     C 3046  13.014   6.203  11.424  0.3926  0.0728  0.6368
  764MOL0     C 3047  13.031   6.132  11.561 -0.2177  0.1770 -0.1828
  764MOL0     C 3048  13.157   6.182  11.629 -0.6604 -0.0663 -0.1770
  764MOL0    Cl 3049  13.165   6.102  11.783  0.3333  0.5326 -0.2280
  764MOL0     C 3050  12.193   5.928  11.179  0.2191 -0.0372 -0.4320
  764MOL0     C 3051  12.057   5.919  11.161 -0.2420 -0.4909 -1.0115
  764MOL0     O 3052  11.766   6.028  11.415  0.4887  0.2490 -0.0137
  764MOL0     C 3053  11.592   5.787  11.231 -0.6054 -0.1135  0.2154
  764MOL0     C 3054  11.472   5.754  11.183  0.8051 -1.3067  0.4213
  764MOL0     N 3055  10.679   5.777  10.935  0.5232  0.6777  0.4131
  764MOL0     N 3056  10.580   5.699  10.958 -0.1364 -0.2272 -0.3084
  764MOL0     C 3057   9.411   5.712  10.908  0.5580  0.0558  0.7886
  764MOL0     C 3058   9.277   5.738  10.885  1.5608 -0.2062 -0.5657
  764MOL0     C 3059   8.820   5.720  10.904 -0.1009 -0.5703 -0.2357
  764MOL0     C 3060   8.786   5.859  10.904 -0.1486 -0.0199  0.5028
  764MOL0     C 3061   8.653   5.897  10.876  0.3663  0.5024  0.0705
  764MOL0     C 3062   8.558   5.801  10.857  0.5432  0.8682  1.0631
  764MOL0     O 3063   8.428   5.837  10.819 -0.4145 -0.6196  0.5510
  764MOL0     C 3064   8.333   5.882  10.920  0.2756 -1.0382  1.0628
  764MOL0     C 3065   8.287   6.026  10.895 -0.3021  1.4512  0.4803
  764MOL0     C 3066   8.164   6.047  10.795 -0.1092 -0.1609  0.4541
  764MOL0     C 3067   8.219   6.068  10.653  0.8063 -0.0862 -0.8356
  764MOL0     C 3068   8.115   6.102  10.556 -0.2527  0.0861 -0.1822
  764MOL0     C 3069   8.030   6.121  10.480  1.0802  0.4394 -0.8301
  764MOL0     C 3070   8.585   5.660  10.873  0.2883 -0.5561 -0.1058
  764MOL0     C 3071   8.718   5.626  10.898  0.6981 -0.7191 -1.1497
  764MOL0     C 3072   8.728   5.477  10.932  0.4192  0.1634  0.2070
  764MOL0     H 3073   9.153   5.754  11.196  0.5553  0.3728  0.6468
  764MOL0     H 3074   9.403   5.696  11.236 -0.8889 -0.2985  0.6520
  764MOL0     H 3075   9.621   5.553  10.905 -0.4461 -0.8189  1.4551
  764MOL0     H 3076   9.693   5.716  10.897  2.6008  0.3108  2.0222
  764MOL0     H 3077   9.743   5.513  11.108  0.1409 -0.0824 -0.0221
  764MOL0     H 3078   9.841   5.655  11.107 -0.3957 -0.9621  1.7211
  764MOL0     H 3079   9.893   5.594  10.855  0.4592 -0.5421 -1.1824
  764MOL0     H 3080   9.858   5.429  10.913 -1.2080  0.6143  0.8670
  764MOL0     H 3081  10.068   5.624  11.008 -1.6619  1.5207 -2.8022
  764MOL0     H 3082  10.028   5.466  11.087  1.5088  2.5313  1.2528
  764MOL0     H 3083  10.071   5.371  10.834  0.9403  0.4021 -2.1460
  764MOL0     H 3084  10.119   5.533  10.806  1.6349  0.7522  1.2952
  764MOL0     H 3085  10.266   5.364  11.027 -0.2850  1.5438  0.9320
  764MOL0     H 3086  10.285   5.326  10.863  0.2656 -1.5125  1.9062
  764MOL0     H 3087  10.316   5.598  10.998  0.7016 -1.0093  1.2079
  764MOL0     H 3088  10.339   5.587  10.819  2.4283  1.3084  0.3191
  764MOL0     H 3089  10.498   5.398  10.996  1.4068 -0.4447 -0.0284
  764MOL0     H 3090  10.499   5.413  10.826 -0.1572 -0.7122  0.2088
  764MOL0     H 3091  10.759   5.477  10.817 -0.6723  0.7083 -1.2355
  764MOL0     H 3092  10.945   5.665  10.766  0.5012  0.9066  1.9367
  764MOL0     H 3093  10.841   5.800  10.719 -0.3857 -2.3305 -0.9718
  764MOL0     H 3094  11.057   5.872  10.825  0.2125 -2.8958 -0.8845
  764MOL0     H 3095  10.935   5.910  10.942  0.0194 -0.3840  1.3080
  764MOL0     H 3096  11.073   5.647  10.961 -3.7846 -0.5778 -0.5051
  764MOL0     H 3097  10.997   5.725  11.088  1.9931 -0.0740  0.8004
  764MOL0     H 3098  11.183   5.922  11.030  2.9323  0.9148 -2.4385
  764MOL0     H 3099  11.274   5.778  10.973  1.5781  1.2101  1.8798
  764MOL0     H 3100  11.309   6.043  11.268  0.9117  0.5258  4.0127
  764MOL0     H 3101  11.540   6.106  11.336 -2.1603 -0.3569  2.1993
  764MOL0     H 3102  11.999   5.891  11.508 -1.6186 -2.4830 -0.0842
  764MOL0     H 3103  12.228   5.943  11.518 -2.1384  0.8249  0.1308
  764MOL0     H 3104  12.440   5.998  11.508  2.9901  1.1450 -1.3354
  764MOL0     H 3105  12.437   5.826  11.478 -1.8772  1.1087  0.2262
  764MOL0     H 3106  12.658   5.843  11.487  0.8256  0.0413  0.0563
  764MOL0     H 3107  12.640   5.872  11.316  0.2252  2.4349 -1.0951
  764MOL0     H 3108  12.612   6.116  11.368 -0.4407 -0.0402  1.1644
  764MOL0     H 3109  12.685   6.085  11.530  1.0349  0.4666  0.3284
  764MOL0     H 3110  12.811   6.020  11.264 -0.9305  0.9004  0.2177
  764MOL0     H 3111  12.877   5.977  11.426  2.4827  1.0800  0.5555
  764MOL0     H 3112  12.817   6.257  11.457  2.2402  2.0280  0.7484
  764MOL0     H 3113  12.846   6.253  11.294 -3.2135  2.9525  2.5500
  764MOL0     H 3114  13.081   6.157  11.351  0.0375 -1.6901  1.3627
  764MOL0     H 3115  13.048   6.306  11.430  0.9996 -0.0567 -0.3954
  764MOL0     H 3116  13.048   6.024  11.562  2.8828  0.5349  1.6667
  764MOL0     H 3117  12.945   6.153  11.626  1.2799  2.6233  1.1802
  764MOL0     H 3118  13.241   6.161  11.562 -0.2772  0.4670  0.1330
  764MOL0     H 3119  13.152   6.290  11.646 -1.4190  0.0728 -1.1951
  764MOL0     H 3120  12.261   5.923  11.095 -1.8658 -1.5697 -2.1749
  764MOL0     H 3121  12.011   5.899  11.065 -1.8779 -1.1823 -0.1259
  764MOL0     H 3122  11.664   5.706  11.230  0.2235  0.5495 -2.3719
  764MOL0     H 3123  11.454   5.663  11.127 -3.8700 -0.4732  0.1961
  764MOL0     H 3124   9.472   5.695  10.820 -2.2413  1.5414 -1.6219
  764MOL0     H 3125   9.239   5.752  10.784  1.9566  2.5291 -0.4145
  764MOL0     H 3126   8.863   5.935  10.900  2.0107 -2.1341 -0.8216
  764MOL0     H 3127   8.619   5.999  10.863  0.1843  0.3547 -0.6759
  764MOL0     H 3128   8.380   5.876  11.019  1.7125 -0.5013  0.4473
  764MOL0     H 3129   8.246   5.818  10.930 -0.1000 -0.9262 -1.0441
  764MOL0     H 3130   8.379   6.073  10.859  1.5682 -3.3113 -1.7476
  764MOL0     H 3131   8.251   6.056  10.994 -0.6360 -2.3375  1.6850
  764MOL0     H 3132   8.106   6.136  10.820  0.2852  0.5832 -1.1112
  764MOL0     H 3133   8.108   5.953  10.796  1.9640 -1.5081 -1.0321
  764MOL0     H 3134   8.291   6.149  10.667 -1.1437  1.6311 -0.2053
  764MOL0     H 3135   8.267   5.975  10.622  0.9635 -1.3345  2.6415
  764MOL0     H 3136   7.958   6.136  10.402  2.0531  1.3241 -1.5897
  764MOL0     H 3137   8.510   5.582  10.868  1.2032 -1.4148 -0.9279
  764MOL0     H 3138   8.648   5.461  11.006  1.1202  0.5806  1.0753
  764MOL0     H 3139   8.707   5.426  10.837  1.9197 -0.0447 -0.0286
  764MOL0     H 3140   8.825   5.446  10.972  2.1334  1.4212 -2.7241
  765MOL0     O 3141   7.988   4.179   4.325 -0.3870 -0.2864 -0.2869
  765MOL0     C 3142   7.910   4.097   4.271  0.4366 -1.1564  0.5326
  765MOL0     O 3143   7.935   3.962   4.259  0.0642 -0.4729  0.8397
  765MOL0     C 3144   8.053   3.906   4.293 -0.2704  0.7619  0.7129
  765MOL0     C 3145   8.148   3.881   4.198  0.4060 -0.6541 -0.2635
  765MOL0     C 3146   8.276   3.825   4.228  0.4092  0.0848  0.2635
  765MOL0     C 3147   8.302   3.783   4.361 -0.6739 -0.0070 -0.2671
  765MOL0     O 3148   8.418   3.720   4.413 -0.0213  0.4732  0.2948
  765MOL0     C 3149   8.506   3.665   4.315  0.5908 -0.2340 -0.3020
  765MOL0     C 3150   8.619   3.583   4.385 -0.6920  0.3547  0.2750
  765MOL0     C 3151   8.721   3.515   4.282 -0.6402 -0.0652 -0.0314
  765MOL0     C 3152   8.849   3.474   4.362  1.1081  0.0169  0.5933
  765MOL0     C 3153   8.951   3.392   4.269  0.6863 -0.6904 -1.2227
  765MOL0     C 3154   9.061   3.497   4.223  0.5145  0.3171 -0.5587
  765MOL0     C 3155   9.159   3.436   4.114 -0.0433 -0.6406 -0.3391
  765MOL0     C 3156   9.276   3.359   4.186  0.0901  0.1036 -0.2612
  765MOL0     N 3157   9.374   3.298   4.099 -0.6056 -0.8309  0.4195
  765MOL0     C 3158   9.353   3.166   4.066  0.1714  0.1280  0.3488
  765MOL0     C 3159   9.453   3.141   3.976  0.6203  0.8992  0.3881
  765MOL0     C 3160   9.496   3.004   3.923  0.2420  0.6971  0.3869
  765MOL0     C 3161   9.504   2.902   4.045 -0.2473  0.0903  0.1857
  765MOL0     C 3162   9.620   2.924   4.138 -0.0374 -0.3996 -0.5165
  765MOL0     C 3163   9.610   2.832   4.266 -0.5662 -0.2804 -0.6750
  765MOL0     O 3164   9.696   2.879   4.371  0.0957 -0.1484  0.0195
  765MOL0     C 3165   9.826   2.832   4.383 -0.5007 -0.0937  0.2658
  765MOL0     C 3166   9.879   2.738   4.301 -0.3886  0.0307  0.8302
  765MOL0     C 3167  10.003   2.692   4.303 -0.7613 -1.0366 -0.1661
  765MOL0     C 3168  10.086   2.730   4.416  0.1215  0.9598  0.1358
  765MOL0     C 3169  10.219   2.674   4.419 -0.5062  0.1111 -0.3577
  765MOL0     O 3170  10.296   2.713   4.523  0.0389  0.6716 -0.3259
  765MOL0     C 3171  10.417   2.664   4.549  0.4681  0.4658 -0.8659
  765MOL0     C 3172  10.519   2.627   4.454  0.2299 -0.0523 -0.4455
  765MOL0     C 3173  10.648   2.575   4.500  0.2895 -0.5723  0.5409
  765MOL0     C 3174  10.677   2.553   4.638 -0.9644 -0.6393 -0.9984
  765MOL0     O 3175  10.798   2.495   4.687  0.1807 -0.1793 -0.3228
  765MOL0     C 3176  10.899   2.445   4.593 -0.8803 -0.8941 -0.6609
  765MOL0     C 3177  10.980   2.550   4.515 -0.2658  0.7571 -0.3162
  765MOL0     C 3178  11.058   2.646   4.597 -0.0537 -0.3672  0.5725
  765MOL0     C 3179  11.149   2.587   4.704 -0.3432 -0.7204  0.1188
  765MOL0     C 3180  11.249   2.695   4.745  0.3911  0.0129  0.5814
  765MOL0     C 3181  11.373   2.621   4.801  0.5968  0.0860 -0.1384
  765MOL0     C 3182  11.495   2.721   4.807 -0.6028  1.0463 -0.3667
  765MOL0     C 3183  11.612   2.655   4.878 -0.2085  0.0371 -0.2727
  765MOL0    Cl 3184  11.769   2.693   4.800  0.2477  0.2609 -0.1897
  765MOL0     C 3185  10.573   2.580   4.722 -0.2998  0.5839 -0.8925
  765MOL0     C 3186  10.450   2.643   4.680 -0.4551 -0.2160  0.3541
  765MOL0     O 3187  10.256   2.581   4.346  0.1408 -0.1351 -0.3965
  765MOL0     C 3188  10.034   2.821   4.512  0.1525 -0.4642 -0.4572
  765MOL0     C 3189   9.911   2.875   4.493 -0.5759 -0.2942 -0.1187
  765MOL0     N 3190   9.526   3.255   3.956 -0.3111 -0.6744 -0.1035
  765MOL0     N 3191   9.478   3.353   4.028 -0.3254  0.2064 -0.4446
  765MOL0     C 3192   8.203   3.811   4.460 -0.4992  0.6870  0.7531
  765MOL0     C 3193   8.078   3.875   4.425  0.6065  0.3711 -0.6321
  765MOL0     C 3194   7.779   4.146   4.222  0.8333 -0.6640 -0.5376
  765MOL0     C 3195   7.663   4.059   4.202 -0.0091 -0.4142  0.0812
  765MOL0     C 3196   7.537   4.098   4.157  0.0170 -0.0026  1.1505
  765MOL0     C 3197   7.513   4.228   4.124 -0.2684 -0.4596 -0.7509
  765MOL0     O 3198   7.384   4.278   4.085  0.0036 -0.0131 -0.0709
  765MOL0     C 3199   7.297   4.194   4.005  0.2162  0.8711  0.5040
  765MOL0     C 3200   7.205   4.111   4.095 -0.0097  0.5377 -0.8116
  765MOL0     C 3201   7.072   4.179   4.116  0.7205  0.4730 -0.0012
  765MOL0     C 3202   6.974   4.079   4.176 -0.4091  0.4113 -0.6949
  765MOL0     C 3203   6.851   4.150   4.221 -0.6139 -0.0868  0.9124
  765MOL0     C 3204   6.750   4.197   4.274 -0.7077 -0.2576  0.5261
  765MOL0     C 3205   7.617   4.320   4.145 -0.3692 -0.7879 -0.4761
  765MOL0     C 3206   7.753   4.286   4.193 -0.0805  0.7301  0.4880
  765MOL0     C 3207   7.856   4.393   4.203  0.7029  0.6101 -0.4619
  765MOL0     H 3208   8.127   3.902   4.093  1.6878 -0.4468 -0.4971
  765MOL0     H 3209   8.350   3.813   4.149  0.1962  4.6812 -0.9598
  765MOL0     H 3210   8.452   3.599   4.247 -2.0203 -1.6889  2.9395
  765MOL0     H 3211   8.559   3.748   4.267  1.1348 -0.1555  0.4104
  765MOL0     H 3212   8.557   3.517   4.447  3.6134 -2.7100  1.7838
  765MOL0     H 3213   8.682   3.637   4.457 -2.1808  1.1667  1.0145
  765MOL0     H 3214   8.753   3.582   4.202  2.8540 -0.4023  0.8895
  765MOL0     H 3215   8.674   3.429   4.233  1.0034 -1.1034  0.1307
  765MOL0     H 3216   8.888   3.564   4.410  1.8626 -1.3409  2.6839
  765MOL0     H 3217   8.799   3.413   4.438 -0.0261 -2.3722 -1.8848
  765MOL0     H 3218   9.000   3.321   4.336 -0.1418 -0.9689 -0.8975
  765MOL0     H 3219   8.900   3.346   4.184  1.4442 -3.2114 -0.3786
  765MOL0     H 3220   9.021   3.584   4.171  2.7120  0.5196 -2.0417
  765MOL0     H 3221   9.113   3.525   4.316 -2.7584 -0.7580  1.7863
  765MOL0     H 3222   9.202   3.519   4.057 -0.3183  0.7720  1.4378
  765MOL0     H 3223   9.099   3.374   4.046 -1.4819  2.0031 -1.6333
  765MOL0     H 3224   9.321   3.424   4.261  2.7174 -0.4183 -1.2780
  765MOL0     H 3225   9.235   3.273   4.240  1.7086  0.7572  2.1621
  765MOL0     H 3226   9.282   3.094   4.104 -0.0842  0.7066  0.9950
  765MOL0     H 3227   9.428   2.977   3.842  0.9718  2.1386 -0.7720
  765MOL0     H 3228   9.598   3.018   3.885  0.2586  0.2095  0.2388
  765MOL0     H 3229   9.411   2.904   4.102  0.3830  1.0392  1.2134
  765MOL0     H 3230   9.510   2.801   4.002  0.7590  0.2799 -0.1446
  765MOL0     H 3231   9.598   3.024   4.175  1.3289 -0.7078  1.3029
  765MOL0     H 3232   9.720   2.922   4.094 -0.5740 -0.4757 -1.7770
  765MOL0     H 3233   9.632   2.728   4.240 -1.9247 -0.1071 -2.7312
  765MOL0     H 3234   9.506   2.826   4.300 -0.5901  1.5814 -0.3075
  765MOL0     H 3235   9.829   2.696   4.215  1.8731  0.3520 -0.7113
  765MOL0     H 3236  10.029   2.615   4.232  0.8097  0.9620 -1.8987
  765MOL0     H 3237  10.505   2.645   4.348 -2.3929 -0.7021 -0.3003
  765MOL0     H 3238  10.721   2.553   4.424 -0.8296  0.0237 -0.7520
  765MOL0     H 3239  10.975   2.389   4.649 -0.1982  1.5157  0.9998
  765MOL0     H 3240  10.840   2.373   4.537 -2.0352  0.3139 -1.0697
  765MOL0     H 3241  11.055   2.501   4.452  0.9634  0.1212  1.5703
  765MOL0     H 3242  10.915   2.616   4.455 -0.6700  1.5270  0.9331
  765MOL0     H 3243  11.120   2.699   4.524 -0.0392 -2.8862 -1.3881
  765MOL0     H 3244  10.996   2.727   4.638  0.2933  2.6383 -4.0725
  765MOL0     H 3245  11.201   2.499   4.665  1.7889 -0.1828  1.5569
  765MOL0     H 3246  11.097   2.556   4.795  0.9541 -2.3921  0.3468
  765MOL0     H 3247  11.206   2.758   4.823 -1.8366  2.1836 -2.1907
  765MOL0     H 3248  11.282   2.752   4.658  1.4306 -1.0424  0.2544
  765MOL0     H 3249  11.350   2.571   4.896  2.2535 -1.7054 -0.5940
  765MOL0     H 3250  11.395   2.540   4.730  1.0014 -2.4003  2.6105
  765MOL0     H 3251  11.462   2.813   4.856  0.7422  3.1814 -3.1408
  765MOL0     H 3252  11.513   2.735   4.700  2.0580 -4.6497 -0.9969
  765MOL0     H 3253  11.613   2.682   4.984 -1.3530  2.0603 -0.7203
  765MOL0     H 3254  11.596   2.548   4.864 -1.2130 -0.3975  3.2051
  765MOL0     H 3255  10.583   2.570   4.830 -1.9438  1.7430 -0.5830
  765MOL0     H 3256  10.386   2.669   4.764  0.0909 -0.6210  0.9106
  765MOL0     H 3257  10.094   2.843   4.599  0.4318 -1.4815 -0.3860
  765MOL0     H 3258   9.876   2.938   4.575  2.0917 -0.2956  1.1431
  765MOL0     H 3259   8.232   3.789   4.563  0.8425 -2.2960 -0.1497
  765MOL0     H 3260   8.001   3.891   4.499 -1.2654 -1.0103 -2.1662
  765MOL0     H 3261   7.669   3.954   4.230 -1.2217 -0.5253  0.0028
  765MOL0     H 3262   7.460   4.022   4.147  2.5603 -2.7865  1.2381
  765MOL0     H 3263   7.362   4.133   3.942 -0.7495  0.8136 -0.4620
  765MOL0     H 3264   7.230   4.250   3.939  0.5665  0.9014  0.1730
  765MOL0     H 3265   7.255   4.112   4.192  1.5549  1.8682 -1.5941
  765MOL0     H 3266   7.201   4.011   4.049  2.9598 -0.2010  0.3285
  765MOL0     H 3267   7.030   4.223   4.025  0.3353  1.1056  0.4655
  765MOL0     H 3268   7.080   4.258   4.191 -3.6221 -0.5037  1.7883
  765MOL0     H 3269   6.951   4.006   4.098 -0.2864  0.3509 -0.6751
  765MOL0     H 3270   7.025   4.030   4.259 -3.1836  1.6930  1.9606
  765MOL0     H 3271   6.673   4.247   4.329 -0.1915  0.6723  0.4279
  765MOL0     H 3272   7.604   4.427   4.136 -1.7926 -1.0820 -2.8913
  765MOL0     H 3273   7.934   4.380   4.127  0.7134  2.5426 -0.8218
  765MOL0     H 3274   7.814   4.487   4.168 -1.2555 -0.7814 -2.1199
  765MOL0     H 3275   7.905   4.409   4.299  1.2980  0.7373 -0.7820
  766MOL0     O 3276   9.019   4.210   9.353 -0.0205 -0.0252  0.5736
  766MOL0     C 3277   9.095   4.259   9.432 -0.4096 -0.9845  0.0301
  766MOL0     O 3278   9.228   4.270   9.420  0.2980  0.0678  0.3641
  766MOL0     C 3279   9.283   4.233   9.307  0.7514 -0.1497 -0.4226
  766MOL0     C 3280   9.398   4.158   9.305 -0.0260  0.2835  0.1738
  766MOL0     C 3281   9.463   4.134   9.178  0.5084  0.5099 -1.0231
  766MOL0     C 3282   9.416   4.196   9.061 -0.8339 -0.2079 -0.2748
  766MOL0     O 3283   9.488   4.178   8.949  0.0227 -0.3997  0.1116
  766MOL0     C 3284   9.491   4.273   8.839 -0.1363  0.3263 -0.0387
  766MOL0     C 3285   9.575   4.215   8.737 -0.9728 -0.3713  0.0277
  766MOL0     C 3286   9.503   4.086   8.683  0.0971  0.3241  0.3057
  766MOL0     C 3287   9.563   4.047   8.550  0.4682  0.4572 -0.1620
  766MOL0     C 3288   9.500   3.908   8.511  0.4612 -0.3479  0.6278
  766MOL0     C 3289   9.540   3.877   8.362  0.1942 -0.0771 -0.8745
  766MOL0     C 3290   9.522   3.724   8.338 -0.7318 -0.0939  0.7154
  766MOL0     C 3291   9.539   3.688   8.185 -0.5757 -0.2585 -0.4363
  766MOL0     N 3292   9.669   3.719   8.138 -0.3898  1.1689 -0.1946
  766MOL0     C 3293   9.797   3.714   8.199  0.4621  0.2492 -0.1174
  766MOL0     C 3294   9.876   3.781   8.111 -0.6494  0.7543  0.1377
  766MOL0     C 3295  10.025   3.811   8.134 -0.5867 -0.0035 -0.7728
  766MOL0     C 3296  10.051   3.919   8.239 -0.1887 -0.6574 -0.6330
  766MOL0     C 3297  10.198   3.958   8.250  0.6966  0.7025 -0.9011
  766MOL0     C 3298  10.251   4.034   8.136 -0.0565  0.0502 -0.5600
  766MOL0     O 3299  10.385   4.067   8.163 -0.4411 -0.5573  0.4760
  766MOL0     C 3300  10.484   3.991   8.101 -0.2700  0.0559 -1.2830
  766MOL0     C 3301  10.457   3.869   8.034 -1.1654 -0.0112  0.0677
  766MOL0     C 3302  10.557   3.796   7.975  0.0850 -0.0080 -0.0313
  766MOL0     C 3303  10.686   3.839   8.004 -0.1219 -0.5358 -0.2439
  766MOL0     C 3304  10.808   3.747   7.978  1.5809 -0.0768 -0.0765
  766MOL0     O 3305  10.934   3.799   7.976  0.8615 -0.1339  0.3066
  766MOL0     C 3306  11.030   3.708   7.957 -0.4398 -0.4390 -0.1113
  766MOL0     C 3307  11.118   3.682   8.067  0.9683  0.1452 -0.2007
  766MOL0     C 3308  11.235   3.616   8.048 -0.1724  0.2123 -0.2990
  766MOL0     C 3309  11.266   3.557   7.920  0.8718  0.5297  0.1457
  766MOL0     O 3310  11.376   3.474   7.899 -0.5530 -0.6391 -0.5409
  766MOL0     C 3311  11.494   3.520   7.973  0.9217  0.4413  0.5066
  766MOL0     C 3312  11.609   3.429   7.936 -0.3932  0.2454 -0.1686
  766MOL0     C 3313  11.732   3.457   8.030  0.5642 -0.0262  0.4407
  766MOL0     C 3314  11.776   3.604   8.026 -0.2321  0.0981  0.1514
  766MOL0     C 3315  11.913   3.662   8.068 -0.6279 -0.2261 -0.3856
  766MOL0     C 3316  12.014   3.614   7.957 -0.4811  0.1777  0.0605
  766MOL0     C 3317  12.158   3.655   7.996 -0.7604  0.0231 -0.6211
  766MOL0     C 3318  12.234   3.585   8.110 -0.3771 -0.5130 -0.3456
  766MOL0    Cl 3319  12.397   3.661   8.123  0.0824 -0.0874  0.2025
  766MOL0     C 3320  11.182   3.581   7.816 -0.1684 -0.2282  0.9941
  766MOL0     C 3321  11.069   3.655   7.833  0.7687 -0.2672 -0.1681
  766MOL0     O 3322  10.782   3.631   7.992  0.0637  0.4964 -0.2699
  766MOL0     C 3323  10.717   3.962   8.068 -0.7097 -0.0461 -0.5726
  766MOL0     C 3324  10.613   4.040   8.115  0.7296 -0.9103  0.0278
  766MOL0     N 3325   9.808   3.814   7.996  0.8762  0.5123 -0.8098
  766MOL0     N 3326   9.679   3.787   8.020 -0.0227 -0.1537 -0.0505
  766MOL0     C 3327   9.296   4.274   9.059 -0.5989  0.1347 -0.2729
  766MOL0     C 3328   9.234   4.290   9.184 -0.3811 -0.0188  0.2134
  766MOL0     C 3329   9.042   4.328   9.552  0.5476  0.1270  0.3580
  766MOL0     C 3330   9.132   4.404   9.624  0.5478  0.2042 -0.1518
  766MOL0     C 3331   9.089   4.474   9.733  0.8384 -0.8780 -0.2525
  766MOL0     C 3332   8.961   4.479   9.777  0.0790  0.1240  0.9597
  766MOL0     O 3333   8.935   4.562   9.883 -0.5877 -0.8362 -0.4268
  766MOL0     C 3334   8.810   4.649   9.900  0.0303  0.3009  0.0042
  766MOL0     C 3335   8.756   4.737   9.787 -0.5097 -0.9069 -0.1694
  766MOL0     C 3336   8.866   4.814   9.707 -0.0214  0.7451 -0.4495
  766MOL0     C 3337   8.811   4.912   9.605  0.1315  0.1419  0.8757
  766MOL0     C 3338   8.778   5.043   9.669  0.6861  0.6090 -0.3356
  766MOL0     C 3339   8.764   5.148   9.730 -1.4632  0.2899 -0.1577
  766MOL0     C 3340   8.866   4.414   9.698  0.4926 -0.5666 -0.3440
  766MOL0     C 3341   8.907   4.328   9.593 -0.5671 -0.1634 -0.4419
  766MOL0     C 3342   8.810   4.224   9.546  0.1335  0.2176  0.2150
  766MOL0     H 3343   9.444   4.121   9.396  0.2008 -0.0854 -0.0898
  766MOL0     H 3344   9.554   4.075   9.177  1.0008  0.5123  5.0917
  766MOL0     H 3345   9.388   4.280   8.802 -0.7145 -1.0258  1.2397
  766MOL0     H 3346   9.531   4.368   8.875  1.5507  0.8151 -2.8584
  766MOL0     H 3347   9.672   4.185   8.776  0.1940  1.8765 -0.9907
  766MOL0     H 3348   9.608   4.281   8.657 -2.3390 -1.5653 -1.6117
  766MOL0     H 3349   9.396   4.106   8.666  0.5092  0.4287 -2.6606
  766MOL0     H 3350   9.513   4.003   8.753  0.7517 -1.4179 -1.7325
  766MOL0     H 3351   9.538   4.116   8.469 -3.3731 -0.9252 -0.3601
  766MOL0     H 3352   9.672   4.050   8.561  0.4670  3.5316  0.1265
  766MOL0     H 3353   9.521   3.828   8.583 -0.5464 -0.8332  0.4107
  766MOL0     H 3354   9.391   3.913   8.502  0.2505 -2.8738  0.8734
  766MOL0     H 3355   9.474   3.919   8.286 -0.2311 -1.2677 -1.1858
  766MOL0     H 3356   9.643   3.901   8.335 -0.4345  0.5871 -2.7924
  766MOL0     H 3357   9.423   3.684   8.360 -0.6940 -1.1977 -0.9338
  766MOL0     H 3358   9.592   3.660   8.393  0.2047  1.1082  0.9621
  766MOL0     H 3359   9.522   3.580   8.172  0.3619 -0.4553 -0.1267
  766MOL0     H 3360   9.465   3.742   8.125 -0.9796  0.5029  0.7105
  766MOL0     H 3361   9.820   3.666   8.294 -2.0161 -0.8394 -0.0100
  766MOL0     H 3362  10.084   3.721   8.155  0.0448  0.5011 -0.3371
  766MOL0     H 3363  10.062   3.858   8.043  0.2046  0.1461 -0.3802
  766MOL0     H 3364   9.985   4.004   8.220 -0.5476 -0.0916  2.6015
  766MOL0     H 3365  10.021   3.874   8.334  0.8530 -0.1798 -0.0660
  766MOL0     H 3366  10.247   3.860   8.248 -2.0853 -0.7723 -0.6670
  766MOL0     H 3367  10.217   4.002   8.348  0.7570  1.9815 -1.4686
  766MOL0     H 3368  10.183   4.119   8.130 -0.9711 -0.5727  0.6394
  766MOL0     H 3369  10.238   3.992   8.036  0.4504 -1.1671 -0.1428
  766MOL0     H 3370  10.355   3.835   8.025 -1.7207  0.9814  2.0716
  766MOL0     H 3371  10.542   3.697   7.932 -1.3945  0.3049 -0.2633
  766MOL0     H 3372  11.092   3.730   8.161  0.4562  0.1219 -0.3276
  766MOL0     H 3373  11.297   3.584   8.131  0.5970  1.2460 -0.4643
  766MOL0     H 3374  11.514   3.625   7.953  1.3423  0.0298 -1.4373
  766MOL0     H 3375  11.473   3.510   8.080  1.1375  1.9051  0.6968
  766MOL0     H 3376  11.575   3.325   7.937 -0.2208  0.1737 -0.9701
  766MOL0     H 3377  11.633   3.453   7.832 -1.6768 -0.2863 -0.6069
  766MOL0     H 3378  11.699   3.429   8.131  0.3341 -0.1553  0.3312
  766MOL0     H 3379  11.814   3.388   8.005  1.6399  1.0713  0.8306
  766MOL0     H 3380  11.701   3.660   8.083  0.1267 -0.0557  0.7790
  766MOL0     H 3381  11.760   3.625   7.920 -1.3603 -1.4918 -0.0343
  766MOL0     H 3382  11.944   3.627   8.166 -1.4900  1.7400  0.6365
  766MOL0     H 3383  11.915   3.771   8.067  2.3918 -0.2227 -0.0243
  766MOL0     H 3384  12.018   3.504   7.962  3.4552  0.2084  0.8743
  766MOL0     H 3385  11.991   3.652   7.858  3.1212  1.3536 -0.4677
  766MOL0     H 3386  12.165   3.762   8.019  3.9131  0.0840 -1.3755
  766MOL0     H 3387  12.219   3.642   7.906  1.6159  1.9741  0.5657
  766MOL0     H 3388  12.185   3.603   8.206 -0.4439  0.5138 -0.5505
  766MOL0     H 3389  12.241   3.478   8.089 -0.7014 -0.3727 -1.2278
  766MOL0     H 3390  11.199   3.529   7.722 -1.8987  1.7421 -0.4958
  766MOL0     H 3391  11.012   3.679   7.744 -0.2850 -0.0523  0.5466
  766MOL0     H 3392  10.820   3.991   8.085  0.7101 -3.6593 -1.9819
  766MOL0     H 3393  10.631   4.138   8.158  1.5760 -1.1443  0.2313
  766MOL0     H 3394   9.261   4.337   8.978  0.7411 -0.7367 -1.5855
  766MOL0     H 3395   9.157   4.365   9.196  1.5311  2.0615  0.0844
  766MOL0     H 3396   9.240   4.411   9.609  0.2664 -0.4795 -2.9615
  766MOL0     H 3397   9.165   4.526   9.792 -0.8108  0.4435  0.8075
  766MOL0     H 3398   8.809   4.711   9.990 -0.1830  1.0919 -0.5291
  766MOL0     H 3399   8.738   4.571   9.925 -0.4349  0.4370 -0.8629
  766MOL0     H 3400   8.692   4.818   9.823 -0.1665 -1.4647  1.8168
  766MOL0     H 3401   8.709   4.665   9.718 -2.0157 -0.4052  0.2956
  766MOL0     H 3402   8.943   4.753   9.660  0.2299  1.7972 -1.4486
  766MOL0     H 3403   8.921   4.874   9.780  3.0945 -0.7607 -1.4070
  766MOL0     H 3404   8.883   4.930   9.524 -0.9747 -1.0465 -0.4191
  766MOL0     H 3405   8.725   4.871   9.551 -1.9204 -0.0813  4.0319
  766MOL0     H 3406   8.753   5.235   9.791  0.9609 -0.7413  1.9714
  766MOL0     H 3407   8.761   4.414   9.724  0.6120 -0.3314  0.1481
  766MOL0     H 3408   8.861   4.129   9.562 -0.6057 -0.3309 -0.6201
  766MOL0     H 3409   8.721   4.217   9.609  1.0804 -0.0661  1.5740
  766MOL0     H 3410   8.782   4.247   9.442 -0.7419  3.5435  1.0629
  767MOL0     O 3411  11.316   3.737   3.756  0.4528  0.1250 -0.1483
  767MOL0     C 3412  11.284   3.741   3.637  0.3939  0.4273  1.1026
  767MOL0     O 3413  11.367   3.740   3.530 -0.7003 -0.0297  0.0810
  767MOL0     C 3414  11.498   3.706   3.551  0.1951  0.1365  0.6313
  767MOL0     C 3415  11.565   3.724   3.428 -0.2921  0.8609  0.0934
  767MOL0     C 3416  11.697   3.697   3.409  0.3201 -0.5754 -0.2930
  767MOL0     C 3417  11.769   3.643   3.517 -0.2523  0.6392 -0.2289
  767MOL0     O 3418  11.892   3.588   3.476 -0.2782 -0.1205 -0.4339
  767MOL0     C 3419  11.996   3.529   3.565 -0.7581 -0.0067 -0.0087
  767MOL0     C 3420  12.088   3.445   3.474 -0.9132  1.2769  0.3205
  767MOL0     C 3421  12.200   3.383   3.565 -0.4360  0.2877  0.1097
  767MOL0     C 3422  12.290   3.286   3.485  0.1285  0.5423  0.9720
  767MOL0     C 3423  12.342   3.339   3.351 -0.3137  0.5369  0.3484
  767MOL0     C 3424  12.414   3.467   3.376  0.2462  0.0766  0.4922
  767MOL0     C 3425  12.480   3.517   3.249 -0.3035 -0.0988 -0.2151
  767MOL0     C 3426  12.606   3.439   3.194 -0.3262  0.5378 -0.3610
  767MOL0     N 3427  12.646   3.494   3.061  0.2837 -0.1880  0.2139
  767MOL0     C 3428  12.740   3.582   3.028 -0.5868 -0.3623 -1.2364
  767MOL0     C 3429  12.744   3.597   2.896 -0.0679  0.8864 -0.5380
  767MOL0     C 3430  12.823   3.700   2.820 -0.4850 -0.1701  0.4074
  767MOL0     C 3431  12.964   3.738   2.874 -0.2818 -0.6579  1.2215
  767MOL0     C 3432  13.033   3.843   2.783  0.1341  0.0080 -0.0330
  767MOL0     C 3433  13.177   3.889   2.835  0.2078  0.0045 -0.0119
  767MOL0     O 3434  13.289   3.792   2.840 -0.5112 -1.0278 -0.6516
  767MOL0     C 3435  13.410   3.830   2.897  0.1210 -0.5458 -0.2423
  767MOL0     C 3436  13.515   3.744   2.863  0.0514  0.1810 -0.9137
  767MOL0     C 3437  13.644   3.765   2.903 -0.1405  0.0657 -0.5319
  767MOL0     C 3438  13.676   3.889   2.972 -0.3380 -0.6859 -0.1336
  767MOL0     C 3439  13.827   3.915   3.007  0.3391 -0.1500  0.5666
  767MOL0     O 3440  13.922   3.862   2.918  0.2146  0.9826 -0.3571
  767MOL0     C 3441  14.053   3.862   2.937 -0.0508 -0.4529 -0.3800
  767MOL0     C 3442  14.124   3.849   3.060 -0.4052 -0.2010  0.7580
  767MOL0     C 3443  14.265   3.846   3.071  0.3211 -0.4857  0.2239
  767MOL0     C 3444  14.337   3.879   2.957  0.9043  0.5312 -0.2949
  767MOL0     O 3445  14.473   3.873   2.963 -0.7286 -0.6988 -1.1865
  767MOL0     C 3446  14.544   3.784   3.050  0.2193  0.1572 -0.3498
  767MOL0     C 3447  14.695   3.803   3.057  0.4279  0.7084  0.5334
  767MOL0     C 3448  14.765   3.773   2.919 -0.8104  1.1285  0.3994
  767MOL0     C 3449  14.889   3.854   2.901  0.8857  0.6371  0.5102
  767MOL0     C 3450  14.962   3.835   2.771 -0.4274  0.7129  0.5336
  767MOL0     C 3451  15.084   3.930   2.767  0.3848 -0.7615 -0.8564
  767MOL0     C 3452  15.109   3.988   2.634 -0.3502  0.0922  0.0486
  767MOL0     C 3453  15.244   4.067   2.623  0.2290 -0.4163  0.6138
  767MOL0    Cl 3454  15.394   3.971   2.637 -0.1750  0.1571  0.4425
  767MOL0     C 3455  14.268   3.902   2.833  0.1657 -0.0858  0.8483
  767MOL0     C 3456  14.130   3.893   2.821  0.2164  0.5927  0.4360
  767MOL0     O 3457  13.850   3.989   3.104 -0.0898  0.0096  0.1520
  767MOL0     C 3458  13.570   3.981   3.000  0.3921  0.3342  0.8566
  767MOL0     C 3459  13.439   3.952   2.963 -0.0637  0.2183 -0.3473
  767MOL0     N 3460  12.657   3.509   2.843  0.8984  0.2735 -0.3560
  767MOL0     N 3461  12.596   3.449   2.939  0.4160  0.9147  0.4405
  767MOL0     C 3462  11.704   3.607   3.638 -0.0257 -0.2091  0.6977
  767MOL0     C 3463  11.571   3.642   3.657 -0.2531 -0.1325  0.4394
  767MOL0     C 3464  11.146   3.773   3.593  1.1270  0.1411  0.3974
  767MOL0     C 3465  11.129   3.843   3.472  0.1175  0.0411 -0.3904
  767MOL0     C 3466  11.004   3.876   3.430  0.2959  0.0960 -0.5489
  767MOL0     C 3467  10.889   3.842   3.505  0.5394 -0.2646 -0.6669
  767MOL0     O 3468  10.772   3.880   3.439 -0.1047  0.4322  0.2135
  767MOL0     C 3469  10.649   3.844   3.502  0.2824 -0.0971  0.2493
  767MOL0     C 3470  10.595   3.942   3.612  0.7064 -0.2624  1.4759
  767MOL0     C 3471  10.457   3.894   3.649  0.3090 -0.1028 -0.7887
  767MOL0     C 3472  10.425   3.951   3.791 -0.7628  0.3892  0.0851
  767MOL0     C 3473  10.389   4.095   3.784  0.0428 -0.0341  0.0981
  767MOL0     C 3474  10.346   4.204   3.776 -0.2108  0.1016 -0.4367
  767MOL0     C 3475  10.903   3.773   3.629 -0.7513  0.1967 -0.3710
  767MOL0     C 3476  11.034   3.745   3.676  0.1321  0.4414  0.2858
  767MOL0     C 3477  11.040   3.690   3.814 -0.3205 -0.0822  0.4056
  767MOL0     H 3478  11.508   3.770   3.347  2.2811 -0.8931 -2.9312
  767MOL0     H 3479  11.741   3.699   3.310  0.9124  1.3138 -0.0227
  767MOL0     H 3480  12.052   3.611   3.611 -2.7884  0.6763  1.3732
  767MOL0     H 3481  11.963   3.471   3.651 -0.9398  1.7179  1.1507
  767MOL0     H 3482  12.126   3.501   3.388  3.6821 -0.6680  0.8173
  767MOL0     H 3483  12.026   3.363   3.437  0.7287 -1.0993  2.4833
  767MOL0     H 3484  12.148   3.321   3.639  0.5412 -0.9271 -0.2055
  767MOL0     H 3485  12.255   3.459   3.621 -0.4480 -1.3583  2.4939
  767MOL0     H 3486  12.378   3.260   3.544  1.2767  2.4025  0.1606
  767MOL0     H 3487  12.220   3.204   3.466  0.7172 -0.0512  1.3364
  767MOL0     H 3488  12.413   3.267   3.313  0.3311  1.4719 -0.2606
  767MOL0     H 3489  12.263   3.357   3.277  1.4066  0.4524 -1.5897
  767MOL0     H 3490  12.338   3.537   3.412 -0.2478 -0.2708  0.1216
  767MOL0     H 3491  12.484   3.445   3.457 -1.0135 -1.9707  1.0910
  767MOL0     H 3492  12.511   3.621   3.262 -2.5285  0.4198  1.6343
  767MOL0     H 3493  12.409   3.505   3.166  0.5861 -0.5021 -0.9427
  767MOL0     H 3494  12.684   3.436   3.271 -0.6545  0.8892 -0.0096
  767MOL0     H 3495  12.586   3.332   3.184  3.0985 -0.4770  1.8032
  767MOL0     H 3496  12.807   3.626   3.101 -2.4313  0.4510  0.0462
  767MOL0     H 3497  12.845   3.666   2.718  1.6325  1.6439  0.1898
  767MOL0     H 3498  12.766   3.793   2.816 -0.5220 -0.2316 -2.6592
  767MOL0     H 3499  12.944   3.775   2.975  0.6309 -1.4258  1.7035
  767MOL0     H 3500  13.027   3.649   2.882 -0.9255 -0.9678  3.6380
  767MOL0     H 3501  12.959   3.924   2.778 -0.5791 -0.4444  2.0800
  767MOL0     H 3502  13.046   3.798   2.684  1.6056  3.1910 -1.4459
  767MOL0     H 3503  13.155   3.933   2.933 -1.6487  2.4991 -1.4207
  767MOL0     H 3504  13.217   3.971   2.776  1.6645  0.1274  1.0888
  767MOL0     H 3505  13.485   3.652   2.814 -1.6872  0.3677 -0.2657
  767MOL0     H 3506  13.714   3.684   2.884  1.2279  0.7402  1.3669
  767MOL0     H 3507  14.067   3.827   3.150 -0.3836 -1.5806  0.4621
  767MOL0     H 3508  14.302   3.824   3.171  1.0342  1.8682  0.5462
  767MOL0     H 3509  14.507   3.798   3.152 -0.6343 -0.4119 -0.5696
  767MOL0     H 3510  14.530   3.678   3.028  2.7764 -0.4132  0.4589
  767MOL0     H 3511  14.720   3.904   3.089 -0.2231  0.0160  3.5218
  767MOL0     H 3512  14.753   3.745   3.130  1.2918  1.2530  0.2959
  767MOL0     H 3513  14.782   3.666   2.910  1.5829  1.2059  2.9021
  767MOL0     H 3514  14.698   3.797   2.836 -0.2320  1.3140 -0.0285
  767MOL0     H 3515  14.959   3.833   2.982 -1.0896 -1.4229  1.7968
  767MOL0     H 3516  14.856   3.958   2.911 -0.6040  0.5150 -2.1363
  767MOL0     H 3517  14.903   3.870   2.686 -0.3610 -1.5793 -0.5453
  767MOL0     H 3518  14.985   3.729   2.758 -2.2757  0.1600  1.5198
  767MOL0     H 3519  15.079   4.011   2.841 -0.8255 -0.1578 -1.5812
  767MOL0     H 3520  15.169   3.866   2.794  0.8889 -0.6834 -2.1865
  767MOL0     H 3521  15.030   4.061   2.613  1.8076  1.9095 -2.3803
  767MOL0     H 3522  15.124   3.915   2.555  0.1727  0.4243 -0.1579
  767MOL0     H 3523  15.243   4.115   2.525  0.0251 -2.1750 -0.2710
  767MOL0     H 3524  15.250   4.138   2.706  0.0717 -1.0771  1.1974
  767MOL0     H 3525  14.323   3.914   2.740 -1.9343 -1.2046 -0.6349
  767MOL0     H 3526  14.075   3.919   2.731  0.7349  1.5447  0.3740
  767MOL0     H 3527  13.585   4.083   3.036  2.1477  0.6270 -0.5572
  767MOL0     H 3528  13.366   4.029   2.987  1.2895  1.1717  0.8411
  767MOL0     H 3529  11.760   3.547   3.709  1.1166 -0.1377 -0.1074
  767MOL0     H 3530  11.520   3.604   3.744 -3.0413 -1.4760 -1.6062
  767MOL0     H 3531  11.216   3.877   3.416  0.1503 -1.6680 -1.4560
  767MOL0     H 3532  10.997   3.932   3.337  0.5610  0.7786 -0.1640
  767MOL0     H 3533  10.666   3.745   3.546  4.9810  0.6755  0.7459
  767MOL0     H 3534  10.573   3.848   3.423 -1.6899  0.3006  2.0667
  767MOL0     H 3535  10.596   4.047   3.582  1.0347  0.0370  2.4908
  767MOL0     H 3536  10.664   3.929   3.697  4.1401  0.5199 -0.9726
  767MOL0     H 3537  10.452   3.785   3.645 -1.5316 -0.4042  3.8523
  767MOL0     H 3538  10.384   3.932   3.577 -2.3275 -0.3605  1.5921
  767MOL0     H 3539  10.339   3.897   3.831 -1.7811  2.5745  0.9983
  767MOL0     H 3540  10.506   3.930   3.862  0.3951  2.2216 -0.6319
  767MOL0     H 3541  10.312   4.304   3.759 -1.8552 -0.5570 -1.2280
  767MOL0     H 3542  10.811   3.743   3.677 -1.3715  1.0150 -1.0256
  767MOL0     H 3543  11.082   3.762   3.885 -1.0468  1.6981 -0.9021
  767MOL0     H 3544  10.936   3.675   3.847 -0.0599  1.9480  2.4590
  767MOL0     H 3545  11.098   3.599   3.800  2.2306  1.8941 -3.7334
  768MOL0     O 3546   2.485   9.204   7.131 -0.1561 -0.7162  0.4445
  768MOL0     C 3547   2.457   9.258   7.236  0.6733 -0.1273  0.2216
  768MOL0     O 3548   2.538   9.260   7.347 -0.3286 -0.5201  0.2698
  768MOL0     C 3549   2.669   9.219   7.340 -0.2097  0.0939 -1.1696
  768MOL0     C 3550   2.739   9.144   7.439  0.1737  0.2433 -0.2872
  768MOL0     C 3551   2.878   9.121   7.428 -0.2272  0.1048  1.1295
  768MOL0     C 3552   2.949   9.171   7.315  0.3517  0.0388 -0.7758
  768MOL0     O 3553   3.079   9.131   7.309 -0.5383 -0.3206 -0.2481
  768MOL0     C 3554   3.175   9.197   7.218 -0.4690  0.0502 -0.5694
  768MOL0     C 3555   3.304   9.194   7.293  0.3486 -0.2065 -0.0549
  768MOL0     C 3556   3.405   9.097   7.230  0.9308 -0.3793  0.1439
  768MOL0     C 3557   3.532   9.109   7.303 -0.2089  0.0893 -0.0871
  768MOL0     C 3558   3.625   8.980   7.286  0.1871 -0.4261  0.5692
  768MOL0     C 3559   3.694   8.957   7.149  0.8818  0.1854 -0.6973
  768MOL0     C 3560   3.600   8.938   7.020  0.3634 -0.2096 -1.0642
  768MOL0     C 3561   3.649   8.830   6.923 -0.2991 -0.1835 -0.0446
  768MOL0     N 3562   3.781   8.856   6.855 -0.1261  0.1460  0.1857
  768MOL0     C 3563   3.800   8.955   6.759  0.4177  0.5200 -0.0765
  768MOL0     C 3564   3.929   8.942   6.729  0.1608 -0.2352 -0.2955
  768MOL0     C 3565   4.000   9.031   6.635 -0.4095 -0.0223  0.5905
  768MOL0     C 3566   4.141   8.996   6.611 -0.0751  0.4940 -0.0527
  768MOL0     C 3567   4.221   9.111   6.546  0.6900  0.6472 -0.7273
  768MOL0     C 3568   4.360   9.067   6.498 -0.7340  0.1835 -0.3937
  768MOL0     O 3569   4.421   9.008   6.617 -0.2650  0.2212  0.0891
  768MOL0     C 3570   4.551   8.959   6.595  0.0464  0.1921 -1.1367
  768MOL0     C 3571   4.626   8.935   6.712  0.1575 -0.4113  0.1583
  768MOL0     C 3572   4.760   8.904   6.717 -1.0805 -0.3673  0.6914
  768MOL0     C 3573   4.836   8.889   6.587  0.2624 -0.5123 -0.8210
  768MOL0     C 3574   4.974   8.836   6.583  0.4177 -0.3563 -1.0584
  768MOL0     O 3575   5.034   8.827   6.710 -0.0716  0.3477 -0.3619
  768MOL0     C 3576   5.172   8.835   6.727 -0.2387 -0.0902  0.2223
  768MOL0     C 3577   5.260   8.908   6.636 -0.2536 -0.8775 -0.0312
  768MOL0     C 3578   5.400   8.913   6.656 -0.3233  0.3009  0.5153
  768MOL0     C 3579   5.454   8.846   6.765  0.2949  0.0062  0.7717
  768MOL0     O 3580   5.581   8.830   6.793  0.1405  0.2509  0.7124
  768MOL0     C 3581   5.651   8.946   6.834  0.3645 -0.1510  0.0207
  768MOL0     C 3582   5.801   8.909   6.813 -0.5021  0.1320 -0.8026
  768MOL0     C 3583   5.859   8.822   6.931 -0.3917 -0.5179 -0.0927
  768MOL0     C 3584   6.009   8.789   6.899 -0.0759  0.1974 -1.1359
  768MOL0     C 3585   6.067   8.704   7.007 -0.5931  0.3672  0.4069
  768MOL0     C 3586   6.200   8.650   6.957  0.1293  0.4836 -0.0065
  768MOL0     C 3587   6.295   8.748   6.884 -0.7401 -0.6003 -0.6182
  768MOL0     C 3588   6.424   8.690   6.837 -0.3663  0.2917 -0.4351
  768MOL0    Cl 3589   6.430   8.509   6.776 -0.0347  0.0398 -0.1525
  768MOL0     C 3590   5.368   8.788   6.857 -0.1564  0.2795 -0.3419
  768MOL0     C 3591   5.229   8.782   6.839 -0.2051  0.3808 -0.4846
  768MOL0     O 3592   5.029   8.824   6.476 -0.1920  0.3742  0.3082
  768MOL0     C 3593   4.755   8.904   6.474 -0.2781  1.1383 -0.4860
  768MOL0     C 3594   4.617   8.938   6.476  0.7561 -0.3555  0.0295
  768MOL0     N 3595   3.982   8.836   6.801  0.3507  0.0707  0.2201
  768MOL0     N 3596   3.889   8.780   6.865  0.2721  0.0201 -0.1056
  768MOL0     C 3597   2.880   9.253   7.225 -0.3918  0.6464 -0.2356
  768MOL0     C 3598   2.749   9.266   7.233 -0.1286 -0.4614 -0.1972
  768MOL0     C 3599   2.332   9.335   7.247 -0.1062 -0.3316 -0.4914
  768MOL0     C 3600   2.235   9.306   7.144  0.0621  0.2709  0.8001
  768MOL0     C 3601   2.099   9.347   7.159  0.3191 -0.3588  0.2431
  768MOL0     C 3602   2.065   9.421   7.276  0.6109  1.0393 -0.1568
  768MOL0     O 3603   1.930   9.444   7.280  0.6544  0.5833  0.0458
  768MOL0     C 3604   1.887   9.516   7.396 -0.3281  0.2631 -0.3563
  768MOL0     C 3605   1.728   9.514   7.391  0.6954  0.5228  0.7463
  768MOL0     C 3606   1.666   9.531   7.247  0.1310  0.8435  0.4953
  768MOL0     C 3607   1.520   9.533   7.247  0.0735 -0.3358 -0.1881
  768MOL0     C 3608   1.471   9.590   7.120  0.5797 -1.0793  0.3489
  768MOL0     C 3609   1.427   9.632   7.014  0.1758 -0.6941  0.9156
  768MOL0     C 3610   2.161   9.481   7.356 -0.3116  0.5953  0.0148
  768MOL0     C 3611   2.295   9.434   7.343 -0.3469  0.2982 -0.3220
  768MOL0     C 3612   2.393   9.501   7.430  0.3014  0.7688 -0.3126
  768MOL0     H 3613   2.686   9.115   7.528  3.0387  0.0282  1.4772
  768MOL0     H 3614   2.932   9.077   7.511  0.9397  2.4536  1.7101
  768MOL0     H 3615   3.185   9.147   7.121  0.4257 -4.3422  1.5513
  768MOL0     H 3616   3.149   9.301   7.197 -1.1577 -0.1828 -0.9166
  768MOL0     H 3617   3.281   9.183   7.399  3.0963  0.0062  0.6458
  768MOL0     H 3618   3.349   9.294   7.299  1.0199 -0.5476  0.9674
  768MOL0     H 3619   3.419   9.119   7.124 -2.8360 -1.7041 -0.7919
  768MOL0     H 3620   3.370   8.994   7.247 -0.9495  0.0642 -0.7231
  768MOL0     H 3621   3.575   9.203   7.270  2.1235 -0.4584  1.1972
  768MOL0     H 3622   3.514   9.114   7.410  1.5586  1.0660  0.1917
  768MOL0     H 3623   3.706   8.994   7.358  0.5501  0.3984  0.0095
  768MOL0     H 3624   3.562   8.896   7.316 -0.8812  0.5475  1.1104
  768MOL0     H 3625   3.756   9.041   7.114 -0.9476  1.4786 -0.9747
  768MOL0     H 3626   3.749   8.864   7.163 -2.1208 -1.3794  1.7176
  768MOL0     H 3627   3.584   9.034   6.969  0.2665 -0.7292 -2.0386
  768MOL0     H 3628   3.498   8.911   7.049  0.2798  1.9867  0.9809
  768MOL0     H 3629   3.670   8.742   6.984  0.1194  0.6256  1.0078
  768MOL0     H 3630   3.572   8.809   6.848  0.7604  0.8667 -1.5044
  768MOL0     H 3631   3.729   9.031   6.729 -0.0060  0.4316  0.6769
  768MOL0     H 3632   3.948   9.027   6.539  0.4027  0.1967  0.1255
  768MOL0     H 3633   3.990   9.133   6.672  1.3648  0.4648 -0.1271
  768MOL0     H 3634   4.191   8.970   6.705 -0.9526  1.1051  0.5952
  768MOL0     H 3635   4.143   8.905   6.551 -2.2741  1.0464 -1.0631
  768MOL0     H 3636   4.235   9.188   6.623 -0.1963 -0.5635  0.7072
  768MOL0     H 3637   4.169   9.150   6.458  1.7215  1.6375 -0.9289
  768MOL0     H 3638   4.428   9.143   6.461  0.2747  2.0696  4.5679
  768MOL0     H 3639   4.352   8.989   6.421  0.8137 -0.4176  0.0177
  768MOL0     H 3640   4.575   8.945   6.808  1.8172  0.3159  1.0070
  768MOL0     H 3641   4.814   8.890   6.810  0.8663  0.7585 -0.1920
  768MOL0     H 3642   5.212   8.953   6.550 -1.8560  1.6037  2.0012
  768MOL0     H 3643   5.472   8.960   6.589  1.3307  0.1979  2.1404
  768MOL0     H 3644   5.629   9.033   6.770  0.5100 -0.3925 -0.3614
  768MOL0     H 3645   5.615   8.972   6.934 -0.3163  1.4626 -0.6121
  768MOL0     H 3646   5.820   8.860   6.717 -1.4301  1.0634 -1.4891
  768MOL0     H 3647   5.857   9.002   6.812  1.8488 -1.2182 -1.8081
  768MOL0     H 3648   5.841   8.889   7.015  1.4845  3.1870 -2.3417
  768MOL0     H 3649   5.802   8.729   6.940 -1.1807  0.0314  0.8108
  768MOL0     H 3650   6.064   8.884   6.898  0.5548  0.3854  5.7531
  768MOL0     H 3651   6.006   8.734   6.805 -0.7505  0.6226 -1.3703
  768MOL0     H 3652   6.004   8.616   7.024  2.1480 -1.7615  0.2150
  768MOL0     H 3653   6.073   8.768   7.095  0.7636 -0.8652  1.2548
  768MOL0     H 3654   6.239   8.594   7.042 -0.0047 -0.3484 -0.4800
  768MOL0     H 3655   6.179   8.573   6.882  0.1564 -0.4143  0.8915
  768MOL0     H 3656   6.317   8.832   6.951 -3.3538  0.9827 -1.5569
  768MOL0     H 3657   6.247   8.796   6.798 -1.2821 -2.9999 -1.7365
  768MOL0     H 3658   6.461   8.753   6.755  0.6523  0.8525  0.4356
  768MOL0     H 3659   6.505   8.703   6.910 -1.4059  0.4083  0.7191
  768MOL0     H 3660   5.404   8.734   6.944 -0.6845 -1.6502 -1.2472
  768MOL0     H 3661   5.157   8.741   6.909 -0.9806  2.1758 -0.1727
  768MOL0     H 3662   4.798   8.863   6.383  0.6641 -0.0437  0.4621
  768MOL0     H 3663   4.551   8.949   6.391 -0.2197  1.1745  0.9452
  768MOL0     H 3664   2.928   9.303   7.141  0.2999  2.2465  1.0475
  768MOL0     H 3665   2.698   9.308   7.147  0.0686 -1.1204 -0.6409
  768MOL0     H 3666   2.254   9.246   7.056 -1.6704  1.1805 -0.2394
  768MOL0     H 3667   2.022   9.327   7.085 -0.5162 -0.3680  1.0794
  768MOL0     H 3668   1.925   9.619   7.395 -1.0916  0.5897  1.2777
  768MOL0     H 3669   1.924   9.466   7.486 -0.8217 -0.4687 -0.5542
  768MOL0     H 3670   1.690   9.592   7.457 -0.5837  1.0555 -0.5914
  768MOL0     H 3671   1.696   9.419   7.436  4.8847 -1.4666  0.0415
  768MOL0     H 3672   1.683   9.440   7.189 -0.7064  0.2980  1.0937
  768MOL0     H 3673   1.709   9.618   7.195  0.5324 -0.1226 -0.8612
  768MOL0     H 3674   1.485   9.430   7.262 -0.5359 -0.2028 -0.6462
  768MOL0     H 3675   1.485   9.595   7.329 -0.2685  1.2884 -1.5061
  768MOL0     H 3676   1.384   9.674   6.925 -0.4873  1.0037  1.9764
  768MOL0     H 3677   2.133   9.558   7.426 -2.9256  0.1037 -0.3828
  768MOL0     H 3678   2.475   9.545   7.373 -0.4496 -0.2213 -2.2896
  768MOL0     H 3679   2.352   9.589   7.480  0.1280 -1.3086  3.5895
  768MOL0     H 3680   2.421   9.430   7.509 -1.7244 -1.6705 -1.6113
  769MOL0     O 3681   8.043   5.917   2.201 -0.1703  0.1501  0.6387
  769MOL0     C 3682   8.108   5.998   2.266 -0.7733 -0.5106 -0.2979
  769MOL0     O 3683   8.242   5.993   2.286 -0.1658  0.1618 -0.4341
  769MOL0     C 3684   8.333   5.932   2.200 -0.3335 -0.5040  0.2177
  769MOL0     C 3685   8.464   5.925   2.249 -0.0783  0.0986 -0.1456
  769MOL0     C 3686   8.565   5.865   2.176  0.2162  0.2965  0.9013
  769MOL0     C 3687   8.545   5.815   2.041  0.9230  0.7359 -0.3542
  769MOL0     O 3688   8.655   5.767   1.975  1.0667 -0.4904 -0.2664
  769MOL0     C 3689   8.650   5.684   1.855  0.5792 -1.2627  1.2933
  769MOL0     C 3690   8.734   5.736   1.731 -0.0916  1.8270 -0.7314
  769MOL0     C 3691   8.883   5.774   1.762  0.1211  0.4033 -0.3805
  769MOL0     C 3692   8.969   5.685   1.850  0.1366  0.6252  0.0388
  769MOL0     C 3693   8.982   5.537   1.782  0.7075  0.2204  0.3192
  769MOL0     C 3694   9.043   5.532   1.641  0.0257 -0.1873 -0.1377
  769MOL0     C 3695   9.168   5.629   1.617  0.1695  0.3478 -0.2996
  769MOL0     C 3696   9.233   5.584   1.484  0.2507  0.5954 -0.2720
  769MOL0     N 3697   9.373   5.639   1.494 -0.2499 -1.0421 -0.1877
  769MOL0     C 3698   9.480   5.602   1.566 -0.4972  0.3877 -0.1994
  769MOL0     C 3699   9.578   5.684   1.533 -0.5428  0.5059 -0.3684
  769MOL0     C 3700   9.719   5.679   1.596 -0.3102 -0.7833  0.2715
  769MOL0     C 3701   9.725   5.735   1.740  0.0648 -0.1802 -0.6165
  769MOL0     C 3702   9.872   5.750   1.795  0.2174 -0.7048 -0.3357
  769MOL0     C 3703   9.867   5.810   1.940 -0.7138  0.2477  0.3896
  769MOL0     O 3704   9.841   5.704   2.031 -0.0705  0.1430 -0.0206
  769MOL0     C 3705   9.952   5.630   2.077 -0.2600 -0.0102  0.2979
  769MOL0     C 3706  10.083   5.647   2.022 -0.0033 -0.4593  0.2294
  769MOL0     C 3707  10.195   5.574   2.063  0.2807 -0.7951  1.0479
  769MOL0     C 3708  10.185   5.484   2.172  1.2479  0.0536 -0.3352
  769MOL0     C 3709  10.298   5.416   2.223 -0.2185  0.2730  0.2213
  769MOL0     O 3710  10.289   5.356   2.345 -0.4664  0.3521  0.7590
  769MOL0     C 3711  10.406   5.307   2.394 -0.0382  0.4070 -0.0180
  769MOL0     C 3712  10.459   5.367   2.518 -0.9262 -0.8359 -0.1730
  769MOL0     C 3713  10.589   5.321   2.563 -1.1382  0.2967  0.0865
  769MOL0     C 3714  10.659   5.232   2.490 -0.4402 -0.3762 -0.3890
  769MOL0     O 3715  10.772   5.191   2.547  0.2302 -0.1292  0.2735
  769MOL0     C 3716  10.880   5.150   2.454  1.3971 -0.0208 -0.1849
  769MOL0     C 3717  11.011   5.140   2.535 -0.0361  0.8057 -0.1161
  769MOL0     C 3718  11.064   5.280   2.580 -0.3107  0.1038  0.7769
  769MOL0     C 3719  11.172   5.281   2.686  0.7112 -0.0355  0.4105
  769MOL0     C 3720  11.178   5.408   2.773  0.6001  0.0746  0.4092
  769MOL0     C 3721  11.305   5.416   2.855  0.8034 -0.1323 -0.6711
  769MOL0     C 3722  11.313   5.314   2.968  0.0447 -0.1817 -0.3022
  769MOL0     C 3723  11.440   5.223   2.962  0.2431 -0.7779  0.4233
  769MOL0    Cl 3724  11.462   5.147   3.118 -0.0766  0.4732  0.0658
  769MOL0     C 3725  10.604   5.177   2.367 -0.5436 -0.1612 -0.1042
  769MOL0     C 3726  10.477   5.216   2.324 -0.5374  0.2345 -0.4772
  769MOL0     O 3727  10.402   5.429   2.161  0.6208 -0.6284 -0.2706
  769MOL0     C 3728  10.051   5.454   2.216 -0.0222 -0.5182  0.5711
  769MOL0     C 3729   9.942   5.535   2.183  0.4003 -0.1286  0.3686
  769MOL0     N 3730   9.531   5.772   1.441 -0.1295  0.5687 -0.8927
  769MOL0     N 3731   9.409   5.740   1.416 -0.2957 -0.4868 -0.1331
  769MOL0     C 3732   8.412   5.830   1.991 -1.1772 -0.9017  0.3273
  769MOL0     C 3733   8.312   5.882   2.073  0.5310  0.2321  1.5988
  769MOL0     C 3734   8.020   6.072   2.362 -1.2389 -0.8867 -0.5549
  769MOL0     C 3735   7.891   6.104   2.323 -0.2167  0.1115 -0.3094
  769MOL0     C 3736   7.799   6.177   2.397 -0.3103  0.5281 -0.6533
  769MOL0     C 3737   7.839   6.238   2.520 -0.0077 -0.2062  0.0698
  769MOL0     O 3738   7.769   6.312   2.606 -0.1363 -0.0203  0.7527
  769MOL0     C 3739   7.626   6.312   2.588  0.0343 -0.3642  0.1614
  769MOL0     C 3740   7.579   6.410   2.481 -0.4313 -0.4394  0.3621
  769MOL0     C 3741   7.430   6.399   2.448  0.1474  0.1652 -0.8374
  769MOL0     C 3742   7.379   6.513   2.350  0.2362  0.1589 -0.1627
  769MOL0     C 3743   7.229   6.517   2.339  0.3355  0.3049  0.1267
  769MOL0     C 3744   7.106   6.521   2.317 -0.1090 -1.0100 -0.2503
  769MOL0     C 3745   7.973   6.219   2.552 -0.6036  0.2032 -0.2245
  769MOL0     C 3746   8.066   6.134   2.481  0.3153 -0.4174 -1.0271
  769MOL0     C 3747   8.201   6.106   2.543 -0.5508 -0.2406  0.2999
  769MOL0     H 3748   8.487   5.966   2.347  1.2978 -1.6906  0.3372
  769MOL0     H 3749   8.666   5.859   2.216  1.2463 -2.7042 -1.7008
  769MOL0     H 3750   8.685   5.583   1.881 -0.6159 -2.0199  0.0817
  769MOL0     H 3751   8.545   5.680   1.826  0.8881 -1.9300  0.2112
  769MOL0     H 3752   8.679   5.818   1.683  1.3174  2.0814 -1.9457
  769MOL0     H 3753   8.742   5.654   1.659 -0.8542  1.9096 -0.9232
  769MOL0     H 3754   8.887   5.865   1.823  0.3895 -0.1865  0.4838
  769MOL0     H 3755   8.941   5.788   1.670  2.3689  3.8891  1.3267
  769MOL0     H 3756   9.060   5.737   1.882 -0.2014 -0.5218  3.2044
  769MOL0     H 3757   8.914   5.668   1.943 -0.1979  2.3132  0.1743
  769MOL0     H 3758   9.047   5.480   1.850 -1.6115 -0.6250  1.9612
  769MOL0     H 3759   8.891   5.477   1.789  0.1315  1.1494  1.0813
  769MOL0     H 3760   9.072   5.429   1.617 -2.1833 -0.7587 -0.5609
  769MOL0     H 3761   8.967   5.564   1.569  0.2298  1.0960  0.1843
  769MOL0     H 3762   9.237   5.625   1.702  0.0183 -2.2544 -0.2164
  769MOL0     H 3763   9.129   5.730   1.600 -2.1406 -0.3843  0.3097
  769MOL0     H 3764   9.226   5.475   1.482 -0.8140  0.6571 -0.8922
  769MOL0     H 3765   9.181   5.623   1.396 -0.2360 -0.3712 -0.4252
  769MOL0     H 3766   9.493   5.517   1.633  0.0796 -1.3428 -2.4022
  769MOL0     H 3767   9.759   5.577   1.601  1.5080 -0.1306 -0.0214
  769MOL0     H 3768   9.781   5.742   1.532 -0.2125 -1.3119 -0.1582
  769MOL0     H 3769   9.679   5.834   1.746  1.0004  0.2499 -0.2635
  769MOL0     H 3770   9.664   5.671   1.803  1.5395  0.0256  1.1308
  769MOL0     H 3771   9.931   5.808   1.724  1.5461 -0.7584  0.6992
  769MOL0     H 3772   9.920   5.652   1.808  2.1959 -0.1434 -2.8399
  769MOL0     H 3773   9.779   5.874   1.942 -0.3057  0.9897 -2.0456
  769MOL0     H 3774   9.939   5.887   1.968 -0.5553  1.0559 -2.0534
  769MOL0     H 3775  10.093   5.713   1.937 -2.7307 -1.3005 -0.8780
  769MOL0     H 3776  10.288   5.596   2.012 -0.1232 -1.5392 -0.0792
  769MOL0     H 3777  10.404   5.441   2.575  0.9330  0.6098 -0.1746
  769MOL0     H 3778  10.619   5.354   2.663 -0.2542 -0.1028 -0.0365
  769MOL0     H 3779  10.852   5.059   2.402  2.4164  0.1728 -1.1014
  769MOL0     H 3780  10.886   5.219   2.370 -1.9032  0.1471 -0.4304
  769MOL0     H 3781  10.996   5.074   2.621  1.7125 -1.0650 -1.1591
  769MOL0     H 3782  11.084   5.085   2.475 -1.7614 -0.7909 -0.8445
  769MOL0     H 3783  11.091   5.349   2.499 -2.4672  0.7924  0.5651
  769MOL0     H 3784  10.978   5.332   2.623 -1.5483  0.5804 -2.0303
  769MOL0     H 3785  11.266   5.251   2.638 -1.4233 -2.0349 -2.9779
  769MOL0     H 3786  11.150   5.199   2.754 -1.4054 -0.9084 -1.2069
  769MOL0     H 3787  11.086   5.417   2.831 -1.9470  2.7407 -3.5522
  769MOL0     H 3788  11.184   5.498   2.712  0.8180 -1.8039 -2.4938
  769MOL0     H 3789  11.398   5.399   2.799  1.7435 -0.0535  0.8088
  769MOL0     H 3790  11.314   5.518   2.894  0.5099 -0.2982 -0.1617
  769MOL0     H 3791  11.231   5.242   2.977 -0.0140  0.0829  1.9435
  769MOL0     H 3792  11.309   5.365   3.065 -1.3316 -1.2154  0.2223
  769MOL0     H 3793  11.424   5.149   2.883 -0.1024 -1.0411  0.7387
  769MOL0     H 3794  11.530   5.281   2.940 -2.1923  2.9747 -0.6173
  769MOL0     H 3795  10.658   5.103   2.309  0.7645  1.7653 -1.4728
  769MOL0     H 3796  10.426   5.162   2.245  2.7592 -0.1786 -2.5365
  769MOL0     H 3797  10.040   5.377   2.292  1.8298 -1.2520  0.1575
  769MOL0     H 3798   9.852   5.504   2.235 -0.9552 -1.2131 -2.4268
  769MOL0     H 3799   8.392   5.798   1.889 -0.0888  0.7945 -0.4524
  769MOL0     H 3800   8.211   5.887   2.033  0.6082  0.0017  1.3684
  769MOL0     H 3801   7.851   6.075   2.226 -1.6124 -0.2207  0.3368
  769MOL0     H 3802   7.699   6.192   2.358 -0.1256  0.0429 -1.3264
  769MOL0     H 3803   7.575   6.325   2.684  2.5757 -1.4258  1.7364
  769MOL0     H 3804   7.595   6.209   2.565 -0.7746 -0.3325  1.0637
  769MOL0     H 3805   7.634   6.407   2.387  3.1577  1.5791  2.1769
  769MOL0     H 3806   7.596   6.511   2.520  1.5988 -1.1662  1.5115
  769MOL0     H 3807   7.374   6.415   2.541 -0.8694 -0.3461 -1.3454
  769MOL0     H 3808   7.385   6.307   2.410 -2.4632  0.6090  0.9724
  769MOL0     H 3809   7.415   6.614   2.371 -0.7075  0.3611  0.5794
  769MOL0     H 3810   7.407   6.495   2.246 -0.7394  0.3749 -0.4722
  769MOL0     H 3811   6.999   6.522   2.314 -0.1456  1.0797  0.2122
  769MOL0     H 3812   8.007   6.265   2.645 -0.6914 -1.2604  0.5613
  769MOL0     H 3813   8.268   6.172   2.488 -2.8771  2.6438  0.6503
  769MOL0     H 3814   8.200   6.143   2.646 -0.4282  1.3711 -0.2508
  769MOL0     H 3815   8.237   6.003   2.549  1.1406  0.3001 -0.2746
  770MOL0     O 3816   5.717   4.065   4.148 -0.1484  0.2081  0.3177
  770MOL0     C 3817   5.782   4.143   4.076  0.7016  0.2574  0.4364
  770MOL0     O 3818   5.898   4.207   4.114  0.3394 -0.0877  0.4611
  770MOL0     C 3819   5.921   4.220   4.249  0.5191 -0.3607 -0.1562
  770MOL0     C 3820   5.861   4.335   4.315  0.1590 -0.3344  0.2592
  770MOL0     C 3821   5.891   4.364   4.448 -0.1683  0.2345 -0.2252
  770MOL0     C 3822   5.999   4.297   4.507 -0.6347  0.3594 -0.3889
  770MOL0     O 3823   6.056   4.332   4.631  0.1055 -0.2753 -0.1112
  770MOL0     C 3824   6.014   4.244   4.740  0.5641 -0.4260  0.9306
  770MOL0     C 3825   6.038   4.305   4.878  0.5397 -0.9298 -0.7784
  770MOL0     C 3826   6.186   4.271   4.917 -1.2046  0.1101  0.5548
  770MOL0     C 3827   6.226   4.354   5.040 -0.6587  0.0805 -1.1045
  770MOL0     C 3828   6.365   4.337   5.097  0.3420  0.1335 -0.5028
  770MOL0     C 3829   6.458   4.412   5.001 -0.0798  0.3943 -0.6488
  770MOL0     C 3830   6.603   4.424   5.050  0.3789 -0.4746  0.2041
  770MOL0     C 3831   6.699   4.460   4.944 -0.1315  0.0275  0.1347
  770MOL0     N 3832   6.836   4.453   5.001 -0.6845  0.1283 -0.0954
  770MOL0     C 3833   6.893   4.347   5.070 -0.4279 -1.0071  0.1267
  770MOL0     C 3834   7.024   4.388   5.088  1.3542  0.7187  0.2189
  770MOL0     C 3835   7.124   4.291   5.152  0.2418 -0.2572 -0.8232
  770MOL0     C 3836   7.120   4.320   5.305  0.0525 -0.7949  1.0689
  770MOL0     C 3837   7.193   4.209   5.392 -0.6222  0.4260 -1.1835
  770MOL0     C 3838   7.350   4.211   5.404  0.1390  0.4055  0.1962
  770MOL0     O 3839   7.399   4.326   5.469 -0.0575 -0.5118 -0.1921
  770MOL0     C 3840   7.532   4.353   5.459  0.8996  0.0648  0.3268
  770MOL0     C 3841   7.573   4.473   5.515 -0.4704 -1.3209  0.7848
  770MOL0     C 3842   7.705   4.510   5.504  0.7856 -0.6923  0.1341
  770MOL0     C 3843   7.810   4.424   5.463  0.3545 -1.0939 -0.4902
  770MOL0     C 3844   7.946   4.472   5.458  0.3681  0.2600 -0.6150
  770MOL0     O 3845   7.963   4.603   5.451  0.2546 -0.3520 -0.7157
  770MOL0     C 3846   8.091   4.657   5.459  0.4968  0.4300 -0.4298
  770MOL0     C 3847   8.144   4.708   5.345 -0.1509 -0.1373 -0.2790
  770MOL0     C 3848   8.275   4.758   5.352 -0.5502 -0.2065  0.5434
  770MOL0     C 3849   8.348   4.757   5.467 -0.0167 -0.9102 -0.9350
  770MOL0     O 3850   8.476   4.799   5.454  0.3725 -0.2428 -0.0383
  770MOL0     C 3851   8.583   4.766   5.549 -0.2548 -0.0674 -0.1587
  770MOL0     C 3852   8.729   4.824   5.515  0.1074  0.2133  1.0166
  770MOL0     C 3853   8.748   4.832   5.353  0.5124 -0.5515 -0.5869
  770MOL0     C 3854   8.885   4.892   5.316 -0.3348 -0.4100 -0.3431
  770MOL0     C 3855   8.883   4.933   5.167  0.2607 -0.0623  0.2865
  770MOL0     C 3856   9.029   4.946   5.112 -0.0709 -0.7231 -0.4000
  770MOL0     C 3857   9.017   5.029   4.986 -0.1170  0.0521  0.2240
  770MOL0     C 3858   9.134   5.016   4.880  0.0011 -0.8972  0.1536
  770MOL0    Cl 3859   9.280   5.014   4.976  0.2065  0.1259 -0.0862
  770MOL0     C 3860   8.287   4.711   5.586  0.1270 -0.2493 -0.6432
  770MOL0     C 3861   8.159   4.664   5.584  0.0026 -0.9016 -0.0320
  770MOL0     O 3862   8.040   4.390   5.444 -0.2793  0.1921  0.4888
  770MOL0     C 3863   7.765   4.303   5.413 -0.2716  0.2192  0.6432
  770MOL0     C 3864   7.628   4.262   5.406  0.5243  0.4235 -0.5652
  770MOL0     N 3865   7.041   4.504   5.019 -0.5372  0.8815 -0.3586
  770MOL0     N 3866   6.931   4.544   4.971 -0.3859 -0.9028  0.1882
  770MOL0     C 3867   6.049   4.180   4.438  0.1003  0.2501 -0.3769
  770MOL0     C 3868   6.008   4.137   4.314 -0.5274 -0.4945  0.6995
  770MOL0     C 3869   5.751   4.163   3.932  0.3850 -0.3185 -0.2396
  770MOL0     C 3870   5.840   4.108   3.837  0.5314  0.8828  0.0282
  770MOL0     C 3871   5.823   4.134   3.696 -0.7757  0.0183  0.2829
  770MOL0     C 3872   5.715   4.208   3.660 -0.0880  0.7950  0.8691
  770MOL0     O 3873   5.691   4.216   3.521  0.2678  0.1248 -0.2991
  770MOL0     C 3874   5.550   4.186   3.481 -0.5574  0.0366  0.4066
  770MOL0     C 3875   5.542   4.075   3.366  0.4320 -0.4602 -0.4091
  770MOL0     C 3876   5.613   3.950   3.387 -0.2805 -0.2991 -0.3049
  770MOL0     C 3877   5.638   3.852   3.264  0.2753  0.1905  0.4179
  770MOL0     C 3878   5.514   3.807   3.195 -0.1453 -0.0215 -0.2164
  770MOL0     C 3879   5.411   3.767   3.139 -0.7655 -0.5340 -0.5091
  770MOL0     C 3880   5.639   4.272   3.754  1.0253 -0.5407 -0.2443
  770MOL0     C 3881   5.647   4.250   3.892 -0.4669 -0.4212  0.3425
  770MOL0     C 3882   5.553   4.318   3.993  1.1563 -0.8713  0.1390
  770MOL0     H 3883   5.782   4.391   4.265  0.6862  0.9568  0.8338
  770MOL0     H 3884   5.833   4.442   4.495 -0.1845  0.1522 -0.1068
  770MOL0     H 3885   5.908   4.219   4.726  0.8875 -0.5079 -1.9964
  770MOL0     H 3886   6.068   4.149   4.729  0.5502 -0.7169  2.9647
  770MOL0     H 3887   5.961   4.261   4.942  0.3971 -1.0168 -1.0099
  770MOL0     H 3888   6.023   4.411   4.898 -0.3303 -0.9415 -1.3407
  770MOL0     H 3889   6.244   4.277   4.824 -5.0837  3.6987 -2.0205
  770MOL0     H 3890   6.185   4.167   4.952 -2.2005 -1.1798 -2.7919
  770MOL0     H 3891   6.201   4.460   5.025 -0.5705  0.3650  0.5367
  770MOL0     H 3892   6.163   4.331   5.126 -1.7588  0.5958 -1.7479
  770MOL0     H 3893   6.374   4.384   5.196 -0.9952  0.8467 -0.6995
  770MOL0     H 3894   6.398   4.234   5.114 -0.4459  0.3031  2.7618
  770MOL0     H 3895   6.455   4.355   4.908  0.7810  2.3147 -1.9185
  770MOL0     H 3896   6.412   4.512   4.994 -0.9176  0.3773  2.8005
  770MOL0     H 3897   6.630   4.323   5.084  2.5807 -0.1353 -0.3518
  770MOL0     H 3898   6.630   4.496   5.129 -0.5297 -1.4342  1.4274
  770MOL0     H 3899   6.690   4.392   4.859 -0.6444  1.1236 -0.7125
  770MOL0     H 3900   6.679   4.558   4.899 -1.0129 -0.1209  0.1878
  770MOL0     H 3901   6.841   4.259   5.106 -0.6602 -0.5780  0.8555
  770MOL0     H 3902   7.106   4.185   5.131  1.4917 -0.3138 -1.7345
  770MOL0     H 3903   7.227   4.313   5.120  0.5239 -2.9330 -2.0539
  770MOL0     H 3904   7.172   4.414   5.326 -0.6561  0.9277 -3.7268
  770MOL0     H 3905   7.016   4.332   5.337  0.8887  0.1623  3.6344
  770MOL0     H 3906   7.159   4.114   5.350 -0.8346 -0.2359  0.4366
  770MOL0     H 3907   7.151   4.224   5.492  0.6771 -1.0314 -0.3746
  770MOL0     H 3908   7.385   4.212   5.300  0.7986 -2.2438  0.3109
  770MOL0     H 3909   7.379   4.120   5.457 -0.1565  2.1840  3.6469
  770MOL0     H 3910   7.502   4.543   5.557 -3.1745 -1.5485 -2.9285
  770MOL0     H 3911   7.726   4.606   5.549  2.1000  0.8759 -3.4574
  770MOL0     H 3912   8.081   4.719   5.257 -1.8618  4.0778  1.1950
  770MOL0     H 3913   8.308   4.794   5.255  0.1410  1.4707  1.3500
  770MOL0     H 3914   8.544   4.799   5.645  1.5698  0.5833  0.4137
  770MOL0     H 3915   8.585   4.657   5.557 -1.6305 -0.0060  1.3504
  770MOL0     H 3916   8.732   4.928   5.549  0.5045  0.7609 -0.6114
  770MOL0     H 3917   8.810   4.765   5.558  2.4812 -1.2668 -4.6256
  770MOL0     H 3918   8.718   4.743   5.297 -0.7374 -1.1329  0.9473
  770MOL0     H 3919   8.674   4.905   5.317 -0.3246 -0.7302  0.7122
  770MOL0     H 3920   8.955   4.816   5.353 -1.0761 -1.0337 -0.1868
  770MOL0     H 3921   8.910   4.981   5.375  2.3794 -1.2476 -0.0855
  770MOL0     H 3922   8.835   5.031   5.156  1.0594  0.3000 -0.0924
  770MOL0     H 3923   8.832   4.864   5.098 -0.9697  0.5404  0.5776
  770MOL0     H 3924   9.091   4.995   5.187 -0.3399  0.9520 -1.2235
  770MOL0     H 3925   9.062   4.846   5.083 -2.6219 -1.4108 -1.2316
  770MOL0     H 3926   9.007   5.133   5.018 -0.7050 -0.7488  2.9070
  770MOL0     H 3927   8.934   4.996   4.923  0.9404 -1.2833 -0.5032
  770MOL0     H 3928   9.125   4.922   4.825  3.0956 -1.5186  0.5427
  770MOL0     H 3929   9.126   5.102   4.812  0.7938  0.5821  1.8443
  770MOL0     H 3930   8.331   4.711   5.685 -1.8081  2.7571  0.3539
  770MOL0     H 3931   8.113   4.635   5.678  1.9645 -1.6530  0.7501
  770MOL0     H 3932   7.838   4.237   5.367 -1.0078  1.1274 -2.0348
  770MOL0     H 3933   7.614   4.157   5.385  4.3950 -1.1657  3.2609
  770MOL0     H 3934   6.114   4.110   4.490  1.4064  1.0661 -0.8568
  770MOL0     H 3935   6.018   4.048   4.253  0.1349 -0.4701  0.7737
  770MOL0     H 3936   5.931   4.061   3.873  0.2947  2.4153  2.9540
  770MOL0     H 3937   5.894   4.097   3.623  0.8255  1.2843  1.1410
  770MOL0     H 3938   5.506   4.281   3.448 -0.1569  0.3941  0.8948
  770MOL0     H 3939   5.499   4.144   3.568  1.5373  1.5789  2.5176
  770MOL0     H 3940   5.592   4.118   3.279  0.5940 -1.4221 -0.8069
  770MOL0     H 3941   5.437   4.065   3.337  0.3427 -1.6504  0.2657
  770MOL0     H 3942   5.578   3.892   3.473 -0.5322  1.3609  0.7526
  770MOL0     H 3943   5.712   3.981   3.422 -0.0108 -1.2699 -0.1844
  770MOL0     H 3944   5.710   3.890   3.191 -0.3092 -0.2678 -0.4189
  770MOL0     H 3945   5.678   3.757   3.302  0.6613  1.7177  4.3211
  770MOL0     H 3946   5.325   3.721   3.095 -0.7964 -0.5250 -0.4567
  770MOL0     H 3947   5.557   4.336   3.722 -0.9471 -1.5822  2.3375
  770MOL0     H 3948   5.500   4.243   4.054 -0.9365  0.9402  0.6720
  770MOL0     H 3949   5.601   4.391   4.058 -3.8855  2.0307  1.1196
  770MOL0     H 3950   5.484   4.380   3.935  2.9756  1.7174  0.5848
  771MOL0     O 3951   4.192   8.618   1.394  0.4230 -0.5745  0.1533
  771MOL0     C 3952   4.242   8.550   1.488  0.4088  0.2553  0.1110
  771MOL0     O 3953   4.365   8.495   1.485 -0.3882  0.1052 -0.5588
  771MOL0     C 3954   4.447   8.515   1.378  0.1346  0.2537  0.5569
  771MOL0     C 3955   4.581   8.537   1.403  0.0568 -0.6125 -0.1366
  771MOL0     C 3956   4.668   8.561   1.294  0.2021  0.3529 -0.5931
  771MOL0     C 3957   4.622   8.570   1.163 -1.0493  0.4466  0.5230
  771MOL0     O 3958   4.688   8.603   1.054 -0.3771 -0.3643 -0.5231
  771MOL0     C 3959   4.834   8.606   1.066  0.0454 -0.0885  0.2832
  771MOL0     C 3960   4.884   8.641   0.929  0.6346 -0.4612 -0.4897
  771MOL0     C 3961   5.037   8.628   0.925 -0.1821  0.1323 -0.0385
  771MOL0     C 3962   5.087   8.603   0.777 -0.0145  0.0176 -0.5374
  771MOL0     C 3963   5.242   8.578   0.786 -0.5771 -0.3150 -0.6214
  771MOL0     C 3964   5.307   8.541   0.658  0.7610  0.4072 -0.1538
  771MOL0     C 3965   5.299   8.650   0.556 -0.1783  0.0668 -0.1196
  771MOL0     C 3966   5.368   8.781   0.596 -0.1469  0.3651  0.9853
  771MOL0     N 3967   5.514   8.747   0.620  0.0577 -0.0399 -0.3140
  771MOL0     C 3968   5.579   8.754   0.737 -0.0644 -0.0620 -0.6856
  771MOL0     C 3969   5.709   8.704   0.718  0.8897 -0.7801 -0.2817
  771MOL0     C 3970   5.828   8.677   0.803  0.5474  1.1465  0.0339
  771MOL0     C 3971   5.814   8.537   0.871 -0.0721  0.0099 -0.3508
  771MOL0     C 3972   5.817   8.428   0.771  0.0388 -0.7268 -0.3397
  771MOL0     C 3973   5.841   8.278   0.832  0.7018 -0.1222 -0.0020
  771MOL0     O 3974   5.796   8.260   0.965  0.4296  0.8291 -0.4381
  771MOL0     C 3975   5.667   8.239   0.998  0.2243 -0.9460  0.4960
  771MOL0     C 3976   5.633   8.231   1.136  0.8401 -1.0776  0.9457
  771MOL0     C 3977   5.495   8.225   1.169 -0.2668 -0.4070  0.5549
  771MOL0     C 3978   5.398   8.218   1.069 -1.1114  0.0843 -0.5848
  771MOL0     C 3979   5.254   8.197   1.109  0.5971 -0.6564 -0.1013
  771MOL0     O 3980   5.155   8.214   1.012 -0.4797  0.6823 -0.9209
  771MOL0     C 3981   5.031   8.170   1.034 -0.3075  0.0656  0.3172
  771MOL0     C 3982   5.000   8.037   1.079  0.7001  0.1050  0.0415
  771MOL0     C 3983   4.870   7.992   1.091 -0.1737 -0.2061 -0.7568
  771MOL0     C 3984   4.763   8.076   1.041  0.1432  0.4197 -0.2345
  771MOL0     O 3985   4.637   8.023   1.052 -0.4799  0.3674 -0.3187
  771MOL0     C 3986   4.528   8.098   1.005  0.4066  0.2621 -0.8840
  771MOL0     C 3987   4.397   8.012   0.988 -0.3795  0.9660  0.5803
  771MOL0     C 3988   4.287   8.108   0.959  0.4232 -0.5829  0.7888
  771MOL0     C 3989   4.159   8.029   0.926 -0.1443  0.0632 -0.2455
  771MOL0     C 3990   4.063   8.114   0.841  0.1527  0.4275  0.3435
  771MOL0     C 3991   3.923   8.050   0.844  0.9144  0.7818 -1.1424
  771MOL0     C 3992   3.831   8.142   0.772  0.0408 -1.0310 -0.3099
  771MOL0     C 3993   3.688   8.098   0.760 -1.2845 -0.1028  0.5823
  771MOL0    Cl 3994   3.601   8.173   0.618 -0.4136 -0.2742  0.1635
  771MOL0     C 3995   4.792   8.208   0.994 -0.6886 -0.0561  0.3081
  771MOL0     C 3996   4.927   8.243   0.979  0.3506  0.4483  0.8734
  771MOL0     O 3997   5.238   8.154   1.221 -0.1986  0.0675  0.2608
  771MOL0     C 3998   5.426   8.216   0.938  0.2571 -0.0843 -0.6029
  771MOL0     C 3999   5.557   8.227   0.902 -0.9070  0.1332 -0.7609
  771MOL0     N 4000   5.710   8.671   0.582  0.0569 -0.5408  0.3393
  771MOL0     N 4001   5.594   8.691   0.526 -0.5840  0.1935  0.8972
  771MOL0     C 4002   4.494   8.551   1.138 -0.0794  0.4306 -0.9256
  771MOL0     C 4003   4.408   8.520   1.245  0.1113 -0.5893  0.4571
  771MOL0     C 4004   4.165   8.568   1.620  0.0584 -0.0613  0.5683
  771MOL0     C 4005   4.031   8.609   1.605  0.2258  0.4865  0.6622
  771MOL0     C 4006   3.948   8.631   1.714 -0.4069  0.7365  0.3769
  771MOL0     C 4007   3.995   8.606   1.843  0.8189  0.1510 -0.5798
  771MOL0     O 4008   3.917   8.658   1.948 -0.4920  0.4071  0.7047
  771MOL0     C 4009   3.775   8.648   1.958 -0.3709  0.6377 -0.1490
  771MOL0     C 4010   3.730   8.637   2.104  0.7904 -0.2078  0.1072
  771MOL0     C 4011   3.579   8.620   2.125 -0.7496  0.1250  1.1010
  771MOL0     C 4012   3.536   8.615   2.277  0.0961 -0.9765  0.3827
  771MOL0     C 4013   3.431   8.718   2.312 -0.6546 -0.4330 -0.8902
  771MOL0     C 4014   3.349   8.802   2.346 -0.2838 -0.8214 -0.1741
  771MOL0     C 4015   4.128   8.563   1.861  0.9881  1.0480 -0.6226
  771MOL0     C 4016   4.208   8.538   1.751 -0.2341  0.0568  0.0616
  771MOL0     C 4017   4.338   8.471   1.773  0.3012 -0.0075  1.1532
  771MOL0     H 4018   4.611   8.546   1.507  0.5145  2.4619 -0.4530
  771MOL0     H 4019   4.768   8.597   1.315 -0.2462  2.1172 -1.3007
  771MOL0     H 4020   4.855   8.691   1.132 -1.2071 -0.1896  0.8574
  771MOL0     H 4021   4.873   8.507   1.089 -0.7119 -1.2880 -3.0627
  771MOL0     H 4022   4.847   8.744   0.928  0.8824 -0.3557  0.3822
  771MOL0     H 4023   4.830   8.591   0.849  0.5780  0.7007 -1.2094
  771MOL0     H 4024   5.075   8.545   0.985 -0.5603  0.8118  1.1798
  771MOL0     H 4025   5.085   8.715   0.971  0.8986 -0.3671 -0.2084
  771MOL0     H 4026   5.044   8.514   0.730 -0.0666  0.3628 -1.1523
  771MOL0     H 4027   5.061   8.692   0.719  0.3318  1.5129  1.5076
  771MOL0     H 4028   5.301   8.662   0.824 -0.6968  0.3962 -1.9136
  771MOL0     H 4029   5.264   8.500   0.859  2.5391  0.0794 -0.9790
  771MOL0     H 4030   5.411   8.512   0.675  0.5947  1.2708  3.1567
  771MOL0     H 4031   5.248   8.454   0.629 -0.1463  0.4804  1.3523
  771MOL0     H 4032   5.197   8.677   0.529 -0.3103 -0.7458 -0.4728
  771MOL0     H 4033   5.338   8.615   0.460  0.1329  0.5627 -0.1791
  771MOL0     H 4034   5.366   8.856   0.516 -0.5671 -0.8197 -0.1762
  771MOL0     H 4035   5.312   8.832   0.675  1.2143  1.4233  1.2928
  771MOL0     H 4036   5.534   8.796   0.826  1.3052  1.8157 -0.8141
  771MOL0     H 4037   5.919   8.677   0.743 -0.4589 -0.8921 -1.5982
  771MOL0     H 4038   5.852   8.752   0.879 -0.5542  0.4385  1.1105
  771MOL0     H 4039   5.907   8.513   0.924 -0.1320 -1.9120 -1.0077
  771MOL0     H 4040   5.734   8.534   0.945  0.0161  2.6975 -0.0619
  771MOL0     H 4041   5.902   8.456   0.708  0.4628 -0.1772  0.4678
  771MOL0     H 4042   5.720   8.426   0.719 -0.4334  1.0194  0.4176
  771MOL0     H 4043   5.949   8.260   0.828  0.5258 -1.6185  1.2811
  771MOL0     H 4044   5.797   8.214   0.755  0.1583  0.8629 -0.5218
  771MOL0     H 4045   5.713   8.233   1.209  0.8198 -0.5453  0.9582
  771MOL0     H 4046   5.477   8.225   1.276 -0.4545  2.0633  0.5899
  771MOL0     H 4047   5.071   7.960   1.110  0.1438 -0.5942 -0.3835
  771MOL0     H 4048   4.857   7.889   1.122 -3.0486  0.6019  1.1851
  771MOL0     H 4049   4.507   8.164   1.089  1.8129 -0.5913  0.1793
  771MOL0     H 4050   4.551   8.159   0.917  3.1178 -0.5987 -0.8696
  771MOL0     H 4051   4.421   7.940   0.909 -1.7857 -0.3115  1.2739
  771MOL0     H 4052   4.379   7.956   1.080 -2.4227  0.5255 -0.0560
  771MOL0     H 4053   4.262   8.180   1.037  0.0494 -1.8226  1.8602
  771MOL0     H 4054   4.311   8.173   0.874  1.5642 -0.7300  0.9785
  771MOL0     H 4055   4.120   7.984   1.018  1.2078  0.3710  0.5117
  771MOL0     H 4056   4.185   7.945   0.862 -0.1347 -0.4531  0.4185
  771MOL0     H 4057   4.098   8.114   0.738  0.9664 -0.3801  0.6160
  771MOL0     H 4058   4.056   8.216   0.881 -0.4270  0.0866  1.1496
  771MOL0     H 4059   3.941   7.951   0.802  1.3152 -0.0031  0.7700
  771MOL0     H 4060   3.884   8.034   0.945  0.2659  1.6931 -1.2323
  771MOL0     H 4061   3.881   8.154   0.675  2.9709  3.0217  1.4682
  771MOL0     H 4062   3.850   8.242   0.810  3.0271 -2.5462  2.7352
  771MOL0     H 4063   3.679   7.989   0.763 -0.5832 -0.1544  2.3342
  771MOL0     H 4064   3.640   8.141   0.848 -1.1330  0.4977  0.3783
  771MOL0     H 4065   4.708   8.270   0.965  1.0836  1.6112 -1.6144
  771MOL0     H 4066   4.975   8.333   0.943  0.6340  0.2322  0.7004
  771MOL0     H 4067   5.353   8.223   0.859  1.3433  1.7538 -1.5327
  771MOL0     H 4068   5.575   8.232   0.795 -2.3993 -2.2115 -1.2032
  771MOL0     H 4069   4.468   8.560   1.033 -0.3461 -1.0201 -1.0024
  771MOL0     H 4070   4.305   8.496   1.223 -0.5288  0.0818  2.4956
  771MOL0     H 4071   4.004   8.637   1.504 -2.2902 -0.5851  0.9767
  771MOL0     H 4072   3.844   8.657   1.696 -0.6830  0.3835  1.4039
  771MOL0     H 4073   3.741   8.557   1.907 -1.7752  1.5461 -0.8998
  771MOL0     H 4074   3.739   8.735   1.902 -1.1878 -0.9910 -2.3005
  771MOL0     H 4075   3.759   8.730   2.153 -0.6624  0.6185 -0.5388
  771MOL0     H 4076   3.780   8.556   2.158 -0.3283 -1.2878 -0.4166
  771MOL0     H 4077   3.560   8.523   2.078  0.7247 -0.1650  1.0309
  771MOL0     H 4078   3.520   8.696   2.072  0.1966  1.1163  1.4155
  771MOL0     H 4079   3.499   8.516   2.306  2.4901 -2.5588 -1.6019
  771MOL0     H 4080   3.613   8.639   2.351 -3.1548 -0.5711  3.9725
  771MOL0     H 4081   3.279   8.881   2.366 -0.1532 -0.8419  0.3721
  771MOL0     H 4082   4.146   8.541   1.966  2.7068 -0.6983 -1.2176
  771MOL0     H 4083   4.355   8.446   1.878  0.8218 -1.1467  0.8109
  771MOL0     H 4084   4.343   8.382   1.711 -2.0840 -1.7111  3.1821
  771MOL0     H 4085   4.421   8.535   1.743  1.1273 -1.8026 -0.5781
  772MOL0     O 4086   8.278   3.613   8.945  0.5444  0.3658  0.4650
  772MOL0     C 4087   8.261   3.699   9.032  0.0911 -0.4204 -0.3322
  772MOL0     O 4088   8.352   3.779   9.092  0.1686  0.5752  0.3011
  772MOL0     C 4089   8.475   3.725   9.089  0.3711 -0.1359 -0.3373
  772MOL0     C 4090   8.573   3.797   9.026 -0.3495 -0.3504 -0.7910
  772MOL0     C 4091   8.707   3.749   9.020  0.2308 -0.5380 -0.8834
  772MOL0     C 4092   8.740   3.630   9.093  0.3013 -0.8238 -0.2583
  772MOL0     O 4093   8.871   3.599   9.102 -0.3574 -0.3081  0.1950
  772MOL0     C 4094   8.901   3.465   9.039 -0.0677 -0.1387  0.2445
  772MOL0     C 4095   9.045   3.426   9.029  0.0703  0.9773 -0.6980
  772MOL0     C 4096   9.125   3.539   8.975  0.1548 -0.4081 -0.3226
  772MOL0     C 4097   9.273   3.497   8.989  0.3969 -0.1111 -0.6319
  772MOL0     C 4098   9.354   3.612   8.930  0.1090 -0.0226 -0.1651
  772MOL0     C 4099   9.502   3.590   8.927  0.2456 -0.5705  0.2089
  772MOL0     C 4100   9.580   3.705   8.858  0.0519 -0.5971 -0.0614
  772MOL0     C 4101   9.730   3.678   8.875  0.5783 -0.3056  0.2266
  772MOL0     N 4102   9.784   3.761   8.769  0.3099 -0.6255  0.4675
  772MOL0     C 4103   9.868   3.865   8.805  1.0160  0.4653  0.2732
  772MOL0     C 4104   9.923   3.914   8.690  0.2015 -0.0444  0.4839
  772MOL0     C 4105  10.036   4.022   8.675 -0.0501 -0.6227 -0.5219
  772MOL0     C 4106  10.165   3.932   8.667  0.0579 -0.7593 -0.5212
  772MOL0     C 4107  10.289   4.007   8.613 -0.3770 -0.0681 -0.1798
  772MOL0     C 4108  10.389   3.907   8.555  0.0587  0.2558  0.9427
  772MOL0     O 4109  10.504   3.982   8.496 -0.0880  0.6778 -0.1511
  772MOL0     C 4110  10.627   3.939   8.516 -0.8705 -0.2279  0.3929
  772MOL0     C 4111  10.709   3.974   8.623  0.1629 -0.1105 -0.6714
  772MOL0     C 4112  10.843   3.944   8.631  0.1839  0.4177 -0.1533
  772MOL0     C 4113  10.897   3.857   8.536 -0.1497 -0.1344  0.7161
  772MOL0     C 4114  11.041   3.809   8.543 -0.1073 -0.0037 -0.0318
  772MOL0     O 4115  11.077   3.732   8.439  0.2672  0.4462  0.0288
  772MOL0     C 4116  11.212   3.706   8.443 -0.5626  0.2804  0.7572
  772MOL0     C 4117  11.306   3.785   8.375  0.7229  0.3043 -0.2698
  772MOL0     C 4118  11.441   3.752   8.386 -0.3516 -0.0442 -0.2005
  772MOL0     C 4119  11.489   3.641   8.462 -0.1222 -0.1901  0.1198
  772MOL0     O 4120  11.617   3.618   8.448  0.1352  0.5116 -0.3519
  772MOL0     C 4121  11.666   3.474   8.454  0.3809  0.6827 -0.9706
  772MOL0     C 4122  11.816   3.484   8.420  0.2738  0.2183 -0.4872
  772MOL0     C 4123  11.892   3.348   8.424  0.4685  0.4801 -0.7891
  772MOL0     C 4124  12.045   3.375   8.415 -0.2997  1.1731  0.0125
  772MOL0     C 4125  12.120   3.248   8.381 -0.2962  0.2276  0.0892
  772MOL0     C 4126  12.271   3.282   8.348  0.8061  0.2435 -0.4661
  772MOL0     C 4127  12.350   3.158   8.321  0.5456  0.1927 -0.6887
  772MOL0     C 4128  12.499   3.201   8.340 -0.2993 -0.0147 -0.5877
  772MOL0    Cl 4129  12.560   3.340   8.223 -0.0391  0.1354  0.0341
  772MOL0     C 4130  11.394   3.553   8.528 -0.8385  0.0684 -1.1665
  772MOL0     C 4131  11.258   3.592   8.524  1.0358 -0.2966 -0.3217
  772MOL0     O 4132  11.114   3.861   8.629 -1.2216  0.6606 -0.0370
  772MOL0     C 4133  10.819   3.821   8.421  0.5832 -0.3090 -0.0169
  772MOL0     C 4134  10.691   3.865   8.422 -0.5583  0.1319  0.8613
  772MOL0     N 4135   9.878   3.836   8.588  0.4197 -0.0937  0.0753
  772MOL0     N 4136   9.793   3.740   8.633  0.3191 -0.1428  0.1056
  772MOL0     C 4137   8.638   3.563   9.155 -0.1226 -0.3615 -0.8925
  772MOL0     C 4138   8.509   3.604   9.152  0.1785 -1.1461  0.4979
  772MOL0     C 4139   8.122   3.710   9.084 -0.6167  0.1645 -1.0525
  772MOL0     C 4140   8.104   3.721   9.221  0.6401 -1.1479 -0.0123
  772MOL0     C 4141   7.983   3.739   9.286 -0.3830 -0.4964 -0.5755
  772MOL0     C 4142   7.871   3.730   9.220  0.1328 -0.8809  0.2576
  772MOL0     O 4143   7.735   3.733   9.265 -0.3600  0.5363 -0.1055
  772MOL0     C 4144   7.723   3.726   9.408 -0.7319  0.2601 -0.8855
  772MOL0     C 4145   7.577   3.745   9.453 -0.5432  0.1969 -0.1378
  772MOL0     C 4146   7.522   3.874   9.402  0.5157 -0.7369  0.1014
  772MOL0     C 4147   7.393   3.910   9.471  0.5603 -0.2347  0.3407
  772MOL0     C 4148   7.325   4.028   9.403  0.0814 -0.7363  0.6589
  772MOL0     C 4149   7.257   4.095   9.326  0.1267  0.6734  1.3476
  772MOL0     C 4150   7.880   3.713   9.078 -0.7058  0.1880 -1.2609
  772MOL0     C 4151   7.999   3.708   9.007  0.1281  0.5106 -0.7239
  772MOL0     C 4152   7.991   3.688   8.851 -0.0655  0.3452  0.1754
  772MOL0     H 4153   8.532   3.885   8.977 -3.1408 -1.9281 -1.5056
  772MOL0     H 4154   8.789   3.797   8.968 -0.0295 -2.8863 -3.7057
  772MOL0     H 4155   8.851   3.384   9.093 -0.6794  1.3097  1.9349
  772MOL0     H 4156   8.867   3.469   8.935  1.4255 -1.2649 -0.3396
  772MOL0     H 4157   9.058   3.328   8.981  1.8030  0.9534 -0.2263
  772MOL0     H 4158   9.088   3.417   9.129  1.2868 -0.2431 -1.3064
  772MOL0     H 4159   9.097   3.639   9.008 -1.8216 -0.1762 -2.4829
  772MOL0     H 4160   9.111   3.537   8.867 -2.6673  1.2618 -0.0859
  772MOL0     H 4161   9.290   3.473   9.094 -1.6429  1.3925  0.1059
  772MOL0     H 4162   9.296   3.408   8.930  1.7991 -2.1582  2.7086
  772MOL0     H 4163   9.317   3.629   8.828 -1.2559 -0.4721  0.2393
  772MOL0     H 4164   9.334   3.701   8.990 -0.8694 -0.1298 -0.3148
  772MOL0     H 4165   9.532   3.569   9.030  1.3873  1.0043  0.2322
  772MOL0     H 4166   9.529   3.505   8.863 -0.6251  0.1889 -1.2172
  772MOL0     H 4167   9.560   3.800   8.909  1.3773 -0.0914 -0.4509
  772MOL0     H 4168   9.550   3.722   8.754 -1.7770  2.9012  0.8740
  772MOL0     H 4169   9.758   3.704   8.977  3.5750  0.7695 -0.7720
  772MOL0     H 4170   9.749   3.573   8.850 -2.4355 -1.1242  0.9526
  772MOL0     H 4171   9.892   3.892   8.907 -2.4980  1.0823  1.0741
  772MOL0     H 4172  10.022   4.086   8.587 -1.7691  2.7771  1.9988
  772MOL0     H 4173  10.030   4.086   8.763 -2.3991 -2.6759  0.9367
  772MOL0     H 4174  10.183   3.882   8.762 -2.0243 -2.7993 -1.1225
  772MOL0     H 4175  10.148   3.855   8.591 -1.0952 -0.6899 -0.3561
  772MOL0     H 4176  10.338   4.069   8.689 -0.4014 -0.7273  0.3846
  772MOL0     H 4177  10.261   4.072   8.531 -1.1228  2.1347  1.7133
  772MOL0     H 4178  10.337   3.855   8.474  0.1669 -1.5798  1.9790
  772MOL0     H 4179  10.419   3.829   8.627  0.6669  0.7673  1.2488
  772MOL0     H 4180  10.666   4.023   8.710  2.6262  2.8505 -0.9540
  772MOL0     H 4181  10.899   3.973   8.719 -1.1574  0.8301  0.6016
  772MOL0     H 4182  11.270   3.861   8.306  1.7046 -0.3474 -1.5562
  772MOL0     H 4183  11.518   3.815   8.344 -1.7435  2.2033  0.4191
  772MOL0     H 4184  11.652   3.429   8.553  0.4286  1.6086 -0.5278
  772MOL0     H 4185  11.614   3.405   8.387 -1.6811  2.2130 -1.0564
  772MOL0     H 4186  11.820   3.529   8.321  0.5289 -2.3149 -1.6932
  772MOL0     H 4187  11.869   3.549   8.490  0.6135 -0.0108 -0.5299
  772MOL0     H 4188  11.876   3.302   8.521  3.4080  2.1675  0.6266
  772MOL0     H 4189  11.866   3.279   8.343  1.6224 -4.7221  2.8202
  772MOL0     H 4190  12.085   3.404   8.513 -0.1200 -3.4388  1.5828
  772MOL0     H 4191  12.056   3.445   8.332  1.3170  0.1904 -0.6421
  772MOL0     H 4192  12.080   3.207   8.288  2.0872 -3.8421  0.6035
  772MOL0     H 4193  12.097   3.185   8.468 -1.8005  1.1498  0.3939
  772MOL0     H 4194  12.282   3.343   8.258  0.1627  1.1551  0.0584
  772MOL0     H 4195  12.321   3.348   8.420  0.5966  1.3089 -1.2701
  772MOL0     H 4196  12.336   3.122   8.219  0.6014  0.4200 -0.7778
  772MOL0     H 4197  12.323   3.073   8.385  1.3497 -0.0679 -0.6850
  772MOL0     H 4198  12.516   3.223   8.445  1.3903 -0.6903 -0.6943
  772MOL0     H 4199  12.564   3.117   8.314 -0.1872 -0.1076 -0.0142
  772MOL0     H 4200  11.422   3.458   8.572  0.6855  0.8234 -0.4187
  772MOL0     H 4201  11.198   3.522   8.580  3.5484 -1.6115  0.8996
  772MOL0     H 4202  10.852   3.759   8.338 -1.2355 -1.5089  0.1042
  772MOL0     H 4203  10.622   3.850   8.340 -0.2958  0.3908  0.5907
  772MOL0     H 4204   8.656   3.487   9.230 -3.2271 -0.1312  0.2255
  772MOL0     H 4205   8.423   3.554   9.196 -0.8065 -0.5821 -0.6971
  772MOL0     H 4206   8.183   3.725   9.295  1.0329  2.8665 -0.4270
  772MOL0     H 4207   7.992   3.739   9.394  2.3426 -0.4124 -0.7480
  772MOL0     H 4208   7.786   3.796   9.464 -0.4823 -0.4224 -0.2929
  772MOL0     H 4209   7.755   3.629   9.447 -0.6206  0.5813 -0.1585
  772MOL0     H 4210   7.579   3.740   9.562  0.4658  0.7541 -0.1189
  772MOL0     H 4211   7.519   3.661   9.413 -1.4194  1.7674 -2.3535
  772MOL0     H 4212   7.499   3.857   9.296  3.0398  1.1468 -0.8613
  772MOL0     H 4213   7.592   3.958   9.413  0.7063 -0.9721  0.7163
  772MOL0     H 4214   7.327   3.823   9.475  0.9282 -0.7259 -2.2546
  772MOL0     H 4215   7.425   3.947   9.569  0.7158  0.6320 -0.0291
  772MOL0     H 4216   7.183   4.136   9.260 -0.2113 -1.1802  0.5172
  772MOL0     H 4217   7.788   3.680   9.032 -0.7313 -1.3865 -0.1616
  772MOL0     H 4218   8.027   3.780   8.804 -2.2999  1.7111  0.9399
  772MOL0     H 4219   8.055   3.603   8.828 -0.0838  0.1923  0.6837
  772MOL0     H 4220   7.890   3.665   8.816 -0.4917 -0.0659  1.6034
  773MOL0     O 4221   9.468   8.698   8.604  0.3121 -0.3847  0.2292
  773MOL0     C 4222   9.536   8.618   8.545  0.1831 -0.5722  0.0207
  773MOL0     O 4223   9.666   8.601   8.566  0.3513 -0.4737 -0.9077
  773MOL0     C 4224   9.721   8.646   8.685  0.3721 -0.3355  0.5862
  773MOL0     C 4225   9.757   8.557   8.783 -0.7020 -0.1164 -0.0288
  773MOL0     C 4226   9.836   8.601   8.889  0.0573 -0.1719  0.5988
  773MOL0     C 4227   9.889   8.722   8.894 -0.1031  0.0495  0.0516
  773MOL0     O 4228   9.948   8.778   9.009 -0.1210 -0.4346  0.3523
  773MOL0     C 4229   9.961   8.701   9.123 -0.5014 -0.3118 -0.8686
  773MOL0     C 4230  10.084   8.611   9.118  0.3251  0.3051  0.3559
  773MOL0     C 4231  10.210   8.691   9.104 -0.4634 -0.2668 -0.2156
  773MOL0     C 4232  10.334   8.607   9.107  0.7442  0.1994 -0.1258
  773MOL0     C 4233  10.466   8.673   9.120 -0.3358  0.6036 -0.2183
  773MOL0     C 4234  10.573   8.569   9.146  0.4054  0.0087  0.7009
  773MOL0     C 4235  10.707   8.634   9.170 -0.2014 -0.7907 -0.6561
  773MOL0     C 4236  10.808   8.524   9.188  0.3841  0.0944 -0.1641
  773MOL0     N 4237  10.950   8.565   9.184  0.7115 -0.0764  0.0353
  773MOL0     C 4238  11.016   8.619   9.289  0.3573  0.1479 -0.0750
  773MOL0     C 4239  11.147   8.594   9.265 -0.5872  0.8109 -0.0506
  773MOL0     C 4240  11.261   8.625   9.368  0.8143 -0.1757 -0.0000
  773MOL0     C 4241  11.397   8.612   9.300 -0.2681 -0.6779  0.0612
  773MOL0     C 4242  11.439   8.738   9.219  0.2370  0.1186  0.1229
  773MOL0     C 4243  11.587   8.723   9.187 -0.3368  0.2084  0.8152
  773MOL0     O 4244  11.668   8.710   9.301 -0.1026  0.5581  0.1730
  773MOL0     C 4245  11.800   8.739   9.284 -0.9309  0.2813 -0.6692
  773MOL0     C 4246  11.884   8.653   9.211 -0.1604  0.2176 -0.1163
  773MOL0     C 4247  12.024   8.663   9.213  0.2051  0.2451  0.0934
  773MOL0     C 4248  12.091   8.774   9.282  0.2071  0.1921 -0.3354
  773MOL0     C 4249  12.232   8.803   9.273 -0.1436 -0.2196  0.2327
  773MOL0     O 4250  12.315   8.699   9.232  0.0621 -0.5403  0.3900
  773MOL0     C 4251  12.451   8.721   9.225  0.7047 -0.2268  0.1220
  773MOL0     C 4252  12.529   8.785   9.327 -0.4201  0.0809  0.6832
  773MOL0     C 4253  12.668   8.790   9.316  0.2361 -0.1271 -0.1963
  773MOL0     C 4254  12.726   8.739   9.197  0.2522  0.3976 -0.1095
  773MOL0     O 4255  12.861   8.738   9.170 -0.8927  0.1788  0.1795
  773MOL0     C 4256  12.946   8.795   9.274 -0.0906  0.8578  0.0429
  773MOL0     C 4257  13.089   8.809   9.224 -0.4023 -0.2706 -0.0452
  773MOL0     C 4258  13.169   8.863   9.330  0.5568 -0.2788  0.1577
  773MOL0     C 4259  13.315   8.866   9.286 -0.2014 -0.2247 -0.2850
  773MOL0     C 4260  13.403   8.955   9.375 -0.2675  0.4171  0.6573
  773MOL0     C 4261  13.403   8.902   9.519  0.7444  0.7327  0.5952
  773MOL0     C 4262  13.464   9.001   9.617 -0.4310 -0.2705  1.0935
  773MOL0     C 4263  13.482   8.938   9.752 -0.4676 -0.1481 -0.7451
  773MOL0    Cl 4264  13.339   8.838   9.813 -0.1113 -0.5944  0.0640
  773MOL0     C 4265  12.649   8.672   9.100  0.3340 -0.1867  0.0003
  773MOL0     C 4266  12.514   8.658   9.115 -0.3117 -0.6456 -0.0323
  773MOL0     O 4267  12.263   8.915   9.301 -0.4257 -0.5881  0.3774
  773MOL0     C 4268  12.003   8.861   9.350 -0.4866  0.1211 -0.5172
  773MOL0     C 4269  11.865   8.845   9.353  0.0901 -0.3796  0.4562
  773MOL0     N 4270  11.157   8.520   9.151  0.4887 -0.2004 -0.0580
  773MOL0     N 4271  11.036   8.491   9.110  0.2412 -0.2533 -0.9445
  773MOL0     C 4272   9.853   8.813   8.787 -0.5172 -0.0215 -0.7076
  773MOL0     C 4273   9.777   8.775   8.684  0.3098 -0.2936  0.7206
  773MOL0     C 4274   9.473   8.548   8.421 -0.0537 -0.2988 -0.2718
  773MOL0     C 4275   9.561   8.482   8.332 -0.4369  0.2281 -0.2798
  773MOL0     C 4276   9.515   8.401   8.222  0.2394 -0.3453  0.2750
  773MOL0     C 4277   9.385   8.404   8.194  0.8195 -0.1124  0.1690
  773MOL0     O 4278   9.339   8.334   8.092  0.1030 -0.0597 -0.3864
  773MOL0     C 4279   9.365   8.199   8.076  0.9641  0.3641 -1.1151
  773MOL0     C 4280   9.277   8.130   8.185 -0.3363 -0.0570  0.6840
  773MOL0     C 4281   9.128   8.167   8.183  0.2935  0.0658  0.4556
  773MOL0     C 4282   9.035   8.058   8.226 -0.1931  0.0490  0.2869
  773MOL0     C 4283   8.901   8.119   8.245 -0.8602 -0.7809 -0.1585
  773MOL0     C 4284   8.808   8.185   8.280  0.2297 -0.0972  0.4980
  773MOL0     C 4285   9.301   8.481   8.267 -0.0496 -0.5126  0.0869
  773MOL0     C 4286   9.338   8.550   8.385  0.0757  0.4217  0.5258
  773MOL0     C 4287   9.233   8.609   8.481 -0.0560 -0.4605  0.5133
  773MOL0     H 4288   9.719   8.455   8.779 -0.1480 -0.5393  2.9142
  773MOL0     H 4289   9.851   8.532   8.972 -2.1493 -0.6455  0.6740
  773MOL0     H 4290   9.977   8.775   9.203  2.3252  1.0408 -2.5182
  773MOL0     H 4291   9.868   8.648   9.145 -0.1219 -0.4822  0.4054
  773MOL0     H 4292  10.076   8.531   9.043  3.0219 -2.1786  2.4804
  773MOL0     H 4293  10.085   8.557   9.213 -2.5265 -0.8063 -0.1498
  773MOL0     H 4294  10.220   8.765   9.183  0.3598  0.9265 -1.3964
  773MOL0     H 4295  10.194   8.736   9.005 -1.5316 -1.2248 -0.5039
  773MOL0     H 4296  10.307   8.535   9.184 -0.1001 -1.1233 -1.6167
  773MOL0     H 4297  10.337   8.555   9.011  0.3771 -2.2300  1.0897
  773MOL0     H 4298  10.486   8.738   9.034  0.7448  0.8090  0.1692
  773MOL0     H 4299  10.467   8.742   9.205 -0.7295  2.0629 -1.3324
  773MOL0     H 4300  10.546   8.501   9.226  1.0834  0.6687  1.5021
  773MOL0     H 4301  10.574   8.511   9.053 -2.3483  0.6004  0.1906
  773MOL0     H 4302  10.705   8.711   9.247 -0.7637 -1.7769  0.3488
  773MOL0     H 4303  10.743   8.692   9.085 -0.9337  2.2543  0.9587
  773MOL0     H 4304  10.791   8.470   9.281  4.5077 -2.1888 -0.4980
  773MOL0     H 4305  10.790   8.456   9.104 -0.8195  0.2796 -0.0642
  773MOL0     H 4306  10.973   8.670   9.375 -0.4883 -0.9625  0.1927
  773MOL0     H 4307  11.243   8.722   9.416 -1.2133 -0.6407  0.3039
  773MOL0     H 4308  11.260   8.544   9.442  1.5655 -0.2769 -0.0938
  773MOL0     H 4309  11.457   8.597   9.390 -0.8596 -1.0345  0.4067
  773MOL0     H 4310  11.396   8.529   9.229 -0.9891  1.6432 -2.8269
  773MOL0     H 4311  11.429   8.831   9.276 -0.6556  0.2692 -0.2623
  773MOL0     H 4312  11.383   8.744   9.125 -0.1890 -2.6160  0.1388
  773MOL0     H 4313  11.611   8.810   9.125 -2.9072  0.6689  0.3125
  773MOL0     H 4314  11.593   8.633   9.125 -1.4474  0.0716  0.8797
  773MOL0     H 4315  11.833   8.573   9.158 -2.1359  0.3065  1.5558
  773MOL0     H 4316  12.084   8.582   9.172  2.0831  1.9067 -0.5935
  773MOL0     H 4317  12.482   8.823   9.418 -0.7028  1.2869  0.0568
  773MOL0     H 4318  12.728   8.825   9.400 -0.0440 -1.9031  0.8024
  773MOL0     H 4319  12.915   8.896   9.301  1.4586  1.3283  0.1857
  773MOL0     H 4320  12.953   8.727   9.359  1.0556  1.7700  0.7188
  773MOL0     H 4321  13.126   8.709   9.200  1.1302  0.0892  0.7458
  773MOL0     H 4322  13.100   8.873   9.136  2.3758 -1.2705 -0.5237
  773MOL0     H 4323  13.151   8.970   9.343  1.0164 -0.2340  0.4397
  773MOL0     H 4324  13.156   8.802   9.420 -1.6098  1.1733  0.9119
  773MOL0     H 4325  13.318   8.906   9.184  0.6758  1.9464  0.5341
  773MOL0     H 4326  13.355   8.764   9.287 -1.0822 -0.5876  1.9872
  773MOL0     H 4327  13.379   9.061   9.356  0.3998  0.1212 -2.3446
  773MOL0     H 4328  13.501   8.940   9.328 -0.6504  2.8935 -1.1478
  773MOL0     H 4329  13.299   8.878   9.542  0.2479  1.0122 -1.2050
  773MOL0     H 4330  13.457   8.807   9.521  1.6443  1.2448  2.1296
  773MOL0     H 4331  13.394   9.085   9.615  2.7864  2.7316 -2.2425
  773MOL0     H 4332  13.563   9.040   9.590 -1.2565  0.7341 -0.6143
  773MOL0     H 4333  13.575   8.881   9.745 -0.8662 -0.8087 -0.7871
  773MOL0     H 4334  13.500   9.012   9.830 -1.4353 -2.2318  1.5717
  773MOL0     H 4335  12.699   8.641   9.009  0.2887  2.6805 -1.1233
  773MOL0     H 4336  12.465   8.596   9.040 -0.5868 -2.2696  1.4165
  773MOL0     H 4337  12.042   8.949   9.399 -0.2512 -0.7628  0.9390
  773MOL0     H 4338  11.813   8.916   9.417  3.1510 -1.8395  5.0608
  773MOL0     H 4339   9.892   8.914   8.792 -0.2888 -0.1097 -0.6901
  773MOL0     H 4340   9.742   8.850   8.614 -0.4236 -3.7672 -2.9889
  773MOL0     H 4341   9.664   8.479   8.365 -0.2133 -1.3759 -1.0063
  773MOL0     H 4342   9.587   8.345   8.162 -2.0468 -1.8814 -1.2084
  773MOL0     H 4343   9.473   8.182   8.080  1.0030  0.8530  1.8240
  773MOL0     H 4344   9.327   8.173   7.977 -3.4785 -1.9684  0.9175
  773MOL0     H 4345   9.312   8.160   8.284  4.5709  0.7717 -1.0099
  773MOL0     H 4346   9.287   8.021   8.185  0.9072  0.0336  1.1330
  773MOL0     H 4347   9.098   8.183   8.079 -0.3980  0.0860  0.6522
  773MOL0     H 4348   9.122   8.264   8.234  1.6814 -0.2405  1.2407
  773MOL0     H 4349   9.036   7.987   8.142  1.1842 -0.6595  0.8590
  773MOL0     H 4350   9.061   8.003   8.317  0.7391  1.4730  0.9020
  773MOL0     H 4351   8.726   8.246   8.311 -0.0770 -0.5319  0.5539
  773MOL0     H 4352   9.195   8.489   8.244 -0.4540  1.6997  2.2125
  773MOL0     H 4353   9.134   8.567   8.464 -0.1955  0.1905 -0.3533
  773MOL0     H 4354   9.258   8.589   8.586  0.5101 -0.1832  0.4340
  773MOL0     H 4355   9.220   8.717   8.472  1.6640 -0.3221 -0.9791
  774MOL0     O 4356   7.447   7.305   2.385  0.1118 -0.1974 -0.5082
  774MOL0     C 4357   7.434   7.419   2.362 -0.2513  0.0612  0.5465
  774MOL0     O 4358   7.529   7.516   2.392  1.4364  0.5999 -0.3346
  774MOL0     C 4359   7.621   7.507   2.488 -0.0482 -0.4283  0.2458
  774MOL0     C 4360   7.618   7.414   2.591 -0.2866 -0.1070 -0.7505
  774MOL0     C 4361   7.727   7.400   2.677  0.2595  0.7623  0.0025
  774MOL0     C 4362   7.839   7.488   2.657  0.4256  0.9729 -0.6314
  774MOL0     O 4363   7.946   7.478   2.737  0.0522 -0.6230  0.3537
  774MOL0     C 4364   7.949   7.383   2.850  0.4162 -0.3886  0.3493
  774MOL0     C 4365   8.060   7.419   2.954 -0.4625  0.2102  0.5421
  774MOL0     C 4366   8.206   7.428   2.893  0.4143  0.2945 -0.1145
  774MOL0     C 4367   8.305   7.463   2.992  0.4288 -0.1677  0.0111
  774MOL0     C 4368   8.447   7.471   2.930  0.3539 -0.4365  0.3357
  774MOL0     C 4369   8.513   7.335   2.901 -0.1109  0.4391 -0.8538
  774MOL0     C 4370   8.665   7.353   2.881 -0.0655  0.2883 -0.0883
  774MOL0     C 4371   8.741   7.224   2.837  0.1220 -0.3614  0.4462
  774MOL0     N 4372   8.876   7.259   2.803  0.0029  0.0284  0.3392
  774MOL0     C 4373   8.984   7.270   2.889  0.4066 -1.8304  0.3532
  774MOL0     C 4374   9.096   7.253   2.811  0.0470  0.0719 -0.1677
  774MOL0     C 4375   9.234   7.264   2.850 -0.0952 -0.8695 -0.1552
  774MOL0     C 4376   9.296   7.122   2.826  0.0751  0.8587 -0.5117
  774MOL0     C 4377   9.226   7.016   2.917 -0.2318 -0.3494  0.7095
  774MOL0     C 4378   9.308   6.889   2.913  0.4793 -0.0876  0.5525
  774MOL0     O 4379   9.409   6.901   3.012 -0.2363  0.0651  0.4439
  774MOL0     C 4380   9.521   6.821   2.995 -0.1507  0.9393  0.2642
  774MOL0     C 4381   9.636   6.851   3.060  0.4615 -0.2310 -0.6563
  774MOL0     C 4382   9.751   6.774   3.050  0.8169 -0.7245 -0.0276
  774MOL0     C 4383   9.743   6.652   2.982 -0.4247  0.3282  0.0105
  774MOL0     C 4384   9.851   6.546   3.005 -0.8961 -0.3322 -0.1850
  774MOL0     O 4385   9.864   6.449   2.901  0.2642  0.5297 -0.2643
  774MOL0     C 4386   9.959   6.351   2.909 -0.4206 -0.2727 -0.0328
  774MOL0     C 4387   9.972   6.265   3.023 -0.0718 -0.2740 -0.5223
  774MOL0     C 4388  10.079   6.176   3.021  0.9761 -0.2897  0.2951
  774MOL0     C 4389  10.165   6.170   2.912  0.7541  0.0739 -0.4175
  774MOL0     O 4390  10.278   6.098   2.916  0.0693 -0.0497 -0.6028
  774MOL0     C 4391  10.363   6.069   2.807  0.6737  0.6048  0.0661
  774MOL0     C 4392  10.485   5.986   2.846  0.3050  0.0469  0.5381
  774MOL0     C 4393  10.464   5.872   2.947 -0.5407  0.6969  0.4378
  774MOL0     C 4394  10.597   5.807   2.976  0.5315 -0.7558  0.1904
  774MOL0     C 4395  10.594   5.674   3.063 -0.0431  0.2689  0.4244
  774MOL0     C 4396  10.577   5.540   2.986  0.0895 -0.6389 -0.1115
  774MOL0     C 4397  10.549   5.413   3.073  0.0581  0.3205 -0.3166
  774MOL0     C 4398  10.664   5.362   3.160  0.4735 -0.2371 -0.1809
  774MOL0    Cl 4399  10.693   5.453   3.310 -0.5513 -0.4410 -0.1828
  774MOL0     C 4400  10.156   6.263   2.813  0.7597  0.3859  0.1581
  774MOL0     C 4401  10.059   6.357   2.817  0.7596 -0.0673 -0.7393
  774MOL0     O 4402   9.934   6.562   3.095 -0.2351  0.5873 -0.0566
  774MOL0     C 4403   9.633   6.621   2.904 -0.1206 -0.2323  0.9531
  774MOL0     C 4404   9.518   6.702   2.917 -0.0173  0.2074 -0.7856
  774MOL0     N 4405   9.049   7.231   2.676 -0.7394  0.0830  0.1354
  774MOL0     N 4406   8.925   7.248   2.677 -0.0350 -0.0167  0.7028
  774MOL0     C 4407   7.846   7.578   2.553  0.4394 -0.1856  0.1509
  774MOL0     C 4408   7.734   7.590   2.467 -0.5274  0.7175  0.3491
  774MOL0     C 4409   7.309   7.467   2.305 -0.0745 -0.5257 -0.1823
  774MOL0     C 4410   7.306   7.606   2.264 -0.4553  0.3451  0.4994
  774MOL0     C 4411   7.185   7.671   2.223  0.2498  0.4822  0.5486
  774MOL0     C 4412   7.072   7.590   2.197 -0.1987  0.3988  0.2514
  774MOL0     O 4413   6.948   7.624   2.157  0.4615  0.2932 -0.1099
  774MOL0     C 4414   6.931   7.735   2.067 -0.2218  0.7564 -0.6236
  774MOL0     C 4415   6.782   7.733   2.013 -0.0992  0.1288 -0.0499
  774MOL0     C 4416   6.688   7.774   2.125  0.2537 -0.2209 -0.6375
  774MOL0     C 4417   6.537   7.767   2.078 -0.3713 -0.3010  0.4868
  774MOL0     C 4418   6.522   7.872   1.978  0.2263  0.2794 -0.9649
  774MOL0     C 4419   6.515   7.959   1.899  0.1096  0.0225  0.1512
  774MOL0     C 4420   7.080   7.455   2.229 -0.2409 -0.1878  0.0174
  774MOL0     C 4421   7.189   7.396   2.271 -0.6414  0.3625 -0.7931
  774MOL0     C 4422   7.185   7.242   2.295  0.0616 -0.2799  0.2803
  774MOL0     H 4423   7.533   7.351   2.612 -1.8222  2.1532  0.2069
  774MOL0     H 4424   7.702   7.324   2.749  1.0804 -1.0131 -1.4962
  774MOL0     H 4425   7.850   7.388   2.896  0.8954  1.2124  1.2856
  774MOL0     H 4426   7.970   7.282   2.812 -0.5703 -1.7714  3.2585
  774MOL0     H 4427   8.071   7.338   3.027  3.6258 -0.5762 -0.6738
  774MOL0     H 4428   8.028   7.505   3.013 -1.5657 -0.7432  1.3737
  774MOL0     H 4429   8.207   7.490   2.803 -1.7647  0.8764  0.2186
  774MOL0     H 4430   8.236   7.329   2.857 -1.9074 -1.0523  1.4112
  774MOL0     H 4431   8.276   7.563   3.026  1.3787 -0.0585  0.5658
  774MOL0     H 4432   8.314   7.384   3.068  1.0048 -0.6172 -0.5111
  774MOL0     H 4433   8.443   7.529   2.838  0.7135  0.7616  1.0438
  774MOL0     H 4434   8.508   7.533   2.997  1.7552 -0.6911 -0.6758
  774MOL0     H 4435   8.497   7.274   2.991 -0.9374  0.1573 -1.1904
  774MOL0     H 4436   8.465   7.294   2.812 -0.8837  0.0712 -0.2822
  774MOL0     H 4437   8.715   7.383   2.973  0.5462  3.8163 -1.4112
  774MOL0     H 4438   8.677   7.439   2.814  0.8233  0.2339 -0.0139
  774MOL0     H 4439   8.745   7.157   2.923  0.9905  1.7689  2.1701
  774MOL0     H 4440   8.700   7.170   2.751  0.6130 -3.3638  1.9680
  774MOL0     H 4441   8.976   7.295   2.994 -0.7498 -4.3378  0.9363
  774MOL0     H 4442   9.300   7.327   2.789 -0.7887 -1.3384 -1.4209
  774MOL0     H 4443   9.240   7.289   2.956 -1.5346 -0.0205 -0.2414
  774MOL0     H 4444   9.283   7.100   2.720  1.8759  0.4149 -0.6717
  774MOL0     H 4445   9.401   7.124   2.858 -0.1670  0.2170  0.3861
  774MOL0     H 4446   9.129   6.990   2.874  0.0131  0.2188 -0.2100
  774MOL0     H 4447   9.210   7.049   3.021  0.1428 -1.8509  1.2702
  774MOL0     H 4448   9.344   6.885   2.810 -3.2566  1.6701 -0.9909
  774MOL0     H 4449   9.237   6.806   2.920 -1.8654  1.7723  0.1844
  774MOL0     H 4450   9.634   6.943   3.116  1.1310  1.8573 -3.8176
  774MOL0     H 4451   9.830   6.826   3.104 -0.5019 -0.3515  1.5887
  774MOL0     H 4452   9.899   6.273   3.103 -0.2020  2.0102 -0.8136
  774MOL0     H 4453  10.089   6.107   3.105  0.4032 -1.7990 -0.8333
  774MOL0     H 4454  10.308   6.031   2.721  2.6347  0.7661 -1.3355
  774MOL0     H 4455  10.408   6.163   2.774  1.1530  0.3785  0.0615
  774MOL0     H 4456  10.526   5.946   2.753  2.4104  1.3355  0.8559
  774MOL0     H 4457  10.571   6.043   2.883  0.7485 -0.6150  0.5498
  774MOL0     H 4458  10.431   5.906   3.046  0.7583  0.3173  1.0367
  774MOL0     H 4459  10.392   5.803   2.905 -0.2927  0.2250  0.7789
  774MOL0     H 4460  10.667   5.874   3.026  0.3394 -0.2631 -0.1930
  774MOL0     H 4461  10.647   5.787   2.881  0.7437  2.0544 -0.3648
  774MOL0     H 4462  10.524   5.680   3.147  3.1955 -1.1195  3.4616
  774MOL0     H 4463  10.697   5.658   3.095  1.4737 -4.1441 -4.9901
  774MOL0     H 4464  10.481   5.559   2.937  0.5610 -1.5929 -1.4490
  774MOL0     H 4465  10.658   5.529   2.914 -0.1411 -1.5779 -0.2478
  774MOL0     H 4466  10.522   5.333   3.004 -2.4813  3.3674 -3.2209
  774MOL0     H 4467  10.462   5.422   3.139  0.1906  0.0288 -0.1034
  774MOL0     H 4468  10.652   5.259   3.194  2.0683 -0.6705 -0.8096
  774MOL0     H 4469  10.766   5.352   3.122  0.5337  0.0954 -0.1066
  774MOL0     H 4470  10.228   6.266   2.732 -1.0792 -1.1096 -1.6450
  774MOL0     H 4471  10.063   6.436   2.743  1.7972 -2.6843 -3.6929
  774MOL0     H 4472   9.623   6.542   2.830 -0.1622 -1.2131  1.9594
  774MOL0     H 4473   9.430   6.689   2.855 -0.4635  1.4907 -0.4449
  774MOL0     H 4474   7.936   7.636   2.537  0.2589  0.3268  0.9223
  774MOL0     H 4475   7.731   7.666   2.390 -2.2319  1.8546  1.4926
  774MOL0     H 4476   7.396   7.663   2.279 -1.1904  1.4234  0.9674
  774MOL0     H 4477   7.177   7.778   2.213 -0.3031  0.5037  1.2059
  774MOL0     H 4478   7.001   7.717   1.986  0.5869  0.2908  0.1553
  774MOL0     H 4479   6.941   7.830   2.120 -2.1851 -0.5773  2.4239
  774MOL0     H 4480   6.751   7.635   1.975  0.4648 -0.1191  0.1060
  774MOL0     H 4481   6.781   7.810   1.935  0.3645  0.4016  0.2074
  774MOL0     H 4482   6.712   7.870   2.172 -3.2558 -0.9492  3.2090
  774MOL0     H 4483   6.691   7.707   2.211  0.6339 -0.7895 -1.0877
  774MOL0     H 4484   6.524   7.669   2.030  0.4459 -0.5333  0.7356
  774MOL0     H 4485   6.465   7.766   2.160 -0.9986 -0.6921 -0.0602
  774MOL0     H 4486   6.511   8.043   1.832 -0.9175 -1.2389 -1.4368
  774MOL0     H 4487   6.991   7.395   2.209  0.0103 -0.1368 -1.3545
  774MOL0     H 4488   7.269   7.190   2.249  1.0450 -0.3699  2.0939
  774MOL0     H 4489   7.206   7.223   2.400  2.0653 -1.5901 -0.3091
  774MOL0     H 4490   7.089   7.209   2.254  0.7156 -0.2303 -1.3836
  775MOL0     O 4491   5.729   0.625   5.396 -0.5427 -0.0244  0.2715
  775MOL0     C 4492   5.678   0.727   5.437 -0.5862  0.8241 -0.5740
  775MOL0     O 4493   5.743   0.838   5.486  0.3204  0.3274  0.1504
  775MOL0     C 4494   5.881   0.838   5.460  1.4077  0.3796 -0.4625
  775MOL0     C 4495   5.971   0.772   5.533  0.1327  0.3686  0.3146
  775MOL0     C 4496   6.103   0.792   5.508  0.6113  0.0382 -0.8956
  775MOL0     C 4497   6.146   0.877   5.406 -0.8183  0.0983  0.6754
  775MOL0     O 4498   6.282   0.886   5.383 -0.7732  0.7482 -0.3083
  775MOL0     C 4499   6.335   0.941   5.262 -0.3900 -0.5827 -0.3943
  775MOL0     C 4500   6.487   0.934   5.258 -1.1678  0.2335  0.2032
  775MOL0     C 4501   6.545   1.019   5.371 -0.5417  0.4737  0.6435
  775MOL0     C 4502   6.700   1.012   5.358 -1.0351 -1.2875  0.5495
  775MOL0     C 4503   6.765   1.099   5.454  0.6922  0.1079 -0.2204
  775MOL0     C 4504   6.908   1.120   5.445  0.3927  0.5195  0.1018
  775MOL0     C 4505   6.961   1.207   5.558  0.0004  1.6209 -0.0465
  775MOL0     C 4506   7.116   1.223   5.540  0.2398  0.5097 -0.4264
  775MOL0     N 4507   7.189   1.284   5.656 -0.2068 -0.5556 -0.7929
  775MOL0     C 4508   7.189   1.412   5.703 -0.6795  0.0877 -0.4611
  775MOL0     C 4509   7.300   1.424   5.786  0.1900  0.4530  0.3281
  775MOL0     C 4510   7.346   1.554   5.843 -0.3765 -0.0054 -0.0372
  775MOL0     C 4511   7.482   1.545   5.922  0.3875 -0.4724  0.1052
  775MOL0     C 4512   7.547   1.678   5.952 -1.1270  1.0639 -0.1736
  775MOL0     C 4513   7.691   1.656   6.015  0.8200  0.6847  0.3257
  775MOL0     O 4514   7.765   1.776   6.008  0.4837  0.3155 -0.2950
  775MOL0     C 4515   7.896   1.774   6.033  0.0922  0.0734 -0.5207
  775MOL0     C 4516   7.973   1.883   5.999 -0.5546  0.8798  0.3091
  775MOL0     C 4517   8.112   1.891   6.022 -0.4556 -1.0512  0.2188
  775MOL0     C 4518   8.171   1.784   6.090  0.4615 -0.2551 -0.0611
  775MOL0     C 4519   8.314   1.802   6.121  0.1446 -0.0185  0.5121
  775MOL0     O 4520   8.364   1.921   6.159 -0.3772 -1.1276  0.2173
  775MOL0     C 4521   8.501   1.926   6.163 -0.4079  0.8176 -0.6185
  775MOL0     C 4522   8.575   1.952   6.051  0.1055 -0.5033  0.0039
  775MOL0     C 4523   8.715   1.944   6.053  0.5821  0.1977  0.1468
  775MOL0     C 4524   8.780   1.928   6.172 -0.1832  0.4814 -0.2318
  775MOL0     O 4525   8.913   1.929   6.156 -0.2477  0.1971 -0.2514
  775MOL0     C 4526   8.994   1.942   6.274 -0.1666  1.0497  0.9635
  775MOL0     C 4527   9.140   1.949   6.229  0.6076 -0.5434  0.2382
  775MOL0     C 4528   9.238   1.951   6.352  0.0836 -0.0423 -0.2187
  775MOL0     C 4529   9.260   1.815   6.425  0.1278 -0.6106  1.0555
  775MOL0     C 4530   9.358   1.843   6.549  0.0746  0.5882  0.0989
  775MOL0     C 4531   9.278   1.884   6.669  0.3254 -0.2177  0.1825
  775MOL0     C 4532   9.383   1.924   6.781  0.9340  0.0291 -0.6607
  775MOL0     C 4533   9.309   1.955   6.909 -0.0718 -0.2208 -0.8563
  775MOL0    Cl 4534   9.430   1.949   7.046 -0.4204 -0.0352  0.1776
  775MOL0     C 4535   8.703   1.910   6.290 -0.4500  1.1818  0.1551
  775MOL0     C 4536   8.565   1.906   6.286  0.2989 -0.1487 -0.6455
  775MOL0     O 4537   8.373   1.698   6.121 -0.3290  0.3105 -0.4116
  775MOL0     C 4538   8.093   1.668   6.126 -1.0010  0.5965  0.3989
  775MOL0     C 4539   7.961   1.661   6.093  0.3667  0.0737  0.0609
  775MOL0     N 4540   7.369   1.297   5.783 -0.4700 -0.8343  0.5042
  775MOL0     N 4541   7.298   1.216   5.711  0.0027  0.0663  0.2971
  775MOL0     C 4542   6.051   0.939   5.319  1.1483  0.3511  0.0650
  775MOL0     C 4543   5.920   0.918   5.352  1.0182 -0.0332  0.3028
  775MOL0     C 4544   5.528   0.721   5.460  0.1663 -0.8282 -0.6416
  775MOL0     C 4545   5.482   0.803   5.565  0.1831 -0.0954 -0.8616
  775MOL0     C 4546   5.347   0.818   5.584  0.4072  0.0525  0.2710
  775MOL0     C 4547   5.252   0.749   5.516 -0.4134 -0.8494  0.9118
  775MOL0     O 4548   5.127   0.773   5.557 -0.4679  0.7847  0.0417
  775MOL0     C 4549   5.032   0.688   5.491 -0.6084  0.5685  0.3448
  775MOL0     C 4550   4.902   0.695   5.577 -0.5628 -0.8245  0.2130
  775MOL0     C 4551   4.782   0.638   5.505  0.0002  0.6785  0.5321
  775MOL0     C 4552   4.667   0.594   5.592 -0.3009 -0.0878  0.4768
  775MOL0     C 4553   4.592   0.711   5.626  0.9865 -0.3215 -0.0789
  775MOL0     C 4554   4.516   0.792   5.685 -0.5301  0.5078 -0.3191
  775MOL0     C 4555   5.297   0.672   5.405 -0.5988 -0.3287 -0.8961
  775MOL0     C 4556   5.430   0.655   5.380  0.4131 -0.4057  1.2686
  775MOL0     C 4557   5.462   0.569   5.259 -0.0276  0.2010 -0.5893
  775MOL0     H 4558   5.935   0.709   5.613 -0.6257 -1.2262 -1.1966
  775MOL0     H 4559   6.164   0.739   5.581 -1.2217 -1.6426 -0.5012
  775MOL0     H 4560   6.302   0.873   5.183  1.5554 -0.4087 -1.4259
  775MOL0     H 4561   6.297   1.040   5.235  0.5096 -0.5229 -1.5517
  775MOL0     H 4562   6.528   0.981   5.168 -1.8775  2.4417  0.9610
  775MOL0     H 4563   6.523   0.831   5.245 -0.1120  0.6835 -0.6500
  775MOL0     H 4564   6.511   0.986   5.470 -1.3314 -2.3344 -0.4765
  775MOL0     H 4565   6.518   1.124   5.356 -1.6701  0.2793  1.1535
  775MOL0     H 4566   6.720   0.909   5.391 -2.2109 -2.0896 -1.0999
  775MOL0     H 4567   6.736   1.026   5.256  0.5446 -1.2605  1.0833
  775MOL0     H 4568   6.715   1.196   5.450 -0.4264 -0.4559 -0.2549
  775MOL0     H 4569   6.751   1.051   5.551  4.8881 -0.2157  0.4226
  775MOL0     H 4570   6.961   1.025   5.453 -0.8875 -0.1323  1.2680
  775MOL0     H 4571   6.936   1.178   5.357 -1.0850  2.4591  0.8128
  775MOL0     H 4572   6.937   1.158   5.653 -1.1058  1.8768 -0.1766
  775MOL0     H 4573   6.920   1.309   5.563 -0.2503  1.4623  1.6873
  775MOL0     H 4574   7.159   1.123   5.525  2.3214  1.6042 -2.4049
  775MOL0     H 4575   7.131   1.281   5.448 -1.2554  2.6894  0.6081
  775MOL0     H 4576   7.116   1.492   5.690 -2.2637 -0.7201  2.4237
  775MOL0     H 4577   7.367   1.625   5.762 -1.5341  0.1013 -0.2530
  775MOL0     H 4578   7.265   1.597   5.903  0.1235  0.3735  0.3834
  775MOL0     H 4579   7.463   1.497   6.018  2.0339  2.9180  2.3163
  775MOL0     H 4580   7.546   1.480   5.861  0.1808  0.3879 -1.0680
  775MOL0     H 4581   7.491   1.739   6.023  0.4770 -0.1406  2.2967
  775MOL0     H 4582   7.549   1.741   5.863  1.3981  0.4888 -0.6030
  775MOL0     H 4583   7.735   1.572   5.961 -0.5352 -0.7050  1.2907
  775MOL0     H 4584   7.678   1.625   6.119  4.4298 -0.9611  0.4278
  775MOL0     H 4585   7.928   1.959   5.936  1.0705 -0.2874 -2.4827
  775MOL0     H 4586   8.170   1.970   5.978 -0.6781 -1.3417 -0.6114
  775MOL0     H 4587   8.529   1.957   5.952 -0.4151 -1.1576  0.2065
  775MOL0     H 4588   8.783   1.960   5.970  2.0341 -2.5424  0.6724
  775MOL0     H 4589   8.974   2.039   6.321  0.2708  1.4373  0.3665
  775MOL0     H 4590   8.976   1.858   6.341  0.4283  0.2875  0.1864
  775MOL0     H 4591   9.163   1.867   6.161 -0.2534  0.2193 -1.0243
  775MOL0     H 4592   9.153   2.038   6.167 -0.0543  0.4658  1.5003
  775MOL0     H 4593   9.332   1.984   6.307 -1.3409  1.0544 -2.6354
  775MOL0     H 4594   9.214   2.029   6.425 -0.4528 -0.1161 -0.3138
  775MOL0     H 4595   9.317   1.759   6.351  3.4676  1.6897  1.6646
  775MOL0     H 4596   9.172   1.759   6.456 -0.8477  1.4009  2.1616
  775MOL0     H 4597   9.432   1.918   6.519  2.3564 -0.5516  2.4853
  775MOL0     H 4598   9.419   1.758   6.580  2.5526  2.8725  1.9825
  775MOL0     H 4599   9.230   1.978   6.640  0.4682 -0.3995 -0.6602
  775MOL0     H 4600   9.210   1.810   6.713  2.7046 -1.4120  2.0714
  775MOL0     H 4601   9.423   2.017   6.741  0.2857  1.0856  1.0778
  775MOL0     H 4602   9.464   1.853   6.800 -0.1444 -0.8967  0.7245
  775MOL0     H 4603   9.258   2.051   6.919  2.0247  0.7188  2.6652
  775MOL0     H 4604   9.238   1.876   6.934  0.7599 -0.9550 -0.7571
  775MOL0     H 4605   8.737   1.901   6.392 -1.5675 -2.4249  0.3659
  775MOL0     H 4606   8.519   1.882   6.382  2.3424 -1.4638  0.0651
  775MOL0     H 4607   8.141   1.597   6.192 -0.2232  1.2037  0.4975
  775MOL0     H 4608   7.916   1.568   6.126  0.3650  0.2724  0.6287
  775MOL0     H 4609   6.078   1.005   5.237  0.6298 -1.2590 -1.4416
  775MOL0     H 4610   5.843   0.960   5.288  2.8949  0.4662 -1.7658
  775MOL0     H 4611   5.546   0.868   5.625 -0.7087 -1.0663  1.2607
  775MOL0     H 4612   5.305   0.885   5.658 -0.1206  0.6901 -0.5879
  775MOL0     H 4613   5.057   0.581   5.484 -1.1766  0.4755 -0.3357
  775MOL0     H 4614   5.011   0.722   5.390  0.2395  1.9542  0.6035
  775MOL0     H 4615   4.879   0.798   5.605  3.3733  1.0486 -2.5198
  775MOL0     H 4616   4.918   0.642   5.671  1.4217  0.4535  0.6482
  775MOL0     H 4617   4.813   0.544   5.460  2.2986  2.4577 -1.8758
  775MOL0     H 4618   4.757   0.701   5.420  1.8408  0.1261 -0.4818
  775MOL0     H 4619   4.604   0.519   5.543  2.1706 -1.7321 -0.3951
  775MOL0     H 4620   4.701   0.553   5.687 -0.9054  0.8012  1.0884
  775MOL0     H 4621   4.456   0.844   5.758  1.5763  1.7641  0.6120
  775MOL0     H 4622   5.231   0.624   5.334 -0.9974  0.6371 -1.1939
  775MOL0     H 4623   5.473   0.629   5.168  0.6109  2.6277  0.9763
  775MOL0     H 4624   5.557   0.515   5.267 -1.2109 -2.2317 -1.8921
  775MOL0     H 4625   5.381   0.498   5.245  0.3657 -0.4197  0.1890
  776MOL0     O 4626   9.101   8.588   9.712  0.2885 -0.4623  0.0481
  776MOL0     C 4627   9.111   8.470   9.701  0.1138  0.6148  0.0902
  776MOL0     O 4628   9.219   8.397   9.740  0.2201 -0.4427  0.1997
  776MOL0     C 4629   9.346   8.457   9.759  0.2134  0.1461 -0.0236
  776MOL0     C 4630   9.459   8.387   9.705  0.6482 -0.5158 -0.0850
  776MOL0     C 4631   9.589   8.439   9.719 -1.0390 -0.0904  0.8385
  776MOL0     C 4632   9.613   8.542   9.798 -1.1108 -0.6202 -0.1038
  776MOL0     O 4633   9.743   8.588   9.803  0.3826 -1.2256 -0.0613
  776MOL0     C 4634   9.782   8.639   9.937  0.4750  0.4482  0.4005
  776MOL0     C 4635   9.937   8.652   9.945  0.8063  0.3571 -0.8495
  776MOL0     C 4636  10.001   8.751   9.855  0.4244  0.1090 -0.3285
  776MOL0     C 4637  10.148   8.724   9.830 -0.8293  0.4652  0.1209
  776MOL0     C 4638  10.224   8.737   9.957  0.2004 -0.3286 -0.1188
  776MOL0     C 4639  10.370   8.714   9.939  0.1380 -0.0964  0.6505
  776MOL0     C 4640  10.400   8.561   9.912 -0.0982 -0.2582  0.7303
  776MOL0     C 4641  10.547   8.525   9.894 -0.3063  0.0476  0.2354
  776MOL0     N 4642  10.617   8.559  10.017 -0.1840  0.4982 -0.3758
  776MOL0     C 4643  10.726   8.641  10.021  0.1552  0.8016 -0.0519
  776MOL0     C 4644  10.746   8.656  10.157  0.1120 -0.9461 -1.1952
  776MOL0     C 4645  10.851   8.739  10.232 -0.7206 -0.2911  0.8661
  776MOL0     C 4646  10.933   8.670  10.351  0.3537  0.1691  0.2715
  776MOL0     C 4647  10.969   8.524  10.325 -0.1993  0.7821  0.5845
  776MOL0     C 4648  11.012   8.450  10.455 -0.3844  0.0663 -0.0420
  776MOL0     O 4649  11.146   8.481  10.484 -0.4512 -0.8048 -0.0027
  776MOL0     C 4650  11.246   8.433  10.403  0.7187  0.2941 -0.1087
  776MOL0     C 4651  11.373   8.493  10.419  0.3134 -0.6683  0.0373
  776MOL0     C 4652  11.483   8.443  10.344 -0.2395  0.6360 -0.0939
  776MOL0     C 4653  11.465   8.342  10.249  0.0196 -0.7043 -0.8079
  776MOL0     C 4654  11.579   8.295  10.165 -0.6033  0.5022  0.3058
  776MOL0     O 4655  11.697   8.351  10.185  0.2900  0.1550  0.0647
  776MOL0     C 4656  11.801   8.309  10.118  0.2039 -0.4617 -0.3548
  776MOL0     C 4657  11.894   8.250  10.199 -0.2688  0.1908  0.1031
  776MOL0     C 4658  12.012   8.183  10.159 -0.0975 -1.1966  0.8748
  776MOL0     C 4659  12.039   8.186  10.020 -0.5628  0.7538 -0.1900
  776MOL0     O 4660  12.167   8.155   9.971  0.6313  0.3313 -0.2942
  776MOL0     C 4661  12.192   8.174   9.832  0.0041  0.3213  0.3296
  776MOL0     C 4662  12.340   8.163   9.798  0.0319  0.4974 -0.1206
  776MOL0     C 4663  12.408   8.036   9.826 -0.0823  0.1859  0.3105
  776MOL0     C 4664  12.556   8.048   9.839 -0.1276 -0.5380 -0.0520
  776MOL0     C 4665  12.621   7.904   9.851 -0.0351  0.5830 -0.6778
  776MOL0     C 4666  12.771   7.911   9.832  0.3816 -0.0680 -0.1107
  776MOL0     C 4667  12.828   7.992   9.955 -0.4844  0.1437  0.7465
  776MOL0     C 4668  12.988   8.001   9.952 -0.4243 -0.0294 -0.1318
  776MOL0    Cl 4669  13.027   8.112   9.819 -0.1809 -0.1915  0.2479
  776MOL0     C 4670  11.933   8.239   9.935  0.3988 -0.2784  0.1906
  776MOL0     C 4671  11.820   8.309   9.979  0.2230 -0.0143 -0.7548
  776MOL0     O 4672  11.553   8.198  10.089 -0.2193  0.2483  0.1670
  776MOL0     C 4673  11.334   8.295  10.220 -0.0579  0.4492  1.4163
  776MOL0     C 4674  11.227   8.339  10.294  0.7124  0.3188 -0.0766
  776MOL0     N 4675  10.648   8.587  10.232  0.3600  0.6786 -0.1894
  776MOL0     N 4676  10.575   8.526  10.139  0.3175  0.2166 -0.5660
  776MOL0     C 4677   9.510   8.615   9.857 -0.2021 -0.2313 -0.0750
  776MOL0     C 4678   9.378   8.566   9.842  0.4710 -0.8055 -0.8980
  776MOL0     C 4679   9.000   8.381   9.655 -0.0997 -0.1502  0.3634
  776MOL0     C 4680   9.025   8.245   9.634  0.3574  0.1137  0.0013
  776MOL0     C 4681   8.925   8.163   9.586  0.6197 -0.3742 -0.6202
  776MOL0     C 4682   8.794   8.217   9.560 -0.2401  1.4763  0.3041
  776MOL0     O 4683   8.698   8.119   9.542 -0.2640  0.7873  0.2891
  776MOL0     C 4684   8.729   7.983   9.502  0.4848  0.0018  1.1019
  776MOL0     C 4685   8.608   7.914   9.436  0.0149  0.3685  0.2659
  776MOL0     C 4686   8.484   7.946   9.514  0.0554  0.2414  0.4354
  776MOL0     C 4687   8.365   7.869   9.454 -0.1826  0.3282 -0.2684
  776MOL0     C 4688   8.259   7.877   9.550  0.5680  0.7962  1.1940
  776MOL0     C 4689   8.155   7.884   9.609  0.3058  0.5051 -0.3202
  776MOL0     C 4690   8.770   8.348   9.577 -0.3521 -0.8673  0.0193
  776MOL0     C 4691   8.872   8.438   9.622  0.4085 -1.1608  0.5580
  776MOL0     C 4692   8.832   8.584   9.630 -0.1597  0.5368  0.5479
  776MOL0     H 4693   9.454   8.296   9.647 -2.0762  0.0466 -0.8731
  776MOL0     H 4694   9.665   8.395   9.656 -1.8104  0.0684 -0.2163
  776MOL0     H 4695   9.727   8.731   9.959 -0.0784  0.6817 -1.6875
  776MOL0     H 4696   9.762   8.555  10.004  0.1366 -0.6625 -1.0403
  776MOL0     H 4697   9.980   8.554   9.925  0.2404 -0.1867  0.4591
  776MOL0     H 4698   9.961   8.662  10.051  1.8478  0.8512 -1.1186
  776MOL0     H 4699   9.998   8.852   9.898  0.9445 -0.3461  0.8385
  776MOL0     H 4700   9.947   8.756   9.760  0.5002 -2.5001 -0.5890
  776MOL0     H 4701  10.164   8.624   9.787 -2.6945  0.5470 -0.8938
  776MOL0     H 4702  10.190   8.778   9.744 -0.0386 -2.9148 -1.8270
  776MOL0     H 4703  10.204   8.838   9.995 -3.0655 -0.0235 -2.2174
  776MOL0     H 4704  10.193   8.665  10.032 -1.0498  0.7697  0.4740
  776MOL0     H 4705  10.405   8.778   9.858 -3.1602  0.5022 -0.4898
  776MOL0     H 4706  10.431   8.749  10.022  1.9198  0.9341 -1.0308
  776MOL0     H 4707  10.355   8.517   9.823  2.1453  0.1433 -0.6640
  776MOL0     H 4708  10.373   8.505  10.002 -0.5207  1.4376  1.7009
  776MOL0     H 4709  10.550   8.416   9.892  1.0792  0.0702  0.5354
  776MOL0     H 4710  10.572   8.573   9.799  0.2304 -1.7404 -0.5766
  776MOL0     H 4711  10.780   8.689   9.940 -1.3920  0.8079 -1.1382
  776MOL0     H 4712  10.911   8.777  10.149 -2.7532  0.0737 -0.5204
  776MOL0     H 4713  10.798   8.823  10.277  0.6629 -0.7921  3.6153
  776MOL0     H 4714  11.008   8.742  10.386 -1.0403  1.1717  1.2809
  776MOL0     H 4715  10.864   8.668  10.436  0.3843  1.0270  0.3216
  776MOL0     H 4716  11.043   8.515  10.245 -0.3151  0.3456  0.5221
  776MOL0     H 4717  10.884   8.469  10.283  2.8669 -0.7401 -4.6315
  776MOL0     H 4718  11.005   8.342  10.440 -1.1912  0.3671 -2.2704
  776MOL0     H 4719  10.961   8.482  10.546  1.9398  0.0288  1.3595
  776MOL0     H 4720  11.392   8.574  10.489  0.9242  0.6172 -1.5430
  776MOL0     H 4721  11.573   8.493  10.376  0.6121 -2.7432  3.4447
  776MOL0     H 4722  11.870   8.258  10.305 -1.9874 -0.3012 -0.2229
  776MOL0     H 4723  12.073   8.136  10.236  1.1399  0.6563  1.0815
  776MOL0     H 4724  12.140   8.094   9.777 -0.7853  1.7535 -1.0883
  776MOL0     H 4725  12.169   8.273   9.793  0.0922 -0.0727 -0.7796
  776MOL0     H 4726  12.360   8.180   9.691  0.8692 -2.1850 -0.4750
  776MOL0     H 4727  12.396   8.244   9.847  1.7007 -1.2420  0.9828
  776MOL0     H 4728  12.346   7.996   9.907  0.6710 -1.8540 -0.0705
  776MOL0     H 4729  12.396   7.973   9.738 -0.5797  1.7012 -0.7388
  776MOL0     H 4730  12.574   8.122   9.918 -0.6001  0.4467 -0.8433
  776MOL0     H 4731  12.598   8.090   9.747 -2.3145 -0.6107 -1.1416
  776MOL0     H 4732  12.578   7.834   9.778 -2.0351  1.6281 -0.5783
  776MOL0     H 4733  12.606   7.872   9.955 -1.5371 -1.0433 -1.3310
  776MOL0     H 4734  12.817   7.811   9.830  2.0700  0.6685 -0.0452
  776MOL0     H 4735  12.806   7.967   9.745  2.2622 -1.3834 -0.2628
  776MOL0     H 4736  12.798   7.946  10.050  1.2158 -0.0963  1.2023
  776MOL0     H 4737  12.789   8.095   9.951 -1.3039 -0.1851  0.0564
  776MOL0     H 4738  13.020   8.037  10.050  2.4744 -2.2118 -0.1451
  776MOL0     H 4739  13.037   7.905   9.933  0.5013 -0.0513  2.1256
  776MOL0     H 4740  11.946   8.219   9.829  1.4227 -1.0314  0.4407
  776MOL0     H 4741  11.743   8.353   9.916 -1.1714  0.8849  1.4574
  776MOL0     H 4742  11.318   8.224  10.138  1.0821  0.8489  0.8200
  776MOL0     H 4743  11.131   8.296  10.263  0.1634  0.8886  0.8032
  776MOL0     H 4744   9.533   8.698   9.924 -0.4903 -0.7176  0.6325
  776MOL0     H 4745   9.290   8.623   9.869  0.3990 -1.2304 -0.2045
  776MOL0     H 4746   9.121   8.209   9.670  2.3567  1.8753 -3.1012
  776MOL0     H 4747   8.945   8.056   9.581 -0.4577 -0.5511 -1.5934
  776MOL0     H 4748   8.770   7.914   9.577 -0.2647 -2.0625 -0.3184
  776MOL0     H 4749   8.806   7.996   9.426 -0.2415 -1.0087  0.1660
  776MOL0     H 4750   8.619   7.805   9.435 -2.8276  0.0054  0.5679
  776MOL0     H 4751   8.600   7.955   9.335  1.7009  1.5085  0.5507
  776MOL0     H 4752   8.456   8.051   9.520 -3.7740 -0.5700 -0.3078
  776MOL0     H 4753   8.485   7.913   9.618 -0.9759  0.3426  0.4911
  776MOL0     H 4754   8.332   7.906   9.357  0.9258  0.5300 -0.5814
  776MOL0     H 4755   8.379   7.761   9.443 -1.2836  0.3155 -1.7777
  776MOL0     H 4756   8.066   7.894   9.666  0.9871 -1.2954  1.1441
  776MOL0     H 4757   8.669   8.375   9.548 -0.6746 -1.6658  0.3841
  776MOL0     H 4758   8.885   8.651   9.562  1.8913 -1.2974  0.2134
  776MOL0     H 4759   8.726   8.596   9.607 -1.0860  0.9886  4.3342
  776MOL0     H 4760   8.844   8.603   9.737  1.5106 -2.6919  1.0577
  777MOL0     O 4761   2.732   5.096   1.567  0.1099  0.7100  0.1942
  777MOL0     C 4762   2.651   5.017   1.615  0.4065 -1.0306  0.5300
  777MOL0     O 4763   2.667   4.890   1.649 -0.3084  0.8826 -0.5890
  777MOL0     C 4764   2.794   4.829   1.659 -0.5394  0.9760 -0.1612
  777MOL0     C 4765   2.828   4.761   1.783  0.1207  0.5612 -0.3182
  777MOL0     C 4766   2.945   4.697   1.802 -0.3911 -0.0053 -0.0192
  777MOL0     C 4767   3.038   4.691   1.691  0.1191 -0.1639  0.8183
  777MOL0     O 4768   3.160   4.633   1.719  0.5869 -0.3085  0.2874
  777MOL0     C 4769   3.264   4.703   1.654 -0.1810  1.0744 -0.8824
  777MOL0     C 4770   3.401   4.636   1.683 -0.3222  0.6080 -0.1857
  777MOL0     C 4771   3.513   4.718   1.637 -0.4892 -0.0776 -0.4525
  777MOL0     C 4772   3.650   4.662   1.669 -0.1953 -0.3217  0.0817
  777MOL0     C 4773   3.762   4.759   1.610  0.1745  0.0978 -0.6462
  777MOL0     C 4774   3.890   4.677   1.616 -0.6364 -0.0606  0.7054
  777MOL0     C 4775   3.995   4.756   1.531  0.1484 -0.0332  0.1026
  777MOL0     C 4776   4.138   4.737   1.583  0.1746  0.4802  0.6912
  777MOL0     N 4777   4.222   4.809   1.491 -0.2845 -0.5453  1.1183
  777MOL0     C 4778   4.257   4.942   1.510  0.2115 -0.3248 -0.2256
  777MOL0     C 4779   4.316   4.987   1.393  0.2716  0.7444 -0.4805
  777MOL0     C 4780   4.374   5.126   1.357  0.0479 -0.1578 -0.3401
  777MOL0     C 4781   4.517   5.134   1.299  0.5414  0.0060 -0.1011
  777MOL0     C 4782   4.616   5.052   1.377 -0.6511  1.4610  0.2725
  777MOL0     C 4783   4.762   5.088   1.356 -1.0173  0.6401 -0.9252
  777MOL0     O 4784   4.833   5.011   1.461 -0.0731  0.6893  0.2595
  777MOL0     C 4785   4.972   5.012   1.448 -0.3062 -0.0269 -0.7714
  777MOL0     C 4786   5.044   5.032   1.323 -0.7663  0.4228  0.0515
  777MOL0     C 4787   5.186   5.051   1.326  0.4983 -0.4367 -0.1935
  777MOL0     C 4788   5.256   5.040   1.450  0.4763  0.6096 -0.3225
  777MOL0     C 4789   5.391   5.081   1.453  0.4666 -0.1442  0.0670
  777MOL0     O 4790   5.434   5.165   1.352  0.9713 -0.0134 -0.2073
  777MOL0     C 4791   5.570   5.188   1.351  1.1132  0.2084  0.6646
  777MOL0     C 4792   5.639   5.276   1.437  0.1590 -0.1224 -0.4379
  777MOL0     C 4793   5.774   5.282   1.432 -0.1257  0.1059  0.2321
  777MOL0     C 4794   5.851   5.204   1.345 -0.4894  1.2149  0.0988
  777MOL0     O 4795   5.987   5.197   1.365  0.3800 -0.5715  0.0356
  777MOL0     C 4796   6.055   5.289   1.446 -0.2078  0.1028  0.2195
  777MOL0     C 4797   6.200   5.245   1.442 -0.1731 -0.4836 -0.1762
  777MOL0     C 4798   6.253   5.254   1.295 -1.0476  1.1666 -0.2822
  777MOL0     C 4799   6.406   5.250   1.294 -0.2037 -0.2307  0.0020
  777MOL0     C 4800   6.453   5.264   1.149 -0.6991  1.2303  0.1419
  777MOL0     C 4801   6.607   5.295   1.152  0.0013  0.2139 -0.7957
  777MOL0     C 4802   6.649   5.367   1.027  0.2258  0.0503 -0.4999
  777MOL0     C 4803   6.810   5.378   1.035  0.3330 -0.1489  0.8833
  777MOL0    Cl 4804   6.873   5.429   0.887  0.1205 -0.0296  0.0726
  777MOL0     C 4805   5.786   5.113   1.258 -1.4346 -0.4237  1.1297
  777MOL0     C 4806   5.651   5.106   1.262  0.3089 -0.1667  0.0471
  777MOL0     O 4807   5.456   5.046   1.548  0.1265 -0.5269 -0.3368
  777MOL0     C 4808   5.192   5.013   1.567 -0.1376  0.0632  0.0997
  777MOL0     C 4809   5.048   5.007   1.568 -0.7796  0.4966  0.3279
  777MOL0     N 4810   4.325   4.879   1.310 -0.3045  0.1425  0.1897
  777MOL0     N 4811   4.279   4.770   1.371  0.0125 -0.2622  0.1297
  777MOL0     C 4812   3.002   4.751   1.565 -0.7649 -1.3863 -0.0878
  777MOL0     C 4813   2.886   4.827   1.559  0.1275 -0.5547 -0.4338
  777MOL0     C 4814   2.512   5.070   1.620  0.3739  0.3527  0.2459
  777MOL0     C 4815   2.419   5.003   1.703  0.2216  0.5792 -0.4689
  777MOL0     C 4816   2.292   5.046   1.719  0.4638 -0.7345 -0.3116
  777MOL0     C 4817   2.243   5.164   1.648 -0.2374  0.1280  0.0494
  777MOL0     O 4818   2.128   5.218   1.693 -0.3945  0.4118 -0.8123
  777MOL0     C 4819   2.077   5.336   1.639 -0.1608  0.0130  0.3424
  777MOL0     C 4820   1.963   5.389   1.709  0.9821 -0.3098 -0.6911
  777MOL0     C 4821   1.993   5.475   1.835  0.4516 -0.0630  0.6288
  777MOL0     C 4822   1.898   5.450   1.961 -0.9750 -0.6669  0.6191
  777MOL0     C 4823   1.757   5.486   1.939  0.4677 -0.3824  0.1014
  777MOL0     C 4824   1.645   5.515   1.907  0.4256  1.1794 -0.4331
  777MOL0     C 4825   2.332   5.215   1.549  0.0932 -0.5198  0.1018
  777MOL0     C 4826   2.459   5.170   1.530 -0.1326  0.1888  0.1729
  777MOL0     C 4827   2.548   5.229   1.409  0.1090 -0.4393  0.1612
  777MOL0     H 4828   2.755   4.750   1.863  0.5984 -2.3178 -0.1667
  777MOL0     H 4829   2.989   4.650   1.889  1.0784  0.2521 -0.5885
  777MOL0     H 4830   3.255   4.704   1.545 -2.2633  1.1212 -0.7526
  777MOL0     H 4831   3.258   4.806   1.691 -3.4201 -0.3120  3.2490
  777MOL0     H 4832   3.408   4.536   1.641 -0.8908  0.3244  0.3676
  777MOL0     H 4833   3.408   4.617   1.791  0.3852  0.6525 -0.2251
  777MOL0     H 4834   3.506   4.814   1.690 -0.1867 -1.7611  2.8282
  777MOL0     H 4835   3.509   4.729   1.528  1.2776 -1.2599 -0.6743
  777MOL0     H 4836   3.658   4.659   1.778  0.7750 -0.4125  0.0152
  777MOL0     H 4837   3.659   4.563   1.623  3.9496  0.9322 -2.3701
  777MOL0     H 4838   3.751   4.797   1.508 -1.6981  0.8344 -0.2041
  777MOL0     H 4839   3.768   4.847   1.675  1.3788 -0.7929  0.4996
  777MOL0     H 4840   3.923   4.666   1.720  1.0829 -0.7234  0.1338
  777MOL0     H 4841   3.882   4.577   1.572 -1.3290 -0.7013  2.2107
  777MOL0     H 4842   3.970   4.863   1.534  0.0303  0.0094 -1.5344
  777MOL0     H 4843   3.993   4.724   1.427 -2.4480  0.1062  0.0642
  777MOL0     H 4844   4.164   4.773   1.682  4.3393 -3.1272  1.2295
  777MOL0     H 4845   4.162   4.631   1.596 -1.5166  0.1485  1.3968
  777MOL0     H 4846   4.240   5.002   1.598  1.3109 -2.0261  1.2065
  777MOL0     H 4847   4.311   5.187   1.292 -1.1664  0.2222  1.1479
  777MOL0     H 4848   4.370   5.174   1.455  1.6201  0.2983 -0.4690
  777MOL0     H 4849   4.522   5.093   1.197 -0.4237  3.3985 -1.6347
  777MOL0     H 4850   4.546   5.238   1.311  1.6388 -0.3717  0.7228
  777MOL0     H 4851   4.605   4.945   1.354 -3.0076  1.5007  0.8939
  777MOL0     H 4852   4.597   5.070   1.483 -1.6516  0.2984  0.3179
  777MOL0     H 4853   4.769   5.195   1.377 -2.0559  0.7083 -0.8953
  777MOL0     H 4854   4.794   5.074   1.252  3.0804  0.6185  0.1411
  777MOL0     H 4855   5.000   5.037   1.224  0.1133 -2.9991 -0.6369
  777MOL0     H 4856   5.235   5.071   1.232  0.7336  0.0974  0.0438
  777MOL0     H 4857   5.582   5.335   1.507 -0.2438 -1.9149  0.8266
  777MOL0     H 4858   5.832   5.344   1.499 -0.5316 -0.1041  0.7943
  777MOL0     H 4859   6.056   5.394   1.416 -1.1577 -0.0995 -0.5806
  777MOL0     H 4860   6.015   5.271   1.546 -0.9248 -1.3739 -0.2964
  777MOL0     H 4861   6.251   5.309   1.514 -0.3540 -2.2226  1.5764
  777MOL0     H 4862   6.209   5.140   1.471 -0.8565 -0.1852  1.2130
  777MOL0     H 4863   6.222   5.163   1.243 -1.4634  0.2191  1.5651
  777MOL0     H 4864   6.214   5.343   1.245  2.3336  2.7868 -0.3597
  777MOL0     H 4865   6.440   5.155   1.338  3.7042  1.2081  0.4203
  777MOL0     H 4866   6.449   5.325   1.361  3.4160 -0.7543 -1.5438
  777MOL0     H 4867   6.409   5.348   1.095 -0.0316  0.5655 -1.5256
  777MOL0     H 4868   6.435   5.171   1.094 -1.0271  0.3438  1.6855
  777MOL0     H 4869   6.634   5.361   1.235  0.6403 -2.4298  1.2216
  777MOL0     H 4870   6.663   5.202   1.163 -2.5768 -1.2342  1.1478
  777MOL0     H 4871   6.607   5.466   1.008 -1.6579 -1.1594 -3.3500
  777MOL0     H 4872   6.617   5.309   0.940 -0.8499  2.2394 -1.6375
  777MOL0     H 4873   6.835   5.458   1.105  0.1693  1.3846 -0.7420
  777MOL0     H 4874   6.848   5.279   1.062  2.3965  0.5844  0.8044
  777MOL0     H 4875   5.846   5.052   1.192  0.5390  0.0058  2.4315
  777MOL0     H 4876   5.606   5.038   1.190  1.5105 -0.4678 -0.4476
  777MOL0     H 4877   5.257   5.018   1.654  1.6922  0.3817 -1.2399
  777MOL0     H 4878   5.005   4.993   1.666  1.5954 -0.3178  1.3381
  777MOL0     H 4879   3.063   4.734   1.477  3.1614  0.7696  1.9201
  777MOL0     H 4880   2.863   4.872   1.463  0.2645  1.0293  0.2519
  777MOL0     H 4881   2.456   4.918   1.760  1.0365  0.6174 -0.9351
  777MOL0     H 4882   2.232   5.000   1.797 -1.5882  0.2181 -1.2289
  777MOL0     H 4883   2.055   5.320   1.533  0.4777  0.0944  0.1949
  777MOL0     H 4884   2.154   5.411   1.653 -2.1869  1.9010  2.1608
  777MOL0     H 4885   1.889   5.317   1.744  1.6774 -0.2175  1.0820
  777MOL0     H 4886   1.911   5.456   1.640 -1.1216 -0.3908  0.7223
  777MOL0     H 4887   1.983   5.577   1.798 -1.4716 -1.2742 -2.6132
  777MOL0     H 4888   2.097   5.456   1.862  1.7168  1.9457 -2.3487
  777MOL0     H 4889   1.903   5.343   1.986  2.1029 -0.5568  0.8274
  777MOL0     H 4890   1.932   5.502   2.050  0.4997  0.5549 -0.6078
  777MOL0     H 4891   1.544   5.532   1.874 -0.4636 -1.6032  0.5787
  777MOL0     H 4892   2.298   5.303   1.495  1.9537 -0.1774 -0.5852
  777MOL0     H 4893   2.493   5.300   1.347  0.3365 -0.7283 -0.3744
  777MOL0     H 4894   2.635   5.280   1.453  1.4508 -1.0616 -1.6314
  777MOL0     H 4895   2.582   5.151   1.341 -1.5274 -0.3028 -0.8620
  778MOL0     O 4896   7.435   5.108   5.409  0.3359  0.1658  0.0684
  778MOL0     C 4897   7.421   5.112   5.287 -0.4189  1.0132  1.0730
  778MOL0     O 4898   7.529   5.106   5.207  0.1874 -0.5185 -0.0253
  778MOL0     C 4899   7.657   5.117   5.255  0.5919  0.3154  0.5475
  778MOL0     C 4900   7.704   5.245   5.260 -0.2295 -0.6322  0.2889
  778MOL0     C 4901   7.835   5.266   5.297  0.1689 -1.3372  0.2178
  778MOL0     C 4902   7.919   5.161   5.319 -0.0184  1.6378 -0.6890
  778MOL0     O 4903   8.042   5.194   5.360 -0.2122  0.0895  0.6042
  778MOL0     C 4904   8.142   5.091   5.349  0.5050 -0.1022  0.7143
  778MOL0     C 4905   8.272   5.160   5.311  0.8655 -0.5970 -0.2362
  778MOL0     C 4906   8.370   5.181   5.431 -0.5336 -0.0956  0.0195
  778MOL0     C 4907   8.513   5.189   5.386 -0.9765 -0.1854  0.1832
  778MOL0     C 4908   8.596   5.224   5.504  0.2546 -0.4714  0.7397
  778MOL0     C 4909   8.749   5.227   5.484 -0.4034  0.2957  0.1362
  778MOL0     C 4910   8.827   5.261   5.610  0.5074  0.4615  0.3107
  778MOL0     C 4911   8.972   5.254   5.603 -1.3544 -0.5576  0.3164
  778MOL0     N 4912   9.021   5.376   5.530 -0.7124  0.0293 -0.0064
  778MOL0     C 4913   9.029   5.504   5.588  0.3079  0.6427  0.7479
  778MOL0     C 4914   9.089   5.589   5.487  0.6119 -0.3980 -0.5535
  778MOL0     C 4915   9.130   5.735   5.487  0.0225 -0.1895 -0.3681
  778MOL0     C 4916   9.212   5.767   5.611 -0.1131  1.0891  0.2270
  778MOL0     C 4917   9.353   5.691   5.615  0.0847 -0.3416  0.8045
  778MOL0     C 4918   9.451   5.755   5.717  0.8452  0.2786  0.3341
  778MOL0     O 4919   9.510   5.877   5.669  0.1696  0.0646 -0.1990
  778MOL0     C 4920   9.610   5.939   5.753  0.8461 -0.1632  0.6793
  778MOL0     C 4921   9.635   6.071   5.712  0.3347 -0.5249 -0.0717
  778MOL0     C 4922   9.722   6.147   5.784  0.2044 -0.3533  0.3372
  778MOL0     C 4923   9.784   6.102   5.899 -1.5645  0.0835  0.4272
  778MOL0     C 4924   9.889   6.187   5.966  0.2911  0.4265  0.3573
  778MOL0     O 4925   9.946   6.297   5.900  1.2534  0.0965  0.6878
  778MOL0     C 4926  10.015   6.386   5.971 -0.6334  0.2156 -1.4404
  778MOL0     C 4927   9.966   6.460   6.091 -0.4091  0.3450  1.2952
  778MOL0     C 4928  10.043   6.551   6.163  0.1774  0.3246 -0.2220
  778MOL0     C 4929  10.170   6.575   6.110 -0.6373 -0.0224  0.5628
  778MOL0     O 4930  10.259   6.670   6.155 -0.0962  0.0571 -0.6496
  778MOL0     C 4931  10.200   6.763   6.249 -0.8751  0.3226 -0.0836
  778MOL0     C 4932  10.313   6.874   6.248  0.5251  0.4778  0.0437
  778MOL0     C 4933  10.276   6.981   6.361  0.6190  0.3589 -0.0784
  778MOL0     C 4934  10.348   7.108   6.326 -0.7244  0.1210  0.2802
  778MOL0     C 4935  10.357   7.213   6.433  1.1928 -0.4050 -0.6004
  778MOL0     C 4936  10.468   7.168   6.539 -0.3374 -0.3183  0.7793
  778MOL0     C 4937  10.486   7.277   6.648 -0.1350 -0.4564  0.8426
  778MOL0     C 4938  10.355   7.335   6.700 -0.5056 -0.5809 -0.0481
  778MOL0    Cl 4939  10.271   7.191   6.787 -0.4550 -0.2910 -0.0325
  778MOL0     C 4940  10.212   6.513   5.994  0.4666  0.2555 -0.0480
  778MOL0     C 4941  10.138   6.426   5.921  0.2485  0.0060 -0.2616
  778MOL0     O 4942   9.925   6.153   6.077  0.0953 -0.4668 -0.1176
  778MOL0     C 4943   9.770   5.970   5.933  0.8294 -0.4693  0.0437
  778MOL0     C 4944   9.675   5.891   5.867  0.6983  1.2320  0.2057
  778MOL0     N 4945   9.109   5.510   5.373 -0.0142  0.0297 -0.5838
  778MOL0     N 4946   9.064   5.390   5.404 -0.3026 -0.0568  0.0996
  778MOL0     C 4947   7.878   5.032   5.309  0.1280 -0.4941 -0.2150
  778MOL0     C 4948   7.741   5.006   5.284 -0.1917 -0.4445 -0.5911
  778MOL0     C 4949   7.288   5.101   5.225  0.5504 -0.3441 -0.0690
  778MOL0     C 4950   7.280   5.102   5.082  0.8203 -0.9643  0.2232
  778MOL0     C 4951   7.150   5.079   5.030 -0.2209 -0.0441 -0.7240
  778MOL0     C 4952   7.037   5.058   5.107 -0.0581 -0.6832 -0.0458
  778MOL0     O 4953   6.919   5.025   5.042  0.3445  0.3019  0.5336
  778MOL0     C 4954   6.899   5.009   4.900  0.0629 -0.0055 -0.2557
  778MOL0     C 4955   6.757   4.977   4.878 -0.4663  0.5605  0.9272
  778MOL0     C 4956   6.663   5.075   4.946  0.4033  0.9994 -0.1900
  778MOL0     C 4957   6.536   5.084   4.876  0.4153  0.6119 -0.0707
  778MOL0     C 4958   6.464   4.956   4.889  0.8284 -0.0195 -0.1487
  778MOL0     C 4959   6.395   4.859   4.885 -0.5242  0.4549  0.4976
  778MOL0     C 4960   7.041   5.079   5.244  0.2077 -0.8104 -0.3771
  778MOL0     C 4961   7.160   5.099   5.305 -0.7133 -0.3184  0.6177
  778MOL0     C 4962   7.154   5.124   5.453 -0.2355 -0.1145  0.1280
  778MOL0     H 4963   7.645   5.333   5.237 -0.0883 -0.6435 -0.1284
  778MOL0     H 4964   7.875   5.366   5.311  0.0420 -1.2258 -0.1921
  778MOL0     H 4965   8.135   5.039   5.445  2.5795  0.6541  1.3275
  778MOL0     H 4966   8.130   5.021   5.267 -1.2991 -1.0077  1.6872
  778MOL0     H 4967   8.245   5.259   5.272  0.1228 -0.9920 -0.7340
  778MOL0     H 4968   8.325   5.109   5.230  0.4686  2.2000 -2.4092
  778MOL0     H 4969   8.351   5.092   5.492  1.8833 -1.5145 -1.1687
  778MOL0     H 4970   8.348   5.277   5.479  2.3458  1.4121 -1.4383
  778MOL0     H 4971   8.551   5.099   5.337  1.0626  1.0518 -0.6601
  778MOL0     H 4972   8.531   5.269   5.314  2.2339  0.5026  1.5505
  778MOL0     H 4973   8.561   5.320   5.545 -0.5394 -0.4815  0.1125
  778MOL0     H 4974   8.576   5.145   5.577 -1.0239 -1.8947 -1.0627
  778MOL0     H 4975   8.784   5.125   5.467 -1.2879 -0.4670  2.5027
  778MOL0     H 4976   8.786   5.293   5.405  0.4756 -0.4969 -0.1361
  778MOL0     H 4977   8.793   5.188   5.685 -5.5651  2.7132  0.3238
  778MOL0     H 4978   8.774   5.349   5.646 -1.9249 -0.6911 -0.2432
  778MOL0     H 4979   9.010   5.269   5.705 -0.1279  0.1138 -0.2101
  778MOL0     H 4980   9.003   5.155   5.567  1.4585 -0.4243  2.0406
  778MOL0     H 4981   8.981   5.540   5.679 -2.2346  0.6639 -0.5249
  778MOL0     H 4982   9.184   5.766   5.397 -1.6770  1.4869 -0.8904
  778MOL0     H 4983   9.034   5.787   5.479 -0.0472 -0.4518 -1.4283
  778MOL0     H 4984   9.240   5.872   5.621  1.5836  0.4559  3.4083
  778MOL0     H 4985   9.143   5.747   5.694  1.2816 -0.5573  1.0557
  778MOL0     H 4986   9.401   5.682   5.516  1.4181 -2.6832  1.5828
  778MOL0     H 4987   9.330   5.587   5.641 -0.4653 -0.5924 -0.5775
  778MOL0     H 4988   9.537   5.691   5.740  1.5769  1.4080  0.8488
  778MOL0     H 4989   9.392   5.781   5.806 -0.1526  2.0058 -0.7684
  778MOL0     H 4990   9.579   6.109   5.628 -3.9084 -1.3142  2.1090
  778MOL0     H 4991   9.743   6.248   5.747  0.9159 -1.0517 -1.2833
  778MOL0     H 4992   9.864   6.447   6.127  0.5006  2.0918  5.0263
  778MOL0     H 4993   9.997   6.595   6.251  0.1957 -1.7038  0.8670
  778MOL0     H 4994  10.112   6.810   6.205 -0.4330 -0.6155 -2.1012
  778MOL0     H 4995  10.181   6.730   6.351 -4.7233  0.5189 -0.5880
  778MOL0     H 4996  10.403   6.815   6.265 -1.4721 -2.3263  1.8379
  778MOL0     H 4997  10.305   6.918   6.148 -0.1259 -0.0097 -0.1288
  778MOL0     H 4998  10.168   6.999   6.357  0.4091 -0.5231  1.1190
  778MOL0     H 4999  10.296   6.942   6.461 -0.8023 -2.6710 -0.8545
  778MOL0     H 5000  10.294   7.152   6.241 -1.2841  1.3845  1.2418
  778MOL0     H 5001  10.451   7.082   6.301 -1.1646 -1.0137 -0.4624
  778MOL0     H 5002  10.261   7.232   6.481  1.1086 -1.0600 -0.4959
  778MOL0     H 5003  10.393   7.304   6.386 -2.0132  2.2224  1.6250
  778MOL0     H 5004  10.426   7.078   6.586 -1.5349  0.1863  0.7348
  778MOL0     H 5005  10.565   7.147   6.494 -0.2612 -1.8836  1.5882
  778MOL0     H 5006  10.552   7.352   6.604 -0.3660  1.0463  2.9286
  778MOL0     H 5007  10.556   7.238   6.722 -0.0313  0.2266  1.1097
  778MOL0     H 5008  10.383   7.405   6.780  0.7211 -2.8701  1.6375
  778MOL0     H 5009  10.292   7.392   6.631 -0.4304  1.3196  1.3654
  778MOL0     H 5010  10.309   6.541   5.954 -0.2665  1.4264 -1.0824
  778MOL0     H 5011  10.181   6.374   5.836 -2.2078 -2.7378  0.0166
  778MOL0     H 5012   9.818   5.940   6.026  3.5069  3.0733  0.0417
  778MOL0     H 5013   9.640   5.793   5.898 -0.9135  1.5509 -0.5283
  778MOL0     H 5014   7.944   4.952   5.340  1.0373  0.5097  0.5521
  778MOL0     H 5015   7.694   4.909   5.286 -1.1419  0.0073  0.9445
  778MOL0     H 5016   7.363   5.137   5.022  2.9211 -0.6048  3.1399
  778MOL0     H 5017   7.147   5.084   4.921  0.0585 -0.5499 -0.7559
  778MOL0     H 5018   6.963   4.929   4.863  0.1407 -0.1775  0.2479
  778MOL0     H 5019   6.930   5.104   4.855  1.2648  0.1699  0.8597
  778MOL0     H 5020   6.748   4.874   4.913  0.7518 -0.1257 -0.6447
  778MOL0     H 5021   6.750   4.984   4.769  1.8185 -1.3869  0.5833
  778MOL0     H 5022   6.699   5.178   4.952 -0.5959  1.3402  0.2120
  778MOL0     H 5023   6.652   5.031   5.046  1.9387 -0.0479 -0.4457
  778MOL0     H 5024   6.481   5.169   4.918 -0.9297 -1.6845  3.2459
  778MOL0     H 5025   6.542   5.105   4.769  1.1578  0.4018 -0.0741
  778MOL0     H 5026   6.333   4.771   4.886  1.8887 -1.3559  1.8705
  778MOL0     H 5027   6.946   5.087   5.294  0.3629 -0.8495 -0.0740
  778MOL0     H 5028   7.179   5.028   5.500  0.7049 -0.2151 -0.5553
  778MOL0     H 5029   7.224   5.194   5.500  0.1649 -2.1119  2.7781
  778MOL0     H 5030   7.052   5.146   5.486 -0.8007 -0.8207 -1.0946
  779MOL0     O 5031   2.375   8.306   6.065 -0.1093 -0.0292 -0.4754
  779MOL0     C 5032   2.357   8.288   6.186 -0.2279 -0.2121  0.6308
  779MOL0     O 5033   2.453   8.302   6.284  0.8179 -0.4916  0.1719
  779MOL0     C 5034   2.576   8.336   6.253  0.2864 -1.1662  0.3102
  779MOL0     C 5035   2.674   8.254   6.284  0.2548  0.4594 -0.0995
  779MOL0     C 5036   2.809   8.280   6.260  0.5296 -0.7161 -0.6314
  779MOL0     C 5037   2.849   8.401   6.194  0.9027 -0.1252 -0.2804
  779MOL0     O 5038   2.976   8.439   6.154  0.0628  0.3223 -0.2204
  779MOL0     C 5039   3.082   8.393   6.233 -0.4614 -0.3420  0.3302
  779MOL0     C 5040   3.209   8.455   6.166  0.6505  0.3077 -0.1566
  779MOL0     C 5041   3.327   8.429   6.250  0.2361 -0.1443 -0.5731
  779MOL0     C 5042   3.372   8.281   6.268  0.2234  1.0401  0.8244
  779MOL0     C 5043   3.495   8.264   6.363 -0.0674  0.1295  0.2715
  779MOL0     C 5044   3.626   8.302   6.294  0.4397  0.5204  1.2291
  779MOL0     C 5045   3.739   8.251   6.376 -0.0386 -0.2434  0.6640
  779MOL0     C 5046   3.859   8.255   6.290  1.2663 -0.4109 -0.2425
  779MOL0     N 5047   3.981   8.207   6.351  0.0350 -0.2450 -0.3847
  779MOL0     C 5048   4.098   8.275   6.378  1.2087 -0.3663  0.1215
  779MOL0     C 5049   4.188   8.186   6.425 -0.6659  1.6378  0.0749
  779MOL0     C 5050   4.324   8.210   6.477  0.1892  0.3595 -0.4306
  779MOL0     C 5051   4.311   8.214   6.622  0.0808  0.8722  0.0491
  779MOL0     C 5052   4.447   8.202   6.685 -0.3707  0.1840  0.0564
  779MOL0     C 5053   4.450   8.195   6.836 -0.6100 -0.2814 -0.2918
  779MOL0     O 5054   4.584   8.176   6.887  0.2821  0.0047 -0.6060
  779MOL0     C 5055   4.646   8.285   6.943  0.3541  0.1805 -0.3603
  779MOL0     C 5056   4.702   8.263   7.069 -0.6092 -0.5681 -0.5783
  779MOL0     C 5057   4.785   8.366   7.134 -1.0288  0.2172  0.8366
  779MOL0     C 5058   4.800   8.488   7.070  1.0138 -0.6343  1.2226
  779MOL0     C 5059   4.879   8.604   7.141  0.4769 -0.6703  0.7187
  779MOL0     O 5060   4.878   8.732   7.089 -0.7523  0.3275  0.3818
  779MOL0     C 5061   4.915   8.844   7.165 -0.3170  0.2840  0.1006
  779MOL0     C 5062   4.962   8.952   7.088 -1.0948 -0.5228  0.8322
  779MOL0     C 5063   4.996   9.068   7.153  0.3056 -0.1586  0.0086
  779MOL0     C 5064   4.969   9.083   7.294 -0.3594 -0.1531 -0.0829
  779MOL0     O 5065   5.008   9.208   7.338 -0.3925  0.3414  0.1021
  779MOL0     C 5066   5.047   9.225   7.478  0.2575 -0.7879  0.1164
  779MOL0     C 5067   5.115   9.349   7.513  0.2123 -1.0886  0.2260
  779MOL0     C 5068   5.249   9.343   7.435 -0.2990 -0.0752 -0.1207
  779MOL0     C 5069   5.333   9.468   7.461 -0.6892  0.0488  0.4788
  779MOL0     C 5070   5.474   9.454   7.400 -0.7666  0.8807  0.7347
  779MOL0     C 5071   5.579   9.556   7.445 -0.3835  0.0068  0.5176
  779MOL0     C 5072   5.704   9.545   7.368 -0.0126  0.6332 -0.0887
  779MOL0     C 5073   5.824   9.604   7.448 -0.9899 -0.5304  0.4647
  779MOL0    Cl 5074   5.802   9.779   7.480  0.2727 -0.2162 -0.2432
  779MOL0     C 5075   4.909   8.981   7.364  0.1136  0.1867  0.1300
  779MOL0     C 5076   4.874   8.862   7.291 -0.3555 -0.1265 -0.0698
  779MOL0     O 5077   4.946   8.569   7.235  0.3686  0.1899  0.0284
  779MOL0     C 5078   4.733   8.514   6.944  0.3967  0.3002 -0.2758
  779MOL0     C 5079   4.662   8.414   6.879 -0.1610  0.3665  0.0976
  779MOL0     N 5080   4.130   8.064   6.413  0.1957 -0.2594 -0.5789
  779MOL0     N 5081   4.009   8.075   6.366  0.2223  0.6852  0.7864
  779MOL0     C 5082   2.743   8.493   6.165 -0.0436  0.4806 -1.0167
  779MOL0     C 5083   2.609   8.462   6.200 -0.1938 -0.1558  0.1977
  779MOL0     C 5084   2.227   8.225   6.230 -0.2654  0.0178  0.4958
  779MOL0     C 5085   2.209   8.185   6.362 -0.5003  0.6267  0.1380
  779MOL0     C 5086   2.107   8.114   6.411  0.3652 -0.8555 -0.0122
  779MOL0     C 5087   2.007   8.083   6.314 -0.4587 -0.2512  0.0929
  779MOL0     O 5088   1.896   8.018   6.340  0.1699 -0.8176  0.4910
  779MOL0     C 5089   1.855   7.997   6.478  0.6261 -0.1139 -0.5515
  779MOL0     C 5090   1.736   8.079   6.519 -0.2848 -0.0844  0.1978
  779MOL0     C 5091   1.782   8.227   6.533  0.5525  0.8587 -0.2767
  779MOL0     C 5092   1.673   8.315   6.603 -0.4814 -0.3141  0.2667
  779MOL0     C 5093   1.540   8.318   6.527  0.0775  0.2893 -1.1886
  779MOL0     C 5094   1.435   8.318   6.469  0.6615  1.2161 -0.2528
  779MOL0     C 5095   2.026   8.116   6.179  0.8835  0.6153 -0.0764
  779MOL0     C 5096   2.129   8.190   6.134  0.4859 -0.5245  0.4316
  779MOL0     C 5097   2.128   8.223   5.985  1.2527  1.1307 -0.3735
  779MOL0     H 5098   2.641   8.161   6.330 -0.7068  0.5432 -0.5971
  779MOL0     H 5099   2.886   8.211   6.293  1.0072  0.2558  0.3375
  779MOL0     H 5100   3.086   8.436   6.334  1.2090 -1.3561  0.7325
  779MOL0     H 5101   3.082   8.284   6.240  0.2351 -0.2488  2.5049
  779MOL0     H 5102   3.199   8.563   6.153  2.1086  0.1946 -2.6834
  779MOL0     H 5103   3.214   8.408   6.068 -0.4008 -0.1556 -0.0106
  779MOL0     H 5104   3.312   8.472   6.349  2.5752 -0.7228  0.0976
  779MOL0     H 5105   3.419   8.474   6.210  1.9159 -2.4155  0.5134
  779MOL0     H 5106   3.287   8.218   6.294 -1.0894  1.6523 -1.6650
  779MOL0     H 5107   3.395   8.244   6.167 -2.2403 -0.2836  0.6948
  779MOL0     H 5108   3.472   8.327   6.449  0.7308  2.2688 -1.0016
  779MOL0     H 5109   3.492   8.159   6.394  0.8337 -0.0496 -0.2113
  779MOL0     H 5110   3.621   8.250   6.198 -2.5563  1.0632  0.9927
  779MOL0     H 5111   3.631   8.410   6.277 -2.1174  0.7314  1.4851
  779MOL0     H 5112   3.716   8.146   6.397  1.4709 -0.2376  2.5406
  779MOL0     H 5113   3.758   8.309   6.466  3.3410  1.3226 -0.8880
  779MOL0     H 5114   3.830   8.205   6.197 -0.7786 -1.4908  0.9007
  779MOL0     H 5115   3.883   8.358   6.262 -0.0300 -0.1490 -0.4605
  779MOL0     H 5116   4.124   8.377   6.353  0.3364 -0.0408  0.4985
  779MOL0     H 5117   4.373   8.114   6.455 -1.1424 -1.7839  4.4835
  779MOL0     H 5118   4.384   8.287   6.429  2.5789  0.3423  2.2929
  779MOL0     H 5119   4.263   8.310   6.641  1.0833  1.1274  1.4303
  779MOL0     H 5120   4.243   8.134   6.655 -0.3701  0.4435 -1.8146
  779MOL0     H 5121   4.512   8.284   6.652  3.1745 -2.0777  0.8182
  779MOL0     H 5122   4.505   8.120   6.642  1.7384  2.9267 -2.8977
  779MOL0     H 5123   4.395   8.103   6.859 -2.6035  1.4225  2.3490
  779MOL0     H 5124   4.406   8.283   6.882  1.5890 -0.2475  2.0044
  779MOL0     H 5125   4.697   8.159   7.101  0.3801 -0.4544  0.0055
  779MOL0     H 5126   4.827   8.344   7.231 -0.2429 -2.7952 -0.0937
  779MOL0     H 5127   4.984   8.945   6.982  2.5737 -1.4513  1.4905
  779MOL0     H 5128   5.039   9.153   7.101 -2.5053  0.2443 -1.8679
  779MOL0     H 5129   4.959   9.227   7.543 -1.4781  1.1598 -2.0813
  779MOL0     H 5130   5.122   9.148   7.493  0.4362 -0.0268  4.0450
  779MOL0     H 5131   5.062   9.441   7.486  0.4270 -0.9974  0.1131
  779MOL0     H 5132   5.130   9.354   7.621  2.9925  0.8758 -0.1337
  779MOL0     H 5133   5.307   9.262   7.481 -2.0574 -0.0193  2.4069
  779MOL0     H 5134   5.235   9.312   7.331 -2.2328 -0.9517  0.3479
  779MOL0     H 5135   5.333   9.494   7.567 -0.9586 -1.5208  0.8888
  779MOL0     H 5136   5.283   9.554   7.415 -0.2681  1.9284  3.2764
  779MOL0     H 5137   5.472   9.461   7.290 -0.9593 -0.9448  0.5980
  779MOL0     H 5138   5.508   9.355   7.431 -1.0455  0.2206 -0.9193
  779MOL0     H 5139   5.541   9.658   7.434 -1.1807 -0.1318  1.7774
  779MOL0     H 5140   5.593   9.540   7.552 -2.0216  0.4659  0.8383
  779MOL0     H 5141   5.699   9.595   7.270 -0.0873  1.2956  0.2479
  779MOL0     H 5142   5.723   9.439   7.347 -2.1919  0.4995 -1.8235
  779MOL0     H 5143   5.841   9.549   7.541 -0.6300 -1.7273 -0.2786
  779MOL0     H 5144   5.907   9.588   7.379 -1.0821  2.9353 -0.6448
  779MOL0     H 5145   4.891   9.004   7.469 -1.3547  0.3260 -0.1384
  779MOL0     H 5146   4.816   8.778   7.330 -2.8149  0.6154 -1.8576
  779MOL0     H 5147   4.735   8.612   6.899  2.1080  0.8519  0.9103
  779MOL0     H 5148   4.616   8.438   6.784 -0.9148  0.1391  0.4007
  779MOL0     H 5149   2.775   8.584   6.116 -1.6713  1.8131  0.2578
  779MOL0     H 5150   2.532   8.533   6.174  0.8911  0.2503 -2.2398
  779MOL0     H 5151   2.287   8.213   6.432  0.1339  0.7695 -0.6067
  779MOL0     H 5152   2.104   8.095   6.518  0.3008  1.3229  0.4125
  779MOL0     H 5153   1.930   8.010   6.557  1.2968 -0.8810 -1.0337
  779MOL0     H 5154   1.826   7.893   6.492 -0.5550  0.6168  4.0362
  779MOL0     H 5155   1.711   8.047   6.621  1.5609  2.5439  1.5691
  779MOL0     H 5156   1.655   8.062   6.448 -0.5010  4.3572 -0.9196
  779MOL0     H 5157   1.800   8.288   6.444 -4.1776  4.0935  0.5731
  779MOL0     H 5158   1.866   8.231   6.602 -0.7414 -0.1385  1.4223
  779MOL0     H 5159   1.655   8.272   6.702 -2.2906 -0.7379 -0.2147
  779MOL0     H 5160   1.710   8.416   6.621 -4.3120  1.2174  0.6452
  779MOL0     H 5161   1.351   8.310   6.403  2.2652  0.4431 -2.2992
  779MOL0     H 5162   1.940   8.088   6.119 -1.4144 -0.3639  3.3314
  779MOL0     H 5163   2.102   8.328   5.969 -2.0326  0.2106 -1.9658
  779MOL0     H 5164   2.217   8.198   5.927  1.1842 -0.1642  0.0630
  779MOL0     H 5165   2.049   8.169   5.932  0.3123  1.0825  1.0157
  780MOL0     O 5166   1.252   4.206   9.504 -0.1199  0.0924 -0.0875
  780MOL0     C 5167   1.175   4.262   9.579  0.7448 -0.6745 -0.1404
  780MOL0     O 5168   1.206   4.366   9.665 -0.3425  1.1034 -0.3725
  780MOL0     C 5169   1.338   4.396   9.672 -0.2780 -0.2999 -0.4486
  780MOL0     C 5170   1.414   4.349   9.781  0.3278  0.7183 -0.0995
  780MOL0     C 5171   1.560   4.368   9.787  0.6291  0.0693 -0.8448
  780MOL0     C 5172   1.624   4.447   9.687  0.3801 -1.3205 -0.6457
  780MOL0     O 5173   1.757   4.461   9.671 -1.1286  0.4720 -0.3456
  780MOL0     C 5174   1.854   4.381   9.741  0.3588 -0.5350 -0.6442
  780MOL0     C 5175   1.886   4.444   9.874 -0.4267  0.3763 -0.2262
  780MOL0     C 5176   1.955   4.350   9.972 -0.2451  0.4955 -0.1014
  780MOL0     C 5177   2.018   4.418  10.094  1.3847  0.0489  0.3515
  780MOL0     C 5178   2.078   4.309  10.185 -0.5045 -0.6299 -0.4935
  780MOL0     C 5179   2.109   4.368  10.325 -0.3104 -0.8589 -0.4642
  780MOL0     C 5180   2.189   4.269  10.398 -0.0481  0.0245  0.3071
  780MOL0     C 5181   2.225   4.322  10.544 -0.5943  0.1142  0.8394
  780MOL0     N 5182   2.332   4.432  10.540 -0.0739  0.6535  0.5290
  780MOL0     C 5183   2.352   4.518  10.649 -0.4463 -0.2176 -1.1713
  780MOL0     C 5184   2.447   4.604  10.602 -0.4582 -0.0087 -0.4074
  780MOL0     C 5185   2.522   4.703  10.686  0.4598  0.2727  0.8720
  780MOL0     C 5186   2.671   4.682  10.681 -0.1559 -0.1993  0.2449
  780MOL0     C 5187   2.730   4.800  10.761 -0.2558 -0.4197  0.7689
  780MOL0     C 5188   2.881   4.772  10.780 -0.1086  0.3184  0.6490
  780MOL0     O 5189   2.953   4.884  10.838  0.0879 -0.3904  0.4275
  780MOL0     C 5190   3.076   4.922  10.806 -0.9606 -0.3245  0.2515
  780MOL0     C 5191   3.174   4.824  10.774 -0.2907  0.0451 -0.1862
  780MOL0     C 5192   3.307   4.862  10.757  0.7484  0.1761  0.3703
  780MOL0     C 5193   3.356   4.990  10.780  0.4325 -0.7375 -0.2181
  780MOL0     C 5194   3.500   5.035  10.750  0.1635  1.1072  0.2563
  780MOL0     O 5195   3.524   5.165  10.775  0.4221 -0.6516  0.6165
  780MOL0     C 5196   3.656   5.208  10.762  0.7576 -0.0235  0.1560
  780MOL0     C 5197   3.750   5.208  10.860 -0.2527  0.4520 -0.5273
  780MOL0     C 5198   3.884   5.254  10.842 -0.2237 -0.5745  0.6350
  780MOL0     C 5199   3.918   5.309  10.713  0.0858  0.8396 -0.7633
  780MOL0     O 5200   4.043   5.367  10.693  0.4185  0.4346  0.5947
  780MOL0     C 5201   4.126   5.333  10.580  0.0385 -0.6582  0.2721
  780MOL0     C 5202   4.238   5.436  10.562  0.1764  0.0570  1.4917
  780MOL0     C 5203   4.330   5.445  10.682 -0.0822  1.0946  0.5952
  780MOL0     C 5204   4.410   5.320  10.704  0.1412 -0.5227  0.3810
  780MOL0     C 5205   4.479   5.319  10.829 -0.6224 -0.4769  0.5960
  780MOL0     C 5206   4.577   5.432  10.855 -0.1256 -0.3712 -0.0225
  780MOL0     C 5207   4.665   5.484  10.747  0.7835  0.5307  0.8521
  780MOL0     C 5208   4.797   5.549  10.786  0.0359 -0.2532 -0.3634
  780MOL0    Cl 5209   4.931   5.423  10.806 -0.1349  0.4260 -0.5905
  780MOL0     C 5210   3.815   5.308  10.613  0.8393 -1.3163 -0.1873
  780MOL0     C 5211   3.690   5.252  10.635  0.1150 -0.2072  0.5012
  780MOL0     O 5212   3.585   4.950  10.711  0.3124 -0.3925  0.2049
  780MOL0     C 5213   3.262   5.084  10.827  0.5580  0.0175 -0.3642
  780MOL0     C 5214   3.123   5.054  10.830  0.5885  0.0624 -1.3791
  780MOL0     N 5215   2.462   4.575  10.468  0.0102 -0.1037 -0.0273
  780MOL0     N 5216   2.399   4.467  10.431  0.3271  0.2980  0.4020
  780MOL0     C 5217   1.539   4.517   9.597 -1.2808 -0.2079 -0.0397
  780MOL0     C 5218   1.402   4.486   9.586 -0.4241 -0.0276 -0.9547
  780MOL0     C 5219   1.021   4.246   9.558  0.5957 -0.3753 -0.9638
  780MOL0     C 5220   0.933   4.336   9.632  0.2239  0.6506  0.1362
  780MOL0     C 5221   0.795   4.344   9.606 -0.8065  0.4023  0.5740
  780MOL0     C 5222   0.733   4.262   9.506 -0.2622 -0.4885 -0.0271
  780MOL0     O 5223   0.599   4.264   9.464 -0.6547  0.5178 -0.5121
  780MOL0     C 5224   0.510   4.351   9.523  0.8264 -0.7377  0.4707
  780MOL0     C 5225   0.454   4.287   9.658  0.7286  0.5084 -0.1661
  780MOL0     C 5226   0.327   4.209   9.622 -0.0432 -1.0837 -0.3003
  780MOL0     C 5227   0.207   4.289   9.565  0.1929  0.4950  0.2865
  780MOL0     C 5228   0.078   4.220   9.569 -0.8265  0.1118 -0.2416
  780MOL0     C 5229  -0.023   4.154   9.578 -0.9523  0.5559  0.1061
  780MOL0     C 5230   0.817   4.165   9.451  0.0538  0.2205  0.6211
  780MOL0     C 5231   0.954   4.155   9.458 -0.5276 -0.3631 -0.4027
  780MOL0     C 5232   1.031   4.045   9.382 -0.1318 -0.7887  0.4613
  780MOL0     H 5233   1.359   4.298   9.859 -1.1498  0.0429 -1.5052
  780MOL0     H 5234   1.614   4.330   9.873  1.1457  0.3785 -1.0234
  780MOL0     H 5235   1.815   4.280   9.750 -1.6582  0.2621  0.2176
  780MOL0     H 5236   1.956   4.381   9.700  1.8207  0.5336  2.6577
  780MOL0     H 5237   1.792   4.476   9.920 -0.4859 -1.2748  0.9054
  780MOL0     H 5238   1.945   4.534   9.855  0.2717  0.4444  2.0137
  780MOL0     H 5239   2.022   4.277   9.925 -0.0469  2.0101 -2.3292
  780MOL0     H 5240   1.879   4.281  10.010 -1.7182 -0.7977 -4.7146
  780MOL0     H 5241   2.092   4.490  10.056  0.2695 -0.1885 -2.5006
  780MOL0     H 5242   1.942   4.475  10.147  0.9604 -2.2491  2.4332
  780MOL0     H 5243   2.017   4.218  10.178  1.5861 -2.0226 -2.0634
  780MOL0     H 5244   2.168   4.272  10.136  1.4431  0.9811  1.6563
  780MOL0     H 5245   2.153   4.468  10.319 -1.2462 -0.2296  2.0846
  780MOL0     H 5246   2.013   4.386  10.373  0.9660  0.8931  1.6406
  780MOL0     H 5247   2.284   4.258  10.344  1.3754 -0.3258  2.7110
  780MOL0     H 5248   2.136   4.174  10.406  2.2766 -1.3080  1.0420
  780MOL0     H 5249   2.129   4.348  10.591 -1.3049 -0.7955 -0.0575
  780MOL0     H 5250   2.273   4.236  10.592  0.4260  0.1160 -0.1312
  780MOL0     H 5251   2.309   4.511  10.748 -1.0082 -3.1288 -1.5211
  780MOL0     H 5252   2.505   4.804  10.649 -0.1659 -0.1107  0.0816
  780MOL0     H 5253   2.484   4.701  10.789 -3.2219 -1.6791 -0.3475
  780MOL0     H 5254   2.705   4.592  10.733 -0.6961  0.3427  1.5721
  780MOL0     H 5255   2.705   4.672  10.577  0.2655  0.9703  0.2481
  780MOL0     H 5256   2.694   4.809  10.864  0.4659  1.9698  0.8669
  780MOL0     H 5257   2.727   4.897  10.711  0.2319  0.7016  2.8015
  780MOL0     H 5258   2.922   4.738  10.684  0.7377  2.3490  0.2360
  780MOL0     H 5259   2.882   4.682  10.843 -3.8226 -0.5892 -0.3555
  780MOL0     H 5260   3.147   4.722  10.750 -1.7876 -0.0701  1.7808
  780MOL0     H 5261   3.363   4.777  10.719 -1.9181 -2.0387  1.0695
  780MOL0     H 5262   3.730   5.164  10.957  0.2635  1.1220 -0.1047
  780MOL0     H 5263   3.956   5.222  10.917 -1.4833 -3.3091  0.7891
  780MOL0     H 5264   4.155   5.227  10.587 -2.9782 -1.6967 -0.9669
  780MOL0     H 5265   4.065   5.341  10.489 -1.9981  2.1586  1.7321
  780MOL0     H 5266   4.292   5.417  10.469  1.2794  0.7040  1.9837
  780MOL0     H 5267   4.189   5.533  10.545  1.8461  0.4020 -2.3197
  780MOL0     H 5268   4.400   5.523  10.653  1.7019 -1.1314 -1.4596
  780MOL0     H 5269   4.273   5.468  10.773  0.2327 -2.0586  1.7150
  780MOL0     H 5270   4.479   5.308  10.620 -1.0243 -3.6425 -0.2548
  780MOL0     H 5271   4.351   5.229  10.718  3.2820 -3.3421 -2.7411
  780MOL0     H 5272   4.534   5.225  10.828 -1.3418 -1.0459 -3.2393
  780MOL0     H 5273   4.402   5.309  10.907 -2.5920 -0.9612 -1.3033
  780MOL0     H 5274   4.524   5.526  10.873  2.0214  1.4255 -2.4454
  780MOL0     H 5275   4.637   5.410  10.944  0.4147  1.4523  0.0915
  780MOL0     H 5276   4.612   5.572  10.711  0.3862  0.2360  0.6999
  780MOL0     H 5277   4.677   5.412  10.665 -0.9586 -1.7459  2.4380
  780MOL0     H 5278   4.817   5.623  10.708 -1.0273 -0.1389 -0.5466
  780MOL0     H 5279   4.780   5.603  10.880  2.0772 -1.2417  0.6284
  780MOL0     H 5280   3.830   5.350  10.514 -0.7285  0.9355  0.4611
  780MOL0     H 5281   3.612   5.247  10.560 -0.3279  3.9410  0.5075
  780MOL0     H 5282   3.295   5.184  10.851  2.3794 -0.0182 -2.4325
  780MOL0     H 5283   3.054   5.138  10.836 -1.2702 -1.5005  0.8045
  780MOL0     H 5284   1.588   4.571   9.515  2.6622 -1.2329  1.4031
  780MOL0     H 5285   1.347   4.544   9.513 -0.5378 -0.3312 -1.1117
  780MOL0     H 5286   0.980   4.400   9.706  1.0994  1.8073 -1.3437
  780MOL0     H 5287   0.728   4.417   9.651 -3.2061 -1.8742  0.9443
  780MOL0     H 5288   0.431   4.368   9.450 -1.0719  0.2873  2.6311
  780MOL0     H 5289   0.552   4.452   9.535  0.8762 -0.4209 -1.9832
  780MOL0     H 5290   0.423   4.366   9.726  0.5148 -0.4099  0.8294
  780MOL0     H 5291   0.528   4.220   9.702 -0.1477 -1.6138 -1.7104
  780MOL0     H 5292   0.292   4.149   9.707  0.3681  1.0345  1.4573
  780MOL0     H 5293   0.361   4.143   9.542 -0.5309 -0.6598 -0.8633
  780MOL0     H 5294   0.190   4.384   9.617 -1.3851 -0.4447  1.5988
  780MOL0     H 5295   0.220   4.313   9.459  0.2754  0.8909  0.3842
  780MOL0     H 5296  -0.104   4.084   9.577 -1.7924  1.4838  1.1630
  780MOL0     H 5297   0.786   4.091   9.377  2.8779 -2.2360  1.7166
  780MOL0     H 5298   0.968   3.970   9.335  0.9044 -1.2941 -0.1581
  780MOL0     H 5299   1.085   4.104   9.308  1.1523  1.2199  2.8226
  780MOL0     H 5300   1.095   3.987   9.450  0.3359 -1.3336 -0.4255
  781MOL0     O 5301   8.532   2.510  10.151  0.7405  0.2582  0.2100
  781MOL0     C 5302   8.419   2.511  10.097  0.2920  0.3278 -1.1928
  781MOL0     O 5303   8.300   2.561  10.154  0.3154 -0.3551 -0.7648
  781MOL0     C 5304   8.317   2.632  10.279  0.7658  1.0501 -0.4063
  781MOL0     C 5305   8.331   2.555  10.394  0.4743 -0.2916 -0.7364
  781MOL0     C 5306   8.339   2.609  10.521  0.0079  0.4639  0.2367
  781MOL0     C 5307   8.348   2.748  10.537  0.2295 -0.1122 -0.3808
  781MOL0     O 5308   8.375   2.805  10.660 -0.5377  0.7003 -0.2747
  781MOL0     C 5309   8.519   2.818  10.665  0.7589 -0.3728  0.6698
  781MOL0     C 5310   8.573   2.884  10.793  0.0424 -0.8379  0.4724
  781MOL0     C 5311   8.724   2.882  10.815 -1.1263 -0.0558  0.2815
  781MOL0     C 5312   8.780   2.739  10.856 -0.1219 -0.8694 -0.0271
  781MOL0     C 5313   8.923   2.766  10.888  0.6207  0.6379 -0.4812
  781MOL0     C 5314   8.995   2.637  10.937 -0.1387 -0.0697 -0.6579
  781MOL0     C 5315   9.145   2.663  10.959  0.0109 -0.2904  0.3318
  781MOL0     C 5316   9.207   2.567  11.065  0.0013 -0.0337 -0.6898
  781MOL0     N 5317   9.350   2.587  11.073 -0.6122 -0.5868 -1.0924
  781MOL0     C 5318   9.453   2.535  10.997 -0.4338 -0.3036  0.4700
  781MOL0     C 5319   9.563   2.549  11.066 -0.5420  0.8082  0.7885
  781MOL0     C 5320   9.701   2.488  11.046 -0.3420  1.0034  0.1590
  781MOL0     C 5321   9.807   2.592  11.018 -1.5035  0.0344  1.1521
  781MOL0     C 5322   9.928   2.521  10.948 -0.3370  0.3776 -0.1539
  781MOL0     C 5323  10.030   2.606  10.871  0.5783 -0.1380 -0.1322
  781MOL0     O 5324  10.060   2.721  10.945 -0.5585  0.1242 -0.7054
  781MOL0     C 5325  10.171   2.779  10.896 -0.1956  0.3840 -0.1966
  781MOL0     C 5326  10.277   2.806  10.985 -0.2071 -0.1931  0.9822
  781MOL0     C 5327  10.398   2.856  10.935  0.0133  0.0571 -0.3706
  781MOL0     C 5328  10.408   2.894  10.801 -0.4562  0.6220  0.7330
  781MOL0     C 5329  10.539   2.936  10.748 -0.0089 -0.2922  1.1441
  781MOL0     O 5330  10.633   2.953  10.839 -0.3254 -0.1130 -0.2869
  781MOL0     C 5331  10.767   2.994  10.809  0.6181  0.7444  0.0638
  781MOL0     C 5332  10.834   2.961  10.691  0.7287  0.0561  1.0711
  781MOL0     C 5333  10.960   3.008  10.658  0.2601  0.1403 -0.4062
  781MOL0     C 5334  11.024   3.084  10.760 -0.6266 -0.2669  0.9984
  781MOL0     O 5335  11.133   3.151  10.714 -1.1769  0.3752 -0.5974
  781MOL0     C 5336  11.185   3.256  10.798 -0.1070 -0.4561  0.3891
  781MOL0     C 5337  11.309   3.300  10.738  0.4240  0.4663  0.4928
  781MOL0     C 5338  11.425   3.204  10.786  0.2662 -0.2598 -0.1856
  781MOL0     C 5339  11.548   3.271  10.730  0.0078  0.9311  0.0505
  781MOL0     C 5340  11.675   3.203  10.777  0.0589  0.7650  0.1566
  781MOL0     C 5341  11.799   3.271  10.723  0.1997  0.2697  0.0990
  781MOL0     C 5342  11.920   3.242  10.810  0.5805  0.0103 -0.9769
  781MOL0     C 5343  12.048   3.251  10.737 -0.1456 -0.1564  0.0922
  781MOL0    Cl 5344  12.173   3.219  10.854 -0.2081  0.3266 -0.4797
  781MOL0     C 5345  10.970   3.099  10.887 -0.3019  0.4209 -0.9062
  781MOL0     C 5346  10.839   3.055  10.910  0.8508  0.2708 -0.3062
  781MOL0     O 5347  10.556   2.950  10.628  0.0323 -0.8334  0.4065
  781MOL0     C 5348  10.295   2.887  10.717 -0.5142 -0.1167  0.0964
  781MOL0     C 5349  10.184   2.821  10.764  0.2916 -0.4541 -0.7091
  781MOL0     N 5350   9.532   2.620  11.182  0.4068 -1.4430 -0.2530
  781MOL0     N 5351   9.408   2.647  11.190  0.6216 -0.3592 -0.1471
  781MOL0     C 5352   8.318   2.826  10.417 -0.0275  0.0517  1.2502
  781MOL0     C 5353   8.300   2.770  10.291 -0.1044  0.0154 -0.2876
  781MOL0     C 5354   8.410   2.440   9.969  0.8318  0.0600  0.1905
  781MOL0     C 5355   8.278   2.394   9.926 -0.8925  0.0033  0.6156
  781MOL0     C 5356   8.263   2.323   9.810 -0.5286  0.7590  0.1044
  781MOL0     C 5357   8.383   2.287   9.740 -0.8503  0.1722  0.3906
  781MOL0     O 5358   8.380   2.219   9.619 -0.4971 -0.2587  0.2027
  781MOL0     C 5359   8.280   2.122   9.596 -0.3876 -0.0377  0.0305
  781MOL0     C 5360   8.296   2.075   9.455 -0.0025 -0.0314 -0.4362
  781MOL0     C 5361   8.181   1.987   9.405  0.0345  0.4762 -0.2131
  781MOL0     C 5362   8.032   2.030   9.438  0.4538  0.0528 -0.0355
  781MOL0     C 5363   7.996   2.139   9.347  0.5748  0.0687  0.0619
  781MOL0     C 5364   7.963   2.225   9.263 -0.2665 -0.5213  0.0365
  781MOL0     C 5365   8.506   2.336   9.777 -0.2620 -0.1013 -0.6592
  781MOL0     C 5366   8.522   2.423   9.886 -0.6810  0.2758 -0.0994
  781MOL0     C 5367   8.648   2.491   9.911 -0.2735  0.3034 -0.0007
  781MOL0     H 5368   8.319   2.448  10.380  0.6904 -0.6820  1.6922
  781MOL0     H 5369   8.349   2.535  10.601 -0.3708  1.0565  0.8426
  781MOL0     H 5370   8.573   2.725  10.645  0.1124 -0.2383 -2.2219
  781MOL0     H 5371   8.556   2.879  10.582 -2.2199  0.6233 -0.0469
  781MOL0     H 5372   8.518   2.843  10.879 -2.1688 -3.9564 -2.2012
  781MOL0     H 5373   8.542   2.989  10.793 -1.5073 -1.2462 -1.2624
  781MOL0     H 5374   8.756   2.942  10.901  0.0827 -0.7622  0.3569
  781MOL0     H 5375   8.773   2.905  10.720 -0.7969  0.0372  0.4702
  781MOL0     H 5376   8.737   2.709  10.952 -1.5955  5.3165  1.7381
  781MOL0     H 5377   8.760   2.671  10.773 -3.8916 -0.5721  0.4579
  781MOL0     H 5378   8.971   2.789  10.793  0.1393 -1.7082 -1.3530
  781MOL0     H 5379   8.943   2.849  10.958  1.4481  1.5653 -1.7678
  781MOL0     H 5380   8.960   2.604  11.035  0.5185  1.8834  0.2823
  781MOL0     H 5381   8.988   2.555  10.864  2.7570 -2.1941  1.2345
  781MOL0     H 5382   9.166   2.763  10.998  1.1745  0.7203 -2.5541
  781MOL0     H 5383   9.201   2.654  10.865 -1.1106  0.4635 -0.4283
  781MOL0     H 5384   9.164   2.581  11.165  2.4971 -1.5551  0.7192
  781MOL0     H 5385   9.192   2.465  11.031 -2.1465  0.3946 -1.1564
  781MOL0     H 5386   9.449   2.470  10.910 -1.0459  1.9415 -1.2696
  781MOL0     H 5387   9.731   2.434  11.136  0.7089  2.5494  0.7830
  781MOL0     H 5388   9.698   2.421  10.959  2.6402  1.7771 -0.6809
  781MOL0     H 5389   9.777   2.668  10.945 -1.9167 -1.4602 -0.3014
  781MOL0     H 5390   9.839   2.645  11.108 -0.4308 -2.8614  2.5992
  781MOL0     H 5391   9.890   2.448  10.876 -0.2641 -1.1297  1.2838
  781MOL0     H 5392   9.984   2.463  11.022 -3.0972 -0.2264  1.6184
  781MOL0     H 5393   9.975   2.634  10.780 -3.0084 -1.6053  1.3822
  781MOL0     H 5394  10.117   2.542  10.857 -1.9983 -3.8407 -0.8091
  781MOL0     H 5395  10.269   2.779  11.089  2.5291 -2.0001  0.8187
  781MOL0     H 5396  10.475   2.879  11.008  1.4159  1.8836 -2.3318
  781MOL0     H 5397  10.779   2.896  10.623  0.0914  4.0321 -2.6447
  781MOL0     H 5398  11.003   3.001  10.559  1.2173  2.4620 -0.2192
  781MOL0     H 5399  11.110   3.335  10.788  0.2058 -0.4885 -4.6850
  781MOL0     H 5400  11.210   3.224  10.899 -0.2294 -2.0029 -0.0394
  781MOL0     H 5401  11.301   3.314  10.630 -3.3294 -0.4339  0.5369
  781MOL0     H 5402  11.329   3.397  10.786 -1.0403  1.2085 -0.3530
  781MOL0     H 5403  11.436   3.191  10.894 -2.0579  1.1906  0.2934
  781MOL0     H 5404  11.405   3.102  10.752 -2.6057 -0.2665  1.2756
  781MOL0     H 5405  11.558   3.377  10.755 -2.6910  1.0135  1.0682
  781MOL0     H 5406  11.538   3.260  10.621 -0.1791  0.1075  0.1473
  781MOL0     H 5407  11.676   3.099  10.745  1.5082  0.1607  1.9407
  781MOL0     H 5408  11.673   3.201  10.886 -2.2639  0.3308  0.1472
  781MOL0     H 5409  11.809   3.246  10.617  3.6810  0.3470  0.3067
  781MOL0     H 5410  11.792   3.380  10.726  0.4816  0.3098 -0.5183
  781MOL0     H 5411  11.906   3.146  10.860 -2.2673  1.0865  0.5368
  781MOL0     H 5412  11.924   3.318  10.889  0.8519 -2.3162  1.3992
  781MOL0     H 5413  12.045   3.171  10.662 -1.5941 -0.5814  0.5812
  781MOL0     H 5414  12.063   3.348  10.689  2.7505 -0.4948  0.1195
  781MOL0     H 5415  11.021   3.140  10.973  1.7710 -4.3608  0.4723
  781MOL0     H 5416  10.777   3.076  10.997 -0.8968  0.2919 -1.5008
  781MOL0     H 5417  10.305   2.915  10.613  0.8633 -0.8916 -0.0137
  781MOL0     H 5418  10.093   2.817  10.704  1.0410 -1.2538 -1.8211
  781MOL0     H 5419   8.318   2.934  10.424 -0.9958  0.1237  0.4843
  781MOL0     H 5420   8.277   2.841  10.213 -2.5695 -0.1879  0.1869
  781MOL0     H 5421   8.190   2.422   9.982 -1.1389  0.0743  0.2026
  781MOL0     H 5422   8.164   2.290   9.780  0.9334 -3.6334 -0.5813
  781MOL0     H 5423   8.185   2.170   9.620 -0.6722  0.2377 -1.5682
  781MOL0     H 5424   8.279   2.028   9.652  0.6993  0.6101  1.1784
  781MOL0     H 5425   8.386   2.013   9.452 -0.6569 -1.1680  1.5489
  781MOL0     H 5426   8.313   2.160   9.388  1.6275  0.3046  0.3628
  781MOL0     H 5427   8.204   1.886   9.440 -3.1108 -0.0629  0.5334
  781MOL0     H 5428   8.185   1.976   9.296  0.2998  0.6028 -0.2166
  781MOL0     H 5429   7.961   1.955   9.403  2.3084 -1.5437 -0.5427
  781MOL0     H 5430   8.009   2.069   9.538 -3.6906  0.2725 -0.9119
  781MOL0     H 5431   7.933   2.302   9.196  1.6260  0.7494  0.5579
  781MOL0     H 5432   8.592   2.309   9.716  0.5243 -0.2949  0.5131
  781MOL0     H 5433   8.705   2.430   9.981 -1.4612  0.8796  1.5385
  781MOL0     H 5434   8.688   2.496   9.809  0.7881  1.4702  0.4608
  781MOL0     H 5435   8.630   2.594   9.943 -1.1830  0.5451 -1.1914
  782MOL0     O 5436   9.963   4.268   3.704 -0.3579  0.2809  0.0433
  782MOL0     C 5437   9.849   4.257   3.734  0.1826 -1.1999 -0.4405
  782MOL0     O 5438   9.778   4.139   3.766 -0.3900  0.4070  0.4550
  782MOL0     C 5439   9.841   4.023   3.784 -0.8587  0.0991  1.0930
  782MOL0     C 5440   9.754   3.917   3.788  0.2428  0.1500  0.5448
  782MOL0     C 5441   9.791   3.785   3.829  0.0013 -0.2916  0.0416
  782MOL0     C 5442   9.925   3.754   3.848  0.3506 -0.1370 -0.5528
  782MOL0     O 5443   9.978   3.633   3.861  0.2878 -0.0285  0.0180
  782MOL0     C 5444   9.897   3.514   3.851  0.2125 -0.0689  0.5598
  782MOL0     C 5445   9.974   3.387   3.815 -0.8331 -0.4755 -0.3851
  782MOL0     C 5446   9.964   3.277   3.919  0.5444 -0.6591 -0.4438
  782MOL0     C 5447  10.068   3.168   3.904 -0.5458  0.2744 -0.4415
  782MOL0     C 5448  10.054   3.050   4.010 -0.1481 -0.5848  0.4022
  782MOL0     C 5449  10.105   3.080   4.149 -0.1730 -0.6098  0.1285
  782MOL0     C 5450  10.265   3.084   4.160  1.0951 -0.6106 -0.4151
  782MOL0     C 5451  10.299   2.947   4.212  0.9966  0.2486  0.1112
  782MOL0     N 5452  10.441   2.917   4.195  0.3465  0.4860  0.7166
  782MOL0     C 5453  10.536   2.973   4.260 -0.2325 -0.3297 -0.4907
  782MOL0     C 5454  10.644   2.909   4.216 -0.2979 -0.0450  0.4366
  782MOL0     C 5455  10.788   2.945   4.251  0.0992 -0.0568 -0.4638
  782MOL0     C 5456  10.795   2.960   4.404 -0.4563 -0.5545 -0.4985
  782MOL0     C 5457  10.918   3.041   4.448 -0.2158 -0.6874  0.2689
  782MOL0     C 5458  11.053   2.976   4.408  0.3771 -0.3064  0.5857
  782MOL0     O 5459  11.159   2.994   4.503 -0.5202 -0.2366  0.2377
  782MOL0     C 5460  11.288   3.013   4.460  1.3101  0.7368  0.7868
  782MOL0     C 5461  11.383   2.993   4.555  0.2847 -0.1192 -0.3722
  782MOL0     C 5462  11.522   3.008   4.522 -0.2373 -0.1886  0.2210
  782MOL0     C 5463  11.556   3.029   4.388  0.4904  0.1477 -0.3098
  782MOL0     C 5464  11.699   3.046   4.343  0.7973 -0.4677 -0.4898
  782MOL0     O 5465  11.795   2.977   4.404 -0.9005  0.2260  0.3352
  782MOL0     C 5466  11.932   2.999   4.396 -0.8256 -0.0586 -0.3512
  782MOL0     C 5467  12.016   2.898   4.431 -0.1152  0.0274  0.1857
  782MOL0     C 5468  12.156   2.909   4.434  0.2663 -0.1538 -0.5265
  782MOL0     C 5469  12.221   3.032   4.401 -0.2748  0.3946 -0.1833
  782MOL0     O 5470  12.354   3.039   4.415 -1.1744  0.2302  0.1219
  782MOL0     C 5471  12.412   3.169   4.411  0.1460 -0.3575 -0.2917
  782MOL0     C 5472  12.558   3.189   4.460 -0.0028 -0.8541 -0.1907
  782MOL0     C 5473  12.654   3.097   4.387 -0.2917  0.9308  0.3305
  782MOL0     C 5474  12.795   3.100   4.450  0.8250  0.0324  0.2619
  782MOL0     C 5475  12.883   3.013   4.366  0.0927 -0.2031  0.5828
  782MOL0     C 5476  12.891   2.862   4.407 -0.2035  0.7390 -0.5864
  782MOL0     C 5477  13.029   2.822   4.478 -0.1549  0.4728 -0.2047
  782MOL0     C 5478  13.140   2.761   4.384 -0.0800 -0.0459 -0.1538
  782MOL0    Cl 5479  13.280   2.721   4.485 -0.1510  0.2933 -0.2528
  782MOL0     C 5480  12.137   3.138   4.349 -0.5629 -0.1564 -0.3623
  782MOL0     C 5481  11.997   3.120   4.351 -0.3348  0.0143  0.7605
  782MOL0     O 5482  11.712   3.123   4.250 -0.4979 -0.7061 -0.0757
  782MOL0     C 5483  11.459   3.041   4.289  0.2034  0.7965  0.1940
  782MOL0     C 5484  11.323   3.032   4.322 -0.1022  0.2145 -0.2967
  782MOL0     N 5485  10.606   2.820   4.124 -0.4033 -0.1467  0.3316
  782MOL0     N 5486  10.479   2.822   4.113 -0.0901 -0.3942  0.3686
  782MOL0     C 5487  10.014   3.854   3.837  0.5027 -1.2364 -0.4967
  782MOL0     C 5488   9.982   3.990   3.799  0.5593 -0.7784  0.3237
  782MOL0     C 5489   9.777   4.379   3.755  0.0093  0.2444 -0.6837
  782MOL0     C 5490   9.631   4.370   3.740  0.3395  0.1434  0.8184
  782MOL0     C 5491   9.547   4.482   3.718 -0.0452 -0.1641 -0.2372
  782MOL0     C 5492   9.602   4.604   3.722 -0.3582  0.5416 -0.4829
  782MOL0     O 5493   9.540   4.726   3.704  0.8979  0.7353  0.3171
  782MOL0     C 5494   9.568   4.771   3.577 -0.7468 -0.0110  0.4289
  782MOL0     C 5495   9.437   4.786   3.499  0.4487 -0.8403  0.3728
  782MOL0     C 5496   9.424   4.924   3.435 -0.6319 -0.4534  0.6095
  782MOL0     C 5497   9.484   4.923   3.299  0.5100 -0.0524  0.6571
  782MOL0     C 5498   9.629   4.927   3.300 -0.0145 -0.1964  0.0303
  782MOL0     C 5499   9.744   4.926   3.316  0.0106  0.2984 -0.2830
  782MOL0     C 5500   9.739   4.614   3.751  0.5148 -0.0028 -0.6956
  782MOL0     C 5501   9.826   4.518   3.782 -0.4831 -0.4634  0.3126
  782MOL0     C 5502   9.964   4.564   3.826 -0.0703 -0.5769 -0.0857
  782MOL0     H 5503   9.653   3.951   3.764  1.4192  2.7676 -1.0228
  782MOL0     H 5504   9.719   3.704   3.839  0.2948 -0.7690 -1.3750
  782MOL0     H 5505   9.847   3.497   3.946  0.5286  0.4992  0.8363
  782MOL0     H 5506   9.824   3.519   3.769  1.9507 -0.0157 -1.0710
  782MOL0     H 5507  10.078   3.415   3.797 -0.6317  0.1661  1.5336
  782MOL0     H 5508   9.947   3.332   3.724  2.3846 -2.1756 -0.4633
  782MOL0     H 5509   9.865   3.231   3.912 -0.2784  0.8346  0.6996
  782MOL0     H 5510   9.978   3.329   4.014  0.7691 -1.6467  0.0842
  782MOL0     H 5511  10.044   3.131   3.805 -0.7094  1.8173 -1.0108
  782MOL0     H 5512  10.171   3.202   3.887 -1.3345  1.6521 -2.9415
  782MOL0     H 5513   9.950   3.016   4.007  0.3599 -2.2211  0.0707
  782MOL0     H 5514  10.119   2.972   3.970  0.1632 -0.7643  1.2558
  782MOL0     H 5515  10.071   3.178   4.185 -0.2657  0.0071 -1.5322
  782MOL0     H 5516  10.068   3.011   4.226 -2.1851  1.4377  1.1204
  782MOL0     H 5517  10.300   3.157   4.234 -0.1877 -1.2258  0.8486
  782MOL0     H 5518  10.311   3.114   4.065 -0.9268 -0.5750 -1.4292
  782MOL0     H 5519  10.272   2.932   4.317 -2.8012  0.4997 -0.7027
  782MOL0     H 5520  10.248   2.878   4.145  1.4341  0.4493 -0.4325
  782MOL0     H 5521  10.527   3.051   4.335 -1.5410 -1.3417  0.4603
  782MOL0     H 5522  10.847   2.858   4.219  0.7790  0.1616  0.1697
  782MOL0     H 5523  10.829   3.029   4.195 -0.6946  0.8115  0.2175
  782MOL0     H 5524  10.713   3.025   4.435 -0.9933 -1.3823 -0.1255
  782MOL0     H 5525  10.787   2.863   4.455  0.0825 -0.0749  0.5181
  782MOL0     H 5526  10.913   3.056   4.556 -0.1265  0.4673  0.1205
  782MOL0     H 5527  10.914   3.140   4.402 -5.0591 -0.6705  0.2733
  782MOL0     H 5528  11.075   3.036   4.319  0.4463 -2.3075 -0.7986
  782MOL0     H 5529  11.047   2.871   4.379  0.2813 -0.1145 -0.1216
  782MOL0     H 5530  11.354   2.963   4.655  2.1174  0.4730  0.3935
  782MOL0     H 5531  11.598   2.981   4.594 -1.2831 -2.5755  0.5057
  782MOL0     H 5532  11.965   2.812   4.473  0.0795  0.0052  0.3814
  782MOL0     H 5533  12.214   2.824   4.466 -0.1160 -1.1447 -2.3151
  782MOL0     H 5534  12.394   3.194   4.306  1.3936  1.0041 -0.2107
  782MOL0     H 5535  12.350   3.236   4.472  1.1087  1.0459 -0.8031
  782MOL0     H 5536  12.591   3.293   4.460 -0.2747 -0.7658 -0.3934
  782MOL0     H 5537  12.551   3.169   4.568  2.5695 -0.1200  0.1790
  782MOL0     H 5538  12.628   2.991   4.378 -0.9826  0.9781  1.6058
  782MOL0     H 5539  12.652   3.140   4.287 -1.5964  1.6741  0.6525
  782MOL0     H 5540  12.802   3.073   4.556  0.2911 -0.6458  0.1296
  782MOL0     H 5541  12.834   3.202   4.447  0.5028  0.1555  0.1618
  782MOL0     H 5542  12.986   3.051   4.368  0.1196  0.6627 -4.4176
  782MOL0     H 5543  12.844   3.017   4.264 -0.6831 -0.2454  0.8780
  782MOL0     H 5544  12.804   2.833   4.468  0.8566  2.3422  1.8478
  782MOL0     H 5545  12.893   2.800   4.317  1.5260 -0.8361  0.4469
  782MOL0     H 5546  13.012   2.748   4.557  0.5899  1.3132  0.7583
  782MOL0     H 5547  13.059   2.911   4.534 -3.1658  0.9262  0.8685
  782MOL0     H 5548  13.105   2.676   4.326  0.9649  0.4767 -1.6231
  782MOL0     H 5549  13.172   2.844   4.319 -0.8011 -0.8405 -1.5670
  782MOL0     H 5550  12.180   3.233   4.320  0.3479  0.2442  2.0436
  782MOL0     H 5551  11.947   3.201   4.299 -0.5255  0.9368  2.3170
  782MOL0     H 5552  11.471   3.064   4.184 -2.8054  1.4444 -0.0919
  782MOL0     H 5553  11.254   3.028   4.238 -1.9546  0.2667  1.1486
  782MOL0     H 5554  10.114   3.827   3.867  0.3004  0.8857  2.5409
  782MOL0     H 5555  10.055   4.070   3.789  0.5329 -0.8891 -1.0636
  782MOL0     H 5556   9.581   4.274   3.751 -0.2253 -0.0405 -2.4005
  782MOL0     H 5557   9.442   4.466   3.693  0.5205 -0.8482 -2.3997
  782MOL0     H 5558   9.646   4.717   3.523 -2.6417 -2.8096  0.2620
  782MOL0     H 5559   9.615   4.870   3.581  3.9338 -1.9153 -0.6911
  782MOL0     H 5560   9.348   4.787   3.563  1.1190 -1.2426  1.3376
  782MOL0     H 5561   9.413   4.700   3.436 -1.9926  0.1758 -0.2046
  782MOL0     H 5562   9.471   5.007   3.487 -1.3580  0.0876  0.4181
  782MOL0     H 5563   9.318   4.948   3.424 -1.1559 -2.0791  1.6248
  782MOL0     H 5564   9.446   4.840   3.238  0.5202  0.9663 -0.7715
  782MOL0     H 5565   9.445   5.007   3.242  0.2868 -2.4601 -3.1042
  782MOL0     H 5566   9.849   4.930   3.340 -0.3205  0.4406  1.2245
  782MOL0     H 5567   9.772   4.717   3.758 -1.0146  0.5669 -1.5266
  782MOL0     H 5568  10.021   4.506   3.898  1.0714  0.8382  0.1988
  782MOL0     H 5569  10.019   4.567   3.731 -1.3881  3.0882 -0.9050
  782MOL0     H 5570   9.962   4.661   3.877  0.0844 -0.7381  0.2245
  783MOL0     O 5571   3.906   2.346   3.954  0.5269  0.0854 -0.7722
  783MOL0     C 5572   3.803   2.274   3.944 -0.0366 -0.5196  0.8248
  783MOL0     O 5573   3.778   2.187   3.829 -0.0945 -0.4096  0.2111
  783MOL0     C 5574   3.836   2.215   3.702 -0.1465  0.4621 -0.2016
  783MOL0     C 5575   3.814   2.346   3.649 -1.1870 -0.3925 -0.0323
  783MOL0     C 5576   3.871   2.385   3.531 -0.3092 -0.4830 -0.0067
  783MOL0     C 5577   3.952   2.297   3.453 -0.3510 -0.5703 -0.7041
  783MOL0     O 5578   4.001   2.319   3.331 -0.1338 -0.7287  0.4106
  783MOL0     C 5579   3.968   2.447   3.277  0.6159 -0.3924 -0.0455
  783MOL0     C 5580   4.033   2.462   3.147 -0.8583  0.8950  0.6782
  783MOL0     C 5581   4.177   2.510   3.165 -0.0455  0.5297  0.4192
  783MOL0     C 5582   4.256   2.522   3.037 -0.3673 -0.7854 -0.7656
  783MOL0     C 5583   4.301   2.396   2.964 -0.1792 -0.5105 -1.0788
  783MOL0     C 5584   4.397   2.311   3.042 -0.0393  2.1688  0.0464
  783MOL0     C 5585   4.467   2.200   2.957 -0.1567  0.2246 -0.1187
  783MOL0     C 5586   4.383   2.080   2.896  0.0909 -1.0728 -0.1517
  783MOL0     N 5587   4.464   1.977   2.834 -0.2611  0.3317  0.6782
  783MOL0     C 5588   4.500   1.990   2.703 -0.0243 -0.4452  0.5830
  783MOL0     C 5589   4.575   1.884   2.675 -0.5847  0.2254 -0.0549
  783MOL0     C 5590   4.623   1.843   2.532 -0.3455  0.3765 -0.9668
  783MOL0     C 5591   4.749   1.922   2.486 -0.3253  0.4726  1.1519
  783MOL0     C 5592   4.871   1.902   2.579 -0.3340 -0.1464 -0.2238
  783MOL0     C 5593   4.941   1.769   2.547 -0.5201 -0.3304  0.3738
  783MOL0     O 5594   5.040   1.751   2.648 -0.3427 -0.0192 -0.3023
  783MOL0     C 5595   5.168   1.809   2.644 -0.1864 -0.0837  0.4603
  783MOL0     C 5596   5.248   1.798   2.750 -0.0706  0.2621 -0.0060
  783MOL0     C 5597   5.375   1.854   2.755  0.2972 -0.5065  0.1852
  783MOL0     C 5598   5.421   1.921   2.643 -0.3920  0.2195 -0.3356
  783MOL0     C 5599   5.565   1.968   2.643 -0.8853 -0.2521 -0.9586
  783MOL0     O 5600   5.637   1.960   2.756  0.1506 -1.1229 -0.1292
  783MOL0     C 5601   5.773   1.978   2.744 -0.3021 -0.2391 -0.6806
  783MOL0     C 5602   5.829   2.097   2.700 -0.3272  0.2714  0.2965
  783MOL0     C 5603   5.965   2.110   2.712  0.2371  0.1699 -0.3970
  783MOL0     C 5604   6.049   2.029   2.787  0.4811  0.2666  0.5505
  783MOL0     O 5605   6.178   2.061   2.823  0.1475  0.0768  0.6535
  783MOL0     C 5606   6.211   2.201   2.827 -1.0061  0.6312 -0.4948
  783MOL0     C 5607   6.353   2.234   2.892  0.2418  0.4383 -0.2084
  783MOL0     C 5608   6.455   2.248   2.782  0.1358 -0.6868  0.0385
  783MOL0     C 5609   6.563   2.339   2.841  0.0685 -0.3895  0.2500
  783MOL0     C 5610   6.679   2.335   2.738  0.5522  0.1199  0.8188
  783MOL0     C 5611   6.763   2.464   2.742  0.3602 -0.2456 -0.7781
  783MOL0     C 5612   6.875   2.464   2.848  0.1821 -0.2146  0.1659
  783MOL0     C 5613   6.923   2.610   2.852  0.3871 -0.0016  0.3137
  783MOL0    Cl 5614   7.084   2.636   2.937  0.0541 -0.4513  0.1879
  783MOL0     C 5615   5.996   1.900   2.815  0.6472  0.1254 -0.6632
  783MOL0     C 5616   5.856   1.874   2.794 -0.3934 -0.4611  0.4501
  783MOL0     O 5617   5.615   1.986   2.531  0.3991  0.0489 -0.2478
  783MOL0     C 5618   5.346   1.941   2.527  0.1948 -0.0226 -0.2356
  783MOL0     C 5619   5.217   1.888   2.535  0.7571 -0.0421  0.6578
  783MOL0     N 5620   4.587   1.814   2.796 -0.4916  0.0824  0.0919
  783MOL0     N 5621   4.518   1.869   2.889  0.3213  0.2353 -0.7471
  783MOL0     C 5622   3.990   2.176   3.511  0.4173  0.0316 -0.4845
  783MOL0     C 5623   3.934   2.134   3.640  0.8694 -0.9449  0.5302
  783MOL0     C 5624   3.693   2.285   4.041 -0.2874 -0.2060 -1.1702
  783MOL0     C 5625   3.741   2.286   4.179  0.0757 -0.4170  0.4648
  783MOL0     C 5626   3.643   2.298   4.278 -0.0775  0.4068  1.2459
  783MOL0     C 5627   3.502   2.305   4.254  0.3861  0.0444 -0.1385
  783MOL0     O 5628   3.422   2.331   4.364  0.0609  0.4333  0.2791
  783MOL0     C 5629   3.278   2.343   4.335 -1.0237  0.2852 -0.2769
  783MOL0     C 5630   3.210   2.370   4.473 -0.2421  0.2955  0.2769
  783MOL0     C 5631   3.223   2.249   4.575  0.5375 -0.6855  0.5213
  783MOL0     C 5632   3.158   2.273   4.711  0.9275  0.7559 -0.2832
  783MOL0     C 5633   3.010   2.297   4.713 -0.2225 -0.1200 -0.1571
  783MOL0     C 5634   2.890   2.318   4.713 -0.2813  0.3298 -0.4912
  783MOL0     C 5635   3.464   2.300   4.121 -0.8634  0.0326  0.8256
  783MOL0     C 5636   3.557   2.288   4.017  0.0127  0.4912  0.0026
  783MOL0     C 5637   3.509   2.283   3.873  0.7226  1.0716  0.0305
  783MOL0     H 5638   3.735   2.411   3.687 -1.7679 -1.0181 -0.1597
  783MOL0     H 5639   3.829   2.473   3.482 -1.2563 -0.6151  0.5398
  783MOL0     H 5640   3.862   2.470   3.259  0.3628  0.6371  2.3158
  783MOL0     H 5641   4.011   2.525   3.341 -0.5174  0.4669 -0.2852
  783MOL0     H 5642   3.982   2.543   3.094 -1.1657  0.5327  0.4229
  783MOL0     H 5643   4.026   2.369   3.089 -0.6024  0.4014  1.4256
  783MOL0     H 5644   4.234   2.449   3.235  2.8210  2.9695  0.4004
  783MOL0     H 5645   4.182   2.606   3.218 -0.2275  0.8311 -0.0966
  783MOL0     H 5646   4.193   2.584   2.973 -2.2934 -2.0223 -0.1505
  783MOL0     H 5647   4.350   2.572   3.063 -1.7189  0.8390  1.3832
  783MOL0     H 5648   4.208   2.340   2.949 -1.0574 -0.1625  2.4343
  783MOL0     H 5649   4.352   2.428   2.872  0.7370  0.0608 -0.3802
  783MOL0     H 5650   4.475   2.370   3.093 -0.2626  1.2853  1.4602
  783MOL0     H 5651   4.341   2.264   3.123 -1.5405  0.3966 -1.9175
  783MOL0     H 5652   4.539   2.157   3.027  1.1083 -0.5802 -1.8301
  783MOL0     H 5653   4.526   2.248   2.878 -1.1498  3.2580  0.8670
  783MOL0     H 5654   4.325   2.033   2.977  0.5577 -2.9728 -0.8693
  783MOL0     H 5655   4.314   2.107   2.816 -1.3122 -3.1733  0.2412
  783MOL0     H 5656   4.459   2.062   2.633  2.7791 -0.0112 -0.7620
  783MOL0     H 5657   4.642   1.735   2.531  0.4155  0.4709  0.4241
  783MOL0     H 5658   4.548   1.857   2.454 -1.3821  2.0965  0.2547
  783MOL0     H 5659   4.775   1.886   2.386  1.0370  1.0652  1.2569
  783MOL0     H 5660   4.723   2.026   2.465  1.1932  0.3571 -1.8421
  783MOL0     H 5661   4.842   1.898   2.684 -1.4035 -0.0059 -0.5010
  783MOL0     H 5662   4.947   1.979   2.568  0.8266 -1.2345 -0.1195
  783MOL0     H 5663   4.985   1.766   2.447 -1.9555 -1.5247 -0.2465
  783MOL0     H 5664   4.873   1.685   2.560  1.4709 -1.8278  1.9884
  783MOL0     H 5665   5.205   1.745   2.835  1.6133 -0.5349  0.4127
  783MOL0     H 5666   5.428   1.836   2.848  0.3943 -1.6916 -0.0896
  783MOL0     H 5667   5.777   2.179   2.653 -0.2660 -0.6216 -1.3947
  783MOL0     H 5668   5.998   2.206   2.675 -1.5503  0.9567 -0.0817
  783MOL0     H 5669   6.212   2.253   2.730 -3.1099 -0.0657 -0.9526
  783MOL0     H 5670   6.131   2.255   2.879  1.2945  2.2782  1.5422
  783MOL0     H 5671   6.337   2.330   2.941 -1.2622 -0.0404  0.2928
  783MOL0     H 5672   6.384   2.160   2.966 -0.5722  0.9900  0.7045
  783MOL0     H 5673   6.491   2.147   2.760  0.0197 -0.6330 -0.4034
  783MOL0     H 5674   6.412   2.296   2.694  4.4905  2.7270 -0.5476
  783MOL0     H 5675   6.602   2.285   2.928  0.2032 -1.5515 -0.5017
  783MOL0     H 5676   6.531   2.437   2.877 -4.4433 -0.9856 -1.4993
  783MOL0     H 5677   6.627   2.343   2.642 -1.0712  0.4513  1.6730
  783MOL0     H 5678   6.729   2.238   2.740  0.2562 -0.1604 -1.6134
  783MOL0     H 5679   6.806   2.486   2.644  0.5177 -0.8442 -0.8475
  783MOL0     H 5680   6.699   2.551   2.758  2.9478  1.6687 -0.1224
  783MOL0     H 5681   6.960   2.403   2.815  0.9401 -0.2016  1.9740
  783MOL0     H 5682   6.843   2.429   2.947  0.9468 -0.3133  0.3824
  783MOL0     H 5683   6.949   2.632   2.748 -0.5619 -2.9556 -0.6670
  783MOL0     H 5684   6.846   2.676   2.893  1.4694  2.2369 -1.1355
  783MOL0     H 5685   6.046   1.822   2.872  3.0123  1.0624 -1.3314
  783MOL0     H 5686   5.807   1.786   2.835  1.5200 -2.4803 -1.3132
  783MOL0     H 5687   5.385   1.996   2.442 -2.1349  2.6113  0.2521
  783MOL0     H 5688   5.163   1.892   2.441 -1.9765 -0.6573  2.1042
  783MOL0     H 5689   4.059   2.111   3.458  0.2740 -0.5491  0.0202
  783MOL0     H 5690   3.963   2.044   3.694 -1.7750 -1.5294  1.0805
  783MOL0     H 5691   3.846   2.293   4.202 -0.2232  0.2920  1.7109
  783MOL0     H 5692   3.672   2.313   4.382 -0.0764  4.0194  0.8755
  783MOL0     H 5693   3.239   2.250   4.293  0.6917 -1.2901  1.4643
  783MOL0     H 5694   3.260   2.418   4.257 -0.6240 -0.6254 -1.2550
  783MOL0     H 5695   3.105   2.386   4.450 -0.2054 -0.5298 -0.5299
  783MOL0     H 5696   3.249   2.467   4.507 -1.5912  0.7614  0.5346
  783MOL0     H 5697   3.329   2.239   4.602  1.0871  2.0095 -0.3070
  783MOL0     H 5698   3.194   2.153   4.531 -0.4821 -0.1914  0.0846
  783MOL0     H 5699   3.185   2.187   4.773  0.6011 -1.4821 -3.0791
  783MOL0     H 5700   3.210   2.364   4.745  2.4699  0.4426 -1.6895
  783MOL0     H 5701   2.787   2.345   4.712 -0.3369  0.3461  1.5128
  783MOL0     H 5702   3.359   2.292   4.096 -0.7171 -2.8045  0.7870
  783MOL0     H 5703   3.401   2.298   3.869  0.2361 -0.7795  3.0605
  783MOL0     H 5704   3.551   2.360   3.808 -1.8470  2.8244  0.3082
  783MOL0     H 5705   3.529   2.181   3.839 -1.8906 -0.1949  1.9356
  784MOL0     O 5706   1.338   0.314  10.007 -0.2212 -0.3518 -0.7155
  784MOL0     C 5707   1.380   0.286   9.899  0.5580  0.2064  0.0169
  784MOL0     O 5708   1.515   0.267   9.873 -0.0276  0.7123  0.2182
  784MOL0     C 5709   1.615   0.291   9.965  0.3046  0.1650  1.0168
  784MOL0     C 5710   1.637   0.211  10.073 -0.5143  0.6193  0.7281
  784MOL0     C 5711   1.734   0.245  10.171 -0.0917 -0.2756 -0.0199
  784MOL0     C 5712   1.796   0.366  10.164 -0.3519 -0.8551 -0.0171
  784MOL0     O 5713   1.878   0.403  10.269 -0.5115  0.7980  0.3888
  784MOL0     C 5714   1.854   0.538  10.323 -0.4755  0.1026  0.0144
  784MOL0     C 5715   1.923   0.554  10.462  0.0534  0.2711 -0.3125
  784MOL0     C 5716   2.073   0.515  10.465 -0.0909 -1.3187  0.4123
  784MOL0     C 5717   2.163   0.615  10.393  0.8722 -0.0430  0.3124
  784MOL0     C 5718   2.311   0.557  10.386 -1.1297  0.1121  0.1664
  784MOL0     C 5719   2.428   0.656  10.376 -1.2498  0.0604 -0.2289
  784MOL0     C 5720   2.555   0.601  10.309  0.2300 -0.6300 -0.3029
  784MOL0     C 5721   2.683   0.698  10.296 -0.8303  0.6904  0.3584
  784MOL0     N 5722   2.733   0.711  10.437 -0.3786 -1.1525 -0.6124
  784MOL0     C 5723   2.837   0.645  10.492 -0.4806  0.3986 -0.5110
  784MOL0     C 5724   2.851   0.703  10.616  0.1227 -0.2285 -0.6674
  784MOL0     C 5725   2.940   0.653  10.725 -1.2338 -0.3504 -0.2851
  784MOL0     C 5726   3.032   0.766  10.766  0.2268 -0.2088  0.0209
  784MOL0     C 5727   3.102   0.815  10.646  0.0847  0.1711  1.1386
  784MOL0     C 5728   3.219   0.914  10.692  0.4838  0.1706 -0.5609
  784MOL0     O 5729   3.180   1.046  10.754 -0.7435  0.4065 -0.2460
  784MOL0     C 5730   3.279   1.114  10.813  0.3853 -0.7679 -1.1417
  784MOL0     C 5731   3.403   1.072  10.853 -1.0240  0.2875 -0.1318
  784MOL0     C 5732   3.492   1.154  10.915  0.6444 -0.0135 -0.0612
  784MOL0     C 5733   3.454   1.285  10.950  0.3026 -0.4757 -0.1707
  784MOL0     C 5734   3.552   1.371  11.017  0.5321 -0.4633  0.1005
  784MOL0     O 5735   3.627   1.312  11.123  0.0614  0.2819  0.7110
  784MOL0     C 5736   3.742   1.373  11.172 -0.4862  0.3665 -0.3087
  784MOL0     C 5737   3.778   1.349  11.299  0.1719 -0.4300 -0.2869
  784MOL0     C 5738   3.893   1.407  11.347  0.1139 -0.4834  0.3139
  784MOL0     C 5739   3.970   1.499  11.271  0.1301 -0.0728 -0.9241
  784MOL0     O 5740   4.076   1.560  11.332 -0.8380 -0.5686 -0.1044
  784MOL0     C 5741   4.133   1.674  11.265  0.3046  0.7438  0.3938
  784MOL0     C 5742   4.232   1.743  11.363  0.2726 -0.6271  0.3591
  784MOL0     C 5743   4.270   1.882  11.310  0.6178 -0.2164  0.2627
  784MOL0     C 5744   4.350   1.876  11.180  0.4447 -0.5020 -0.2134
  784MOL0     C 5745   4.407   2.015  11.145 -0.2063  0.2407  0.8234
  784MOL0     C 5746   4.468   2.035  11.004 -0.8089  0.0279 -0.5484
  784MOL0     C 5747   4.522   2.179  10.994  0.1191  0.9904 -0.7346
  784MOL0     C 5748   4.566   2.204  10.843  0.1518  0.0379  0.7052
  784MOL0    Cl 5749   4.731   2.127  10.820  0.2927  0.1655 -0.0099
  784MOL0     C 5750   3.926   1.525  11.143 -0.0395 -0.0142  0.0352
  784MOL0     C 5751   3.816   1.457  11.089  0.2298 -0.0291  0.0262
  784MOL0     O 5752   3.548   1.493  10.995  0.1990  0.1856 -0.2286
  784MOL0     C 5753   3.323   1.333  10.911 -0.2325  0.3870 -0.3688
  784MOL0     C 5754   3.232   1.244  10.862  0.4318  0.3545 -0.1601
  784MOL0     N 5755   2.759   0.800  10.632 -0.1210  0.2049  0.1355
  784MOL0     N 5756   2.692   0.806  10.527  0.3381  0.9591 -0.5444
  784MOL0     C 5757   1.768   0.449  10.054  0.6845 -0.6951  0.6478
  784MOL0     C 5758   1.685   0.407   9.952  0.7171 -0.9826  0.1252
  784MOL0     C 5759   1.288   0.259   9.789  0.3215  0.8111 -0.4689
  784MOL0     C 5760   1.325   0.156   9.698  0.1050  0.8763  1.2968
  784MOL0     C 5761   1.233   0.137   9.590  0.2636 -0.4703  0.2432
  784MOL0     C 5762   1.111   0.198   9.585  0.0788  0.4978 -0.5246
  784MOL0     O 5763   1.028   0.178   9.469 -0.9019 -0.4149  0.4179
  784MOL0     C 5764   0.936   0.275   9.419  0.0892 -0.3114  0.2995
  784MOL0     C 5765   0.864   0.236   9.294  0.0824  0.4538 -0.3189
  784MOL0     C 5766   0.739   0.326   9.275 -0.5870 -0.6354  0.6184
  784MOL0     C 5767   0.688   0.327   9.134  0.4069  0.3314 -0.6057
  784MOL0     C 5768   0.655   0.185   9.099 -1.0862  0.4364 -0.4965
  784MOL0     C 5769   0.606   0.072   9.080  0.2160  0.0469 -0.3524
  784MOL0     C 5770   1.079   0.298   9.677 -0.5141  0.0541  0.2580
  784MOL0     C 5771   1.169   0.338   9.776  0.3296 -0.0851  0.4935
  784MOL0     C 5772   1.129   0.468   9.847 -1.3908 -0.6567 -0.0753
  784MOL0     H 5773   1.585   0.116  10.075 -0.8879  0.7455 -0.9987
  784MOL0     H 5774   1.752   0.167  10.244 -1.0645 -0.8113 -0.3424
  784MOL0     H 5775   1.900   0.603  10.248 -0.7035 -0.0572 -0.2658
  784MOL0     H 5776   1.748   0.563  10.331 -0.3010  0.2047  3.5746
  784MOL0     H 5777   1.869   0.490  10.532 -0.7328 -0.4293 -1.5133
  784MOL0     H 5778   1.916   0.659  10.493 -2.0083  1.6870 -4.7840
  784MOL0     H 5779   2.091   0.421  10.412  0.9108 -0.7229 -0.3325
  784MOL0     H 5780   2.110   0.500  10.567 -2.1144  1.4723  1.7051
  784MOL0     H 5781   2.125   0.635  10.292  1.3265 -1.6559 -0.2112
  784MOL0     H 5782   2.156   0.716  10.435 -2.2277 -0.1382  0.2735
  784MOL0     H 5783   2.326   0.506  10.481 -1.3400  3.1618  1.9610
  784MOL0     H 5784   2.323   0.487  10.303  0.3768  2.3620 -1.6496
  784MOL0     H 5785   2.391   0.737  10.312  2.0892 -0.3626 -2.9597
  784MOL0     H 5786   2.461   0.693  10.474 -0.8886  2.5509 -1.2313
  784MOL0     H 5787   2.517   0.569  10.212 -0.5131 -0.4944 -0.0645
  784MOL0     H 5788   2.587   0.510  10.361  2.4080  0.7890  1.0009
  784MOL0     H 5789   2.757   0.643  10.236  0.3762  0.6691  1.8072
  784MOL0     H 5790   2.665   0.801  10.263  1.7267  1.5036  1.2508
  784MOL0     H 5791   2.887   0.560  10.444  2.4689  2.1994 -0.8898
  784MOL0     H 5792   2.885   0.599  10.804  0.7718  1.3614  2.4576
  784MOL0     H 5793   3.013   0.587  10.678 -1.1669 -0.3377 -0.2004
  784MOL0     H 5794   2.974   0.842  10.819 -2.2355  0.0112 -2.7552
  784MOL0     H 5795   3.104   0.727  10.840 -1.5382 -2.2690  0.7676
  784MOL0     H 5796   3.034   0.869  10.580 -0.8006 -1.7419  0.4239
  784MOL0     H 5797   3.150   0.746  10.576  3.7526  2.4392  1.1018
  784MOL0     H 5798   3.287   0.928  10.608  0.2827 -1.0485 -0.9461
  784MOL0     H 5799   3.283   0.851  10.756 -1.0217 -0.7758  0.0838
  784MOL0     H 5800   3.439   0.973  10.826  1.3748  1.0936 -0.1912
  784MOL0     H 5801   3.583   1.104  10.947  0.8482  0.6326  0.3988
  784MOL0     H 5802   3.716   1.283  11.358 -2.1620  1.2948 -0.6876
  784MOL0     H 5803   3.936   1.389  11.445  2.0930  0.6386 -0.2967
  784MOL0     H 5804   4.186   1.633  11.179 -3.8450  0.6168 -2.3556
  784MOL0     H 5805   4.051   1.740  11.237 -0.8385 -0.1744  1.4321
  784MOL0     H 5806   4.167   1.753  11.451 -1.0927  1.6921 -0.7993
  784MOL0     H 5807   4.323   1.685  11.377  1.6199  0.5301 -2.7394
  784MOL0     H 5808   4.181   1.944  11.298 -0.5316 -2.0357 -1.1918
  784MOL0     H 5809   4.326   1.941  11.383  1.3207 -0.5948  0.0396
  784MOL0     H 5810   4.289   1.839  11.097  1.2013 -3.1733  0.3271
  784MOL0     H 5811   4.439   1.813  11.193 -0.3504 -1.7936 -0.8215
  784MOL0     H 5812   4.478   2.041  11.224  1.9148 -0.9811 -0.5835
  784MOL0     H 5813   4.330   2.092  11.159 -0.5263  0.5091 -1.8942
  784MOL0     H 5814   4.543   1.959  10.977 -0.8533 -0.3898  0.4736
  784MOL0     H 5815   4.396   2.020  10.922  2.0667 -1.2746 -3.0597
  784MOL0     H 5816   4.605   2.184  11.064  1.3016  0.1810 -2.0329
  784MOL0     H 5817   4.439   2.242  11.026 -0.2886 -0.8924  2.3092
  784MOL0     H 5818   4.494   2.171  10.768 -1.4944  1.7359  1.4467
  784MOL0     H 5819   4.586   2.312  10.845  2.3319 -0.2974 -0.3685
  784MOL0     H 5820   3.982   1.589  11.076 -0.5262 -2.6137 -3.1014
  784MOL0     H 5821   3.789   1.476  10.986 -0.6118  0.9495  0.4101
  784MOL0     H 5822   3.299   1.439  10.914 -1.8093  0.0383  2.0718
  784MOL0     H 5823   3.137   1.277  10.820 -0.0004  1.2204  1.4204
  784MOL0     H 5824   1.817   0.546  10.058 -1.5980  0.4884  3.4162
  784MOL0     H 5825   1.655   0.470   9.868  0.5092 -1.8490 -0.4686
  784MOL0     H 5826   1.416   0.097   9.691  0.1673  1.1469 -1.0712
  784MOL0     H 5827   1.260   0.057   9.522 -0.9670 -1.8275  1.2753
  784MOL0     H 5828   0.984   0.373   9.408 -0.5760 -0.1854 -1.9820
  784MOL0     H 5829   0.859   0.272   9.495  1.0810 -0.1425  1.3362
  784MOL0     H 5830   0.834   0.131   9.304 -0.4518  0.8053  3.9869
  784MOL0     H 5831   0.940   0.244   9.216  1.5031 -3.7377  0.4078
  784MOL0     H 5832   0.782   0.424   9.297  0.0869 -0.3003 -1.8578
  784MOL0     H 5833   0.661   0.314   9.351 -3.4879  2.8799 -1.5122
  784MOL0     H 5834   0.602   0.393   9.126 -0.6952 -1.2395 -2.6320
  784MOL0     H 5835   0.767   0.371   9.073  1.3308  0.4123  0.6100
  784MOL0     H 5836   0.574  -0.027   9.053  2.6397 -1.4340  1.7612
  784MOL0     H 5837   0.982   0.346   9.678 -1.2445 -1.2695 -1.3181
  784MOL0     H 5838   1.216   0.515   9.892 -2.2631  1.1224 -0.1451
  784MOL0     H 5839   1.109   0.543   9.769  1.3161  2.1663  1.7480
  784MOL0     H 5840   1.049   0.449   9.919 -0.6989  0.3103  0.9815
  785MOL0     O 5841  10.514  11.184   1.350  0.2736  0.0816 -0.2209
  785MOL0     C 5842  10.422  11.214   1.276  0.2900  0.7431 -0.8213
  785MOL0     O 5843  10.427  11.178   1.139  0.3377 -0.9389 -0.9875
  785MOL0     C 5844  10.544  11.135   1.079  0.2034 -0.6663  1.3152
  785MOL0     C 5845  10.639  11.227   1.047 -0.2666  0.1177  0.1072
  785MOL0     C 5846  10.758  11.190   0.979  0.0593 -0.2021  0.7140
  785MOL0     C 5847  10.770  11.059   0.936 -0.2417  0.0682  0.5581
  785MOL0     O 5848  10.877  11.024   0.860 -0.3872 -0.1287  0.6627
  785MOL0     C 5849  10.939  10.903   0.905 -0.4014 -0.0877  1.0181
  785MOL0     C 5850  11.045  10.872   0.799  1.0492  0.1270  0.0063
  785MOL0     C 5851  11.143  10.993   0.774  1.1800  0.2665 -0.2950
  785MOL0     C 5852  11.218  11.043   0.899  0.9942  0.1015 -0.3017
  785MOL0     C 5853  11.339  11.133   0.867 -0.2270 -0.3039 -0.5094
  785MOL0     C 5854  11.296  11.263   0.809 -0.2579  0.6321  0.6488
  785MOL0     C 5855  11.419  11.332   0.753 -0.3920  0.8055 -0.0179
  785MOL0     C 5856  11.377  11.423   0.639 -0.3551  0.8798 -0.1070
  785MOL0     N 5857  11.488  11.487   0.566 -0.4566 -0.3591  0.6418
  785MOL0     C 5858  11.538  11.609   0.589 -0.8060 -0.7599  0.1135
  785MOL0     C 5859  11.626  11.639   0.486  0.3269 -0.2710  0.3057
  785MOL0     C 5860  11.716  11.762   0.481 -0.4664 -0.1483 -0.8367
  785MOL0     C 5861  11.795  11.766   0.612  0.2371  0.5230  0.4284
  785MOL0     C 5862  11.899  11.649   0.625  0.5399 -0.2741 -0.6486
  785MOL0     C 5863  12.007  11.661   0.522 -0.2108  0.1539  0.2150
  785MOL0     O 5864  12.108  11.566   0.568 -0.0580  0.2704  0.0533
  785MOL0     C 5865  12.229  11.569   0.502  0.6239 -0.4417  0.1522
  785MOL0     C 5866  12.342  11.514   0.566  0.0968 -0.0447  0.2918
  785MOL0     C 5867  12.468  11.502   0.497 -0.2243  0.3339  0.3459
  785MOL0     C 5868  12.486  11.554   0.368  0.4443  0.1361 -0.6179
  785MOL0     C 5869  12.613  11.565   0.306  0.0725 -0.3719  0.3212
  785MOL0     O 5870  12.730  11.540   0.376 -1.3458 -0.1136  0.3915
  785MOL0     C 5871  12.854  11.588   0.318  1.1172  0.5822 -1.0152
  785MOL0     C 5872  12.924  11.513   0.227 -0.9077 -0.3164 -0.0303
  785MOL0     C 5873  13.043  11.576   0.175  0.1466 -0.2167 -0.7763
  785MOL0     C 5874  13.071  11.708   0.192  0.0418  0.0473 -0.2694
  785MOL0     O 5875  13.174  11.779   0.136  0.3445  0.4214 -0.3067
  785MOL0     C 5876  13.284  11.703   0.071 -0.6530 -0.1351  0.0016
  785MOL0     C 5877  13.410  11.783   0.125  0.0139 -0.8797  0.1267
  785MOL0     C 5878  13.550  11.722   0.103 -0.3745 -0.3747 -0.7471
  785MOL0     C 5879  13.654  11.835   0.152 -0.0582 -0.0715 -0.4836
  785MOL0     C 5880  13.800  11.793   0.154 -0.5324  0.8212 -0.1286
  785MOL0     C 5881  13.908  11.892   0.198 -0.0160  0.1915 -0.6388
  785MOL0     C 5882  14.046  11.857   0.153 -0.7868 -0.2042  0.1820
  785MOL0     C 5883  14.147  11.962   0.200  0.8133  0.1495  0.0024
  785MOL0    Cl 5884  14.155  11.953   0.380  0.0813  0.6733  0.4205
  785MOL0     C 5885  13.000  11.772   0.292  0.5510 -0.1954 -0.1981
  785MOL0     C 5886  12.889  11.719   0.351 -0.2661 -0.4408  0.2658
  785MOL0     O 5887  12.613  11.583   0.185 -0.0924  0.3889  0.7460
  785MOL0     C 5888  12.365  11.611   0.301 -0.3631 -0.1069 -0.0466
  785MOL0     C 5889  12.243  11.615   0.365  0.3436 -0.1015 -0.1733
  785MOL0     N 5890  11.625  11.526   0.410 -0.1525  0.0571  0.9050
  785MOL0     N 5891  11.540  11.437   0.449  0.0977 -0.1328 -0.1972
  785MOL0     C 5892  10.668  10.964   0.970 -0.8306 -0.1744  0.3500
  785MOL0     C 5893  10.555  11.007   1.041 -0.1109  0.4973  0.2561
  785MOL0     C 5894  10.324  11.310   1.337 -0.1360 -0.4484  1.1079
  785MOL0     C 5895  10.358  11.396   1.442  0.5677 -0.3939  0.4022
  785MOL0     C 5896  10.269  11.487   1.493  0.2775  0.7398 -0.0361
  785MOL0     C 5897  10.136  11.495   1.443 -0.2034  1.1152 -0.3737
  785MOL0     O 5898  10.038  11.580   1.494 -0.0751 -0.4100 -0.5629
  785MOL0     C 5899  10.089  11.688   1.570 -0.6666  0.4316 -0.0495
  785MOL0     C 5900   9.985  11.797   1.597 -0.1767 -0.0761  0.0964
  785MOL0     C 5901   9.887  11.751   1.701  0.1926 -0.0707 -0.0498
  785MOL0     C 5902   9.845  11.857   1.811  0.3781 -0.2887  0.6125
  785MOL0     C 5903   9.741  11.945   1.764  0.2381 -0.9447 -0.7503
  785MOL0     C 5904   9.649  12.011   1.717  0.0222 -0.2759 -0.2739
  785MOL0     C 5905  10.094  11.395   1.356 -0.6386 -0.7174  0.0881
  785MOL0     C 5906  10.187  11.303   1.297  0.0623  0.3980  0.0189
  785MOL0     C 5907  10.132  11.197   1.209 -0.1672 -0.4428 -0.9110
  785MOL0     H 5908  10.623  11.325   1.092 -0.6155 -0.9571  2.4377
  785MOL0     H 5909  10.840  11.259   0.964  1.1441 -1.2720  1.5494
  785MOL0     H 5910  10.980  10.924   1.004  0.7842  2.5742  0.0528
  785MOL0     H 5911  10.878  10.812   0.903  0.3119 -0.5624 -0.2289
  785MOL0     H 5912  10.992  10.864   0.704  3.2383  2.0622 -1.5032
  785MOL0     H 5913  11.096  10.778   0.817 -0.6194 -0.2669  3.6257
  785MOL0     H 5914  11.097  11.070   0.710 -2.1003  0.9867  2.6140
  785MOL0     H 5915  11.213  10.944   0.706 -0.9445 -1.4467 -1.3739
  785MOL0     H 5916  11.138  11.094   0.953 -3.7012 -2.5032 -3.9453
  785MOL0     H 5917  11.242  10.968   0.974 -2.6096 -1.7365 -0.7692
  785MOL0     H 5918  11.394  11.147   0.961  0.7909 -3.1988 -0.5737
  785MOL0     H 5919  11.401  11.070   0.802 -1.3521 -2.1010  0.0900
  785MOL0     H 5920  11.215  11.252   0.736 -3.3314  1.9915  3.5555
  785MOL0     H 5921  11.238  11.319   0.883 -2.4091  0.1924 -0.6152
  785MOL0     H 5922  11.483  11.256   0.707 -0.3316  0.9445 -0.1645
  785MOL0     H 5923  11.477  11.389   0.826 -2.7870  0.4722  2.2941
  785MOL0     H 5924  11.313  11.362   0.574 -0.0480 -0.1671  0.5559
  785MOL0     H 5925  11.309  11.501   0.675 -0.9746 -0.7195  2.4401
  785MOL0     H 5926  11.517  11.678   0.669  0.5595  0.1937 -0.3178
  785MOL0     H 5927  11.775  11.757   0.389  0.5249  0.0814 -0.2312
  785MOL0     H 5928  11.658  11.854   0.476  1.7425  1.2937 -1.4354
  785MOL0     H 5929  11.851  11.860   0.620  0.7824  0.2671 -0.2334
  785MOL0     H 5930  11.727  11.772   0.697 -0.2889 -1.8992  0.2525
  785MOL0     H 5931  11.855  11.549   0.627  2.4281 -1.2379  3.4972
  785MOL0     H 5932  11.936  11.668   0.726 -1.3342  0.2909 -0.0087
  785MOL0     H 5933  12.050  11.761   0.513 -1.3973  0.6999  0.4776
  785MOL0     H 5934  11.962  11.627   0.428  0.4345 -1.3432  0.4234
  785MOL0     H 5935  12.340  11.472   0.666 -1.6455  1.8844  1.1265
  785MOL0     H 5936  12.549  11.453   0.549  0.8784  2.5103  0.7735
  785MOL0     H 5937  12.894  11.410   0.209  1.3470 -0.5095 -3.4919
  785MOL0     H 5938  13.096  11.516   0.102 -1.5913 -1.3318 -1.1989
  785MOL0     H 5939  13.311  11.601   0.100  0.4093  0.1582  0.0837
  785MOL0     H 5940  13.274  11.717  -0.037  1.0712  0.7202 -0.0873
  785MOL0     H 5941  13.407  11.883   0.079  1.4090 -0.5757  0.6553
  785MOL0     H 5942  13.405  11.800   0.233  0.1507  2.0413 -0.2506
  785MOL0     H 5943  13.563  11.632   0.164  0.1716  0.6131  0.6247
  785MOL0     H 5944  13.565  11.701  -0.004 -0.0580 -0.6448 -0.6511
  785MOL0     H 5945  13.622  11.883   0.245  1.8591 -0.3780  0.3727
  785MOL0     H 5946  13.645  11.913   0.076 -3.5717  2.6093  2.3193
  785MOL0     H 5947  13.815  11.765   0.050 -0.3601 -1.7511  0.5022
  785MOL0     H 5948  13.802  11.693   0.201  0.5132  0.4512 -0.9315
  785MOL0     H 5949  13.881  11.989   0.154  0.2374  1.6547  2.2256
  785MOL0     H 5950  13.899  11.913   0.305 -0.6089  0.2588 -0.6993
  785MOL0     H 5951  14.050  11.850   0.044 -2.2448 -2.7277  0.2213
  785MOL0     H 5952  14.070  11.757   0.188 -1.0186 -0.8357 -1.3805
  785MOL0     H 5953  14.246  11.943   0.158 -0.4493 -0.2173 -3.1678
  785MOL0     H 5954  14.108  12.062   0.180 -3.7376 -1.6676 -1.6956
  785MOL0     H 5955  13.020  11.872   0.330 -0.6086 -0.4876  1.2418
  785MOL0     H 5956  12.840  11.777   0.428  0.7027 -1.2663  1.5662
  785MOL0     H 5957  12.365  11.633   0.194 -5.3633  2.7528  0.2218
  785MOL0     H 5958  12.156  11.626   0.301  1.0455 -0.5817 -1.2311
  785MOL0     H 5959  10.683  10.858   0.948 -1.5737 -0.4136  0.9499
  785MOL0     H 5960  10.482  10.941   1.087  1.6042 -1.7981 -0.1440
  785MOL0     H 5961  10.460  11.391   1.480  0.1426 -1.0094  1.5355
  785MOL0     H 5962  10.304  11.546   1.577  1.0443  1.4540 -0.8252
  785MOL0     H 5963  10.160  11.734   1.501 -0.5252  0.5811  0.1948
  785MOL0     H 5964  10.134  11.645   1.660  0.2632 -3.4384 -2.1501
  785MOL0     H 5965   9.935  11.818   1.501  0.0253  1.8147  0.3641
  785MOL0     H 5966  10.039  11.886   1.631  1.2334 -1.9269  3.0602
  785MOL0     H 5967   9.932  11.665   1.752  1.7002 -0.7161 -2.3442
  785MOL0     H 5968   9.795  11.727   1.647 -1.1652  2.3182  1.0245
  785MOL0     H 5969   9.798  11.809   1.898 -0.2381 -3.9728 -1.5478
  785MOL0     H 5970   9.934  11.914   1.838  0.8020 -0.0086 -1.2699
  785MOL0     H 5971   9.574  12.078   1.682  1.3609  1.2874 -0.3113
  785MOL0     H 5972   9.989  11.384   1.332 -1.2605  0.2340  2.1148
  785MOL0     H 5973  10.144  11.229   1.105  1.7346  0.5909 -0.4147
  785MOL0     H 5974  10.193  11.109   1.229 -0.1958 -1.3200 -4.0961
  785MOL0     H 5975  10.026  11.181   1.231  0.4741 -1.1179  1.9951
  786MOL0     O 5976   9.070   6.233   6.349  0.6105  0.4450 -0.7370
  786MOL0     C 5977   8.965   6.254   6.405 -0.0050 -0.7254 -1.2079
  786MOL0     O 5978   8.955   6.315   6.527 -0.5527 -0.9492 -0.3148
  786MOL0     C 5979   9.074   6.319   6.609  0.7140 -0.2202  0.8201
  786MOL0     C 5980   9.186   6.395   6.573 -0.5089  0.7309  1.0296
  786MOL0     C 5981   9.295   6.408   6.649 -0.9382 -0.2662  0.4505
  786MOL0     C 5982   9.305   6.327   6.764  0.1116 -0.1937 -0.2544
  786MOL0     O 5983   9.402   6.339   6.861 -0.2898 -0.5077 -0.6265
  786MOL0     C 5984   9.516   6.424   6.843  0.1543 -0.3404  0.0911
  786MOL0     C 5985   9.615   6.423   6.960 -0.3073 -0.2176 -0.0274
  786MOL0     C 5986   9.674   6.291   6.966 -0.4027 -0.2575 -0.2095
  786MOL0     C 5987   9.779   6.279   7.072 -0.0230  0.2801  0.2855
  786MOL0     C 5988   9.824   6.140   7.100  0.3078  0.3109 -0.5496
  786MOL0     C 5989   9.935   6.121   7.004  0.1317 -0.5205  0.2903
  786MOL0     C 5990   9.993   5.977   6.997  0.1780 -0.5965 -0.0402
  786MOL0     C 5991  10.058   5.948   7.128 -0.0856 -0.5776 -0.0785
  786MOL0     N 5992  10.114   5.814   7.123 -0.2870  0.9323 -0.5510
  786MOL0     C 5993  10.165   5.739   7.238  0.5563  0.2254 -0.4369
  786MOL0     C 5994  10.244   5.643   7.181 -0.9165  0.4256 -1.0367
  786MOL0     C 5995  10.349   5.558   7.267 -0.0961 -0.8878 -0.1603
  786MOL0     C 5996  10.474   5.508   7.193  0.3956  0.8538  0.3741
  786MOL0     C 5997  10.530   5.625   7.113  1.1318  0.3990 -0.0215
  786MOL0     C 5998  10.649   5.564   7.037 -0.4701  0.6743  0.4118
  786MOL0     O 5999  10.709   5.664   6.952  0.7200 -0.1052  0.2095
  786MOL0     C 6000  10.849   5.671   6.958  0.0991  0.1400 -0.3614
  786MOL0     C 6001  10.933   5.559   6.971  0.0163  0.4601  0.3033
  786MOL0     C 6002  11.064   5.587   6.991  0.2455  0.2655  0.9823
  786MOL0     C 6003  11.124   5.717   7.003 -1.1238  0.1910 -0.0038
  786MOL0     C 6004  11.272   5.730   7.020 -0.3417  0.2207 -0.2271
  786MOL0     O 6005  11.335   5.844   6.995  0.2797 -0.2204  0.2304
  786MOL0     C 6006  11.471   5.851   6.978  0.6978  0.0474  0.1152
  786MOL0     C 6007  11.520   5.978   6.954  1.3798 -0.3123  0.4827
  786MOL0     C 6008  11.656   6.010   6.947 -0.0261  0.4874  0.5278
  786MOL0     C 6009  11.749   5.909   6.980 -0.2065 -0.2284 -0.4851
  786MOL0     O 6010  11.878   5.951   6.989 -0.5026  0.2652  0.6108
  786MOL0     C 6011  11.973   5.867   7.057 -0.7647 -0.4412  0.5029
  786MOL0     C 6012  12.099   5.948   7.066 -1.1734 -0.6641 -0.5658
  786MOL0     C 6013  12.216   5.870   7.127  0.1617  0.4329 -0.1278
  786MOL0     C 6014  12.341   5.960   7.117  0.0686 -0.2743 -0.0848
  786MOL0     C 6015  12.463   5.878   7.082  0.3745  0.4054 -0.4757
  786MOL0     C 6016  12.595   5.934   7.144 -0.2059 -0.7925 -0.3087
  786MOL0     C 6017  12.709   5.825   7.121  0.3120 -0.4289 -1.2008
  786MOL0     C 6018  12.834   5.869   7.218  1.0061  0.3972 -0.8247
  786MOL0    Cl 6019  12.943   5.718   7.245 -0.0517 -0.0434 -0.2360
  786MOL0     C 6020  11.707   5.789   7.022 -0.1442 -0.6804  0.4747
  786MOL0     C 6021  11.573   5.758   7.020  0.2631  0.2995  0.2611
  786MOL0     O 6022  11.316   5.630   7.072  0.6314 -0.4727  0.2770
  786MOL0     C 6023  11.040   5.818   6.976 -0.3264  0.2869 -0.7229
  786MOL0     C 6024  10.901   5.799   6.957  0.7712 -0.1173  0.3114
  786MOL0     N 6025  10.234   5.650   7.042  0.5951 -0.1629 -0.1055
  786MOL0     N 6026  10.153   5.746   7.008 -0.0633  0.1111  0.2096
  786MOL0     C 6027   9.203   6.242   6.804  0.2595  0.1923 -0.4158
  786MOL0     C 6028   9.086   6.237   6.724 -0.2669  0.7551  0.4050
  786MOL0     C 6029   8.835   6.204   6.333 -0.5799  0.2287 -1.0110
  786MOL0     C 6030   8.851   6.178   6.189  0.8239 -0.8738 -0.5788
  786MOL0     C 6031   8.741   6.130   6.127  0.0966  0.7570 -0.3159
  786MOL0     C 6032   8.618   6.111   6.189  0.0462  0.3537  0.3050
  786MOL0     O 6033   8.512   6.060   6.118  0.0063  0.2713  0.0995
  786MOL0     C 6034   8.522   6.075   5.968 -0.6766  0.5243 -0.7332
  786MOL0     C 6035   8.391   6.029   5.908  0.5684 -0.3856  0.4127
  786MOL0     C 6036   8.267   6.111   5.955 -0.0103 -0.2831  0.0658
  786MOL0     C 6037   8.136   6.032   5.917  0.3376 -0.6651 -0.1928
  786MOL0     C 6038   8.111   6.019   5.771 -0.4465 -0.2300 -0.2681
  786MOL0     C 6039   8.078   6.005   5.659  0.2831  0.3628  0.3680
  786MOL0     C 6040   8.607   6.138   6.323  0.3928  0.1490 -0.4322
  786MOL0     C 6041   8.713   6.181   6.400 -0.1075 -0.1078 -0.4836
  786MOL0     C 6042   8.697   6.180   6.558  1.0336  0.6927 -0.1650
  786MOL0     H 6043   9.174   6.453   6.482 -0.3403  2.3460  1.9957
  786MOL0     H 6044   9.377   6.467   6.609 -2.3336  1.1789 -0.3895
  786MOL0     H 6045   9.570   6.404   6.750 -0.6426 -0.5742 -0.3346
  786MOL0     H 6046   9.484   6.528   6.832 -0.2138 -0.4868 -0.2416
  786MOL0     H 6047   9.571   6.457   7.054 -1.8896  0.4051 -0.9565
  786MOL0     H 6048   9.687   6.505   6.951 -2.3586  1.6963  0.1632
  786MOL0     H 6049   9.710   6.246   6.872  0.1043  0.4904 -0.3893
  786MOL0     H 6050   9.589   6.227   6.991 -1.7269  1.6496  0.4019
  786MOL0     H 6051   9.862   6.347   7.051  0.0036  0.0335 -0.4288
  786MOL0     H 6052   9.733   6.328   7.158  1.0701 -1.0597  1.6783
  786MOL0     H 6053   9.858   6.118   7.202 -1.6718  0.4477  0.1833
  786MOL0     H 6054   9.739   6.072   7.086 -0.6916  1.1106  1.1883
  786MOL0     H 6055   9.901   6.134   6.900  2.0211  1.2600 -0.1493
  786MOL0     H 6056  10.010   6.198   7.021 -2.1058  1.6459  0.9905
  786MOL0     H 6057  10.064   5.974   6.913 -0.2938  0.3474 -0.4798
  786MOL0     H 6058   9.926   5.892   6.981  4.0924 -3.4788 -3.1043
  786MOL0     H 6059  10.148   6.009   7.140  0.8155 -1.8003 -0.4019
  786MOL0     H 6060  10.003   5.956   7.223  0.2268 -1.3763  0.1834
  786MOL0     H 6061  10.153   5.771   7.341  0.6828 -1.3622  0.0989
  786MOL0     H 6062  10.375   5.608   7.361 -0.0280  2.1593 -1.7040
  786MOL0     H 6063  10.294   5.473   7.309 -1.5214  0.3154  0.4924
  786MOL0     H 6064  10.555   5.464   7.252 -0.7099 -1.4797  0.2727
  786MOL0     H 6065  10.443   5.424   7.129  1.4957  0.5776  0.1737
  786MOL0     H 6066  10.574   5.697   7.183  3.7307 -3.9708  3.2949
  786MOL0     H 6067  10.460   5.673   7.043 -1.8502 -0.9786  1.8165
  786MOL0     H 6068  10.617   5.474   6.984 -1.5703  0.5614  1.2411
  786MOL0     H 6069  10.730   5.544   7.108 -1.5981 -0.9809  1.2860
  786MOL0     H 6070  10.888   5.461   6.960  1.1769 -0.0682  0.1048
  786MOL0     H 6071  11.129   5.501   7.005  2.8607  2.0689  0.7453
  786MOL0     H 6072  11.453   6.063   6.939  1.2059 -0.4066  0.7298
  786MOL0     H 6073  11.707   6.104   6.926  0.8021  0.0046  0.3265
  786MOL0     H 6074  11.941   5.856   7.161 -1.3978 -0.0132  0.3588
  786MOL0     H 6075  11.974   5.768   7.009 -0.7107 -0.7486  1.1242
  786MOL0     H 6076  12.136   5.992   6.973  0.1700 -2.7932 -1.1032
  786MOL0     H 6077  12.082   6.032   7.134 -0.9521 -1.6236  0.7244
  786MOL0     H 6078  12.199   5.840   7.231 -0.5986 -0.8480 -0.5902
  786MOL0     H 6079  12.237   5.781   7.067 -0.6966 -0.1884  0.4605
  786MOL0     H 6080  12.349   6.010   7.215 -0.7517  0.6545 -0.4720
  786MOL0     H 6081  12.344   6.047   7.051  2.9461 -0.7645 -0.7478
  786MOL0     H 6082  12.478   5.870   6.974  0.4036 -2.6239 -0.3524
  786MOL0     H 6083  12.443   5.777   7.119 -0.3909  0.2739 -1.2029
  786MOL0     H 6084  12.617   6.024   7.086  0.2434 -2.0272 -2.1273
  786MOL0     H 6085  12.570   5.957   7.248  0.4413 -0.2565 -0.2653
  786MOL0     H 6086  12.731   5.825   7.014 -1.8634  2.4525 -1.7590
  786MOL0     H 6087  12.669   5.724   7.137  1.1461 -0.3102  2.3648
  786MOL0     H 6088  12.886   5.950   7.167 -1.9889  1.9655 -1.6666
  786MOL0     H 6089  12.800   5.903   7.316  1.3795 -2.4529  0.3971
  786MOL0     H 6090  11.778   5.720   7.066  2.2558  1.9457  1.0391
  786MOL0     H 6091  11.538   5.667   7.068  2.2995 -2.1047 -2.3973
  786MOL0     H 6092  11.089   5.915   6.979 -0.4132  0.3147  0.0109
  786MOL0     H 6093  10.841   5.889   6.950 -0.7847 -0.8599  2.7130
  786MOL0     H 6094   9.217   6.195   6.901 -1.2308  4.1224  1.9660
  786MOL0     H 6095   9.004   6.169   6.744  0.2249  0.1622  0.4572
  786MOL0     H 6096   8.945   6.204   6.141  1.0696 -2.2100 -0.8638
  786MOL0     H 6097   8.752   6.106   6.022  0.7662  0.5975 -0.2171
  786MOL0     H 6098   8.604   6.014   5.928  0.6046  0.1998  2.1197
  786MOL0     H 6099   8.539   6.178   5.936 -0.2362  0.8181  0.4129
  786MOL0     H 6100   8.356   5.927   5.926  0.9904 -1.0180 -2.0875
  786MOL0     H 6101   8.406   6.046   5.801  3.5685  2.3212  1.1072
  786MOL0     H 6102   8.268   6.206   5.902  1.7378  0.3389  1.1553
  786MOL0     H 6103   8.268   6.131   6.062  1.7357  1.5557 -0.2420
  786MOL0     H 6104   8.127   5.932   5.959  0.1179  0.4950  2.7760
  786MOL0     H 6105   8.048   6.090   5.946  0.9768  1.9411 -2.9373
  786MOL0     H 6106   8.043   5.979   5.561  0.7054 -1.1646  0.6080
  786MOL0     H 6107   8.510   6.117   6.368  1.8771  1.2306  3.6821
  786MOL0     H 6108   8.730   6.275   6.602 -1.6998  2.6704 -1.9642
  786MOL0     H 6109   8.593   6.163   6.588  0.7683  2.2496 -0.0934
  786MOL0     H 6110   8.751   6.089   6.582 -2.3887 -1.5102 -0.1040
  787MOL0     O 6111  10.177   1.157   1.159  0.0421 -0.0300 -0.5944
  787MOL0     C 6112  10.287   1.198   1.195  0.2410 -0.7862  0.3651
  787MOL0     O 6113  10.296   1.307   1.270  0.9412 -0.1093  0.0654
  787MOL0     C 6114  10.187   1.382   1.308  0.0321  0.4715 -0.0714
  787MOL0     C 6115  10.208   1.453   1.427  0.1502 -0.7094  0.0195
  787MOL0     C 6116  10.105   1.540   1.479 -0.2053 -1.1404 -1.1516
  787MOL0     C 6117   9.973   1.551   1.419 -0.1331 -0.2909  0.8996
  787MOL0     O 6118   9.880   1.623   1.485  0.5020 -0.0912 -0.9373
  787MOL0     C 6119   9.765   1.669   1.406  0.4387  0.5053 -0.1843
  787MOL0     C 6120   9.652   1.723   1.502  0.5058 -0.0659 -0.0796
  787MOL0     C 6121   9.515   1.726   1.434 -0.0673 -0.6150 -0.3310
  787MOL0     C 6122   9.403   1.765   1.529 -0.3920  0.1818  0.4353
  787MOL0     C 6123   9.265   1.763   1.460  0.1407 -0.1579  1.1923
  787MOL0     C 6124   9.145   1.754   1.551  0.5202  0.9031 -0.4019
  787MOL0     C 6125   9.017   1.752   1.464  0.5784 -0.9296  0.1279
  787MOL0     C 6126   8.888   1.768   1.542  0.3679  0.9390  0.0172
  787MOL0     N 6127   8.799   1.834   1.458 -0.3717 -0.2213 -0.4764
  787MOL0     C 6128   8.704   1.793   1.365 -0.1724 -0.1693 -0.2727
  787MOL0     C 6129   8.651   1.901   1.303  0.1412  0.0223  0.1245
  787MOL0     C 6130   8.545   1.918   1.201  0.0959 -0.7294  0.1615
  787MOL0     C 6131   8.573   1.841   1.071 -0.4896  0.2682  0.0351
  787MOL0     C 6132   8.676   1.904   0.978 -0.3937 -0.3165  0.1319
  787MOL0     C 6133   8.814   1.868   1.021 -0.7685  0.5136  0.2071
  787MOL0     O 6134   8.916   1.951   0.957 -0.5031 -0.0121  0.0810
  787MOL0     C 6135   9.054   1.916   0.968  0.9834 -0.7755  0.2467
  787MOL0     C 6136   9.097   1.832   1.068  0.0513  0.1849  0.7349
  787MOL0     C 6137   9.231   1.789   1.075  0.1672 -0.0053 -0.2946
  787MOL0     C 6138   9.336   1.851   0.998 -0.1589 -0.2985 -0.0987
  787MOL0     C 6139   9.474   1.814   1.005  0.2319  0.8603 -0.3850
  787MOL0     O 6140   9.571   1.889   0.945  0.0834  0.8653 -0.3815
  787MOL0     C 6141   9.699   1.839   0.952 -0.1137  0.6013  0.0491
  787MOL0     C 6142   9.736   1.709   0.922  0.3628 -0.3790 -0.2922
  787MOL0     C 6143   9.878   1.675   0.919 -0.2658 -0.0162  0.2158
  787MOL0     C 6144   9.972   1.773   0.955 -0.4699 -0.5051  0.0826
  787MOL0     O 6145  10.108   1.748   0.961  0.4675  0.3542  0.0907
  787MOL0     C 6146  10.178   1.771   1.088 -0.0554 -0.9481  0.8872
  787MOL0     C 6147  10.298   1.682   1.074 -0.2111 -0.4093 -0.1885
  787MOL0     C 6148  10.406   1.706   1.176  0.6336 -0.5742 -0.6483
  787MOL0     C 6149  10.521   1.604   1.166  0.1890 -0.1651  0.3265
  787MOL0     C 6150  10.632   1.637   1.266 -0.1915 -0.0290 -0.0338
  787MOL0     C 6151  10.765   1.569   1.254  0.3179  0.8703 -0.4711
  787MOL0     C 6152  10.752   1.411   1.249  0.2597  0.9123 -0.1070
  787MOL0     C 6153  10.885   1.345   1.252  0.7800 -0.2590  0.2169
  787MOL0    Cl 6154  10.954   1.357   1.414  0.3356  0.3444 -0.6385
  787MOL0     C 6155   9.927   1.894   1.011 -0.9414  0.2220 -0.0315
  787MOL0     C 6156   9.794   1.933   0.998  0.7843 -0.1476  0.2987
  787MOL0     O 6157   9.495   1.711   1.067  0.0907  0.0930  0.3487
  787MOL0     C 6158   9.290   1.956   0.908  0.5761 -1.0983  0.8994
  787MOL0     C 6159   9.153   1.986   0.890 -0.3411  1.8203  0.5977
  787MOL0     N 6160   8.721   2.004   1.366 -0.3828 -0.8291  0.0145
  787MOL0     N 6161   8.797   1.968   1.457  0.1142 -0.7632  0.2244
  787MOL0     C 6162   9.958   1.489   1.295  0.8378 -0.7978 -0.2508
  787MOL0     C 6163  10.060   1.406   1.246 -0.4252  0.5233  0.6475
  787MOL0     C 6164  10.402   1.111   1.155 -0.1898  0.8405 -0.2701
  787MOL0     C 6165  10.522   1.115   1.232 -0.7734  0.4352 -0.2077
  787MOL0     C 6166  10.627   1.032   1.209  0.3453 -0.5293  0.5034
  787MOL0     C 6167  10.619   0.937   1.101 -0.2352 -0.0386  0.5808
  787MOL0     O 6168  10.717   0.845   1.086  0.4591 -0.1100  0.5999
  787MOL0     C 6169  10.744   0.791   0.956  0.0411  0.5264 -0.3500
  787MOL0     C 6170  10.892   0.781   0.953  1.0768  0.3762 -0.0144
  787MOL0     C 6171  10.922   0.692   0.831  0.7268 -0.0784  0.1569
  787MOL0     C 6172  11.073   0.684   0.797 -0.9146  0.1607  0.7119
  787MOL0     C 6173  11.128   0.803   0.729 -0.9393  0.4350  0.0716
  787MOL0     C 6174  11.179   0.895   0.673 -0.0623 -0.3793 -0.5048
  787MOL0     C 6175  10.504   0.936   1.023 -0.3038  0.5107  0.0191
  787MOL0     C 6176  10.401   1.025   1.042  0.9722  0.4490 -0.0117
  787MOL0     C 6177  10.299   1.020   0.933  0.1783  0.8908  0.3577
  787MOL0     H 6178  10.305   1.444   1.474 -1.1642  0.2924  3.2227
  787MOL0     H 6179  10.133   1.579   1.576 -0.1529 -0.5845 -1.3885
  787MOL0     H 6180   9.790   1.740   1.327  0.6162 -0.4380 -1.0070
  787MOL0     H 6181   9.721   1.578   1.363  1.3252 -0.4601  0.8712
  787MOL0     H 6182   9.670   1.823   1.543 -4.4315  1.5147 -1.0985
  787MOL0     H 6183   9.648   1.644   1.577 -0.1157 -1.3539 -1.4164
  787MOL0     H 6184   9.487   1.634   1.382 -3.3506 -0.1562  0.4370
  787MOL0     H 6185   9.525   1.800   1.354  0.8503  1.5259  1.6256
  787MOL0     H 6186   9.403   1.697   1.615 -1.1753 -1.9413 -1.1529
  787MOL0     H 6187   9.424   1.863   1.573  0.2385 -0.0006  0.5561
  787MOL0     H 6188   9.257   1.867   1.430  1.1927 -1.0201 -2.5831
  787MOL0     H 6189   9.260   1.698   1.372 -0.1449  1.8012 -0.2954
  787MOL0     H 6190   9.141   1.659   1.606  0.1099  1.0702 -0.1304
  787MOL0     H 6191   9.151   1.841   1.617 -1.1618  1.0918 -0.4380
  787MOL0     H 6192   9.007   1.652   1.419 -1.9543 -0.3757 -0.7301
  787MOL0     H 6193   9.030   1.833   1.392 -1.1208  0.6749  1.5209
  787MOL0     H 6194   8.852   1.670   1.573  0.6981  1.5132  2.4515
  787MOL0     H 6195   8.886   1.820   1.638 -1.3367  1.3840 -0.2213
  787MOL0     H 6196   8.689   1.688   1.345  2.1662 -0.5928 -0.1003
  787MOL0     H 6197   8.453   1.870   1.238  0.2749  0.6469  2.6238
  787MOL0     H 6198   8.535   2.025   1.186  2.2159 -0.2173  1.9608
  787MOL0     H 6199   8.612   1.743   1.100 -0.6157  0.3531  0.4964
  787MOL0     H 6200   8.478   1.833   1.019 -0.1665 -1.7128 -0.3264
  787MOL0     H 6201   8.666   2.012   0.971  4.4479  0.5597  2.7043
  787MOL0     H 6202   8.659   1.864   0.877 -1.3158  1.5410 -0.4979
  787MOL0     H 6203   8.826   1.760   1.005 -2.6860  0.3334 -0.2199
  787MOL0     H 6204   8.824   1.886   1.129  0.6374 -3.0452  0.8450
  787MOL0     H 6205   9.034   1.779   1.138  0.7685 -0.5272  0.8532
  787MOL0     H 6206   9.249   1.709   1.146 -0.7898  0.4140  0.4297
  787MOL0     H 6207   9.661   1.641   0.882 -0.1101  1.2612 -2.3695
  787MOL0     H 6208   9.915   1.575   0.896  2.2464  0.6279  1.1899
  787MOL0     H 6209  10.216   1.873   1.089 -0.2764 -0.8673  1.2297
  787MOL0     H 6210  10.127   1.738   1.179  1.1371  0.4083  2.0934
  787MOL0     H 6211  10.280   1.574   1.062  1.8052 -0.5901 -2.2425
  787MOL0     H 6212  10.345   1.711   0.980  0.7929  1.4358  0.8265
  787MOL0     H 6213  10.447   1.807   1.176 -0.6820 -0.0311 -0.1863
  787MOL0     H 6214  10.362   1.696   1.275  0.0649  1.6914 -0.6279
  787MOL0     H 6215  10.558   1.626   1.065 -0.2749  1.0364  0.3988
  787MOL0     H 6216  10.488   1.501   1.160  2.2063 -1.0046  2.1276
  787MOL0     H 6217  10.594   1.620   1.367  2.2770  0.9805  1.1330
  787MOL0     H 6218  10.656   1.742   1.247  1.0849 -0.1930  0.5424
  787MOL0     H 6219  10.824   1.601   1.168  1.3498  1.7663  0.5228
  787MOL0     H 6220  10.823   1.607   1.340 -2.0598  0.3532  1.4734
  787MOL0     H 6221  10.697   1.372   1.163 -2.2674 -0.3531  1.9611
  787MOL0     H 6222  10.685   1.382   1.329 -0.3067  0.4395 -0.7401
  787MOL0     H 6223  10.872   1.241   1.222  2.1109  0.0477 -1.6250
  787MOL0     H 6224  10.952   1.393   1.180  0.9827 -1.4384 -0.4105
  787MOL0     H 6225  10.007   1.964   1.034  1.9834 -1.9691 -2.6910
  787MOL0     H 6226   9.760   2.034   1.020  0.6827 -0.4934  1.8015
  787MOL0     H 6227   9.363   2.019   0.859  0.5989 -0.9255  1.1520
  787MOL0     H 6228   9.119   2.060   0.818 -0.3029 -0.1227 -1.5419
  787MOL0     H 6229   9.872   1.514   1.234  1.0526  2.1830  0.5152
  787MOL0     H 6230  10.037   1.368   1.147  3.3554 -2.7714  0.7883
  787MOL0     H 6231  10.525   1.177   1.321  1.1964  1.7197 -1.1135
  787MOL0     H 6232  10.716   1.034   1.271  0.6952  1.2913  0.0099
  787MOL0     H 6233  10.706   0.862   0.882 -2.5741  0.2047  0.5786
  787MOL0     H 6234  10.711   0.688   0.943 -0.6225  0.5582  0.9297
  787MOL0     H 6235  10.932   0.731   1.042 -0.7440  0.9042  1.1499
  787MOL0     H 6236  10.924   0.886   0.960 -0.5522  0.7682  3.2487
  787MOL0     H 6237  10.877   0.737   0.742 -0.6363  0.8293  1.2600
  787MOL0     H 6238  10.880   0.592   0.849 -2.1675  1.1252  0.6651
  787MOL0     H 6239  11.123   0.659   0.890 -0.8594 -1.9325  0.1633
  787MOL0     H 6240  11.089   0.593   0.740 -2.4321 -0.6017  1.4302
  787MOL0     H 6241  11.221   0.984   0.630  1.6615 -0.4083  0.9872
  787MOL0     H 6242  10.489   0.871   0.937  0.1905  1.4861 -0.8308
  787MOL0     H 6243  10.209   0.963   0.958  0.3887 -0.3299 -1.4766
  787MOL0     H 6244  10.264   1.124   0.930  0.2104  0.8859 -1.0603
  787MOL0     H 6245  10.350   0.993   0.840 -0.8463 -1.8289  0.4987
  788MOL0     O 6246   8.821   6.100   4.751 -0.1209  0.0481 -0.4444
  788MOL0     C 6247   8.796   6.005   4.822  0.5167  0.1261 -0.1543
  788MOL0     O 6248   8.881   5.935   4.890 -0.1372  0.2705  0.4979
  788MOL0     C 6249   9.016   5.952   4.859  0.1888 -0.0996  0.9300
  788MOL0     C 6250   9.104   5.966   4.965  0.5764  0.7346  1.1842
  788MOL0     C 6251   9.246   5.998   4.943 -0.5463 -0.0559 -0.2474
  788MOL0     C 6252   9.285   6.018   4.807  0.0711 -0.2207 -0.1956
  788MOL0     O 6253   9.413   6.056   4.772  0.5071  0.1445  0.0570
  788MOL0     C 6254   9.477   6.157   4.851 -0.2365 -0.4123 -0.6380
  788MOL0     C 6255   9.595   6.091   4.928 -0.3127 -0.9167 -0.3551
  788MOL0     C 6256   9.685   6.194   4.989 -0.0481 -0.3803 -0.7244
  788MOL0     C 6257   9.825   6.150   5.000 -0.3650 -0.3342 -0.3482
  788MOL0     C 6258   9.922   6.268   4.994 -0.3934 -0.0290 -0.1633
  788MOL0     C 6259  10.065   6.224   5.036 -0.4756  0.2713 -0.1808
  788MOL0     C 6260  10.173   6.333   5.005 -0.3478  0.3817  0.1471
  788MOL0     C 6261  10.304   6.311   5.078 -0.3338  0.6368  0.0427
  788MOL0     N 6262  10.374   6.433   5.116 -0.3413 -0.1292 -0.3233
  788MOL0     C 6263  10.412   6.539   5.030  0.5028  0.6201  0.8752
  788MOL0     C 6264  10.477   6.623   5.111 -0.2112 -0.4661 -1.7758
  788MOL0     C 6265  10.542   6.748   5.050 -0.5698  0.3608  0.1376
  788MOL0     C 6266  10.639   6.818   5.148  0.4418  0.4876  0.2135
  788MOL0     C 6267  10.749   6.729   5.196 -0.8515  0.3200 -0.0790
  788MOL0     C 6268  10.873   6.812   5.230  0.2938 -0.6043  0.1950
  788MOL0     O 6269  10.961   6.727   5.308  0.8429  0.6023 -0.7206
  788MOL0     C 6270  11.072   6.779   5.369 -0.1303 -0.5983  0.3132
  788MOL0     C 6271  11.117   6.913   5.357  0.2326  0.1553  0.0498
  788MOL0     C 6272  11.237   6.953   5.420 -0.1607  0.1169  0.7954
  788MOL0     C 6273  11.310   6.869   5.505 -0.2373  0.7216 -0.2931
  788MOL0     C 6274  11.434   6.917   5.571  1.8049 -0.0128 -0.4374
  788MOL0     O 6275  11.478   6.845   5.679  0.2266 -0.3334 -0.9587
  788MOL0     C 6276  11.590   6.868   5.756  0.0291  1.0308  0.2575
  788MOL0     C 6277  11.657   6.757   5.807  0.1226 -0.2004 -0.8076
  788MOL0     C 6278  11.781   6.776   5.871  0.2235  0.4465  0.5842
  788MOL0     C 6279  11.833   6.902   5.909  0.0096 -0.1720 -0.1438
  788MOL0     O 6280  11.951   6.916   5.982  1.1578  0.3955 -0.1040
  788MOL0     C 6281  11.960   7.045   6.047 -0.5612 -0.2332 -0.0417
  788MOL0     C 6282  12.043   7.036   6.174  0.6329  0.2386  0.2852
  788MOL0     C 6283  12.085   7.181   6.212 -0.9209  0.2334  0.5060
  788MOL0     C 6284  12.194   7.157   6.318  1.2174  0.7604  0.1325
  788MOL0     C 6285  12.215   7.292   6.399 -0.1486 -0.3606  0.1197
  788MOL0     C 6286  12.319   7.290   6.516 -0.2450  0.1476  0.0581
  788MOL0     C 6287  12.426   7.180   6.493 -0.2886  0.0988 -0.8818
  788MOL0     C 6288  12.528   7.190   6.614 -0.1487  0.0612  0.5135
  788MOL0    Cl 6289  12.618   7.349   6.604 -0.0722 -0.0784  0.0551
  788MOL0     C 6290  11.764   7.017   5.850 -0.0997  0.1091 -0.1729
  788MOL0     C 6291  11.644   6.997   5.777  0.1203  0.1565 -0.2648
  788MOL0     O 6292  11.484   7.010   5.513 -0.8385  1.0467  0.2711
  788MOL0     C 6293  11.272   6.731   5.498 -0.3230  0.3239 -1.4637
  788MOL0     C 6294  11.145   6.690   5.437  0.9353  0.6559  0.3421
  788MOL0     N 6295  10.481   6.575   5.239 -0.1698 -0.0362 -0.2872
  788MOL0     N 6296  10.423   6.463   5.241  0.3775 -0.2744  0.3639
  788MOL0     C 6297   9.202   5.989   4.708 -0.0428 -0.1019  0.2264
  788MOL0     C 6298   9.067   5.960   4.729  0.1778  0.0402  0.6812
  788MOL0     C 6299   8.650   5.969   4.849  0.0598  0.1952 -0.1791
  788MOL0     C 6300   8.607   5.972   4.983  0.4767 -0.0637 -0.3175
  788MOL0     C 6301   8.480   5.927   5.007 -0.3417  0.1714 -0.4022
  788MOL0     C 6302   8.389   5.887   4.907 -0.3464  0.4434  0.3134
  788MOL0     O 6303   8.260   5.849   4.950  0.7597 -0.1472 -0.2173
  788MOL0     C 6304   8.158   5.813   4.856 -0.9284  0.2261  0.9055
  788MOL0     C 6305   8.093   5.946   4.794  0.3304  0.4646 -0.2180
  788MOL0     C 6306   7.972   5.926   4.703 -0.4375 -0.5716 -1.1947
  788MOL0     C 6307   7.890   6.061   4.671  0.1272 -0.2724  0.3594
  788MOL0     C 6308   7.775   6.037   4.582  0.0267  0.2450  0.1270
  788MOL0     C 6309   7.673   6.031   4.516 -0.2051 -0.8053  1.8590
  788MOL0     C 6310   8.431   5.901   4.778  0.6043  0.3230 -0.2931
  788MOL0     C 6311   8.566   5.929   4.750  0.7090  0.2763  0.0973
  788MOL0     C 6312   8.607   5.902   4.602 -0.0426 -0.0912 -0.6581
  788MOL0     H 6313   9.076   5.939   5.067  2.0902 -1.1384  1.1818
  788MOL0     H 6314   9.328   6.001   5.015  1.6839 -3.7983 -2.2704
  788MOL0     H 6315   9.515   6.230   4.779  0.2663  1.7769  1.6683
  788MOL0     H 6316   9.406   6.201   4.922 -2.0286 -3.0493 -0.6529
  788MOL0     H 6317   9.647   6.026   4.857  0.1718 -1.9845  0.9323
  788MOL0     H 6318   9.555   6.021   5.002  0.7060 -0.1588  0.9444
  788MOL0     H 6319   9.656   6.220   5.092  3.2020  3.4008 -0.5318
  788MOL0     H 6320   9.681   6.287   4.932 -2.2387 -1.6963 -2.9147
  788MOL0     H 6321   9.853   6.092   5.089  2.0449 -2.3510 -2.2769
  788MOL0     H 6322   9.851   6.073   4.927  1.5885 -1.3046  1.2452
  788MOL0     H 6323   9.923   6.311   4.894  2.6611 -1.3446 -0.8182
  788MOL0     H 6324   9.891   6.345   5.066  2.2009 -1.2658  2.5109
  788MOL0     H 6325  10.069   6.208   5.144 -0.2294  1.8391  0.0622
  788MOL0     H 6326  10.091   6.128   4.989  3.1511 -0.0396  2.1132
  788MOL0     H 6327  10.129   6.425   5.043 -2.4679 -0.2417 -0.6792
  788MOL0     H 6328  10.193   6.355   4.900  0.1260  1.8554  0.5152
  788MOL0     H 6329  10.283   6.256   5.170 -0.0888  1.3904  0.5618
  788MOL0     H 6330  10.368   6.256   5.009  0.4320 -0.1272  1.3206
  788MOL0     H 6331  10.396   6.548   4.923  1.2104  0.1339  0.7194
  788MOL0     H 6332  10.594   6.733   4.955 -0.8032  2.5059 -0.3814
  788MOL0     H 6333  10.460   6.818   5.030 -1.2644 -0.2566  0.7832
  788MOL0     H 6334  10.696   6.900   5.104  3.2901 -1.4935 -0.1114
  788MOL0     H 6335  10.584   6.857   5.234 -2.2265 -2.1640 -0.1188
  788MOL0     H 6336  10.771   6.657   5.117 -3.3619 -0.7655  0.1293
  788MOL0     H 6337  10.722   6.682   5.292 -0.5563 -0.2419 -0.2674
  788MOL0     H 6338  10.843   6.905   5.278  0.9700  1.4883 -3.1314
  788MOL0     H 6339  10.913   6.833   5.131  0.4216 -1.4396  0.0649
  788MOL0     H 6340  11.058   6.990   5.310 -1.1911 -0.7533  0.2687
  788MOL0     H 6341  11.280   7.052   5.431 -0.6947  0.4800 -0.2826
  788MOL0     H 6342  11.623   6.655   5.797 -0.5293 -0.1037  0.2638
  788MOL0     H 6343  11.837   6.687   5.898 -3.9673 -2.9448 -0.6987
  788MOL0     H 6344  12.013   7.114   5.981 -1.5326  0.4657 -0.1052
  788MOL0     H 6345  11.865   7.092   6.073 -0.0212  0.1564  1.3746
  788MOL0     H 6346  11.981   7.005   6.259  0.8276 -1.3206 -0.1135
  788MOL0     H 6347  12.127   6.972   6.147  3.1188  3.2533  0.2710
  788MOL0     H 6348  12.142   7.233   6.134 -0.1969  1.2317  1.6693
  788MOL0     H 6349  12.009   7.250   6.250  0.9248  1.8190  1.4913
  788MOL0     H 6350  12.279   7.121   6.261 -0.4791 -2.8168 -0.4161
  788MOL0     H 6351  12.171   7.078   6.390  2.7532  1.5296  1.5367
  788MOL0     H 6352  12.118   7.330   6.433 -1.0071 -1.4836 -0.9683
  788MOL0     H 6353  12.253   7.350   6.315  1.5596 -0.8001  0.5483
  788MOL0     H 6354  12.365   7.389   6.516  1.3770 -0.5755 -0.2189
  788MOL0     H 6355  12.271   7.281   6.614 -0.7969 -2.6788 -0.3890
  788MOL0     H 6356  12.473   7.208   6.398 -3.6083 -1.0469 -3.0449
  788MOL0     H 6357  12.373   7.084   6.494 -0.2371  0.0389  1.4235
  788MOL0     H 6358  12.470   7.176   6.706 -0.5112  0.4829  0.3567
  788MOL0     H 6359  12.593   7.102   6.610  1.3258  0.9825  2.4766
  788MOL0     H 6360  11.786   7.121   5.875 -0.1277 -0.0969  0.7320
  788MOL0     H 6361  11.581   7.081   5.750  1.2259  2.0370  2.5409
  788MOL0     H 6362  11.309   6.655   5.565 -0.6890  1.2559 -0.1764
  788MOL0     H 6363  11.116   6.586   5.446  3.8810 -0.2808 -0.1210
  788MOL0     H 6364   9.238   6.007   4.607  1.9415  2.8143  1.3044
  788MOL0     H 6365   8.994   5.947   4.650 -1.0246 -0.1857  1.7949
  788MOL0     H 6366   8.665   6.018   5.063 -1.1470 -0.9803  1.4854
  788MOL0     H 6367   8.442   5.938   5.108  1.1483  1.7912  0.0199
  788MOL0     H 6368   8.080   5.754   4.905  1.1900 -2.9817  0.7029
  788MOL0     H 6369   8.200   5.760   4.770  2.0855  0.0691  2.3378
  788MOL0     H 6370   8.170   6.001   4.740  0.6423 -0.8219 -1.1268
  788MOL0     H 6371   8.065   6.014   4.876  1.6420  2.1054 -1.0778
  788MOL0     H 6372   7.912   5.848   4.752  1.7917 -1.4946  0.2298
  788MOL0     H 6373   8.008   5.888   4.608 -1.5322 -1.5794 -1.2387
  788MOL0     H 6374   7.858   6.104   4.766  1.3854 -0.1464  0.7475
  788MOL0     H 6375   7.960   6.123   4.613  1.0112 -0.2786  1.3836
  788MOL0     H 6376   7.587   6.043   4.454  2.4536 -0.7220 -2.2406
  788MOL0     H 6377   8.365   5.890   4.692 -3.0048  1.7263  2.0570
  788MOL0     H 6378   8.631   5.797   4.589  0.0902 -0.4687  1.9779
  788MOL0     H 6379   8.519   5.921   4.540 -0.2967 -1.4826 -0.7411
  788MOL0     H 6380   8.694   5.960   4.571 -1.0617  0.0527 -3.4951
  789MOL0     O 6381   1.683   1.057  10.493  0.1410 -0.2676 -0.0358
  789MOL0     C 6382   1.623   1.152  10.441 -0.3045  0.0894  0.5139
  789MOL0     O 6383   1.687   1.259  10.381  0.2660  0.1768  0.2148
  789MOL0     C 6384   1.804   1.301  10.435  0.6032  0.2052  0.5831
  789MOL0     C 6385   1.894   1.369  10.349 -0.2008 -0.3053  0.3753
  789MOL0     C 6386   2.026   1.411  10.391  0.3388  0.1818  0.5992
  789MOL0     C 6387   2.062   1.397  10.525  0.2704 -0.1884 -0.1812
  789MOL0     O 6388   2.186   1.451  10.557 -0.4629 -0.2085  0.6268
  789MOL0     C 6389   2.254   1.400  10.677  0.5192 -1.4486  1.2810
  789MOL0     C 6390   2.383   1.484  10.692  0.3124 -0.2504  0.0106
  789MOL0     C 6391   2.477   1.444  10.579 -0.4520  0.9980  0.2749
  789MOL0     C 6392   2.584   1.548  10.566  0.1068  0.2826  0.3547
  789MOL0     C 6393   2.670   1.529  10.440  0.2454 -0.0863  0.9281
  789MOL0     C 6394   2.822   1.535  10.464  0.1382 -0.0980 -0.8602
  789MOL0     C 6395   2.877   1.678  10.496 -0.2172 -0.6334 -0.0445
  789MOL0     C 6396   3.008   1.671  10.561 -0.2137 -0.5370  0.1043
  789MOL0     N 6397   3.087   1.791  10.593 -0.2042 -0.8424 -0.6532
  789MOL0     C 6398   3.146   1.875  10.499  0.0264 -1.1255  0.1846
  789MOL0     C 6399   3.218   1.969  10.560 -0.1367  0.4099  0.1833
  789MOL0     C 6400   3.288   2.094  10.512 -1.1635 -0.3213 -0.5806
  789MOL0     C 6401   3.432   2.051  10.492 -0.3079 -0.0569  0.0098
  789MOL0     C 6402   3.509   2.181  10.466 -0.1477  0.2330 -0.0251
  789MOL0     C 6403   3.653   2.147  10.465 -0.5017 -0.3134 -0.3887
  789MOL0     O 6404   3.738   2.269  10.443  0.1647  0.3152 -0.3439
  789MOL0     C 6405   3.872   2.257  10.462 -0.4246  0.1024 -0.2394
  789MOL0     C 6406   3.939   2.131  10.496 -0.5589 -0.7972  0.3975
  789MOL0     C 6407   4.075   2.130  10.511  0.1704 -0.2425  0.1294
  789MOL0     C 6408   4.155   2.250  10.499  0.0471  0.0791 -0.5227
  789MOL0     C 6409   4.302   2.250  10.524  0.3043 -0.1712  1.1710
  789MOL0     O 6410   4.374   2.369  10.499 -0.0162  0.8203  0.2121
  789MOL0     C 6411   4.508   2.379  10.537 -0.3950 -0.0943  0.3999
  789MOL0     C 6412   4.553   2.512  10.569 -0.3134 -0.0009 -0.5727
  789MOL0     C 6413   4.689   2.537  10.580 -0.4329  0.3582 -0.1234
  789MOL0     C 6414   4.786   2.434  10.563 -0.9644 -0.5568 -0.2809
  789MOL0     O 6415   4.920   2.459  10.551  0.1962 -0.7239  0.2370
  789MOL0     C 6416   4.977   2.571  10.619  0.1634  0.1542 -0.0933
  789MOL0     C 6417   5.125   2.551  10.654 -0.7263  0.3472 -0.1894
  789MOL0     C 6418   5.203   2.522  10.515  0.3151 -0.5542  0.0912
  789MOL0     C 6419   5.273   2.650  10.459  0.0968  0.5692  0.4431
  789MOL0     C 6420   5.419   2.661  10.484  0.0735 -0.3623 -0.3888
  789MOL0     C 6421   5.450   2.675  10.640  0.4029  0.9206  0.2801
  789MOL0     C 6422   5.600   2.686  10.660 -0.2890 -0.3221 -0.5346
  789MOL0     C 6423   5.686   2.563  10.620 -0.4487 -0.5299  0.1546
  789MOL0    Cl 6424   5.718   2.556  10.439 -0.1906 -0.0427 -0.3089
  789MOL0     C 6425   4.740   2.304  10.534 -1.0418 -1.4510  0.1162
  789MOL0     C 6426   4.609   2.277  10.529  0.3154  0.3248 -0.4258
  789MOL0     O 6427   4.351   2.144  10.567 -0.0192  0.3100  0.8755
  789MOL0     C 6428   4.083   2.374  10.479  0.2103  0.7184 -0.6410
  789MOL0     C 6429   3.945   2.372  10.480 -0.2871  0.4225  0.1488
  789MOL0     N 6430   3.232   1.922  10.696  0.7471  0.2646  0.4520
  789MOL0     N 6431   3.148   1.824  10.709  0.2194  0.4220  0.5446
  789MOL0     C 6432   1.975   1.330  10.612 -0.3123  0.5157  0.4581
  789MOL0     C 6433   1.845   1.285  10.571 -0.2232 -0.5712  0.4121
  789MOL0     C 6434   1.477   1.148  10.416 -0.5073 -0.1632 -0.7234
  789MOL0     C 6435   1.415   1.255  10.340 -0.5035  0.0775  0.1206
  789MOL0     C 6436   1.280   1.255  10.306 -0.6430  0.2678  0.1002
  789MOL0     C 6437   1.199   1.146  10.343 -0.1369 -0.3387  1.2927
  789MOL0     O 6438   1.072   1.154  10.281 -0.5711 -0.8718  0.0893
  789MOL0     C 6439   0.986   1.040  10.295  0.3848  0.3552  0.8000
  789MOL0     C 6440   0.844   1.096  10.279  0.7883  0.6586  0.9974
  789MOL0     C 6441   0.751   0.972  10.274 -0.4988 -0.4195 -0.1508
  789MOL0     C 6442   0.737   0.907  10.415 -0.2649  0.3189 -0.0440
  789MOL0     C 6443   0.632   0.800  10.429  0.4667 -1.3096 -0.1987
  789MOL0     C 6444   0.547   0.712  10.438  0.3264  0.2371 -0.0914
  789MOL0     C 6445   1.253   1.050  10.429 -0.8617  0.5658 -0.7197
  789MOL0     C 6446   1.396   1.049  10.459  0.2515  0.0529 -0.6962
  789MOL0     C 6447   1.440   0.922  10.533 -0.3978 -0.6508 -0.5648
  789MOL0     H 6448   1.873   1.373  10.243 -0.9016 -0.4674  0.5077
  789MOL0     H 6449   2.094   1.461  10.323 -2.4599  2.2441 -0.8910
  789MOL0     H 6450   2.195   1.413  10.768 -0.7830 -0.9878  0.4006
  789MOL0     H 6451   2.275   1.293  10.678 -0.9427 -1.7588  2.0403
  789MOL0     H 6452   2.419   1.458  10.792 -0.1440 -1.5613 -0.1398
  789MOL0     H 6453   2.359   1.590  10.703 -0.5614 -0.4748  0.3880
  789MOL0     H 6454   2.419   1.440  10.486 -1.3117 -0.4186  0.8377
  789MOL0     H 6455   2.531   1.350  10.593 -3.8434 -0.8563  2.6154
  789MOL0     H 6456   2.540   1.648  10.565  0.0613  0.2780 -1.1130
  789MOL0     H 6457   2.648   1.542  10.654 -1.5256  1.8502  1.7377
  789MOL0     H 6458   2.647   1.431  10.397  2.4807  0.8257 -2.7650
  789MOL0     H 6459   2.657   1.612  10.370 -0.4868 -0.8501  0.1456
  789MOL0     H 6460   2.852   1.461  10.539  0.6480  1.7568  0.8391
  789MOL0     H 6461   2.874   1.498  10.375  0.0276  0.7845 -1.2966
  789MOL0     H 6462   2.811   1.713  10.576 -0.9548  0.2659 -1.0124
  789MOL0     H 6463   2.881   1.751  10.415 -3.7762  1.2831  1.2675
  789MOL0     H 6464   3.001   1.610  10.651 -1.9176 -0.3537  0.1307
  789MOL0     H 6465   3.076   1.617  10.495  0.0866 -1.6753  1.3186
  789MOL0     H 6466   3.127   1.869  10.392  0.9220 -0.2955 -0.0369
  789MOL0     H 6467   3.250   2.134  10.417  1.7297  0.0140 -1.6782
  789MOL0     H 6468   3.282   2.173  10.587  0.0195  1.1161 -1.9562
  789MOL0     H 6469   3.468   2.008  10.586 -0.6946  1.0513  0.6758
  789MOL0     H 6470   3.426   1.983  10.406 -0.2896 -1.3290  0.9817
  789MOL0     H 6471   3.490   2.249  10.550 -0.8596  0.3403 -0.2744
  789MOL0     H 6472   3.472   2.219  10.371 -1.5250  1.0709  0.8169
  789MOL0     H 6473   3.682   2.077  10.387  1.5434  1.6492 -1.5169
  789MOL0     H 6474   3.672   2.097  10.560 -2.1337 -2.2387 -1.0105
  789MOL0     H 6475   3.878   2.041  10.500  0.5801 -1.6017 -0.0027
  789MOL0     H 6476   4.122   2.036  10.536  2.1787  0.6673  0.0040
  789MOL0     H 6477   4.480   2.592  10.568  0.4315  0.7127 -2.2970
  789MOL0     H 6478   4.727   2.638  10.592  0.2316  0.2537 -1.1597
  789MOL0     H 6479   4.959   2.659  10.557  2.4361 -0.5959 -1.9451
  789MOL0     H 6480   4.918   2.583  10.710  1.3456  1.1065  0.5620
  789MOL0     H 6481   5.175   2.639  10.696 -0.2256 -0.0855  0.1346
  789MOL0     H 6482   5.131   2.462  10.718  2.0711  0.5362 -0.0826
  789MOL0     H 6483   5.273   2.441  10.537  0.5197  0.1625  2.3509
  789MOL0     H 6484   5.132   2.483  10.441  0.5951  0.2708 -0.6240
  789MOL0     H 6485   5.228   2.741  10.502  2.6076  1.7883  0.6825
  789MOL0     H 6486   5.253   2.651  10.351 -0.3141 -0.3641  0.5083
  789MOL0     H 6487   5.459   2.748  10.430  1.2564  0.1030  1.1511
  789MOL0     H 6488   5.456   2.565  10.447  1.0050 -0.4428  0.6868
  789MOL0     H 6489   5.396   2.763  10.678 -0.2034  1.1109 -0.9517
  789MOL0     H 6490   5.414   2.588  10.695  0.5040  0.7728  0.1115
  789MOL0     H 6491   5.615   2.713  10.765  2.2386 -2.7944 -0.1438
  789MOL0     H 6492   5.639   2.765  10.596  2.2335 -2.1039 -1.3101
  789MOL0     H 6493   5.788   2.578  10.657  1.1488 -2.4866 -3.1070
  789MOL0     H 6494   5.650   2.467  10.658 -0.2874 -1.3302 -1.6155
  789MOL0     H 6495   4.809   2.221  10.517  0.6584  0.2878 -2.2462
  789MOL0     H 6496   4.578   2.175  10.507 -2.2899  0.8279  0.6200
  789MOL0     H 6497   4.134   2.470  10.480  1.4910  0.0567 -0.4271
  789MOL0     H 6498   3.886   2.463  10.472  0.0674  0.6555  0.1646
  789MOL0     H 6499   2.002   1.325  10.717 -1.4977  0.0811  0.7540
  789MOL0     H 6500   1.778   1.240  10.642 -1.8536  1.0187 -0.0448
  789MOL0     H 6501   1.470   1.344  10.310  1.3082 -0.8775  0.4669
  789MOL0     H 6502   1.238   1.340  10.253  3.5505  2.2549 -0.4571
  789MOL0     H 6503   0.998   0.993  10.393  3.5950 -2.3679 -0.7058
  789MOL0     H 6504   1.017   0.965  10.222  0.6557  0.2377  1.0373
  789MOL0     H 6505   0.837   1.156  10.188  0.6218 -0.9868 -0.1217
  789MOL0     H 6506   0.809   1.156  10.364 -3.3970 -1.4171  0.9695
  789MOL0     H 6507   0.782   0.903  10.196 -0.8418 -1.9335  0.9888
  789MOL0     H 6508   0.649   0.998  10.244 -0.5202 -1.1587 -0.7416
  789MOL0     H 6509   0.831   0.861  10.448  0.8405  3.6782  2.0024
  789MOL0     H 6510   0.726   0.989  10.487  1.6787  1.1756 -0.6546
  789MOL0     H 6511   0.473   0.636  10.443 -1.0086  1.5642  1.4251
  789MOL0     H 6512   1.190   0.967  10.460 -1.7132  1.7450  0.8861
  789MOL0     H 6513   1.494   0.957  10.621  0.3291 -1.0393 -0.8533
  789MOL0     H 6514   1.353   0.870  10.574  0.2810 -0.7095  0.8577
  789MOL0     H 6515   1.511   0.852  10.487  2.1559  1.5926 -0.2696
  790MOL0     O 6516   5.438  10.020   0.612  0.5337  0.1911  0.5603
  790MOL0     C 6517   5.460  10.106   0.702  0.6537  0.8138  1.7817
  790MOL0     O 6518   5.361  10.197   0.743  0.1974 -0.6059  0.5008
  790MOL0     C 6519   5.233  10.184   0.697 -0.3486 -0.1395 -0.0893
  790MOL0     C 6520   5.132  10.192   0.783  0.5463 -0.0286 -0.7270
  790MOL0     C 6521   4.999  10.198   0.740 -0.4178  0.5180 -0.1220
  790MOL0     C 6522   4.974  10.170   0.606  0.7620 -0.1981  0.5900
  790MOL0     O 6523   4.837  10.160   0.586  0.3705  0.1978  1.3687
  790MOL0     C 6524   4.789  10.183   0.456  0.2569  0.0472  0.9871
  790MOL0     C 6525   4.631  10.168   0.466 -0.7239 -0.3726 -0.7995
  790MOL0     C 6526   4.569  10.289   0.527 -0.1971 -0.4978 -0.0711
  790MOL0     C 6527   4.418  10.271   0.495 -0.0361 -0.2473 -0.4090
  790MOL0     C 6528   4.332  10.382   0.555 -0.5269  0.6415  0.0796
  790MOL0     C 6529   4.182  10.363   0.553 -0.3616  1.1238 -0.1828
  790MOL0     C 6530   4.133  10.288   0.677  0.4621 -0.0264  0.1326
  790MOL0     C 6531   4.106  10.137   0.662 -0.2602  0.5498  0.0384
  790MOL0     N 6532   4.012  10.109   0.553 -0.0574 -0.1720  0.1579
  790MOL0     C 6533   3.876  10.115   0.566  0.5118 -0.3599 -0.7927
  790MOL0     C 6534   3.830  10.058   0.459  0.2998 -0.3412  0.5314
  790MOL0     C 6535   3.679  10.018   0.448 -0.7928 -0.2092  0.1703
  790MOL0     C 6536   3.603  10.120   0.377  0.1247  0.2135 -0.2856
  790MOL0     C 6537   3.454  10.099   0.403  0.4038  0.9437  0.5455
  790MOL0     C 6538   3.371  10.187   0.309  0.2455  0.4542  0.0088
  790MOL0     O 6539   3.304  10.295   0.379 -0.3045  0.1070 -0.1451
  790MOL0     C 6540   3.358  10.422   0.360  0.6553  0.1407 -0.9452
  790MOL0     C 6541   3.387  10.471   0.227  0.3284 -0.6741  0.4145
  790MOL0     C 6542   3.465  10.580   0.206 -0.8187  0.2633 -0.2467
  790MOL0     C 6543   3.517  10.657   0.315 -0.0267  0.2632 -1.1235
  790MOL0     C 6544   3.599  10.779   0.297  0.1604  0.2165  1.2508
  790MOL0     O 6545   3.621  10.817   0.168 -0.5543  0.5686  0.0217
  790MOL0     C 6546   3.687  10.931   0.128 -0.2790 -0.4272 -0.1360
  790MOL0     C 6547   3.672  11.063   0.185 -0.2584  0.2706 -0.0385
  790MOL0     C 6548   3.730  11.176   0.134 -0.5290  0.5256 -0.4025
  790MOL0     C 6549   3.821  11.161   0.029  0.3939  0.0982  0.2967
  790MOL0     O 6550   3.873  11.272  -0.037 -1.1922 -0.2550 -0.0584
  790MOL0     C 6551   3.891  11.396   0.025  0.0025 -1.0246 -0.5938
  790MOL0     C 6552   4.018  11.461  -0.015  0.5927 -0.7513 -0.1821
  790MOL0     C 6553   4.023  11.612   0.032  0.6131  0.2588  0.2047
  790MOL0     C 6554   4.139  11.684  -0.035  0.2790  0.3308 -1.1871
  790MOL0     C 6555   4.265  11.653   0.043  0.2778  0.9825 -0.3692
  790MOL0     C 6556   4.377  11.752  -0.006  0.5124 -0.1336 -0.0689
  790MOL0     C 6557   4.512  11.707   0.042  0.0515 -0.3936 -0.4131
  790MOL0     C 6558   4.601  11.830   0.039  0.4862  0.3774  0.4599
  790MOL0    Cl 6559   4.550  11.966   0.157  0.8009 -0.1211  0.2151
  790MOL0     C 6560   3.845  11.032  -0.026 -0.3209  0.2638  0.0657
  790MOL0     C 6561   3.782  10.924   0.019  0.7951  0.1433 -0.7169
  790MOL0     O 6562   3.644  10.838   0.390  0.4979  0.9578 -0.0596
  790MOL0     C 6563   3.482  10.619   0.447  0.4959 -0.4755  0.7582
  790MOL0     C 6564   3.407  10.502   0.464 -0.1091  0.6217 -0.2977
  790MOL0     N 6565   3.936  10.042   0.371  0.0693  0.0512 -0.1653
  790MOL0     N 6566   4.044  10.085   0.425  0.5321 -0.2391 -0.2806
  790MOL0     C 6567   5.074  10.162   0.514 -0.8757  0.1836 -0.0325
  790MOL0     C 6568   5.203  10.177   0.561 -0.6175 -0.7491  0.0646
  790MOL0     C 6569   5.584  10.108   0.761 -0.6517 -0.2096  0.5081
  790MOL0     C 6570   5.701  10.098   0.680  0.0257  0.5889 -0.1228
  790MOL0     C 6571   5.827  10.095   0.739 -0.4031  0.1925 -0.1995
  790MOL0     C 6572   5.840  10.101   0.877  0.3311 -0.4039 -0.1143
  790MOL0     O 6573   5.969  10.101   0.921 -0.1460  0.1577  1.0922
  790MOL0     C 6574   5.993  10.132   1.060  0.0572 -0.3478  0.5383
  790MOL0     C 6575   6.138  10.144   1.092  0.0183 -0.0121  0.1121
  790MOL0     C 6576   6.185  10.285   1.062  0.2219  0.1651 -0.4208
  790MOL0     C 6577   6.333  10.285   1.050 -0.1279  0.1154 -0.3040
  790MOL0     C 6578   6.374  10.431   1.034 -0.2359  0.6361 -0.1276
  790MOL0     C 6579   6.396  10.547   1.016  0.6625 -0.8639 -0.2088
  790MOL0     C 6580   5.726  10.117   0.960 -0.1411  0.3607 -0.5111
  790MOL0     C 6581   5.595  10.117   0.900 -1.0788  0.2916  0.0709
  790MOL0     C 6582   5.483  10.142   0.992  0.7964  1.1277  1.0029
  790MOL0     H 6583   5.147  10.216   0.888 -2.1229 -1.1837 -0.0163
  790MOL0     H 6584   4.912  10.210   0.805 -0.5493 -1.8756  0.2173
  790MOL0     H 6585   4.812  10.275   0.402 -2.0003 -0.7467 -1.5792
  790MOL0     H 6586   4.825  10.101   0.393  2.9823  3.1846 -1.9493
  790MOL0     H 6587   4.589  10.092   0.532 -1.7776  0.5780 -0.3357
  790MOL0     H 6588   4.591  10.148   0.367 -4.3109 -2.1279  0.8461
  790MOL0     H 6589   4.605  10.386   0.491  0.2852 -0.7589 -0.2904
  790MOL0     H 6590   4.577  10.283   0.636 -0.8231  1.7102  0.1573
  790MOL0     H 6591   4.399  10.261   0.388  2.1412  0.2849 -0.8864
  790MOL0     H 6592   4.385  10.177   0.541 -2.7762  1.7836  2.2478
  790MOL0     H 6593   4.377  10.398   0.654  0.6598  0.8157 -0.4752
  790MOL0     H 6594   4.351  10.474   0.500  1.8148  1.3262  1.8781
  790MOL0     H 6595   4.133  10.459   0.571  2.2456  2.0960  2.5491
  790MOL0     H 6596   4.150  10.318   0.459 -1.0397 -1.6324  1.2641
  790MOL0     H 6597   4.036  10.332   0.699 -0.5560 -1.8622 -0.4463
  790MOL0     H 6598   4.199  10.312   0.761  3.5500 -0.4821 -1.9777
  790MOL0     H 6599   4.196  10.074   0.656 -0.5108  0.2104 -0.1963
  790MOL0     H 6600   4.063  10.097   0.754  2.8018 -0.9945  0.9463
  790MOL0     H 6601   3.828  10.121   0.663  2.7270  1.7048  0.2747
  790MOL0     H 6602   3.675   9.928   0.386  0.8001  0.2668 -0.6770
  790MOL0     H 6603   3.651  10.011   0.554  0.8477  2.0516  0.8517
  790MOL0     H 6604   3.638  10.221   0.400  0.0023 -0.0676  1.2188
  790MOL0     H 6605   3.624  10.113   0.270 -1.9217  0.6017 -0.7640
  790MOL0     H 6606   3.416  10.123   0.502 -2.8095  1.5392 -0.6933
  790MOL0     H 6607   3.433   9.992   0.399 -0.7195  1.1199  1.3524
  790MOL0     H 6608   3.292  10.127   0.264  0.7176  0.5862 -1.0245
  790MOL0     H 6609   3.434  10.212   0.224 -0.8131  1.4345 -0.5151
  790MOL0     H 6610   3.337  10.415   0.148 -2.0547  1.1587  0.5207
  790MOL0     H 6611   3.466  10.614   0.103 -0.9524  1.9600  0.2734
  790MOL0     H 6612   3.588  11.064   0.254 -1.3335 -1.5341 -1.2451
  790MOL0     H 6613   3.715  11.275   0.175 -0.9113  0.4361 -0.3205
  790MOL0     H 6614   3.808  11.463   0.001  0.3794 -0.8531 -1.4632
  790MOL0     H 6615   3.886  11.380   0.133  2.2908 -1.4815 -0.4940
  790MOL0     H 6616   4.100  11.407   0.033 -0.7254 -2.0074  0.7255
  790MOL0     H 6617   4.027  11.455  -0.124 -1.1818 -0.3123 -0.3809
  790MOL0     H 6618   3.936  11.673   0.005  1.8450  0.7613 -3.0957
  790MOL0     H 6619   4.031  11.620   0.141 -2.7671  1.0191  0.5191
  790MOL0     H 6620   4.121  11.792  -0.029 -0.3079  0.2984 -2.2456
  790MOL0     H 6621   4.143  11.667  -0.143  0.7215 -3.6681 -0.7008
  790MOL0     H 6622   4.306  11.552   0.037  2.2086  1.6429  0.5813
  790MOL0     H 6623   4.251  11.668   0.151 -1.5739 -1.7419 -0.1453
  790MOL0     H 6624   4.377  11.759  -0.115 -1.0208 -2.6504 -0.2980
  790MOL0     H 6625   4.361  11.854   0.031  2.5127  0.0121  0.5198
  790MOL0     H 6626   4.548  11.624  -0.019 -0.9472 -2.3064  1.5077
  790MOL0     H 6627   4.509  11.664   0.142  1.1296 -2.4240 -1.2171
  790MOL0     H 6628   4.705  11.801   0.056  0.8311 -0.4172 -2.4998
  790MOL0     H 6629   4.589  11.874  -0.060 -2.2898  0.7023  0.8651
  790MOL0     H 6630   3.926  11.022  -0.097 -0.2871 -1.2401  0.2726
  790MOL0     H 6631   3.803  10.831  -0.033  0.6105  0.5595 -1.5564
  790MOL0     H 6632   3.510  10.681   0.531  1.7618  0.7045 -0.5004
  790MOL0     H 6633   3.386  10.469   0.566 -1.9128 -2.9983 -1.6731
  790MOL0     H 6634   5.070  10.148   0.407 -0.1613  0.2827 -0.0762
  790MOL0     H 6635   5.296  10.192   0.507  0.6216  1.8112  2.6724
  790MOL0     H 6636   5.686  10.092   0.573 -0.1705  1.0156 -0.1208
  790MOL0     H 6637   5.911  10.082   0.671  0.2511  0.4004  0.5410
  790MOL0     H 6638   5.948  10.049   1.116 -0.7559  0.9145  1.8146
  790MOL0     H 6639   5.949  10.225   1.096 -2.0148 -1.3197  0.6437
  790MOL0     H 6640   6.191  10.077   1.023  1.2784  2.2067 -1.2218
  790MOL0     H 6641   6.148  10.107   1.194 -3.4702 -2.1543 -0.1704
  790MOL0     H 6642   6.153  10.343   1.149 -0.9463 -3.0682  1.4859
  790MOL0     H 6643   6.134  10.331   0.977 -1.4265 -0.8376 -0.0102
  790MOL0     H 6644   6.392  10.237   1.129 -0.2296 -0.6775 -0.6993
  790MOL0     H 6645   6.360  10.241   0.953 -0.0303  1.1973 -0.7779
  790MOL0     H 6646   6.422  10.651   1.007  0.3901 -0.5549  1.9403
  790MOL0     H 6647   5.749  10.116   1.066 -2.0531  1.6110 -0.0391
  790MOL0     H 6648   5.469  10.250   0.984  0.9918  1.2384  2.0087
  790MOL0     H 6649   5.391  10.091   0.963  0.0204  1.3452  2.9307
  790MOL0     H 6650   5.510  10.124   1.096  0.2993  0.9329  1.0998
  791MOL0     O 6651   6.957   2.702   7.694 -0.3445 -0.0743 -0.2894
  791MOL0     C 6652   6.866   2.783   7.723 -1.1188  0.4368 -0.3661
  791MOL0     O 6653   6.835   2.890   7.652 -0.9323  0.1596  0.3830
  791MOL0     C 6654   6.927   2.939   7.554  0.1063 -0.2099  0.5106
  791MOL0     C 6655   7.070   2.933   7.581  1.1546  0.1661 -0.1344
  791MOL0     C 6656   7.159   2.999   7.486 -0.1817 -0.7264  0.1907
  791MOL0     C 6657   7.119   3.067   7.375 -0.3258 -0.4242  0.7550
  791MOL0     O 6658   7.195   3.132   7.284  0.5829  0.5693 -0.4125
  791MOL0     C 6659   7.315   3.054   7.247  0.2548 -0.3007  0.5949
  791MOL0     C 6660   7.434   3.117   7.315  0.6120  0.0025  0.8107
  791MOL0     C 6661   7.566   3.092   7.249  0.4979  0.1232  1.0388
  791MOL0     C 6662   7.667   3.194   7.291 -0.5739 -0.1524  0.6826
  791MOL0     C 6663   7.806   3.149   7.239  0.2729  0.7597  0.0418
  791MOL0     C 6664   7.900   3.269   7.225  0.5167  0.6189 -0.2868
  791MOL0     C 6665   8.046   3.232   7.189  0.4293  0.4265 -1.0325
  791MOL0     C 6666   8.145   3.335   7.262 -0.3830  0.7158 -0.2433
  791MOL0     N 6667   8.285   3.294   7.250  0.5562 -0.7655 -0.7856
  791MOL0     C 6668   8.378   3.340   7.149  0.4861 -1.0060 -0.2608
  791MOL0     C 6669   8.500   3.318   7.205 -0.8245 -0.0369  0.2422
  791MOL0     C 6670   8.626   3.373   7.127 -0.0587 -1.1543  0.6239
  791MOL0     C 6671   8.709   3.266   7.048 -0.4721  0.2989 -0.3157
  791MOL0     C 6672   8.736   3.146   7.139 -0.6151  0.5326 -0.1442
  791MOL0     C 6673   8.851   3.175   7.236  0.5362 -0.2790 -0.8449
  791MOL0     O 6674   8.953   3.247   7.177 -0.6656  0.1037  0.0242
  791MOL0     C 6675   9.050   3.173   7.120 -0.5135 -0.6835  0.0062
  791MOL0     C 6676   9.165   3.250   7.096  0.2302  0.5172 -0.6821
  791MOL0     C 6677   9.277   3.198   7.041  0.3262  0.1720  0.2805
  791MOL0     C 6678   9.281   3.066   6.980 -0.1533 -0.3651  0.1491
  791MOL0     C 6679   9.401   3.016   6.915  0.1790 -0.1802  0.2537
  791MOL0     O 6680   9.500   3.108   6.891  0.9952 -0.1461  0.2448
  791MOL0     C 6681   9.621   3.059   6.865 -2.2533  0.3745  1.3889
  791MOL0     C 6682   9.689   2.935   6.896 -0.3925  0.4822  0.3873
  791MOL0     C 6683   9.820   2.901   6.863 -0.7433 -0.4671 -0.0672
  791MOL0     C 6684   9.895   2.984   6.789 -0.2379 -0.5708  0.1568
  791MOL0     O 6685  10.029   2.946   6.759 -0.3001 -0.6748  0.0461
  791MOL0     C 6686  10.121   3.049   6.716  0.7720  0.7069 -0.3340
  791MOL0     C 6687  10.255   2.979   6.685  0.5431 -0.3240 -0.5032
  791MOL0     C 6688  10.333   2.947   6.810 -0.2572  0.4465  0.1607
  791MOL0     C 6689  10.457   2.863   6.762  0.0607 -0.2745  0.1429
  791MOL0     C 6690  10.567   2.880   6.869  0.5292  0.1879 -0.0127
  791MOL0     C 6691  10.707   2.837   6.817 -1.0275  0.1875 -0.4577
  791MOL0     C 6692  10.761   2.952   6.729 -0.4332  0.4127  0.5274
  791MOL0     C 6693  10.892   2.914   6.651 -0.7118 -0.5974 -0.9042
  791MOL0    Cl 6694  10.906   3.040   6.535  0.0879 -0.4175 -0.1641
  791MOL0     C 6695   9.842   3.116   6.762  0.6971  0.2758 -0.3839
  791MOL0     C 6696   9.710   3.153   6.802 -0.3701  0.5091  0.2255
  791MOL0     O 6697   9.398   2.895   6.883  0.4328  0.4235 -0.3162
  791MOL0     C 6698   9.169   2.990   7.006 -0.3004  0.6782  0.8234
  791MOL0     C 6699   9.058   3.040   7.080  0.1455 -0.3197 -0.1879
  791MOL0     N 6700   8.474   3.243   7.321  0.1050  0.3606 -0.1456
  791MOL0     N 6701   8.355   3.232   7.351 -0.3791 -0.5131  0.4479
  791MOL0     C 6702   6.980   3.071   7.357 -0.6431 -0.3534 -0.2792
  791MOL0     C 6703   6.885   3.005   7.443  0.3340  0.1929  0.9784
  791MOL0     C 6704   6.766   2.731   7.816 -0.3655  0.6727  0.1944
  791MOL0     C 6705   6.628   2.753   7.784 -0.5576  0.2362 -0.6196
  791MOL0     C 6706   6.517   2.700   7.858 -0.0930  0.6781 -0.0398
  791MOL0     C 6707   6.542   2.616   7.965 -0.5314  0.5629 -0.8829
  791MOL0     O 6708   6.432   2.576   8.037 -0.2272  0.1238 -0.0058
  791MOL0     C 6709   6.452   2.456   8.123  0.1454 -0.4026  0.1895
  791MOL0     C 6710   6.504   2.332   8.050  0.4685  0.1834  0.1198
  791MOL0     C 6711   6.559   2.220   8.139 -0.9968  0.0497  0.4973
  791MOL0     C 6712   6.706   2.247   8.174 -0.4011 -0.2885  0.3172
  791MOL0     C 6713   6.790   2.258   8.049 -0.2146  0.2073 -1.0102
  791MOL0     C 6714   6.865   2.268   7.957  0.7241 -0.7116  0.0870
  791MOL0     C 6715   6.678   2.594   8.002  0.0119 -0.6568 -0.2421
  791MOL0     C 6716   6.789   2.646   7.923 -0.1191 -0.2571 -1.0271
  791MOL0     C 6717   6.939   2.632   7.969  0.5580  0.4166  0.0802
  791MOL0     H 6718   7.117   2.887   7.668  0.2607 -2.4709 -0.9367
  791MOL0     H 6719   7.264   2.978   7.504 -0.0227 -0.0232  0.1397
  791MOL0     H 6720   7.312   2.947   7.269  0.6032 -0.7056 -1.2167
  791MOL0     H 6721   7.315   3.066   7.138 -0.9161  3.2438  0.8620
  791MOL0     H 6722   7.441   3.089   7.420 -3.7096 -1.9461  0.7940
  791MOL0     H 6723   7.424   3.226   7.308  0.5146 -0.0775 -0.7101
  791MOL0     H 6724   7.554   3.101   7.141  0.6099  1.5986  1.1260
  791MOL0     H 6725   7.616   2.997   7.271  0.3878  0.0164  0.8304
  791MOL0     H 6726   7.646   3.295   7.253 -2.1113  0.2699  2.5122
  791MOL0     H 6727   7.673   3.196   7.400  2.4442 -0.5747  0.6303
  791MOL0     H 6728   7.840   3.071   7.307 -0.3042  0.8713  0.4755
  791MOL0     H 6729   7.801   3.107   7.138  3.0224  0.9986 -0.2591
  791MOL0     H 6730   7.862   3.336   7.147 -2.7204 -0.9113 -0.2220
  791MOL0     H 6731   7.875   3.322   7.317 -2.1237  0.2701 -0.7054
  791MOL0     H 6732   8.054   3.237   7.080 -0.8641 -0.9137 -1.2147
  791MOL0     H 6733   8.075   3.136   7.231 -0.5584  1.4168  2.2110
  791MOL0     H 6734   8.146   3.439   7.227 -1.0259  0.3778 -1.3065
  791MOL0     H 6735   8.116   3.340   7.367  2.2043 -0.0310  0.5725
  791MOL0     H 6736   8.357   3.392   7.056  1.0665  1.6021  1.0025
  791MOL0     H 6737   8.590   3.445   7.053  0.1540 -0.7667  0.8975
  791MOL0     H 6738   8.703   3.425   7.184 -0.9373 -0.8345  1.5398
  791MOL0     H 6739   8.656   3.228   6.960  2.1026 -1.0413 -1.3988
  791MOL0     H 6740   8.807   3.301   7.015  0.2120 -1.2674 -0.0334
  791MOL0     H 6741   8.758   3.067   7.066 -1.7222 -1.2537  1.3606
  791MOL0     H 6742   8.650   3.098   7.186 -0.5931 -0.4812 -1.0965
  791MOL0     H 6743   8.889   3.077   7.267  0.8314 -0.2843 -1.2096
  791MOL0     H 6744   8.807   3.224   7.323 -0.9412  1.9392 -2.7225
  791MOL0     H 6745   9.159   3.357   7.109 -0.2368  0.7544 -2.6062
  791MOL0     H 6746   9.369   3.254   7.025 -0.5417  0.9458 -2.7208
  791MOL0     H 6747   9.635   2.861   6.954 -1.5321  1.2226  0.3076
  791MOL0     H 6748   9.865   2.810   6.901  3.7018  1.6813  0.4798
  791MOL0     H 6749  10.092   3.095   6.621  0.1528 -2.3908 -1.7548
  791MOL0     H 6750  10.124   3.116   6.803 -3.8640 -1.4755  1.9078
  791MOL0     H 6751  10.237   2.891   6.622  2.4653  0.9883 -3.0963
  791MOL0     H 6752  10.323   3.045   6.630  1.9535  1.7159  3.3123
  791MOL0     H 6753  10.367   3.046   6.840  1.2050 -0.3476  1.2449
  791MOL0     H 6754  10.276   2.905   6.893  1.2010 -1.0267  0.4694
  791MOL0     H 6755  10.489   2.900   6.665 -0.7456 -1.0981 -0.4505
  791MOL0     H 6756  10.423   2.760   6.752  0.3007 -0.2722 -0.7504
  791MOL0     H 6757  10.548   2.814   6.954 -2.2066 -1.3494 -1.6980
  791MOL0     H 6758  10.574   2.983   6.905 -3.7114  0.4293  0.5806
  791MOL0     H 6759  10.780   2.821   6.897 -0.2402  1.1923 -0.9590
  791MOL0     H 6760  10.707   2.747   6.755  1.9377  0.3247 -0.8256
  791MOL0     H 6761  10.759   3.046   6.784 -3.1452  0.0798  1.1022
  791MOL0     H 6762  10.690   2.959   6.646  1.5589 -0.3244 -1.3435
  791MOL0     H 6763  10.979   2.911   6.718 -2.6600 -0.3110  1.8041
  791MOL0     H 6764  10.877   2.816   6.606 -3.0886 -0.5641 -0.3155
  791MOL0     H 6765   9.895   3.195   6.709  0.3536  1.1002  0.4766
  791MOL0     H 6766   9.676   3.253   6.778 -0.9106  0.6353  1.4671
  791MOL0     H 6767   9.173   2.887   6.973  2.5650  0.9360  0.1340
  791MOL0     H 6768   8.970   2.976   7.072 -1.3117  1.6864 -0.9810
  791MOL0     H 6769   6.949   3.123   7.267  1.6148  3.5026  0.9533
  791MOL0     H 6770   6.778   3.011   7.429  0.4209  0.1927  0.2588
  791MOL0     H 6771   6.599   2.813   7.698  0.6903 -1.1732 -2.0686
  791MOL0     H 6772   6.415   2.711   7.824 -0.5737 -2.2512  0.1768
  791MOL0     H 6773   6.353   2.436   8.167  0.8515  0.6067  2.3918
  791MOL0     H 6774   6.522   2.471   8.206  2.0317 -0.2431 -1.3585
  791MOL0     H 6775   6.574   2.365   7.972 -0.6362  2.5885  0.0447
  791MOL0     H 6776   6.426   2.288   7.987 -0.0860 -0.3430  1.1469
  791MOL0     H 6777   6.552   2.126   8.084  0.1783  0.8149 -1.0474
  791MOL0     H 6778   6.500   2.213   8.231 -0.2678  5.8480  1.8147
  791MOL0     H 6779   6.712   2.340   8.231 -4.6104 -0.3981  1.3099
  791MOL0     H 6780   6.745   2.164   8.235 -1.8525 -2.5684 -1.7034
  791MOL0     H 6781   6.925   2.281   7.868 -0.5096 -0.8716 -0.7935
  791MOL0     H 6782   6.720   2.548   8.091  4.0990 -1.9640 -2.6214
  791MOL0     H 6783   6.940   2.608   8.076 -0.0000 -0.0537 -0.0154
  791MOL0     H 6784   6.996   2.556   7.917 -0.4610  1.0033 -2.0097
  791MOL0     H 6785   6.992   2.728   7.969  1.9717 -0.3108  1.9841
  792MOL0     O 6786   5.413   6.207   3.314  0.7026 -0.1579 -0.1210
  792MOL0     C 6787   5.355   6.315   3.295 -0.4233  0.0789 -0.9860
  792MOL0     O 6788   5.424   6.433   3.253  0.7018  0.2511 -0.3731
  792MOL0     C 6789   5.551   6.404   3.201  0.6958  0.6318  0.3817
  792MOL0     C 6790   5.548   6.370   3.058  0.8165 -0.2977  0.2049
  792MOL0     C 6791   5.667   6.346   2.991 -0.9170 -0.2064  0.1431
  792MOL0     C 6792   5.787   6.346   3.066  0.3986 -0.2607 -0.0419
  792MOL0     O 6793   5.905   6.327   2.993  0.0357 -0.0327 -0.5109
  792MOL0     C 6794   6.005   6.245   3.050 -0.1227 -0.6996 -0.6455
  792MOL0     C 6795   6.100   6.217   2.942 -0.3892  0.6320  0.2363
  792MOL0     C 6796   6.241   6.177   3.004 -0.3887  0.6781 -0.3428
  792MOL0     C 6797   6.353   6.111   2.926 -0.0753 -0.3106 -0.7568
  792MOL0     C 6798   6.479   6.094   3.011  0.6389 -0.1633 -1.0602
  792MOL0     C 6799   6.580   6.009   2.935 -0.3248 -0.5778 -0.2753
  792MOL0     C 6800   6.698   5.957   3.025  0.7533 -0.8046  0.9868
  792MOL0     C 6801   6.814   6.065   3.028  0.3249 -0.5239  0.2679
  792MOL0     N 6802   6.943   6.002   2.975  0.8686 -0.3362  0.4239
  792MOL0     C 6803   6.988   5.878   3.011 -0.2067 -0.7817 -0.4066
  792MOL0     C 6804   7.083   5.847   2.918  0.3942 -0.2351  0.2281
  792MOL0     C 6805   7.159   5.709   2.919 -0.0595 -0.6265  0.1251
  792MOL0     C 6806   7.288   5.713   2.846  0.0740 -0.3655  0.5486
  792MOL0     C 6807   7.354   5.570   2.863  0.4272 -0.2796 -0.4511
  792MOL0     C 6808   7.490   5.555   2.805  0.1669 -1.3624 -0.0758
  792MOL0     O 6809   7.532   5.427   2.835 -0.4467  0.2977  0.1633
  792MOL0     C 6810   7.664   5.403   2.846 -0.1750 -0.1764 -0.1350
  792MOL0     C 6811   7.707   5.280   2.890 -0.8227  0.1622 -0.0479
  792MOL0     C 6812   7.841   5.238   2.906  0.5897 -0.3244 -0.4671
  792MOL0     C 6813   7.942   5.335   2.890  0.2131 -0.0167 -0.2013
  792MOL0     C 6814   8.081   5.313   2.920  0.3881  0.4816 -0.2642
  792MOL0     O 6815   8.151   5.411   2.968 -0.2509  0.6366  0.1907
  792MOL0     C 6816   8.279   5.382   3.016 -0.3733  0.2112  0.3528
  792MOL0     C 6817   8.313   5.276   3.112  0.2227 -0.1131 -0.3683
  792MOL0     C 6818   8.439   5.266   3.166 -0.1914 -0.8602  0.1084
  792MOL0     C 6819   8.541   5.356   3.129  0.6007 -0.0554  0.3678
  792MOL0     O 6820   8.667   5.349   3.186 -0.5389  0.3826  0.0316
  792MOL0     C 6821   8.702   5.246   3.283 -1.2816 -0.2152 -0.8479
  792MOL0     C 6822   8.848   5.258   3.320  0.7078 -0.1795 -0.0676
  792MOL0     C 6823   8.899   5.157   3.423 -0.5545  0.1202  0.4480
  792MOL0     C 6824   9.029   5.205   3.491  1.1916 -0.4247  0.4427
  792MOL0     C 6825   9.081   5.114   3.606  0.5865  0.7944  0.9774
  792MOL0     C 6826   9.211   5.173   3.670  1.1540  0.6307 -0.0195
  792MOL0     C 6827   9.254   5.083   3.790 -0.3692  0.3827 -1.3886
  792MOL0     C 6828   9.374   5.143   3.868 -0.3470  0.4211  0.1931
  792MOL0    Cl 6829   9.392   5.059   4.028  0.0393  0.0332  0.3834
  792MOL0     C 6830   8.505   5.453   3.033 -0.4369  0.6458  0.4089
  792MOL0     C 6831   8.379   5.472   2.980  0.6542  0.7486 -0.2676
  792MOL0     O 6832   8.129   5.198   2.902 -0.5769  0.1414  0.2128
  792MOL0     C 6833   7.895   5.465   2.854 -0.7608 -0.2786  0.0658
  792MOL0     C 6834   7.763   5.493   2.822  0.4708 -0.1833  0.3300
  792MOL0     N 6835   7.096   5.950   2.832  0.4554  0.3255  0.4204
  792MOL0     N 6836   7.027   6.040   2.871  0.0523  0.5984 -0.1841
  792MOL0     C 6837   5.792   6.372   3.210  0.1429  0.3770  0.5816
  792MOL0     C 6838   5.673   6.403   3.276 -0.0622  0.1107 -0.4900
  792MOL0     C 6839   5.219   6.329   3.355  0.0174 -0.6514 -0.3501
  792MOL0     C 6840   5.182   6.247   3.459  0.1636  0.1372  0.6234
  792MOL0     C 6841   5.044   6.251   3.509  0.2955 -0.3577  0.4625
  792MOL0     C 6842   4.949   6.342   3.447 -0.1290 -0.0540 -0.6742
  792MOL0     O 6843   4.816   6.368   3.476 -0.1331  0.6039  0.9518
  792MOL0     C 6844   4.757   6.272   3.569 -0.3162 -0.7650 -0.0402
  792MOL0     C 6845   4.621   6.311   3.598 -0.8346 -0.3874  0.0097
  792MOL0     C 6846   4.529   6.186   3.626 -0.4490 -0.0121 -0.4012
  792MOL0     C 6847   4.516   6.083   3.515  0.0137  0.1578  0.3604
  792MOL0     C 6848   4.481   6.150   3.397 -0.5350 -0.3539  0.6340
  792MOL0     C 6849   4.441   6.207   3.298 -0.1491 -0.2468 -0.3802
  792MOL0     C 6850   4.993   6.421   3.345  0.8984 -0.3297  0.6117
  792MOL0     C 6851   5.124   6.420   3.298  0.3523  0.5647  0.5236
  792MOL0     C 6852   5.151   6.480   3.155 -0.4898  0.7123 -1.3569
  792MOL0     H 6853   5.461   6.383   2.994  1.7429  5.0949 -0.4706
  792MOL0     H 6854   5.681   6.341   2.884  1.6267 -1.6463  0.4746
  792MOL0     H 6855   6.062   6.292   3.130 -1.1949 -0.5354  0.0525
  792MOL0     H 6856   5.969   6.150   3.090  2.6584 -1.0428  1.2876
  792MOL0     H 6857   6.119   6.295   2.868  0.1060  0.2484 -0.0519
  792MOL0     H 6858   6.053   6.136   2.885 -1.2544  0.6859  0.8540
  792MOL0     H 6859   6.231   6.111   3.091 -0.7295  1.1730 -0.0042
  792MOL0     H 6860   6.277   6.273   3.040  2.0583  0.0916 -1.0456
  792MOL0     H 6861   6.317   6.020   2.879  0.6125 -1.1022  0.2107
  792MOL0     H 6862   6.389   6.181   2.850 -0.3624  2.6202  1.6143
  792MOL0     H 6863   6.518   6.193   3.033 -0.1222 -0.2561  0.9439
  792MOL0     H 6864   6.450   6.045   3.105  1.0108 -0.1466 -0.9369
  792MOL0     H 6865   6.526   5.918   2.906 -2.4450 -0.4859  2.8349
  792MOL0     H 6866   6.620   6.061   2.848 -2.0735  0.6792 -0.3795
  792MOL0     H 6867   6.719   5.854   2.994  2.8951 -0.9603  2.7025
  792MOL0     H 6868   6.664   5.932   3.126  1.2664  1.3210  1.7422
  792MOL0     H 6869   6.799   6.150   2.961  1.0760 -0.7052 -0.1464
  792MOL0     H 6870   6.823   6.118   3.123 -0.3351  0.0788  0.0066
  792MOL0     H 6871   6.961   5.811   3.092  1.8911 -1.4211 -0.1554
  792MOL0     H 6872   7.172   5.697   3.027  1.0599  2.5390  0.4451
  792MOL0     H 6873   7.094   5.633   2.874  0.6691  0.1802 -2.4919
  792MOL0     H 6874   7.282   5.750   2.743 -1.0323  2.0663  1.4033
  792MOL0     H 6875   7.340   5.785   2.911 -2.3643 -0.7261  3.0972
  792MOL0     H 6876   7.309   5.489   2.805  1.7401 -1.1451 -0.2974
  792MOL0     H 6877   7.353   5.540   2.968 -1.4645  0.6096 -0.1666
  792MOL0     H 6878   7.546   5.634   2.857 -0.2325 -0.8185 -0.4602
  792MOL0     H 6879   7.496   5.590   2.702 -0.0237  0.7480  0.5885
  792MOL0     H 6880   7.633   5.207   2.921  0.2443  0.3772  3.4917
  792MOL0     H 6881   7.870   5.138   2.937  0.9782 -0.3415 -0.8826
  792MOL0     H 6882   8.234   5.221   3.162 -0.1411  2.8614  2.6717
  792MOL0     H 6883   8.453   5.192   3.244  2.4377  1.0921  1.6452
  792MOL0     H 6884   8.645   5.267   3.374 -0.2279 -0.0449 -0.2108
  792MOL0     H 6885   8.680   5.146   3.244  0.9227 -0.4283 -1.6480
  792MOL0     H 6886   8.906   5.252   3.227 -1.7318  0.3246 -1.7264
  792MOL0     H 6887   8.859   5.356   3.366  0.6872 -0.2982  0.1914
  792MOL0     H 6888   8.809   5.142   3.484 -1.6028 -0.8223 -1.2363
  792MOL0     H 6889   8.930   5.064   3.376  1.6188 -0.6433  3.1303
  792MOL0     H 6890   9.009   5.303   3.536 -3.5577  0.2676 -2.5258
  792MOL0     H 6891   9.102   5.214   3.410  2.4488 -6.2465  0.5035
  792MOL0     H 6892   9.101   5.013   3.569 -0.9661 -0.5953  3.5505
  792MOL0     H 6893   9.006   5.088   3.682  1.8578  1.6041  2.5806
  792MOL0     H 6894   9.281   5.183   3.587  0.0369 -0.7598 -1.1701
  792MOL0     H 6895   9.179   5.271   3.708  0.6706  0.3588  0.2861
  792MOL0     H 6896   9.279   4.978   3.771  1.1940  0.5100 -0.2301
  792MOL0     H 6897   9.169   5.079   3.857 -0.0757 -0.0037 -1.0323
  792MOL0     H 6898   9.466   5.124   3.812  0.0175  0.8926  0.6190
  792MOL0     H 6899   9.363   5.249   3.892 -1.9550 -0.0424  1.7175
  792MOL0     H 6900   8.597   5.502   3.005  0.7247 -0.9701  1.2221
  792MOL0     H 6901   8.367   5.547   2.902  3.2513  0.4205 -1.0843
  792MOL0     H 6902   7.963   5.544   2.822  1.5125 -3.1548 -2.9528
  792MOL0     H 6903   7.749   5.593   2.782  3.1938 -0.5597 -1.9049
  792MOL0     H 6904   5.885   6.382   3.266 -1.3543 -0.9743  3.5215
  792MOL0     H 6905   5.672   6.441   3.378  1.6433  1.7646 -1.0461
  792MOL0     H 6906   5.248   6.174   3.503  0.0415 -0.6147 -0.3841
  792MOL0     H 6907   5.022   6.170   3.578  1.8301 -1.1065  0.1242
  792MOL0     H 6908   4.814   6.252   3.660 -2.2566 -0.7423  1.2543
  792MOL0     H 6909   4.762   6.173   3.521 -2.7315 -0.5252 -0.9278
  792MOL0     H 6910   4.586   6.375   3.516  1.2482  0.4462 -0.2792
  792MOL0     H 6911   4.615   6.385   3.679  4.5277  1.9424 -1.2850
  792MOL0     H 6912   4.431   6.217   3.665 -0.0548  3.9749 -2.0725
  792MOL0     H 6913   4.573   6.146   3.718  1.0255  0.6909 -0.7711
  792MOL0     H 6914   4.605   6.023   3.494  0.0129 -0.6303  2.3542
  792MOL0     H 6915   4.428   6.020   3.531 -0.9952  0.8423 -2.0814
  792MOL0     H 6916   4.411   6.268   3.216 -0.8346  1.1865  0.8977
  792MOL0     H 6917   4.915   6.483   3.303 -1.7003 -1.1379  3.8807
  792MOL0     H 6918   5.173   6.391   3.095  4.1110  0.2201  0.6402
  792MOL0     H 6919   5.062   6.526   3.110 -1.4529  1.6890  1.3294
  792MOL0     H 6920   5.231   6.554   3.148  3.7246 -3.0733  1.1789
  793MOL0     O 6921   5.805   0.969   0.355  0.0373  0.2467  0.1739
  793MOL0     C 6922   5.798   0.880   0.269 -0.4375 -0.0424  0.0084
  793MOL0     O 6923   5.903   0.832   0.195 -0.4915 -0.3488  0.6226
  793MOL0     C 6924   6.033   0.858   0.239 -0.0778 -0.2355 -0.2690
  793MOL0     C 6925   6.106   0.968   0.186 -0.1013 -0.8698  0.6446
  793MOL0     C 6926   6.238   0.987   0.226  0.2102 -0.2972 -0.4760
  793MOL0     C 6927   6.304   0.901   0.315  0.9477 -0.3759  0.1324
  793MOL0     O 6928   6.433   0.917   0.356  0.4228 -0.0295 -0.6443
  793MOL0     C 6929   6.491   1.043   0.329 -0.0671 -0.2556 -0.8541
  793MOL0     C 6930   6.640   1.055   0.396 -0.3497  0.6637  0.3576
  793MOL0     C 6931   6.734   0.972   0.318 -0.9099 -0.1000  0.2482
  793MOL0     C 6932   6.866   0.944   0.382  0.2270 -0.2084 -0.8741
  793MOL0     C 6933   6.971   0.872   0.294  1.0469 -0.0131  0.8957
  793MOL0     C 6934   7.113   0.915   0.346 -0.4766  0.2988 -0.2197
  793MOL0     C 6935   7.215   0.803   0.383  0.1787  0.1244  0.3131
  793MOL0     C 6936   7.346   0.869   0.426 -0.3132  0.3174  0.1403
  793MOL0     N 6937   7.428   0.760   0.473 -0.4040 -0.8672 -0.2294
  793MOL0     C 6938   7.468   0.650   0.389 -0.3712 -0.5476 -0.1185
  793MOL0     C 6939   7.516   0.562   0.477  0.4077 -1.0174 -0.3222
  793MOL0     C 6940   7.570   0.424   0.436  0.5015 -0.0803  0.5237
  793MOL0     C 6941   7.718   0.415   0.468 -0.0751 -0.1203  0.0774
  793MOL0     C 6942   7.793   0.506   0.362  0.6165 -0.0298 -0.3146
  793MOL0     C 6943   7.945   0.494   0.383 -0.1787  0.6236  0.8460
  793MOL0     O 6944   7.994   0.361   0.364  0.7309 -0.1951  0.0178
  793MOL0     C 6945   8.129   0.342   0.373  0.5540 -0.4125 -0.4273
  793MOL0     C 6946   8.186   0.218   0.365 -0.4606  0.7990 -0.6881
  793MOL0     C 6947   8.317   0.200   0.361 -0.2856 -0.2079 -1.3617
  793MOL0     C 6948   8.407   0.310   0.351  0.1156 -0.4546 -0.4245
  793MOL0     C 6949   8.557   0.280   0.359 -0.4885 -0.6303  0.0472
  793MOL0     O 6950   8.590   0.155   0.398  0.8182 -0.1014  0.3862
  793MOL0     C 6951   8.724   0.122   0.403  0.1323 -0.2415 -0.7061
  793MOL0     C 6952   8.795   0.065   0.298 -0.5338  0.2216 -0.9712
  793MOL0     C 6953   8.940   0.062   0.313  0.2123  0.2604 -0.4742
  793MOL0     C 6954   9.008   0.095   0.436  1.2077 -0.2378 -0.4944
  793MOL0     O 6955   9.148   0.087   0.451  0.1102  0.5301 -0.2593
  793MOL0     C 6956   9.216  -0.033   0.415  0.3497  0.5791 -0.6904
  793MOL0     C 6957   9.369  -0.027   0.447  0.1272 -0.1242 -0.4108
  793MOL0     C 6958   9.401  -0.008   0.592  0.3326  0.2350  0.0706
  793MOL0     C 6959   9.549   0.018   0.618 -0.6298 -0.1873 -1.0195
  793MOL0     C 6960   9.584   0.036   0.765 -0.7578  0.4137 -0.3722
  793MOL0     C 6961   9.730   0.031   0.786  0.5248  0.6874 -0.2353
  793MOL0     C 6962   9.754   0.058   0.931  0.0355 -0.3702 -0.5299
  793MOL0     C 6963   9.895   0.024   0.973 -0.1343  0.7820 -0.6621
  793MOL0    Cl 6964   9.990   0.152   0.907 -0.4914 -0.4011  0.1539
  793MOL0     C 6965   8.931   0.134   0.543 -0.0880 -0.0324  0.1916
  793MOL0     C 6966   8.796   0.152   0.523 -0.4448  0.4655 -0.3717
  793MOL0     O 6967   8.630   0.369   0.327  0.0450 -0.4319  0.3969
  793MOL0     C 6968   8.355   0.435   0.343 -0.2486 -0.4210  0.6786
  793MOL0     C 6969   8.217   0.455   0.359 -0.2963  0.1481  0.6362
  793MOL0     N 6970   7.510   0.613   0.607 -0.0954 -0.1457 -0.5857
  793MOL0     N 6971   7.464   0.733   0.604  0.2985  0.2526 -0.1275
  793MOL0     C 6972   6.222   0.795   0.370 -0.4212  0.4161 -0.7148
  793MOL0     C 6973   6.096   0.774   0.325  0.7374 -0.3574 -0.0524
  793MOL0     C 6974   5.655   0.825   0.225 -1.0252  0.3936 -0.5030
  793MOL0     C 6975   5.651   0.756   0.109 -0.7097 -0.7741  0.1912
  793MOL0     C 6976   5.533   0.721   0.042 -0.3456 -0.8267  0.0712
  793MOL0     C 6977   5.408   0.737   0.109 -0.1097  0.1110 -0.4146
  793MOL0     O 6978   5.298   0.700   0.037  0.1368  0.4941  0.9655
  793MOL0     C 6979   5.168   0.768   0.051 -0.5749  0.6844  1.0604
  793MOL0     C 6980   5.092   0.706   0.165  0.1188 -0.0655  0.8654
  793MOL0     C 6981   5.058   0.560   0.139  0.9360 -0.8273  0.3305
  793MOL0     C 6982   4.981   0.512   0.258  0.1550  0.0681  0.1789
  793MOL0     C 6983   4.946   0.377   0.242  0.0714 -0.5960 -0.5396
  793MOL0     C 6984   4.913   0.268   0.218  0.5042  0.6836  0.5994
  793MOL0     C 6985   5.410   0.800   0.232 -0.3897  0.5192 -0.0081
  793MOL0     C 6986   5.536   0.838   0.294  0.9664 -0.3528 -0.0631
  793MOL0     C 6987   5.518   0.895   0.431  0.1286  0.4457  0.0971
  793MOL0     H 6988   6.071   1.031   0.105  2.9506 -1.6290 -1.4298
  793MOL0     H 6989   6.300   1.053   0.166  2.0057 -1.1087  0.4190
  793MOL0     H 6990   6.504   1.055   0.221 -2.1762  1.5870 -0.9690
  793MOL0     H 6991   6.433   1.122   0.376  1.9011  0.3957  0.6214
  793MOL0     H 6992   6.638   1.023   0.500 -2.5233 -0.5418  0.0122
  793MOL0     H 6993   6.676   1.158   0.398  0.5025  0.3923 -0.3438
  793MOL0     H 6994   6.755   1.020   0.223  2.8869  1.0490  1.4623
  793MOL0     H 6995   6.686   0.877   0.292 -1.5066  0.2211  0.1731
  793MOL0     H 6996   6.915   1.040   0.402  3.4594 -1.0024 -3.9844
  793MOL0     H 6997   6.840   0.887   0.472 -2.6806  1.1700 -0.7150
  793MOL0     H 6998   6.958   0.763   0.295  0.2070  0.0780  0.3927
  793MOL0     H 6999   6.954   0.903   0.191  0.2410 -1.6718  0.4957
  793MOL0     H 7000   7.153   0.981   0.269 -2.0270 -0.8908 -2.1684
  793MOL0     H 7001   7.097   0.969   0.439  1.0739  0.1285  0.1745
  793MOL0     H 7002   7.229   0.768   0.280 -1.3513  1.6131 -0.4417
  793MOL0     H 7003   7.175   0.729   0.453 -0.6101  0.3857  0.1370
  793MOL0     H 7004   7.386   0.932   0.345  0.4595  0.6849  0.7930
  793MOL0     H 7005   7.329   0.938   0.509  4.3262  1.3613  0.5117
  793MOL0     H 7006   7.461   0.637   0.281 -0.2128 -1.8890  0.0186
  793MOL0     H 7007   7.525   0.338   0.486  3.1688 -0.8788  1.7571
  793MOL0     H 7008   7.557   0.403   0.330  1.6449  1.0946  0.1270
  793MOL0     H 7009   7.745   0.463   0.562 -0.1892  0.2275 -0.0677
  793MOL0     H 7010   7.758   0.313   0.464  0.7996  0.2080  0.3907
  793MOL0     H 7011   7.752   0.607   0.369 -3.0435 -1.2833 -1.3950
  793MOL0     H 7012   7.770   0.464   0.264 -0.7635 -0.5235  0.1901
  793MOL0     H 7013   7.982   0.535   0.477 -0.3384  0.8436  0.8136
  793MOL0     H 7014   7.977   0.558   0.300 -1.8220 -1.7329 -1.8034
  793MOL0     H 7015   8.123   0.130   0.366  1.0876 -0.3607 -0.9329
  793MOL0     H 7016   8.335   0.094   0.350  0.0962  0.0586 -4.4778
  793MOL0     H 7017   8.737   0.046   0.208  1.7354 -0.2120 -2.4405
  793MOL0     H 7018   8.992   0.024   0.225  2.3434  2.2463 -0.1686
  793MOL0     H 7019   9.171  -0.110   0.478 -1.0004  3.4290  2.1404
  793MOL0     H 7020   9.213  -0.052   0.308  2.4368  4.1564 -1.5777
  793MOL0     H 7021   9.419  -0.121   0.421  1.5508  0.1669  1.1835
  793MOL0     H 7022   9.424   0.042   0.382 -2.4192 -0.0826 -2.7491
  793MOL0     H 7023   9.345   0.077   0.634 -1.0053 -1.6246  2.2866
  793MOL0     H 7024   9.369  -0.092   0.654 -1.7034  2.7562  2.7170
  793MOL0     H 7025   9.576   0.110   0.567  1.5102  0.2259  0.6816
  793MOL0     H 7026   9.611  -0.065   0.580  1.2411  0.4193  0.4971
  793MOL0     H 7027   9.547  -0.044   0.830 -0.4112  1.3157  0.9669
  793MOL0     H 7028   9.550   0.134   0.801  1.9505  0.6129  1.9722
  793MOL0     H 7029   9.766  -0.067   0.752  0.9352  0.8090 -0.1599
  793MOL0     H 7030   9.782   0.112   0.734 -2.0600  2.4427 -0.2866
  793MOL0     H 7031   9.692  -0.007   0.993  0.4114 -0.5644 -0.3595
  793MOL0     H 7032   9.741   0.161   0.967  2.7949 -0.2948  0.4779
  793MOL0     H 7033   9.902   0.021   1.082  1.8910 -4.0133 -0.6770
  793MOL0     H 7034   9.938  -0.067   0.929  1.4579  1.0334  0.3116
  793MOL0     H 7035   8.975   0.164   0.637  0.6378 -0.0508 -0.1416
  793MOL0     H 7036   8.727   0.182   0.602  0.0579 -2.0361  1.1273
  793MOL0     H 7037   8.431   0.508   0.316 -1.1845  0.0920 -0.6591
  793MOL0     H 7038   8.180   0.555   0.338 -1.5153 -0.8418 -2.6139
  793MOL0     H 7039   6.274   0.729   0.438 -2.3377  1.0744  1.5382
  793MOL0     H 7040   6.033   0.690   0.354 -0.3581  0.6461  0.5849
  793MOL0     H 7041   5.742   0.732   0.054 -0.8414  3.4963 -2.2650
  793MOL0     H 7042   5.543   0.680  -0.058  1.1399 -1.3386  0.4000
  793MOL0     H 7043   5.102   0.768  -0.035  1.4726  2.3290 -0.6228
  793MOL0     H 7044   5.193   0.872   0.071  2.8619  0.2467 -0.2155
  793MOL0     H 7045   4.998   0.762   0.167 -1.7000 -2.8745  0.3557
  793MOL0     H 7046   5.149   0.710   0.259  1.9426 -1.0997 -0.1456
  793MOL0     H 7047   5.147   0.498   0.127 -0.0808 -2.0183 -1.5978
  793MOL0     H 7048   4.995   0.555   0.050 -0.0836 -2.7484  1.1177
  793MOL0     H 7049   5.054   0.502   0.339 -0.9778  1.2610  1.4122
  793MOL0     H 7050   4.900   0.582   0.278 -0.0520  0.9443 -3.1478
  793MOL0     H 7051   4.875   0.171   0.195  4.3599 -0.3943 -2.1546
  793MOL0     H 7052   5.321   0.822   0.290 -0.4080  3.5363 -1.0157
  793MOL0     H 7053   5.564   0.833   0.508  0.4577  1.3493  0.6490
  793MOL0     H 7054   5.556   0.995   0.453  0.7132 -0.3625  3.1969
  793MOL0     H 7055   5.413   0.896   0.461 -0.3389  2.3126 -1.3913
  794MOL0     O 7056   4.293   5.166  10.105  0.0114  0.2905  0.0860
  794MOL0     C 7057   4.247   5.131  10.212  0.5073 -0.0240 -0.1701
  794MOL0     O 7058   4.313   5.136  10.334 -0.1286  0.0658  0.0290
  794MOL0     C 7059   4.448   5.170  10.331  0.1488 -0.0462 -0.5816
  794MOL0     C 7060   4.501   5.299  10.310  0.0087 -0.8509  1.0861
  794MOL0     C 7061   4.637   5.323  10.324  0.2283 -0.4457  0.1413
  794MOL0     C 7062   4.726   5.219  10.362  0.0318  0.9125 -0.3529
  794MOL0     O 7063   4.860   5.256  10.383 -0.3576  0.0821  0.0944
  794MOL0     C 7064   4.946   5.165  10.447  0.7129  0.0013 -0.1062
  794MOL0     C 7065   5.064   5.250  10.500 -0.3835 -0.8159  0.7329
  794MOL0     C 7066   5.174   5.162  10.562 -0.6343  0.3060  0.0997
  794MOL0     C 7067   5.286   5.232  10.631 -1.0749  0.0348  1.2254
  794MOL0     C 7068   5.362   5.139  10.731  0.3072  0.3693 -0.6331
  794MOL0     C 7069   5.401   4.992  10.677  0.8254 -0.5573 -0.0453
  794MOL0     C 7070   5.502   4.991  10.563  0.3528 -0.0837  1.1339
  794MOL0     C 7071   5.647   4.951  10.601 -0.2096 -0.2773  0.3118
  794MOL0     N 7072   5.738   5.075  10.609 -0.0097  1.3700  0.0864
  794MOL0     C 7073   5.805   5.139  10.500  0.2214 -0.6444 -0.7826
  794MOL0     C 7074   5.858   5.254  10.559  0.0169  0.5226  0.3920
  794MOL0     C 7075   5.941   5.362  10.490  0.2636 -0.0428 -0.7802
  794MOL0     C 7076   6.085   5.303  10.484  0.1996 -0.3626  0.1251
  794MOL0     C 7077   6.099   5.192  10.382 -0.7795 -0.4991 -0.8192
  794MOL0     C 7078   6.231   5.121  10.389  0.1647 -0.2481 -0.2848
  794MOL0     O 7079   6.335   5.224  10.376  0.0811  0.1398 -0.5113
  794MOL0     C 7080   6.446   5.194  10.306 -0.3398 -0.0273 -0.3649
  794MOL0     C 7081   6.488   5.064  10.274  0.1422 -0.0334 -0.0861
  794MOL0     C 7082   6.598   5.034  10.190  0.2617 -0.5262  0.0936
  794MOL0     C 7083   6.672   5.144  10.134  0.0122 -0.4096 -0.3072
  794MOL0     C 7084   6.791   5.122  10.052  0.2343 -0.0132 -0.2152
  794MOL0     O 7085   6.841   5.210   9.962  0.2354 -0.0185 -0.1025
  794MOL0     C 7086   6.968   5.196   9.905  0.2187  0.0365  0.4920
  794MOL0     C 7087   6.977   5.251   9.773  0.2414  0.6033 -0.0567
  794MOL0     C 7088   7.088   5.256   9.698 -0.0254  0.6306  0.4895
  794MOL0     C 7089   7.207   5.192   9.746 -0.1277  0.4541  0.4817
  794MOL0     O 7090   7.319   5.195   9.668 -0.1667  0.7941  0.3316
  794MOL0     C 7091   7.443   5.140   9.719  0.0508 -0.0633  0.2907
  794MOL0     C 7092   7.446   4.992   9.689 -0.9888  0.3183 -0.6218
  794MOL0     C 7093   7.559   4.943   9.780 -0.2124  0.0053  0.1531
  794MOL0     C 7094   7.572   4.796   9.788  0.0225  0.0230  0.1518
  794MOL0     C 7095   7.696   4.757   9.864 -0.6688 -0.0728 -0.3423
  794MOL0     C 7096   7.684   4.625   9.945 -0.3203 -0.2685  0.1126
  794MOL0     C 7097   7.821   4.556   9.965  0.0615 -0.8731 -0.6466
  794MOL0     C 7098   7.800   4.408   9.972  0.6032  0.8290  0.6463
  794MOL0    Cl 7099   7.955   4.316   9.988 -0.2720 -0.3362 -0.3274
  794MOL0     C 7100   7.197   5.122   9.867  0.2944  0.1079  0.6065
  794MOL0     C 7101   7.082   5.129   9.950  0.2012 -0.6470  0.8743
  794MOL0     O 7102   6.847   5.018  10.080  0.2244  0.5539 -0.0246
  794MOL0     C 7103   6.642   5.274  10.169  0.0885  0.0673 -0.5523
  794MOL0     C 7104   6.525   5.291  10.247 -0.3488  0.6852 -0.1802
  794MOL0     N 7105   5.845   5.242  10.691 -0.8719  0.0291 -0.7625
  794MOL0     N 7106   5.766   5.140  10.722  0.0433 -0.4313  0.3983
  794MOL0     C 7107   4.669   5.089  10.394 -0.0720  0.3194  0.5074
  794MOL0     C 7108   4.532   5.072  10.377 -0.5326  0.4675 -0.2904
  794MOL0     C 7109   4.108   5.077  10.219 -0.2467  0.8156 -0.1317
  794MOL0     C 7110   4.034   5.093  10.331 -0.6488  0.5295  0.3818
  794MOL0     C 7111   3.904   5.051  10.347  0.1899  0.1460 -0.8303
  794MOL0     C 7112   3.839   4.985  10.236  0.3843 -1.0587 -0.2565
  794MOL0     O 7113   3.709   4.943  10.241  0.4404 -0.0551 -0.2593
  794MOL0     C 7114   3.612   4.990  10.344 -1.1183  0.3705  0.5352
  794MOL0     C 7115   3.492   4.892  10.367  0.6379  0.1871  0.0875
  794MOL0     C 7116   3.535   4.745  10.355 -0.4909  1.0334 -0.0268
  794MOL0     C 7117   3.414   4.648  10.374  0.3078 -0.3378  0.5158
  794MOL0     C 7118   3.442   4.514  10.332 -0.4726  0.4798  0.3143
  794MOL0     C 7119   3.467   4.396  10.318  0.5026 -0.0531 -0.7467
  794MOL0     C 7120   3.909   4.963  10.122 -0.5928  0.0734  0.1644
  794MOL0     C 7121   4.048   5.005  10.112 -0.3096 -0.1966  0.5169
  794MOL0     C 7122   4.110   4.971   9.978 -0.1414  0.3436 -0.0679
  794MOL0     H 7123   4.442   5.386  10.282 -0.3739 -1.7258 -1.0508
  794MOL0     H 7124   4.679   5.421  10.305 -1.8450  1.5833  4.4676
  794MOL0     H 7125   4.891   5.115  10.527 -3.3306  0.5011 -2.3015
  794MOL0     H 7126   4.983   5.087  10.380  0.8032 -1.4864  1.6078
  794MOL0     H 7127   5.021   5.309  10.581 -1.4022  0.7707 -0.8752
  794MOL0     H 7128   5.104   5.311  10.418  0.2432 -0.6557  1.1483
  794MOL0     H 7129   5.212   5.105  10.477 -1.8036  0.8612 -0.8301
  794MOL0     H 7130   5.117   5.095  10.627 -1.4206 -0.9702 -1.8387
  794MOL0     H 7131   5.351   5.277  10.556 -1.1792  1.4162  1.9219
  794MOL0     H 7132   5.251   5.318  10.689 -1.8457  0.0264  0.7953
  794MOL0     H 7133   5.446   5.201  10.762 -1.6908  3.8742 -1.6558
  794MOL0     H 7134   5.295   5.123  10.817 -2.9427 -1.0681 -3.2066
  794MOL0     H 7135   5.443   4.937  10.762  0.9763  1.1381  1.0194
  794MOL0     H 7136   5.313   4.933  10.651 -0.0335  0.4276  0.5568
  794MOL0     H 7137   5.500   5.092  10.521  1.3779 -0.2877  0.5727
  794MOL0     H 7138   5.470   4.922  10.484 -0.8109  1.5987  0.0624
  794MOL0     H 7139   5.664   4.900  10.696  0.2626  1.5692  1.2851
  794MOL0     H 7140   5.689   4.887  10.523  2.3030 -0.4260  1.7101
  794MOL0     H 7141   5.811   5.109  10.396  1.5359  1.0823 -1.2655
  794MOL0     H 7142   5.902   5.396  10.394 -2.6154  1.8630  0.9407
  794MOL0     H 7143   5.949   5.445  10.561  1.6390  0.7867 -1.8556
  794MOL0     H 7144   6.148   5.386  10.451  1.7240 -1.7378 -0.5840
  794MOL0     H 7145   6.119   5.269  10.583  0.1816  0.2533  0.3478
  794MOL0     H 7146   6.070   5.221  10.281  0.8957 -2.8538 -2.0563
  794MOL0     H 7147   6.022   5.118  10.406 -3.9893  2.3885 -1.5071
  794MOL0     H 7148   6.231   5.058  10.300  0.6581 -0.2172 -0.3093
  794MOL0     H 7149   6.241   5.052  10.473 -0.5335 -0.9192 -0.7366
  794MOL0     H 7150   6.433   4.980  10.314 -1.1141  0.1242 -1.4042
  794MOL0     H 7151   6.616   4.929  10.168  0.6542 -0.1336 -1.5562
  794MOL0     H 7152   6.883   5.289   9.732 -0.3872 -0.7860  0.0482
  794MOL0     H 7153   7.095   5.304   9.601 -0.9956  0.5256  0.3567
  794MOL0     H 7154   7.527   5.170   9.656  0.5393 -0.3431  0.8039
  794MOL0     H 7155   7.457   5.165   9.825 -1.4258 -1.2606  0.8019
  794MOL0     H 7156   7.353   4.934   9.696  1.3270 -3.7847 -1.0263
  794MOL0     H 7157   7.473   4.972   9.585  0.0993  0.3669 -0.3535
  794MOL0     H 7158   7.651   4.990   9.745  0.0876 -1.7433 -1.5724
  794MOL0     H 7159   7.543   4.981   9.881 -0.9995 -1.3632  0.5802
  794MOL0     H 7160   7.589   4.756   9.688  0.4760  0.4186  0.0661
  794MOL0     H 7161   7.481   4.752   9.830 -1.0139  1.3305 -0.6666
  794MOL0     H 7162   7.714   4.835   9.938  0.9154 -0.6448 -0.0950
  794MOL0     H 7163   7.785   4.759   9.801 -1.2483  0.8338 -1.1670
  794MOL0     H 7164   7.647   4.642  10.046  1.4221 -3.2064  1.3797
  794MOL0     H 7165   7.615   4.569   9.882  0.1623  1.8931 -2.5031
  794MOL0     H 7166   7.887   4.596  10.042  0.3479 -0.8256 -0.9143
  794MOL0     H 7167   7.878   4.566   9.872  0.3280 -0.5658 -0.4497
  794MOL0     H 7168   7.741   4.378  10.060  2.7341 -1.0705  1.5389
  794MOL0     H 7169   7.763   4.370   9.877  2.2125  0.3124  0.1875
  794MOL0     H 7170   7.272   5.048   9.894  0.1715 -0.4343 -0.4421
  794MOL0     H 7171   7.082   5.078  10.046  2.1901 -2.1545  0.1479
  794MOL0     H 7172   6.693   5.358  10.122 -0.4277  0.9095  0.3348
  794MOL0     H 7173   6.486   5.391  10.263 -1.0127  0.9785 -3.0151
  794MOL0     H 7174   4.721   5.002  10.434 -0.6711 -1.2531 -1.9214
  794MOL0     H 7175   4.495   4.971  10.395 -1.1280  0.2210 -2.5694
  794MOL0     H 7176   4.081   5.137  10.419  0.8733  1.0670 -0.6649
  794MOL0     H 7177   3.850   5.067  10.439 -0.5899 -1.2925 -1.0072
  794MOL0     H 7178   3.582   5.092  10.322 -0.4308  1.2423  3.2489
  794MOL0     H 7179   3.668   4.992  10.438  0.4882  0.9878 -0.3790
  794MOL0     H 7180   3.407   4.909  10.299 -0.2256 -2.5703  0.3353
  794MOL0     H 7181   3.451   4.907  10.468 -1.0233  0.3721 -0.5748
  794MOL0     H 7182   3.612   4.729  10.430  1.0523 -2.1348 -2.0584
  794MOL0     H 7183   3.579   4.724  10.257 -1.4159 -0.3392 -0.1808
  794MOL0     H 7184   3.369   4.648  10.473 -0.1073  3.7277  0.5188
  794MOL0     H 7185   3.323   4.672  10.317 -1.2184 -0.8373  2.6397
  794MOL0     H 7186   3.496   4.294  10.308 -0.3881 -0.9714  3.8694
  794MOL0     H 7187   3.868   4.919  10.032 -0.7974  0.5930  0.0047
  794MOL0     H 7188   4.215   4.941   9.985 -0.2975 -0.3165 -0.4347
  794MOL0     H 7189   4.060   4.881   9.939  0.6251  0.5922 -1.7051
  794MOL0     H 7190   4.096   5.054   9.908 -2.8815  1.3650  1.5379
  795MOL0     O 7191   8.727   4.549   8.963 -0.0530 -1.1560  0.2793
  795MOL0     C 7192   8.722   4.584   8.847 -0.0608 -0.2544  1.0103
  795MOL0     O 7193   8.823   4.608   8.759  0.5753 -0.7041 -0.3177
  795MOL0     C 7194   8.958   4.609   8.791  0.3508 -0.6383 -0.0455
  795MOL0     C 7195   9.043   4.521   8.724  0.2315 -0.0442  0.6455
  795MOL0     C 7196   9.180   4.513   8.763  0.7519 -0.1809  0.0939
  795MOL0     C 7197   9.226   4.601   8.860  0.8217  0.5528  0.1293
  795MOL0     O 7198   9.365   4.601   8.872  0.1110  0.5233 -0.1849
  795MOL0     C 7199   9.437   4.690   8.962  0.4147 -0.4588 -0.6048
  795MOL0     C 7200   9.447   4.834   8.906  0.2642  0.2968  0.2286
  795MOL0     C 7201   9.490   4.919   9.020  0.5070  0.6572  0.2968
  795MOL0     C 7202   9.548   5.056   8.977  1.1883  0.2484 -0.2652
  795MOL0     C 7203   9.609   5.131   9.097 -0.1341 -0.4722  0.8622
  795MOL0     C 7204   9.507   5.198   9.185 -0.2383 -1.1405 -0.0976
  795MOL0     C 7205   9.576   5.291   9.280  0.0223 -0.8209  0.6220
  795MOL0     C 7206   9.607   5.436   9.220  0.3942  0.4132 -0.0264
  795MOL0     N 7207   9.652   5.532   9.324  0.0313  0.0109 -0.0874
  795MOL0     C 7208   9.779   5.537   9.370  0.5503 -0.6503 -0.8218
  795MOL0     C 7209   9.787   5.644   9.449 -0.7294  0.3001  0.2399
  795MOL0     C 7210   9.906   5.697   9.537  0.2076 -0.1607  0.3477
  795MOL0     C 7211  10.030   5.729   9.453 -0.4772  0.0185 -0.0161
  795MOL0     C 7212  10.160   5.718   9.530 -0.7521 -0.6326  1.0068
  795MOL0     C 7213  10.279   5.783   9.445  0.1582 -0.2168 -0.3113
  795MOL0     O 7214  10.406   5.730   9.493  0.1046 -0.1891  0.0735
  795MOL0     C 7215  10.526   5.784   9.444 -0.4689 -0.6353 -1.4416
  795MOL0     C 7216  10.627   5.776   9.533 -0.4467 -0.6706 -0.3870
  795MOL0     C 7217  10.740   5.859   9.513 -0.2332 -0.3310  0.3816
  795MOL0     C 7218  10.764   5.930   9.393  0.1726  0.0301  0.2620
  795MOL0     C 7219  10.895   5.987   9.355  0.0643  0.1220  1.0823
  795MOL0     O 7220  10.984   5.975   9.455 -0.4079 -0.4357 -1.0471
  795MOL0     C 7221  11.121   5.993   9.434  0.0123 -0.1243 -0.8003
  795MOL0     C 7222  11.211   5.982   9.547  0.6868  0.4992 -0.5162
  795MOL0     C 7223  11.350   5.994   9.531  0.8243  1.3922 -0.3998
  795MOL0     C 7224  11.405   6.014   9.401  0.1629  0.0757 -0.5954
  795MOL0     O 7225  11.545   6.010   9.411  0.1528 -0.0273  0.7618
  795MOL0     C 7226  11.611   5.994   9.285 -0.5152  0.5692  0.3037
  795MOL0     C 7227  11.759   6.007   9.317 -0.1988 -1.2464 -0.9689
  795MOL0     C 7228  11.802   6.145   9.357  0.6369 -0.0388 -0.1564
  795MOL0     C 7229  11.807   6.243   9.239  0.0999  0.1038 -0.2130
  795MOL0     C 7230  11.823   6.391   9.275  0.3360 -0.8189  0.5601
  795MOL0     C 7231  11.957   6.420   9.350  0.1367 -0.2726 -0.1041
  795MOL0     C 7232  11.938   6.480   9.492  0.2239  0.4689  0.1555
  795MOL0     C 7233  12.073   6.531   9.548 -0.9535 -0.1267  0.3738
  795MOL0    Cl 7234  12.039   6.567   9.718  0.2107 -0.1890 -0.5326
  795MOL0     C 7235  11.331   6.028   9.290  0.5937 -0.4465  0.6565
  795MOL0     C 7236  11.191   6.017   9.309  0.2500 -0.6469  0.8998
  795MOL0     O 7237  10.900   6.068   9.258 -0.2251  0.3352 -0.1982
  795MOL0     C 7238  10.655   5.940   9.303  0.1485 -0.1391 -0.1271
  795MOL0     C 7239  10.537   5.868   9.333 -0.1081  0.8680 -0.6160
  795MOL0     N 7240   9.651   5.687   9.475 -0.3449 -0.5172 -0.3595
  795MOL0     N 7241   9.581   5.612   9.398 -0.1421 -0.0168  0.5844
  795MOL0     C 7242   9.136   4.688   8.932 -0.4252  0.1412 -0.3525
  795MOL0     C 7243   9.005   4.692   8.892 -0.5021  0.2099 -0.7243
  795MOL0     C 7244   8.589   4.613   8.796  0.7014  0.2372 -0.3649
  795MOL0     C 7245   8.564   4.626   8.660 -0.2285 -0.3544  0.7781
  795MOL0     C 7246   8.439   4.645   8.599 -0.2399  0.8822  1.0368
  795MOL0     C 7247   8.326   4.653   8.670 -0.5475 -0.6933 -0.5966
  795MOL0     O 7248   8.205   4.671   8.609 -0.4051 -0.3411 -0.1746
  795MOL0     C 7249   8.101   4.576   8.653  0.1962 -0.2656 -0.3668
  795MOL0     C 7250   7.979   4.650   8.697 -0.0660 -0.1962  0.5022
  795MOL0     C 7251   7.868   4.565   8.763 -0.0574 -0.5367 -0.0399
  795MOL0     C 7252   7.914   4.451   8.846 -0.2292 -0.4387  0.0061
  795MOL0     C 7253   8.001   4.503   8.955 -0.3308  1.0237  0.1705
  795MOL0     C 7254   8.079   4.553   9.033 -0.5617 -0.1116 -0.3763
  795MOL0     C 7255   8.345   4.667   8.814 -0.0192 -0.2457 -0.7802
  795MOL0     C 7256   8.472   4.645   8.876  0.1692 -0.1686 -0.4890
  795MOL0     C 7257   8.475   4.651   9.030 -0.3485  0.0624  0.1316
  795MOL0     H 7258   9.009   4.459   8.642 -0.5491  0.7616  0.3484
  795MOL0     H 7259   9.250   4.444   8.718 -2.2120 -3.5223  0.0702
  795MOL0     H 7260   9.377   4.693   9.054  1.5384 -1.9047  0.2268
  795MOL0     H 7261   9.536   4.657   8.996  0.3787  2.1697  2.6969
  795MOL0     H 7262   9.349   4.859   8.866  0.1457 -1.3912 -0.6319
  795MOL0     H 7263   9.524   4.834   8.828  0.6413  0.7630  0.5941
  795MOL0     H 7264   9.557   4.869   9.090  0.2285  1.7282  1.3633
  795MOL0     H 7265   9.399   4.930   9.081  0.4860  0.0405  0.3910
  795MOL0     H 7266   9.616   5.033   8.895 -0.8103 -0.5804 -1.7888
  795MOL0     H 7267   9.467   5.114   8.931  1.2459 -0.6596 -1.5485
  795MOL0     H 7268   9.659   5.058   9.162 -0.0430 -1.4409 -0.2706
  795MOL0     H 7269   9.674   5.202   9.046  2.1553 -1.8756  1.6873
  795MOL0     H 7270   9.437   5.256   9.124  1.0803  1.3769  0.6484
  795MOL0     H 7271   9.445   5.136   9.251 -1.8067  2.3774  2.0007
  795MOL0     H 7272   9.673   5.246   9.306  0.5667 -0.5688 -0.8789
  795MOL0     H 7273   9.513   5.300   9.369 -0.2391  2.3241  0.2053
  795MOL0     H 7274   9.681   5.428   9.140 -0.1419  0.8281 -0.5777
  795MOL0     H 7275   9.517   5.479   9.175  1.3828 -0.3156 -2.8482
  795MOL0     H 7276   9.867   5.483   9.337  1.2247 -1.3739  1.9207
  795MOL0     H 7277   9.866   5.785   9.588  0.2580 -0.8127  1.5555
  795MOL0     H 7278   9.922   5.627   9.620  0.4777 -1.4728 -0.7643
  795MOL0     H 7279  10.029   5.663   9.365  4.2462  0.1920 -0.4327
  795MOL0     H 7280  10.022   5.834   9.425  0.0734 -0.3863 -1.8503
  795MOL0     H 7281  10.191   5.614   9.544 -0.3424 -0.8651 -1.2752
  795MOL0     H 7282  10.151   5.767   9.627 -1.1287 -2.0068  1.6877
  795MOL0     H 7283  10.281   5.891   9.463 -0.7891 -0.6707  3.2168
  795MOL0     H 7284  10.264   5.757   9.340  1.1314  1.1891 -0.8300
  795MOL0     H 7285  10.629   5.744   9.637  2.1905 -0.0235 -0.1588
  795MOL0     H 7286  10.826   5.846   9.578  1.7815 -2.5842 -2.4303
  795MOL0     H 7287  11.170   5.972   9.647 -0.1453  0.0553 -0.8919
  795MOL0     H 7288  11.405   5.993   9.625  0.0905 -1.0569  0.0821
  795MOL0     H 7289  11.588   5.896   9.240  0.7801  0.7760 -0.8931
  795MOL0     H 7290  11.578   6.070   9.213 -2.5892  0.9602  1.5775
  795MOL0     H 7291  11.780   5.944   9.404  1.3387  3.1113  2.1518
  795MOL0     H 7292  11.827   5.992   9.232  0.9386  2.2877 -0.8457
  795MOL0     H 7293  11.725   6.191   9.419  0.3991 -1.6364  0.8043
  795MOL0     H 7294  11.897   6.147   9.411  2.5122 -1.6483 -3.0788
  795MOL0     H 7295  11.712   6.233   9.185 -0.4537 -2.5142  1.0774
  795MOL0     H 7296  11.887   6.204   9.175  0.4512  0.7848 -0.1981
  795MOL0     H 7297  11.734   6.419   9.332 -0.2360  1.8526 -1.4333
  795MOL0     H 7298  11.824   6.460   9.190  0.3906 -0.2406  1.0292
  795MOL0     H 7299  12.023   6.334   9.357 -2.2301 -2.3300 -1.3400
  795MOL0     H 7300  12.017   6.492   9.294  0.7799 -2.8023 -2.9445
  795MOL0     H 7301  11.885   6.404   9.551 -0.2277  0.8465  0.2445
  795MOL0     H 7302  11.862   6.557   9.477 -0.0783 -0.0961 -1.5571
  795MOL0     H 7303  12.155   6.459   9.541 -1.1580 -1.0458  4.6900
  795MOL0     H 7304  12.094   6.625   9.495 -1.6620  0.3233  0.8660
  795MOL0     H 7305  11.362   6.043   9.188 -0.6316 -3.0925 -0.1881
  795MOL0     H 7306  11.127   6.033   9.223 -0.4839  1.0723  1.7383
  795MOL0     H 7307  10.658   5.996   9.210 -0.2664  0.1302  0.0204
  795MOL0     H 7308  10.452   5.872   9.266  1.3248 -0.5869 -2.6260
  795MOL0     H 7309   9.175   4.754   9.009 -2.5808  1.4549 -0.3163
  795MOL0     H 7310   8.932   4.764   8.928 -2.4448 -1.3523 -1.3881
  795MOL0     H 7311   8.647   4.609   8.592 -1.4243 -0.4444 -0.7040
  795MOL0     H 7312   8.448   4.642   8.491 -1.6278  1.2469  0.8956
  795MOL0     H 7313   8.122   4.510   8.737 -3.7850 -2.3699 -0.7481
  795MOL0     H 7314   8.063   4.500   8.583 -2.2731  3.2846 -3.2450
  795MOL0     H 7315   7.931   4.697   8.610  1.2864  2.3263  1.0213
  795MOL0     H 7316   8.020   4.728   8.762  0.9406  0.4377 -0.8410
  795MOL0     H 7317   7.802   4.520   8.689  0.1921  0.5637 -0.9641
  795MOL0     H 7318   7.819   4.635   8.831  2.6632  1.3992  0.1245
  795MOL0     H 7319   7.817   4.417   8.885 -0.9891 -0.3334 -1.6771
  795MOL0     H 7320   7.963   4.377   8.783  2.0253  1.7098 -0.9373
  795MOL0     H 7321   8.154   4.601   9.092 -1.5540  1.1883 -0.1160
  795MOL0     H 7322   8.262   4.685   8.881  0.3547  2.2965 -0.9083
  795MOL0     H 7323   8.381   4.675   9.081  0.5660  1.4595  1.2375
  795MOL0     H 7324   8.502   4.552   9.069 -2.4089 -0.2066  1.0149
  795MOL0     H 7325   8.552   4.726   9.052  0.4401 -0.7833  0.3319
  796MOL0     O 7326   3.830  10.759   1.103 -0.9129 -0.3636 -0.0505
  796MOL0     C 7327   3.799  10.821   1.201 -0.4610 -0.7331 -0.3024
  796MOL0     O 7328   3.887  10.906   1.265  0.0631  0.3789  0.2008
  796MOL0     C 7329   4.018  10.932   1.227  1.2358 -0.7683 -0.5621
  796MOL0     C 7330   4.060  11.064   1.258 -1.1841  0.2738 -0.4752
  796MOL0     C 7331   4.198  11.106   1.246 -0.1178 -0.6438 -0.6593
  796MOL0     C 7332   4.295  11.025   1.191  0.1143  0.3962 -0.4643
  796MOL0     O 7333   4.430  11.052   1.177 -0.7322  0.0372 -0.1354
  796MOL0     C 7334   4.470  11.143   1.072 -0.6407 -0.7841 -0.0057
  796MOL0     C 7335   4.555  11.251   1.139 -0.0651 -0.5150  0.1001
  796MOL0     C 7336   4.638  11.327   1.034 -0.5149 -0.9261  0.7270
  796MOL0     C 7337   4.765  11.263   1.002 -0.9622  0.5315 -0.5533
  796MOL0     C 7338   4.835  11.359   0.890  0.0481 -0.7601  0.8239
  796MOL0     C 7339   4.959  11.287   0.832  0.2869 -0.0271  0.0476
  796MOL0     C 7340   5.071  11.268   0.927  0.8655 -0.2401 -0.5618
  796MOL0     C 7341   5.199  11.227   0.855  0.4725  0.7092 -0.1632
  796MOL0     N 7342   5.317  11.258   0.931  0.6474  0.4850  0.0414
  796MOL0     C 7343   5.329  11.219   1.060  0.1755 -0.2612 -0.5290
  796MOL0     C 7344   5.464  11.245   1.093  0.8053 -0.4798 -0.1393
  796MOL0     C 7345   5.549  11.213   1.218  0.4454 -0.0421  0.2057
  796MOL0     C 7346   5.639  11.336   1.251 -0.5065 -0.7337  0.4396
  796MOL0     C 7347   5.555  11.459   1.282 -0.5430  1.4900  0.7911
  796MOL0     C 7348   5.658  11.569   1.328  1.2948  0.7907  0.0200
  796MOL0     O 7349   5.731  11.523   1.440 -0.1463  0.2545  0.5080
  796MOL0     C 7350   5.857  11.550   1.476  0.4276 -0.1308 -0.6598
  796MOL0     C 7351   5.938  11.642   1.410 -0.5734  0.7315  0.1420
  796MOL0     C 7352   6.069  11.672   1.454  0.8116 -1.2617  0.5870
  796MOL0     C 7353   6.119  11.606   1.568 -0.5915  1.0937  0.3358
  796MOL0     C 7354   6.262  11.620   1.607  0.6560 -0.6229  0.9596
  796MOL0     O 7355   6.314  11.562   1.716  1.0012 -0.3712 -0.0051
  796MOL0     C 7356   6.441  11.590   1.751  0.6443  0.1167 -0.1111
  796MOL0     C 7357   6.453  11.584   1.889 -0.3001  0.3302  0.2018
  796MOL0     C 7358   6.586  11.595   1.949 -0.3463 -0.3882 -0.3493
  796MOL0     C 7359   6.700  11.636   1.877 -0.0755  0.1092  0.7774
  796MOL0     O 7360   6.824  11.661   1.939  0.2308  0.1038 -0.0811
  796MOL0     C 7361   6.882  11.553   2.019  0.4121  0.6942 -0.1689
  796MOL0     C 7362   7.035  11.570   2.043 -0.6634  0.6923 -0.1922
  796MOL0     C 7363   7.103  11.467   2.126  0.1888 -0.2236  1.1565
  796MOL0     C 7364   7.222  11.526   2.194 -0.2460  0.3863 -0.3525
  796MOL0     C 7365   7.292  11.427   2.292  0.1135 -0.1588  0.2747
  796MOL0     C 7366   7.419  11.483   2.350 -0.6734 -0.0385 -0.1792
  796MOL0     C 7367   7.481  11.417   2.475 -0.3648  0.2240  0.1321
  796MOL0     C 7368   7.613  11.482   2.504  0.3782 -0.4034 -0.4756
  796MOL0    Cl 7369   7.732  11.437   2.382 -0.0460  0.4473  0.0530
  796MOL0     C 7370   6.686  11.654   1.735  0.9286  1.2855  0.6284
  796MOL0     C 7371   6.555  11.620   1.678 -0.8944  0.4407  0.4665
  796MOL0     O 7372   6.322  11.700   1.532 -0.2472 -0.1434 -0.4897
  796MOL0     C 7373   6.044  11.508   1.633  0.2426 -0.0877  0.5791
  796MOL0     C 7374   5.914  11.478   1.583  0.5155  0.1241 -0.3638
  796MOL0     N 7375   5.511  11.317   0.982  0.2284  0.5176  0.0445
  796MOL0     N 7376   5.432  11.316   0.883  0.3019 -0.6190  0.7081
  796MOL0     C 7377   4.248  10.900   1.149 -0.4514  0.6959 -0.1530
  796MOL0     C 7378   4.110  10.853   1.168  0.9038 -0.3764 -0.0164
  796MOL0     C 7379   3.674  10.790   1.267 -0.7757 -1.4511  0.3698
  796MOL0     C 7380   3.644  10.847   1.393 -0.5307  0.0888 -0.8991
  796MOL0     C 7381   3.525  10.817   1.463 -0.3794 -0.4530  0.5165
  796MOL0     C 7382   3.424  10.747   1.393 -0.2240  0.6003 -0.2889
  796MOL0     O 7383   3.305  10.751   1.454  0.4271  0.6993  0.1182
  796MOL0     C 7384   3.220  10.636   1.453  0.8219 -0.0250 -0.2266
  796MOL0     C 7385   3.076  10.672   1.449  0.9114  0.3071  0.1592
  796MOL0     C 7386   2.974  10.551   1.461  0.0670  0.4570  0.5352
  796MOL0     C 7387   2.959  10.518   1.609  1.0240  1.1924  0.9536
  796MOL0     C 7388   2.872  10.605   1.684  0.0941  0.2612  0.2931
  796MOL0     C 7389   2.780  10.660   1.729 -0.4009  0.9765  0.0122
  796MOL0     C 7390   3.447  10.695   1.265 -0.0186  0.3656  0.8189
  796MOL0     C 7391   3.571  10.713   1.208  1.0079 -0.6243 -0.2456
  796MOL0     C 7392   3.579  10.674   1.061 -0.3355 -1.3435  0.3948
  796MOL0     H 7393   3.989  11.135   1.301 -3.1508 -1.2907 -0.9800
  796MOL0     H 7394   4.220  11.208   1.276 -1.5448  0.3473 -2.6862
  796MOL0     H 7395   4.532  11.100   0.993 -0.8077  0.3633 -0.7962
  796MOL0     H 7396   4.381  11.188   1.027 -0.5265 -0.2370  0.2995
  796MOL0     H 7397   4.623  11.208   1.213  1.9714  0.1699 -1.2744
  796MOL0     H 7398   4.486  11.313   1.197  0.9993  0.7777  0.0324
  796MOL0     H 7399   4.656  11.426   1.079 -2.3506  0.4084 -1.2530
  796MOL0     H 7400   4.585  11.350   0.941  0.0768  2.2026  1.0562
  796MOL0     H 7401   4.832  11.236   1.084 -2.0084 -0.8887 -0.1223
  796MOL0     H 7402   4.744  11.166   0.957  1.5255 -0.5767  0.4794
  796MOL0     H 7403   4.765  11.380   0.809  3.2496 -0.1755 -2.0359
  796MOL0     H 7404   4.859  11.459   0.927  1.2886 -0.4773 -0.6322
  796MOL0     H 7405   4.937  11.192   0.783  1.2014  0.4991 -1.4574
  796MOL0     H 7406   4.989  11.349   0.747 -2.7442  2.6699  0.7497
  796MOL0     H 7407   5.039  11.191   0.996 -0.9304  0.1286 -0.9297
  796MOL0     H 7408   5.089  11.360   0.983 -1.2291 -1.6252  2.5978
  796MOL0     H 7409   5.197  11.120   0.830  1.3017  1.0294 -1.7429
  796MOL0     H 7410   5.211  11.281   0.761  1.1189  1.7034  0.4773
  796MOL0     H 7411   5.253  11.175   1.124 -1.0626  4.9599  2.1592
  796MOL0     H 7412   5.495  11.186   1.309  0.4758  1.1825  0.6014
  796MOL0     H 7413   5.616  11.131   1.190 -1.9338 -1.2890 -2.4400
  796MOL0     H 7414   5.708  11.294   1.325  1.6366  0.2747 -0.8994
  796MOL0     H 7415   5.706  11.365   1.170  0.1472  1.0755  1.5750
  796MOL0     H 7416   5.490  11.428   1.364 -1.0240  1.0745  0.2575
  796MOL0     H 7417   5.485  11.481   1.201 -0.7824 -2.5036 -0.2865
  796MOL0     H 7418   5.605  11.661   1.357 -0.1088  1.4120 -3.9017
  796MOL0     H 7419   5.720  11.598   1.243  0.4030  1.6943 -0.3444
  796MOL0     H 7420   5.895  11.705   1.333  1.2186  2.6948  0.6727
  796MOL0     H 7421   6.127  11.756   1.417 -1.9909  0.4100 -0.3191
  796MOL0     H 7422   6.364  11.571   1.951 -2.4828 -0.2561 -2.8523
  796MOL0     H 7423   6.604  11.589   2.056 -0.0521 -1.6505 -0.4520
  796MOL0     H 7424   6.817  11.546   2.107 -0.8373  1.4017 -1.0017
  796MOL0     H 7425   6.861  11.457   1.973 -1.3048  0.5538  0.7899
  796MOL0     H 7426   7.095  11.583   1.952 -0.4193 -1.8929 -0.4775
  796MOL0     H 7427   7.043  11.664   2.099  1.2653  0.8208 -0.6194
  796MOL0     H 7428   7.027  11.429   2.195 -1.7150 -1.6143 -1.5358
  796MOL0     H 7429   7.138  11.389   2.057  1.0592 -0.3394  1.7100
  796MOL0     H 7430   7.192  11.615   2.249  0.0552 -0.1956  0.7992
  796MOL0     H 7431   7.300  11.553   2.122  0.0849  0.2718 -0.0417
  796MOL0     H 7432   7.309  11.335   2.236  0.5474  0.3341 -0.4156
  796MOL0     H 7433   7.230  11.407   2.380  2.3407  3.6680  3.0028
  796MOL0     H 7434   7.490  11.484   2.266  1.2427  3.5759  1.2272
  796MOL0     H 7435   7.406  11.586   2.385  2.7111  0.4273  0.0261
  796MOL0     H 7436   7.488  11.308   2.470 -2.5612 -0.2432  3.4550
  796MOL0     H 7437   7.420  11.428   2.566 -1.7277 -1.5173 -0.4958
  796MOL0     H 7438   7.603  11.591   2.497 -0.2540 -0.3933  0.4631
  796MOL0     H 7439   7.648  11.449   2.602  0.2336 -0.3498 -0.4065
  796MOL0     H 7440   6.777  11.672   1.677  1.9105  0.5480  1.8789
  796MOL0     H 7441   6.538  11.636   1.571 -2.7608  3.5434  1.0931
  796MOL0     H 7442   6.085  11.450   1.714  0.5724  1.2449  1.3961
  796MOL0     H 7443   5.866  11.404   1.647 -0.2924  1.4825  0.6536
  796MOL0     H 7444   4.327  10.837   1.109 -0.5624  0.5389 -0.1215
  796MOL0     H 7445   4.068  10.758   1.138 -2.3675 -0.4325  3.8402
  796MOL0     H 7446   3.718  10.900   1.451 -3.1616  1.5445  1.3466
  796MOL0     H 7447   3.513  10.851   1.565  1.2796 -0.1903  0.6643
  796MOL0     H 7448   3.250  10.587   1.547  1.0612  2.4651  1.0753
  796MOL0     H 7449   3.234  10.571   1.366 -1.9168 -0.6874 -0.2579
  796MOL0     H 7450   3.056  10.728   1.357  2.3658  1.5490  0.5670
  796MOL0     H 7451   3.053  10.743   1.529 -0.5471  0.7102 -0.5745
  796MOL0     H 7452   3.013  10.464   1.408 -1.3841 -0.2986  0.6736
  796MOL0     H 7453   2.880  10.586   1.417 -0.0681 -1.5421 -0.8806
  796MOL0     H 7454   2.904  10.423   1.613 -0.0401  1.7902  1.0133
  796MOL0     H 7455   3.055  10.498   1.657  0.8740  1.3272  1.3205
  796MOL0     H 7456   2.680  10.685   1.760 -0.9339  1.2887 -1.8498
  796MOL0     H 7457   3.369  10.646   1.208 -0.1467 -0.5416  1.7289
  796MOL0     H 7458   3.489  10.629   1.018 -1.4739  0.7280  0.4729
  796MOL0     H 7459   3.595  10.764   1.001  0.9651 -0.1094  2.4717
  796MOL0     H 7460   3.666  10.607   1.060  0.4685 -0.3439 -1.4566
  797MOL0     O 7461   1.086   2.192   1.689 -0.0213 -0.0794  0.2351
  797MOL0     C 7462   1.070   2.206   1.566 -0.1861 -0.3350  0.3945
  797MOL0     O 7463   1.168   2.234   1.470 -0.2659  0.1242 -0.0896
  797MOL0     C 7464   1.302   2.192   1.487  0.1609 -0.1886 -0.1073
  797MOL0     C 7465   1.350   2.102   1.573  0.0077  0.5001 -1.3388
  797MOL0     C 7466   1.482   2.068   1.573 -0.3763 -0.4609 -0.6719
  797MOL0     C 7467   1.571   2.130   1.487 -0.3127  0.2134 -0.5891
  797MOL0     O 7468   1.698   2.091   1.497  0.2954 -0.8844 -0.2640
  797MOL0     C 7469   1.794   2.129   1.400 -0.4269 -0.5215 -0.3136
  797MOL0     C 7470   1.911   2.041   1.440  0.3186  0.8623 -0.1706
  797MOL0     C 7471   2.047   2.104   1.428 -0.7919 -0.0235  0.3228
  797MOL0     C 7472   2.155   2.017   1.480 -0.4480  0.6333 -0.2389
  797MOL0     C 7473   2.283   2.103   1.467  1.6051 -0.0283  0.1633
  797MOL0     C 7474   2.408   2.029   1.510  0.7161 -0.0105 -0.2210
  797MOL0     C 7475   2.458   1.911   1.434 -0.5095  0.4858 -0.3038
  797MOL0     C 7476   2.598   1.859   1.483  0.2622 -0.1236 -0.0228
  797MOL0     N 7477   2.615   1.814   1.624  0.5653 -0.5318  1.1391
  797MOL0     C 7478   2.667   1.886   1.732 -0.6184 -0.5784 -0.5343
  797MOL0     C 7479   2.655   1.791   1.830  0.2568 -0.2378 -0.4363
  797MOL0     C 7480   2.695   1.788   1.969  0.6573 -0.4664 -0.9161
  797MOL0     C 7481   2.843   1.740   1.975 -0.9904  0.2540  0.9324
  797MOL0     C 7482   2.883   1.715   2.125 -0.9097 -0.6121 -0.7031
  797MOL0     C 7483   3.033   1.687   2.136  0.3169  0.0088 -0.2148
  797MOL0     O 7484   3.121   1.792   2.105 -0.3459  0.3220  0.0728
  797MOL0     C 7485   3.248   1.740   2.114 -0.2947 -0.1655  0.4127
  797MOL0     C 7486   3.302   1.686   1.998 -0.1450 -0.5712 -0.1922
  797MOL0     C 7487   3.434   1.637   1.996  0.1372  0.0773 -0.8498
  797MOL0     C 7488   3.519   1.646   2.116 -0.2273 -0.0966 -0.3121
  797MOL0     C 7489   3.663   1.606   2.119  0.4010 -0.7394  0.4091
  797MOL0     O 7490   3.699   1.514   2.028  0.0641 -0.0231  0.1667
  797MOL0     C 7491   3.832   1.488   2.003  0.5969 -0.1593 -0.0325
  797MOL0     C 7492   3.900   1.526   1.885 -0.9441 -0.3965  0.3940
  797MOL0     C 7493   4.034   1.488   1.856 -0.2142  0.8237 -0.3182
  797MOL0     C 7494   4.107   1.418   1.947  0.3232  0.8366 -0.4669
  797MOL0     O 7495   4.239   1.391   1.908 -0.3909 -0.0848 -0.2758
  797MOL0     C 7496   4.339   1.358   2.009  0.1109  0.0911  0.5971
  797MOL0     C 7497   4.346   1.198   2.018 -0.6752 -0.2146 -1.2194
  797MOL0     C 7498   4.438   1.146   2.143  0.7029  0.0146  0.5817
  797MOL0     C 7499   4.445   0.991   2.141  0.0845 -0.5827 -0.7156
  797MOL0     C 7500   4.541   0.941   2.252 -1.6482  0.3725 -0.2803
  797MOL0     C 7501   4.553   0.787   2.275  0.8638  0.1295 -0.4878
  797MOL0     C 7502   4.633   0.760   2.402  0.2879 -1.2597 -0.4233
  797MOL0     C 7503   4.778   0.721   2.396 -0.9344  0.3617 -0.7760
  797MOL0    Cl 7504   4.796   0.563   2.322 -0.1788 -0.2589  0.7423
  797MOL0     C 7505   4.036   1.374   2.066 -0.6297 -0.2505 -0.6716
  797MOL0     C 7506   3.906   1.413   2.090 -0.7546  0.4735 -0.5749
  797MOL0     O 7507   3.734   1.661   2.209  0.2748 -0.2718  0.9179
  797MOL0     C 7508   3.454   1.693   2.235 -0.1368  1.5665 -1.0439
  797MOL0     C 7509   3.319   1.734   2.233 -0.0734  0.0674 -0.6600
  797MOL0     N 7510   2.595   1.675   1.780 -0.0218 -0.1673  0.1305
  797MOL0     N 7511   2.571   1.697   1.658 -0.3263  0.8318  0.8607
  797MOL0     C 7512   1.524   2.230   1.400 -0.4690  0.1290  0.0391
  797MOL0     C 7513   1.396   2.259   1.403  0.9235 -0.1059 -0.2443
  797MOL0     C 7514   0.936   2.203   1.506 -0.2474  0.2620  0.0464
  797MOL0     C 7515   0.929   2.234   1.371  0.7726 -0.0097  0.0163
  797MOL0     C 7516   0.803   2.230   1.308  0.2486 -0.6307  0.0632
  797MOL0     C 7517   0.684   2.184   1.360  0.5468 -0.2737 -0.3678
  797MOL0     O 7518   0.581   2.177   1.274 -0.1875  1.0498  0.6279
  797MOL0     C 7519   0.455   2.107   1.308 -0.5318 -0.5541  0.1123
  797MOL0     C 7520   0.369   2.095   1.181 -0.1914  0.6838  0.0479
  797MOL0     C 7521   0.339   1.940   1.143  0.0033  0.1981  0.2633
  797MOL0     C 7522   0.257   1.864   1.244  0.0242 -1.2466  0.4800
  797MOL0     C 7523   0.142   1.933   1.279 -0.1598 -0.3809  0.9912
  797MOL0     C 7524   0.031   1.980   1.304  0.3270  0.5271 -0.1286
  797MOL0     C 7525   0.693   2.147   1.492  0.3484  0.4491 -0.8047
  797MOL0     C 7526   0.811   2.158   1.566  0.4635 -0.5138 -0.0910
  797MOL0     C 7527   0.798   2.137   1.709  0.8427 -0.0486 -0.1055
  797MOL0     H 7528   1.284   2.054   1.645  2.2137 -1.6638 -0.6024
  797MOL0     H 7529   1.519   2.003   1.652  1.5981 -0.1367 -1.2794
  797MOL0     H 7530   1.762   2.108   1.298  1.0787 -0.7951 -0.7464
  797MOL0     H 7531   1.824   2.233   1.412  1.3430 -1.0453  0.1805
  797MOL0     H 7532   1.901   1.944   1.391  0.3065 -0.0666  1.6111
  797MOL0     H 7533   1.889   2.018   1.544 -4.5141  0.3797 -1.0597
  797MOL0     H 7534   2.047   2.199   1.483  2.7480  0.2944  0.0552
  797MOL0     H 7535   2.066   2.119   1.322 -2.5096 -0.0874 -0.0197
  797MOL0     H 7536   2.121   1.976   1.575 -1.4549 -1.8669 -1.5998
  797MOL0     H 7537   2.165   1.930   1.415 -1.6523 -0.4672  0.9893
  797MOL0     H 7538   2.299   2.127   1.361  0.4569 -1.0041 -0.2630
  797MOL0     H 7539   2.259   2.189   1.530 -2.7232  0.8707 -2.2944
  797MOL0     H 7540   2.486   2.102   1.532 -1.4946  1.8751  1.9017
  797MOL0     H 7541   2.388   1.998   1.613 -0.0424 -0.2202 -0.4231
  797MOL0     H 7542   2.475   1.936   1.329  0.1921 -2.4397 -0.9561
  797MOL0     H 7543   2.392   1.824   1.442 -0.5809  0.7101  4.6428
  797MOL0     H 7544   2.621   1.775   1.417 -1.7142  0.4075 -1.4952
  797MOL0     H 7545   2.672   1.939   1.472  0.9033 -0.2240  2.8706
  797MOL0     H 7546   2.706   1.987   1.740  0.2195 -0.6903 -2.6959
  797MOL0     H 7547   2.681   1.888   2.011 -2.1288 -1.7154  1.4366
  797MOL0     H 7548   2.626   1.724   2.024 -1.2365  0.1961 -2.3785
  797MOL0     H 7549   2.856   1.648   1.918 -0.2187  0.8149  0.1688
  797MOL0     H 7550   2.909   1.818   1.935  0.0242 -1.8067 -1.7568
  797MOL0     H 7551   2.835   1.621   2.154 -0.7101 -2.3740 -5.2065
  797MOL0     H 7552   2.858   1.799   2.191 -0.7610  0.5440 -2.0723
  797MOL0     H 7553   3.061   1.601   2.073  3.0942  2.2906 -2.3880
  797MOL0     H 7554   3.050   1.665   2.242 -1.4433 -0.1953  0.0515
  797MOL0     H 7555   3.241   1.691   1.909 -1.1712 -3.2773  0.2663
  797MOL0     H 7556   3.469   1.587   1.906 -1.2709 -0.8962 -0.8809
  797MOL0     H 7557   3.850   1.593   1.816  0.2638 -0.0530 -0.1612
  797MOL0     H 7558   4.086   1.514   1.764 -1.0719  2.7725 -0.2864
  797MOL0     H 7559   4.438   1.386   1.971  2.0960 -1.1168  4.3844
  797MOL0     H 7560   4.317   1.408   2.103  0.0343  2.9752 -0.8367
  797MOL0     H 7561   4.245   1.158   2.032 -0.3984 -0.7096 -0.5681
  797MOL0     H 7562   4.379   1.153   1.924 -2.1388 -0.0427 -1.8441
  797MOL0     H 7563   4.535   1.195   2.153  0.8192  0.0200 -0.4371
  797MOL0     H 7564   4.392   1.179   2.237  2.4376 -1.3687  1.9828
  797MOL0     H 7565   4.473   0.953   2.043 -0.6695  2.5591 -2.2679
  797MOL0     H 7566   4.352   0.938   2.164 -0.2662  0.1779 -0.3386
  797MOL0     H 7567   4.517   0.998   2.342 -1.3851 -2.7919  1.9526
  797MOL0     H 7568   4.646   0.964   2.228 -0.3684 -1.5224  2.8721
  797MOL0     H 7569   4.452   0.752   2.297  1.0391 -0.2680 -0.3036
  797MOL0     H 7570   4.586   0.731   2.187 -2.9511 -2.0982 -0.7039
  797MOL0     H 7571   4.592   0.672   2.453  3.1423 -0.9949  2.7442
  797MOL0     H 7572   4.618   0.848   2.465  1.3444 -0.5712 -1.1103
  797MOL0     H 7573   4.842   0.783   2.332  0.5656 -0.4155 -0.0774
  797MOL0     H 7574   4.812   0.719   2.500  1.5790  3.5137 -1.3341
  797MOL0     H 7575   4.080   1.298   2.130  0.3347 -1.1046 -2.2922
  797MOL0     H 7576   3.859   1.364   2.175 -0.5732  0.2716 -0.5902
  797MOL0     H 7577   3.512   1.683   2.327 -0.1414 -3.8964 -1.3007
  797MOL0     H 7578   3.289   1.775   2.329  3.3387  1.1201  0.0728
  797MOL0     H 7579   1.592   2.275   1.329 -1.9001  1.1690 -0.7296
  797MOL0     H 7580   1.347   2.332   1.339  2.3283  0.6263 -0.5210
  797MOL0     H 7581   1.018   2.255   1.312  0.1949 -0.7247 -1.1277
  797MOL0     H 7582   0.791   2.249   1.202  0.8286 -3.8469 -0.6896
  797MOL0     H 7583   0.406   2.176   1.378  0.3697  2.0630 -1.7206
  797MOL0     H 7584   0.478   2.009   1.352  3.8224  0.0091 -0.5132
  797MOL0     H 7585   0.416   2.127   1.087 -0.2090  0.2528 -0.1117
  797MOL0     H 7586   0.273   2.144   1.196 -0.5180 -0.2736  1.1880
  797MOL0     H 7587   0.438   1.897   1.125  2.0896  3.9980  1.5326
  797MOL0     H 7588   0.292   1.922   1.045 -2.8359 -0.3830  1.6159
  797MOL0     H 7589   0.242   1.763   1.205 -0.2161 -1.1436  0.3026
  797MOL0     H 7590   0.317   1.852   1.334 -2.3219 -1.3844  2.1190
  797MOL0     H 7591  -0.058   2.026   1.341 -0.2179 -1.6458  1.4672
  797MOL0     H 7592   0.603   2.113   1.543  0.6687 -0.0265 -0.5503
  797MOL0     H 7593   0.841   2.041   1.738  0.4337 -0.3033 -0.3196
  797MOL0     H 7594   0.848   2.216   1.765 -1.0989  1.0526  0.1942
  797MOL0     H 7595   0.694   2.145   1.744  0.3887  2.4169 -1.7643
  798MOL0     O 7596   9.552   1.052   4.122 -0.1777  0.7075  0.3242
  798MOL0     C 7597   9.508   1.165   4.095  1.1097  0.2614 -0.9247
  798MOL0     O 7598   9.579   1.290   4.120  0.3293 -0.0126  0.0849
  798MOL0     C 7599   9.691   1.295   4.194  0.3653 -0.3039 -0.7222
  798MOL0     C 7600   9.704   1.236   4.321  0.3479  0.8299 -0.3048
  798MOL0     C 7601   9.828   1.245   4.388  0.3362 -0.5906  1.1840
  798MOL0     C 7602   9.932   1.324   4.334 -0.2306 -0.9092 -0.5286
  798MOL0     O 7603  10.045   1.331   4.410 -0.1968  0.0478 -0.1927
  798MOL0     C 7604  10.167   1.375   4.346  0.2354 -0.3716 -0.1382
  798MOL0     C 7605  10.282   1.396   4.441  0.4670  0.5755 -0.3357
  798MOL0     C 7606  10.420   1.399   4.383 -0.4877  0.4124 -0.2788
  798MOL0     C 7607  10.458   1.269   4.312 -0.3014 -0.1586 -0.3397
  798MOL0     C 7608  10.603   1.288   4.258 -0.4704 -1.0908  0.5584
  798MOL0     C 7609  10.699   1.270   4.374  0.0620 -0.1409  0.1345
  798MOL0     C 7610  10.843   1.279   4.309 -0.1983 -0.6587 -0.2754
  798MOL0     C 7611  10.936   1.216   4.408 -0.1168 -0.1408 -0.1767
  798MOL0     N 7612  11.075   1.214   4.353  0.1632  0.1636 -0.2878
  798MOL0     C 7613  11.160   1.107   4.380 -0.0680  0.0625 -0.2054
  798MOL0     C 7614  11.281   1.163   4.382 -0.4949  0.7417 -0.1041
  798MOL0     C 7615  11.420   1.104   4.404  0.4434 -0.0063  0.2747
  798MOL0     C 7616  11.514   1.108   4.285 -0.1118  0.6496  1.4660
  798MOL0     C 7617  11.578   1.231   4.236 -0.5766  0.2636  0.4644
  798MOL0     C 7618  11.662   1.289   4.340 -0.3133 -0.3453  0.1724
  798MOL0     O 7619  11.707   1.195   4.440 -0.0364  0.6557 -0.2719
  798MOL0     C 7620  11.836   1.191   4.487 -0.3384  0.8257 -0.0269
  798MOL0     C 7621  11.932   1.296   4.474 -0.1916 -0.1208  0.6456
  798MOL0     C 7622  12.053   1.296   4.530 -0.4966 -0.0222 -0.4417
  798MOL0     C 7623  12.094   1.191   4.605  0.5327  0.3231  0.2216
  798MOL0     C 7624  12.226   1.179   4.656  0.6351 -0.9082  0.2064
  798MOL0     O 7625  12.310   1.280   4.632  0.3391  0.6003  0.0399
  798MOL0     C 7626  12.444   1.259   4.648 -0.0365  0.3298 -0.9236
  798MOL0     C 7627  12.525   1.253   4.531 -0.4043  0.9614 -0.2295
  798MOL0     C 7628  12.659   1.259   4.537  0.2949 -0.0862 -0.3103
  798MOL0     C 7629  12.725   1.272   4.656  0.1923  0.5725 -0.6544
  798MOL0     O 7630  12.858   1.298   4.639  1.0989 -0.6326  0.3497
  798MOL0     C 7631  12.901   1.430   4.684  0.4628  0.5710 -0.2582
  798MOL0     C 7632  12.996   1.489   4.575 -0.0893 -0.2420 -0.0731
  798MOL0     C 7633  12.934   1.485   4.442  0.1462 -1.1921 -0.5410
  798MOL0     C 7634  12.798   1.566   4.433  0.8544 -1.4739  0.1999
  798MOL0     C 7635  12.737   1.573   4.300 -0.4575 -0.2734  0.1317
  798MOL0     C 7636  12.601   1.645   4.298 -0.8352  0.6259 -0.1927
  798MOL0     C 7637  12.490   1.550   4.345 -0.2210 -0.0873 -0.0319
  798MOL0     C 7638  12.354   1.631   4.357 -0.4679 -0.1142 -0.3398
  798MOL0    Cl 7639  12.274   1.680   4.213  0.0764  0.2227 -0.1472
  798MOL0     C 7640  12.648   1.289   4.774  0.8876 -0.6531  0.2216
  798MOL0     C 7641  12.503   1.284   4.773  0.6769  0.6620 -1.4698
  798MOL0     O 7642  12.250   1.076   4.714 -0.1719 -1.0505 -0.7374
  798MOL0     C 7643  12.002   1.083   4.628 -0.0281  1.1753  0.5152
  798MOL0     C 7644  11.878   1.082   4.565 -0.6488 -0.0601  0.3974
  798MOL0     N 7645  11.274   1.295   4.339  0.1589 -0.2643 -0.3742
  798MOL0     N 7646  11.154   1.324   4.320  0.3531 -0.2744  0.4364
  798MOL0     C 7647   9.913   1.390   4.214  0.0133 -0.0848  0.2658
  798MOL0     C 7648   9.789   1.374   4.153  0.0047 -0.4843 -0.2489
  798MOL0     C 7649   9.362   1.176   4.041  0.3331 -0.3679 -0.7102
  798MOL0     C 7650   9.288   1.300   4.065 -0.7596 -0.0622 -0.1873
  798MOL0     C 7651   9.158   1.315   4.023  0.1096 -0.6159 -0.1826
  798MOL0     C 7652   9.083   1.212   3.966  0.2776  0.3361  0.1358
  798MOL0     O 7653   8.945   1.213   3.942  0.3104 -0.1188  0.4024
  798MOL0     C 7654   8.869   1.314   4.011  0.1243  0.2474  0.5873
  798MOL0     C 7655   8.724   1.312   3.979 -0.4460 -0.1389  0.2556
  798MOL0     C 7656   8.648   1.382   4.086  0.2658  0.3479 -0.5743
  798MOL0     C 7657   8.500   1.397   4.043  0.0005 -0.2947  0.0078
  798MOL0     C 7658   8.409   1.424   4.155  0.2125 -0.0683 -0.7327
  798MOL0     C 7659   8.330   1.435   4.241 -0.0883 -0.0704  0.1062
  798MOL0     C 7660   9.155   1.093   3.944 -0.3581  0.3783  0.5153
  798MOL0     C 7661   9.286   1.079   3.972 -0.2736  0.2095 -0.5658
  798MOL0     C 7662   9.341   0.938   3.928 -0.4839  0.4970 -0.1535
  798MOL0     H 7663   9.622   1.175   4.357  0.5864 -0.8980 -2.5151
  798MOL0     H 7664   9.840   1.191   4.481 -1.4291  1.8241  2.9504
  798MOL0     H 7665  10.187   1.298   4.272 -0.7134 -0.7840  0.0128
  798MOL0     H 7666  10.151   1.467   4.289  1.8254 -0.6092 -1.0083
  798MOL0     H 7667  10.267   1.311   4.508 -2.9510  1.2462 -0.0616
  798MOL0     H 7668  10.267   1.479   4.511 -0.1522 -0.8127  1.2587
  798MOL0     H 7669  10.495   1.415   4.461 -1.2115 -0.6379  0.6711
  798MOL0     H 7670  10.414   1.481   4.311 -2.7573 -1.2778 -2.1884
  798MOL0     H 7671  10.456   1.188   4.384  4.0606  1.4535  1.9806
  798MOL0     H 7672  10.386   1.253   4.231 -4.2464  0.3984  2.7232
  798MOL0     H 7673  10.619   1.218   4.176  3.5048 -0.9086  0.9930
  798MOL0     H 7674  10.617   1.388   4.216  0.2437 -0.6329  1.8148
  798MOL0     H 7675  10.681   1.343   4.453 -3.7979 -2.1974  1.4093
  798MOL0     H 7676  10.675   1.170   4.412  0.9486 -1.2012 -1.9264
  798MOL0     H 7677  10.878   1.379   4.282 -2.0635 -0.1614 -0.9930
  798MOL0     H 7678  10.850   1.219   4.218 -3.3334  0.6822 -1.5507
  798MOL0     H 7679  10.922   1.282   4.495 -3.1908  0.5326 -1.0593
  798MOL0     H 7680  10.903   1.115   4.433 -0.6185  0.5897  2.4179
  798MOL0     H 7681  11.145   1.001   4.393  0.3057  0.1371  0.9354
  798MOL0     H 7682  11.461   1.159   4.489  1.8562 -1.2749  0.4553
  798MOL0     H 7683  11.392   1.003   4.438 -2.2527 -0.5663 -3.0283
  798MOL0     H 7684  11.593   1.037   4.311  0.3609  0.9221  0.7889
  798MOL0     H 7685  11.466   1.056   4.202  1.0417  2.1936 -0.2416
  798MOL0     H 7686  11.509   1.309   4.200  1.3506  1.8945  0.1728
  798MOL0     H 7687  11.638   1.213   4.146  0.1926  2.1039  0.5778
  798MOL0     H 7688  11.594   1.360   4.389 -0.9101 -0.7733 -0.0227
  798MOL0     H 7689  11.738   1.352   4.294  0.1340  0.0379  1.3898
  798MOL0     H 7690  11.895   1.377   4.412 -0.3132 -0.9781 -0.4362
  798MOL0     H 7691  12.117   1.384   4.526  0.0031 -0.2637  1.3054
  798MOL0     H 7692  12.476   1.219   4.440  1.3614 -1.7388 -0.2968
  798MOL0     H 7693  12.719   1.253   4.447  1.2204  0.1581  0.2828
  798MOL0     H 7694  12.819   1.500   4.707 -1.1262 -1.5342  0.8671
  798MOL0     H 7695  12.956   1.411   4.777 -1.4009 -1.1213  0.5826
  798MOL0     H 7696  13.020   1.588   4.614 -2.8995  1.0883 -1.4154
  798MOL0     H 7697  13.078   1.418   4.572 -0.9005 -1.1700 -1.5242
  798MOL0     H 7698  13.006   1.523   4.369  1.3773 -2.7113 -0.1743
  798MOL0     H 7699  12.905   1.382   4.423 -0.3527 -1.2454  0.4355
  798MOL0     H 7700  12.820   1.672   4.449 -1.3869 -0.7293 -1.1255
  798MOL0     H 7701  12.724   1.543   4.511  2.2359  1.9553  2.8121
  798MOL0     H 7702  12.710   1.476   4.257 -3.2776  0.3289  0.3098
  798MOL0     H 7703  12.801   1.632   4.233 -1.4517 -0.6928 -1.2362
  798MOL0     H 7704  12.602   1.742   4.348  1.0685  1.5372 -1.8670
  798MOL0     H 7705  12.585   1.661   4.191  0.5661 -1.0660 -0.7177
  798MOL0     H 7706  12.518   1.517   4.445  2.8505  1.1741 -0.3441
  798MOL0     H 7707  12.466   1.465   4.280  1.4360  0.8857 -2.0667
  798MOL0     H 7708  12.288   1.566   4.416 -1.1482  1.0889  0.2707
  798MOL0     H 7709  12.372   1.718   4.420  0.3125  0.6231 -1.5359
  798MOL0     H 7710  12.697   1.301   4.870 -2.0573  0.3922  1.7119
  798MOL0     H 7711  12.447   1.310   4.863 -0.1001  0.1668 -1.7992
  798MOL0     H 7712  12.022   0.995   4.688  0.7866  2.4433  2.1890
  798MOL0     H 7713  11.808   1.001   4.586 -0.2384 -0.7104 -0.6830
  798MOL0     H 7714   9.999   1.441   4.171  0.3163  1.2523  2.3247
  798MOL0     H 7715   9.772   1.435   4.064  2.0271  1.3443  0.5296
  798MOL0     H 7716   9.341   1.383   4.111 -1.4711  0.3520 -0.0869
  798MOL0     H 7717   9.111   1.406   4.059  1.3022 -0.8989  2.3042
  798MOL0     H 7718   8.904   1.403   3.957 -0.6842 -0.2282 -0.7786
  798MOL0     H 7719   8.889   1.327   4.117 -0.6392  2.2859  0.5325
  798MOL0     H 7720   8.683   1.210   3.982  0.5738 -0.6520 -1.7487
  798MOL0     H 7721   8.710   1.354   3.879  0.5357 -1.9693 -0.7094
  798MOL0     H 7722   8.678   1.487   4.097 -2.9731  1.6704 -2.7630
  798MOL0     H 7723   8.657   1.325   4.179 -1.8266  0.5871 -0.1691
  798MOL0     H 7724   8.499   1.481   3.973 -0.5357 -1.7397 -1.7907
  798MOL0     H 7725   8.470   1.304   3.995  0.0680 -1.1756  1.6157
  798MOL0     H 7726   8.268   1.426   4.327 -0.2212  2.7196  0.4043
  798MOL0     H 7727   9.108   1.010   3.891  0.7809  1.8356 -3.0706
  798MOL0     H 7728   9.388   0.881   4.009 -0.8752 -0.2531 -0.4381
  798MOL0     H 7729   9.267   0.872   3.882 -0.1508 -0.0360  0.0599
  798MOL0     H 7730   9.423   0.959   3.860 -1.1922 -1.1356 -1.5701
  799MOL0     O 7731   4.776   2.761   8.866 -0.1247 -0.4037 -0.0382
  799MOL0     C 7732   4.742   2.856   8.795  0.4978  0.8136 -0.1285
  799MOL0     O 7733   4.823   2.910   8.695  0.3045  0.2927 -0.0542
  799MOL0     C 7734   4.938   2.848   8.668  0.7406  0.2808  0.8258
  799MOL0     C 7735   5.051   2.875   8.741 -1.0819 -0.2521 -0.5336
  799MOL0     C 7736   5.171   2.805   8.719  0.0574  0.2639 -0.5582
  799MOL0     C 7737   5.180   2.712   8.618  0.0711  0.4533  0.1711
  799MOL0     O 7738   5.275   2.615   8.599  0.4240 -0.1495 -0.3478
  799MOL0     C 7739   5.403   2.625   8.677  0.8174  0.7145  0.7451
  799MOL0     C 7740   5.506   2.525   8.628  0.1017 -0.1587  0.1789
  799MOL0     C 7741   5.635   2.546   8.698 -0.8316 -0.0857  0.0344
  799MOL0     C 7742   5.751   2.533   8.603 -0.5184 -0.6854  0.6009
  799MOL0     C 7743   5.894   2.537   8.677  0.5543  0.2534 -0.2689
  799MOL0     C 7744   5.912   2.496   8.822  0.7236  0.7934  0.3679
  799MOL0     C 7745   6.062   2.524   8.873  0.3244  0.7298 -0.9403
  799MOL0     C 7746   6.112   2.447   8.994 -0.3550  0.3980 -0.2062
  799MOL0     N 7747   6.036   2.473   9.113  0.4144  0.8613 -0.0157
  799MOL0     C 7748   6.018   2.596   9.173 -0.1373  0.8663 -0.1494
  799MOL0     C 7749   5.946   2.562   9.284  0.0005 -0.3995  0.3823
  799MOL0     C 7750   5.910   2.657   9.395  0.1175  0.3753 -0.5318
  799MOL0     C 7751   6.037   2.700   9.473  0.4777  0.9589 -0.4106
  799MOL0     C 7752   6.099   2.590   9.558  0.4304  0.2598 -0.6251
  799MOL0     C 7753   6.202   2.509   9.492 -0.3371  0.4287 -0.3410
  799MOL0     O 7754   6.314   2.593   9.461  0.4598 -0.0226 -0.3041
  799MOL0     C 7755   6.352   2.578   9.327 -0.8750  0.3496 -0.1150
  799MOL0     C 7756   6.400   2.463   9.259 -0.1926  0.7636  0.5135
  799MOL0     C 7757   6.449   2.462   9.129 -0.0035 -0.7883 -0.8280
  799MOL0     C 7758   6.443   2.582   9.051  0.4269 -0.2452  0.2874
  799MOL0     C 7759   6.488   2.582   8.911 -0.3379 -0.4198  0.6774
  799MOL0     O 7760   6.569   2.480   8.885 -0.1073  0.7102  0.2899
  799MOL0     C 7761   6.653   2.470   8.778 -0.7646 -0.0197 -0.0037
  799MOL0     C 7762   6.756   2.551   8.764 -0.0157  0.0783 -0.2843
  799MOL0     C 7763   6.850   2.539   8.665 -0.4423 -0.4752  0.2395
  799MOL0     C 7764   6.844   2.424   8.579 -0.0476  0.5825  0.7667
  799MOL0     O 7765   6.927   2.412   8.466 -0.0975  0.6833  0.4916
  799MOL0     C 7766   7.007   2.296   8.456 -0.1710 -0.3509 -0.4646
  799MOL0     C 7767   7.086   2.300   8.332 -0.1776 -0.8054  0.1228
  799MOL0     C 7768   7.195   2.410   8.333  0.7664 -0.2745  0.2055
  799MOL0     C 7769   7.238   2.454   8.195  0.3658  0.7718 -1.3770
  799MOL0     C 7770   7.356   2.540   8.211 -0.8633 -0.4111 -0.6038
  799MOL0     C 7771   7.408   2.581   8.072  0.0099 -0.2923  0.0122
  799MOL0     C 7772   7.554   2.630   8.074 -1.1388 -0.3855 -0.2611
  799MOL0     C 7773   7.588   2.725   7.966  0.6509  0.4206  0.7824
  799MOL0    Cl 7774   7.767   2.749   7.943 -0.2379 -0.3052 -0.5785
  799MOL0     C 7775   6.747   2.325   8.606 -0.3748  0.5001 -0.4522
  799MOL0     C 7776   6.643   2.352   8.698 -0.3948 -0.8478  0.1957
  799MOL0     O 7777   6.468   2.676   8.833  0.1023  0.0113 -0.1175
  799MOL0     C 7778   6.400   2.697   9.119  0.3144  0.3943 -0.1082
  799MOL0     C 7779   6.360   2.693   9.256  0.2288 -0.7313 -0.2024
  799MOL0     N 7780   5.930   2.427   9.294  0.1692  0.6954  0.0864
  799MOL0     N 7781   5.984   2.378   9.188  0.2164  0.2511  0.0722
  799MOL0     C 7782   5.067   2.694   8.538  0.2836 -0.3088 -0.0074
  799MOL0     C 7783   4.947   2.759   8.563 -0.6793 -0.6483  1.3087
  799MOL0     C 7784   4.611   2.921   8.835  0.3137  0.2601 -0.1374
  799MOL0     C 7785   4.540   2.892   8.959  1.1235 -0.6604  0.0386
  799MOL0     C 7786   4.417   2.949   8.985  0.3496  0.4872 -0.4821
  799MOL0     C 7787   4.360   3.039   8.900 -0.6047  0.2419  0.2968
  799MOL0     O 7788   4.236   3.080   8.947  0.5353 -0.2282  0.4638
  799MOL0     C 7789   4.207   3.216   8.932 -0.3012 -0.6735  0.0929
  799MOL0     C 7790   4.126   3.269   9.052 -0.6522  0.6279 -1.0066
  799MOL0     C 7791   4.205   3.220   9.178 -0.2077 -0.2105  0.1597
  799MOL0     C 7792   4.212   3.334   9.278  0.4221  0.5261 -0.1852
  799MOL0     C 7793   4.086   3.355   9.353  0.0655  0.2902 -0.3420
  799MOL0     C 7794   3.979   3.388   9.405 -0.2658 -0.1652 -0.3299
  799MOL0     C 7795   4.420   3.063   8.774 -1.1529 -0.7201  0.1932
  799MOL0     C 7796   4.555   3.014   8.752  0.9901 -0.1616  0.4413
  799MOL0     C 7797   4.604   3.059   8.618 -0.2285 -0.1842 -0.0435
  799MOL0     H 7798   5.048   2.958   8.811  3.1154  0.2894 -0.7658
  799MOL0     H 7799   5.257   2.836   8.778 -0.2853  0.3059 -0.0756
  799MOL0     H 7800   5.439   2.728   8.665 -2.4871  1.8679 -0.5908
  799MOL0     H 7801   5.383   2.604   8.782  1.0293 -1.2928  0.4139
  799MOL0     H 7802   5.518   2.547   8.521 -0.5051 -1.7371 -0.2385
  799MOL0     H 7803   5.462   2.425   8.639 -3.0795  1.1909  1.1734
  799MOL0     H 7804   5.636   2.460   8.766 -3.2669 -1.7907 -1.8481
  799MOL0     H 7805   5.642   2.644   8.744 -0.6149  0.5736 -1.3408
  799MOL0     H 7806   5.747   2.437   8.551 -0.1162 -1.0257  1.1859
  799MOL0     H 7807   5.756   2.611   8.527  0.7950 -2.6712 -1.5061
  799MOL0     H 7808   5.976   2.496   8.617  1.3739  0.9801  0.3261
  799MOL0     H 7809   5.925   2.642   8.669 -2.0541  1.1950  0.9788
  799MOL0     H 7810   5.834   2.549   8.878 -0.6436  0.3983 -1.0827
  799MOL0     H 7811   5.887   2.390   8.825  0.7848  0.7450 -0.5497
  799MOL0     H 7812   6.081   2.630   8.892  1.9866  0.0155  2.1627
  799MOL0     H 7813   6.137   2.501   8.797  0.1388 -2.9372 -0.2059
  799MOL0     H 7814   6.097   2.340   8.974 -2.1336  0.5893 -0.1083
  799MOL0     H 7815   6.218   2.468   9.008 -0.6084  1.4638  0.2129
  799MOL0     H 7816   6.060   2.690   9.138 -2.4780  2.6166  1.4505
  799MOL0     H 7817   5.866   2.745   9.347 -0.4554  0.1136 -0.4946
  799MOL0     H 7818   5.849   2.607   9.470  1.6632  1.1860  1.3641
  799MOL0     H 7819   6.112   2.737   9.403  1.5529 -2.0357 -0.9914
  799MOL0     H 7820   6.001   2.778   9.541  0.2877 -0.0138  0.6526
  799MOL0     H 7821   6.016   2.538   9.607 -1.2013  2.0583 -1.3345
  799MOL0     H 7822   6.152   2.634   9.643  0.6658  0.0275 -0.6532
  799MOL0     H 7823   6.158   2.467   9.402  0.3648 -0.1295 -0.4353
  799MOL0     H 7824   6.228   2.429   9.562 -1.5373  0.1383 -0.2190
  799MOL0     H 7825   6.400   2.375   9.323 -1.9351  1.8646  2.1294
  799MOL0     H 7826   6.499   2.370   9.098  1.6087  0.7321 -3.0754
  799MOL0     H 7827   6.763   2.635   8.833  0.9815 -0.7689  0.6823
  799MOL0     H 7828   6.931   2.606   8.638 -0.0648 -1.9656 -2.7470
  799MOL0     H 7829   7.079   2.300   8.538 -1.3397 -0.1828  0.5822
  799MOL0     H 7830   6.947   2.204   8.453 -0.1988 -0.3159 -1.1786
  799MOL0     H 7831   7.136   2.203   8.324 -0.4236 -0.8218 -1.8372
  799MOL0     H 7832   7.011   2.318   8.254  0.1688  0.3607  0.0424
  799MOL0     H 7833   7.159   2.502   8.379 -1.3383 -0.0342 -1.7053
  799MOL0     H 7834   7.286   2.374   8.381  1.0340 -0.5604 -0.4970
  799MOL0     H 7835   7.165   2.515   8.141  0.8464  0.3854 -2.4942
  799MOL0     H 7836   7.264   2.363   8.140  1.5726  2.0337 -2.9910
  799MOL0     H 7837   7.437   2.490   8.264  0.3221  2.3515  0.4231
  799MOL0     H 7838   7.337   2.627   8.274  0.0450 -0.7993  0.2205
  799MOL0     H 7839   7.393   2.498   8.002 -0.2028 -0.5037  0.3011
  799MOL0     H 7840   7.349   2.657   8.020  0.4132 -0.0102 -0.0336
  799MOL0     H 7841   7.612   2.538   8.087 -1.4985 -0.3663  1.6975
  799MOL0     H 7842   7.556   2.681   8.170 -2.5148 -2.1194  0.7433
  799MOL0     H 7843   7.546   2.686   7.873  3.8452 -1.7675  0.0864
  799MOL0     H 7844   7.547   2.823   7.992  1.9136  1.1673  0.1057
  799MOL0     H 7845   6.739   2.234   8.548  0.0435  0.6420 -0.7387
  799MOL0     H 7846   6.563   2.284   8.725  1.3518 -2.1191  2.6184
  799MOL0     H 7847   6.400   2.787   9.058 -0.5055  0.0167 -0.6919
  799MOL0     H 7848   6.341   2.787   9.307 -1.7850 -0.0599 -2.0286
  799MOL0     H 7849   5.071   2.623   8.456  0.4057 -2.1845  1.5411
  799MOL0     H 7850   4.863   2.741   8.498  0.6288 -3.5409  0.2117
  799MOL0     H 7851   4.579   2.827   9.037  3.4108 -2.7899 -2.7113
  799MOL0     H 7852   4.359   2.933   9.075 -0.6756 -0.9325 -1.3620
  799MOL0     H 7853   4.147   3.223   8.840 -1.7448  1.6834  1.1287
  799MOL0     H 7854   4.301   3.271   8.922 -1.3571  0.9142 -1.8309
  799MOL0     H 7855   4.025   3.227   9.056  1.2228 -4.6286  1.5075
  799MOL0     H 7856   4.110   3.376   9.066  1.7657  0.5826  4.9054
  799MOL0     H 7857   4.307   3.192   9.149 -0.7537 -2.1168 -0.0832
  799MOL0     H 7858   4.154   3.128   9.209  1.4987 -1.0378  0.6471
  799MOL0     H 7859   4.292   3.313   9.350 -0.0742  2.9797  1.1914
  799MOL0     H 7860   4.245   3.429   9.235 -0.3318 -0.2491 -2.6534
  799MOL0     H 7861   3.890   3.421   9.454 -1.3219 -0.8625 -1.6921
  799MOL0     H 7862   4.382   3.130   8.697 -2.2354 -2.5994 -0.9968
  799MOL0     H 7863   4.538   3.130   8.568  0.1363  1.2995  1.4720
  799MOL0     H 7864   4.705   3.098   8.637  0.8192 -2.7142 -0.0499
  799MOL0     H 7865   4.607   2.973   8.551 -0.1256 -0.2417  0.0329
  800MOL0     O 7866   7.769   5.586   7.228 -0.3986 -0.2104 -0.3009
  800MOL0     C 7867   7.750   5.591   7.104  0.5411 -0.1444 -0.1716
  800MOL0     O 7868   7.830   5.536   7.002 -0.3357 -0.3169 -0.1434
  800MOL0     C 7869   7.942   5.464   7.041 -0.2759 -0.0460  0.5449
  800MOL0     C 7870   7.940   5.359   7.124  0.4057 -0.8021  0.0412
  800MOL0     C 7871   8.061   5.294   7.162 -0.1196  0.3162 -0.1728
  800MOL0     C 7872   8.186   5.339   7.125 -0.6538  0.5352 -0.4896
  800MOL0     O 7873   8.305   5.284   7.146  0.2301  1.2480 -0.8798
  800MOL0     C 7874   8.346   5.315   7.283  0.6346 -0.4117 -0.1078
  800MOL0     C 7875   8.505   5.321   7.286 -0.8830 -0.7754 -0.0148
  800MOL0     C 7876   8.568   5.344   7.421 -0.1769 -0.2146 -0.2716
  800MOL0     C 7877   8.723   5.315   7.421  0.5674  0.6378  0.3604
  800MOL0     C 7878   8.778   5.328   7.567  0.1177 -0.0016  0.1738
  800MOL0     C 7879   8.930   5.352   7.559  0.4067 -0.4430 -0.1628
  800MOL0     C 7880   9.008   5.348   7.697  0.4905 -0.2422 -0.2361
  800MOL0     C 7881   9.133   5.426   7.684  0.5318  0.2763 -0.2926
  800MOL0     N 7882   9.250   5.342   7.624  0.2794  0.1367  0.7643
  800MOL0     C 7883   9.292   5.350   7.496 -0.3712  0.1493  0.0374
  800MOL0     C 7884   9.397   5.262   7.487  0.6002  1.1080 -0.0318
  800MOL0     C 7885   9.488   5.241   7.374 -0.2687 -0.0549  0.1508
  800MOL0     C 7886   9.639   5.229   7.404  0.4774 -0.0408 -0.1606
  800MOL0     C 7887   9.675   5.361   7.479  0.0497 -0.2003  0.7462
  800MOL0     C 7888   9.833   5.387   7.500  0.0122 -0.1304  0.9088
  800MOL0     O 7889   9.889   5.285   7.581 -0.5690  0.0985  0.1877
  800MOL0     C 7890  10.015   5.296   7.633  1.1222 -0.1190  0.0488
  800MOL0     C 7891  10.053   5.188   7.717  0.3514  0.0248 -0.4242
  800MOL0     C 7892  10.177   5.212   7.795  0.4872 -0.3862 -0.6832
  800MOL0     C 7893  10.261   5.322   7.782  0.0509 -0.2561 -0.2457
  800MOL0     C 7894  10.386   5.333   7.862  0.0221  0.5781  0.2284
  800MOL0     O 7895  10.415   5.234   7.948 -0.2751 -0.2182  0.3985
  800MOL0     C 7896  10.530   5.245   8.033 -0.3413 -0.1464  0.2448
  800MOL0     C 7897  10.653   5.284   7.979 -0.0644  0.1787 -0.2358
  800MOL0     C 7898  10.762   5.316   8.065  0.1318 -0.3138  0.2219
  800MOL0     C 7899  10.746   5.300   8.202  0.3083  0.5948  0.2264
  800MOL0     O 7900  10.861   5.324   8.278  0.5032  0.0482  0.5473
  800MOL0     C 7901  10.917   5.212   8.343  0.4310  0.1475  0.4345
  800MOL0     C 7902  11.052   5.247   8.407 -0.0775  0.6846  0.4658
  800MOL0     C 7903  11.155   5.277   8.296  0.9066 -0.0622  0.5488
  800MOL0     C 7904  11.244   5.155   8.305 -0.3358  0.0185  0.1682
  800MOL0     C 7905  11.380   5.203   8.240 -0.3747  0.5880 -0.0428
  800MOL0     C 7906  11.481   5.090   8.244  0.2426 -0.0303 -0.1348
  800MOL0     C 7907  11.535   5.059   8.387 -0.6622  0.4132 -0.4245
  800MOL0     C 7908  11.615   5.165   8.457 -0.5113 -0.5319 -0.8059
  800MOL0    Cl 7909  11.739   5.261   8.363  0.1416  0.7617 -0.6495
  800MOL0     C 7910  10.624   5.228   8.246 -0.0992 -0.0427  0.1074
  800MOL0     C 7911  10.519   5.207   8.160  0.5982  0.3975  0.5769
  800MOL0     O 7912  10.434   5.447   7.866  0.0756  0.1022  0.4448
  800MOL0     C 7913  10.216   5.425   7.701  0.5982 -0.3691  0.1875
  800MOL0     C 7914  10.104   5.411   7.622 -0.1418  0.2698 -0.6108
  800MOL0     N 7915   9.401   5.191   7.606 -0.6426 -0.2095  0.2370
  800MOL0     N 7916   9.327   5.244   7.689  0.2389  0.0408  0.2484
  800MOL0     C 7917   8.180   5.451   7.039 -0.4988 -0.1585 -0.1111
  800MOL0     C 7918   8.067   5.517   7.000 -0.3105 -0.6503 -0.0489
  800MOL0     C 7919   7.627   5.665   7.053 -0.9756  0.1610 -0.5491
  800MOL0     C 7920   7.581   5.652   6.926 -0.0835 -0.5284 -0.1779
  800MOL0     C 7921   7.482   5.733   6.864  0.3305  0.1511 -0.2128
  800MOL0     C 7922   7.416   5.823   6.949 -1.1792 -1.0640  0.3307
  800MOL0     O 7923   7.317   5.895   6.897 -0.2422  0.3678  0.9445
  800MOL0     C 7924   7.319   6.034   6.877  0.1801  0.3556  0.9479
  800MOL0     C 7925   7.217   6.076   6.771  0.3329  0.4059  0.4028
  800MOL0     C 7926   7.083   6.003   6.793 -0.5287 -0.2749 -0.1444
  800MOL0     C 7927   6.974   6.045   6.695  0.1918 -0.1678  0.1293
  800MOL0     C 7928   7.007   5.994   6.564 -0.3641 -0.1965  0.4168
  800MOL0     C 7929   7.055   5.949   6.461  0.2476  0.4954 -0.4454
  800MOL0     C 7930   7.458   5.830   7.084 -0.0775  0.1608  0.5913
  800MOL0     C 7931   7.564   5.759   7.133  0.3112  0.6852 -0.4212
  800MOL0     C 7932   7.588   5.789   7.277 -0.0164 -0.9031  0.0197
  800MOL0     H 7933   7.841   5.319   7.144  0.1101  0.2067  0.6763
  800MOL0     H 7934   8.058   5.203   7.221  3.2795  0.0214 -0.2668
  800MOL0     H 7935   8.320   5.417   7.314  1.7500  0.5223 -2.0127
  800MOL0     H 7936   8.322   5.236   7.354  1.5885 -2.1887 -1.6920
  800MOL0     H 7937   8.532   5.400   7.216  1.0505  0.0625  1.5838
  800MOL0     H 7938   8.538   5.219   7.265 -0.4091 -0.4375 -0.9330
  800MOL0     H 7939   8.508   5.277   7.483  1.1715 -2.5166 -1.3373
  800MOL0     H 7940   8.555   5.448   7.452  2.4575  0.6648 -1.7698
  800MOL0     H 7941   8.736   5.215   7.378  0.5735  1.1256 -0.8137
  800MOL0     H 7942   8.773   5.393   7.363 -0.9135 -0.9569 -3.4078
  800MOL0     H 7943   8.734   5.415   7.616  2.5026  1.1089  0.4967
  800MOL0     H 7944   8.755   5.236   7.622 -0.2444  0.4194  0.7393
  800MOL0     H 7945   8.969   5.274   7.493  1.6560  2.4667 -3.1157
  800MOL0     H 7946   8.941   5.448   7.508 -2.8381 -0.4932 -1.2012
  800MOL0     H 7947   9.025   5.243   7.724  0.9156  0.1645  1.1916
  800MOL0     H 7948   8.943   5.406   7.763 -0.5703 -0.0005 -1.4532
  800MOL0     H 7949   9.115   5.513   7.620  2.6792  0.0373 -1.2866
  800MOL0     H 7950   9.174   5.480   7.770  2.3580  1.0365 -1.5744
  800MOL0     H 7951   9.260   5.421   7.422 -1.1412  1.5894  1.6841
  800MOL0     H 7952   9.465   5.147   7.323 -2.0719  0.2361  0.3805
  800MOL0     H 7953   9.465   5.323   7.306  1.6391  0.1070 -0.3700
  800MOL0     H 7954   9.651   5.156   7.485 -0.3324  1.7994  1.7123
  800MOL0     H 7955   9.703   5.201   7.319  0.4872 -0.4514 -0.0204
  800MOL0     H 7956   9.625   5.384   7.573  0.7333  2.4263  0.5547
  800MOL0     H 7957   9.633   5.439   7.415  1.3299  1.2260  1.5746
  800MOL0     H 7958   9.845   5.487   7.543  0.2390  0.4838 -0.5299
  800MOL0     H 7959   9.876   5.389   7.400 -1.1336  1.3844  0.4108
  800MOL0     H 7960   9.996   5.100   7.741  0.4718 -0.1408 -0.7398
  800MOL0     H 7961  10.222   5.137   7.859  1.7962 -0.5346 -1.7219
  800MOL0     H 7962  10.671   5.308   7.875 -0.1299 -3.1219 -1.1039
  800MOL0     H 7963  10.861   5.350   8.035 -0.9793  1.4811 -1.7122
  800MOL0     H 7964  10.854   5.191   8.430 -0.7702 -1.5068 -0.7678
  800MOL0     H 7965  10.924   5.132   8.269 -0.7876  0.3854  0.0350
  800MOL0     H 7966  11.042   5.337   8.468 -0.3871 -0.3229  1.9769
  800MOL0     H 7967  11.077   5.164   8.474 -1.9713 -0.7263 -0.4637
  800MOL0     H 7968  11.116   5.290   8.195  3.9805 -3.5706 -1.3341
  800MOL0     H 7969  11.208   5.369   8.321  2.2991 -1.0662  1.4486
  800MOL0     H 7970  11.197   5.073   8.249 -4.3784  1.9320  0.3928
  800MOL0     H 7971  11.256   5.122   8.408  1.2225  1.1515  0.3881
  800MOL0     H 7972  11.420   5.290   8.292  2.7862 -1.1549  0.7146
  800MOL0     H 7973  11.360   5.231   8.136  0.9916  2.5652  0.1642
  800MOL0     H 7974  11.435   4.998   8.208 -1.9166  0.8895  0.1141
  800MOL0     H 7975  11.569   5.117   8.185  2.3953 -1.4196  2.2507
  800MOL0     H 7976  11.607   4.980   8.364  1.0227  0.5505  3.4778
  800MOL0     H 7977  11.453   5.029   8.453 -0.7381 -0.1587 -0.7762
  800MOL0     H 7978  11.551   5.250   8.482  3.0908  3.6784 -4.2454
  800MOL0     H 7979  11.655   5.117   8.547  1.8464 -3.3847 -3.1257
  800MOL0     H 7980  10.619   5.193   8.348  1.6037 -2.1383 -0.4529
  800MOL0     H 7981  10.421   5.171   8.191 -1.0588  2.9796 -1.2874
  800MOL0     H 7982  10.261   5.522   7.685 -1.8001  0.2677 -4.1040
  800MOL0     H 7983  10.075   5.484   7.547 -2.3405 -2.5848 -2.7764
  800MOL0     H 7984   8.272   5.486   6.993  0.8753 -1.3630  1.5545
  800MOL0     H 7985   8.084   5.597   6.929  3.5604  0.1981  1.5709
  800MOL0     H 7986   7.632   5.585   6.859 -0.6413  1.9478 -3.3574
  800MOL0     H 7987   7.443   5.718   6.764 -0.7397 -0.8830  0.3222
  800MOL0     H 7988   7.418   6.070   6.846 -0.3340 -0.8030 -2.4708
  800MOL0     H 7989   7.304   6.074   6.978  2.8624 -1.2860  2.1235
  800MOL0     H 7990   7.249   6.038   6.674  0.5022  1.0643  0.1978
  800MOL0     H 7991   7.209   6.185   6.777  0.2002  0.5466 -1.6904
  800MOL0     H 7992   7.054   6.014   6.898 -0.4624  1.0827 -0.2583
  800MOL0     H 7993   7.099   5.895   6.778 -0.9215 -0.4226  0.4341
  800MOL0     H 7994   6.889   5.984   6.728 -0.0123  0.2512  0.3807
  800MOL0     H 7995   6.947   6.150   6.709 -2.6651 -1.1266  3.0652
  800MOL0     H 7996   7.087   5.912   6.366 -1.1149 -1.1439 -0.3122
  800MOL0     H 7997   7.408   5.907   7.142  0.9402  1.1126  0.2354
  800MOL0     H 7998   7.696   5.797   7.290 -0.0248 -0.3633 -0.2215
  800MOL0     H 7999   7.531   5.875   7.313 -0.5965  0.0885 -2.9788
  800MOL0     H 8000   7.553   5.700   7.329 -1.6445 -1.2974 -1.6491
  801MOL0     O 8001   3.777   9.818   1.976  0.0913  0.4226 -0.0687
  801MOL0     C 8002   3.714   9.734   2.046 -0.4274 -0.0134  0.0418
  801MOL0     O 8003   3.737   9.600   2.050  0.3308  0.1941  0.5813
  801MOL0     C 8004   3.858   9.549   2.000 -0.0366  0.0799  0.2481
  801MOL0     C 8005   3.980   9.608   2.014 -0.3190 -0.2228 -0.5659
  801MOL0     C 8006   4.095   9.550   1.959  0.0709  0.5402 -0.1115
  801MOL0     C 8007   4.091   9.441   1.875  0.2066 -0.9189 -0.2763
  801MOL0     O 8008   4.193   9.374   1.812  0.7110 -0.1223  0.2174
  801MOL0     C 8009   4.327   9.379   1.872  0.0700 -0.5445  0.3926
  801MOL0     C 8010   4.406   9.281   1.790  0.5160  0.4654 -0.0728
  801MOL0     C 8011   4.546   9.317   1.771 -0.2471  1.4445 -0.0428
  801MOL0     C 8012   4.629   9.308   1.896 -0.3194 -0.5000 -0.1941
  801MOL0     C 8013   4.772   9.353   1.878  0.1350  0.6072 -0.5359
  801MOL0     C 8014   4.843   9.345   2.016 -0.3849 -0.1123  0.3947
  801MOL0     C 8015   4.877   9.207   2.059  0.1519 -0.3333  0.4585
  801MOL0     C 8016   4.991   9.208   2.166 -1.2949 -0.2908  0.2077
  801MOL0     N 8017   5.116   9.263   2.113 -0.3291 -0.3661  0.2964
  801MOL0     C 8018   5.145   9.401   2.127 -1.0875 -1.2366 -0.7039
  801MOL0     C 8019   5.282   9.412   2.085 -0.3779  0.7038 -0.0078
  801MOL0     C 8020   5.369   9.532   2.064 -0.1337 -0.4186 -0.4145
  801MOL0     C 8021   5.515   9.506   2.011  0.7651  0.7454  0.6253
  801MOL0     C 8022   5.613   9.629   2.035  0.2972 -0.1451 -1.0326
  801MOL0     C 8023   5.757   9.591   2.003  0.3159 -0.8556 -0.4165
  801MOL0     O 8024   5.845   9.694   2.031  0.0553 -0.1805  0.3043
  801MOL0     C 8025   5.975   9.658   2.025 -0.7867 -0.3845 -0.7517
  801MOL0     C 8026   6.026   9.526   2.020  1.1973 -0.8902 -0.3897
  801MOL0     C 8027   6.165   9.498   2.020 -0.1030 -0.2782  0.9051
  801MOL0     C 8028   6.269   9.593   2.020 -0.8261 -0.2748 -0.5773
  801MOL0     C 8029   6.417   9.559   2.014  0.6587 -0.2191 -0.0210
  801MOL0     O 8030   6.447   9.423   2.028  0.2264 -0.5579 -0.2517
  801MOL0     C 8031   6.575   9.380   2.009  0.4746  0.5105 -1.5967
  801MOL0     C 8032   6.654   9.421   1.903 -0.3944 -0.6747  0.4176
  801MOL0     C 8033   6.790   9.380   1.896 -0.0614 -0.0837 -0.0158
  801MOL0     C 8034   6.851   9.308   1.995  0.1473 -0.3858 -0.1979
  801MOL0     O 8035   6.990   9.298   1.987  0.5854 -0.0106  0.1052
  801MOL0     C 8036   7.054   9.247   2.099 -0.6379  0.4843 -0.6881
  801MOL0     C 8037   7.199   9.214   2.052  0.0815  0.0526  0.2993
  801MOL0     C 8038   7.264   9.338   1.991 -0.0586 -0.7274  0.3019
  801MOL0     C 8039   7.402   9.297   1.930  0.4142 -0.2489  0.6667
  801MOL0     C 8040   7.486   9.422   1.908 -0.2891  0.6846  0.1033
  801MOL0     C 8041   7.622   9.379   1.856  0.6357  0.0972  0.2413
  801MOL0     C 8042   7.726   9.492   1.873 -0.5182 -0.4702 -0.0647
  801MOL0     C 8043   7.842   9.482   1.776  0.4513 -0.6563 -0.1886
  801MOL0    Cl 8044   7.787   9.497   1.606 -0.3766  0.3616 -0.1630
  801MOL0     C 8045   6.769   9.275   2.105 -0.6565  0.6833  0.4236
  801MOL0     C 8046   6.631   9.301   2.111 -0.6168 -0.1840 -0.2496
  801MOL0     O 8047   6.496   9.648   1.995 -0.2491  0.1754  0.4461
  801MOL0     C 8048   6.218   9.719   2.045  0.2607 -0.7947 -0.2474
  801MOL0     C 8049   6.084   9.754   2.048 -0.1569  0.3226 -0.7858
  801MOL0     N 8050   5.322   9.284   2.050  0.2952  0.2170  0.1320
  801MOL0     N 8051   5.227   9.197   2.071  0.4956  0.1063  0.0693
  801MOL0     C 8052   3.967   9.374   1.857 -0.4496 -0.2784  0.5727
  801MOL0     C 8053   3.854   9.425   1.932  0.2004 -0.2986  0.5932
  801MOL0     C 8054   3.592   9.781   2.117  0.3506  0.5986  0.7520
  801MOL0     C 8055   3.470   9.717   2.097 -0.9684 -0.2530  0.3366
  801MOL0     C 8056   3.352   9.763   2.149 -0.3634 -0.0621 -0.8943
  801MOL0     C 8057   3.356   9.877   2.225  0.4476 -0.2240 -0.8276
  801MOL0     O 8058   3.261   9.940   2.301  0.3873 -0.7977 -0.6246
  801MOL0     C 8059   3.133   9.888   2.288 -0.9063 -0.0467 -0.3089
  801MOL0     C 8060   3.049   9.907   2.407  0.8319  0.0857 -0.7021
  801MOL0     C 8061   3.060   9.827   2.533 -1.0337 -0.8708 -0.3444
  801MOL0     C 8062   2.952   9.845   2.640  0.1166  0.6729  0.3325
  801MOL0     C 8063   2.968   9.766   2.760 -0.3689  1.0301  0.9361
  801MOL0     C 8064   2.981   9.676   2.845  0.4447 -0.3719 -0.4768
  801MOL0     C 8065   3.475   9.939   2.245  0.3930 -0.4445  0.2759
  801MOL0     C 8066   3.595   9.899   2.194 -0.0298  0.4015  0.0302
  801MOL0     C 8067   3.707   9.994   2.221 -0.8915  0.0474  0.3085
  801MOL0     H 8068   4.003   9.698   2.069  3.1996 -2.5365  2.2277
  801MOL0     H 8069   4.186   9.605   1.982  0.1636  0.1786  0.3886
  801MOL0     H 8070   4.373   9.478   1.860  2.0301 -1.4616  0.0376
  801MOL0     H 8071   4.337   9.368   1.981 -0.1921 -0.1261  0.4606
  801MOL0     H 8072   4.369   9.281   1.687 -2.6774 -0.6725  0.9413
  801MOL0     H 8073   4.378   9.178   1.814 -4.1235  1.6515  0.5509
  801MOL0     H 8074   4.544   9.416   1.723 -0.2284  0.9140 -1.1712
  801MOL0     H 8075   4.585   9.250   1.694 -1.9569 -1.6450  1.6176
  801MOL0     H 8076   4.581   9.376   1.966  2.1201  0.3490  0.7563
  801MOL0     H 8077   4.633   9.204   1.930  0.8967  0.2629  2.2058
  801MOL0     H 8078   4.817   9.285   1.806 -1.8865  1.5972 -2.8722
  801MOL0     H 8079   4.770   9.450   1.827  1.4597  0.4872 -0.8262
  801MOL0     H 8080   4.929   9.412   2.011  0.9586 -1.8116  0.0148
  801MOL0     H 8081   4.774   9.376   2.096  0.0024  1.4529  0.1442
  801MOL0     H 8082   4.913   9.148   1.974 -3.3342 -0.3598 -1.1647
  801MOL0     H 8083   4.798   9.144   2.102 -0.2059 -2.9111 -3.4127
  801MOL0     H 8084   4.953   9.247   2.261  0.9888 -3.6723  2.7842
  801MOL0     H 8085   5.012   9.102   2.185 -1.8980 -0.5769 -0.6933
  801MOL0     H 8086   5.082   9.485   2.155 -1.2797 -1.8480  0.7788
  801MOL0     H 8087   5.314   9.606   2.005 -2.0254  0.3095  2.0907
  801MOL0     H 8088   5.388   9.571   2.164  0.4206 -0.6906 -0.4117
  801MOL0     H 8089   5.547   9.407   2.048  0.9685  1.7577  3.4097
  801MOL0     H 8090   5.502   9.497   1.903  0.9410 -1.1877  0.7228
  801MOL0     H 8091   5.608   9.660   2.140  1.2799  2.6078 -1.7115
  801MOL0     H 8092   5.579   9.713   1.973 -3.3784  0.4566  1.4785
  801MOL0     H 8093   5.764   9.567   1.896 -3.2010  1.1793 -1.2764
  801MOL0     H 8094   5.769   9.500   2.063 -1.2660 -1.1906 -0.5506
  801MOL0     H 8095   5.962   9.440   2.009  0.9291 -0.5139 -2.0475
  801MOL0     H 8096   6.189   9.392   2.014  3.0189  0.2242  2.5535
  801MOL0     H 8097   6.607   9.477   1.824 -0.1366  0.5886  1.1422
  801MOL0     H 8098   6.847   9.419   1.813 -2.0223  1.2263 -0.8313
  801MOL0     H 8099   7.060   9.323   2.176 -0.5975 -0.6310  0.4455
  801MOL0     H 8100   7.022   9.148   2.134  2.0620 -0.1842  0.1728
  801MOL0     H 8101   7.253   9.172   2.138 -0.6827  0.7562  1.1321
  801MOL0     H 8102   7.186   9.133   1.979 -1.7134 -1.5894  2.3045
  801MOL0     H 8103   7.198   9.390   1.920 -1.4356 -1.7256  0.8122
  801MOL0     H 8104   7.282   9.420   2.061  0.3048  0.6014 -1.2773
  801MOL0     H 8105   7.385   9.256   1.830 -1.6236  2.2679 -0.1384
  801MOL0     H 8106   7.452   9.226   1.996 -1.3337 -2.2228 -0.0187
  801MOL0     H 8107   7.508   9.477   2.000 -0.6076 -1.5208  1.5597
  801MOL0     H 8108   7.445   9.492   1.834 -0.2123 -2.0754 -2.7470
  801MOL0     H 8109   7.654   9.289   1.910  0.6581  0.6446  1.1684
  801MOL0     H 8110   7.610   9.354   1.750 -1.2556  1.5332  0.0708
  801MOL0     H 8111   7.758   9.502   1.977 -1.8192 -1.6935  0.4992
  801MOL0     H 8112   7.684   9.591   1.855  2.9463  1.1433 -0.0430
  801MOL0     H 8113   7.903   9.568   1.804 -1.1849  0.0543  1.4027
  801MOL0     H 8114   7.905   9.398   1.805  1.2100 -0.3994 -1.0642
  801MOL0     H 8115   6.810   9.214   2.184  0.5134  0.5826 -0.2357
  801MOL0     H 8116   6.584   9.266   2.203  0.7206 -0.3836  0.3841
  801MOL0     H 8117   6.294   9.796   2.046  1.0042 -1.5270  0.5248
  801MOL0     H 8118   6.067   9.860   2.057  1.0489  0.5440 -1.0214
  801MOL0     H 8119   3.966   9.286   1.794 -0.2738  1.2786 -1.7271
  801MOL0     H 8120   3.760   9.374   1.918  0.7895 -1.3277  0.2896
  801MOL0     H 8121   3.450   9.624   2.045 -0.1699 -0.8337  1.0389
  801MOL0     H 8122   3.257   9.710   2.143 -2.1034  2.2865  2.8327
  801MOL0     H 8123   3.134   9.779   2.280 -1.8916 -0.0321 -0.7250
  801MOL0     H 8124   3.092   9.939   2.201 -0.3016  2.1516  0.6290
  801MOL0     H 8125   2.947   9.886   2.376  0.0809  0.6863  1.1975
  801MOL0     H 8126   3.055  10.011   2.441  1.2933 -0.1760  0.0436
  801MOL0     H 8127   3.157   9.854   2.575 -1.3387  0.7793 -0.6300
  801MOL0     H 8128   3.064   9.722   2.501  4.4605 -1.6969  1.9063
  801MOL0     H 8129   2.955   9.945   2.683  1.3607  0.3728  1.0072
  801MOL0     H 8130   2.852   9.841   2.595 -2.8186  2.5323  5.7593
  801MOL0     H 8131   3.001   9.601   2.919  4.7597  0.2928 -0.7344
  801MOL0     H 8132   3.473  10.028   2.308  1.2220  0.8709 -1.4848
  801MOL0     H 8133   3.714  10.071   2.144 -0.5451 -1.8237 -1.6446
  801MOL0     H 8134   3.699  10.034   2.322  1.7298  1.4691  0.0497
  801MOL0     H 8135   3.797   9.932   2.218 -0.4227  0.7510 -0.6523
  802MOL0     O 8136   6.242   9.024   9.940 -0.1314  0.2184 -0.1077
  802MOL0     C 8137   6.299   8.971  10.037  1.2649  0.0765  0.4545
  802MOL0     O 8138   6.427   8.951  10.052 -0.2481  0.4765 -0.5584
  802MOL0     C 8139   6.526   8.966   9.955  0.5229 -0.2593  0.0234
  802MOL0     C 8140   6.501   8.957   9.818 -0.1707 -0.0771 -0.4066
  802MOL0     C 8141   6.594   8.997   9.718 -0.4120 -0.4657 -0.5912
  802MOL0     C 8142   6.722   9.033   9.757  0.6082 -0.2363 -0.3117
  802MOL0     O 8143   6.825   9.065   9.677 -0.2864 -0.1159 -0.0522
  802MOL0     C 8144   6.797   9.035   9.536 -0.2207 -0.0466  0.7501
  802MOL0     C 8145   6.922   9.050   9.455 -0.5031  0.4694  0.8272
  802MOL0     C 8146   7.002   9.183   9.467  0.8819 -0.1001 -0.2929
  802MOL0     C 8147   7.100   9.194   9.350 -0.2605  0.6458 -0.1480
  802MOL0     C 8148   7.199   9.308   9.370 -0.4391 -0.6333  0.1665
  802MOL0     C 8149   7.283   9.329   9.235  0.3342  0.3600 -0.7558
  802MOL0     C 8150   7.377   9.450   9.268 -0.0038 -0.0268  0.2421
  802MOL0     C 8151   7.459   9.473   9.139 -0.8078 -0.2159  0.6900
  802MOL0     N 8152   7.534   9.367   9.078 -0.3694 -0.2227  0.5286
  802MOL0     C 8153   7.477   9.288   8.980  0.1389 -1.2368 -0.3283
  802MOL0     C 8154   7.589   9.229   8.920 -0.4444 -0.4758  0.4203
  802MOL0     C 8155   7.585   9.127   8.817 -0.0474  1.3279  0.6123
  802MOL0     C 8156   7.485   9.157   8.703 -0.7827  0.4475  0.3586
  802MOL0     C 8157   7.518   9.287   8.626  0.4787  0.6484 -0.1760
  802MOL0     C 8158   7.419   9.310   8.511  0.3082 -0.5985 -0.5638
  802MOL0     O 8159   7.408   9.448   8.484 -0.0851 -0.5703  0.2607
  802MOL0     C 8160   7.519   9.510   8.432 -0.4132  0.1261  1.5457
  802MOL0     C 8161   7.516   9.644   8.444  0.2364 -0.4607 -0.5012
  802MOL0     C 8162   7.613   9.726   8.389  0.1439 -0.6313  0.3703
  802MOL0     C 8163   7.703   9.668   8.290 -1.0092  0.1583  0.7287
  802MOL0     C 8164   7.800   9.748   8.215  0.1045  0.3193 -0.5758
  802MOL0     O 8165   7.885   9.681   8.135 -0.4005 -0.9230  0.3089
  802MOL0     C 8166   7.989   9.761   8.093 -0.2653  0.5537  0.7420
  802MOL0     C 8167   8.118   9.740   8.145 -0.1570  0.3417  0.4007
  802MOL0     C 8168   8.221   9.822   8.102 -0.0700 -0.4214 -0.8055
  802MOL0     C 8169   8.210   9.924   8.016 -0.3259 -0.8295 -0.0776
  802MOL0     O 8170   8.330   9.989   7.984  0.6424  0.0211  0.0359
  802MOL0     C 8171   8.345  10.066   7.862 -0.4678  0.5799  0.9416
  802MOL0     C 8172   8.486  10.131   7.855 -0.2292  0.0651  1.2237
  802MOL0     C 8173   8.479  10.241   7.738 -0.2953 -0.2336  0.1459
  802MOL0     C 8174   8.608  10.287   7.678 -0.3558 -0.1079 -0.3823
  802MOL0     C 8175   8.592  10.380   7.567 -0.6206  0.3495 -0.4683
  802MOL0     C 8176   8.715  10.435   7.504 -0.3385 -0.1842 -0.6604
  802MOL0     C 8177   8.809  10.518   7.596  0.8274 -0.3501 -0.1056
  802MOL0     C 8178   8.867  10.635   7.522 -1.1999 -0.5027  0.8625
  802MOL0    Cl 8179   8.994  10.580   7.413 -0.1299 -0.1252  0.1591
  802MOL0     C 8180   8.087   9.944   7.953  1.1222 -0.1079 -0.3039
  802MOL0     C 8181   7.972   9.861   7.995 -0.1683 -0.9815 -0.7149
  802MOL0     O 8182   7.794   9.870   8.230 -0.5279 -0.0490  0.5854
  802MOL0     C 8183   7.721   9.528   8.285  0.0671 -0.3987 -0.0346
  802MOL0     C 8184   7.633   9.452   8.368  0.2977 -0.0529 -0.0398
  802MOL0     N 8185   7.702   9.287   8.966 -0.3972  0.6310 -0.3953
  802MOL0     N 8186   7.673   9.367   9.066  0.4440 -0.2381 -0.3491
  802MOL0     C 8187   6.751   9.054   9.891  0.1672  0.6379  0.6903
  802MOL0     C 8188   6.658   9.020   9.988 -0.1468  0.6746 -0.5120
  802MOL0     C 8189   6.198   8.925  10.138  0.1046 -0.1089  0.3574
  802MOL0     C 8190   6.062   8.929  10.103 -0.3415  0.1259 -0.7044
  802MOL0     C 8191   5.969   8.876  10.184  0.5788  0.4750 -0.1882
  802MOL0     C 8192   5.994   8.821  10.312  0.1514  0.1838  0.6882
  802MOL0     O 8193   5.885   8.782  10.382 -0.0708 -0.1207 -0.3657
  802MOL0     C 8194   5.909   8.742  10.514  0.2362  0.4852 -0.3497
  802MOL0     C 8195   5.789   8.770  10.605 -0.3803  0.3387 -0.2947
  802MOL0     C 8196   5.671   8.688  10.558  0.3328  0.1693  1.0056
  802MOL0     C 8197   5.540   8.744  10.629  0.1374  0.1020  0.1988
  802MOL0     C 8198   5.415   8.677  10.568 -0.6653  0.4369  0.3064
  802MOL0     C 8199   5.312   8.627  10.532 -0.0281  0.0572  0.2311
  802MOL0     C 8200   6.123   8.828  10.350 -0.5177  0.6721  0.2947
  802MOL0     C 8201   6.224   8.872  10.261  0.3408 -0.3738 -0.1855
  802MOL0     C 8202   6.360   8.851  10.314  0.2734  0.2087  0.1277
  802MOL0     H 8203   6.408   8.923   9.775 -0.3057 -0.7347  0.3611
  802MOL0     H 8204   6.563   8.982   9.615 -1.0298  0.5813 -0.5689
  802MOL0     H 8205   6.758   8.934   9.519  1.0031 -0.3529 -0.4443
  802MOL0     H 8206   6.724   9.108   9.501  0.4989  1.1636  1.7309
  802MOL0     H 8207   6.900   9.028   9.350  0.9399 -2.0799  0.9929
  802MOL0     H 8208   6.987   8.973   9.498  1.1587  1.9714  1.1351
  802MOL0     H 8209   7.053   9.178   9.564  0.5146 -3.7294 -0.1410
  802MOL0     H 8210   6.932   9.266   9.461 -1.0947 -1.1963  3.8997
  802MOL0     H 8211   7.152   9.103   9.319  0.0667  0.7764  0.0173
  802MOL0     H 8212   7.036   9.209   9.262  0.4334  0.1611 -0.7509
  802MOL0     H 8213   7.148   9.403   9.391 -1.5866 -1.2687  0.3006
  802MOL0     H 8214   7.276   9.272   9.439  0.2829  0.9509  0.2285
  802MOL0     H 8215   7.321   9.228   9.216 -2.5807 -0.7641 -1.1527
  802MOL0     H 8216   7.220   9.366   9.154 -1.0985  4.0659  1.8020
  802MOL0     H 8217   7.447   9.433   9.351  0.4937  0.6599 -0.0336
  802MOL0     H 8218   7.321   9.541   9.289  1.4788  1.0862 -0.4445
  802MOL0     H 8219   7.388   9.512   9.065 -1.4056  2.5610  2.5708
  802MOL0     H 8220   7.513   9.566   9.157 -1.6357  0.0001  2.2937
  802MOL0     H 8221   7.374   9.275   8.949 -0.7952  1.5309  1.3047
  802MOL0     H 8222   7.686   9.131   8.776 -0.5001 -0.9308 -0.8836
  802MOL0     H 8223   7.567   9.027   8.859  4.1052  0.6047  1.0517
  802MOL0     H 8224   7.496   9.072   8.635  0.9504 -0.6610  1.9312
  802MOL0     H 8225   7.379   9.143   8.729 -1.5254  1.6309 -1.7634
  802MOL0     H 8226   7.619   9.278   8.586  0.3265 -1.8684 -0.1378
  802MOL0     H 8227   7.514   9.369   8.698  1.2198 -0.3720  1.0677
  802MOL0     H 8228   7.318   9.278   8.540  0.8838  0.3382  2.9125
  802MOL0     H 8229   7.453   9.252   8.425  1.0860 -2.1079  0.6992
  802MOL0     H 8230   7.440   9.682   8.512  0.6181  2.5298 -1.5935
  802MOL0     H 8231   7.610   9.833   8.405  0.2464 -0.8116  1.6884
  802MOL0     H 8232   8.126   9.670   8.228 -3.4956 -1.5821 -0.7277
  802MOL0     H 8233   8.328   9.812   8.122 -0.0501 -0.6876 -1.0352
  802MOL0     H 8234   8.340  10.010   7.768  0.5636 -2.2045  2.4400
  802MOL0     H 8235   8.263  10.138   7.850 -0.7861 -0.1196 -1.8279
  802MOL0     H 8236   8.506  10.181   7.951 -2.8310  0.8396  1.4364
  802MOL0     H 8237   8.572  10.067   7.832 -1.9111 -2.1518  0.7131
  802MOL0     H 8238   8.424  10.193   7.656  1.0261 -2.1652  0.3258
  802MOL0     H 8239   8.419  10.328   7.769 -1.8307 -1.5416  1.0480
  802MOL0     H 8240   8.670  10.198   7.663 -0.0133  0.2265 -0.9769
  802MOL0     H 8241   8.642  10.345   7.764 -1.0542  0.9768 -0.8302
  802MOL0     H 8242   8.538  10.467   7.606 -0.5374  0.4949 -0.6753
  802MOL0     H 8243   8.532  10.341   7.484 -0.3605  2.7190 -1.8435
  802MOL0     H 8244   8.775  10.351   7.467  0.6936  0.8625 -1.4691
  802MOL0     H 8245   8.687  10.492   7.414  0.4523 -0.8322 -1.3373
  802MOL0     H 8246   8.879  10.451   7.646 -1.1546 -3.3676 -1.1076
  802MOL0     H 8247   8.747  10.556   7.677 -1.0952 -1.0358 -1.1774
  802MOL0     H 8248   8.784  10.674   7.464 -2.3314 -1.5820  1.6902
  802MOL0     H 8249   8.905  10.714   7.588  0.4670  0.9133 -1.6197
  802MOL0     H 8250   8.074  10.020   7.876 -1.2948  0.8542  0.9634
  802MOL0     H 8251   7.876   9.860   7.944 -1.0789 -0.7488  0.9355
  802MOL0     H 8252   7.808   9.484   8.237 -0.5401  0.0218 -1.5904
  802MOL0     H 8253   7.640   9.344   8.379  0.7504 -0.1389 -1.0440
  802MOL0     H 8254   6.849   9.078   9.933  0.5898  0.7024 -0.2832
  802MOL0     H 8255   6.690   9.029  10.091  3.0156  0.8499 -1.3835
  802MOL0     H 8256   6.025   8.961  10.006  0.8386 -0.9915 -1.5581
  802MOL0     H 8257   5.869   8.899  10.147  0.6652 -0.2656 -0.9139
  802MOL0     H 8258   5.992   8.799  10.557  2.7492 -3.7376  1.0030
  802MOL0     H 8259   5.930   8.636  10.526 -1.7150  0.1777  0.7708
  802MOL0     H 8260   5.766   8.877  10.595  0.1378  0.5464  0.6257
  802MOL0     H 8261   5.819   8.749  10.708  1.9512 -0.3715 -1.0304
  802MOL0     H 8262   5.684   8.586  10.595  1.5918  0.0040  0.1562
  802MOL0     H 8263   5.658   8.687  10.449  0.6253 -1.1812  0.9697
  802MOL0     H 8264   5.540   8.727  10.737  1.0348 -0.4352  0.1171
  802MOL0     H 8265   5.523   8.851  10.613  0.9714  0.4189  1.3129
  802MOL0     H 8266   5.223   8.572  10.508 -0.1809  0.0490  0.8016
  802MOL0     H 8267   6.164   8.803  10.448  2.5245  1.1452 -0.7332
  802MOL0     H 8268   6.365   8.796  10.408 -0.0780 -1.8247 -0.9837
  802MOL0     H 8269   6.416   8.795  10.239 -1.0480 -1.6391  0.4635
  802MOL0     H 8270   6.409   8.948  10.329  2.9147 -1.2751  1.8638
  803MOL0     O 8271  10.605   3.698   1.634  0.1506 -0.3106 -0.2002
  803MOL0     C 8272  10.553   3.701   1.524  0.8941  0.3926  1.2559
  803MOL0     O 8273  10.616   3.657   1.407  0.6509 -0.2828  0.0097
  803MOL0     C 8274  10.737   3.605   1.424 -0.4484 -0.3633  0.0167
  803MOL0     C 8275  10.758   3.480   1.373  0.5155  0.0643 -0.6233
  803MOL0     C 8276  10.885   3.427   1.382  0.3137 -0.1854 -0.0421
  803MOL0     C 8277  10.996   3.491   1.440 -0.8205 -0.1526 -0.7404
  803MOL0     O 8278  11.111   3.425   1.479  0.1821 -0.0426  0.1646
  803MOL0     C 8279  11.105   3.288   1.510  1.5741  0.1305 -0.8069
  803MOL0     C 8280  11.230   3.213   1.554 -0.0186  0.0927  0.6289
  803MOL0     C 8281  11.331   3.229   1.437  0.6287  0.0699  0.6022
  803MOL0     C 8282  11.448   3.321   1.488  0.3544  0.4496  0.2634
  803MOL0     C 8283  11.566   3.342   1.387 -0.0764  0.0820  0.5741
  803MOL0     C 8284  11.678   3.408   1.466  0.2465  0.2461 -0.5640
  803MOL0     C 8285  11.796   3.442   1.367 -0.1971 -0.3044 -0.2614
  803MOL0     C 8286  11.901   3.338   1.341  0.2263  0.7338 -0.5042
  803MOL0     N 8287  12.016   3.387   1.272  0.2169  0.2071 -0.3229
  803MOL0     C 8288  12.127   3.443   1.332  0.2198  0.2317 -0.1839
  803MOL0     C 8289  12.197   3.506   1.235 -0.6195  0.2898 -0.8091
  803MOL0     C 8290  12.328   3.577   1.255  1.6091 -0.4128 -0.7085
  803MOL0     C 8291  12.457   3.494   1.254 -0.0567  0.2258 -0.0284
  803MOL0     C 8292  12.574   3.568   1.312 -0.0310  0.1740 -0.3661
  803MOL0     C 8293  12.701   3.492   1.288  0.6917  0.6024 -0.4406
  803MOL0     O 8294  12.800   3.560   1.359 -0.0913  0.9483  0.3374
  803MOL0     C 8295  12.932   3.523   1.338 -0.5454 -0.0454  0.1168
  803MOL0     C 8296  12.973   3.423   1.246  0.5456 -0.0617 -0.1000
  803MOL0     C 8297  13.107   3.401   1.225  0.0446  0.1047 -0.1156
  803MOL0     C 8298  13.204   3.485   1.295 -0.0974  0.8110  0.8381
  803MOL0     C 8299  13.353   3.486   1.260  0.6122 -0.1129  1.2788
  803MOL0     O 8300  13.398   3.376   1.188 -0.2210 -0.5695  0.0088
  803MOL0     C 8301  13.529   3.372   1.165 -1.2153  0.4154  0.4699
  803MOL0     C 8302  13.605   3.272   1.231  0.6057  0.3648 -0.2059
  803MOL0     C 8303  13.741   3.270   1.212 -0.0544  0.7570  0.1639
  803MOL0     C 8304  13.814   3.362   1.132 -0.2964 -0.3648 -0.0934
  803MOL0     O 8305  13.952   3.347   1.120  0.6389 -0.2704  0.1433
  803MOL0     C 8306  14.029   3.461   1.080  0.0986 -0.3301  0.3774
  803MOL0     C 8307  14.176   3.440   1.063 -0.1969 -0.1374  0.9044
  803MOL0     C 8308  14.231   3.576   1.010 -0.4476  0.3415 -0.0154
  803MOL0     C 8309  14.380   3.594   0.973 -0.3751 -0.5359 -0.2193
  803MOL0     C 8310  14.445   3.490   0.874 -0.8407 -1.2524  0.4583
  803MOL0     C 8311  14.398   3.510   0.726 -0.1416  0.2896 -0.5705
  803MOL0     C 8312  14.474   3.395   0.652  0.1770 -0.0430  0.6964
  803MOL0     C 8313  14.465   3.434   0.500 -0.1121  0.0388  0.4862
  803MOL0    Cl 8314  14.294   3.443   0.444 -0.1804 -0.2586 -0.1184
  803MOL0     C 8315  13.739   3.452   1.059 -0.0046 -0.3864 -0.7357
  803MOL0     C 8316  13.599   3.458   1.077  0.4964  0.2654  0.4204
  803MOL0     O 8317  13.417   3.588   1.293  0.4146 -0.7037  0.7784
  803MOL0     C 8318  13.155   3.574   1.392  0.6411 -0.1008 -0.4868
  803MOL0     C 8319  13.020   3.594   1.414 -0.6496 -0.1243 -0.6722
  803MOL0     N 8320  12.127   3.486   1.119  0.0114 -0.5230 -0.7556
  803MOL0     N 8321  12.017   3.421   1.143  0.0354 -0.0574 -0.2911
  803MOL0     C 8322  10.973   3.616   1.496 -1.0748 -0.7156  0.6065
  803MOL0     C 8323  10.848   3.675   1.478 -0.0404  0.8971  0.4488
  803MOL0     C 8324  10.426   3.775   1.518  0.8230 -0.6208 -0.1603
  803MOL0     C 8325  10.374   3.850   1.630  0.1779  0.6287  0.4186
  803MOL0     C 8326  10.248   3.913   1.629  1.2876 -0.8823  0.5926
  803MOL0     C 8327  10.164   3.896   1.518  1.4302  0.4620  0.0906
  803MOL0     O 8328  10.045   3.964   1.522 -0.1897  0.1320 -0.1835
  803MOL0     C 8329   9.941   3.879   1.568 -0.4041 -0.1455  0.3311
  803MOL0     C 8330   9.839   3.962   1.644  0.4819 -1.1904  0.7865
  803MOL0     C 8331   9.782   4.084   1.555  0.4971 -0.6974  0.3157
  803MOL0     C 8332   9.715   4.184   1.645 -0.6092 -0.7802  0.0391
  803MOL0     C 8333   9.813   4.267   1.715 -0.3916  0.2096  0.7506
  803MOL0     C 8334   9.897   4.345   1.762  0.3503  0.9544 -0.6566
  803MOL0     C 8335  10.206   3.827   1.415 -0.5999  0.4810 -0.2240
  803MOL0     C 8336  10.331   3.760   1.410  0.0589  0.2573 -0.2502
  803MOL0     C 8337  10.344   3.657   1.304 -1.0287 -0.3162  0.2738
  803MOL0     H 8338  10.673   3.438   1.320  0.7330  0.5080 -1.3326
  803MOL0     H 8339  10.899   3.329   1.337 -1.3856 -1.1683  1.4203
  803MOL0     H 8340  11.028   3.271   1.585  1.1305  0.8362 -1.0888
  803MOL0     H 8341  11.073   3.238   1.418 -3.1715  0.4188  0.4505
  803MOL0     H 8342  11.212   3.106   1.565  0.6911 -0.0765  0.2082
  803MOL0     H 8343  11.259   3.245   1.655  2.6968 -1.4023  0.3939
  803MOL0     H 8344  11.291   3.277   1.347 -0.0741  0.4204  1.0884
  803MOL0     H 8345  11.370   3.131   1.410 -1.6324 -0.0225 -2.9634
  803MOL0     H 8346  11.414   3.414   1.535 -2.0914 -0.7510  1.0384
  803MOL0     H 8347  11.485   3.272   1.578 -1.7836  1.6376  1.8876
  803MOL0     H 8348  11.599   3.246   1.345 -0.6056  0.3725 -0.5590
  803MOL0     H 8349  11.527   3.405   1.306  0.3522 -1.1188 -0.6135
  803MOL0     H 8350  11.645   3.496   1.521  2.7782 -0.4697  2.3790
  803MOL0     H 8351  11.727   3.330   1.526 -2.0391  0.5043  1.7916
  803MOL0     H 8352  11.840   3.540   1.388  0.3923 -0.2644 -1.6184
  803MOL0     H 8353  11.741   3.460   1.275 -0.6058  2.8553  0.5071
  803MOL0     H 8354  11.940   3.297   1.434 -2.6384 -0.5449  0.2468
  803MOL0     H 8355  11.843   3.267   1.281 -1.0954  2.5070 -1.4429
  803MOL0     H 8356  12.152   3.429   1.437  2.2148 -0.6446 -0.7308
  803MOL0     H 8357  12.335   3.657   1.180  0.5773  0.8598  0.4866
  803MOL0     H 8358  12.322   3.626   1.353  1.1817 -0.0631 -0.9071
  803MOL0     H 8359  12.444   3.400   1.308  2.0190 -0.2284 -0.2227
  803MOL0     H 8360  12.486   3.468   1.151  0.0902  2.3024 -0.5669
  803MOL0     H 8361  12.548   3.584   1.417  0.3938 -1.7951  0.0680
  803MOL0     H 8362  12.581   3.665   1.262 -0.4680 -0.5491 -1.9001
  803MOL0     H 8363  12.730   3.487   1.183  2.0209 -2.8471 -0.0625
  803MOL0     H 8364  12.681   3.389   1.320  3.0354  0.1613 -0.1997
  803MOL0     H 8365  12.902   3.367   1.186  0.5520 -0.1944  0.0154
  803MOL0     H 8366  13.150   3.320   1.168  2.8950  2.9069 -2.3201
  803MOL0     H 8367  13.563   3.204   1.305 -0.1646  1.4876  0.4091
  803MOL0     H 8368  13.801   3.198   1.266 -0.3351  0.3179 -0.0974
  803MOL0     H 8369  13.993   3.493   0.982 -0.3678  0.3864  0.7688
  803MOL0     H 8370  14.012   3.537   1.157 -1.1055 -0.2421  0.0497
  803MOL0     H 8371  14.226   3.404   1.153  0.6971 -1.4693 -0.0926
  803MOL0     H 8372  14.188   3.362   0.987 -1.4754 -1.9030  2.4092
  803MOL0     H 8373  14.174   3.610   0.923  0.7191  2.5942  0.0047
  803MOL0     H 8374  14.205   3.645   1.091  0.5259 -1.8493  2.2784
  803MOL0     H 8375  14.448   3.595   1.059  1.8941 -1.4895 -1.9073
  803MOL0     H 8376  14.398   3.682   0.910 -0.1632 -1.1492 -1.0362
  803MOL0     H 8377  14.432   3.391   0.918  1.7510 -1.8330  0.0724
  803MOL0     H 8378  14.554   3.499   0.880 -1.1335  3.1067  2.3392
  803MOL0     H 8379  14.290   3.493   0.727 -0.0958  0.0103 -0.3563
  803MOL0     H 8380  14.399   3.612   0.687 -3.8400  0.2019 -1.2443
  803MOL0     H 8381  14.433   3.295   0.663 -0.5992 -0.2382 -2.7874
  803MOL0     H 8382  14.580   3.395   0.682  0.3549 -0.3622  0.0951
  803MOL0     H 8383  14.514   3.530   0.484  1.3319 -0.5298  1.3413
  803MOL0     H 8384  14.511   3.360   0.434  0.1495  1.8375 -1.4642
  803MOL0     H 8385  13.791   3.524   0.996  0.3394  0.3407  0.3652
  803MOL0     H 8386  13.530   3.532   1.037  0.2953 -0.0877  0.1038
  803MOL0     H 8387  13.222   3.627   1.460  0.0052 -2.0871  1.8250
  803MOL0     H 8388  12.982   3.668   1.483 -0.2436 -1.7647  1.4096
  803MOL0     H 8389  11.061   3.667   1.535  0.0356 -3.2790  1.6523
  803MOL0     H 8390  10.830   3.777   1.511  2.6464  1.5936 -0.0215
  803MOL0     H 8391  10.437   3.874   1.714 -0.5257  2.7534  0.4053
  803MOL0     H 8392  10.224   3.984   1.708 -0.4293  1.6886 -2.0347
  803MOL0     H 8393   9.983   3.808   1.640  2.8248 -0.9953 -2.0945
  803MOL0     H 8394   9.902   3.826   1.480  0.8922 -1.6375  0.5988
  803MOL0     H 8395   9.890   3.997   1.735 -1.9495 -1.1959  2.2428
  803MOL0     H 8396   9.754   3.902   1.676 -0.1519 -1.3070 -1.0400
  803MOL0     H 8397   9.705   4.042   1.491 -0.4689  2.4838 -0.8278
  803MOL0     H 8398   9.837   4.141   1.480 -2.5487  2.2298  0.0621
  803MOL0     H 8399   9.644   4.246   1.589  0.6445  1.5803  0.9110
  803MOL0     H 8400   9.661   4.125   1.719  0.3681 -0.7252  0.8182
  803MOL0     H 8401   9.971   4.403   1.814  0.9241  0.0189 -0.3989
  803MOL0     H 8402  10.146   3.808   1.327  0.6935 -0.6784 -0.8901
  803MOL0     H 8403  10.380   3.559   1.335  1.2333 -0.0279 -1.2564
  803MOL0     H 8404  10.245   3.646   1.258 -0.6750  1.0652 -0.9076
  803MOL0     H 8405  10.421   3.691   1.235 -0.0357 -0.8025  1.1105
  804MOL0     O 8406   3.016   6.508   8.455  0.3530 -0.2844 -0.3612
  804MOL0     C 8407   3.011   6.427   8.363 -0.3531 -0.1947  0.8419
  804MOL0     O 8408   3.119   6.375   8.283 -0.0285 -0.5379  0.7798
  804MOL0     C 8409   3.246   6.415   8.315  0.5148 -0.5823 -1.0174
  804MOL0     C 8410   3.341   6.317   8.299 -0.2936  0.1438  0.1840
  804MOL0     C 8411   3.476   6.354   8.320  0.0195  0.8172  0.1607
  804MOL0     C 8412   3.519   6.482   8.349 -0.2429  0.4147  0.2226
  804MOL0     O 8413   3.654   6.496   8.352  0.2936  0.4229  0.4504
  804MOL0     C 8414   3.697   6.632   8.371  0.2155 -1.0134  0.0738
  804MOL0     C 8415   3.849   6.641   8.380  0.1137 -0.1189 -0.4203
  804MOL0     C 8416   3.921   6.602   8.251  0.3395  0.5762  0.3289
  804MOL0     C 8417   4.063   6.591   8.290 -0.2623  0.5234 -0.6392
  804MOL0     C 8418   4.158   6.557   8.179  0.4000  0.2543  0.0358
  804MOL0     C 8419   4.293   6.587   8.230 -0.0071 -0.0845 -0.5831
  804MOL0     C 8420   4.390   6.624   8.119 -0.2087 -0.3833  0.6994
  804MOL0     C 8421   4.400   6.533   7.997  0.8462 -0.5615 -0.3775
  804MOL0     N 8422   4.328   6.561   7.874  0.4214  0.4144  0.4276
  804MOL0     C 8423   4.212   6.498   7.836  0.2180 -0.4893  0.5487
  804MOL0     C 8424   4.158   6.583   7.745 -0.1494 -0.2804  0.0110
  804MOL0     C 8425   4.044   6.606   7.658 -0.0670  0.4168  0.0429
  804MOL0     C 8426   3.932   6.675   7.736 -0.2324 -0.2671 -0.4067
  804MOL0     C 8427   3.850   6.584   7.820 -0.3130  0.1766 -0.2315
  804MOL0     C 8428   3.720   6.654   7.869  0.4977  0.2125 -0.0292
  804MOL0     O 8429   3.643   6.569   7.959 -0.2496 -0.6214 -0.8423
  804MOL0     C 8430   3.516   6.518   7.928  0.4316 -0.2947  0.7955
  804MOL0     C 8431   3.416   6.513   8.024  0.1538 -0.2965  0.4436
  804MOL0     C 8432   3.279   6.492   7.996  0.0050 -0.5684 -0.2953
  804MOL0     C 8433   3.246   6.476   7.861 -0.8088 -0.3107 -0.5278
  804MOL0     C 8434   3.108   6.442   7.820  0.1088 -0.8192 -0.4214
  804MOL0     O 8435   3.005   6.497   7.896  0.4380  0.8469 -0.5166
  804MOL0     C 8436   2.873   6.484   7.849  0.5214  0.5548 -0.3382
  804MOL0     C 8437   2.795   6.602   7.845  0.4546  0.8514  0.7092
  804MOL0     C 8438   2.665   6.599   7.798 -1.1721  0.5974 -0.1897
  804MOL0     C 8439   2.596   6.478   7.763 -0.3875 -0.0877 -0.5337
  804MOL0     O 8440   2.466   6.471   7.732 -0.0544  0.4283 -0.3818
  804MOL0     C 8441   2.374   6.558   7.793  0.3002 -0.3322 -0.7500
  804MOL0     C 8442   2.241   6.488   7.797 -0.3354  0.4325 -0.2350
  804MOL0     C 8443   2.128   6.581   7.829  0.5221  0.1253 -1.3774
  804MOL0     C 8444   2.002   6.523   7.766 -0.8756  0.2956 -0.2046
  804MOL0     C 8445   1.878   6.595   7.807  0.4156 -0.6570 -0.3251
  804MOL0     C 8446   1.755   6.522   7.755 -0.6027 -0.5749  0.8872
  804MOL0     C 8447   1.625   6.588   7.801  0.1713  1.4173  0.2462
  804MOL0     C 8448   1.518   6.480   7.792  0.5088 -0.2778  0.1166
  804MOL0    Cl 8449   1.532   6.330   7.899 -0.1081 -0.0083  0.1747
  804MOL0     C 8450   2.676   6.364   7.772 -0.4170 -0.3968  0.7565
  804MOL0     C 8451   2.807   6.362   7.819 -0.7163 -0.0020 -0.0846
  804MOL0     O 8452   3.091   6.390   7.711  0.0129 -0.2657 -0.4826
  804MOL0     C 8453   3.345   6.470   7.762  0.7054  0.3428  0.1224
  804MOL0     C 8454   3.479   6.492   7.794  0.8921 -0.1218  0.4584
  804MOL0     N 8455   4.262   6.677   7.718  0.3367 -0.0176 -0.1637
  804MOL0     N 8456   4.357   6.668   7.798 -0.1301  0.3321 -0.4403
  804MOL0     C 8457   3.416   6.569   8.379  0.5432  0.6812 -0.0802
  804MOL0     C 8458   3.280   6.546   8.364  0.4392  0.2846  0.1866
  804MOL0     C 8459   2.871   6.395   8.317  0.2473 -0.0517  0.5145
  804MOL0     C 8460   2.828   6.410   8.184 -0.2143  0.1231  0.5283
  804MOL0     C 8461   2.692   6.406   8.145  0.7631  0.3349  0.9266
  804MOL0     C 8462   2.595   6.369   8.239 -0.4738  0.3442 -0.6027
  804MOL0     O 8463   2.459   6.360   8.215 -0.7101 -0.0510  0.6698
  804MOL0     C 8464   2.415   6.276   8.111 -0.3718  0.2492  0.2080
  804MOL0     C 8465   2.257   6.280   8.103 -0.5817  0.3249 -0.1501
  804MOL0     C 8466   2.202   6.203   8.231 -0.9373  0.5734 -0.3928
  804MOL0     C 8467   2.050   6.173   8.223  0.3427 -0.7108  0.6299
  804MOL0     C 8468   2.018   6.104   8.351  0.7026  1.0534 -0.5816
  804MOL0     C 8469   1.986   6.052   8.461 -0.6037  0.1000  0.8425
  804MOL0     C 8470   2.641   6.348   8.372 -0.3798  0.2535 -0.4699
  804MOL0     C 8471   2.773   6.359   8.412  0.2207 -0.3037  0.5054
  804MOL0     C 8472   2.805   6.342   8.560 -0.9387  0.5068 -0.5177
  804MOL0     H 8473   3.317   6.215   8.272 -0.5168 -0.1162  1.3136
  804MOL0     H 8474   3.545   6.276   8.288 -1.8774 -1.7138  1.8015
  804MOL0     H 8475   3.670   6.697   8.288 -1.5658 -1.8880 -0.0892
  804MOL0     H 8476   3.654   6.669   8.464 -2.8632  1.0719 -2.0077
  804MOL0     H 8477   3.877   6.577   8.464 -2.5476  0.2548  0.8440
  804MOL0     H 8478   3.878   6.745   8.400 -0.0758  0.2562 -1.9359
  804MOL0     H 8479   3.906   6.666   8.164 -0.7691 -1.0733 -0.7487
  804MOL0     H 8480   3.903   6.497   8.224 -2.2671  0.3404  2.5987
  804MOL0     H 8481   4.077   6.682   8.350 -2.0286 -1.3423  2.9003
  804MOL0     H 8482   4.072   6.507   8.359 -1.6092  1.6189  0.9629
  804MOL0     H 8483   4.161   6.450   8.156  0.6570 -0.8877  4.5100
  804MOL0     H 8484   4.140   6.616   8.088  4.2864 -0.6096 -1.4930
  804MOL0     H 8485   4.291   6.665   8.307  1.4930 -0.0577 -0.5524
  804MOL0     H 8486   4.331   6.499   8.283  0.2550  0.9840  1.0711
  804MOL0     H 8487   4.488   6.626   8.166  0.2033 -1.2116 -0.0853
  804MOL0     H 8488   4.370   6.726   8.086  3.0614  0.8396  2.1231
  804MOL0     H 8489   4.506   6.527   7.970  1.3291  0.8146  1.0745
  804MOL0     H 8490   4.361   6.440   8.041  0.1978  1.2240  3.2241
  804MOL0     H 8491   4.172   6.400   7.860  0.7965 -1.0706 -0.8233
  804MOL0     H 8492   4.073   6.670   7.574  3.2978 -0.3922  0.4209
  804MOL0     H 8493   4.008   6.508   7.624 -1.1780  0.8539 -0.0742
  804MOL0     H 8494   3.993   6.739   7.800  0.4284  0.2847 -1.5483
  804MOL0     H 8495   3.867   6.728   7.666 -1.3121  0.2755  0.9822
  804MOL0     H 8496   3.903   6.546   7.908 -1.4373  1.5751  1.1078
  804MOL0     H 8497   3.824   6.490   7.769  0.9040 -0.7845  0.8394
  804MOL0     H 8498   3.648   6.681   7.792 -1.7949  2.6118  2.7364
  804MOL0     H 8499   3.753   6.745   7.919  4.5070 -0.1895 -1.5864
  804MOL0     H 8500   3.455   6.538   8.122 -0.0687  1.8639  0.0379
  804MOL0     H 8501   3.199   6.501   8.069  0.9885  2.1086  0.5593
  804MOL0     H 8502   2.840   6.694   7.881 -0.6007  1.5706  0.2493
  804MOL0     H 8503   2.611   6.693   7.789 -3.8141 -0.9891 -2.4328
  804MOL0     H 8504   2.406   6.585   7.894 -0.0514 -0.8854 -0.4880
  804MOL0     H 8505   2.370   6.645   7.726  2.7423 -0.0256 -0.6171
  804MOL0     H 8506   2.228   6.426   7.708  0.7016 -2.4319  1.4507
  804MOL0     H 8507   2.249   6.413   7.876  1.8556  0.0137 -0.7922
  804MOL0     H 8508   2.108   6.596   7.936 -2.9330  1.0926 -2.0146
  804MOL0     H 8509   2.138   6.684   7.794  0.4929  0.5233 -0.2672
  804MOL0     H 8510   1.987   6.414   7.767  1.6081 -0.1171 -0.8248
  804MOL0     H 8511   2.012   6.552   7.661  1.9864  2.1903  0.4784
  804MOL0     H 8512   1.880   6.701   7.779  0.9554 -0.7455 -0.6285
  804MOL0     H 8513   1.867   6.588   7.916  1.4483 -1.0117 -0.2331
  804MOL0     H 8514   1.758   6.530   7.646  1.3015  3.6666  1.0287
  804MOL0     H 8515   1.757   6.420   7.792 -1.2948  0.2356  3.3423
  804MOL0     H 8516   1.594   6.676   7.744 -0.7515 -0.2395 -1.9355
  804MOL0     H 8517   1.633   6.612   7.908 -0.4139 -2.8262  1.4408
  804MOL0     H 8518   1.420   6.526   7.808  0.5106 -0.2944  0.1748
  804MOL0     H 8519   1.509   6.448   7.688  1.2479 -1.1145  0.2956
  804MOL0     H 8520   2.641   6.268   7.736 -1.4946  0.1791  0.2115
  804MOL0     H 8521   2.868   6.273   7.817 -1.3955 -0.5419  1.5337
  804MOL0     H 8522   3.322   6.447   7.658 -1.1781  0.6378  0.4428
  804MOL0     H 8523   3.542   6.495   7.706 -0.5258 -0.8273 -0.6301
  804MOL0     H 8524   3.446   6.669   8.408 -0.7584  1.4466 -1.2440
  804MOL0     H 8525   3.210   6.627   8.380 -0.2147 -0.4584  1.1750
  804MOL0     H 8526   2.908   6.439   8.117 -0.9111  1.3504  0.1936
  804MOL0     H 8527   2.664   6.433   8.044  0.8152 -0.3888  0.7143
  804MOL0     H 8528   2.453   6.176   8.134 -1.2744  0.1496  1.3908
  804MOL0     H 8529   2.454   6.307   8.013 -0.3151 -0.5555 -0.0298
  804MOL0     H 8530   2.222   6.220   8.019  1.2302 -1.2691  0.1550
  804MOL0     H 8531   2.221   6.383   8.105  0.4903  0.7136 -0.2281
  804MOL0     H 8532   2.235   6.253   8.322  2.5049  1.6358 -2.0357
  804MOL0     H 8533   2.248   6.104   8.226 -0.3701  0.8336 -0.3396
  804MOL0     H 8534   1.989   6.264   8.218  2.0554  0.5037  1.0171
  804MOL0     H 8535   2.021   6.110   8.138 -2.3527  1.4242 -0.1910
  804MOL0     H 8536   1.936   6.000   8.541 -1.4696 -2.5156 -1.2633
  804MOL0     H 8537   2.570   6.309   8.445 -1.1279  0.9003 -0.8382
  804MOL0     H 8538   2.725   6.287   8.610 -1.5711 -2.1060 -4.0666
  804MOL0     H 8539   2.890   6.276   8.580 -0.6365  1.3820  1.2588
  804MOL0     H 8540   2.831   6.435   8.611 -4.4958  2.3651 -1.7363
  805MOL0     O 8541   8.800   1.781   4.248 -0.0770  0.3590  0.1280
  805MOL0     C 8542   8.827   1.879   4.329  0.0398  0.4942  0.0006
  805MOL0     O 8543   8.956   1.912   4.365 -0.5585  0.4503 -0.6819
  805MOL0     C 8544   9.055   1.810   4.350 -0.1370 -0.6316  1.0981
  805MOL0     C 8545   9.097   1.765   4.230  0.4994 -0.4559  0.0132
  805MOL0     C 8546   9.199   1.664   4.215 -0.4024  0.3205  0.7792
  805MOL0     C 8547   9.247   1.599   4.332 -1.2054 -0.4387 -0.3745
  805MOL0     O 8548   9.348   1.509   4.318  1.3278 -0.2261  0.2086
  805MOL0     C 8549   9.440   1.492   4.430  0.5838  0.5394 -0.4243
  805MOL0     C 8550   9.556   1.588   4.415 -0.2304  0.2655 -0.6514
  805MOL0     C 8551   9.634   1.597   4.540  0.0919  0.4870 -0.4515
  805MOL0     C 8552   9.766   1.675   4.509 -0.5495 -0.1080  0.6393
  805MOL0     C 8553   9.872   1.666   4.623 -0.0767 -0.4215 -0.9355
  805MOL0     C 8554  10.011   1.706   4.570 -0.0712 -0.1359 -0.7321
  805MOL0     C 8555  10.116   1.697   4.684  0.2433  0.4066 -0.1928
  805MOL0     C 8556  10.247   1.778   4.677 -0.1600 -0.8812  0.4832
  805MOL0     N 8557  10.358   1.712   4.752  0.2890 -0.0602  0.0907
  805MOL0     C 8558  10.386   1.733   4.891 -0.3124 -0.8277  0.6141
  805MOL0     C 8559  10.502   1.666   4.917  0.3664 -0.1731 -0.0327
  805MOL0     C 8560  10.573   1.672   5.047 -0.3804  0.7368  0.3402
  805MOL0     C 8561  10.703   1.754   5.039 -0.4704 -0.1094 -1.2816
  805MOL0     C 8562  10.803   1.671   4.955  0.3404  0.6354 -1.0830
  805MOL0     C 8563  10.932   1.749   4.930  0.3569  0.0042  0.7264
  805MOL0     O 8564  10.993   1.770   5.057  0.3376  1.1636 -0.2263
  805MOL0     C 8565  11.126   1.768   5.061 -0.2321 -0.3661 -0.5429
  805MOL0     C 8566  11.216   1.769   4.956 -0.5504  0.5218  0.8301
  805MOL0     C 8567  11.356   1.782   4.980  0.0398  0.7489  0.1635
  805MOL0     C 8568  11.406   1.784   5.109 -0.2501 -0.3751  0.1442
  805MOL0     C 8569  11.545   1.820   5.136  0.6361  0.5152  1.0463
  805MOL0     O 8570  11.631   1.829   5.026  0.1580 -1.2029 -0.6474
  805MOL0     C 8571  11.765   1.838   5.039  0.0204 -0.2398  0.5032
  805MOL0     C 8572  11.829   1.910   4.941  0.2227  0.2798  1.1821
  805MOL0     C 8573  11.970   1.923   4.943 -0.0709  0.3540  0.4515
  805MOL0     C 8574  12.050   1.852   5.034 -0.0337  0.5577 -0.9465
  805MOL0     O 8575  12.188   1.861   5.041 -0.4646  0.4712  0.5352
  805MOL0     C 8576  12.237   1.996   5.049  0.2104  0.2321 -0.9996
  805MOL0     C 8577  12.282   2.038   5.194  0.7999  0.5543  0.7862
  805MOL0     C 8578  12.383   1.935   5.247 -0.1303  0.2753 -0.6355
  805MOL0     C 8579  12.424   1.973   5.387  0.1604 -0.4543 -0.2777
  805MOL0     C 8580  12.549   1.893   5.416 -0.7925 -1.0192 -0.4318
  805MOL0     C 8581  12.537   1.743   5.410  0.2896  0.1502  1.0015
  805MOL0     C 8582  12.625   1.676   5.517  0.5964 -0.7685  0.8574
  805MOL0     C 8583  12.769   1.700   5.522 -0.0562  0.3395 -0.3352
  805MOL0    Cl 8584  12.848   1.700   5.361 -0.1669  0.1283  0.2468
  805MOL0     C 8585  11.989   1.775   5.128  0.0123 -0.3370 -0.2286
  805MOL0     C 8586  11.848   1.761   5.126 -0.1607 -0.1285 -0.1147
  805MOL0     O 8587  11.575   1.834   5.249  0.0174 -0.2708  0.1160
  805MOL0     C 8588  11.315   1.778   5.216  0.0440 -0.3489 -0.4412
  805MOL0     C 8589  11.179   1.768   5.190  0.3263 -0.6797 -0.2821
  805MOL0     N 8590  10.541   1.602   4.802  0.4329  0.4154  0.3678
  805MOL0     N 8591  10.451   1.621   4.705  0.0084  0.8541 -0.3825
  805MOL0     C 8592   9.203   1.644   4.458 -0.1776  0.5740 -0.2616
  805MOL0     C 8593   9.108   1.756   4.463 -0.3888  0.2222  0.0738
  805MOL0     C 8594   8.716   1.959   4.387  0.4809 -0.3902 -0.2441
  805MOL0     C 8595   8.758   2.059   4.477  0.0737  0.0298 -0.3562
  805MOL0     C 8596   8.671   2.160   4.528  0.3422  0.2448  0.0988
  805MOL0     C 8597   8.535   2.157   4.492  0.5566  0.4625  0.3316
  805MOL0     O 8598   8.435   2.254   4.523  0.3056 -0.7619  0.1498
  805MOL0     C 8599   8.479   2.375   4.593 -0.5095 -0.1986  0.2369
  805MOL0     C 8600   8.367   2.479   4.610  0.5902 -0.2399  0.0768
  805MOL0     C 8601   8.247   2.424   4.689 -0.7607  0.0556  0.4625
  805MOL0     C 8602   8.185   2.553   4.750 -0.5484  0.0022 -0.1898
  805MOL0     C 8603   8.060   2.526   4.808  0.1775 -0.1688 -0.1491
  805MOL0     C 8604   7.943   2.518   4.855 -0.5404 -1.2704  0.6486
  805MOL0     C 8605   8.490   2.047   4.413  0.2154  0.2602  0.0841
  805MOL0     C 8606   8.575   1.944   4.362 -0.4585 -0.1762  0.4531
  805MOL0     C 8607   8.520   1.830   4.282 -1.2708 -0.9893  0.5525
  805MOL0     H 8608   9.053   1.812   4.143 -1.6760  1.5348  2.0306
  805MOL0     H 8609   9.228   1.640   4.113 -1.1187 -0.3298  0.7167
  805MOL0     H 8610   9.397   1.500   4.530  1.0536  0.5755 -0.2201
  805MOL0     H 8611   9.478   1.390   4.428 -0.6590  0.0684 -2.1523
  805MOL0     H 8612   9.544   1.692   4.384  2.5360  2.0064  3.2316
  805MOL0     H 8613   9.613   1.534   4.339 -0.6674  0.2899 -1.0000
  805MOL0     H 8614   9.652   1.495   4.576 -1.5526  0.5580  0.6740
  805MOL0     H 8615   9.575   1.654   4.613  2.1271  3.9447 -1.2375
  805MOL0     H 8616   9.808   1.627   4.420 -1.5091 -1.1287  0.7151
  805MOL0     H 8617   9.741   1.781   4.500  1.4039  0.2683 -1.1488
  805MOL0     H 8618   9.822   1.720   4.705  0.5345 -0.1738 -0.7214
  805MOL0     H 8619   9.886   1.563   4.656  0.3286  0.2183  1.0891
  805MOL0     H 8620  10.045   1.664   4.475  0.3746  2.6252 -1.8869
  805MOL0     H 8621  10.009   1.814   4.553  2.2317  0.0414 -0.2844
  805MOL0     H 8622  10.143   1.591   4.687 -0.1099  0.1188 -3.2351
  805MOL0     H 8623  10.070   1.727   4.778 -0.5140 -1.7102  0.1790
  805MOL0     H 8624  10.268   1.782   4.569 -2.1528  0.9316  0.0903
  805MOL0     H 8625  10.229   1.877   4.720 -0.3764 -0.3742 -0.7470
  805MOL0     H 8626  10.330   1.803   4.952 -2.2240 -2.0584  0.3437
  805MOL0     H 8627  10.507   1.716   5.123 -0.1621  2.2137 -0.2997
  805MOL0     H 8628  10.599   1.570   5.076 -1.7832  1.0160  2.8862
  805MOL0     H 8629  10.695   1.845   4.979 -0.4962  0.5571 -0.2812
  805MOL0     H 8630  10.738   1.762   5.142 -0.3284 -0.2351 -1.3204
  805MOL0     H 8631  10.763   1.633   4.860 -3.4589 -3.7318  1.8186
  805MOL0     H 8632  10.819   1.576   5.007 -2.6059  0.3117 -0.5987
  805MOL0     H 8633  10.909   1.845   4.884 -1.4556 -0.6330  0.2104
  805MOL0     H 8634  10.990   1.688   4.860 -0.5869  0.6632 -0.6730
  805MOL0     H 8635  11.182   1.777   4.854  0.6792  1.1672  0.4538
  805MOL0     H 8636  11.428   1.770   4.900 -0.1699 -3.6489  0.3965
  805MOL0     H 8637  11.775   1.942   4.853 -1.3073 -1.0118  1.6002
  805MOL0     H 8638  12.018   1.980   4.864 -0.1433 -1.5069 -0.9895
  805MOL0     H 8639  12.324   1.995   4.983  0.9074 -0.1728 -0.1086
  805MOL0     H 8640  12.173   2.067   4.996 -0.0506  0.8480  0.0907
  805MOL0     H 8641  12.332   2.134   5.179  1.3533 -0.1408 -2.6395
  805MOL0     H 8642  12.194   2.057   5.256 -0.3796 -0.0276 -0.6289
  805MOL0     H 8643  12.340   1.835   5.235  1.1136 -0.6279  1.7784
  805MOL0     H 8644  12.468   1.937   5.178 -0.8707  0.2497 -1.5813
  805MOL0     H 8645  12.342   1.956   5.457  0.0626  0.1125 -0.2526
  805MOL0     H 8646  12.450   2.080   5.386 -4.0596  0.8799  2.9381
  805MOL0     H 8647  12.588   1.913   5.516 -2.0357  0.5393 -0.2175
  805MOL0     H 8648  12.632   1.916   5.348  0.0673  0.5972  1.1030
  805MOL0     H 8649  12.432   1.716   5.418  0.0092 -0.3652 -2.6708
  805MOL0     H 8650  12.555   1.716   5.306 -4.7070 -2.4140  0.4954
  805MOL0     H 8651  12.615   1.567   5.515 -3.0560 -0.5811  2.0362
  805MOL0     H 8652  12.591   1.706   5.616  1.8191  0.4399  0.9441
  805MOL0     H 8653  12.792   1.797   5.567  1.3913  0.2862 -0.8726
  805MOL0     H 8654  12.820   1.616   5.571 -0.2836  0.1112 -0.4912
  805MOL0     H 8655  12.052   1.727   5.202 -2.2644 -2.1473  0.6693
  805MOL0     H 8656  11.803   1.691   5.197 -0.7493 -0.0408 -0.3943
  805MOL0     H 8657  11.351   1.761   5.316  0.6627  0.0393 -0.5913
  805MOL0     H 8658  11.108   1.769   5.273  0.7813  1.6137  0.1592
  805MOL0     H 8659   9.230   1.602   4.555  3.4537  0.4433 -1.1952
  805MOL0     H 8660   9.067   1.792   4.557  0.4521 -0.8945  0.9116
  805MOL0     H 8661   8.861   2.075   4.505  0.2975 -0.8845 -0.6423
  805MOL0     H 8662   8.710   2.246   4.582  1.3285  1.6478 -2.6076
  805MOL0     H 8663   8.559   2.421   4.535 -0.6547  2.9478  2.2996
  805MOL0     H 8664   8.519   2.351   4.692  1.0128 -3.0900 -0.9453
  805MOL0     H 8665   8.335   2.515   4.512  0.5214  1.0730  0.5646
  805MOL0     H 8666   8.420   2.560   4.661 -1.3946  1.6721 -0.7407
  805MOL0     H 8667   8.272   2.349   4.764 -0.2081 -0.6873 -0.4446
  805MOL0     H 8668   8.173   2.385   4.619  0.9497 -0.4011 -1.1683
  805MOL0     H 8669   8.253   2.585   4.830 -1.1378  0.6330  0.0685
  805MOL0     H 8670   8.186   2.629   4.671 -0.2281 -0.3552 -0.5351
  805MOL0     H 8671   7.843   2.516   4.892 -1.3345  0.7140 -1.1893
  805MOL0     H 8672   8.383   2.049   4.395 -0.1974  2.6283  2.0774
  805MOL0     H 8673   8.548   1.823   4.176 -0.7066 -0.8143  0.6863
  805MOL0     H 8674   8.543   1.740   4.340 -0.4576 -0.0900  1.6527
  805MOL0     H 8675   8.411   1.840   4.272 -1.0481  0.3378 -0.8913
  806MOL0     O 8676   3.814  10.481   8.812  0.2925 -0.3530  0.5705
  806MOL0     C 8677   3.748  10.497   8.910 -0.5747  0.0968  0.6295
  806MOL0     O 8678   3.786  10.585   9.014  0.9812  0.2337 -0.2803
  806MOL0     C 8679   3.909  10.641   9.036  0.5750  0.2803 -0.3072
  806MOL0     C 8680   3.912  10.731   9.144  0.1526  0.9467  0.0606
  806MOL0     C 8681   4.031  10.780   9.195 -0.3657 -0.2990  0.5070
  806MOL0     C 8682   4.154  10.735   9.148 -0.0525  0.2378 -0.0614
  806MOL0     O 8683   4.263  10.777   9.208 -0.6102  0.4280  0.1060
  806MOL0     C 8684   4.380  10.694   9.214  0.0429 -0.2880  0.2301
  806MOL0     C 8685   4.472  10.758   9.313 -0.6401 -1.0089 -0.2703
  806MOL0     C 8686   4.601  10.673   9.310  0.9287  0.0690 -0.2811
  806MOL0     C 8687   4.694  10.695   9.420 -0.1913 -0.6084 -0.6218
  806MOL0     C 8688   4.821  10.623   9.400 -0.4523  0.8621  0.4248
  806MOL0     C 8689   4.909  10.649   9.525  0.3604 -0.4653  0.2347
  806MOL0     C 8690   5.019  10.556   9.544 -0.8271  0.1513  0.0423
  806MOL0     C 8691   4.975  10.405   9.578 -0.2475 -0.0268  0.9948
  806MOL0     N 8692   5.066  10.327   9.658 -0.3106  1.0181 -1.2336
  806MOL0     C 8693   5.205  10.349   9.683 -0.0792  0.1864 -0.0690
  806MOL0     C 8694   5.240  10.237   9.760  0.4309 -0.0716 -0.2578
  806MOL0     C 8695   5.374  10.209   9.818 -0.0627 -0.1036 -0.9721
  806MOL0     C 8696   5.395  10.250   9.958 -0.7547 -0.3424 -0.0933
  806MOL0     C 8697   5.539  10.212  10.008  0.3610 -0.1482 -0.2011
  806MOL0     C 8698   5.564  10.258  10.151 -1.4606 -0.3388  0.2134
  806MOL0     O 8699   5.701  10.227  10.197  0.0826  0.6146 -0.2386
  806MOL0     C 8700   5.760  10.268  10.312  0.5330 -0.4351 -0.3303
  806MOL0     C 8701   5.724  10.375  10.393 -0.4246 -0.2683  0.1495
  806MOL0     C 8702   5.791  10.409  10.512  0.4097  0.2957 -0.2947
  806MOL0     C 8703   5.893  10.333  10.561 -0.0224 -0.2682 -0.3381
  806MOL0     C 8704   5.962  10.377  10.685 -0.0516  0.0885  0.0691
  806MOL0     O 8705   6.005  10.275  10.766 -0.6395 -0.6868 -0.7883
  806MOL0     C 8706   6.082  10.295  10.870 -0.8904  0.1245  0.8356
  806MOL0     C 8707   6.209  10.367  10.869 -0.5974 -0.2086  0.3444
  806MOL0     C 8708   6.269  10.393  10.994  0.4839  0.1734  0.9612
  806MOL0     C 8709   6.227  10.333  11.110 -0.3379 -0.5040 -0.9584
  806MOL0     O 8710   6.303  10.320  11.223 -0.4348 -0.1250  0.4559
  806MOL0     C 8711   6.450  10.322  11.212  1.0814  0.0057 -0.3046
  806MOL0     C 8712   6.513  10.300  11.352 -0.2622  0.1282 -0.5646
  806MOL0     C 8713   6.505  10.149  11.382 -0.3331  0.9651  0.0793
  806MOL0     C 8714   6.527  10.114  11.535 -0.4647  0.3182  0.5995
  806MOL0     C 8715   6.549   9.962  11.566 -0.6210  0.4682  1.0136
  806MOL0     C 8716   6.420   9.883  11.543  0.5611  0.7181  0.3217
  806MOL0     C 8717   6.448   9.753  11.621  0.1559  0.9381  0.2202
  806MOL0     C 8718   6.387   9.626  11.569 -0.4599 -0.3179  0.2793
  806MOL0    Cl 8719   6.461   9.566  11.415 -0.1809 -0.2755 -0.3138
  806MOL0     C 8720   6.114  10.250  11.108 -0.2847 -0.5719 -0.0778
  806MOL0     C 8721   6.046  10.235  10.988  0.4124  0.5945  0.1188
  806MOL0     O 8722   5.985  10.494  10.703  0.7358 -0.1173  0.2441
  806MOL0     C 8723   5.924  10.222  10.491  0.3314  0.4381 -0.3214
  806MOL0     C 8724   5.864  10.195  10.366  0.0053 -0.4045  0.2608
  806MOL0     N 8725   5.131  10.162   9.787 -0.7502  0.0730  0.3378
  806MOL0     N 8726   5.030  10.215   9.723 -0.2263  0.7522 -0.9865
  806MOL0     C 8727   4.149  10.645   9.040 -0.5350  0.0647 -0.5445
  806MOL0     C 8728   4.029  10.599   8.987 -0.2721  0.1647 -0.0321
  806MOL0     C 8729   3.607  10.465   8.908 -0.4074  0.1897  0.1030
  806MOL0     C 8730   3.536  10.453   9.030  0.5101 -0.2759  0.8444
  806MOL0     C 8731   3.392  10.440   9.043 -0.0492 -0.3145 -0.9660
  806MOL0     C 8732   3.327  10.428   8.922 -0.2790 -0.0359  0.2519
  806MOL0     O 8733   3.191  10.405   8.920  0.1176 -0.0882  0.6392
  806MOL0     C 8734   3.117  10.426   9.041  0.2470  0.9190 -0.1054
  806MOL0     C 8735   2.961  10.398   9.013 -0.3931 -0.5902  0.4719
  806MOL0     C 8736   2.882  10.415   9.148  0.3441 -0.0838 -0.0737
  806MOL0     C 8737   2.743  10.449   9.106 -0.8646 -0.3781 -0.5270
  806MOL0     C 8738   2.681  10.333   9.043  0.5853  0.4871 -0.7917
  806MOL0     C 8739   2.629  10.225   9.008  0.0816 -0.4080  0.1370
  806MOL0     C 8740   3.393  10.434   8.801 -0.2114  0.4247  0.9028
  806MOL0     C 8741   3.531  10.458   8.791 -0.3611  0.4265  0.5226
  806MOL0     C 8742   3.588  10.458   8.653  0.4970  0.1220 -0.1893
  806MOL0     H 8743   3.816  10.770   9.176 -1.3901 -0.6341 -2.2978
  806MOL0     H 8744   4.028  10.864   9.264 -1.8116  1.7587 -1.8907
  806MOL0     H 8745   4.345  10.595   9.243 -0.3391  0.6257  3.2336
  806MOL0     H 8746   4.435  10.697   9.120 -0.1641  1.8287  0.1174
  806MOL0     H 8747   4.414  10.769   9.406 -1.0244 -2.4519 -0.3079
  806MOL0     H 8748   4.507  10.852   9.270  1.0673 -1.0609  0.9259
  806MOL0     H 8749   4.650  10.676   9.212 -0.7591 -0.2372 -1.1674
  806MOL0     H 8750   4.569  10.569   9.323  2.2365 -0.2039  0.9313
  806MOL0     H 8751   4.717  10.801   9.431 -0.2042 -0.6426 -0.2309
  806MOL0     H 8752   4.644  10.658   9.510 -1.1183  2.3311  0.1652
  806MOL0     H 8753   4.796  10.517   9.388 -4.1927  1.6249  0.2480
  806MOL0     H 8754   4.866  10.655   9.305  0.2138 -1.5968 -0.1630
  806MOL0     H 8755   4.944  10.751   9.509 -2.6018  0.3224 -2.2356
  806MOL0     H 8756   4.845  10.645   9.614  0.3010 -1.6264  0.1594
  806MOL0     H 8757   5.076  10.597   9.628  3.1721  0.6244 -2.6163
  806MOL0     H 8758   5.087  10.560   9.458 -0.5883  0.3530  0.2378
  806MOL0     H 8759   4.870  10.398   9.608  0.1584 -0.9839  2.2601
  806MOL0     H 8760   4.960  10.358   9.480 -1.2972  0.6070  0.8343
  806MOL0     H 8761   5.278  10.418   9.642  1.5535 -1.8777 -0.8504
  806MOL0     H 8762   5.380  10.101   9.801  0.9398  0.3152 -3.8915
  806MOL0     H 8763   5.447  10.256   9.751  1.6084 -0.1685  0.7353
  806MOL0     H 8764   5.384  10.358   9.972  0.7298 -0.0933 -0.6956
  806MOL0     H 8765   5.323  10.194  10.018 -1.3207 -0.1713 -0.6106
  806MOL0     H 8766   5.610  10.260   9.939 -1.9756  0.3981 -2.4207
  806MOL0     H 8767   5.550  10.105   9.993  2.6855  0.1624 -1.1747
  806MOL0     H 8768   5.496  10.198  10.212 -1.4584 -0.9971 -0.4141
  806MOL0     H 8769   5.549  10.364  10.174  2.3420  0.2408  0.7390
  806MOL0     H 8770   5.634  10.432  10.374  0.7038  1.1589 -1.1529
  806MOL0     H 8771   5.755  10.501  10.558  0.8110  1.1925 -1.7352
  806MOL0     H 8772   6.249  10.408  10.777 -2.5162  4.7263  1.4340
  806MOL0     H 8773   6.357  10.456  10.996  0.7990 -0.2455  0.6210
  806MOL0     H 8774   6.481  10.246  11.140 -0.4357  0.0013 -1.0007
  806MOL0     H 8775   6.477  10.422  11.177 -1.3545  0.8367 -0.0033
  806MOL0     H 8776   6.620  10.323  11.351 -0.4451  1.0118 -2.0798
  806MOL0     H 8777   6.466  10.347  11.439  2.7920 -0.8483  1.8134
  806MOL0     H 8778   6.401  10.123  11.362 -1.0634  2.4520  1.6354
  806MOL0     H 8779   6.572  10.085  11.324  0.9296  2.0650  0.2608
  806MOL0     H 8780   6.442  10.161  11.586 -1.5255 -0.6285 -0.2352
  806MOL0     H 8781   6.616  10.169  11.566 -1.6801  2.7892 -0.0111
  806MOL0     H 8782   6.584   9.949  11.669  0.1943 -1.2457  0.5365
  806MOL0     H 8783   6.627   9.930  11.497 -0.2584  0.7435  1.2939
  806MOL0     H 8784   6.326   9.928  11.577  0.7462  0.1117  1.6859
  806MOL0     H 8785   6.406   9.866  11.436  0.0226  3.1882 -0.0608
  806MOL0     H 8786   6.399   9.768  11.718 -4.1090  0.0874 -1.5837
  806MOL0     H 8787   6.555   9.735  11.634  0.0717 -0.4932 -0.8555
  806MOL0     H 8788   6.384   9.545  11.643 -1.7387  1.0596  1.8246
  806MOL0     H 8789   6.286   9.657  11.543 -1.0530 -3.0303 -0.9535
  806MOL0     H 8790   6.107  10.193  11.200 -0.2140  1.5105  1.2908
  806MOL0     H 8791   5.966  10.161  10.990  0.5539  0.4257  2.1207
  806MOL0     H 8792   6.002  10.159  10.532  0.2860 -0.4978 -1.6314
  806MOL0     H 8793   5.898  10.108  10.310  0.4133  2.0147 -3.6423
  806MOL0     H 8794   4.246  10.612   9.004  1.3783  1.2105  3.0662
  806MOL0     H 8795   4.020  10.526   8.908 -1.2258 -1.0468  1.1614
  806MOL0     H 8796   3.596  10.465   9.120  0.0058  1.5628  0.9725
  806MOL0     H 8797   3.345  10.440   9.141 -0.1959 -3.9980 -0.8947
  806MOL0     H 8798   3.131  10.529   9.077 -0.9550  1.0938 -0.0964
  806MOL0     H 8799   3.143  10.358   9.122 -1.3203 -2.3278 -2.1274
  806MOL0     H 8800   2.946  10.298   8.973 -1.2365 -0.3563  0.1893
  806MOL0     H 8801   2.934  10.471   8.936  2.2925  0.1779  0.1492
  806MOL0     H 8802   2.928  10.506   9.188  0.2254  0.2136 -0.5987
  806MOL0     H 8803   2.890  10.326   9.211 -0.0016 -0.2908 -0.3181
  806MOL0     H 8804   2.679  10.460   9.194  0.5048 -5.9920  1.5860
  806MOL0     H 8805   2.746  10.542   9.048  1.6635  1.3113  2.0636
  806MOL0     H 8806   2.592  10.128   8.982 -0.3303  0.1903 -1.6086
  806MOL0     H 8807   3.340  10.405   8.711  1.8215  0.9710 -0.5274
  806MOL0     H 8808   3.505  10.440   8.585 -1.7249 -0.9577  2.5876
  806MOL0     H 8809   3.629  10.556   8.625  0.1681 -0.0700 -1.3590
  806MOL0     H 8810   3.659  10.378   8.631 -0.7072 -1.0946  0.2347
  807MOL0     O 8811   4.330  10.016   6.545  0.6268  0.1405  0.8643
  807MOL0     C 8812   4.232   9.965   6.606 -0.5517  0.4746 -0.2747
  807MOL0     O 8813   4.232   9.943   6.736 -0.1039  0.0053 -0.1453
  807MOL0     C 8814   4.349   9.948   6.813  0.3397 -0.1562  0.4400
  807MOL0     C 8815   4.357  10.021   6.927 -0.0042 -0.5803  0.0949
  807MOL0     C 8816   4.478  10.036   7.001 -0.3689 -0.7774  0.2640
  807MOL0     C 8817   4.592   9.972   6.953  0.7850  0.0778  0.1448
  807MOL0     O 8818   4.718   9.973   7.020 -0.0681 -0.2944 -0.0274
  807MOL0     C 8819   4.716  10.019   7.160  0.5770 -0.0001 -0.3460
  807MOL0     C 8820   4.842   9.966   7.225  0.3385  0.1282 -0.3045
  807MOL0     C 8821   4.960  10.055   7.201  0.0775  0.6086  0.4078
  807MOL0     C 8822   5.080  10.023   7.289  0.3163  0.2016  0.3750
  807MOL0     C 8823   5.208  10.098   7.238 -1.0802  0.7718  0.1995
  807MOL0     C 8824   5.319  10.068   7.333 -0.4480  0.3040 -0.3414
  807MOL0     C 8825   5.444  10.141   7.298 -0.8417  0.7903  0.6157
  807MOL0     C 8826   5.480  10.258   7.399  0.7873 -0.0100  0.8303
  807MOL0     N 8827   5.603  10.338   7.378 -0.2207 -0.3683  0.5918
  807MOL0     C 8828   5.610  10.448   7.289 -0.6362  0.3385  0.4437
  807MOL0     C 8829   5.734  10.493   7.308  0.3482  0.5423  0.7845
  807MOL0     C 8830   5.809  10.608   7.229 -0.0539 -0.2890 -0.7011
  807MOL0     C 8831   5.774  10.604   7.081 -0.6130  0.0158 -0.5729
  807MOL0     C 8832   5.815  10.483   7.002 -0.6268 -1.0979  0.5941
  807MOL0     C 8833   5.963  10.476   7.007  0.6543  0.6875  0.5747
  807MOL0     O 8834   6.014  10.364   6.931  0.2237  0.0141 -0.2611
  807MOL0     C 8835   6.145  10.353   6.886 -0.5281 -0.4571  0.8373
  807MOL0     C 8836   6.254  10.435   6.909  0.3265 -0.2225  0.0256
  807MOL0     C 8837   6.388  10.402   6.860  1.3455  0.0945 -0.0626
  807MOL0     C 8838   6.415  10.278   6.807  0.0852  0.1372  0.0086
  807MOL0     C 8839   6.544  10.239   6.752 -0.2798 -0.3443  0.0798
  807MOL0     O 8840   6.653  10.291   6.814  0.0950 -0.1896  0.4352
  807MOL0     C 8841   6.772  10.248   6.760  0.2454 -0.3343  0.0360
  807MOL0     C 8842   6.832  10.338   6.672 -0.5327 -0.1155 -0.2183
  807MOL0     C 8843   6.959  10.316   6.617 -0.0115 -1.0000  0.1690
  807MOL0     C 8844   7.038  10.216   6.676  0.1742  0.3629  0.5102
  807MOL0     O 8845   7.165  10.193   6.641 -0.3659  0.3537 -0.9233
  807MOL0     C 8846   7.239  10.282   6.560  1.1874  0.3029 -0.5599
  807MOL0     C 8847   7.379  10.217   6.558 -0.0093 -0.2338 -0.1425
  807MOL0     C 8848   7.455  10.295   6.447  0.7123 -0.7502  0.1692
  807MOL0     C 8849   7.596  10.220   6.432  0.3997 -0.0209 -0.4292
  807MOL0     C 8850   7.667  10.265   6.302  0.6711 -0.1952 -0.5685
  807MOL0     C 8851   7.712  10.410   6.316  0.4356 -0.0074  0.5440
  807MOL0     C 8852   7.854  10.421   6.382 -0.0013  0.4632 -0.4691
  807MOL0     C 8853   7.922  10.551   6.344  0.9026  0.0406 -0.1846
  807MOL0    Cl 8854   7.953  10.548   6.177 -0.3468 -0.2782 -0.1772
  807MOL0     C 8855   6.980  10.126   6.770  0.3710  0.2457 -0.7943
  807MOL0     C 8856   6.846  10.150   6.818 -0.0238  0.1040  0.4317
  807MOL0     O 8857   6.552  10.160   6.661 -0.1577 -0.0552 -0.4250
  807MOL0     C 8858   6.305  10.196   6.780  0.7431  0.5249 -0.2778
  807MOL0     C 8859   6.172  10.231   6.817 -0.6533  0.4720 -0.1319
  807MOL0     N 8860   5.791  10.423   7.412 -0.0857  0.4878  0.3139
  807MOL0     N 8861   5.718  10.319   7.440  0.1432 -0.0502  0.0592
  807MOL0     C 8862   4.578   9.884   6.842  0.7731  0.2114  0.0085
  807MOL0     C 8863   4.460   9.873   6.773 -0.5786 -0.1173  0.6257
  807MOL0     C 8864   4.098   9.942   6.527  0.3135  0.1966 -0.0397
  807MOL0     C 8865   3.999   9.882   6.602  0.1021 -0.3139  0.7923
  807MOL0     C 8866   3.871   9.869   6.548 -0.7833 -0.8678 -0.0350
  807MOL0     C 8867   3.841   9.904   6.420  0.1653 -0.8169  1.0324
  807MOL0     O 8868   3.710   9.896   6.384 -0.1680 -0.4774 -0.4076
  807MOL0     C 8869   3.656   9.942   6.255  0.8450 -0.3752  0.0937
  807MOL0     C 8870   3.505   9.904   6.225 -0.0241 -0.0869  1.3647
  807MOL0     C 8871   3.467   9.949   6.080 -0.4448 -0.7186  0.1097
  807MOL0     C 8872   3.321   9.944   6.039 -0.1077  0.4501 -0.1428
  807MOL0     C 8873   3.231  10.030   6.117  0.2584 -0.8109 -0.5950
  807MOL0     C 8874   3.154  10.091   6.189 -0.0082  0.2672  0.1714
  807MOL0     C 8875   3.945   9.958   6.343 -0.2065 -0.5270  0.0147
  807MOL0     C 8876   4.068   9.981   6.393 -1.4077 -0.0700  1.0831
  807MOL0     C 8877   4.177  10.048   6.309 -0.0818 -0.4277 -0.6990
  807MOL0     H 8878   4.270  10.083   6.946  0.8038  0.7284 -0.3526
  807MOL0     H 8879   4.487  10.118   7.072  0.9730  0.6822 -1.5030
  807MOL0     H 8880   4.704  10.127   7.171  2.1689 -0.0317  2.9120
  807MOL0     H 8881   4.634   9.977   7.219  0.5775  0.9207  0.3289
  807MOL0     H 8882   4.865   9.866   7.189  0.0911 -1.2581  2.9929
  807MOL0     H 8883   4.812   9.954   7.330 -1.5249 -0.8245 -0.9177
  807MOL0     H 8884   4.932  10.160   7.218 -0.7342  0.1909  1.7583
  807MOL0     H 8885   5.000  10.047   7.099 -1.0857 -1.5007  0.0543
  807MOL0     H 8886   5.056  10.039   7.395  2.3431 -1.0288  1.0815
  807MOL0     H 8887   5.085   9.914   7.289  0.5761  0.1978 -1.3193
  807MOL0     H 8888   5.225  10.070   7.133 -0.5663 -2.0651  0.9847
  807MOL0     H 8889   5.194  10.207   7.237 -0.7913  0.8571  2.3392
  807MOL0     H 8890   5.285  10.093   7.434  0.1692 -0.2760  0.0224
  807MOL0     H 8891   5.337   9.960   7.335 -0.9184  0.2371  0.7129
  807MOL0     H 8892   5.441  10.173   7.193 -1.7959  0.9718  0.6979
  807MOL0     H 8893   5.518  10.061   7.308 -0.0364  1.7438  2.7835
  807MOL0     H 8894   5.404  10.337   7.400  3.5481  2.9558 -1.0158
  807MOL0     H 8895   5.491  10.226   7.503 -0.2578  0.5854  1.1364
  807MOL0     H 8896   5.526  10.482   7.229 -0.7656  0.4599  0.6928
  807MOL0     H 8897   5.787  10.708   7.266  0.8889  0.5456 -2.2888
  807MOL0     H 8898   5.913  10.586   7.255  0.2626  1.1761 -0.6719
  807MOL0     H 8899   5.666  10.619   7.080 -0.3445  2.4429  0.2943
  807MOL0     H 8900   5.826  10.691   7.041  1.5021 -0.9739 -0.1233
  807MOL0     H 8901   5.785  10.498   6.898  0.5330 -0.7493  0.2917
  807MOL0     H 8902   5.769  10.390   7.039  2.6115 -1.9141  2.9861
  807MOL0     H 8903   6.004  10.466   7.108 -2.0467 -3.3154  1.5146
  807MOL0     H 8904   6.004  10.561   6.952  1.1550  0.3038  0.3401
  807MOL0     H 8905   6.238  10.529   6.962 -1.0818  0.3692 -1.3850
  807MOL0     H 8906   6.464  10.479   6.860 -0.1448  1.6509  1.8301
  807MOL0     H 8907   6.774  10.425   6.640 -1.7969 -1.4556 -1.7509
  807MOL0     H 8908   6.998  10.385   6.542 -1.0843 -1.6048 -0.9777
  807MOL0     H 8909   7.188  10.283   6.464 -0.7168  0.5854  0.3996
  807MOL0     H 8910   7.239  10.380   6.607  1.7838 -0.0157  0.1297
  807MOL0     H 8911   7.434  10.233   6.652  2.1893 -1.8354 -1.0766
  807MOL0     H 8912   7.378  10.107   6.554  1.6744 -0.2440 -0.7599
  807MOL0     H 8913   7.402  10.287   6.352  0.5903  0.3288  0.1385
  807MOL0     H 8914   7.457  10.399   6.482  0.7842 -1.1212  1.3284
  807MOL0     H 8915   7.589  10.111   6.428  0.3273 -0.0780  0.9615
  807MOL0     H 8916   7.648  10.242   6.526 -1.0790  0.2754  0.3341
  807MOL0     H 8917   7.594  10.257   6.221  1.0984 -0.5876 -0.9182
  807MOL0     H 8918   7.749  10.196   6.282  0.9461  0.3898 -1.4859
  807MOL0     H 8919   7.726  10.445   6.214  0.2525 -0.0106  0.5179
  807MOL0     H 8920   7.636  10.471   6.365  0.3194  0.0750  0.2576
  807MOL0     H 8921   7.925  10.343   6.353  2.0501  2.0331  0.0640
  807MOL0     H 8922   7.854  10.414   6.492  2.0384  0.9730 -0.3877
  807MOL0     H 8923   7.854  10.623   6.389 -1.3180 -3.2805  2.2860
  807MOL0     H 8924   8.021  10.542   6.389  0.3228 -3.1945  0.7363
  807MOL0     H 8925   7.043  10.049   6.812  0.4745  3.2134  5.6516
  807MOL0     H 8926   6.814  10.089   6.902  1.3358 -1.0555  0.1575
  807MOL0     H 8927   6.316  10.106   6.721  2.3638  1.5466 -1.6219
  807MOL0     H 8928   6.089  10.162   6.808  0.5274 -1.0381  0.0630
  807MOL0     H 8929   4.657   9.830   6.792 -1.2354 -1.0611 -1.9700
  807MOL0     H 8930   4.447   9.810   6.685 -0.6854 -2.4959  2.2510
  807MOL0     H 8931   4.011   9.858   6.708 -1.3285  0.2561  1.1017
  807MOL0     H 8932   3.783   9.843   6.606 -2.0827 -0.2019 -1.6383
  807MOL0     H 8933   3.713   9.907   6.168 -3.3393  2.0294 -4.1087
  807MOL0     H 8934   3.664  10.051   6.249  2.1861 -0.4903 -0.8154
  807MOL0     H 8935   3.440   9.940   6.306  1.1697  0.6567  2.0196
  807MOL0     H 8936   3.495   9.795   6.216  3.8705 -0.5095  0.4128
  807MOL0     H 8937   3.530   9.886   6.018  2.8148  1.5030  0.8940
  807MOL0     H 8938   3.497  10.054   6.070  0.5590 -1.1079 -1.2006
  807MOL0     H 8939   3.311   9.982   5.936 -3.3554 -2.5011 -1.1461
  807MOL0     H 8940   3.278   9.844   6.034 -2.0246  1.0030  2.9137
  807MOL0     H 8941   3.091  10.153   6.249  0.7206 -0.6560  2.0166
  807MOL0     H 8942   3.917   9.998   6.246 -1.3597 -2.1562 -0.3676
  807MOL0     H 8943   4.256   9.975   6.290  0.3387 -0.2685  0.3983
  807MOL0     H 8944   4.126  10.079   6.217 -1.0375  0.4715  0.1073
  807MOL0     H 8945   4.211  10.135   6.364 -2.2926 -0.8715  1.5529
  808MOL0     O 8946  10.552  11.211   7.419 -0.2315 -0.4346 -0.2685
  808MOL0     C 8947  10.541  11.102   7.372 -0.7627 -0.5067  0.5845
  808MOL0     O 8948  10.578  11.071   7.252 -0.9489  0.0402  0.2396
  808MOL0     C 8949  10.702  11.106   7.207 -0.8251 -0.1001  0.3067
  808MOL0     C 8950  10.814  11.104   7.289  0.0726 -0.0494  0.7274
  808MOL0     C 8951  10.945  11.129   7.232 -0.8388  0.3051  0.0835
  808MOL0     C 8952  10.962  11.157   7.097  0.2898 -0.1208  0.1362
  808MOL0     O 8953  11.091  11.175   7.052 -0.1358 -0.1033  0.0855
  808MOL0     C 8954  11.107  11.254   6.947 -1.0046  0.1565  0.9243
  808MOL0     C 8955  11.253  11.312   6.954 -0.0786  0.1565 -0.1946
  808MOL0     C 8956  11.297  11.380   6.820  0.6791  0.8848  1.2038
  808MOL0     C 8957  11.439  11.407   6.818  0.3831  0.2663  0.0875
  808MOL0     C 8958  11.494  11.457   6.679 -0.0796  0.6148 -0.9941
  808MOL0     C 8959  11.640  11.473   6.694  0.1204 -0.0351  0.6133
  808MOL0     C 8960  11.711  11.524   6.563 -0.4019 -0.0640 -0.2908
  808MOL0     C 8961  11.859  11.529   6.600  0.0246  0.3508  0.6064
  808MOL0     N 8962  11.937  11.582   6.482 -0.2570 -0.0281 -0.1588
  808MOL0     C 8963  11.962  11.517   6.365 -0.2834  0.8552  0.3512
  808MOL0     C 8964  12.065  11.579   6.308  0.2776 -0.0739 -0.1490
  808MOL0     C 8965  12.138  11.536   6.183  0.0889 -0.4166 -0.2670
  808MOL0     C 8966  12.265  11.460   6.236 -0.4273  0.4334  0.4314
  808MOL0     C 8967  12.356  11.406   6.118 -1.2407 -0.1939  0.0532
  808MOL0     C 8968  12.504  11.398   6.166  0.5923  0.1047 -0.1584
  808MOL0     O 8969  12.586  11.356   6.051  0.4065  0.2976 -0.1321
  808MOL0     C 8970  12.716  11.361   6.082  0.9468 -0.7108 -0.0774
  808MOL0     C 8971  12.782  11.238   6.103  0.6312 -0.2348  0.2657
  808MOL0     C 8972  12.922  11.224   6.134  0.9030 -0.3907  0.2020
  808MOL0     C 8973  12.996  11.342   6.154 -0.6475 -0.2610 -0.2010
  808MOL0     C 8974  13.140  11.335   6.183  0.1728 -0.6144 -0.4009
  808MOL0     O 8975  13.203  11.462   6.202 -0.0591  0.8295 -0.0861
  808MOL0     C 8976  13.336  11.463   6.238  0.5832  0.0442 -0.9978
  808MOL0     C 8977  13.371  11.437   6.370 -0.2253  0.1303 -0.2822
  808MOL0     C 8978  13.499  11.463   6.409 -0.2171  0.4833 -0.6475
  808MOL0     C 8979  13.606  11.502   6.324  0.6821 -0.3890  0.1540
  808MOL0     O 8980  13.724  11.530   6.375  0.2720  0.0195  0.4743
  808MOL0     C 8981  13.832  11.553   6.274 -0.2859 -0.1637 -1.1643
  808MOL0     C 8982  13.969  11.564   6.341  0.5907 -0.1709 -0.4989
  808MOL0     C 8983  14.092  11.600   6.249  0.5984  0.1728 -0.4506
  808MOL0     C 8984  14.214  11.632   6.330 -0.1908  0.8127  0.4901
  808MOL0     C 8985  14.336  11.646   6.239  0.5604  0.8145  0.1806
  808MOL0     C 8986  14.465  11.673   6.311  0.3296 -0.5356  0.2542
  808MOL0     C 8987  14.578  11.711   6.220 -0.2704  0.4179  0.4327
  808MOL0     C 8988  14.633  11.587   6.153 -0.4066 -0.5536 -0.0001
  808MOL0    Cl 8989  14.721  11.484   6.283  0.0720  0.0325  0.0252
  808MOL0     C 8990  13.567  11.512   6.185 -0.4587 -0.2619 -0.5999
  808MOL0     C 8991  13.437  11.488   6.147  0.7313 -0.0326  0.4992
  808MOL0     O 8992  13.205  11.230   6.179 -0.5030  0.4015 -0.0622
  808MOL0     C 8993  12.931  11.461   6.130  0.0228  0.1568  0.9193
  808MOL0     C 8994  12.796  11.478   6.100  0.6359 -0.0262 -0.7888
  808MOL0     N 8995  12.111  11.678   6.398 -0.3728  0.4480 -0.2796
  808MOL0     N 8996  12.028  11.676   6.496 -0.6241 -0.3973 -0.3020
  808MOL0     C 8997  10.844  11.162   7.016 -0.2108  0.1704 -0.6305
  808MOL0     C 8998  10.716  11.136   7.067 -0.5329  0.8567 -0.0398
  808MOL0     C 8999  10.435  11.013   7.438  1.2340  0.1436 -0.2372
  808MOL0     C 9000  10.366  10.917   7.362 -0.3432 -0.5292 -0.5003
  808MOL0     C 9001  10.262  10.845   7.421 -0.0922  0.1358  0.1220
  808MOL0     C 9002  10.227  10.854   7.554  0.9246 -0.6671  0.5039
  808MOL0     O 9003  10.113  10.786   7.586  0.3139 -0.3522 -0.0244
  808MOL0     C 9004  10.112  10.732   7.714  0.1372  0.9105 -0.4377
  808MOL0     C 9005  10.211  10.618   7.742  0.2015  0.0882  0.1332
  808MOL0     C 9006  10.187  10.554   7.885  0.5175 -0.7520 -0.5453
  808MOL0     C 9007  10.222  10.629   8.008 -0.6844  0.3935  0.5383
  808MOL0     C 9008  10.334  10.728   7.979  1.0892  0.4127 -0.2443
  808MOL0     C 9009  10.412  10.817   7.941 -0.2494  0.2446  0.3061
  808MOL0     C 9010  10.295  10.942   7.637  0.7861 -0.2683  0.2280
  808MOL0     C 9011  10.404  11.012   7.584 -0.6674 -0.5882 -0.7175
  808MOL0     C 9012  10.461  11.102   7.687 -0.0638 -1.1013  0.5726
  808MOL0     H 9013  10.801  11.077   7.394 -1.8746 -1.1337  0.2559
  808MOL0     H 9014  11.027  11.129   7.303 -1.4603  1.2706  0.8308
  808MOL0     H 9015  11.112  11.190   6.858  2.1929  1.7293 -0.1731
  808MOL0     H 9016  11.041  11.340   6.931  0.3509  1.3432  1.4978
  808MOL0     H 9017  11.314  11.223   6.975  0.7655  0.5293 -0.9672
  808MOL0     H 9018  11.259  11.377   7.042 -4.3365 -0.0560  0.4470
  808MOL0     H 9019  11.235  11.468   6.805 -0.4618 -0.3399 -2.0134
  808MOL0     H 9020  11.273  11.307   6.742 -0.4643  1.7613  0.7129
  808MOL0     H 9021  11.473  11.469   6.901  3.9717  0.3715 -1.3069
  808MOL0     H 9022  11.485  11.309   6.835  2.4291  1.3416  1.0536
  808MOL0     H 9023  11.460  11.400   6.592 -2.4627  0.9549 -0.3587
  808MOL0     H 9024  11.447  11.555   6.664  1.0843  1.6663  1.7338
  808MOL0     H 9025  11.658  11.537   6.781 -1.1609  2.7454 -1.0178
  808MOL0     H 9026  11.683  11.375   6.715  0.2981 -0.1269 -0.1780
  808MOL0     H 9027  11.683  11.622   6.523  3.1813  1.5197  0.6718
  808MOL0     H 9028  11.713  11.446   6.487 -3.1618  2.5667 -3.4391
  808MOL0     H 9029  11.877  11.601   6.680 -1.7639  4.5717 -2.4046
  808MOL0     H 9030  11.902  11.432   6.626  2.3134  0.6852 -1.5119
  808MOL0     H 9031  11.908  11.428   6.332 -0.3264 -0.0109  2.5361
  808MOL0     H 9032  12.075  11.474   6.118 -2.0667 -0.1229  1.4214
  808MOL0     H 9033  12.173  11.622   6.125  1.1977 -0.0811  0.8662
  808MOL0     H 9034  12.321  11.528   6.302 -1.9494  1.2982  0.8802
  808MOL0     H 9035  12.231  11.373   6.292  2.0983 -0.7555  0.2644
  808MOL0     H 9036  12.355  11.465   6.026  0.4164  0.8141  0.6245
  808MOL0     H 9037  12.309  11.309   6.104  0.7455 -1.3484  0.9737
  808MOL0     H 9038  12.516  11.329   6.251 -1.0715 -1.0056 -0.7783
  808MOL0     H 9039  12.538  11.499   6.192  0.6058  0.5349 -1.7374
  808MOL0     H 9040  12.729  11.144   6.091 -0.1422  0.1485  0.6276
  808MOL0     H 9041  12.968  11.126   6.145  4.4300  1.2612  1.8215
  808MOL0     H 9042  13.302  11.411   6.449 -0.4552  1.5504  0.0082
  808MOL0     H 9043  13.511  11.447   6.516  0.2426  0.4965 -0.6976
  808MOL0     H 9044  13.839  11.469   6.204 -1.9566  0.8831 -2.6784
  808MOL0     H 9045  13.826  11.646   6.215  1.1652 -0.6125 -2.0776
  808MOL0     H 9046  13.954  11.643   6.415  3.1537  0.5012 -0.5948
  808MOL0     H 9047  13.992  11.474   6.400  1.8316  0.9347  0.7836
  808MOL0     H 9048  14.108  11.515   6.182 -0.6272 -0.9991  0.6917
  808MOL0     H 9049  14.062  11.687   6.191 -0.8119  0.7061  1.0269
  808MOL0     H 9050  14.224  11.551   6.403 -1.7349 -0.8961 -1.0999
  808MOL0     H 9051  14.209  11.729   6.382  2.0810 -0.4403  3.2709
  808MOL0     H 9052  14.319  11.713   6.154 -1.6595 -0.8299 -0.7678
  808MOL0     H 9053  14.346  11.552   6.184  1.1147  0.1592  1.3437
  808MOL0     H 9054  14.453  11.753   6.385  3.7945 -1.6372  2.2145
  808MOL0     H 9055  14.489  11.588   6.374 -0.5471 -0.4478  0.7130
  808MOL0     H 9056  14.663  11.758   6.272  1.9378 -0.2237 -2.3379
  808MOL0     H 9057  14.543  11.791   6.153 -0.6285  0.3061  0.4888
  808MOL0     H 9058  14.553  11.533   6.102 -0.4939 -2.1482  1.7283
  808MOL0     H 9059  14.708  11.619   6.079 -0.5692 -4.2837 -2.0126
  808MOL0     H 9060  13.644  11.544   6.115  0.7453 -2.3187 -0.3059
  808MOL0     H 9061  13.399  11.509   6.047  0.4806 -0.7835  0.4285
  808MOL0     H 9062  12.983  11.556   6.140  1.1671 -0.2258 -0.8966
  808MOL0     H 9063  12.745  11.574   6.091  1.0648  0.6093  2.2898
  808MOL0     H 9064  10.858  11.190   6.912 -1.3280  0.1540 -0.7983
  808MOL0     H 9065  10.622  11.146   7.015 -1.3987 -5.0468 -0.2058
  808MOL0     H 9066  10.375  10.907   7.254 -1.8405 -1.3004 -0.5769
  808MOL0     H 9067  10.203  10.774   7.364  0.7579  0.2917 -0.9894
  808MOL0     H 9068  10.012  10.691   7.725  0.0718  1.0790 -0.4148
  808MOL0     H 9069  10.129  10.806   7.793  2.9448  0.6612 -0.6992
  808MOL0     H 9070  10.314  10.650   7.730  0.2503 -0.1989 -0.2415
  808MOL0     H 9071  10.197  10.544   7.663 -0.4984  0.1153  0.2247
  808MOL0     H 9072  10.256  10.470   7.901  2.0286  0.5282 -0.0733
  808MOL0     H 9073  10.083  10.520   7.879 -0.1806  1.3865 -1.7575
  808MOL0     H 9074  10.131  10.682   8.040 -1.1765  0.2686 -0.5971
  808MOL0     H 9075  10.253  10.562   8.088  1.0017  0.9966  0.4373
  808MOL0     H 9076  10.480  10.893   7.910  0.5871 -0.0124  1.4323
  808MOL0     H 9077  10.258  10.963   7.737 -0.6736 -3.4773  0.4792
  808MOL0     H 9078  10.462  11.204   7.650  2.6042 -1.5881 -0.9375
  808MOL0     H 9079  10.415  11.091   7.786 -1.1674  0.6413  0.2923
  808MOL0     H 9080  10.568  11.081   7.699 -0.2416 -3.4371 -1.0999
  809MOL0     O 9081   6.458   0.416   7.398  0.0642  0.0743  0.4066
  809MOL0     C 9082   6.388   0.352   7.472  0.1382  0.1996  0.0135
  809MOL0     O 9083   6.428   0.229   7.528  0.1953 -0.0091  0.9543
  809MOL0     C 9084   6.544   0.162   7.522  0.0263 -0.5027  0.7568
  809MOL0     C 9085   6.631   0.177   7.417  0.9897  0.5052 -0.0799
  809MOL0     C 9086   6.740   0.085   7.407  0.3015 -0.7126  0.1295
  809MOL0     C 9087   6.761  -0.010   7.504 -0.5648  0.1459  0.3899
  809MOL0     O 9088   6.869  -0.096   7.487  0.0647 -0.8981  0.4412
  809MOL0     C 9089   6.872  -0.210   7.577 -0.7907 -0.0365 -0.1297
  809MOL0     C 9090   6.996  -0.285   7.547  0.4618  0.4026  0.1139
  809MOL0     C 9091   6.998  -0.353   7.407 -0.0070  0.2959  0.0967
  809MOL0     C 9092   6.911  -0.480   7.387  0.6365  0.2889  0.1627
  809MOL0     C 9093   6.953  -0.598   7.464  0.3798  0.1888  0.2312
  809MOL0     C 9094   7.092  -0.651   7.439  0.0255  0.0617  0.5190
  809MOL0     C 9095   7.130  -0.762   7.544  0.3992  0.2552  0.0387
  809MOL0     C 9096   7.039  -0.885   7.541 -0.3040 -0.0544  0.2078
  809MOL0     N 9097   7.027  -0.940   7.405  1.0508  0.7894 -0.4206
  809MOL0     C 9098   7.118  -1.009   7.333  0.0846 -0.0240  0.2319
  809MOL0     C 9099   7.058  -1.043   7.217  0.4493  0.6786  0.6103
  809MOL0     C 9100   7.116  -1.097   7.085  0.2738 -0.0864 -0.2361
  809MOL0     C 9101   7.242  -1.183   7.104 -0.4041  0.2890 -0.8062
  809MOL0     C 9102   7.303  -1.243   6.967 -0.7126 -0.5958  0.3392
  809MOL0     C 9103   7.437  -1.311   6.979 -0.1027 -0.3428  0.2351
  809MOL0     O 9104   7.537  -1.206   6.988  0.3458 -0.0712 -0.3884
  809MOL0     C 9105   7.621  -1.187   6.885 -0.9315  0.3317 -0.2786
  809MOL0     C 9106   7.687  -1.065   6.885  0.5352 -0.6017 -0.2655
  809MOL0     C 9107   7.805  -1.047   6.808  0.0004 -0.3494  0.3112
  809MOL0     C 9108   7.862  -1.162   6.743 -0.3831  0.1559  0.1791
  809MOL0     C 9109   7.990  -1.149   6.669 -0.3462  0.0374 -0.1294
  809MOL0     O 9110   8.058  -1.038   6.695 -0.4739 -0.7341 -0.7769
  809MOL0     C 9111   8.160  -0.991   6.615  0.6956 -0.2764 -0.4389
  809MOL0     C 9112   8.176  -0.850   6.600 -0.3729 -0.4304  0.4174
  809MOL0     C 9113   8.285  -0.794   6.534  0.3161 -0.4066 -0.3024
  809MOL0     C 9114   8.377  -0.873   6.468 -0.3063  0.0969 -0.2114
  809MOL0     O 9115   8.477  -0.798   6.405  0.3791  0.3385  0.3427
  809MOL0     C 9116   8.582  -0.856   6.326 -0.3494 -0.6091 -0.2252
  809MOL0     C 9117   8.699  -0.756   6.333  0.0468  0.2904 -0.5779
  809MOL0     C 9118   8.798  -0.803   6.440  0.0300 -0.6825 -0.2501
  809MOL0     C 9119   8.924  -0.704   6.438 -0.0593 -0.8611 -0.6530
  809MOL0     C 9120   9.045  -0.752   6.525  0.1840  0.3335  1.1230
  809MOL0     C 9121   9.160  -0.654   6.531  0.4641 -0.1648 -0.7581
  809MOL0     C 9122   9.232  -0.627   6.397 -0.3758  0.1470 -1.1931
  809MOL0     C 9123   9.273  -0.483   6.375 -0.7251 -0.7876 -0.6527
  809MOL0    Cl 9124   9.385  -0.456   6.237 -0.1915  0.0693  0.1956
  809MOL0     C 9125   8.361  -1.007   6.472 -0.2888  0.4738 -0.0510
  809MOL0     C 9126   8.263  -1.066   6.552 -0.0896  0.0904  0.7821
  809MOL0     O 9127   8.017  -1.234   6.580  0.2647 -0.5183 -0.7152
  809MOL0     C 9128   7.803  -1.285   6.754 -0.8585 -0.2104 -0.6517
  809MOL0     C 9129   7.681  -1.296   6.823  0.1194  1.0029  0.2918
  809MOL0     N 9130   6.924  -1.004   7.228  0.4396  0.3845  0.1701
  809MOL0     N 9131   6.904  -0.943   7.347 -0.0100  0.6230 -0.0307
  809MOL0     C 9132   6.680  -0.009   7.618 -0.1853 -0.6603 -0.3186
  809MOL0     C 9133   6.569   0.073   7.626 -0.4331 -0.4597 -0.0552
  809MOL0     C 9134   6.262   0.414   7.520 -0.1730  1.2702 -1.3377
  809MOL0     C 9135   6.163   0.320   7.560  0.3918 -0.7169 -0.9957
  809MOL0     C 9136   6.043   0.363   7.610 -0.0121 -0.1378  0.1931
  809MOL0     C 9137   6.008   0.505   7.617  0.0341 -0.0225 -0.3207
  809MOL0     O 9138   5.894   0.546   7.680  0.3355  0.1414 -0.0272
  809MOL0     C 9139   5.773   0.461   7.687  0.1338  0.5115  0.4269
  809MOL0     C 9140   5.711   0.456   7.547 -1.2214  0.1651  0.3860
  809MOL0     C 9141   5.649   0.595   7.500  0.1644  0.1934 -0.3706
  809MOL0     C 9142   5.512   0.619   7.560 -0.7556 -0.8878  0.7159
  809MOL0     C 9143   5.412   0.650   7.458 -0.6279  0.0072 -0.7399
  809MOL0     C 9144   5.315   0.669   7.393  0.3155  1.1202  0.4889
  809MOL0     C 9145   6.092   0.595   7.559 -0.6414 -0.4098 -0.1063
  809MOL0     C 9146   6.224   0.552   7.518  0.5519 -0.4571  0.1665
  809MOL0     C 9147   6.316   0.658   7.458 -0.0344 -1.1127  0.0867
  809MOL0     H 9148   6.609   0.243   7.333 -0.1116 -1.6136 -1.5510
  809MOL0     H 9149   6.812   0.097   7.327  0.7396 -2.7048  0.1770
  809MOL0     H 9150   6.895  -0.183   7.681 -1.0727  0.9857 -0.3228
  809MOL0     H 9151   6.784  -0.270   7.554 -1.3893  0.7494  0.0859
  809MOL0     H 9152   7.004  -0.370   7.616  1.1552  0.0546 -0.3828
  809MOL0     H 9153   7.082  -0.219   7.566 -0.7270  1.5136  1.9889
  809MOL0     H 9154   7.096  -0.384   7.369 -0.9020 -1.4170 -0.9349
  809MOL0     H 9155   6.972  -0.275   7.334  4.3604  2.6163  0.6349
  809MOL0     H 9156   6.805  -0.469   7.409  0.9513  0.6505  1.6039
  809MOL0     H 9157   6.930  -0.508   7.283 -2.4016 -0.8025 -0.1913
  809MOL0     H 9158   6.936  -0.585   7.571 -0.5227 -1.5778  0.3471
  809MOL0     H 9159   6.877  -0.673   7.437  0.9322  0.6296 -2.9471
  809MOL0     H 9160   7.095  -0.686   7.336 -2.8075  1.7972 -0.2963
  809MOL0     H 9161   7.170  -0.577   7.459  0.5968 -1.0532  2.7150
  809MOL0     H 9162   7.119  -0.724   7.646  2.7070 -3.1417  1.7558
  809MOL0     H 9163   7.234  -0.794   7.528  0.0838 -0.2473 -1.1518
  809MOL0     H 9164   7.077  -0.964   7.607  0.9753  0.9308  0.6918
  809MOL0     H 9165   6.938  -0.865   7.577 -0.4427 -0.5571  0.1051
  809MOL0     H 9166   7.220  -1.022   7.367  0.3856 -0.5228 -0.8054
  809MOL0     H 9167   7.031  -1.150   7.040 -3.4229  2.4275  3.1520
  809MOL0     H 9168   7.150  -1.017   7.018 -2.6402  0.3244 -1.3549
  809MOL0     H 9169   7.314  -1.121   7.157 -1.6160  1.7663 -0.8178
  809MOL0     H 9170   7.221  -1.265   7.173 -1.4869  0.8959 -0.3809
  809MOL0     H 9171   7.311  -1.163   6.892 -0.2773 -1.9547 -1.1061
  809MOL0     H 9172   7.231  -1.318   6.934  0.3070 -2.7876  2.7914
  809MOL0     H 9173   7.446  -1.375   6.890  1.2670  0.1695 -0.0110
  809MOL0     H 9174   7.448  -1.381   7.063  2.0581 -0.7068 -0.2796
  809MOL0     H 9175   7.659  -0.979   6.944  1.1617 -0.8631  0.4321
  809MOL0     H 9176   7.848  -0.948   6.806  0.0520 -0.3735 -1.2287
  809MOL0     H 9177   8.100  -0.790   6.650 -1.6412 -1.9979  0.4422
  809MOL0     H 9178   8.295  -0.687   6.520 -0.3230 -0.1053  1.3043
  809MOL0     H 9179   8.607  -0.957   6.357 -0.0706  0.1892  2.3632
  809MOL0     H 9180   8.553  -0.854   6.220  0.2184  1.1650 -0.3893
  809MOL0     H 9181   8.754  -0.758   6.238  1.6465  0.3993  0.3132
  809MOL0     H 9182   8.657  -0.659   6.359  2.4090  0.4876  3.2809
  809MOL0     H 9183   8.748  -0.792   6.537 -0.3148 -0.4576 -0.4544
  809MOL0     H 9184   8.838  -0.904   6.426 -0.2809 -0.9527  0.7310
  809MOL0     H 9185   8.882  -0.609   6.470 -0.5203 -1.3498  0.2130
  809MOL0     H 9186   8.956  -0.687   6.334  1.5403 -0.0933 -0.0708
  809MOL0     H 9187   9.088  -0.844   6.483 -1.2003  0.2013 -0.0962
  809MOL0     H 9188   8.998  -0.779   6.620 -3.1428  1.6751 -0.0070
  809MOL0     H 9189   9.128  -0.560   6.577  0.8743 -0.1792 -0.4418
  809MOL0     H 9190   9.233  -0.697   6.599 -3.1278 -1.4622  2.6678
  809MOL0     H 9191   9.161  -0.654   6.318 -1.3914  0.0699 -0.2852
  809MOL0     H 9192   9.321  -0.689   6.381 -1.8681 -2.1424 -1.1654
  809MOL0     H 9193   9.195  -0.407   6.368  0.3881  0.7912  2.4657
  809MOL0     H 9194   9.322  -0.451   6.467 -1.9490  1.7071 -0.7857
  809MOL0     H 9195   8.430  -1.073   6.419 -1.5637 -1.0402  0.0889
  809MOL0     H 9196   8.277  -1.174   6.556  1.1983  0.2702  2.6273
  809MOL0     H 9197   7.850  -1.379   6.729 -1.1510 -0.8199  0.9434
  809MOL0     H 9198   7.642  -1.396   6.839 -1.6526  1.6786  0.3963
  809MOL0     H 9199   6.695  -0.080   7.698 -0.9304  0.3643  0.7528
  809MOL0     H 9200   6.501   0.079   7.710 -0.0658  1.0273  0.1627
  809MOL0     H 9201   6.183   0.216   7.539 -0.6261 -0.7769 -1.7740
  809MOL0     H 9202   5.978   0.283   7.646 -1.3984 -0.0660 -1.9859
  809MOL0     H 9203   5.699   0.498   7.757 -2.2631 -3.5876  0.3709
  809MOL0     H 9204   5.807   0.362   7.718  0.8614  1.1016  1.5776
  809MOL0     H 9205   5.620   0.397   7.544 -2.4049  1.6932  2.9696
  809MOL0     H 9206   5.780   0.415   7.472  0.1434  2.9138 -0.0119
  809MOL0     H 9207   5.635   0.598   7.392 -0.9412 -1.1244 -0.2823
  809MOL0     H 9208   5.706   0.680   7.539 -2.0678 -0.1411  4.2544
  809MOL0     H 9209   5.471   0.528   7.603  2.8006 -3.0128  0.0566
  809MOL0     H 9210   5.520   0.707   7.626 -0.5358  1.3798 -2.1242
  809MOL0     H 9211   5.236   0.667   7.321 -0.7718 -0.6178  1.6533
  809MOL0     H 9212   6.064   0.700   7.561 -0.7197 -0.4152 -0.7818
  809MOL0     H 9213   6.305   0.756   7.507 -0.2713 -2.1048  2.1460
  809MOL0     H 9214   6.419   0.632   7.481 -0.3702 -2.5664  0.0226
  809MOL0     H 9215   6.305   0.669   7.350 -1.0609 -0.7492  0.2079
  810MOL0     O 9216   5.026   9.829   7.622  0.1414 -0.5059 -0.4090
  810MOL0     C 9217   5.038   9.736   7.706 -0.6192  0.2991  0.2312
  810MOL0     O 9218   5.119   9.733   7.812 -0.4322 -0.3299 -0.0445
  810MOL0     C 9219   5.228   9.819   7.800  0.0082 -0.7729  0.4090
  810MOL0     C 9220   5.221   9.949   7.852 -0.0220 -0.0178 -0.5353
  810MOL0     C 9221   5.335  10.038   7.856  0.1555 -1.6058  0.0667
  810MOL0     C 9222   5.445   9.999   7.779 -0.2814 -0.1899 -0.3783
  810MOL0     O 9223   5.565  10.062   7.772  0.6365  1.1046  1.0433
  810MOL0     C 9224   5.578  10.186   7.842 -0.9411  0.3328  0.1021
  810MOL0     C 9225   5.702  10.252   7.800 -0.8564  0.0018  0.3849
  810MOL0     C 9226   5.830  10.175   7.847  1.1380 -0.5203  0.4527
  810MOL0     C 9227   5.950  10.258   7.780 -0.0377 -0.8339  0.7183
  810MOL0     C 9228   6.092  10.191   7.783 -0.5184 -0.1705 -0.3425
  810MOL0     C 9229   6.094  10.042   7.742  0.9092 -0.0343 -0.0722
  810MOL0     C 9230   6.233   9.999   7.708 -0.2193  0.9845  0.1590
  810MOL0     C 9231   6.242   9.841   7.701  0.0300 -0.8242  0.7607
  810MOL0     N 9232   6.378   9.801   7.689  0.3014  0.0463 -0.1911
  810MOL0     C 9233   6.431   9.738   7.582  1.2336 -0.8660 -0.0636
  810MOL0     C 9234   6.559   9.705   7.620 -0.1279  0.2514 -0.0967
  810MOL0     C 9235   6.674   9.658   7.542 -0.0677 -0.1626  0.8210
  810MOL0     C 9236   6.636   9.537   7.457  0.1480  0.1970 -0.5240
  810MOL0     C 9237   6.764   9.505   7.366 -0.6308  0.0319  0.2131
  810MOL0     C 9238   6.746   9.379   7.281  0.1832 -0.0088  0.2378
  810MOL0     O 9239   6.850   9.360   7.188 -0.2689  0.0715 -0.4120
  810MOL0     C 9240   6.969   9.332   7.241  0.0424 -0.0733  0.3659
  810MOL0     C 9241   6.995   9.235   7.333  0.8080  0.1701  0.0079
  810MOL0     C 9242   7.123   9.228   7.394 -0.2437  0.4967 -0.6703
  810MOL0     C 9243   7.226   9.308   7.350 -0.3720 -0.2614 -0.9176
  810MOL0     C 9244   7.361   9.313   7.416 -0.7863 -0.0806  0.8563
  810MOL0     O 9245   7.390   9.211   7.506  0.4019 -0.5384 -0.8699
  810MOL0     C 9246   7.502   9.227   7.589  0.4628 -0.4534  0.3114
  810MOL0     C 9247   7.509   9.217   7.729  0.0658 -0.2990 -0.2803
  810MOL0     C 9248   7.629   9.228   7.804 -0.6740  0.4492  0.6361
  810MOL0     C 9249   7.747   9.241   7.728 -1.4100  0.2235 -0.9392
  810MOL0     O 9250   7.870   9.276   7.783 -0.1327  0.4695  0.5787
  810MOL0     C 9251   7.863   9.362   7.898 -0.2122 -0.0048  0.0976
  810MOL0     C 9252   8.011   9.401   7.911 -0.1983 -0.4620  0.1356
  810MOL0     C 9253   8.071   9.460   7.783  0.1877 -0.3711  0.0900
  810MOL0     C 9254   8.207   9.520   7.813 -0.5859  0.3539  0.6503
  810MOL0     C 9255   8.282   9.566   7.691 -0.7565 -0.0542 -0.0694
  810MOL0     C 9256   8.423   9.619   7.726 -0.3483  0.0817  0.7486
  810MOL0     C 9257   8.429   9.722   7.838  0.3538  0.2234 -0.5101
  810MOL0     C 9258   8.569   9.772   7.857 -0.0701  1.1939 -0.3417
  810MOL0    Cl 9259   8.620   9.859   7.719 -0.6451 -0.1998 -0.0387
  810MOL0     C 9260   7.742   9.231   7.590 -0.4641  0.7320  0.0429
  810MOL0     C 9261   7.626   9.226   7.521  0.1163 -0.0703  0.2111
  810MOL0     O 9262   7.429   9.416   7.407  0.2043 -0.3839  0.0549
  810MOL0     C 9263   7.197   9.393   7.245  0.7672 -0.8131  0.0173
  810MOL0     C 9264   7.069   9.408   7.193  0.4591  0.2437  0.3889
  810MOL0     N 9265   6.577   9.753   7.749  0.7796  0.1363 -0.2567
  810MOL0     N 9266   6.468   9.800   7.791 -0.0262 -0.7615  0.0519
  810MOL0     C 9267   5.445   9.885   7.705  0.5395 -0.2289 -0.8662
  810MOL0     C 9268   5.341   9.791   7.724  0.3778  0.1715  0.9471
  810MOL0     C 9269   4.945   9.613   7.688  0.6717  0.2565 -0.1555
  810MOL0     C 9270   4.949   9.520   7.796  0.5754  0.1192 -0.3149
  810MOL0     C 9271   4.868   9.411   7.786  0.9763  0.4553 -0.0497
  810MOL0     C 9272   4.785   9.380   7.676  0.3930  0.1516  0.1620
  810MOL0     O 9273   4.717   9.264   7.673  0.0147  0.2485 -0.1136
  810MOL0     C 9274   4.626   9.215   7.576 -0.7742  0.8100  1.1436
  810MOL0     C 9275   4.479   9.251   7.604  0.0563 -0.2165  0.4027
  810MOL0     C 9276   4.376   9.181   7.499  0.9720  0.5650 -0.6446
  810MOL0     C 9277   4.251   9.140   7.570 -0.2225 -0.7111 -0.6001
  810MOL0     C 9278   4.154   9.082   7.481  0.2786  0.1162  0.4618
  810MOL0     C 9279   4.066   9.029   7.415  0.7066  0.2403 -0.0013
  810MOL0     C 9280   4.774   9.473   7.576 -0.2663  0.1861 -0.7925
  810MOL0     C 9281   4.852   9.590   7.573 -0.0655 -0.1189 -0.2348
  810MOL0     C 9282   4.851   9.681   7.453 -0.5250 -0.0111 -0.1345
  810MOL0     H 9283   5.129   9.967   7.907 -0.2684 -1.8002 -0.3070
  810MOL0     H 9284   5.326  10.126   7.918  1.7602 -2.6171  1.8292
  810MOL0     H 9285   5.499  10.253   7.808 -0.7005  0.7771  0.4113
  810MOL0     H 9286   5.563  10.168   7.949  3.6317  0.1316  0.9312
  810MOL0     H 9287   5.688  10.353   7.839 -3.3125 -0.9042  2.1174
  810MOL0     H 9288   5.711  10.268   7.692  0.0424  1.7769  0.6960
  810MOL0     H 9289   5.830  10.074   7.803 -2.3048 -0.0322 -1.0288
  810MOL0     H 9290   5.843  10.160   7.954  0.9693  0.4869  0.6218
  810MOL0     H 9291   5.923  10.275   7.676  0.1696 -3.0870  0.2587
  810MOL0     H 9292   5.961  10.357   7.825  1.3642 -0.1144 -1.0504
  810MOL0     H 9293   6.162  10.249   7.722  0.5488 -0.7122  0.3335
  810MOL0     H 9294   6.132  10.199   7.885 -0.3689 -0.0397 -0.4106
  810MOL0     H 9295   6.063   9.980   7.827  1.0607 -4.2469 -2.7878
  810MOL0     H 9296   6.029  10.037   7.654  0.5714  2.1942  0.0015
  810MOL0     H 9297   6.310  10.043   7.773  1.0750 -1.1472  0.1439
  810MOL0     H 9298   6.251  10.035   7.606 -2.2541 -0.7900 -0.8988
  810MOL0     H 9299   6.203   9.799   7.794  1.5614 -0.2704  1.6970
  810MOL0     H 9300   6.175   9.803   7.624 -3.1713  0.5001  2.6773
  810MOL0     H 9301   6.378   9.735   7.488 -0.7320  3.3582  0.6752
  810MOL0     H 9302   6.694   9.741   7.474  1.4950 -1.7272 -0.7540
  810MOL0     H 9303   6.758   9.628   7.606  0.0750 -3.0297 -0.5238
  810MOL0     H 9304   6.611   9.452   7.521  0.5590  1.2153  1.0477
  810MOL0     H 9305   6.540   9.554   7.406 -0.1328 -1.5074 -0.6282
  810MOL0     H 9306   6.846   9.475   7.431  2.0430  1.4679 -2.2605
  810MOL0     H 9307   6.807   9.590   7.313  1.5881  1.0394  3.3569
  810MOL0     H 9308   6.655   9.388   7.222 -1.3068 -1.2082  2.2202
  810MOL0     H 9309   6.729   9.293   7.347 -0.1837 -1.0328 -1.1427
  810MOL0     H 9310   6.903   9.185   7.360 -1.7640  4.6086  0.5317
  810MOL0     H 9311   7.138   9.155   7.473  2.2316  2.1082  0.4390
  810MOL0     H 9312   7.414   9.210   7.781 -1.7355 -0.4701 -3.3319
  810MOL0     H 9313   7.623   9.237   7.912 -1.7881  2.6949  0.4438
  810MOL0     H 9314   7.796   9.448   7.885  0.7233  1.1565  2.4256
  810MOL0     H 9315   7.841   9.298   7.984 -2.1655  0.7707  0.2326
  810MOL0     H 9316   8.021   9.470   7.996 -1.6981 -1.9802  1.6359
  810MOL0     H 9317   8.069   9.314   7.941 -1.3983 -0.3963  3.0569
  810MOL0     H 9318   8.086   9.381   7.709 -2.0408 -0.9764  0.2091
  810MOL0     H 9319   8.004   9.534   7.739  1.3776 -0.0537 -1.2633
  810MOL0     H 9320   8.277   9.443   7.846  2.4574  2.0821 -1.3081
  810MOL0     H 9321   8.186   9.598   7.887 -0.1368  0.0403  1.1117
  810MOL0     H 9322   8.216   9.637   7.642 -1.7132 -1.3010 -0.6421
  810MOL0     H 9323   8.288   9.474   7.632 -2.2139 -2.0007  2.6158
  810MOL0     H 9324   8.492   9.538   7.749  2.6961  1.8302 -1.5027
  810MOL0     H 9325   8.472   9.643   7.631  0.0979 -0.0889  0.9350
  810MOL0     H 9326   8.388   9.688   7.934  2.4647  2.6881  1.3907
  810MOL0     H 9327   8.356   9.799   7.811  0.7150  0.6386 -0.3102
  810MOL0     H 9328   8.577   9.839   7.943 -2.7829  0.3455  0.7095
  810MOL0     H 9329   8.638   9.688   7.869  1.0149  2.2029  0.6682
  810MOL0     H 9330   7.828   9.273   7.539 -1.1087  0.1891 -1.5707
  810MOL0     H 9331   7.643   9.235   7.414  0.4984  2.4053  0.4328
  810MOL0     H 9332   7.279   9.448   7.200 -0.4483 -0.8172 -2.3561
  810MOL0     H 9333   7.052   9.485   7.118 -1.7576 -0.7831 -0.2470
  810MOL0     H 9334   5.531   9.859   7.643  1.1289  0.5359 -0.3877
  810MOL0     H 9335   5.341   9.694   7.676 -2.7456  0.3799  0.3053
  810MOL0     H 9336   5.017   9.547   7.875  0.4549 -0.1271 -0.1260
  810MOL0     H 9337   4.871   9.345   7.872  0.0821  0.9027  0.3304
  810MOL0     H 9338   4.652   9.109   7.572  2.5855  1.5327 -0.3408
  810MOL0     H 9339   4.650   9.262   7.480 -1.3298  0.8000  0.9988
  810MOL0     H 9340   4.464   9.359   7.600 -0.7483 -0.2075  2.5606
  810MOL0     H 9341   4.456   9.225   7.707 -2.4356  1.2575  0.3027
  810MOL0     H 9342   4.424   9.089   7.464  2.6832 -0.1554  3.0641
  810MOL0     H 9343   4.352   9.243   7.413  1.5696  0.2410 -1.0555
  810MOL0     H 9344   4.274   9.070   7.652 -2.2723  1.7054  2.2717
  810MOL0     H 9345   4.219   9.234   7.616 -0.7171 -1.9679  1.7966
  810MOL0     H 9346   3.989   8.988   7.352 -2.9413  1.1710  3.4822
  810MOL0     H 9347   4.696   9.466   7.501 -1.5062  0.3367  0.4528
  810MOL0     H 9348   4.950   9.720   7.425 -0.2621 -0.9463 -0.5485
  810MOL0     H 9349   4.808   9.614   7.378  1.2030 -1.5954  0.1977
  810MOL0     H 9350   4.793   9.769   7.481  1.0771  1.5842 -1.5576
  811MOL0     O 9351  10.417   7.858   0.860 -0.1454  0.4830 -0.4579
  811MOL0     C 9352  10.385   7.940   0.772 -1.7810  0.1655  0.2339
  811MOL0     O 9353  10.466   7.980   0.668  0.0307 -0.1494 -0.2689
  811MOL0     C 9354  10.587   7.925   0.656 -0.5988 -0.9197  0.1470
  811MOL0     C 9355  10.693   8.001   0.704 -0.2892 -0.2866  0.5873
  811MOL0     C 9356  10.825   7.954   0.680 -0.4687 -0.0161 -0.1911
  811MOL0     C 9357  10.841   7.832   0.616 -0.6157 -0.0943  0.6272
  811MOL0     O 9358  10.965   7.793   0.586  0.7132 -0.3587 -0.5723
  811MOL0     C 9359  11.004   7.656   0.620 -0.4402 -0.0101 -0.4907
  811MOL0     C 9360  11.147   7.620   0.580 -0.1808 -0.7614  0.0203
  811MOL0     C 9361  11.248   7.694   0.673  0.0524  0.8177  0.4962
  811MOL0     C 9362  11.395   7.666   0.627  0.2899  0.0772 -0.2376
  811MOL0     C 9363  11.500   7.729   0.723 -0.3139 -0.0362  0.8653
  811MOL0     C 9364  11.566   7.854   0.660  1.1511  0.5805  0.9140
  811MOL0     C 9365  11.674   7.904   0.743 -0.4399  0.0235 -1.3447
  811MOL0     C 9366  11.655   7.905   0.893 -0.3256  0.5001 -0.0400
  811MOL0     N 9367  11.768   7.973   0.962 -0.0409 -0.6116  0.1951
  811MOL0     C 9368  11.902   7.977   0.916 -0.7662 -0.3425 -0.3622
  811MOL0     C 9369  11.967   8.065   0.996  0.8705  0.1219  0.0447
  811MOL0     C 9370  12.110   8.104   1.003 -0.4258 -0.9287  0.4078
  811MOL0     C 9371  12.183   7.991   1.064  0.1361 -0.2785 -0.2354
  811MOL0     C 9372  12.267   7.919   0.955  0.5652  0.3764 -0.3908
  811MOL0     C 9373  12.405   7.986   0.921  0.5991  0.0095 -0.9097
  811MOL0     O 9374  12.388   8.118   0.888  0.2694 -0.2708  1.3139
  811MOL0     C 9375  12.483   8.179   0.804 -0.0361  0.8249  0.3771
  811MOL0     C 9376  12.601   8.122   0.751  0.0853 -0.2581  0.1311
  811MOL0     C 9377  12.686   8.200   0.666  0.0540 -0.1824 -0.2617
  811MOL0     C 9378  12.658   8.336   0.638  0.1421  0.1324 -0.2600
  811MOL0     C 9379  12.743   8.427   0.550 -0.6582  0.3078  0.1032
  811MOL0     O 9380  12.842   8.368   0.463  0.1652  0.5006  0.1653
  811MOL0     C 9381  12.930   8.453   0.386  0.0879  0.4046  0.3856
  811MOL0     C 9382  13.066   8.422   0.374 -0.5254  0.9926 -0.2290
  811MOL0     C 9383  13.156   8.488   0.290  0.8665 -0.1517  0.3119
  811MOL0     C 9384  13.104   8.586   0.208  0.6939  0.2740  0.2813
  811MOL0     O 9385  13.184   8.634   0.106  0.4850  0.1057 -0.4800
  811MOL0     C 9386  13.243   8.539   0.021  0.4648 -0.8606  0.9892
  811MOL0     C 9387  13.296   8.624  -0.101 -0.1100  0.3829  0.2347
  811MOL0     C 9388  13.395   8.535  -0.176 -0.2330  0.3375  0.4086
  811MOL0     C 9389  13.533   8.539  -0.117 -0.9266  0.2053 -0.1995
  811MOL0     C 9390  13.617   8.439  -0.196 -0.1803 -0.5539  0.2428
  811MOL0     C 9391  13.771   8.455  -0.173 -0.2546 -0.0261  0.8958
  811MOL0     C 9392  13.835   8.565  -0.255 -0.2555  0.3281 -0.1341
  811MOL0     C 9393  13.956   8.626  -0.193  0.6253 -0.1153  0.8955
  811MOL0    Cl 9394  14.005   8.776  -0.279  0.0534  0.3632 -0.4634
  811MOL0     C 9395  12.968   8.628   0.218  0.7303 -0.3052 -0.0532
  811MOL0     C 9396  12.882   8.560   0.311  0.3780  0.3354  0.1270
  811MOL0     O 9397  12.728   8.552   0.559 -0.0915  0.2828  0.3554
  811MOL0     C 9398  12.544   8.386   0.697  0.4089  0.3636 -0.5311
  811MOL0     C 9399  12.452   8.304   0.770  0.1781  0.8179  0.0118
  811MOL0     N 9400  11.870   8.123   1.072 -0.0512  0.5732  0.2901
  811MOL0     N 9401  11.751   8.072   1.060  0.0041 -0.1432 -0.0068
  811MOL0     C 9402  10.727   7.755   0.571 -0.3872 -0.2199 -0.5950
  811MOL0     C 9403  10.599   7.809   0.584  0.0504 -0.0744 -0.4005
  811MOL0     C 9404  10.248   7.986   0.780 -1.4712  0.4412  0.1418
  811MOL0     C 9405  10.188   7.992   0.903 -0.0162  0.1642  0.4284
  811MOL0     C 9406  10.057   8.040   0.915 -0.5083  0.7022 -0.9277
  811MOL0     C 9407   9.982   8.080   0.809 -0.6140  0.1857 -0.3785
  811MOL0     O 9408   9.850   8.113   0.829  0.6810 -0.5344  0.4099
  811MOL0     C 9409   9.759   8.152   0.719  0.6068  0.3484 -0.7539
  811MOL0     C 9410   9.632   8.207   0.779 -0.0518  0.7304  0.0642
  811MOL0     C 9411   9.546   8.091   0.843  0.1878 -1.7809  0.4840
  811MOL0     C 9412   9.419   8.153   0.900 -0.5460  0.0418  0.4539
  811MOL0     C 9413   9.328   8.050   0.951 -0.8700 -0.2910 -0.2524
  811MOL0     C 9414   9.271   7.960   1.012 -0.2591 -0.0779 -0.2325
  811MOL0     C 9415  10.043   8.063   0.682  0.4922 -0.4098 -0.7241
  811MOL0     C 9416  10.172   8.011   0.664  0.4206 -1.4464  0.9118
  811MOL0     C 9417  10.218   7.992   0.528  0.1925  0.2707  0.0821
  811MOL0     H 9418  10.676   8.092   0.760 -0.2872 -0.5422  1.0010
  811MOL0     H 9419  10.916   8.011   0.692 -0.3228  0.0208 -1.3261
  811MOL0     H 9420  10.988   7.639   0.727  0.6327  1.0439 -0.1495
  811MOL0     H 9421  10.938   7.582   0.572 -0.5260  0.2475 -0.7737
  811MOL0     H 9422  11.150   7.662   0.479  0.7369 -0.3706  0.1911
  811MOL0     H 9423  11.160   7.512   0.579  1.7327 -0.5694 -0.7885
  811MOL0     H 9424  11.228   7.661   0.775  1.8923 -0.9306  0.3502
  811MOL0     H 9425  11.230   7.801   0.655 -0.6211  0.2846 -2.7446
  811MOL0     H 9426  11.416   7.558   0.629 -1.8700 -0.5703 -4.0296
  811MOL0     H 9427  11.402   7.700   0.524 -0.9205  0.4594 -0.1992
  811MOL0     H 9428  11.455   7.755   0.819 -0.9571 -1.2511  0.9087
  811MOL0     H 9429  11.584   7.661   0.742  0.5486 -0.0162 -2.2508
  811MOL0     H 9430  11.610   7.839   0.561 -1.3250 -0.1393 -0.1542
  811MOL0     H 9431  11.489   7.929   0.636 -1.6285 -1.8745  1.5821
  811MOL0     H 9432  11.697   8.005   0.707 -0.0864 -0.0067 -1.2021
  811MOL0     H 9433  11.763   7.845   0.721  2.8383  3.9421  0.0834
  811MOL0     H 9434  11.564   7.960   0.919 -0.7194 -0.3589  0.4316
  811MOL0     H 9435  11.636   7.803   0.928 -2.2185 -0.3429 -3.0985
  811MOL0     H 9436  11.944   7.915   0.837 -0.1433 -1.1207  0.5500
  811MOL0     H 9437  12.145   8.128   0.903 -2.8128  1.0380 -0.0305
  811MOL0     H 9438  12.127   8.188   1.071 -1.1049 -0.1525 -0.3745
  811MOL0     H 9439  12.239   8.034   1.148 -0.9896 -0.8870  0.8551
  811MOL0     H 9440  12.119   7.913   1.106  0.6518  1.1147  3.5455
  811MOL0     H 9441  12.217   7.900   0.860  0.8004 -1.3794 -0.2034
  811MOL0     H 9442  12.293   7.819   0.992 -2.2668 -0.2580  0.1544
  811MOL0     H 9443  12.448   7.918   0.847 -4.1186 -0.7870 -3.3025
  811MOL0     H 9444  12.463   7.983   1.014 -0.0297  2.2155 -0.3798
  811MOL0     H 9445  12.613   8.018   0.781 -1.3284  0.1383  2.3413
  811MOL0     H 9446  12.781   8.162   0.630  1.6138  3.3188 -0.3345
  811MOL0     H 9447  13.100   8.340   0.436  0.0657  0.3492 -1.3666
  811MOL0     H 9448  13.263   8.481   0.273  0.9520  2.2599 -0.5124
  811MOL0     H 9449  13.323   8.479   0.065  0.2491 -2.3836 -0.5548
  811MOL0     H 9450  13.168   8.468  -0.015  1.7846 -1.2160 -1.2959
  811MOL0     H 9451  13.208   8.655  -0.158 -0.4856  0.7805  1.0173
  811MOL0     H 9452  13.351   8.711  -0.064 -0.1399  1.1911 -1.5392
  811MOL0     H 9453  13.351   8.435  -0.187 -0.6125  0.4428  0.8957
  811MOL0     H 9454  13.400   8.574  -0.278  0.1238  1.0046  0.6724
  811MOL0     H 9455  13.536   8.527  -0.008 -0.8604 -0.4623 -0.2706
  811MOL0     H 9456  13.567   8.640  -0.144 -1.8520 -0.2782 -3.6781
  811MOL0     H 9457  13.592   8.467  -0.299 -2.2685  0.7154  1.0295
  811MOL0     H 9458  13.569   8.343  -0.177  0.4680 -0.7796  0.7793
  811MOL0     H 9459  13.783   8.472  -0.066 -0.1421 -0.7343  1.0012
  811MOL0     H 9460  13.824   8.365  -0.204  0.3441  1.0517 -1.4681
  811MOL0     H 9461  13.762   8.645  -0.270 -1.6539 -0.8020  0.4071
  811MOL0     H 9462  13.863   8.524  -0.353  1.1596 -1.7731  1.0600
  811MOL0     H 9463  13.938   8.658  -0.090 -1.2989  1.0753  0.2455
  811MOL0     H 9464  14.031   8.549  -0.211 -1.2081 -1.5415 -1.2068
  811MOL0     H 9465  12.924   8.703   0.152 -0.2907  0.6778  1.6804
  811MOL0     H 9466  12.775   8.580   0.318 -0.2676 -1.9563 -1.6514
  811MOL0     H 9467  12.515   8.490   0.687 -0.9126 -0.1453 -2.7152
  811MOL0     H 9468  12.366   8.351   0.816  0.2450 -1.0066  2.2065
  811MOL0     H 9469  10.731   7.660   0.518 -2.5273  1.0798 -3.3692
  811MOL0     H 9470  10.522   7.758   0.528  1.0008  2.1985 -4.1006
  811MOL0     H 9471  10.239   7.954   0.991 -0.2768 -0.4069  0.3403
  811MOL0     H 9472  10.016   8.037   1.015  1.0193 -0.7232 -0.2956
  811MOL0     H 9473   9.733   8.075   0.646  0.2501  2.3200 -2.8445
  811MOL0     H 9474   9.804   8.225   0.651  1.5879 -1.8731 -2.6271
  811MOL0     H 9475   9.575   8.256   0.699  0.7840 -0.1388 -1.0918
  811MOL0     H 9476   9.670   8.274   0.857 -0.8361  0.1424  0.9730
  811MOL0     H 9477   9.604   8.041   0.920  2.0998 -0.8644 -0.2900
  811MOL0     H 9478   9.522   8.014   0.769  4.0327 -2.7984  0.0857
  811MOL0     H 9479   9.436   8.220   0.985  0.3616  2.2622 -1.3660
  811MOL0     H 9480   9.370   8.211   0.822 -1.0747 -1.1100 -0.1034
  811MOL0     H 9481   9.230   7.883   1.075  3.8444 -1.3146  1.2290
  811MOL0     H 9482   9.984   8.095   0.596  1.7204  0.3560 -1.3059
  811MOL0     H 9483  10.128   7.978   0.467  0.9227 -1.3740 -0.6706
  811MOL0     H 9484  10.289   8.070   0.499  0.7651 -0.0769  0.5460
  811MOL0     H 9485  10.268   7.895   0.519 -1.0838 -0.6984  2.5489
  812MOL0     O 9486   7.743   5.173   4.582 -0.3262  0.4351 -0.4362
  812MOL0     C 9487   7.689   5.105   4.665 -0.1156  0.2913 -0.3202
  812MOL0     O 9488   7.749   5.031   4.760  0.1005  0.2742  0.0387
  812MOL0     C 9489   7.881   5.051   4.791 -0.3271  0.3169 -0.4623
  812MOL0     C 9490   7.920   5.072   4.925  0.4708 -0.1994 -0.0623
  812MOL0     C 9491   8.050   5.099   4.953 -0.5909 -0.9686  0.3538
  812MOL0     C 9492   8.150   5.090   4.859  0.2786  0.1932  0.3449
  812MOL0     O 9493   8.277   5.087   4.902 -1.3883  0.2564 -0.2738
  812MOL0     C 9494   8.386   5.040   4.817 -0.2971  0.7464  0.2301
  812MOL0     C 9495   8.503   4.999   4.910 -0.8427 -0.2104 -0.3015
  812MOL0     C 9496   8.555   5.109   4.991 -0.3124 -0.1098 -1.4440
  812MOL0     C 9497   8.604   5.229   4.904 -0.1667  0.3433 -1.1434
  812MOL0     C 9498   8.616   5.356   4.987  0.6177  0.5320  0.5008
  812MOL0     C 9499   8.653   5.481   4.911  0.0956  0.3767  0.1008
  812MOL0     C 9500   8.806   5.486   4.880 -0.2088 -0.0588  0.6429
  812MOL0     C 9501   8.885   5.464   5.010 -1.4217 -0.0067 -1.0251
  812MOL0     N 9502   9.025   5.473   4.969  0.4510  0.5728  0.3668
  812MOL0     C 9503   9.104   5.581   4.998  0.7980 -0.6600  0.0737
  812MOL0     C 9504   9.230   5.538   4.986  0.5564 -0.0035 -0.7454
  812MOL0     C 9505   9.345   5.629   5.008 -0.9605 -0.0974 -0.4064
  812MOL0     C 9506   9.400   5.657   5.148  0.5769  0.5626  0.7800
  812MOL0     C 9507   9.527   5.743   5.133 -0.1533 -0.6984  0.5600
  812MOL0     C 9508   9.620   5.757   5.252  0.8790 -0.4359  0.1376
  812MOL0     O 9509   9.743   5.812   5.203 -0.1744 -0.0342 -0.5336
  812MOL0     C 9510   9.825   5.867   5.296 -0.3363 -0.5744  0.0267
  812MOL0     C 9511   9.796   5.912   5.426 -0.3951  0.5686  0.1839
  812MOL0     C 9512   9.893   5.974   5.507 -0.2395  0.1327  0.5260
  812MOL0     C 9513  10.025   6.005   5.452  0.7347  0.1370  0.0574
  812MOL0     C 9514  10.130   6.060   5.533 -1.2173 -0.8911 -0.6395
  812MOL0     O 9515  10.245   6.091   5.470  0.2363 -0.3947 -0.7927
  812MOL0     C 9516  10.324   6.184   5.532  0.6253 -0.2391  0.0794
  812MOL0     C 9517  10.417   6.136   5.618  0.1130 -0.4168  0.0412
  812MOL0     C 9518  10.511   6.228   5.673  0.6561  0.1177  0.2231
  812MOL0     C 9519  10.497   6.367   5.657 -0.1852  1.2596  0.2024
  812MOL0     O 9520  10.593   6.443   5.723 -0.5517 -0.3831  0.4503
  812MOL0     C 9521  10.618   6.580   5.685 -0.4191  0.0176  0.3356
  812MOL0     C 9522  10.729   6.580   5.581  0.2883  0.7112 -0.6374
  812MOL0     C 9523  10.869   6.540   5.625 -0.6428 -0.6483 -0.2702
  812MOL0     C 9524  10.915   6.590   5.765  0.4426  0.1591  0.0142
  812MOL0     C 9525  11.064   6.593   5.775 -0.2617  0.7852  0.3999
  812MOL0     C 9526  11.100   6.654   5.915 -0.5820  0.1225 -0.9018
  812MOL0     C 9527  11.260   6.663   5.926  0.7829 -0.0187  0.6128
  812MOL0     C 9528  11.299   6.696   6.066 -0.9836  0.1083 -0.2296
  812MOL0    Cl 9529  11.217   6.839   6.122  0.2821 -0.3315  0.0208
  812MOL0     C 9530  10.389   6.408   5.568  0.1685  0.3529  0.1486
  812MOL0     C 9531  10.311   6.319   5.504 -0.6266  0.2995 -0.4930
  812MOL0     O 9532  10.110   6.087   5.650  0.1872  0.3631  0.3603
  812MOL0     C 9533  10.051   5.967   5.323 -0.8449  0.0118 -0.5732
  812MOL0     C 9534   9.958   5.904   5.248 -0.9918 -0.8715 -0.4402
  812MOL0     N 9535   9.232   5.404   4.962  0.7584 -0.0807  0.0256
  812MOL0     N 9536   9.109   5.367   4.947  0.1893 -0.2042  0.2931
  812MOL0     C 9537   8.112   5.044   4.736 -0.0717 -0.6696 -0.6297
  812MOL0     C 9538   7.978   5.030   4.695  0.5042  1.3617 -0.8212
  812MOL0     C 9539   7.539   5.098   4.663 -0.7713 -0.1055 -0.2599
  812MOL0     C 9540   7.468   5.207   4.592  0.3552 -0.1647  0.1565
  812MOL0     C 9541   7.329   5.209   4.581  0.3843  0.2515 -0.7666
  812MOL0     C 9542   7.259   5.102   4.640  0.2023  0.9294  0.3908
  812MOL0     O 9543   7.125   5.084   4.615 -0.1286 -0.4675 -1.1932
  812MOL0     C 9544   7.053   5.168   4.526  0.4110  0.4170  0.3158
  812MOL0     C 9545   6.904   5.130   4.520 -0.2358  0.3565  1.3129
  812MOL0     C 9546   6.824   5.223   4.436 -0.2207 -0.9896  0.9922
  812MOL0     C 9547   6.675   5.194   4.445 -0.7398 -0.3674  0.6409
  812MOL0     C 9548   6.632   5.057   4.392 -0.1887 -1.0470 -0.4088
  812MOL0     C 9549   6.590   4.951   4.353 -0.4540  0.4283  0.6128
  812MOL0     C 9550   7.326   4.995   4.705  0.0037 -0.5251 -0.9664
  812MOL0     C 9551   7.461   4.996   4.717 -0.5277 -0.0740  0.7361
  812MOL0     C 9552   7.516   4.876   4.788 -0.0738 -0.2073  0.6608
  812MOL0     H 9553   7.845   5.082   5.003  0.1839 -4.4549  0.4230
  812MOL0     H 9554   8.073   5.108   5.059  1.1386 -1.0767  0.0059
  812MOL0     H 9555   8.365   4.948   4.762  1.0757  0.4070  0.2298
  812MOL0     H 9556   8.404   5.126   4.752  2.7544  1.1311  1.4243
  812MOL0     H 9557   8.585   4.963   4.848  0.0644 -1.0495  1.3249
  812MOL0     H 9558   8.465   4.921   4.977 -0.4692 -0.6314 -0.5796
  812MOL0     H 9559   8.635   5.080   5.060  0.7796  4.3295 -0.5396
  812MOL0     H 9560   8.477   5.141   5.061 -2.3763 -2.0349 -2.7219
  812MOL0     H 9561   8.700   5.207   4.857  1.1181  0.7090  1.1218
  812MOL0     H 9562   8.542   5.262   4.820 -1.1758 -1.6872 -1.2407
  812MOL0     H 9563   8.516   5.387   5.017 -0.5424 -0.5958 -1.9182
  812MOL0     H 9564   8.682   5.332   5.071  0.3601 -1.8054  0.1184
  812MOL0     H 9565   8.599   5.486   4.816 -0.2377  2.2810  0.3432
  812MOL0     H 9566   8.626   5.569   4.971  1.2214  1.9960 -1.6443
  812MOL0     H 9567   8.825   5.588   4.847 -0.8432  0.5541  2.0995
  812MOL0     H 9568   8.827   5.415   4.799 -0.5525  0.5932 -0.0253
  812MOL0     H 9569   8.864   5.543   5.083 -1.5718 -2.4608  1.7262
  812MOL0     H 9570   8.863   5.364   5.047  2.0145 -1.0011 -1.2990
  812MOL0     H 9571   9.063   5.674   5.034 -0.0006 -1.4859  1.3736
  812MOL0     H 9572   9.421   5.588   4.940 -1.5804  1.8295 -2.3431
  812MOL0     H 9573   9.324   5.726   4.962  2.2846  0.2024 -1.5392
  812MOL0     H 9574   9.330   5.707   5.215  0.2401  2.4728 -0.9149
  812MOL0     H 9575   9.424   5.562   5.196  0.7922 -0.2366 -0.8395
  812MOL0     H 9576   9.499   5.841   5.093  3.8708 -0.4447 -2.1929
  812MOL0     H 9577   9.594   5.711   5.052  2.3075  1.6197  1.5397
  812MOL0     H 9578   9.639   5.659   5.297 -2.2667 -0.9525  0.5324
  812MOL0     H 9579   9.573   5.830   5.319  0.1996  1.8497 -2.5990
  812MOL0     H 9580   9.695   5.894   5.460 -0.0911  0.9580  1.3139
  812MOL0     H 9581   9.859   5.999   5.607 -2.5251  0.1576 -0.2004
  812MOL0     H 9582  10.423   6.028   5.629 -0.1447 -0.4172  0.1948
  812MOL0     H 9583  10.591   6.181   5.729 -0.6664 -2.4723  0.1076
  812MOL0     H 9584  10.524   6.624   5.651 -0.1862  1.0152  0.9113
  812MOL0     H 9585  10.638   6.647   5.770  0.8093 -0.4282  0.4169
  812MOL0     H 9586  10.704   6.507   5.504  1.4274  2.1325 -2.4469
  812MOL0     H 9587  10.741   6.677   5.531  1.6750 -0.9074 -3.7438
  812MOL0     H 9588  10.885   6.433   5.616  2.3909 -0.2782 -0.5926
  812MOL0     H 9589  10.934   6.593   5.553  0.6631 -1.0935  0.5374
  812MOL0     H 9590  10.869   6.536   5.848  1.9011  0.8474  1.3431
  812MOL0     H 9591  10.881   6.694   5.772  0.8326  0.2280  1.0175
  812MOL0     H 9592  11.115   6.660   5.706  1.0411  0.9277  1.4548
  812MOL0     H 9593  11.103   6.492   5.763 -0.6392  0.6840 -0.0163
  812MOL0     H 9594  11.046   6.748   5.917  0.4454  0.8554  3.6875
  812MOL0     H 9595  11.063   6.593   5.998  1.6305  1.0789  0.8909
  812MOL0     H 9596  11.295   6.754   5.876 -2.4725  1.4237  0.6327
  812MOL0     H 9597  11.301   6.569   5.887 -0.1880  0.3778 -1.5502
  812MOL0     H 9598  11.268   6.621   6.140 -0.6256 -0.5334 -0.7171
  812MOL0     H 9599  11.405   6.721   6.068 -0.0292 -3.1573 -2.0053
  812MOL0     H 9600  10.377   6.515   5.555  2.1273  0.5905 -0.0149
  812MOL0     H 9601  10.241   6.367   5.436  1.4778  6.6671  1.2231
  812MOL0     H 9602  10.146   5.975   5.271 -1.5344  1.3125 -1.7267
  812MOL0     H 9603   9.983   5.885   5.144  0.4840  0.4793 -0.3724
  812MOL0     H 9604   8.178   5.015   4.654  2.3194  2.0312  0.2021
  812MOL0     H 9605   7.955   4.989   4.598  4.4713 -0.3688 -1.2212
  812MOL0     H 9606   7.520   5.292   4.550  1.7265 -0.1616  1.7233
  812MOL0     H 9607   7.281   5.291   4.530 -2.0086 -2.0199 -2.3772
  812MOL0     H 9608   7.090   5.170   4.423 -2.1322 -1.7186 -0.7639
  812MOL0     H 9609   7.056   5.268   4.569 -0.0327  1.1044 -1.1616
  812MOL0     H 9610   6.860   5.129   4.621 -0.8155 -2.1740  1.1157
  812MOL0     H 9611   6.899   5.032   4.470  1.2399  2.7560 -4.2469
  812MOL0     H 9612   6.850   5.213   4.330 -0.7756 -3.7817  1.0439
  812MOL0     H 9613   6.844   5.329   4.452  1.9671 -1.1339 -0.3828
  812MOL0     H 9614   6.636   5.210   4.545  2.8129  0.6181  2.0320
  812MOL0     H 9615   6.638   5.273   4.379 -0.5858 -0.6735  0.1830
  812MOL0     H 9616   6.575   4.853   4.311  0.2356  0.7800 -0.5241
  812MOL0     H 9617   7.265   4.919   4.755 -3.0883  0.0228 -3.5627
  812MOL0     H 9618   7.547   4.910   4.887 -2.0957  0.9755  0.9310
  812MOL0     H 9619   7.441   4.797   4.784 -0.6689  0.3800 -2.6827
  812MOL0     H 9620   7.603   4.835   4.735 -1.9561 -0.9633 -2.0710
  813MOL0     O 9621   4.804   9.111  10.502  0.7443 -0.8036  0.5245
  813MOL0     C 9622   4.693   9.094  10.453  1.1226  1.4876  0.3493
  813MOL0     O 9623   4.673   9.060  10.317  0.1924 -0.2832 -1.0410
  813MOL0     C 9624   4.776   9.067  10.226  0.5324 -0.4618 -0.2894
  813MOL0     C 9625   4.883   9.155  10.223  0.2924 -0.9790 -0.3929
  813MOL0     C 9626   4.960   9.169  10.104  0.4848 -0.1838 -0.3873
  813MOL0     C 9627   4.934   9.093   9.992 -0.4123  0.7014 -0.0089
  813MOL0     O 9628   5.017   9.107   9.885 -0.3868 -0.8354 -0.3167
  813MOL0     C 9629   5.146   9.057   9.899 -1.2912  0.0374 -0.0829
  813MOL0     C 9630   5.138   8.905   9.876  0.5976  0.4396 -0.1102
  813MOL0     C 9631   5.264   8.833   9.830 -0.2120 -0.9304 -1.1512
  813MOL0     C 9632   5.370   8.840   9.941 -0.2717  0.0005 -0.1001
  813MOL0     C 9633   5.474   8.730   9.930 -0.7116 -0.1889  0.2433
  813MOL0     C 9634   5.563   8.751   9.807  0.0613 -0.1470 -0.3044
  813MOL0     C 9635   5.706   8.704   9.840 -0.5728 -0.1587  0.3242
  813MOL0     C 9636   5.790   8.698   9.707  0.1297 -0.0626  0.5664
  813MOL0     N 9637   5.940   8.693   9.736  0.8283 -0.2314  0.2012
  813MOL0     C 9638   6.003   8.625   9.837  0.2230 -0.4660 -0.4910
  813MOL0     C 9639   6.133   8.660   9.821 -0.1022  0.8612  0.2470
  813MOL0     C 9640   6.247   8.614   9.911  0.2157 -0.2286  0.2814
  813MOL0     C 9641   6.310   8.485   9.855  1.2383  0.0416  0.3313
  813MOL0     C 9642   6.421   8.427   9.941  0.5617  0.1316 -0.1823
  813MOL0     C 9643   6.532   8.525   9.988 -0.4482  0.4742 -0.5664
  813MOL0     O 9644   6.600   8.581   9.871 -0.6551 -0.4471 -0.7632
  813MOL0     C 9645   6.728   8.639   9.881  0.0856  0.4448  0.0533
  813MOL0     C 9646   6.789   8.690  10.000  0.9887  0.1579 -0.8911
  813MOL0     C 9647   6.912   8.755   9.996 -0.7189 -0.6541  0.0263
  813MOL0     C 9648   6.988   8.759   9.874 -0.3213  0.2843  0.2872
  813MOL0     C 9649   7.121   8.826   9.869  0.4107  0.3587  0.6372
  813MOL0     O 9650   7.187   8.833   9.755  0.3697 -0.3060 -0.1368
  813MOL0     C 9651   7.304   8.904   9.738  0.7628  0.2305  0.3383
  813MOL0     C 9652   7.431   8.840   9.737  0.1129 -0.5945 -0.1921
  813MOL0     C 9653   7.540   8.916   9.708  0.0557 -0.3522  0.4931
  813MOL0     C 9654   7.532   9.048   9.693 -0.7060 -0.8169 -0.1936
  813MOL0     O 9655   7.652   9.108   9.684  0.0405  0.6669  0.3077
  813MOL0     C 9656   7.687   9.223   9.748  0.0506  0.2083 -0.4010
  813MOL0     C 9657   7.704   9.345   9.653 -0.0905 -0.0618  0.6113
  813MOL0     C 9658   7.839   9.350   9.576 -0.1452  0.1844  0.3403
  813MOL0     C 9659   7.858   9.452   9.459  1.0613  0.4686  0.1735
  813MOL0     C 9660   7.991   9.448   9.386 -0.6209  0.7475  0.0819
  813MOL0     C 9661   8.115   9.481   9.472 -0.1872  0.4603 -0.4797
  813MOL0     C 9662   8.240   9.499   9.398 -0.7454  0.8148  0.0158
  813MOL0     C 9663   8.349   9.538   9.489 -0.1993 -0.3820 -0.3327
  813MOL0    Cl 9664   8.495   9.567   9.380  0.1067 -0.2865  0.1529
  813MOL0     C 9665   7.405   9.113   9.694  0.2376  0.1983 -0.5785
  813MOL0     C 9666   7.289   9.037   9.710  0.5993  0.2278 -0.8379
  813MOL0     O 9667   7.170   8.876   9.968 -0.2778 -0.3728 -0.5164
  813MOL0     C 9668   6.923   8.721   9.759 -0.5608  0.4255  0.5051
  813MOL0     C 9669   6.793   8.655   9.761 -0.7975 -0.2999  0.5648
  813MOL0     N 9670   6.153   8.758   9.713  1.4513 -0.4038 -0.2643
  813MOL0     N 9671   6.034   8.766   9.660  0.2927  0.4393  0.1409
  813MOL0     C 9672   4.830   9.002  10.000 -0.2124  1.4892  0.1181
  813MOL0     C 9673   4.745   8.990  10.110  0.6155 -0.4888  0.0709
  813MOL0     C 9674   4.571   9.087  10.538  0.3765  0.8627  1.0644
  813MOL0     C 9675   4.458   9.018  10.480 -1.1287 -0.0679 -0.3041
  813MOL0     C 9676   4.336   9.022  10.543  0.6545  0.2160  0.0402
  813MOL0     C 9677   4.316   9.090  10.656  0.7575 -0.4864 -0.6940
  813MOL0     O 9678   4.193   9.077  10.707 -0.6386 -0.3188  0.1971
  813MOL0     C 9679   4.162   9.192  10.779 -0.4283 -0.0161  0.1541
  813MOL0     C 9680   4.013   9.194  10.813  0.4246  0.1354  0.3581
  813MOL0     C 9681   3.969   9.065  10.883  0.5460 -1.0402 -0.0947
  813MOL0     C 9682   3.812   9.036  10.879  0.0342 -0.7316 -0.2353
  813MOL0     C 9683   3.761   8.959  10.759 -0.4695 -0.4472  0.4981
  813MOL0     C 9684   3.727   8.898  10.658  0.3529  0.0934 -0.1170
  813MOL0     C 9685   4.427   9.149  10.724 -0.2683  0.3034 -0.1273
  813MOL0     C 9686   4.552   9.156  10.657 -0.0143 -0.8069 -0.2150
  813MOL0     C 9687   4.646   9.266  10.713 -0.1592  0.2196 -0.5497
  813MOL0     H 9688   4.904   9.218  10.309  1.4683 -1.3472 -0.3920
  813MOL0     H 9689   5.037   9.244  10.093 -2.3506  2.8364 -1.2453
  813MOL0     H 9690   5.203   9.110   9.823 -1.7782  0.7683  0.0556
  813MOL0     H 9691   5.201   9.085   9.989  0.7991 -0.5769 -1.1065
  813MOL0     H 9692   5.074   8.879   9.791 -0.0292 -1.4230  0.8611
  813MOL0     H 9693   5.100   8.862   9.969 -1.2516  2.0684 -0.0386
  813MOL0     H 9694   5.307   8.897   9.753  1.0647  1.5637  1.4746
  813MOL0     H 9695   5.253   8.728   9.800 -2.1439 -0.6003 -1.7397
  813MOL0     H 9696   5.406   8.943   9.943 -3.2044  1.2438 -2.7424
  813MOL0     H 9697   5.329   8.826  10.042  1.7108 -1.4313  0.5520
  813MOL0     H 9698   5.537   8.751  10.018 -1.1823  2.4200  0.0385
  813MOL0     H 9699   5.420   8.635   9.933 -3.8643  1.4003 -1.7585
  813MOL0     H 9700   5.530   8.687   9.725 -0.1290  0.2964 -0.5785
  813MOL0     H 9701   5.558   8.854   9.771  1.4539 -0.2378 -0.8247
  813MOL0     H 9702   5.705   8.606   9.887 -0.8308  0.0293  0.7152
  813MOL0     H 9703   5.763   8.781   9.893  2.9772 -1.8426 -0.7159
  813MOL0     H 9704   5.754   8.625   9.634  0.9102 -0.5651  0.6734
  813MOL0     H 9705   5.774   8.786   9.643 -1.7273 -0.3265  0.6057
  813MOL0     H 9706   5.963   8.562   9.917  0.5612 -0.2794 -0.1702
  813MOL0     H 9707   6.328   8.687   9.917 -0.3667  0.6320 -1.5364
  813MOL0     H 9708   6.222   8.591  10.015  3.2597  0.5880  1.2921
  813MOL0     H 9709   6.236   8.405   9.842  2.4498 -0.9077 -1.0809
  813MOL0     H 9710   6.343   8.520   9.757 -0.2055  1.1230  0.2114
  813MOL0     H 9711   6.468   8.336   9.902 -1.7839 -0.1462 -2.6384
  813MOL0     H 9712   6.361   8.380  10.020  0.0072 -3.1739 -2.3550
  813MOL0     H 9713   6.600   8.475  10.058  0.9949  2.1590 -0.6842
  813MOL0     H 9714   6.509   8.609  10.054  3.8291  0.2321  1.6047
  813MOL0     H 9715   6.745   8.673  10.098  0.2592 -4.9140 -1.8407
  813MOL0     H 9716   6.968   8.785  10.085  0.9364  0.3131 -1.2787
  813MOL0     H 9717   7.447   8.734   9.756 -0.8308 -0.3445  2.3677
  813MOL0     H 9718   7.633   8.860   9.700 -0.5797 -1.4130  0.4980
  813MOL0     H 9719   7.624   9.250   9.834  2.3598 -1.3291  1.9247
  813MOL0     H 9720   7.780   9.190   9.796 -0.0189 -1.9626 -1.6621
  813MOL0     H 9721   7.629   9.344   9.574  0.1735 -0.9506  0.3623
  813MOL0     H 9722   7.692   9.433   9.717 -2.3103 -0.6563  1.0835
  813MOL0     H 9723   7.928   9.360   9.639  2.7835 -2.3474 -3.0483
  813MOL0     H 9724   7.844   9.251   9.530 -0.4311 -1.1825  3.0363
  813MOL0     H 9725   7.851   9.551   9.506 -4.2657  1.6584 -2.3836
  813MOL0     H 9726   7.766   9.441   9.400  1.9779 -2.8960 -0.8524
  813MOL0     H 9727   7.999   9.523   9.307  1.0756  0.1400 -0.3556
  813MOL0     H 9728   8.008   9.346   9.351  2.3468  0.9904  0.6162
  813MOL0     H 9729   8.082   9.565   9.533 -1.8722 -0.3529 -0.2252
  813MOL0     H 9730   8.133   9.392   9.533 -0.8854 -0.8861 -2.1565
  813MOL0     H 9731   8.229   9.586   9.332  2.7413 -0.7824 -2.9911
  813MOL0     H 9732   8.260   9.407   9.342  0.8876  1.6011 -0.7736
  813MOL0     H 9733   8.330   9.635   9.536  4.5893  0.6064  0.0747
  813MOL0     H 9734   8.379   9.457   9.556  1.4178 -0.7404 -1.4366
  813MOL0     H 9735   7.404   9.219   9.673 -4.5778  0.3512 -0.7954
  813MOL0     H 9736   7.196   9.092   9.714  0.5616  0.0730  1.1019
  813MOL0     H 9737   6.956   8.734   9.656 -5.4938  3.4744 -1.0618
  813MOL0     H 9738   6.753   8.621   9.666  2.2780  1.1067 -1.3889
  813MOL0     H 9739   4.819   8.933   9.917  2.5406  2.5387 -1.2855
  813MOL0     H 9740   4.655   8.929  10.107  1.2057 -1.3637 -0.3262
  813MOL0     H 9741   4.476   8.966  10.387 -1.4784  1.1002 -1.0497
  813MOL0     H 9742   4.254   8.969  10.496  0.9858 -0.2934  0.0192
  813MOL0     H 9743   4.181   9.284  10.723 -0.5786  0.3348  0.6731
  813MOL0     H 9744   4.223   9.196  10.869  1.0057 -0.3217 -0.7736
  813MOL0     H 9745   3.956   9.217  10.723  3.2188 -2.0774 -2.1495
  813MOL0     H 9746   3.986   9.279  10.878  0.1750  0.0060  0.4263
  813MOL0     H 9747   3.992   9.076  10.989 -0.4061  1.5935 -0.1068
  813MOL0     H 9748   4.024   8.975  10.852  0.9643 -0.3462 -1.4308
  813MOL0     H 9749   3.793   8.967  10.963  0.1436 -2.5786 -1.6568
  813MOL0     H 9750   3.759   9.131  10.888  0.2553 -0.5626 -0.7223
  813MOL0     H 9751   3.679   8.857  10.572 -0.1636 -0.4683  0.4297
  813MOL0     H 9752   4.412   9.181  10.826 -3.3903 -2.9342  0.6276
  813MOL0     H 9753   4.581   9.339  10.761 -0.6632  2.6761 -4.5060
  813MOL0     H 9754   4.713   9.215  10.783 -3.1810 -2.6101  0.5271
  813MOL0     H 9755   4.702   9.316  10.634  0.7950 -0.0166 -0.0383
  814MOL0     O 9756   4.916   6.329   2.306 -0.6139  0.1072 -0.4153
  814MOL0     C 9757   4.843   6.227   2.334 -1.2505 -0.5952  0.5917
  814MOL0     O 9758   4.894   6.113   2.390  0.4460  0.0218 -0.4738
  814MOL0     C 9759   5.028   6.118   2.430  0.0382 -0.1883  0.0455
  814MOL0     C 9760   5.076   6.186   2.542 -0.3475 -0.5107 -0.3280
  814MOL0     C 9761   5.215   6.189   2.567 -0.3512 -0.5544  0.4374
  814MOL0     C 9762   5.307   6.119   2.484  0.1611 -0.3202 -0.0335
  814MOL0     O 9763   5.440   6.133   2.487  0.4171  0.7235  0.0374
  814MOL0     C 9764   5.493   6.066   2.598 -0.0272 -0.3872 -0.2027
  814MOL0     C 9765   5.610   5.984   2.552 -0.3023  0.7166 -0.0821
  814MOL0     C 9766   5.734   6.066   2.591  0.2298 -0.4312  0.2213
  814MOL0     C 9767   5.865   6.008   2.527 -0.3607 -0.6825 -0.8865
  814MOL0     C 9768   5.991   6.102   2.549  0.7045 -0.0658 -0.2640
  814MOL0     C 9769   6.112   6.014   2.539 -0.1209 -0.5547 -0.1301
  814MOL0     C 9770   6.247   6.102   2.525  0.5917 -0.0736  0.7981
  814MOL0     C 9771   6.367   6.001   2.544 -0.5696  0.3798  0.7397
  814MOL0     N 9772   6.493   6.067   2.541 -0.0623  0.0506  0.8871
  814MOL0     C 9773   6.609   5.999   2.520 -0.0649 -0.2160  0.8148
  814MOL0     C 9774   6.702   6.093   2.518  0.6158  0.3582 -0.1429
  814MOL0     C 9775   6.851   6.064   2.501 -0.2982 -0.1185 -0.7073
  814MOL0     C 9776   6.904   6.115   2.371  0.3651 -0.7483  0.1039
  814MOL0     C 9777   7.048   6.131   2.347  0.4848  0.2057 -0.0044
  814MOL0     C 9778   7.120   5.993   2.349 -0.1311  0.3449 -0.6719
  814MOL0     O 9779   7.258   6.018   2.317  0.2751  0.4295 -0.3559
  814MOL0     C 9780   7.350   5.986   2.415  0.2101 -0.6193 -0.1484
  814MOL0     C 9781   7.343   6.004   2.554 -0.4262  0.1242  0.0906
  814MOL0     C 9782   7.448   5.974   2.643 -0.4419 -0.2139 -0.3576
  814MOL0     C 9783   7.573   5.926   2.592  1.2674 -0.7880  0.9120
  814MOL0     C 9784   7.677   5.896   2.688 -0.0256 -0.3350  0.7674
  814MOL0     O 9785   7.797   5.902   2.638 -0.2745 -0.3333 -0.6413
  814MOL0     C 9786   7.894   5.921   2.736  0.3199 -0.1404  0.2906
  814MOL0     C 9787   8.000   5.829   2.748  0.3680 -0.1088  0.5306
  814MOL0     C 9788   8.104   5.857   2.840  0.5957  0.4248 -0.0217
  814MOL0     C 9789   8.103   5.970   2.919 -0.7952  0.8706 -0.2713
  814MOL0     O 9790   8.200   6.003   3.008  0.1252 -0.6303 -0.0271
  814MOL0     C 9791   8.287   5.894   3.049 -0.2846  0.6291 -0.9305
  814MOL0     C 9792   8.402   5.914   3.158  1.1316  0.2915 -0.5538
  814MOL0     C 9793   8.501   5.797   3.166  0.1890 -0.5398 -0.6382
  814MOL0     C 9794   8.621   5.816   3.252 -0.7082  0.3711  0.5465
  814MOL0     C 9795   8.715   5.693   3.260  0.5116  0.0825  0.1887
  814MOL0     C 9796   8.837   5.711   3.339 -0.5015 -0.5371 -0.4873
  814MOL0     C 9797   8.923   5.824   3.275 -0.3397  0.1928 -0.0433
  814MOL0     C 9798   9.069   5.800   3.295  0.0403  1.1743 -0.4075
  814MOL0    Cl 9799   9.165   5.922   3.212 -0.3590 -0.3621 -0.1815
  814MOL0     C 9800   8.001   6.058   2.911  1.3021 -0.0488  0.1099
  814MOL0     C 9801   7.897   6.039   2.812  0.8849 -0.0006  0.2207
  814MOL0     O 9802   7.652   5.882   2.806 -0.0251  0.2363  0.5460
  814MOL0     C 9803   7.587   5.908   2.448  0.1647 -0.5020  0.0204
  814MOL0     C 9804   7.470   5.935   2.365 -1.0446 -0.7548 -0.1194
  814MOL0     N 9805   6.643   6.219   2.536 -0.1197  0.9108  0.6235
  814MOL0     N 9806   6.519   6.195   2.536 -0.0590 -0.0266 -0.3080
  814MOL0     C 9807   5.257   6.053   2.380 -0.1930  0.3536  0.2177
  814MOL0     C 9808   5.119   6.046   2.356  0.4776  0.6371  1.1795
  814MOL0     C 9809   4.700   6.231   2.301  0.0633  0.0075  0.6572
  814MOL0     C 9810   4.612   6.328   2.343 -0.0823 -0.7324 -0.4966
  814MOL0     C 9811   4.487   6.338   2.288 -1.2011  0.4292 -0.4403
  814MOL0     C 9812   4.425   6.245   2.211  0.0428 -0.1666  0.4454
  814MOL0     O 9813   4.297   6.265   2.173 -0.7280  0.1818 -0.1548
  814MOL0     C 9814   4.240   6.182   2.067  0.0101  0.4568  0.2298
  814MOL0     C 9815   4.092   6.209   2.060  0.1471 -0.0016 -0.2644
  814MOL0     C 9816   4.032   6.169   2.191 -0.0116  0.2242 -0.4275
  814MOL0     C 9817   3.879   6.176   2.181 -0.4839  0.7230  0.0215
  814MOL0     C 9818   3.809   6.165   2.308  0.1357  0.1736 -0.3764
  814MOL0     C 9819   3.755   6.166   2.416 -0.1925  0.7649 -0.1417
  814MOL0     C 9820   4.512   6.132   2.180  0.8003 -0.0046  0.0791
  814MOL0     C 9821   4.644   6.134   2.219  0.2338 -0.2851 -0.5197
  814MOL0     C 9822   4.730   6.029   2.149  0.1642  0.4314 -0.0638
  814MOL0     H 9823   5.022   6.250   2.610  1.1482 -1.8292  2.2232
  814MOL0     H 9824   5.258   6.257   2.640 -0.8863  1.8213 -1.3209
  814MOL0     H 9825   5.518   6.144   2.670 -1.7135  4.0687 -3.8928
  814MOL0     H 9826   5.431   5.992   2.648  1.0054  0.5432  2.6274
  814MOL0     H 9827   5.618   5.971   2.443  1.8999  0.6744  0.0350
  814MOL0     H 9828   5.611   5.890   2.607  1.3937  0.2184 -0.8992
  814MOL0     H 9829   5.746   6.065   2.699 -0.2567  0.2201  0.2830
  814MOL0     H 9830   5.722   6.170   2.560  2.0725  0.0840  1.1131
  814MOL0     H 9831   5.877   5.913   2.581 -1.6000 -1.2358 -1.5346
  814MOL0     H 9832   5.848   5.987   2.421 -0.3697  0.4406 -1.1146
  814MOL0     H 9833   5.986   6.176   2.469 -1.1433  1.6811  1.3646
  814MOL0     H 9834   5.987   6.157   2.643 -1.8328 -0.7308  0.1081
  814MOL0     H 9835   6.119   5.957   2.633 -1.1106 -0.5863 -0.0679
  814MOL0     H 9836   6.113   5.949   2.451 -0.8736  2.3065 -2.3874
  814MOL0     H 9837   6.244   6.176   2.605 -1.8151  0.9008 -0.1086
  814MOL0     H 9838   6.242   6.147   2.426 -3.0554 -1.1753  0.3497
  814MOL0     H 9839   6.358   5.953   2.641 -2.4791 -1.1213 -0.1096
  814MOL0     H 9840   6.362   5.929   2.462 -1.4191  1.6677 -0.3812
  814MOL0     H 9841   6.627   5.893   2.508  1.1040 -0.5444  4.2245
  814MOL0     H 9842   6.909   6.110   2.581  0.6671 -0.0707 -1.4153
  814MOL0     H 9843   6.860   5.957   2.522 -3.1365 -0.2960  0.1023
  814MOL0     H 9844   6.868   6.057   2.285 -2.5541  1.3949 -0.2480
  814MOL0     H 9845   6.864   6.216   2.364  0.7535 -0.4397  1.9156
  814MOL0     H 9846   7.096   6.200   2.417 -0.1084  2.8288 -2.0647
  814MOL0     H 9847   7.066   6.180   2.251 -0.8475 -0.4337 -0.6120
  814MOL0     H 9848   7.064   5.931   2.278  2.1795 -2.8261  0.0365
  814MOL0     H 9849   7.101   5.948   2.446 -2.9293  1.1817 -0.7712
  814MOL0     H 9850   7.247   6.039   2.589 -1.0620 -1.3080 -0.1540
  814MOL0     H 9851   7.434   5.983   2.751 -0.9352 -1.3440 -0.3125
  814MOL0     H 9852   8.010   5.737   2.691 -0.8295 -0.9735  1.6455
  814MOL0     H 9853   8.182   5.783   2.856 -0.4034 -0.5618  0.4459
  814MOL0     H 9854   8.223   5.812   3.084 -0.3299  1.1851  0.3455
  814MOL0     H 9855   8.348   5.864   2.963  3.0501  0.9930  1.1318
  814MOL0     H 9856   8.451   5.998   3.108 -0.8543  0.7339 -1.9049
  814MOL0     H 9857   8.367   5.934   3.259  0.5435 -1.2095 -0.4331
  814MOL0     H 9858   8.443   5.707   3.189  1.3204 -1.1596 -0.1193
  814MOL0     H 9859   8.536   5.775   3.065  0.4077 -1.6825 -0.3281
  814MOL0     H 9860   8.582   5.836   3.353 -1.0839 -3.6969  1.3760
  814MOL0     H 9861   8.685   5.901   3.225  0.1666 -0.3094  0.4338
  814MOL0     H 9862   8.738   5.655   3.160  0.4395 -0.8707  0.5243
  814MOL0     H 9863   8.646   5.616   3.296 -0.2587  1.6566  2.2275
  814MOL0     H 9864   8.808   5.738   3.441 -4.1179 -1.8548 -1.0125
  814MOL0     H 9865   8.891   5.616   3.336 -0.0027 -0.2766  0.2764
  814MOL0     H 9866   8.893   5.920   3.317 -2.0266 -0.5016  0.4081
  814MOL0     H 9867   8.915   5.834   3.166 -2.8880  0.6811  0.1221
  814MOL0     H 9868   9.096   5.801   3.401  0.9930  0.3887 -0.6258
  814MOL0     H 9869   9.106   5.702   3.264  1.8098  1.0250  1.8405
  814MOL0     H 9870   7.990   6.146   2.974 -2.9012 -1.4780  1.7899
  814MOL0     H 9871   7.834   6.124   2.787  1.2774  0.6750  1.4353
  814MOL0     H 9872   7.681   5.883   2.399  1.6785  6.2419 -1.5571
  814MOL0     H 9873   7.479   5.938   2.257 -0.0146 -0.4898 -0.0380
  814MOL0     H 9874   5.336   6.009   2.320  1.4205  1.7336  1.2653
  814MOL0     H 9875   5.079   5.981   2.279  2.4079 -0.5307  1.0941
  814MOL0     H 9876   4.640   6.400   2.419  1.8081 -2.2953  0.3877
  814MOL0     H 9877   4.424   6.419   2.323 -0.1099  0.6951  1.0268
  814MOL0     H 9878   4.250   6.076   2.094 -1.8150  0.5849  1.5880
  814MOL0     H 9879   4.286   6.203   1.970  3.4384 -1.4083  1.2825
  814MOL0     H 9880   4.034   6.153   1.986 -1.3700 -0.2489  1.0274
  814MOL0     H 9881   4.079   6.315   2.039  1.1072 -0.5681 -4.5860
  814MOL0     H 9882   4.059   6.241   2.268 -1.5855  0.4685 -0.0591
  814MOL0     H 9883   4.058   6.067   2.221  0.3119  0.8371  1.4950
  814MOL0     H 9884   3.852   6.271   2.134 -1.0185  0.2458 -0.6716
  814MOL0     H 9885   3.832   6.111   2.106  3.0327 -1.2602 -0.6690
  814MOL0     H 9886   3.717   6.168   2.516 -1.2216  0.7168 -0.5203
  814MOL0     H 9887   4.483   6.055   2.109  5.4116  0.0994 -2.3089
  814MOL0     H 9888   4.799   5.982   2.219  2.5219  0.3369 -2.3011
  814MOL0     H 9889   4.672   5.951   2.098  1.5609 -0.3757 -0.4696
  814MOL0     H 9890   4.786   6.082   2.071  0.7844 -1.5255 -1.0336
  815MOL0     O 9891   6.160   9.070   7.026 -0.1032  0.1047  0.2773
  815MOL0     C 9892   6.134   9.083   7.148  0.2455 -0.0410 -0.1840
  815MOL0     O 9893   6.221   9.056   7.250  0.1717  0.2670  0.4600
  815MOL0     C 9894   6.348   9.021   7.224 -0.0925 -0.0884  0.5962
  815MOL0     C 9895   6.443   9.109   7.193 -0.7255 -0.2720 -0.4770
  815MOL0     C 9896   6.572   9.063   7.168 -0.0809  0.2653 -1.4308
  815MOL0     C 9897   6.616   8.933   7.172  0.6001  0.3771  0.8305
  815MOL0     O 9898   6.739   8.889   7.146 -0.2014 -0.4561  0.0924
  815MOL0     C 9899   6.838   8.960   7.076  0.3264 -0.4969  0.1992
  815MOL0     C 9900   6.960   8.876   7.054  0.0796  0.7576 -0.2575
  815MOL0     C 9901   7.003   8.795   7.176 -0.8164  0.3130  0.2739
  815MOL0     C 9902   7.007   8.879   7.301 -0.1045  0.1002 -0.0891
  815MOL0     C 9903   7.059   8.784   7.412 -1.1140  0.6574 -0.2479
  815MOL0     C 9904   7.076   8.853   7.547 -0.2559  0.0592  0.5402
  815MOL0     C 9905   7.130   8.760   7.658 -0.4590 -0.3190 -0.6833
  815MOL0     C 9906   7.137   8.826   7.800  0.3087 -0.0931  0.0196
  815MOL0     N 9907   7.205   8.741   7.895 -0.6081  0.4467 -0.4632
  815MOL0     C 9908   7.239   8.606   7.888 -0.0841 -1.2470  0.7506
  815MOL0     C 9909   7.303   8.580   8.002 -0.5255 -0.0593 -0.6560
  815MOL0     C 9910   7.368   8.450   8.052  0.7563 -0.4804  0.4619
  815MOL0     C 9911   7.522   8.456   8.049  0.2634  0.4352 -0.7524
  815MOL0     C 9912   7.559   8.461   7.903 -0.2319 -0.0270  0.4917
  815MOL0     C 9913   7.705   8.489   7.880  0.2010  0.1928  0.2204
  815MOL0     O 9914   7.711   8.632   7.918 -0.8587  0.7477 -0.2845
  815MOL0     C 9915   7.836   8.690   7.911  0.2413  0.1895 -0.3460
  815MOL0     C 9916   7.839   8.822   7.935  0.4054  0.0757 -0.6010
  815MOL0     C 9917   7.964   8.882   7.931  0.0717  0.1104  0.5442
  815MOL0     C 9918   8.087   8.821   7.912 -0.6265  0.9307 -0.2407
  815MOL0     C 9919   8.220   8.884   7.937  0.7025  0.0754 -0.1232
  815MOL0     O 9920   8.224   9.009   7.986 -0.5098 -0.3324 -0.2142
  815MOL0     C 9921   8.346   9.066   7.998 -0.0546 -0.3822  0.1843
  815MOL0     C 9922   8.364   9.192   7.948 -0.0965 -0.1356 -0.4059
  815MOL0     C 9923   8.478   9.265   7.983 -1.0394 -0.2798 -0.6112
  815MOL0     C 9924   8.578   9.213   8.071 -0.3680  0.7492 -0.0656
  815MOL0     O 9925   8.674   9.309   8.100 -0.0412 -0.5690  0.6276
  815MOL0     C 9926   8.791   9.262   8.174 -0.7472  0.1426  0.0594
  815MOL0     C 9927   8.905   9.358   8.152  0.0708 -0.2773 -0.3515
  815MOL0     C 9928   9.041   9.285   8.189 -0.3627  0.0762 -0.6103
  815MOL0     C 9929   9.149   9.386   8.219  0.4055  0.0578 -0.1666
  815MOL0     C 9930   9.263   9.311   8.279 -0.1538  0.9250 -0.3387
  815MOL0     C 9931   9.356   9.402   8.361  0.1163 -0.3050  0.1912
  815MOL0     C 9932   9.418   9.526   8.290 -0.3292  0.9570 -0.4859
  815MOL0     C 9933   9.477   9.628   8.389 -0.4273 -1.4012  0.5403
  815MOL0    Cl 9934   9.613   9.597   8.492 -0.0654  0.3940 -0.1631
  815MOL0     C 9935   8.556   9.091   8.127  0.0240 -0.1298 -0.0326
  815MOL0     C 9936   8.440   9.015   8.093  0.6988 -0.9935  0.2048
  815MOL0     O 9937   8.316   8.818   7.906 -0.1102  0.0010 -0.1947
  815MOL0     C 9938   8.078   8.679   7.883 -0.4154 -1.0972 -0.4756
  815MOL0     C 9939   7.956   8.621   7.893  0.4596  1.0174  0.4470
  815MOL0     N 9940   7.300   8.691   8.080  1.0068  0.4663  0.0266
  815MOL0     N 9941   7.247   8.791   8.018  1.0907 -0.3138 -0.0429
  815MOL0     C 9942   6.515   8.843   7.208  0.0329 -0.2591  0.4560
  815MOL0     C 9943   6.381   8.884   7.229  0.1237  0.3739  0.2261
  815MOL0     C 9944   5.993   9.120   7.183  0.0813 -0.0107 -0.0328
  815MOL0     C 9945   5.946   9.077   7.308  0.4153  1.0796 -0.1031
  815MOL0     C 9946   5.811   9.100   7.344 -0.1036  0.3864  0.0974
  815MOL0     C 9947   5.724   9.152   7.250  0.4528 -0.0383  0.6015
  815MOL0     O 9948   5.590   9.174   7.266  0.1280  0.7879 -0.2000
  815MOL0     C 9949   5.522   9.086   7.358  0.3638  0.1782 -0.7289
  815MOL0     C 9950   5.382   9.051   7.315 -0.6244 -0.2054  0.4411
  815MOL0     C 9951   5.374   8.938   7.218  0.7586  0.2652 -0.2790
  815MOL0     C 9952   5.427   8.809   7.274  0.1025 -0.3102  0.5401
  815MOL0     C 9953   5.344   8.697   7.235  0.9174  0.3573 -0.4544
  815MOL0     C 9954   5.263   8.608   7.202  0.0162  0.2919  0.4181
  815MOL0     C 9955   5.765   9.186   7.124 -0.3580  0.8306 -0.4474
  815MOL0     C 9956   5.903   9.186   7.091  0.1581 -0.2663 -0.5607
  815MOL0     C 9957   5.949   9.249   6.960  0.6841  0.0286  0.1672
  815MOL0     H 9958   6.417   9.214   7.180  0.7019 -0.0338 -1.6337
  815MOL0     H 9959   6.634   9.150   7.150  0.3173  0.9389  2.2414
  815MOL0     H 9960   6.803   8.993   6.977  1.2909 -3.0500 -1.0839
  815MOL0     H 9961   6.868   9.050   7.130 -1.0212 -0.3723  0.7818
  815MOL0     H 9962   7.044   8.935   7.015  0.8314 -0.5490 -0.7147
  815MOL0     H 9963   6.935   8.812   6.968  0.9238  0.4867 -0.3112
  815MOL0     H 9964   7.102   8.760   7.144 -0.7037  0.4062  0.5146
  815MOL0     H 9965   6.942   8.704   7.185  1.5988 -1.6104 -1.2078
  815MOL0     H 9966   7.079   8.961   7.300  0.2048 -0.0260  2.7207
  815MOL0     H 9967   6.911   8.914   7.340 -0.0802 -0.5153  0.5447
  815MOL0     H 9968   7.000   8.692   7.423  2.2928 -1.5068  2.0700
  815MOL0     H 9969   7.157   8.740   7.390 -0.5857  1.6840 -0.0232
  815MOL0     H 9970   7.143   8.938   7.535 -1.1722  0.5103 -2.0343
  815MOL0     H 9971   6.979   8.889   7.583 -0.6469  1.3121 -1.6189
  815MOL0     H 9972   7.234   8.742   7.628  0.2019 -2.1284  2.3090
  815MOL0     H 9973   7.075   8.666   7.661 -1.3050  0.0666 -2.5812
  815MOL0     H 9974   7.176   8.928   7.786 -0.8729  0.5076  0.9388
  815MOL0     H 9975   7.031   8.826   7.829 -0.1251  1.5733 -1.3984
  815MOL0     H 9976   7.228   8.541   7.802  1.0712  0.2981 -0.6247
  815MOL0     H 9977   7.326   8.440   8.153 -1.1761  3.0799  0.1544
  815MOL0     H 9978   7.342   8.358   7.999  1.3900 -0.3539 -0.0837
  815MOL0     H 9979   7.549   8.539   8.114  2.7333  1.0727 -2.4408
  815MOL0     H 9980   7.555   8.366   8.102 -0.8487 -0.5102 -1.5933
  815MOL0     H 9981   7.502   8.539   7.851 -1.3915 -0.4175  1.1313
  815MOL0     H 9982   7.547   8.359   7.868 -1.4813  0.6431 -1.1584
  815MOL0     H 9983   7.736   8.476   7.776  0.1470 -1.7096  0.3982
  815MOL0     H 9984   7.765   8.424   7.945 -1.2469 -0.2681  1.1496
  815MOL0     H 9985   7.749   8.881   7.948  0.0208 -0.4318 -0.9229
  815MOL0     H 9986   7.966   8.991   7.930  0.3501  0.1412 -1.5476
  815MOL0     H 9987   8.286   9.226   7.881 -1.2118  1.7184  1.7103
  815MOL0     H 9988   8.509   9.358   7.938  1.6412  0.3793  2.2443
  815MOL0     H 9989   8.770   9.256   8.281  0.6247  3.5006  0.6462
  815MOL0     H 9990   8.833   9.169   8.136  1.2739  1.4385 -1.0263
  815MOL0     H 9991   8.919   9.398   8.051  1.5149  1.2139  0.3910
  815MOL0     H 9992   8.888   9.451   8.206  2.0911  1.0407 -1.8143
  815MOL0     H 9993   9.029   9.232   8.284  1.5045  1.4528  0.4587
  815MOL0     H 9994   9.063   9.220   8.104 -1.4868 -0.2503 -0.6656
  815MOL0     H 9995   9.103   9.452   8.293  1.6063 -0.4855  1.1079
  815MOL0     H 9996   9.175   9.445   8.130 -0.7048 -0.4069 -0.8148
  815MOL0     H 9997   9.313   9.246   8.207 -2.6199  0.5275 -1.7920
  815MOL0     H 9998   9.234   9.247   8.363  0.6484  1.5961  0.4782
  815MOL0     H 9999   9.302   9.445   8.446  0.1146 -0.3116  0.1938
  815MOL0     H10000   9.430   9.338   8.409 -2.7425 -4.4561 -0.3825
  815MOL0     H10001   9.351   9.561   8.210 -0.3218 -1.4942 -1.6657
  815MOL0     H10002   9.505   9.482   8.240  0.7312 -0.2407  2.2165
  815MOL0     H10003   9.509   9.716   8.331  1.3050 -2.2964  0.0769
  815MOL0     H10004   9.400   9.661   8.461 -0.6236 -3.4168  1.3082
  815MOL0     H10005   8.629   9.057   8.200  0.2461  2.1359  0.8844
  815MOL0     H10006   8.422   8.920   8.144  0.5392 -0.8039  0.5025
  815MOL0     H10007   8.161   8.611   7.868 -1.4505 -3.1916  2.5567
  815MOL0     H10008   7.959   8.513   7.885  1.1665  1.1289 -1.0894
  815MOL0     H10009   6.533   8.736   7.208 -1.7246 -0.6003 -0.1509
  815MOL0     H10010   6.304   8.808   7.242  0.7123 -0.1546  0.7039
  815MOL0     H10011   6.003   9.031   7.388 -0.2788  0.0773 -0.1792
  815MOL0     H10012   5.776   9.078   7.445 -1.3886 -1.1484 -0.6338
  815MOL0     H10013   5.523   9.136   7.455 -0.2051 -2.2594  0.6127
  815MOL0     H10014   5.581   8.995   7.373 -0.2318  0.0662  1.1223
  815MOL0     H10015   5.333   9.145   7.290 -2.9785 -1.3384  0.5152
  815MOL0     H10016   5.325   9.021   7.404 -0.2795  0.1375  0.7859
  815MOL0     H10017   5.436   8.963   7.131 -1.1910 -0.0643 -1.8134
  815MOL0     H10018   5.271   8.921   7.187  1.2979 -3.3581 -0.4929
  815MOL0     H10019   5.528   8.784   7.239  0.4374 -2.1270  2.6069
  815MOL0     H10020   5.442   8.806   7.382 -1.1205  0.0644  0.7410
  815MOL0     H10021   5.192   8.535   7.167  1.9103 -1.7116  0.5036
  815MOL0     H10022   5.691   9.229   7.057 -2.1327  1.2414  1.6574
  815MOL0     H10023   5.863   9.291   6.908  1.3228  0.8146 -0.2811
  815MOL0     H10024   6.011   9.336   6.983 -2.9074  2.7232  0.4621
  815MOL0     H10025   5.995   9.177   6.892 -3.9450 -2.8128 -0.3889
  816MOL0     O10026  10.268  11.025  11.243 -0.7816  0.7118 -0.0494
  816MOL0     C10027  10.206  10.989  11.141  0.2329 -0.7170  0.2742
  816MOL0     O10028  10.261  10.936  11.031  0.0302  0.0878 -0.3795
  816MOL0     C10029  10.395  10.911  11.037 -0.9223 -0.0025 -0.8146
  816MOL0     C10030  10.498  10.987  11.097 -0.8735  0.4865 -0.6239
  816MOL0     C10031  10.632  10.967  11.070 -0.2100 -0.7920 -0.6473
  816MOL0     C10032  10.676  10.863  10.990 -0.3168 -0.1861 -0.2754
  816MOL0     O10033  10.812  10.855  10.964  0.2435  0.2716 -0.5713
  816MOL0     C10034  10.859  10.740  10.886 -0.0463 -0.4269  0.0960
  816MOL0     C10035  11.011  10.754  10.879  0.0644 -0.3785  0.5669
  816MOL0     C10036  11.044  10.873  10.795 -0.1050 -0.1795 -0.0199
  816MOL0     C10037  11.199  10.859  10.757  0.2004  0.6645  0.5625
  816MOL0     C10038  11.267  10.964  10.671  0.8349 -0.6466  0.3297
  816MOL0     C10039  11.290  11.094  10.729  0.7383 -0.4547  0.1430
  816MOL0     C10040  11.411  11.156  10.659 -0.5976  0.6102  1.0023
  816MOL0     C10041  11.422  11.308  10.647  0.1758 -0.4501  0.1842
  816MOL0     N10042  11.541  11.353  10.571  0.1253 -0.9840 -0.2150
  816MOL0     C10043  11.667  11.376  10.621  0.1188 -0.1761 -0.0832
  816MOL0     C10044  11.738  11.434  10.522 -0.2377  0.2196 -0.2226
  816MOL0     C10045  11.870  11.498  10.507  0.0283  0.0026  1.2012
  816MOL0     C10046  11.877  11.617  10.598  0.0906  0.6570 -0.7149
  816MOL0     C10047  12.025  11.645  10.623  0.7230 -0.2974  0.2256
  816MOL0     C10048  12.030  11.784  10.691 -0.6983  0.2987 -0.5937
  816MOL0     O10049  12.174  11.821  10.682 -0.9009  0.0906  0.3716
  816MOL0     C10050  12.218  11.950  10.708  0.1583 -0.0324 -0.1475
  816MOL0     C10051  12.127  12.061  10.719 -0.1302  0.5393 -0.2934
  816MOL0     C10052  12.180  12.191  10.731 -0.8928  1.1768 -0.4213
  816MOL0     C10053  12.315  12.217  10.723  0.1548 -0.2737  0.1742
  816MOL0     C10054  12.369  12.355  10.716  0.8730  0.2652  0.5879
  816MOL0     O10055  12.284  12.450  10.678 -0.0286 -0.2412 -0.0903
  816MOL0     C10056  12.324  12.578  10.699  0.0637  1.1682 -0.2962
  816MOL0     C10057  12.349  12.655  10.590 -0.0018  0.7308  0.8478
  816MOL0     C10058  12.394  12.786  10.608 -0.2241 -0.3207  0.3430
  816MOL0     C10059  12.399  12.846  10.738 -0.6895  0.2501  0.4335
  816MOL0     O10060  12.462  12.969  10.739 -0.1939  0.2333 -0.2629
  816MOL0     C10061  12.411  13.077  10.660  0.0614  0.2989 -0.2063
  816MOL0     C10062  12.450  13.202  10.737 -0.3390 -0.2293  0.3236
  816MOL0     C10063  12.422  13.331  10.663  0.9624 -0.5278 -0.3284
  816MOL0     C10064  12.434  13.459  10.753 -0.1339  0.2161 -0.0142
  816MOL0     C10065  12.422  13.593  10.672 -0.0845 -0.3957  0.2197
  816MOL0     C10066  12.438  13.712  10.756  0.0752  0.0811 -0.3284
  816MOL0     C10067  12.421  13.841  10.671  0.1000 -0.6717  0.1777
  816MOL0     C10068  12.420  13.961  10.755 -0.1513 -0.2267  0.0314
  816MOL0    Cl10069  12.570  13.955  10.861  0.1146  0.3025  0.1671
  816MOL0     C10070  12.366  12.760  10.845 -0.9217 -0.3368 -0.3833
  816MOL0     C10071  12.325  12.628  10.830 -1.3145 -0.4282 -0.1759
  816MOL0     O10072  12.486  12.374  10.744  0.3058  0.7206  0.2102
  816MOL0     C10073  12.403  12.108  10.710 -1.2501 -0.2234 -0.4118
  816MOL0     C10074  12.355  11.981  10.710  0.4477 -0.2208 -0.4065
  816MOL0     N10075  11.650  11.452  10.417 -0.2296 -0.0694 -0.6674
  816MOL0     N10076  11.535  11.404  10.443 -0.2433  0.5336 -0.4289
  816MOL0     C10077  10.578  10.772  10.939  0.7719 -0.4037 -0.8567
  816MOL0     C10078  10.442  10.805  10.960 -0.3145  0.4704 -0.2867
  816MOL0     C10079  10.056  11.017  11.132 -0.1472  0.9076  0.4784
  816MOL0     C10080   9.979  10.976  11.018  0.7966 -0.6220 -0.1980
  816MOL0     C10081   9.846  11.002  11.007  0.2169  0.2426 -0.7037
  816MOL0     C10082   9.768  11.056  11.112  0.5597 -0.5634  0.0319
  816MOL0     O10083   9.632  11.071  11.092  0.5290  0.5816  0.2450
  816MOL0     C10084   9.550  11.131  11.184  0.0550  0.0984 -0.7129
  816MOL0     C10085   9.404  11.146  11.134 -1.0023 -0.2560  0.0339
  816MOL0     C10086   9.299  11.194  11.243 -0.4433 -0.8650 -0.9525
  816MOL0     C10087   9.299  11.113  11.376  0.7440 -0.1134  0.6945
  816MOL0     C10088   9.280  10.973  11.336  0.2804  0.7323  0.7764
  816MOL0     C10089   9.268  10.854  11.297  0.3633  0.0239  0.6853
  816MOL0     C10090   9.841  11.103  11.226 -0.7041 -0.3663  0.0172
  816MOL0     C10091   9.982  11.092  11.231  0.0918  0.1438  0.2828
  816MOL0     C10092  10.042  11.148  11.356 -0.3108  0.6942 -0.9810
  816MOL0     H10093  10.473  11.079  11.149  1.3112 -0.1225  1.6959
  816MOL0     H10094  10.694  11.052  11.093 -3.8896  2.7383 -2.3526
  816MOL0     H10095  10.843  10.654  10.953  0.6889 -2.4332 -2.1760
  816MOL0     H10096  10.815  10.712  10.790 -2.2696 -1.8970  1.4492
  816MOL0     H10097  11.060  10.663  10.844  1.0237  0.6250 -0.8341
  816MOL0     H10098  11.046  10.774  10.981 -1.3773  0.5274  0.9193
  816MOL0     H10099  11.021  10.970  10.842  0.7617 -0.4598  1.0284
  816MOL0     H10100  10.981  10.871  10.706  0.0437  0.8068 -0.1683
  816MOL0     H10101  11.242  10.850  10.857 -1.8720 -1.1698  1.3729
  816MOL0     H10102  11.214  10.770  10.695  0.0913  1.6655 -0.9557
  816MOL0     H10103  11.364  10.922  10.641 -0.2794 -0.7059 -3.7974
  816MOL0     H10104  11.207  10.968  10.579  0.6598 -2.7883  0.3053
  816MOL0     H10105  11.206  11.163  10.717  0.6339 -0.8042 -1.2590
  816MOL0     H10106  11.309  11.078  10.836  2.4595 -0.0093 -0.0635
  816MOL0     H10107  11.403  11.121  10.556  0.8272  1.9058  0.3917
  816MOL0     H10108  11.505  11.118  10.701  0.8829  3.1149  0.1825
  816MOL0     H10109  11.335  11.343  10.592  1.0402  0.3164 -0.7405
  816MOL0     H10110  11.426  11.358  10.744  0.6647  1.1325 -0.6203
  816MOL0     H10111  11.708  11.364  10.721  1.9636 -0.2679 -0.8127
  816MOL0     H10112  11.944  11.420  10.531 -2.7344 -3.6666 -1.0397
  816MOL0     H10113  11.867  11.519  10.400  1.0068 -0.4497  1.0713
  816MOL0     H10114  11.828  11.706  10.556 -0.4673  1.4643  1.4975
  816MOL0     H10115  11.826  11.601  10.693  0.4593  2.2602 -0.2191
  816MOL0     H10116  12.085  11.651  10.532 -0.1433 -2.7223 -0.5715
  816MOL0     H10117  12.074  11.571  10.686  0.2476 -0.8608 -0.0634
  816MOL0     H10118  11.991  11.784  10.793 -1.0244 -2.9719 -0.6139
  816MOL0     H10119  11.975  11.857  10.630  1.8331  2.1693 -0.7946
  816MOL0     H10120  12.020  12.048  10.716 -0.0540 -0.0231 -2.6054
  816MOL0     H10121  12.107  12.271  10.742 -1.7766  0.5132 -1.2762
  816MOL0     H10122  12.342  12.614  10.490 -0.9585  2.3448  0.2178
  816MOL0     H10123  12.415  12.841  10.516  0.7017 -0.3550  0.5248
  816MOL0     H10124  12.455  13.083  10.560  2.0641  0.0657  0.6094
  816MOL0     H10125  12.302  13.082  10.657  0.1090  0.9608 -1.6462
  816MOL0     H10126  12.392  13.216  10.829 -1.0868  0.0254 -0.1797
  816MOL0     H10127  12.559  13.195  10.747  0.0891  2.7121 -1.1289
  816MOL0     H10128  12.484  13.346  10.574 -1.0636  0.5875 -1.6262
  816MOL0     H10129  12.322  13.326  10.619  1.7393 -1.4657 -2.1197
  816MOL0     H10130  12.534  13.454  10.796 -0.0434 -1.4811 -0.3647
  816MOL0     H10131  12.367  13.454  10.840 -1.8935 -1.4136 -1.3906
  816MOL0     H10132  12.318  13.598  10.641  0.0169  0.9062  0.0443
  816MOL0     H10133  12.499  13.605  10.595 -1.2457 -1.4330 -1.1398
  816MOL0     H10134  12.363  13.719  10.835  1.8848  1.5481  1.3761
  816MOL0     H10135  12.537  13.699  10.801 -0.6602  1.2692  1.7865
  816MOL0     H10136  12.329  13.835  10.611 -0.6421 -0.0665  1.2130
  816MOL0     H10137  12.504  13.851  10.600  0.1054  1.5894  0.4284
  816MOL0     H10138  12.438  14.054  10.700  0.1007  0.2449  0.8947
  816MOL0     H10139  12.324  13.966  10.808 -1.3971 -0.1871 -2.1054
  816MOL0     H10140  12.383  12.804  10.943  0.6024  1.7393 -1.5056
  816MOL0     H10141  12.292  12.569  10.915 -0.4917  1.4692  1.5153
  816MOL0     H10142  12.509  12.130  10.705 -1.2580 -0.3968 -3.0063
  816MOL0     H10143  12.421  11.895  10.709  1.3438  0.3262  2.4374
  816MOL0     H10144  10.590  10.682  10.880 -3.5857  0.2395 -3.1295
  816MOL0     H10145  10.373  10.747  10.899 -0.4324 -0.4925  0.7449
  816MOL0     H10146  10.022  10.930  10.930 -1.0801 -0.0428 -1.4852
  816MOL0     H10147   9.805  10.970  10.911 -1.4214  1.8268 -0.5892
  816MOL0     H10148   9.593  11.225  11.218 -3.2668  0.7513  2.3309
  816MOL0     H10149   9.552  11.066  11.272 -3.5218 -4.5321 -3.5512
  816MOL0     H10150   9.374  11.045  11.106 -0.0032 -1.3493  2.5811
  816MOL0     H10151   9.407  11.210  11.045  1.1171  0.2288  0.3899
  816MOL0     H10152   9.196  11.184  11.208 -0.7536 -1.5189  0.1055
  816MOL0     H10153   9.315  11.296  11.280 -4.2750 -1.3418  2.8182
  816MOL0     H10154   9.391  11.122  11.436 -0.1917  1.9618  1.9223
  816MOL0     H10155   9.216  11.162  11.426 -1.3690  2.4262 -4.5817
  816MOL0     H10156   9.264  10.749  11.274 -1.3966  0.4706 -1.4341
  816MOL0     H10157   9.798  11.155  11.311  0.5683  1.9382 -0.6505
  816MOL0     H10158   9.966  11.192  11.421 -1.8196 -2.1709 -0.6712
  816MOL0     H10159  10.092  11.068  11.412 -3.8141 -1.0197 -0.0295
  816MOL0     H10160  10.108  11.234  11.336 -3.4652  4.2342  2.0719
  817MOL0     O10161   3.948   1.048   3.496  0.6172  0.0508  0.2207
  817MOL0     C10162   3.929   1.172   3.481 -0.0301 -0.0322  0.1390
  817MOL0     O10163   4.024   1.276   3.457 -0.2058  0.5176 -1.2917
  817MOL0     C10164   4.160   1.247   3.463  0.2576 -0.9668 -0.2854
  817MOL0     C10165   4.226   1.137   3.511 -0.3120  0.2047  0.8131
  817MOL0     C10166   4.370   1.122   3.501  0.3479  0.1120 -0.2418
  817MOL0     C10167   4.448   1.224   3.455  0.5191 -0.6282 -0.4151
  817MOL0     O10168   4.583   1.228   3.438 -0.1217  0.4460 -0.4467
  817MOL0     C10169   4.655   1.115   3.487 -0.1645  0.3074  0.0956
  817MOL0     C10170   4.684   1.127   3.635 -0.1430  0.8636 -0.1960
  817MOL0     C10171   4.817   1.201   3.660  0.1810 -0.5526 -0.1441
  817MOL0     C10172   4.945   1.113   3.678  1.1984 -0.1992 -0.8988
  817MOL0     C10173   5.064   1.206   3.701 -0.7046  0.9849  0.5854
  817MOL0     C10174   5.194   1.143   3.675  0.1207  0.4713 -0.1034
  817MOL0     C10175   5.200   1.012   3.756  0.6584 -0.1260  0.2695
  817MOL0     C10176   5.287   0.911   3.689 -0.3258  0.0681  0.2167
  817MOL0     N10177   5.433   0.938   3.687  0.2200 -0.7478  1.1979
  817MOL0     C10178   5.505   0.971   3.579  0.1840  0.3574  0.3087
  817MOL0     C10179   5.634   0.949   3.603 -0.3603  0.4099 -0.3141
  817MOL0     C10180   5.749   0.969   3.513 -0.0956 -0.2797 -0.3123
  817MOL0     C10181   5.859   0.866   3.512  0.1537  0.8214 -0.5870
  817MOL0     C10182   5.954   0.864   3.387 -0.3300 -0.0418 -0.0159
  817MOL0     C10183   6.044   0.740   3.394 -0.2848  0.2970 -0.8934
  817MOL0     O10184   6.125   0.741   3.508 -0.3723 -1.1265 -0.7812
  817MOL0     C10185   6.238   0.665   3.525 -0.3693  0.9790  0.3800
  817MOL0     C10186   6.339   0.703   3.616 -0.5450  0.6867 -0.5778
  817MOL0     C10187   6.451   0.619   3.641  0.2054  0.0634 -1.3606
  817MOL0     C10188   6.448   0.489   3.588  0.0627 -0.0820  0.8257
  817MOL0     C10189   6.563   0.393   3.622 -0.5289  1.1250  0.4621
  817MOL0     O10190   6.646   0.419   3.724 -0.3303 -0.3553  0.1113
  817MOL0     C10191   6.742   0.327   3.742  0.3169  0.4471  0.7971
  817MOL0     C10192   6.863   0.329   3.667  1.0215 -0.9687  0.0175
  817MOL0     C10193   6.950   0.222   3.693 -0.6448 -0.6173  0.7777
  817MOL0     C10194   6.922   0.122   3.786 -0.0009 -0.5338 -0.4206
  817MOL0     O10195   6.996   0.005   3.795 -0.2815 -0.5188 -0.4218
  817MOL0     C10196   7.108  -0.030   3.710  0.0984  0.1549 -0.1522
  817MOL0     C10197   7.225   0.044   3.775  0.2470 -0.5855 -0.5725
  817MOL0     C10198   7.367   0.023   3.708 -0.2066 -0.0241 -0.3847
  817MOL0     C10199   7.432  -0.112   3.691  0.2572  1.1207 -0.2705
  817MOL0     C10200   7.583  -0.107   3.672 -0.3885 -0.4962 -0.0670
  817MOL0     C10201   7.662  -0.216   3.745  0.5122  0.3199 -0.3901
  817MOL0     C10202   7.815  -0.203   3.703  0.5067  0.8609 -0.2896
  817MOL0     C10203   7.899  -0.303   3.778 -0.2058  0.0812  0.8796
  817MOL0    Cl10204   8.064  -0.290   3.724 -0.1473 -0.2889  0.0339
  817MOL0     C10205   6.806   0.126   3.865 -0.0786  0.3636  0.3141
  817MOL0     C10206   6.719   0.234   3.835 -0.0929  0.9173 -0.4755
  817MOL0     O10207   6.561   0.295   3.546  0.1530 -0.0854 -0.3385
  817MOL0     C10208   6.357   0.452   3.496  1.0225  0.7910  0.7291
  817MOL0     C10209   6.247   0.541   3.469  0.5241  0.4351 -0.2818
  817MOL0     N10210   5.651   0.909   3.735  0.5788 -0.1635 -0.0964
  817MOL0     N10211   5.526   0.899   3.784 -0.4916 -0.4049  0.3651
  817MOL0     C10212   4.384   1.342   3.427  0.3174 -0.8587 -0.0179
  817MOL0     C10213   4.243   1.357   3.430 -0.6372  0.2459  0.2625
  817MOL0     C10214   3.783   1.218   3.467 -0.9766  0.9456 -0.0101
  817MOL0     C10215   3.751   1.303   3.353  0.4685  0.3470 -0.3329
  817MOL0     C10216   3.628   1.358   3.344  0.8850 -0.5273 -0.7311
  817MOL0     C10217   3.520   1.326   3.431 -0.3378  0.9575 -0.2763
  817MOL0     O10218   3.391   1.377   3.424  0.0750 -0.1184  0.2408
  817MOL0     C10219   3.371   1.496   3.345  0.8495  0.4272  0.7044
  817MOL0     C10220   3.234   1.561   3.371  0.5740  0.9606 -0.1373
  817MOL0     C10221   3.228   1.701   3.318  0.0309 -0.2519 -1.1552
  817MOL0     C10222   3.102   1.760   3.368 -0.2493  0.1919 -0.5347
  817MOL0     C10223   3.106   1.901   3.331  0.6536  0.8572 -0.3063
  817MOL0     C10224   3.093   2.015   3.296  0.3380  0.6623 -0.6684
  817MOL0     C10225   3.545   1.229   3.531 -0.6669 -0.2925  0.2671
  817MOL0     C10226   3.680   1.181   3.550 -0.0243  0.1238 -1.3393
  817MOL0     C10227   3.696   1.080   3.653  0.2024  0.4717  0.6396
  817MOL0     H10228   4.166   1.054   3.547  0.5267 -1.2824 -1.0189
  817MOL0     H10229   4.423   1.032   3.531  2.3444  1.5351  0.7323
  817MOL0     H10230   4.609   1.017   3.472  2.3686 -1.1531  1.1410
  817MOL0     H10231   4.754   1.107   3.441 -0.0277 -2.9172  0.7354
  817MOL0     H10232   4.692   1.028   3.680  3.4887  1.3109  0.3914
  817MOL0     H10233   4.603   1.178   3.689 -0.2220 -0.6880  1.2269
  817MOL0     H10234   4.803   1.250   3.757 -0.4698  1.0047 -0.9946
  817MOL0     H10235   4.841   1.281   3.589  0.2019 -0.1823  0.2712
  817MOL0     H10236   4.944   1.057   3.772  0.7911  1.4382  0.1284
  817MOL0     H10237   4.948   1.042   3.595  0.1409 -2.8703  1.2085
  817MOL0     H10238   5.048   1.290   3.633 -3.5076  0.6927  0.7909
  817MOL0     H10239   5.052   1.254   3.799  2.4611  1.0368  1.0649
  817MOL0     H10240   5.193   1.113   3.570  2.2398  0.9031 -0.2890
  817MOL0     H10241   5.277   1.211   3.697 -1.3153  1.6240  2.1388
  817MOL0     H10242   5.108   0.959   3.780  0.4309 -0.4910 -1.3412
  817MOL0     H10243   5.246   1.049   3.849  2.0999 -0.0022 -0.4532
  817MOL0     H10244   5.276   0.821   3.751  0.1959 -0.0056  0.2045
  817MOL0     H10245   5.247   0.882   3.591 -1.2197 -1.5305  1.0068
  817MOL0     H10246   5.445   1.000   3.494 -0.9407 -1.3965  0.4335
  817MOL0     H10247   5.726   0.987   3.408  1.2055  1.1429 -0.3975
  817MOL0     H10248   5.793   1.065   3.542 -0.4067 -0.1906 -0.1301
  817MOL0     H10249   5.922   0.863   3.602  0.7802  1.8268 -0.9694
  817MOL0     H10250   5.805   0.771   3.507 -1.5151  1.6830  0.2674
  817MOL0     H10251   6.025   0.947   3.392  1.1202 -1.2981  2.4946
  817MOL0     H10252   5.890   0.874   3.299  2.3628 -1.0572 -2.2446
  817MOL0     H10253   6.109   0.740   3.307 -0.2973 -0.0540 -0.9065
  817MOL0     H10254   5.997   0.642   3.407  0.3969 -0.2798 -2.5535
  817MOL0     H10255   6.324   0.789   3.680 -0.3013  0.8204 -0.6965
  817MOL0     H10256   6.528   0.643   3.714  0.5746 -0.2541 -1.6398
  817MOL0     H10257   6.877   0.410   3.596  3.4403  0.5614  2.0649
  817MOL0     H10258   7.039   0.230   3.631 -0.1440 -0.0550  1.5479
  817MOL0     H10259   7.137  -0.136   3.710  0.9217  0.3781  0.2317
  817MOL0     H10260   7.103   0.002   3.605  0.1174 -2.8956 -1.1823
  817MOL0     H10261   7.210   0.152   3.789  2.5331 -0.0645 -1.6572
  817MOL0     H10262   7.230   0.004   3.876  2.0109  2.8270  0.8577
  817MOL0     H10263   7.375   0.080   3.616 -0.2083 -0.3193 -0.5698
  817MOL0     H10264   7.431   0.067   3.785 -0.3395  0.5891 -0.6201
  817MOL0     H10265   7.388  -0.168   3.607  0.0786  3.2543 -1.6752
  817MOL0     H10266   7.406  -0.159   3.787  4.5740 -0.2144  0.4532
  817MOL0     H10267   7.627  -0.014   3.708 -1.1305  0.4210 -1.4488
  817MOL0     H10268   7.608  -0.107   3.566 -0.2795 -0.7459 -0.0422
  817MOL0     H10269   7.656  -0.199   3.853 -0.2484 -0.3168 -0.3264
  817MOL0     H10270   7.620  -0.314   3.722 -0.5505  1.2940 -2.9967
  817MOL0     H10271   7.857  -0.104   3.721 -1.4890  1.8012 -0.5650
  817MOL0     H10272   7.817  -0.216   3.595 -1.4341 -2.5041 -0.0820
  817MOL0     H10273   7.894  -0.279   3.884 -0.8749  0.3825  0.7814
  817MOL0     H10274   7.858  -0.404   3.768  1.5889 -0.9315  2.9116
  817MOL0     H10275   6.782   0.049   3.938 -3.4042  2.5837  1.8003
  817MOL0     H10276   6.624   0.243   3.886  0.6171 -0.0080  1.0809
  817MOL0     H10277   6.342   0.348   3.469  2.5459  0.6193  0.4841
  817MOL0     H10278   6.164   0.504   3.410 -1.3386  1.2341  1.6761
  817MOL0     H10279   4.443   1.430   3.405 -0.1519 -0.4763  0.2299
  817MOL0     H10280   4.183   1.444   3.403 -1.0987  0.0773  0.7145
  817MOL0     H10281   3.825   1.325   3.276  1.9553  1.5266  1.3340
  817MOL0     H10282   3.611   1.423   3.258 -0.8248  0.4843  0.3091
  817MOL0     H10283   3.383   1.471   3.239 -0.4532  1.0582  0.3919
  817MOL0     H10284   3.447   1.569   3.374 -2.1140  2.9787  2.6422
  817MOL0     H10285   3.217   1.555   3.479  1.6926 -0.4102 -0.0113
  817MOL0     H10286   3.156   1.504   3.320 -1.3421  1.0840  2.4489
  817MOL0     H10287   3.225   1.687   3.210 -2.4802  1.5686 -1.3989
  817MOL0     H10288   3.316   1.755   3.353  0.5128 -0.5977 -1.8063
  817MOL0     H10289   3.020   1.711   3.314  0.2097  0.1744 -1.2209
  817MOL0     H10290   3.097   1.749   3.477 -3.5913  2.3605 -0.3182
  817MOL0     H10291   3.086   2.119   3.271 -2.5940  0.2134 -2.1303
  817MOL0     H10292   3.461   1.205   3.596 -0.0664  0.3941  1.3310
  817MOL0     H10293   3.722   0.988   3.601 -0.6082  1.3944 -1.4985
  817MOL0     H10294   3.779   1.102   3.721  0.8167 -1.6777  0.6675
  817MOL0     H10295   3.602   1.044   3.696 -1.8545 -0.3109 -3.9968
  818MOL0     O10296   6.894   4.570   7.674 -0.1498 -0.1693 -0.0942
  818MOL0     C10297   6.877   4.664   7.749  0.8679  0.0790  0.3378
  818MOL0     O10298   6.808   4.777   7.731 -0.2395  0.5779 -0.0312
  818MOL0     C10299   6.775   4.809   7.599 -0.2100  0.1475 -0.1825
  818MOL0     C10300   6.880   4.807   7.502  0.0149  0.1657 -0.3862
  818MOL0     C10301   6.856   4.854   7.369  0.7543 -0.1082 -0.1147
  818MOL0     C10302   6.720   4.888   7.334  0.5330  0.4365  0.2274
  818MOL0     O10303   6.668   4.904   7.208 -0.4853 -0.5808 -0.6991
  818MOL0     C10304   6.758   4.879   7.099 -0.3702 -0.4460  0.1453
  818MOL0     C10305   6.690   4.921   6.972 -0.6399  0.6229 -0.1998
  818MOL0     C10306   6.671   5.081   6.985  0.3132 -0.5916 -0.1109
  818MOL0     C10307   6.587   5.138   6.876 -1.0826 -0.5623  0.2511
  818MOL0     C10308   6.580   5.297   6.885 -0.5015  0.7149 -0.1640
  818MOL0     C10309   6.521   5.361   6.757  0.6308 -1.3456 -0.4839
  818MOL0     C10310   6.373   5.335   6.744  0.6366 -0.3144  0.1756
  818MOL0     C10311   6.312   5.384   6.611 -0.2453 -0.1087 -0.3891
  818MOL0     N10312   6.371   5.309   6.498 -0.3093  0.0710  0.0277
  818MOL0     C10313   6.406   5.180   6.491 -0.1081 -0.3310  0.5238
  818MOL0     C10314   6.440   5.157   6.363  0.3843  0.0800 -0.6687
  818MOL0     C10315   6.496   5.023   6.314  1.1599 -0.3910  0.8910
  818MOL0     C10316   6.594   4.955   6.401  0.1764  0.7546 -0.6635
  818MOL0     C10317   6.713   5.043   6.445  0.1231  1.1009 -0.4876
  818MOL0     C10318   6.819   4.962   6.524  0.1437 -0.4089 -0.0465
  818MOL0     O10319   6.895   5.059   6.596  0.3100  0.0641  0.5926
  818MOL0     C10320   6.958   5.014   6.712  0.7015 -0.5779  0.5692
  818MOL0     C10321   7.006   5.112   6.792 -0.4463  0.0508 -0.5599
  818MOL0     C10322   7.061   5.090   6.914  0.8963  0.0907  0.2079
  818MOL0     C10323   7.066   4.960   6.960 -0.1044 -0.0800 -0.4060
  818MOL0     C10324   7.131   4.929   7.095  0.4261 -0.4357  0.0541
  818MOL0     O10325   7.182   5.033   7.173  0.4203 -0.0347 -0.6880
  818MOL0     C10326   7.263   5.008   7.282  0.7789  0.2029  0.2044
  818MOL0     C10327   7.361   4.912   7.281 -0.7491  0.4071 -0.4665
  818MOL0     C10328   7.447   4.902   7.390 -1.0483 -0.7783 -1.2732
  818MOL0     C10329   7.432   4.976   7.507 -0.4972 -0.1950  1.0924
  818MOL0     O10330   7.527   4.967   7.605 -0.1629  1.0055  0.0450
  818MOL0     C10331   7.667   4.968   7.556  0.1951  0.6114  0.7291
  818MOL0     C10332   7.767   4.935   7.671 -0.6773 -0.6838 -0.5427
  818MOL0     C10333   7.908   4.908   7.619 -0.1698 -1.1400 -0.7407
  818MOL0     C10334   7.978   5.033   7.563 -0.4528 -0.2018  0.6788
  818MOL0     C10335   8.122   4.989   7.509  0.8708  0.0295 -0.8023
  818MOL0     C10336   8.122   4.924   7.364 -0.0364 -0.6737 -0.1366
  818MOL0     C10337   8.264   4.929   7.307 -0.7544  1.1329  0.6281
  818MOL0     C10338   8.356   4.831   7.379 -0.3717  0.6560  0.8072
  818MOL0    Cl10339   8.508   4.916   7.431  0.4963 -0.0764 -0.1098
  818MOL0     C10340   7.325   5.065   7.510  0.1472  0.2952 -0.5155
  818MOL0     C10341   7.245   5.081   7.398  0.2608  0.2438  0.0126
  818MOL0     O10342   7.157   4.810   7.115 -0.4692 -0.0469 -0.3258
  818MOL0     C10343   7.027   4.847   6.881  0.5665 -0.1335  0.4363
  818MOL0     C10344   6.984   4.880   6.753  1.0183  0.0767  0.2631
  818MOL0     N10345   6.421   5.270   6.296 -0.4667 -1.0567  0.1332
  818MOL0     N10346   6.381   5.366   6.375  0.9718  0.4262  0.1477
  818MOL0     C10347   6.620   4.891   7.435 -0.0030 -0.2034 -0.0796
  818MOL0     C10348   6.642   4.852   7.565 -0.1419  0.4531  0.1429
  818MOL0     C10349   6.925   4.649   7.894 -0.1059 -0.2823  0.2495
  818MOL0     C10350   6.837   4.659   8.007 -0.9691 -0.1216  0.8629
  818MOL0     C10351   6.880   4.643   8.142 -0.4093  0.6391  0.6590
  818MOL0     C10352   7.017   4.624   8.166 -0.6832 -0.4637 -0.6219
  818MOL0     O10353   7.081   4.612   8.289 -0.0338 -0.3254  0.0439
  818MOL0     C10354   7.004   4.611   8.410  0.7697 -0.9653 -0.1245
  818MOL0     C10355   7.083   4.648   8.542  0.2092 -0.2510 -0.0771
  818MOL0     C10356   7.216   4.569   8.565 -0.5763  0.7553 -0.3603
  818MOL0     C10357   7.203   4.421   8.608  0.2149  0.4839 -0.9858
  818MOL0     C10358   7.338   4.357   8.594  0.4329 -0.5905  0.1016
  818MOL0     C10359   7.446   4.307   8.568  0.0002  0.1633 -0.7659
  818MOL0     C10360   7.097   4.617   8.057 -0.1740  0.1511 -0.3592
  818MOL0     C10361   7.060   4.631   7.926 -0.5137 -0.6959  0.6170
  818MOL0     C10362   7.171   4.616   7.822 -0.1575  0.8623  0.4648
  818MOL0     H10363   6.981   4.786   7.534 -0.3398 -1.6660 -0.3588
  818MOL0     H10364   6.939   4.854   7.299  2.3348  1.7978  1.6077
  818MOL0     H10365   6.850   4.938   7.106 -0.2227 -0.7580  1.0158
  818MOL0     H10366   6.781   4.772   7.089 -0.5247 -0.5670  1.0454
  818MOL0     H10367   6.593   4.870   6.967  0.1315 -1.2228  2.0773
  818MOL0     H10368   6.753   4.897   6.886 -2.4834 -0.8699 -1.2139
  818MOL0     H10369   6.765   5.136   6.975  1.1629 -1.7499  1.2103
  818MOL0     H10370   6.628   5.105   7.083 -0.1747 -2.0283  0.0523
  818MOL0     H10371   6.625   5.109   6.777  2.0480 -0.3651  1.2591
  818MOL0     H10372   6.485   5.106   6.898 -0.6758 -1.6544  0.6003
  818MOL0     H10373   6.514   5.324   6.968  0.6238 -2.0615  1.8188
  818MOL0     H10374   6.676   5.349   6.896  0.3452  0.1770 -3.8846
  818MOL0     H10375   6.537   5.469   6.762 -1.0029 -1.0668 -0.6433
  818MOL0     H10376   6.576   5.325   6.669  0.5239 -0.2834 -1.0010
  818MOL0     H10377   6.305   5.378   6.818  0.1425 -2.8693  1.2796
  818MOL0     H10378   6.351   5.229   6.760  0.7497 -0.5169 -0.9525
  818MOL0     H10379   6.206   5.360   6.619 -0.1085 -0.8952 -0.8389
  818MOL0     H10380   6.318   5.492   6.597 -2.4054 -0.0804 -1.4252
  818MOL0     H10381   6.415   5.124   6.584 -0.6719  0.2825  0.9635
  818MOL0     H10382   6.403   4.970   6.290 -0.9963  3.3958  0.0658
  818MOL0     H10383   6.541   5.045   6.217  0.7306  1.1252  1.0006
  818MOL0     H10384   6.545   4.913   6.489  2.7563 -2.8483 -0.7446
  818MOL0     H10385   6.639   4.869   6.350  1.4237  0.8736  0.1958
  818MOL0     H10386   6.678   5.110   6.525  4.0610  2.4870  0.3349
  818MOL0     H10387   6.752   5.102   6.362 -0.0911  2.1413  0.1257
  818MOL0     H10388   6.891   4.908   6.461  2.0163  1.4516  0.3858
  818MOL0     H10389   6.771   4.901   6.600  0.1299 -0.4145 -0.0600
  818MOL0     H10390   7.003   5.217   6.763  0.6491 -0.0476 -1.0872
  818MOL0     H10391   7.101   5.171   6.974  2.2460 -1.6904  1.8290
  818MOL0     H10392   7.373   4.832   7.209 -1.3748 -0.7968  0.7452
  818MOL0     H10393   7.514   4.817   7.378 -0.9310 -0.5811 -2.0955
  818MOL0     H10394   7.688   4.896   7.477 -0.0742  2.9691 -1.6274
  818MOL0     H10395   7.703   5.063   7.514 -2.1917  0.2624 -2.4647
  818MOL0     H10396   7.774   5.016   7.744 -1.3314 -0.2804 -0.9157
  818MOL0     H10397   7.723   4.845   7.716  0.3140 -0.9401 -0.0547
  818MOL0     H10398   7.972   4.876   7.702  0.6906  0.5166 -0.7222
  818MOL0     H10399   7.901   4.826   7.548 -2.5134 -1.8397  0.2121
  818MOL0     H10400   7.989   5.104   7.646  1.7334  0.3283 -0.0056
  818MOL0     H10401   7.923   5.076   7.479 -1.5657  1.5533  2.2187
  818MOL0     H10402   8.160   4.917   7.581 -0.9087 -1.8827 -1.7088
  818MOL0     H10403   8.184   5.080   7.505 -1.2524  1.5280 -1.0259
  818MOL0     H10404   8.069   4.828   7.353 -0.1904 -0.8706  1.9391
  818MOL0     H10405   8.070   4.997   7.302  0.9251  0.0827 -0.0675
  818MOL0     H10406   8.314   5.026   7.299  0.7069  0.3219 -0.6013
  818MOL0     H10407   8.264   4.900   7.201 -0.8104 -0.6600  1.0897
  818MOL0     H10408   8.322   4.772   7.464  0.5034 -0.9727  0.0658
  818MOL0     H10409   8.388   4.751   7.312  1.6255 -0.5521  3.0577
  818MOL0     H10410   7.306   5.131   7.593 -2.3124 -1.3351  0.3380
  818MOL0     H10411   7.155   5.142   7.401 -1.0855 -1.6863  2.5924
  818MOL0     H10412   7.049   4.745   6.910 -0.3074 -0.3579  0.3321
  818MOL0     H10413   6.965   4.795   6.688 -0.7832  0.7164 -0.0890
  818MOL0     H10414   6.514   4.904   7.419 -0.4623 -1.5983  1.5310
  818MOL0     H10415   6.572   4.863   7.647  0.0034  0.6299  0.2438
  818MOL0     H10416   6.733   4.668   7.977 -0.4436  0.2847 -0.9977
  818MOL0     H10417   6.813   4.645   8.227  2.3360  0.3922  2.9760
  818MOL0     H10418   6.964   4.510   8.415 -0.2761 -0.5367  0.3738
  818MOL0     H10419   6.916   4.674   8.395 -0.1685 -1.8058  1.5138
  818MOL0     H10420   7.025   4.649   8.635  0.6008 -2.6446  0.2571
  818MOL0     H10421   7.116   4.753   8.534 -1.4941  0.5418  2.2510
  818MOL0     H10422   7.288   4.621   8.629  0.7478 -0.1111 -1.1075
  818MOL0     H10423   7.271   4.572   8.471  0.9179  1.6521  0.4987
  818MOL0     H10424   7.172   4.418   8.713  0.1372 -0.2955 -1.0275
  818MOL0     H10425   7.125   4.367   8.553 -0.4692 -0.6723  1.0048
  818MOL0     H10426   7.547   4.274   8.556  0.9084  0.4675  4.1079
  818MOL0     H10427   7.205   4.619   8.065 -0.1064 -0.2725 -1.1178
  818MOL0     H10428   7.263   4.585   7.873 -1.0876  0.5838  2.0573
  818MOL0     H10429   7.152   4.545   7.741 -0.6725 -0.8862  2.0425
  818MOL0     H10430   7.186   4.711   7.770  2.1926 -0.9246 -2.4447
  819MOL0     O10431  10.099   3.027   6.284  0.1219 -0.5410  0.3792
  819MOL0     C10432  10.106   3.133   6.358 -0.1644 -0.2717  0.3242
  819MOL0     O10433  10.233   3.192   6.384 -0.1173  0.7235 -0.1328
  819MOL0     C10434  10.342   3.182   6.293  0.6152 -0.2037 -0.2412
  819MOL0     C10435  10.316   3.187   6.154  0.0116 -0.1444 -0.4105
  819MOL0     C10436  10.421   3.195   6.060 -0.1222  0.4396 -0.4454
  819MOL0     C10437  10.552   3.198   6.101 -0.2847 -0.2226  0.6551
  819MOL0     O10438  10.647   3.206   5.998 -0.3316  0.0694 -0.0132
  819MOL0     C10439  10.782   3.165   6.023 -0.1919  0.1851 -0.2389
  819MOL0     C10440  10.882   3.206   5.913 -0.0481  0.7642 -0.0274
  819MOL0     C10441  10.827   3.190   5.773  0.2812 -0.3103  0.4121
  819MOL0     C10442  10.928   3.245   5.674 -0.7966  0.8718 -0.1037
  819MOL0     C10443  10.873   3.296   5.537  0.4733 -0.4377 -0.5746
  819MOL0     C10444  10.785   3.187   5.461  0.6455  0.4141 -1.0279
  819MOL0     C10445  10.752   3.244   5.321 -0.8558 -0.7653  1.2137
  819MOL0     C10446  10.864   3.206   5.216  0.1386 -0.5352  0.7444
  819MOL0     N10447  10.849   3.286   5.090 -0.1533 -0.2244 -0.4615
  819MOL0     C10448  10.956   3.352   5.030 -0.2161  0.2802 -0.4762
  819MOL0     C10449  10.893   3.406   4.921 -0.5396 -0.0022 -0.2094
  819MOL0     C10450  10.956   3.484   4.817 -0.8396 -0.2152 -0.5266
  819MOL0     C10451  10.965   3.417   4.684  0.8180 -0.3059  0.1168
  819MOL0     C10452  10.985   3.503   4.566 -0.3224 -0.2716 -0.4487
  819MOL0     C10453  11.118   3.554   4.536 -0.5415 -0.1661  0.3168
  819MOL0     O10454  11.202   3.450   4.505 -0.8328  0.8202 -0.0806
  819MOL0     C10455  11.341   3.478   4.493 -0.8435  0.0521 -0.7085
  819MOL0     C10456  11.432   3.372   4.481  0.8786  0.4717  0.1215
  819MOL0     C10457  11.573   3.384   4.468  0.2218 -0.3366  0.3885
  819MOL0     C10458  11.635   3.516   4.462 -0.7354  0.1443 -0.7777
  819MOL0     C10459  11.784   3.538   4.448 -0.8565 -0.1725  0.7654
  819MOL0     O10460  11.863   3.433   4.417  0.5917  0.1853  0.1217
  819MOL0     C10461  12.000   3.458   4.394 -0.0229  0.2092 -0.0638
  819MOL0     C10462  12.047   3.512   4.271 -0.2636  0.0774 -0.3915
  819MOL0     C10463  12.188   3.533   4.248  0.6959 -0.5735  0.0240
  819MOL0     C10464  12.282   3.493   4.346 -0.2469  0.2045  0.4188
  819MOL0     O10465  12.416   3.510   4.320  0.0092 -0.0870  0.4183
  819MOL0     C10466  12.453   3.643   4.282  0.9365 -0.3108  0.0743
  819MOL0     C10467  12.576   3.690   4.369  0.3947 -0.0580 -0.2222
  819MOL0     C10468  12.707   3.622   4.337  0.1606 -0.0026  0.0499
  819MOL0     C10469  12.740   3.634   4.190  0.7052  0.2092 -0.1901
  819MOL0     C10470  12.886   3.605   4.152 -0.1021  0.4775 -0.5736
  819MOL0     C10471  12.942   3.478   4.199 -0.0597  0.0184  0.0223
  819MOL0     C10472  13.097   3.478   4.190 -0.1768  0.2867 -0.3431
  819MOL0     C10473  13.163   3.345   4.228  0.4816 -0.0836 -0.2730
  819MOL0    Cl10474  13.122   3.299   4.394  0.0649  0.4598  0.1864
  819MOL0     C10475  12.232   3.454   4.472  0.4016  0.1825 -0.5808
  819MOL0     C10476  12.092   3.444   4.497 -0.3064 -0.5738  0.8207
  819MOL0     O10477  11.823   3.653   4.467 -0.8349 -0.0964  0.7145
  819MOL0     C10478  11.537   3.625   4.476  1.1357 -0.4106  0.3315
  819MOL0     C10479  11.399   3.604   4.477 -0.9973 -0.3015  0.0518
  819MOL0     N10480  10.757   3.373   4.923 -0.5295  0.4364  0.7655
  819MOL0     N10481  10.738   3.297   5.024  0.3966 -0.4385 -0.0324
  819MOL0     C10482  10.578   3.197   6.242 -0.1808 -0.1598  0.5888
  819MOL0     C10483  10.474   3.190   6.331  0.3204  0.4329 -0.1596
  819MOL0     C10484   9.990   3.204   6.420  0.8439  0.5479 -0.0883
  819MOL0     C10485   9.994   3.340   6.453  0.2464 -0.4811 -0.4190
  819MOL0     C10486   9.876   3.418   6.480 -0.0745 -0.0493  0.6759
  819MOL0     C10487   9.755   3.356   6.485 -0.0543  0.4393 -0.2207
  819MOL0     O10488   9.655   3.444   6.528 -0.9928  0.4275 -0.0061
  819MOL0     C10489   9.529   3.381   6.545 -0.2489 -0.6157  0.3031
  819MOL0     C10490   9.421   3.477   6.556  1.0265 -0.8160 -0.2026
  819MOL0     C10491   9.451   3.585   6.666  0.4429  0.5287  0.3381
  819MOL0     C10492   9.439   3.513   6.798 -0.3790 -0.4103  0.4016
  819MOL0     C10493   9.308   3.525   6.859 -0.4704  0.1307 -0.2292
  819MOL0     C10494   9.196   3.530   6.911 -0.1030  0.1845 -0.5190
  819MOL0     C10495   9.747   3.217   6.460  1.0135 -0.1015 -0.3099
  819MOL0     C10496   9.863   3.142   6.430  0.2044 -0.3040  0.3394
  819MOL0     C10497   9.853   2.993   6.419  0.0736  0.0792 -0.5297
  819MOL0     H10498  10.212   3.202   6.126  0.5330  0.0269 -2.3995
  819MOL0     H10499  10.392   3.188   5.955  1.0261  0.7061 -0.7863
  819MOL0     H10500  10.825   3.184   6.122 -1.1870  2.8624 -0.2457
  819MOL0     H10501  10.782   3.056   6.026  2.8714  0.1303  0.8977
  819MOL0     H10502  10.972   3.144   5.908 -2.3718 -2.9849  0.5066
  819MOL0     H10503  10.908   3.307   5.946  0.7363  0.4960  0.2040
  819MOL0     H10504  10.732   3.243   5.763  1.1201  1.9558  3.2181
  819MOL0     H10505  10.809   3.083   5.757 -1.9398  0.1896 -0.8757
  819MOL0     H10506  10.988   3.321   5.725  0.2622 -1.2638  2.0628
  819MOL0     H10507  11.001   3.164   5.664 -0.0981  1.2061  1.8654
  819MOL0     H10508  10.805   3.376   5.566 -0.0025 -1.3521  0.9766
  819MOL0     H10509  10.956   3.341   5.481  3.1382 -2.6364  1.3062
  819MOL0     H10510  10.833   3.089   5.457  2.0588  0.8684  1.8721
  819MOL0     H10511  10.693   3.174   5.518 -0.4255 -0.0541 -2.8075
  819MOL0     H10512  10.744   3.353   5.321  4.0571 -0.1950  1.1371
  819MOL0     H10513  10.665   3.194   5.277  0.5540 -0.2228 -2.5037
  819MOL0     H10514  10.959   3.232   5.265  0.3733  3.1255 -1.3396
  819MOL0     H10515  10.854   3.098   5.202  0.2719 -0.4667  0.0767
  819MOL0     H10516  11.059   3.359   5.065  0.3312 -4.4757 -0.4702
  819MOL0     H10517  10.909   3.583   4.813 -2.2524 -0.7612  1.2513
  819MOL0     H10518  11.058   3.503   4.851 -0.0400 -1.6383 -2.0128
  819MOL0     H10519  11.051   3.350   4.692  1.4056  0.5602  1.5637
  819MOL0     H10520  10.867   3.371   4.669  0.2772  1.2770 -1.5180
  819MOL0     H10521  10.906   3.578   4.570 -0.0995 -0.1018  1.4190
  819MOL0     H10522  10.964   3.432   4.485  0.7283 -0.5221 -0.5189
  819MOL0     H10523  11.160   3.607   4.622 -0.9099  0.8969 -0.1307
  819MOL0     H10524  11.114   3.628   4.455 -0.3676 -1.9165 -1.3396
  819MOL0     H10525  11.383   3.275   4.494 -3.0750  2.2592  0.1948
  819MOL0     H10526  11.631   3.296   4.442  2.6528  0.4575  2.6687
  819MOL0     H10527  11.984   3.511   4.183 -1.4440  0.0880  0.4269
  819MOL0     H10528  12.207   3.572   4.149 -0.7648  1.3388  0.4332
  819MOL0     H10529  12.481   3.648   4.176  1.1986  0.4829  0.1750
  819MOL0     H10530  12.366   3.709   4.289 -1.1889 -2.9992  0.5326
  819MOL0     H10531  12.600   3.797   4.368  0.0530  0.0173 -0.5195
  819MOL0     H10532  12.555   3.666   4.473 -0.5334 -2.4214 -0.8827
  819MOL0     H10533  12.790   3.648   4.404 -0.4654 -0.2551  0.9560
  819MOL0     H10534  12.694   3.517   4.366 -1.6538 -0.7171 -2.9422
  819MOL0     H10535  12.712   3.733   4.153 -0.1691  1.0227  2.4409
  819MOL0     H10536  12.671   3.561   4.147 -0.6902  0.6816  1.1483
  819MOL0     H10537  12.934   3.686   4.207  2.8148  0.0969 -2.3081
  819MOL0     H10538  12.893   3.608   4.043 -2.3983  1.3766 -0.7554
  819MOL0     H10539  12.913   3.459   4.303  0.4440  2.3088  0.6334
  819MOL0     H10540  12.904   3.399   4.133  1.7056  0.9120 -2.1954
  819MOL0     H10541  13.130   3.546   4.269 -2.8041  0.0957  1.0627
  819MOL0     H10542  13.122   3.513   4.090  1.5266  0.9847  0.2890
  819MOL0     H10543  13.130   3.266   4.160  0.9833  0.1265 -0.7731
  819MOL0     H10544  13.271   3.361   4.220  0.3208  2.2641  1.0957
  819MOL0     H10545  12.309   3.429   4.544  0.9183 -0.4794 -1.3315
  819MOL0     H10546  12.073   3.419   4.601  0.0405 -1.4423  0.6896
  819MOL0     H10547  11.565   3.730   4.466  0.9840 -0.4236 -0.3004
  819MOL0     H10548  11.332   3.690   4.481 -0.6074  0.1192 -1.6688
  819MOL0     H10549  10.674   3.205   6.291 -1.3090 -0.1780  2.9535
  819MOL0     H10550  10.502   3.199   6.436  0.1367 -1.2113  0.0615
  819MOL0     H10551  10.089   3.391   6.464 -0.7916  0.9059  4.4278
  819MOL0     H10552   9.884   3.522   6.511 -1.6047 -0.1021  1.2920
  819MOL0     H10553   9.527   3.307   6.625 -0.2770  0.2007  1.0776
  819MOL0     H10554   9.517   3.321   6.454 -0.4166 -0.3935  0.1783
  819MOL0     H10555   9.326   3.426   6.575  0.3222  0.2514 -0.7288
  819MOL0     H10556   9.407   3.537   6.466 -0.9944  0.5240  0.9341
  819MOL0     H10557   9.378   3.667   6.659 -0.3511 -0.3055 -2.1939
  819MOL0     H10558   9.550   3.631   6.658  1.8634 -2.5739 -1.8509
  819MOL0     H10559   9.461   3.406   6.798 -0.3445 -0.4056  0.0806
  819MOL0     H10560   9.499   3.568   6.871  1.6263 -2.2156  0.2197
  819MOL0     H10561   9.102   3.531   6.961 -0.5774  2.1303 -1.3809
  819MOL0     H10562   9.661   3.152   6.477  1.6320 -1.1951 -1.2184
  819MOL0     H10563   9.942   2.945   6.460  1.2295  0.9508 -1.9398
  819MOL0     H10564   9.766   2.963   6.478  2.1854 -3.1182  1.2352
  819MOL0     H10565   9.842   2.959   6.316  0.0054  0.7519 -0.7537
  820MOL0     O10566   2.263   1.336   9.384 -1.1159  0.0096  0.2330
  820MOL0     C10567   2.270   1.217   9.410  0.6986 -0.3102 -0.4375
  820MOL0     O10568   2.374   1.153   9.449 -0.2421  0.6091  0.4269
  820MOL0     C10569   2.481   1.228   9.475 -0.1257  0.0260  0.1711
  820MOL0     C10570   2.592   1.228   9.381  0.1828 -0.6273 -0.2599
  820MOL0     C10571   2.710   1.292   9.413  0.9996  0.3858 -0.4314
  820MOL0     C10572   2.724   1.366   9.529 -1.4830  0.0805 -0.3321
  820MOL0     O10573   2.847   1.433   9.548  0.4083 -0.2375  0.4673
  820MOL0     C10574   2.870   1.505   9.667 -0.1601 -0.1293  0.1075
  820MOL0     C10575   3.006   1.581   9.661  0.4863  0.5001  0.3972
  820MOL0     C10576   3.118   1.476   9.658 -0.3620 -0.2308 -0.4237
  820MOL0     C10577   3.251   1.548   9.682 -0.5373  0.1646 -0.0921
  820MOL0     C10578   3.366   1.444   9.691  0.9617 -0.4488 -0.2044
  820MOL0     C10579   3.500   1.516   9.704  0.2966  0.1272 -0.3460
  820MOL0     C10580   3.621   1.427   9.710 -0.7148  0.2207  0.6660
  820MOL0     C10581   3.749   1.502   9.736 -0.0457 -0.1985 -0.2922
  820MOL0     N10582   3.868   1.406   9.727  0.1878 -0.7303  0.1998
  820MOL0     C10583   3.949   1.382   9.617  0.0728 -0.0593  0.1374
  820MOL0     C10584   4.063   1.328   9.653  0.6533  0.1043 -0.1189
  820MOL0     C10585   4.168   1.300   9.546  0.0888 -0.0483  0.9411
  820MOL0     C10586   4.311   1.294   9.596  0.1228  0.8068 -0.4541
  820MOL0     C10587   4.328   1.176   9.689 -0.2703  0.5413  0.0945
  820MOL0     C10588   4.474   1.124   9.695  0.6134  0.3012  0.0594
  820MOL0     O10589   4.518   1.066   9.569  0.0215  0.5046 -0.6421
  820MOL0     C10590   4.637   1.001   9.569  0.9110 -0.1361 -1.0051
  820MOL0     C10591   4.690   0.979   9.448 -0.4896  0.4806  0.0638
  820MOL0     C10592   4.814   0.918   9.426  0.5678  0.1735  0.4414
  820MOL0     C10593   4.884   0.865   9.531 -0.1085  0.6214  0.4249
  820MOL0     C10594   4.994   0.770   9.499  0.0094 -0.1021  0.3806
  820MOL0     O10595   5.006   0.712   9.376  0.3808 -0.0803  0.7699
  820MOL0     C10596   5.132   0.659   9.365 -0.1891  0.2752 -0.4561
  820MOL0     C10597   5.236   0.752   9.340  0.1311 -0.3318  0.0251
  820MOL0     C10598   5.366   0.699   9.317 -0.5988  0.0736  0.2082
  820MOL0     C10599   5.392   0.565   9.333  0.1748  0.4338 -0.3322
  820MOL0     O10600   5.517   0.503   9.307  0.3669  0.2349  0.8586
  820MOL0     C10601   5.625   0.590   9.268 -0.4729 -0.0223  0.5602
  820MOL0     C10602   5.692   0.680   9.377  0.1816  0.4576 -0.2063
  820MOL0     C10603   5.810   0.756   9.322  0.3396 -0.2288 -0.4386
  820MOL0     C10604   5.936   0.684   9.299 -0.0307  0.2139  0.6823
  820MOL0     C10605   6.055   0.776   9.272 -0.2399  0.3410 -0.0720
  820MOL0     C10606   6.190   0.706   9.280 -0.3076 -0.2523  0.2961
  820MOL0     C10607   6.310   0.801   9.283  0.2897  0.0360  0.1418
  820MOL0     C10608   6.438   0.730   9.222 -0.0535 -1.1537 -0.2085
  820MOL0    Cl10609   6.579   0.847   9.197  0.1974  0.0138  0.0412
  820MOL0     C10610   5.283   0.475   9.361 -0.2781 -0.2992 -0.4337
  820MOL0     C10611   5.157   0.523   9.379  0.5277 -0.4699  0.7835
  820MOL0     O10612   5.073   0.754   9.588 -0.0033  0.3564 -0.5903
  820MOL0     C10613   4.837   0.897   9.658  0.2335 -0.4988 -0.3515
  820MOL0     C10614   4.716   0.966   9.680 -0.0162  0.9151 -0.3755
  820MOL0     N10615   4.050   1.292   9.784 -0.3010  0.2166 -0.3042
  820MOL0     N10616   3.937   1.340   9.831 -0.2173 -0.1695  0.4079
  820MOL0     C10617   2.618   1.358   9.629 -0.1797  0.0901  0.3020
  820MOL0     C10618   2.501   1.296   9.599  0.5658 -0.0833  0.5646
  820MOL0     C10619   2.155   1.132   9.373  0.2229 -0.2510 -0.4815
  820MOL0     C10620   2.171   1.003   9.313 -0.8582 -0.3218  0.5241
  820MOL0     C10621   2.071   0.911   9.280  0.4524 -0.7716 -0.3465
  820MOL0     C10622   1.944   0.954   9.303  0.8888  0.7229  0.2028
  820MOL0     O10623   1.835   0.876   9.276  0.1583 -0.2841  0.6711
  820MOL0     C10624   1.840   0.740   9.231  0.1396  0.1080  0.6264
  820MOL0     C10625   1.707   0.662   9.229  0.3533  0.7233 -0.6768
  820MOL0     C10626   1.595   0.711   9.132  0.3518  0.5040  0.3154
  820MOL0     C10627   1.523   0.830   9.188 -0.4332 -0.2952  0.6182
  820MOL0     C10628   1.425   0.888   9.094  0.7327 -0.3336  0.6522
  820MOL0     C10629   1.335   0.934   9.027  0.8355 -0.3393 -0.4378
  820MOL0     C10630   1.919   1.079   9.367  0.2507  0.5361 -0.6611
  820MOL0     C10631   2.021   1.162   9.408  0.1571 -0.1614 -0.5333
  820MOL0     C10632   1.980   1.288   9.491 -0.1437 -0.0705  0.3190
  820MOL0     H10633   2.592   1.166   9.292 -0.4802 -1.0681  0.0393
  820MOL0     H10634   2.787   1.298   9.337  1.2241  1.0967 -0.1572
  820MOL0     H10635   2.790   1.579   9.668 -1.3800 -1.1956 -3.5189
  820MOL0     H10636   2.858   1.434   9.749 -2.3202  1.3752  1.1832
  820MOL0     H10637   3.011   1.632   9.758  3.3512 -2.0382  1.7725
  820MOL0     H10638   3.013   1.647   9.575 -1.2968  0.9577  0.5664
  820MOL0     H10639   3.124   1.434   9.557 -0.7853 -1.1082 -0.0987
  820MOL0     H10640   3.100   1.403   9.738  4.3244  0.7945  1.9217
  820MOL0     H10641   3.277   1.613   9.598 -0.0973 -1.0405 -0.9117
  820MOL0     H10642   3.244   1.607   9.774 -2.7229  1.0395 -0.7471
  820MOL0     H10643   3.342   1.398   9.787 -0.1336  1.3418  0.4275
  820MOL0     H10644   3.361   1.368   9.613 -2.3879 -1.2608  0.6476
  820MOL0     H10645   3.512   1.573   9.611 -2.5282 -1.6725 -1.9378
  820MOL0     H10646   3.492   1.588   9.786  2.1626 -1.1857  1.0773
  820MOL0     H10647   3.633   1.371   9.617 -1.8913 -0.9462  1.1939
  820MOL0     H10648   3.616   1.343   9.780 -1.7548 -0.7452 -0.5264
  820MOL0     H10649   3.763   1.583   9.664 -1.8305 -0.6366 -1.1844
  820MOL0     H10650   3.741   1.545   9.837  1.1589  0.1031 -0.3081
  820MOL0     H10651   3.930   1.424   9.519  0.1176 -0.6419 -0.1221
  820MOL0     H10652   4.149   1.212   9.483 -0.0208 -0.1926  1.1736
  820MOL0     H10653   4.167   1.384   9.477  1.0184  0.6235  1.7042
  820MOL0     H10654   4.367   1.260   9.509  2.3339 -1.2837  1.6093
  820MOL0     H10655   4.349   1.383   9.647  1.8205  0.3778 -0.9370
  820MOL0     H10656   4.266   1.093   9.653 -0.0092  0.6686 -0.6570
  820MOL0     H10657   4.292   1.204   9.789  1.1040 -0.5185  0.9180
  820MOL0     H10658   4.465   1.049   9.775 -0.6715 -0.1904 -0.5148
  820MOL0     H10659   4.534   1.211   9.722 -0.5437  0.8798  0.8604
  820MOL0     H10660   4.636   1.010   9.359 -0.1178  0.6313 -0.1088
  820MOL0     H10661   4.843   0.889   9.325  0.7802  0.2199  0.4894
  820MOL0     H10662   5.230   0.861   9.335 -0.3474 -0.2991  1.0541
  820MOL0     H10663   5.437   0.776   9.286  0.5151 -1.7062 -1.9987
  820MOL0     H10664   5.713   0.526   9.259 -0.5419 -0.1554  0.8375
  820MOL0     H10665   5.598   0.641   9.175 -3.5063 -2.8864 -0.3436
  820MOL0     H10666   5.620   0.754   9.415  2.0721  0.9005  2.8671
  820MOL0     H10667   5.712   0.618   9.465  0.2870  0.6552 -0.0887
  820MOL0     H10668   5.786   0.801   9.226 -1.2039 -2.1964 -1.0455
  820MOL0     H10669   5.822   0.840   9.391 -0.9234 -0.0776 -0.3822
  820MOL0     H10670   5.913   0.628   9.208  3.3341 -0.9710  0.4323
  820MOL0     H10671   5.962   0.618   9.382  0.7251 -0.1259  0.1863
  820MOL0     H10672   6.046   0.857   9.345 -0.4543  1.0801 -0.9008
  820MOL0     H10673   6.044   0.823   9.174 -0.8407 -1.4777 -0.9347
  820MOL0     H10674   6.180   0.637   9.364 -0.0728  0.4401  0.9056
  820MOL0     H10675   6.195   0.646   9.189 -4.4889 -1.1328  0.4698
  820MOL0     H10676   6.330   0.843   9.382  2.6308  1.3533 -0.8143
  820MOL0     H10677   6.274   0.888   9.228 -0.6450 -0.2624  0.2660
  820MOL0     H10678   6.467   0.634   9.267  1.5962  0.2570  1.9555
  820MOL0     H10679   6.420   0.706   9.116  0.7251 -2.2845 -0.1073
  820MOL0     H10680   5.289   0.369   9.381 -2.8171 -0.1174  1.8849
  820MOL0     H10681   5.078   0.449   9.390  1.9709 -2.7404 -2.5383
  820MOL0     H10682   4.880   0.865   9.752 -1.7482  1.0954  1.1964
  820MOL0     H10683   4.680   0.988   9.780 -0.8485  0.7855 -0.6416
  820MOL0     H10684   2.626   1.407   9.726  0.9529 -0.5152  0.5265
  820MOL0     H10685   2.426   1.269   9.672  1.2440 -0.8059  1.0246
  820MOL0     H10686   2.264   0.970   9.267 -0.1132 -0.1008  1.8185
  820MOL0     H10687   2.100   0.824   9.222  2.1598 -0.3713 -0.1711
  820MOL0     H10688   1.910   0.701   9.306  0.2465  2.2795  1.7392
  820MOL0     H10689   1.884   0.733   9.131  1.9152 -1.1686  1.4398
  820MOL0     H10690   1.666   0.647   9.330 -3.4803 -0.4906 -2.2260
  820MOL0     H10691   1.730   0.561   9.194  1.3619  0.4379  0.7154
  820MOL0     H10692   1.518   0.634   9.116 -2.8590  3.7235 -1.4327
  820MOL0     H10693   1.635   0.734   9.032 -3.0159 -0.2877 -1.3806
  820MOL0     H10694   1.485   0.801   9.287  2.8699  0.7276  2.3290
  820MOL0     H10695   1.592   0.912   9.209  0.9798 -1.2682 -0.0772
  820MOL0     H10696   1.256   0.983   8.973 -0.8316 -2.3300  0.0424
  820MOL0     H10697   1.813   1.099   9.373  0.3347  0.8868 -0.3153
  820MOL0     H10698   1.877   1.268   9.521 -0.3596 -2.6460 -1.7801
  820MOL0     H10699   2.052   1.309   9.572  0.0237  1.7226 -0.2475
  820MOL0     H10700   1.986   1.378   9.429 -0.5293  2.2951  3.4614
  821MOL0     O10701   2.451   8.876   8.946 -0.4021  0.1319  0.7442
  821MOL0     C10702   2.399   8.845   8.841 -0.6275 -0.0502 -0.3026
  821MOL0     O10703   2.463   8.834   8.719  0.0911  0.2569 -0.1466
  821MOL0     C10704   2.598   8.810   8.721  1.3091 -0.5957 -0.3072
  821MOL0     C10705   2.698   8.906   8.753 -0.6811  0.2847  0.0219
  821MOL0     C10706   2.837   8.873   8.722 -0.3754  0.2047  1.1093
  821MOL0     C10707   2.872   8.748   8.672  0.8788  0.4622  0.2458
  821MOL0     O10708   3.000   8.694   8.657 -0.1760  0.0086  0.3594
  821MOL0     C10709   3.113   8.785   8.645 -0.6496 -0.9004  0.2780
  821MOL0     C10710   3.241   8.712   8.663  0.1363  0.6370 -0.1824
  821MOL0     C10711   3.367   8.793   8.614  0.3998 -0.1117  0.1694
  821MOL0     C10712   3.500   8.717   8.649  0.0314  0.5600  0.5523
  821MOL0     C10713   3.509   8.580   8.574  0.4443 -0.9777 -0.3773
  821MOL0     C10714   3.649   8.518   8.602 -0.8183  1.1406  0.0509
  821MOL0     C10715   3.676   8.387   8.518 -0.8928 -0.0799 -0.1105
  821MOL0     C10716   3.745   8.406   8.385  0.3530 -0.0299 -0.3676
  821MOL0     N10717   3.770   8.273   8.325 -0.0525  0.0649  0.3538
  821MOL0     C10718   3.687   8.161   8.314 -0.2632 -0.3133 -0.4071
  821MOL0     C10719   3.763   8.062   8.256 -0.2182 -0.1733  0.7823
  821MOL0     C10720   3.717   7.920   8.214  0.3505  0.0159  0.4994
  821MOL0     C10721   3.627   7.926   8.087  0.0576  0.3716 -1.2997
  821MOL0     C10722   3.698   7.955   7.960 -0.8643  0.2700 -0.0888
  821MOL0     C10723   3.605   7.976   7.841  0.1309 -0.7056  0.1406
  821MOL0     O10724   3.539   7.852   7.816  0.1444  0.5694  0.1569
  821MOL0     C10725   3.417   7.837   7.754  0.4498 -0.2059  0.6896
  821MOL0     C10726   3.335   7.947   7.719  0.0317  0.4078  0.1107
  821MOL0     C10727   3.204   7.930   7.673 -0.0762 -0.0531  0.6588
  821MOL0     C10728   3.141   7.801   7.674 -0.7014 -0.6913  0.3784
  821MOL0     C10729   3.010   7.771   7.610  0.2674 -0.5264 -1.2402
  821MOL0     O10730   2.950   7.883   7.559 -0.3371  0.1207 -0.5299
  821MOL0     C10731   2.813   7.902   7.540 -0.3921  0.3620  1.2493
  821MOL0     C10732   2.749   8.029   7.565 -0.4987 -0.5552  0.7273
  821MOL0     C10733   2.615   8.047   7.517  0.0720 -0.0003 -0.0609
  821MOL0     C10734   2.535   7.949   7.471  0.2824 -0.5230  0.7314
  821MOL0     O10735   2.403   7.964   7.430  0.2156 -0.5802  0.4943
  821MOL0     C10736   2.326   8.066   7.485  0.4729  0.1227 -0.2617
  821MOL0     C10737   2.171   8.054   7.453  1.4568 -0.4102 -0.0269
  821MOL0     C10738   2.088   8.164   7.505 -0.3632  0.6062 -0.2107
  821MOL0     C10739   1.942   8.130   7.478 -0.4876 -0.5591 -0.4467
  821MOL0     C10740   1.859   8.235   7.548 -0.9837 -0.0131  0.2076
  821MOL0     C10741   1.717   8.197   7.560 -0.1726  0.6482 -0.2411
  821MOL0     C10742   1.638   8.212   7.431  0.0216 -0.1593 -0.4474
  821MOL0     C10743   1.520   8.112   7.436 -0.2907  0.6254  0.3724
  821MOL0    Cl10744   1.421   8.132   7.583  0.1438 -0.3718 -0.0184
  821MOL0     C10745   2.597   7.818   7.460  0.7830 -0.1044 -0.6678
  821MOL0     C10746   2.734   7.795   7.495  0.3660  0.3952 -0.0118
  821MOL0     O10747   2.962   7.660   7.633 -0.0044 -0.8907 -0.7728
  821MOL0     C10748   3.220   7.694   7.722 -0.2956 -0.5059  1.1116
  821MOL0     C10749   3.358   7.709   7.752 -0.2702  0.1186 -0.0751
  821MOL0     N10750   3.888   8.111   8.229  0.8692 -0.9697 -0.9804
  821MOL0     N10751   3.890   8.237   8.266  0.3699  0.5574  0.1477
  821MOL0     C10752   2.772   8.659   8.633  0.2614  0.2404 -0.2007
  821MOL0     C10753   2.637   8.694   8.653  0.1511 -0.5225  0.1227
  821MOL0     C10754   2.254   8.838   8.851  0.0441 -0.3647  0.3739
  821MOL0     C10755   2.188   8.887   8.730  0.5502  0.0417 -0.7198
  821MOL0     C10756   2.057   8.854   8.707 -0.0239 -0.4494  0.0992
  821MOL0     C10757   1.978   8.779   8.798 -0.0330  0.0365  0.3236
  821MOL0     O10758   1.843   8.746   8.791  0.2021  0.5894  0.0027
  821MOL0     C10759   1.775   8.793   8.667 -0.3250  0.6589 -0.4702
  821MOL0     C10760   1.716   8.932   8.675  0.0955 -0.1650  0.6201
  821MOL0     C10761   1.626   8.957   8.800 -0.0050 -0.6607  1.4905
  821MOL0     C10762   1.536   8.837   8.837  0.6937  0.0085 -0.3241
  821MOL0     C10763   1.434   8.829   8.731  0.4501  0.3606  0.1906
  821MOL0     C10764   1.352   8.810   8.651  0.4059 -0.3750  0.6141
  821MOL0     C10765   2.043   8.746   8.916 -0.5696 -0.9996  0.8815
  821MOL0     C10766   2.179   8.774   8.949 -0.1424  0.1935  0.4372
  821MOL0     C10767   2.231   8.699   9.065  0.7836  0.4483 -0.3263
  821MOL0     H10768   2.683   9.001   8.804 -0.9824  0.5906 -0.6307
  821MOL0     H10769   2.913   8.949   8.740 -0.0870  0.6380 -1.5319
  821MOL0     H10770   3.099   8.822   8.543 -1.5462 -0.6549  0.4827
  821MOL0     H10771   3.108   8.875   8.707  1.5741  0.3934 -1.2970
  821MOL0     H10772   3.225   8.633   8.589 -1.3288  2.1404 -1.5956
  821MOL0     H10773   3.244   8.680   8.767 -3.3854  2.0775  0.5170
  821MOL0     H10774   3.376   8.875   8.686  0.9418 -0.5114  0.5642
  821MOL0     H10775   3.362   8.834   8.513  2.1206 -0.6726 -0.1789
  821MOL0     H10776   3.588   8.775   8.622 -0.3703 -0.1197 -2.6557
  821MOL0     H10777   3.499   8.694   8.756 -1.6964 -0.5249  0.3453
  821MOL0     H10778   3.438   8.505   8.609  0.7769 -1.7207 -1.2519
  821MOL0     H10779   3.488   8.603   8.469 -0.3775  0.3756  0.0607
  821MOL0     H10780   3.734   8.586   8.586  0.8852 -1.0615 -0.9052
  821MOL0     H10781   3.645   8.490   8.707 -1.1350 -2.0587 -0.6959
  821MOL0     H10782   3.580   8.336   8.502 -0.7057 -0.2974 -0.5570
  821MOL0     H10783   3.751   8.332   8.575  0.6274  2.2676  0.2767
  821MOL0     H10784   3.695   8.481   8.323  2.3508  2.2033  0.5452
  821MOL0     H10785   3.840   8.458   8.401 -0.9646  2.7101 -0.9002
  821MOL0     H10786   3.580   8.165   8.332 -0.2369  1.0173 -0.4246
  821MOL0     H10787   3.805   7.857   8.202  1.4636  1.4867  0.6349
  821MOL0     H10788   3.658   7.871   8.292  1.0401 -2.5648 -0.5090
  821MOL0     H10789   3.570   7.833   8.086  2.0907 -1.0502  1.1989
  821MOL0     H10790   3.554   8.006   8.098 -0.7007 -0.6577  4.6068
  821MOL0     H10791   3.759   7.864   7.955  0.1252  0.5093  4.1426
  821MOL0     H10792   3.763   8.042   7.972  1.2556 -1.2513  0.0067
  821MOL0     H10793   3.655   8.028   7.759 -1.3872  1.9535  0.7665
  821MOL0     H10794   3.534   8.051   7.877  0.1236 -0.1485 -0.9821
  821MOL0     H10795   3.377   8.047   7.718 -1.4149  1.1232 -3.2741
  821MOL0     H10796   3.162   8.021   7.633  0.8602  0.0216 -0.1845
  821MOL0     H10797   2.820   8.093   7.616 -2.8726 -0.2619  3.9889
  821MOL0     H10798   2.572   8.146   7.525  0.4705  0.0059  3.2577
  821MOL0     H10799   2.336   8.058   7.594 -2.0978 -0.1474  0.0050
  821MOL0     H10800   2.363   8.163   7.450 -1.9801  0.9495 -0.7123
  821MOL0     H10801   2.154   8.051   7.345  0.3536  1.1399  0.0700
  821MOL0     H10802   2.130   7.963   7.496 -1.4705  0.8745  0.0927
  821MOL0     H10803   2.097   8.176   7.613 -1.5114  0.2608 -0.0729
  821MOL0     H10804   2.116   8.260   7.461 -1.4450  1.2474  0.4644
  821MOL0     H10805   1.915   8.028   7.508  2.3139 -1.1552  0.3695
  821MOL0     H10806   1.929   8.144   7.371 -0.6364  2.8840 -0.0781
  821MOL0     H10807   1.879   8.329   7.497  3.9632 -1.5989 -1.3597
  821MOL0     H10808   1.896   8.240   7.650  0.5578 -1.3893 -0.2302
  821MOL0     H10809   1.698   8.099   7.605 -0.7613  0.9156  0.1020
  821MOL0     H10810   1.665   8.269   7.625  0.8781  0.8568  0.3937
  821MOL0     H10811   1.700   8.202   7.341 -0.0389  1.6600 -0.7346
  821MOL0     H10812   1.596   8.313   7.421 -0.8705 -0.5315 -0.5177
  821MOL0     H10813   1.459   8.123   7.345  0.9617 -2.0082 -0.8867
  821MOL0     H10814   1.560   8.010   7.436  3.0368  1.7293  3.4364
  821MOL0     H10815   2.533   7.739   7.425  0.9406 -0.5964  0.1216
  821MOL0     H10816   2.771   7.693   7.493  0.3011  0.3609 -2.8572
  821MOL0     H10817   3.177   7.595   7.720 -1.0326 -0.1855  0.7132
  821MOL0     H10818   3.408   7.613   7.764 -0.6324 -0.1941 -0.9375
  821MOL0     H10819   2.800   8.570   8.578 -1.9882  0.7957 -2.4481
  821MOL0     H10820   2.554   8.637   8.613 -0.7766  0.2190  0.9289
  821MOL0     H10821   2.245   8.939   8.654 -2.8761  1.8293 -2.2508
  821MOL0     H10822   2.007   8.887   8.616 -2.4937 -0.1172  1.4834
  821MOL0     H10823   1.695   8.719   8.661  1.1005 -1.5009  3.3095
  821MOL0     H10824   1.837   8.776   8.578  0.0146  2.5358 -0.6353
  821MOL0     H10825   1.667   8.948   8.578  2.5508  1.0738 -0.4951
  821MOL0     H10826   1.788   9.014   8.674  1.1682 -1.0691 -1.1975
  821MOL0     H10827   1.572   9.050   8.784 -0.0771 -0.8058  0.8660
  821MOL0     H10828   1.690   8.980   8.886 -0.3144  3.0790  0.8972
  821MOL0     H10829   1.589   8.742   8.844  0.2339 -0.1277  2.4034
  821MOL0     H10830   1.481   8.850   8.931 -0.5461  0.3840 -1.0785
  821MOL0     H10831   1.277   8.790   8.577 -0.2626  1.4696  0.7415
  821MOL0     H10832   1.978   8.695   8.986  0.1892 -1.7696  1.0478
  821MOL0     H10833   2.308   8.627   9.033  1.1033  1.7101 -2.6043
  821MOL0     H10834   2.272   8.770   9.137  0.3819  1.3821 -0.9965
  821MOL0     H10835   2.148   8.646   9.112 -0.1249  0.4724 -1.8414
  822MOL0     O10836   9.003   4.486  10.241  0.2149 -0.0861 -0.2745
  822MOL0     C10837   8.895   4.517  10.298 -0.0362  0.7373 -0.1571
  822MOL0     O10838   8.890   4.587  10.419  0.1714 -0.1742 -0.4204
  822MOL0     C10839   9.003   4.610  10.485 -0.1235  0.2703  0.4864
  822MOL0     C10840   9.090   4.713  10.458  0.6496  0.1816  0.5935
  822MOL0     C10841   9.191   4.746  10.542  0.0973  0.3858 -0.6529
  822MOL0     C10842   9.208   4.690  10.673  0.2636 -0.6237 -0.4451
  822MOL0     O10843   9.289   4.746  10.777  0.9754 -0.3330  0.4150
  822MOL0     C10844   9.367   4.858  10.743 -0.9189  0.0057 -1.4717
  822MOL0     C10845   9.444   4.900  10.872 -0.7588  0.6007  0.3049
  822MOL0     C10846   9.535   5.022  10.864 -0.5086  0.0812  1.1720
  822MOL0     C10847   9.668   4.999  10.789 -0.6984  0.3304  0.3819
  822MOL0     C10848   9.741   5.128  10.751  0.2544 -0.7209 -0.0934
  822MOL0     C10849   9.693   5.209  10.631  0.2130 -1.3138  0.5655
  822MOL0     C10850   9.785   5.336  10.626  0.5312 -1.0493 -0.0567
  822MOL0     C10851   9.871   5.348  10.497  0.9099 -0.7074  0.0773
  822MOL0     N10852   9.987   5.430  10.521  0.6272  0.1330  0.5512
  822MOL0     C10853   9.981   5.566  10.524  0.1390 -0.3698 -0.0606
  822MOL0     C10854  10.111   5.607  10.525 -1.6487  0.2354  1.1772
  822MOL0     C10855  10.173   5.745  10.523  0.4235  0.2485  0.5157
  822MOL0     C10856  10.307   5.763  10.456 -0.0180 -0.3625  0.3388
  822MOL0     C10857  10.416   5.763  10.565  0.7284 -1.4800 -0.3330
  822MOL0     C10858  10.545   5.808  10.503  0.5118  0.4499 -0.5252
  822MOL0     O10859  10.595   5.696  10.434  0.3575  0.0596 -0.2057
  822MOL0     C10860  10.727   5.704  10.397 -0.5579 -0.4029 -0.0825
  822MOL0     C10861  10.819   5.814  10.420  0.3000  0.9723  0.9367
  822MOL0     C10862  10.947   5.819  10.357  0.2150  0.7043 -0.3850
  822MOL0     C10863  10.998   5.721  10.280 -0.7743 -0.0082 -0.3260
  822MOL0     C10864  11.126   5.723  10.214 -0.5100 -0.0456 -0.1770
  822MOL0     O10865  11.167   5.839  10.159 -0.4639 -0.1418  0.0772
  822MOL0     C10866  11.302   5.861  10.136 -0.1057 -1.1378 -0.3584
  822MOL0     C10867  11.316   5.942  10.031  0.6261  0.2369 -0.0041
  822MOL0     C10868  11.440   5.951   9.974 -0.2671 -0.4875 -0.7137
  822MOL0     C10869  11.550   5.901  10.049  0.0311 -0.0687  0.7287
  822MOL0     O10870  11.668   5.897   9.969  0.0828  0.1721  1.1341
  822MOL0     C10871  11.779   5.811  10.007  0.6848 -0.8735 -0.2834
  822MOL0     C10872  11.874   5.827   9.890  0.2229  0.0575  0.1238
  822MOL0     C10873  11.996   5.736   9.913 -0.1992 -0.4177 -0.5643
  822MOL0     C10874  12.106   5.794   9.817 -0.5067 -0.0235 -0.2326
  822MOL0     C10875  12.245   5.728   9.842  0.2517 -0.7033  0.7606
  822MOL0     C10876  12.304   5.773   9.975 -0.4370 -0.3091 -0.6560
  822MOL0     C10877  12.446   5.704   9.977 -0.0873  0.6674  0.9658
  822MOL0     C10878  12.489   5.650  10.110 -0.5699 -0.2632 -0.1812
  822MOL0    Cl10879  12.636   5.547  10.094 -0.1841  0.3584  0.0325
  822MOL0     C10880  11.543   5.843  10.175 -0.0371 -0.7242  0.1083
  822MOL0     C10881  11.410   5.823  10.216 -0.8928  0.2377 -0.3145
  822MOL0     O10882  11.189   5.618  10.218  0.3992 -0.1154  0.0358
  822MOL0     C10883  10.924   5.599  10.272 -0.1667 -0.0341  0.8585
  822MOL0     C10884  10.790   5.599  10.324  0.3611 -0.3932  0.5088
  822MOL0     N10885  10.193   5.493  10.537 -0.1224  0.7758  0.4432
  822MOL0     N10886  10.116   5.385  10.531  0.3445  0.4007  0.9086
  822MOL0     C10887   9.119   4.589  10.704 -0.6441  0.7077 -0.3492
  822MOL0     C10888   9.027   4.537  10.612  0.7527  0.0506  0.0695
  822MOL0     C10889   8.763   4.488  10.235 -0.1546  0.0717 -0.2164
  822MOL0     C10890   8.652   4.576  10.254  0.4086  0.1060 -0.0264
  822MOL0     C10891   8.531   4.555  10.198 -0.6601  0.3006  0.1421
  822MOL0     C10892   8.515   4.448  10.110 -0.4002  0.4393  0.2780
  822MOL0     O10893   8.399   4.437  10.043  0.9288 -0.4529  0.5047
  822MOL0     C10894   8.277   4.454  10.117 -0.1508 -0.5839 -0.3565
  822MOL0     C10895   8.192   4.563  10.055 -0.1669 -0.0635  0.7368
  822MOL0     C10896   8.271   4.699  10.036  0.1093  1.1330 -0.1168
  822MOL0     C10897   8.191   4.804   9.969 -0.5458 -0.7582  0.0096
  822MOL0     C10898   8.146   4.770   9.833 -0.2689 -0.9128  0.2149
  822MOL0     C10899   8.113   4.756   9.718  0.2508  0.1399  0.7475
  822MOL0     C10900   8.619   4.356  10.076  0.1598 -1.1676  0.2669
  822MOL0     C10901   8.746   4.384  10.132  0.1415 -0.1992  0.1476
  822MOL0     C10902   8.855   4.293  10.087  0.3230 -0.6492 -0.6459
  822MOL0     H10903   9.058   4.782  10.380  0.6707  0.3074  0.6972
  822MOL0     H10904   9.252   4.831  10.512  1.8563 -0.5470  0.1329
  822MOL0     H10905   9.430   4.842  10.655  0.0725  0.8996 -0.9441
  822MOL0     H10906   9.311   4.951  10.731 -1.2277  0.5206  2.5845
  822MOL0     H10907   9.500   4.817  10.914 -0.9076  0.3578  0.0325
  822MOL0     H10908   9.373   4.909  10.954 -2.3084 -5.6932  0.1292
  822MOL0     H10909   9.547   5.055  10.968 -3.8878  0.7487  1.4667
  822MOL0     H10910   9.488   5.108  10.816  1.0369  1.0334  1.3144
  822MOL0     H10911   9.738   4.945  10.854  0.6893 -0.2492 -1.4937
  822MOL0     H10912   9.651   4.946  10.695  0.7440 -0.3799  0.4845
  822MOL0     H10913   9.751   5.186  10.843  3.1451 -0.6958 -0.3337
  822MOL0     H10914   9.847   5.105  10.736  1.2435  3.3172 -0.4411
  822MOL0     H10915   9.696   5.152  10.537 -0.2309  1.0976 -1.0174
  822MOL0     H10916   9.590   5.245  10.636  0.0955 -1.0887 -2.0043
  822MOL0     H10917   9.850   5.342  10.713  0.7547  2.1512 -0.3255
  822MOL0     H10918   9.718   5.422  10.618  2.3991  1.0590  3.9950
  822MOL0     H10919   9.914   5.250  10.475  2.8245 -0.1092  0.9905
  822MOL0     H10920   9.799   5.378  10.420 -1.2413 -3.2691  0.9064
  822MOL0     H10921   9.896   5.634  10.515  0.1709 -0.3313 -0.0710
  822MOL0     H10922  10.105   5.804  10.461 -0.2162 -0.1250  0.8473
  822MOL0     H10923  10.168   5.782  10.626 -1.0869  0.8449  0.2522
  822MOL0     H10924  10.320   5.681  10.384 -0.6228  0.4035 -0.6674
  822MOL0     H10925  10.305   5.856  10.399 -0.7429  0.0165  0.9612
  822MOL0     H10926  10.423   5.663  10.608 -2.2993 -2.0128 -0.8276
  822MOL0     H10927  10.387   5.835  10.642 -0.2257 -1.6331 -0.5366
  822MOL0     H10928  10.615   5.824  10.585 -2.7009 -3.1430  3.3527
  822MOL0     H10929  10.530   5.896  10.441 -1.8048  0.4585 -0.0565
  822MOL0     H10930  10.792   5.898  10.482 -2.0085 -1.4330  3.4841
  822MOL0     H10931  11.005   5.908  10.379  0.0041  0.9267 -0.7249
  822MOL0     H10932  11.235   5.981   9.970  1.8903  1.9241 -0.6809
  822MOL0     H10933  11.449   5.996   9.876 -1.5589  1.1365 -0.1410
  822MOL0     H10934  11.820   5.847  10.102 -0.0284 -1.0212  0.0929
  822MOL0     H10935  11.749   5.707  10.024  1.0918 -1.2978 -1.9414
  822MOL0     H10936  11.832   5.794   9.794  1.5408  1.4247 -0.9658
  822MOL0     H10937  11.903   5.932   9.882  0.8813 -0.2301 -1.6667
  822MOL0     H10938  12.022   5.754  10.018  1.0731  2.2145 -1.2258
  822MOL0     H10939  11.982   5.632   9.884  0.8865 -1.1317  1.2551
  822MOL0     H10940  12.101   5.903   9.829 -0.9092  0.0547 -1.0474
  822MOL0     H10941  12.078   5.778   9.712  0.0098 -0.0879 -0.3676
  822MOL0     H10942  12.312   5.751   9.759 -0.3610 -0.0839  0.4251
  822MOL0     H10943  12.220   5.622   9.844  1.5583 -1.1661 -2.2534
  822MOL0     H10944  12.304   5.882   9.983  3.1388 -0.0268 -2.5325
  822MOL0     H10945  12.241   5.740  10.058  0.5043 -0.0529  0.1789
  822MOL0     H10946  12.522   5.773   9.939  0.0349  0.1966  0.3445
  822MOL0     H10947  12.445   5.624   9.903 -1.4920 -1.6230  3.2745
  822MOL0     H10948  12.505   5.735  10.177 -1.9004  0.0277 -0.2027
  822MOL0     H10949  12.406   5.589  10.147 -0.6648  0.9763  1.8118
  822MOL0     H10950  11.622   5.833  10.248  0.0967  1.9269  0.4281
  822MOL0     H10951  11.394   5.765  10.306  0.8381 -2.2865 -1.4924
  822MOL0     H10952  10.972   5.519  10.217 -0.6799  0.5685 -0.5224
  822MOL0     H10953  10.720   5.517  10.310 -2.1650  1.7941 -0.6375
  822MOL0     H10954   9.122   4.541  10.801 -0.0364  0.4509 -0.4884
  822MOL0     H10955   8.962   4.453  10.633  1.7612 -0.5632  0.8463
  822MOL0     H10956   8.667   4.664  10.316  0.0068  0.0126  0.2045
  822MOL0     H10957   8.451   4.625  10.220  0.5529  1.1675  2.0347
  822MOL0     H10958   8.291   4.476  10.223  0.1274 -0.3688 -0.4344
  822MOL0     H10959   8.210   4.368  10.112  0.2351 -1.0111  1.2815
  822MOL0     H10960   8.102   4.571  10.116 -0.1009 -1.7041  1.0987
  822MOL0     H10961   8.159   4.529   9.956  1.6335  2.5916 -0.9013
  822MOL0     H10962   8.366   4.679   9.986 -0.3238 -0.4494 -0.3786
  822MOL0     H10963   8.295   4.742  10.133  0.9367  0.0504  0.1781
  822MOL0     H10964   8.107   4.828  10.035  1.7600  1.5158  2.3184
  822MOL0     H10965   8.257   4.890   9.969 -0.7179 -0.4586 -3.3934
  822MOL0     H10966   8.079   4.742   9.617 -0.1174 -1.5933  1.0704
  822MOL0     H10967   8.603   4.284   9.996 -0.9118  1.5811 -2.1621
  822MOL0     H10968   8.876   4.222  10.168 -1.4522  0.5817  1.0019
  822MOL0     H10969   8.815   4.237  10.002 -1.2887  0.8038 -0.9017
  822MOL0     H10970   8.946   4.349  10.066 -0.4948  0.6249 -0.8866
  823MOL0     O10971   5.937   9.160   9.369 -0.0843 -0.2599  0.4494
  823MOL0     C10972   5.874   9.190   9.472  0.5125 -0.0454 -0.8577
  823MOL0     O10973   5.931   9.225   9.582 -0.1740  0.2034  0.0188
  823MOL0     C10974   6.055   9.276   9.577 -0.7190 -0.2219 -0.2164
  823MOL0     C10975   6.097   9.384   9.500 -0.0404 -0.3588 -0.0923
  823MOL0     C10976   6.220   9.442   9.527  0.4322 -0.4681 -0.0096
  823MOL0     C10977   6.300   9.406   9.634 -0.4021 -0.4857  0.3296
  823MOL0     O10978   6.405   9.491   9.651  0.0966 -0.1966  1.1971
  823MOL0     C10979   6.517   9.437   9.712  0.1373 -0.0293 -0.8851
  823MOL0     C10980   6.641   9.535   9.712  0.4517  1.2083  0.4616
  823MOL0     C10981   6.761   9.457   9.765  0.5658  0.0500 -0.2587
  823MOL0     C10982   6.891   9.540   9.783  0.0994 -0.9205 -0.2793
  823MOL0     C10983   6.872   9.671   9.863  1.0373  1.3937 -0.2969
  823MOL0     C10984   6.998   9.745   9.897  0.9915 -0.3497 -0.6767
  823MOL0     C10985   6.974   9.875   9.973  0.1764  0.0153  0.0416
  823MOL0     C10986   7.102   9.964   9.996  1.1239 -0.3691  0.2712
  823MOL0     N10987   7.205   9.901  10.073 -0.2912 -0.1373 -0.6073
  823MOL0     C10988   7.306   9.975  10.136 -0.7178  0.0925 -0.6638
  823MOL0     C10989   7.385   9.879  10.194 -0.8589 -1.1747  0.4316
  823MOL0     C10990   7.514   9.902  10.279  0.3321  0.3789 -0.7905
  823MOL0     C10991   7.643   9.915  10.194 -0.1602  0.0316 -0.4082
  823MOL0     C10992   7.690  10.060  10.184  0.2100 -0.1837  1.0160
  823MOL0     C10993   7.829  10.074  10.115 -0.0489  0.6214 -0.1078
  823MOL0     O10994   7.813   9.999   9.994 -0.4025  0.0568  0.6898
  823MOL0     C10995   7.916   9.980   9.908 -0.4319  0.2558 -0.2298
  823MOL0     C10996   7.902   9.910   9.785  0.6053  0.5624  0.6696
  823MOL0     C10997   8.008   9.903   9.690 -0.6344 -0.5923 -1.1710
  823MOL0     C10998   8.132   9.965   9.721 -0.6398  0.7914  0.2322
  823MOL0     C10999   8.246   9.953   9.630  0.1605  0.0790 -0.0180
  823MOL0     O11000   8.360  10.019   9.664  0.1063 -0.2017  0.1975
  823MOL0     C11001   8.473  10.015   9.584 -0.5439  0.1379 -0.1677
  823MOL0     C11002   8.520   9.882   9.552 -1.1030 -0.5265 -0.9128
  823MOL0     C11003   8.631   9.862   9.466  0.1070  0.1713  0.4798
  823MOL0     C11004   8.692   9.983   9.420  0.1489  0.2445  0.2409
  823MOL0     O11005   8.797   9.963   9.341  0.5794  0.0488  0.0792
  823MOL0     C11006   8.921   9.943   9.420 -0.1829 -0.4374 -0.3576
  823MOL0     C11007   9.047   9.909   9.334 -0.3094  0.2675 -0.4635
  823MOL0     C11008   9.091  10.026   9.247  0.0388  0.5496 -0.8531
  823MOL0     C11009   9.157  10.141   9.317  0.2577  0.4371  0.5262
  823MOL0     C11010   9.057  10.255   9.348  0.4037 -0.1033  0.0578
  823MOL0     C11011   9.134  10.380   9.381  0.5567  0.3146 -0.8315
  823MOL0     C11012   9.062  10.482   9.471  0.3309 -0.7054  0.1413
  823MOL0     C11013   9.037  10.449   9.618  0.3129  1.5124  0.6118
  823MOL0    Cl11014   9.198  10.417   9.710 -0.1391  0.5061  0.1533
  823MOL0     C11015   8.652  10.110   9.454  0.1925  0.1249 -0.2110
  823MOL0     C11016   8.543  10.123   9.539  0.2816 -0.4252  0.5447
  823MOL0     O11017   8.230   9.880   9.533 -0.0892 -0.9109  0.1519
  823MOL0     C11018   8.144  10.039   9.834 -0.2388 -0.0825 -0.7912
  823MOL0     C11019   8.037  10.047   9.925  0.0887  0.1974 -0.4634
  823MOL0     N11020   7.340   9.756  10.170 -0.4898 -0.1591  0.0092
  823MOL0     N11021   7.221   9.767  10.114 -0.0032 -0.8436 -0.5730
  823MOL0     C11022   6.264   9.298   9.710  0.3892 -0.0963 -0.5216
  823MOL0     C11023   6.141   9.234   9.684 -0.1417 -0.0614 -0.1217
  823MOL0     C11024   5.725   9.172   9.482  0.3970 -0.2405 -0.5183
  823MOL0     C11025   5.675   9.155   9.603 -0.1981  0.6427 -0.3079
  823MOL0     C11026   5.541   9.130   9.629 -1.1959  0.0031  0.2741
  823MOL0     C11027   5.447   9.139   9.524 -0.9861  0.7702 -0.7797
  823MOL0     O11028   5.311   9.120   9.557 -0.3774 -0.8789 -0.1419
  823MOL0     C11029   5.209   9.167   9.466 -0.8334 -1.3642  0.1897
  823MOL0     C11030   5.071   9.163   9.537 -0.6312  0.4494  0.3733
  823MOL0     C11031   4.953   9.219   9.443 -0.3319 -0.3549 -0.3088
  823MOL0     C11032   4.929   9.372   9.437 -0.2560  0.2194 -1.0680
  823MOL0     C11033   4.841   9.406   9.326  0.1066  0.1529 -0.4032
  823MOL0     C11034   4.762   9.419   9.238  0.5061  0.6544  0.2751
  823MOL0     C11035   5.497   9.154   9.396  0.4202 -0.5117  0.1880
  823MOL0     C11036   5.635   9.166   9.378  0.5822 -0.8590 -0.2581
  823MOL0     C11037   5.673   9.180   9.227 -0.4648 -0.2187 -0.7602
  823MOL0     H11038   6.045   9.431   9.417  1.0995 -1.4952 -1.4843
  823MOL0     H11039   6.250   9.533   9.475 -0.2094 -0.4177 -0.2996
  823MOL0     H11040   6.491   9.399   9.812 -1.1195 -0.7138 -1.4555
  823MOL0     H11041   6.540   9.342   9.661 -1.1028 -1.4037  0.9741
  823MOL0     H11042   6.622   9.619   9.779  0.1464 -1.1928  3.6201
  823MOL0     H11043   6.643   9.560   9.606 -2.5533 -1.6292 -0.4659
  823MOL0     H11044   6.794   9.379   9.695 -1.0793 -0.9970  0.0996
  823MOL0     H11045   6.741   9.392   9.850  1.7574 -1.7529 -1.2796
  823MOL0     H11046   6.962   9.488   9.848  1.2039 -0.2108 -0.8856
  823MOL0     H11047   6.937   9.556   9.685  4.4528  0.1742  1.6975
  823MOL0     H11048   6.793   9.738   9.828  0.6020  0.8669 -0.3361
  823MOL0     H11049   6.838   9.641   9.963 -1.6721 -1.3391 -1.8810
  823MOL0     H11050   7.053   9.679   9.966  1.8934 -0.5291 -1.5453
  823MOL0     H11051   7.056   9.762   9.806 -1.2817 -1.1845 -2.3734
  823MOL0     H11052   6.922   9.848  10.065  0.4866  1.6880  0.7494
  823MOL0     H11053   6.895   9.930   9.922 -0.5827  0.7449  1.9342
  823MOL0     H11054   7.133  10.006   9.899  0.2209  3.5955  1.4998
  823MOL0     H11055   7.061  10.049  10.052 -2.5964 -1.8919  0.1143
  823MOL0     H11056   7.311  10.083  10.125  0.8428  0.3866  2.1072
  823MOL0     H11057   7.502   9.977  10.358 -0.4502  0.8791 -1.3826
  823MOL0     H11058   7.517   9.804  10.329  2.2816 -0.2335 -1.9995
  823MOL0     H11059   7.728   9.859  10.232  0.1304 -0.1594 -1.3082
  823MOL0     H11060   7.623   9.880  10.092  0.3043 -1.6603  0.0461
  823MOL0     H11061   7.696  10.108  10.282  1.5220  2.8981 -0.4371
  823MOL0     H11062   7.619  10.114  10.120 -0.8014 -3.7970 -1.1644
  823MOL0     H11063   7.907  10.024  10.173  0.8306 -0.9324 -2.4793
  823MOL0     H11064   7.859  10.177  10.097  3.0356 -0.0781  0.5329
  823MOL0     H11065   7.805   9.863   9.776  0.5907  0.6804  0.2121
  823MOL0     H11066   7.995   9.846   9.599 -1.6588 -2.8460  0.2825
  823MOL0     H11067   8.466   9.793   9.583 -3.8966  1.0871 -0.7598
  823MOL0     H11068   8.655   9.760   9.438 -0.3074 -0.1771  1.3366
  823MOL0     H11069   8.941  10.030   9.483 -2.6627 -0.4433  0.5919
  823MOL0     H11070   8.908   9.869   9.500 -0.1134  2.1415  2.1910
  823MOL0     H11071   9.123   9.874   9.404 -0.0523  0.2563 -0.7468
  823MOL0     H11072   9.016   9.836   9.259 -0.9441  0.0087  0.0447
  823MOL0     H11073   9.160   9.964   9.190  0.6548 -2.1778  2.5081
  823MOL0     H11074   9.014  10.050   9.173  0.1154 -2.0434 -1.8579
  823MOL0     H11075   9.246  10.181   9.267  0.7553  0.2715  1.2640
  823MOL0     H11076   9.193  10.109   9.415 -0.2968  1.4954  1.0892
  823MOL0     H11077   9.000  10.226   9.436 -2.6467  3.1946 -0.6221
  823MOL0     H11078   8.981  10.276   9.272  3.0752  1.7919 -2.3307
  823MOL0     H11079   9.223  10.353   9.439  0.5958  2.1247  0.0036
  823MOL0     H11080   9.157  10.425   9.285 -0.1415  0.1510 -1.0789
  823MOL0     H11081   8.966  10.503   9.422  0.6503  2.4759  0.6504
  823MOL0     H11082   9.108  10.581   9.462 -0.4871 -0.3423 -0.1776
  823MOL0     H11083   8.983  10.530   9.668  1.4823  2.2873  0.6450
  823MOL0     H11084   8.984  10.353   9.624  0.5182  1.3107 -0.5492
  823MOL0     H11085   8.698  10.199   9.414  1.0274  0.9660  2.4543
  823MOL0     H11086   8.514  10.216   9.588  1.7416 -0.5896  1.8412
  823MOL0     H11087   8.226  10.108   9.853 -0.9815 -0.1945  4.2341
  823MOL0     H11088   8.046  10.104  10.016  0.1107 -2.8076  1.5488
  823MOL0     H11089   6.332   9.274   9.791 -0.9475 -0.9309  0.3850
  823MOL0     H11090   6.111   9.152   9.748 -0.2875  0.9848  1.2109
  823MOL0     H11091   5.733   9.154   9.695 -2.1231 -1.2313  0.9740
  823MOL0     H11092   5.497   9.108   9.726 -0.4197 -1.6669  0.2690
  823MOL0     H11093   5.216   9.100   9.380  0.6275 -1.1872  0.1458
  823MOL0     H11094   5.236   9.264   9.423  4.3478 -2.1028  1.1543
  823MOL0     H11095   5.078   9.210   9.636 -0.6663 -2.8041  2.0427
  823MOL0     H11096   5.062   9.056   9.557 -0.1195 -0.0453 -1.7902
  823MOL0     H11097   4.861   9.166   9.471  0.2919 -2.1863 -1.4825
  823MOL0     H11098   4.976   9.198   9.338 -1.5371  0.6272 -0.8034
  823MOL0     H11099   4.884   9.394   9.535 -0.1858 -1.0375 -0.7390
  823MOL0     H11100   5.027   9.421   9.429 -0.8702  2.1495  1.6705
  823MOL0     H11101   4.702   9.430   9.149 -0.5959 -0.7014  0.8215
  823MOL0     H11102   5.423   9.167   9.317  0.7741  0.1999 -0.0356
  823MOL0     H11103   5.596   9.236   9.174 -1.2838 -1.1894 -0.6383
  823MOL0     H11104   5.762   9.244   9.228 -0.3898 -0.3253 -0.3230
  823MOL0     H11105   5.680   9.085   9.173 -1.4132  1.5245 -4.2661
  824MOL0     O11106   4.778   5.846   0.916 -0.2550 -0.6021  0.5060
  824MOL0     C11107   4.702   5.877   0.821  0.4609  0.5561 -0.6051
  824MOL0     O11108   4.730   5.868   0.686  0.2029 -0.1539  0.1246
  824MOL0     C11109   4.851   5.822   0.651 -0.5362 -0.2042 -0.2877
  824MOL0     C11110   4.910   5.708   0.698 -0.0292 -0.0251  0.3966
  824MOL0     C11111   5.038   5.674   0.672  0.7210 -0.2534  0.1762
  824MOL0     C11112   5.121   5.758   0.595 -0.4632 -0.4749  0.1349
  824MOL0     O11113   5.249   5.720   0.560 -0.3441  0.3961  0.8786
  824MOL0     C11114   5.334   5.676   0.665 -0.3630 -0.1438  0.1675
  824MOL0     C11115   5.470   5.639   0.609  0.4975  0.8443 -0.3942
  824MOL0     C11116   5.524   5.542   0.723 -0.1324 -1.4486 -0.2717
  824MOL0     C11117   5.557   5.615   0.853  0.2879 -0.4766 -0.1116
  824MOL0     C11118   5.644   5.534   0.946 -0.9689  0.9666  0.9472
  824MOL0     C11119   5.719   5.617   1.054  0.1289 -0.2069  0.5748
  824MOL0     C11120   5.811   5.544   1.146 -0.2267  0.1665 -0.4894
  824MOL0     C11121   5.934   5.482   1.079 -0.3565 -0.4451 -0.2845
  824MOL0     N11122   6.026   5.580   1.027  0.5170  0.2918  0.0064
  824MOL0     C11123   6.076   5.585   0.904 -1.0039 -0.3926 -0.5538
  824MOL0     C11124   6.162   5.692   0.914 -0.0401 -0.1306  0.0258
  824MOL0     C11125   6.249   5.744   0.797  0.6125  0.3555  0.4607
  824MOL0     C11126   6.384   5.682   0.810 -1.2078 -0.4908 -0.3396
  824MOL0     C11127   6.486   5.734   0.704  0.1584  0.0462 -0.8434
  824MOL0     C11128   6.621   5.676   0.712  0.2484  0.0980 -0.1402
  824MOL0     O11129   6.662   5.714   0.842 -0.6989 -0.0144 -0.1922
  824MOL0     C11130   6.777   5.788   0.873  0.1365  0.8440 -0.0258
  824MOL0     C11131   6.773   5.860   0.990 -1.0735 -0.4388  0.1778
  824MOL0     C11132   6.889   5.934   1.016  0.0523  0.1416 -0.2762
  824MOL0     C11133   6.995   5.936   0.922 -0.1048  0.1599 -0.7872
  824MOL0     C11134   7.110   6.023   0.952  0.3966  0.5380 -0.7083
  824MOL0     O11135   7.234   5.988   0.899  0.2543 -0.3045  0.0948
  824MOL0     C11136   7.335   6.075   0.930  0.1196  0.2022 -0.3761
  824MOL0     C11137   7.338   6.214   0.921  0.8021  0.0791 -0.5722
  824MOL0     C11138   7.445   6.279   0.981  0.2817 -1.1530  0.1342
  824MOL0     C11139   7.551   6.226   1.043 -0.2545  0.2957 -0.7168
  824MOL0     O11140   7.652   6.302   1.086 -1.3498  0.4273  0.0178
  824MOL0     C11141   7.779   6.241   1.110  0.2214 -0.4784  0.0770
  824MOL0     C11142   7.900   6.339   1.078 -0.2031  1.0438  0.1537
  824MOL0     C11143   8.013   6.287   1.178 -0.1384  0.8546  0.8511
  824MOL0     C11144   8.154   6.361   1.166 -0.4297  0.2377 -0.7420
  824MOL0     C11145   8.264   6.289   1.246  0.1910  0.3047  0.2028
  824MOL0     C11146   8.395   6.364   1.251 -0.4071 -0.4789  0.6258
  824MOL0     C11147   8.489   6.287   1.342  0.0434 -0.0345  0.4079
  824MOL0     C11148   8.622   6.365   1.355 -1.0728  0.2816  0.1237
  824MOL0    Cl11149   8.712   6.383   1.201  0.1709  0.5343 -0.0846
  824MOL0     C11150   7.548   6.085   1.052 -0.2829 -0.0513  0.7743
  824MOL0     C11151   7.447   6.009   0.990 -0.6755 -0.1555 -0.1882
  824MOL0     O11152   7.083   6.118   1.022 -0.1353  0.8618 -0.2207
  824MOL0     C11153   6.994   5.856   0.804 -0.0355  0.2162 -0.5669
  824MOL0     C11154   6.882   5.786   0.778 -0.8173  0.0571 -0.3227
  824MOL0     N11155   6.155   5.756   1.038  0.0862 -0.1264  0.1948
  824MOL0     N11156   6.065   5.690   1.105  0.7811 -0.8760  0.5546
  824MOL0     C11157   5.059   5.884   0.545  1.1641  0.4408 -1.3310
  824MOL0     C11158   4.925   5.912   0.578 -0.0994  0.2952 -1.2908
  824MOL0     C11159   4.566   5.927   0.860  0.2965  1.3398 -0.6539
  824MOL0     C11160   4.458   5.904   0.771  0.3871 -0.7958  0.2102
  824MOL0     C11161   4.328   5.966   0.787 -0.0333  0.5178 -0.6489
  824MOL0     C11162   4.306   6.032   0.905  0.0833 -1.1540 -0.3770
  824MOL0     O11163   4.184   6.085   0.950 -0.8919 -0.8578  0.6375
  824MOL0     C11164   4.055   6.068   0.884  0.3565  0.2470 -0.2687
  824MOL0     C11165   4.011   6.198   0.815  0.0521 -0.2855 -0.6214
  824MOL0     C11166   3.877   6.193   0.751 -0.1594  0.1192 -0.0483
  824MOL0     C11167   3.841   6.334   0.709  0.0052 -0.1735 -0.6559
  824MOL0     C11168   3.705   6.350   0.647  0.4540  0.1256  0.0845
  824MOL0     C11169   3.587   6.366   0.610 -0.1208  0.2349  0.6143
  824MOL0     C11170   4.404   6.040   0.997  0.7305 -0.6570 -0.2016
  824MOL0     C11171   4.534   6.001   0.972 -0.0449  0.0632 -0.2334
  824MOL0     C11172   4.636   6.044   1.074 -0.1326 -0.0658 -0.6485
  824MOL0     H11173   4.852   5.631   0.749  1.6156 -1.6901 -0.1118
  824MOL0     H11174   5.065   5.572   0.695 -0.7726 -0.9531 -0.9673
  824MOL0     H11175   5.336   5.760   0.736 -1.1609  2.1418 -2.3255
  824MOL0     H11176   5.284   5.593   0.715  1.8267 -0.8825  1.2494
  824MOL0     H11177   5.528   5.731   0.594  3.0415 -0.4854  0.6780
  824MOL0     H11178   5.455   5.586   0.515 -4.7712  1.3664 -0.1207
  824MOL0     H11179   5.620   5.508   0.683  1.9625 -0.3272  3.3894
  824MOL0     H11180   5.454   5.461   0.746 -0.5397 -1.0512 -0.1153
  824MOL0     H11181   5.606   5.707   0.819 -2.2199 -0.5251 -4.7044
  824MOL0     H11182   5.470   5.646   0.911  0.1615 -1.3101  0.1536
  824MOL0     H11183   5.585   5.453   0.988 -1.3970 -0.2664 -1.8023
  824MOL0     H11184   5.721   5.484   0.886 -0.4947  1.1513  1.3913
  824MOL0     H11185   5.767   5.704   1.008  0.5869 -0.4238  0.6418
  824MOL0     H11186   5.643   5.665   1.117 -1.2984  1.1186 -1.9801
  824MOL0     H11187   5.757   5.461   1.193  0.9563 -0.9564 -1.0636
  824MOL0     H11188   5.847   5.598   1.234  3.4461 -2.6488 -0.0783
  824MOL0     H11189   5.986   5.433   1.162  2.3428  0.3278 -1.4144
  824MOL0     H11190   5.908   5.410   1.001  0.5823  0.3937 -1.3969
  824MOL0     H11191   6.060   5.517   0.822 -0.7146  0.6884 -1.5418
  824MOL0     H11192   6.207   5.733   0.697 -0.3514  0.7570  0.8056
  824MOL0     H11193   6.257   5.853   0.804 -0.5805  0.4645  0.4372
  824MOL0     H11194   6.420   5.703   0.911 -2.8526 -0.3899  0.2604
  824MOL0     H11195   6.376   5.574   0.793 -2.7111 -0.2591 -1.3142
  824MOL0     H11196   6.489   5.843   0.710 -1.4438  0.1003 -0.5834
  824MOL0     H11197   6.444   5.705   0.607 -0.6099 -0.4197 -0.3780
  824MOL0     H11198   6.688   5.719   0.637  0.1021 -1.6862 -1.3501
  824MOL0     H11199   6.613   5.568   0.695  2.6165  0.1251 -2.0375
  824MOL0     H11200   6.694   5.837   1.061 -1.3403 -2.6589 -0.7316
  824MOL0     H11201   6.904   5.989   1.108  0.4944 -3.0597  1.7254
  824MOL0     H11202   7.259   6.271   0.873 -0.8875 -1.0965  0.6840
  824MOL0     H11203   7.447   6.387   0.968 -4.9542 -1.0504 -2.5770
  824MOL0     H11204   7.786   6.215   1.216  1.0363 -1.6563 -0.2368
  824MOL0     H11205   7.794   6.151   1.049 -0.7224  0.4540 -1.6046
  824MOL0     H11206   7.931   6.337   0.974  1.8814  1.2895  0.7192
  824MOL0     H11207   7.858   6.438   1.101 -0.5891  1.0534 -0.5646
  824MOL0     H11208   7.977   6.292   1.281  0.3224  1.5969  0.9873
  824MOL0     H11209   8.021   6.179   1.162 -2.6574  0.5201  1.5311
  824MOL0     H11210   8.141   6.456   1.219 -2.0437 -0.1026 -0.4777
  824MOL0     H11211   8.197   6.355   1.066  0.3854 -1.2408 -0.3286
  824MOL0     H11212   8.278   6.196   1.190 -1.4491  0.4545 -0.5056
  824MOL0     H11213   8.238   6.273   1.350  1.2835  2.3463  0.8503
  824MOL0     H11214   8.439   6.371   1.151 -1.4069  0.2964  0.2283
  824MOL0     H11215   8.382   6.466   1.288  1.0262  0.4898 -1.3718
  824MOL0     H11216   8.511   6.188   1.303 -2.1021 -0.5682  0.4136
  824MOL0     H11217   8.455   6.271   1.445  3.5147  0.1394  1.7016
  824MOL0     H11218   8.604   6.467   1.391  1.3336 -0.1792  3.0496
  824MOL0     H11219   8.680   6.314   1.432 -2.0595 -0.1195  0.6238
  824MOL0     H11220   7.626   6.031   1.104 -0.5127 -2.9309 -1.5680
  824MOL0     H11221   7.444   5.902   1.006 -0.3596 -0.2993 -1.0253
  824MOL0     H11222   7.083   5.861   0.743 -0.0342  1.0931 -0.5068
  824MOL0     H11223   6.878   5.701   0.710 -0.0193 -0.0663 -0.2219
  824MOL0     H11224   5.121   5.946   0.482  1.3619  0.4685 -1.1120
  824MOL0     H11225   4.879   6.005   0.545 -1.3010  0.3894  0.4483
  824MOL0     H11226   4.479   5.843   0.684 -2.4964  0.6366 -1.6296
  824MOL0     H11227   4.254   5.943   0.711  1.3367 -1.0006 -1.5948
  824MOL0     H11228   3.981   6.034   0.956  1.1714 -0.7651  0.1168
  824MOL0     H11229   4.058   5.995   0.803  0.3162  1.3607 -1.2942
  824MOL0     H11230   4.088   6.213   0.738 -1.7006 -0.5613 -2.5350
  824MOL0     H11231   4.010   6.282   0.884  0.9049  1.6830 -2.8623
  824MOL0     H11232   3.812   6.152   0.829  0.4773 -0.8732 -0.0195
  824MOL0     H11233   3.882   6.123   0.667  0.7912  0.0795  0.0285
  824MOL0     H11234   3.849   6.405   0.791  0.7144 -0.7726 -0.2051
  824MOL0     H11235   3.909   6.370   0.632 -1.3003  2.2239 -0.7963
  824MOL0     H11236   3.497   6.407   0.569 -0.2088 -1.2802 -0.7661
  824MOL0     H11237   4.377   6.101   1.083 -1.5276  0.7406 -1.7891
  824MOL0     H11238   4.733   6.056   1.025 -0.9970  1.7562 -2.0117
  824MOL0     H11239   4.615   6.141   1.118 -0.8851  0.1938 -1.5563
  824MOL0     H11240   4.640   5.972   1.157  0.8176 -1.1313 -1.5764
  825MOL0     O11241   0.751   5.278   1.587 -0.3248 -0.0848 -0.2293
  825MOL0     C11242   0.699   5.203   1.508  0.0704  0.2339 -0.3349
  825MOL0     O11243   0.764   5.092   1.438  0.3016  0.1590  0.2774
  825MOL0     C11244   0.901   5.086   1.441  0.2759  0.4705  0.0315
  825MOL0     C11245   0.980   5.169   1.356 -0.7908 -0.2254  0.1996
  825MOL0     C11246   1.116   5.192   1.387 -0.5464  0.6687 -0.9755
  825MOL0     C11247   1.180   5.106   1.475 -0.7436  0.7832 -0.3143
  825MOL0     O11248   1.316   5.102   1.496  0.2236 -0.0332  0.3890
  825MOL0     C11249   1.395   5.205   1.443  0.6558  0.0510 -0.1258
  825MOL0     C11250   1.528   5.211   1.518  0.0048 -0.6174  0.3447
  825MOL0     C11251   1.641   5.147   1.429  0.8422 -0.4066 -0.1512
  825MOL0     C11252   1.772   5.177   1.486 -0.0379 -1.1528 -0.3708
  825MOL0     C11253   1.881   5.108   1.407 -0.5887  0.9402  0.2191
  825MOL0     C11254   1.903   4.961   1.429 -0.0358 -0.1082 -0.5053
  825MOL0     C11255   2.042   4.917   1.369  0.8432  0.0714  0.1289
  825MOL0     C11256   2.078   4.764   1.373 -0.4247 -0.2616 -0.6700
  825MOL0     N11257   2.206   4.732   1.313 -0.0574 -0.0975  0.3874
  825MOL0     C11258   2.323   4.743   1.383  0.3693 -0.9570 -0.2963
  825MOL0     C11259   2.425   4.725   1.290  0.6588  0.3306 -0.8206
  825MOL0     C11260   2.568   4.721   1.318 -0.4548  0.6179 -0.7739
  825MOL0     C11261   2.655   4.775   1.199  0.3115  0.1044  0.6847
  825MOL0     C11262   2.639   4.933   1.196  0.2631  0.5457 -0.4024
  825MOL0     C11263   2.725   5.005   1.090 -0.4870 -0.4729 -0.3711
  825MOL0     O11264   2.854   4.955   1.081  0.2289 -0.1222  0.3732
  825MOL0     C11265   2.953   4.972   1.173  0.1555  0.2672  0.3487
  825MOL0     C11266   2.951   5.053   1.286 -0.0811 -0.4195 -0.2398
  825MOL0     C11267   3.054   5.048   1.380  0.2001 -0.5025 -0.7593
  825MOL0     C11268   3.169   4.975   1.360 -0.8223  0.3329  0.5794
  825MOL0     C11269   3.294   4.981   1.442 -0.1097 -0.0704  0.5644
  825MOL0     O11270   3.299   5.071   1.548  0.2076  0.4868 -0.4593
  825MOL0     C11271   3.417   5.091   1.616  0.2874  0.2840  0.4163
  825MOL0     C11272   3.533   5.108   1.542 -0.5198 -0.5606 -0.1201
  825MOL0     C11273   3.656   5.120   1.613 -0.2854 -0.0990 -0.1548
  825MOL0     C11274   3.664   5.092   1.748 -0.1179  0.0416 -0.4027
  825MOL0     O11275   3.776   5.111   1.834 -0.3913 -0.5344 -0.6082
  825MOL0     C11276   3.904   5.140   1.779  0.2672 -0.1138 -0.5587
  825MOL0     C11277   4.003   5.154   1.893 -0.3006 -0.6475 -0.2137
  825MOL0     C11278   3.991   5.259   1.994  0.1708  0.0786 -0.1858
  825MOL0     C11279   4.087   5.227   2.110  0.4293  0.0457  0.0158
  825MOL0     C11280   4.103   5.342   2.207 -0.5230 -0.0725  0.5294
  825MOL0     C11281   3.984   5.353   2.298  0.8908 -0.8599  0.3805
  825MOL0     C11282   3.948   5.506   2.310 -0.2067 -0.3695  0.5642
  825MOL0     C11283   3.865   5.522   2.437 -0.1293 -0.4077 -0.4122
  825MOL0    Cl11284   3.702   5.438   2.413 -0.0161 -0.0045 -0.2404
  825MOL0     C11285   3.546   5.077   1.820  0.2973  0.2599  0.1099
  825MOL0     C11286   3.419   5.075   1.761 -0.1253 -0.8952 -0.2350
  825MOL0     O11287   3.390   4.916   1.402  0.1005 -0.8178  0.0091
  825MOL0     C11288   3.167   4.899   1.240  1.0622  0.1419  0.1366
  825MOL0     C11289   3.063   4.896   1.147 -0.2089 -0.3502  0.1735
  825MOL0     N11290   2.367   4.715   1.160  0.7156 -0.5781  0.3774
  825MOL0     N11291   2.229   4.710   1.183 -0.0461 -0.4287 -0.0871
  825MOL0     C11292   1.107   5.026   1.560 -0.2451  0.9326  0.2764
  825MOL0     C11293   0.966   5.021   1.546  0.4445 -0.3613  0.1949
  825MOL0     C11294   0.555   5.214   1.471  0.6266  0.1715 -0.1038
  825MOL0     C11295   0.513   5.187   1.341  0.3634  0.8772 -1.0306
  825MOL0     C11296   0.378   5.195   1.312 -0.2077  0.2365  0.0899
  825MOL0     C11297   0.283   5.240   1.400  0.8109 -0.2890 -0.2691
  825MOL0     O11298   0.146   5.250   1.369 -0.5393 -1.2472 -0.0096
  825MOL0     C11299   0.092   5.178   1.265  0.3260  1.2885  0.2230
  825MOL0     C11300  -0.058   5.149   1.293  0.7457  0.6809  0.0681
  825MOL0     C11301  -0.129   5.097   1.167 -0.0564 -0.4420  0.2682
  825MOL0     C11302  -0.275   5.051   1.183 -0.0812 -0.1893  0.3683
  825MOL0     C11303  -0.361   5.168   1.184  0.0605  0.1376 -0.9313
  825MOL0     C11304  -0.435   5.266   1.201 -0.6548  0.1547 -0.2480
  825MOL0     C11305   0.327   5.270   1.534 -0.1204  0.6364  0.8772
  825MOL0     C11306   0.464   5.254   1.569  0.0075  0.2372 -0.7004
  825MOL0     C11307   0.495   5.291   1.709  0.4503  0.1972 -0.9820
  825MOL0     H11308   0.931   5.223   1.276 -0.0907 -0.8352 -0.6550
  825MOL0     H11309   1.170   5.261   1.323  1.6008  1.3751  1.4607
  825MOL0     H11310   1.403   5.198   1.334 -1.3057 -0.7616 -0.2647
  825MOL0     H11311   1.348   5.303   1.458  1.9022  0.9315 -1.6580
  825MOL0     H11312   1.526   5.155   1.612 -0.4250  1.2735  1.5226
  825MOL0     H11313   1.548   5.318   1.531 -0.0710  0.0271 -3.5564
  825MOL0     H11314   1.635   5.185   1.326 -0.6419  0.7302  0.3274
  825MOL0     H11315   1.626   5.039   1.424 -3.4862  0.0045  0.0696
  825MOL0     H11316   1.793   5.284   1.489 -1.0123 -0.9340 -1.0017
  825MOL0     H11317   1.768   5.145   1.590 -0.0302 -2.3503 -0.7292
  825MOL0     H11318   1.851   5.117   1.303 -1.2284 -0.5179  0.2558
  825MOL0     H11319   1.972   5.161   1.436 -2.0770  1.7446  4.0783
  825MOL0     H11320   1.905   4.949   1.538 -1.2829 -2.8871 -0.7104
  825MOL0     H11321   1.827   4.895   1.385  0.4157 -1.0067  0.0283
  825MOL0     H11322   2.119   4.971   1.426  1.4477 -0.9476  0.3170
  825MOL0     H11323   2.052   4.958   1.268  3.0195  1.2723  0.7613
  825MOL0     H11324   2.088   4.752   1.482 -0.6414  4.9077  0.1846
  825MOL0     H11325   2.002   4.695   1.335  2.6290 -4.3170 -0.0362
  825MOL0     H11326   2.343   4.758   1.489  2.6768  3.2172 -1.0898
  825MOL0     H11327   2.576   4.781   1.409 -3.3020  0.5652 -0.3801
  825MOL0     H11328   2.597   4.617   1.338 -0.1763  1.0617  1.3917
  825MOL0     H11329   2.754   4.733   1.219 -1.0074 -3.9951 -0.4414
  825MOL0     H11330   2.616   4.735   1.105  2.0760 -0.8869  0.3252
  825MOL0     H11331   2.672   4.975   1.292  0.6079 -0.1262 -0.2231
  825MOL0     H11332   2.535   4.958   1.176  0.1713  0.2365 -0.3179
  825MOL0     H11333   2.718   5.110   1.117  0.1325 -0.3797 -0.5543
  825MOL0     H11334   2.667   5.003   0.997 -0.3952 -0.5934 -0.4277
  825MOL0     H11335   2.865   5.117   1.304  0.9363  1.0267 -0.3591
  825MOL0     H11336   3.039   5.112   1.466  1.4876  0.3184 -1.1291
  825MOL0     H11337   3.538   5.133   1.437 -0.3374 -0.6124 -0.1240
  825MOL0     H11338   3.744   5.156   1.560  1.4070 -1.4877  1.5643
  825MOL0     H11339   3.934   5.054   1.718 -1.1337 -0.2155 -1.1286
  825MOL0     H11340   3.909   5.239   1.734  2.1777  1.4749  2.7621
  825MOL0     H11341   3.997   5.063   1.953  1.3703 -0.1619  0.7696
  825MOL0     H11342   4.105   5.171   1.858  0.2612 -3.5717 -0.2699
  825MOL0     H11343   4.009   5.355   1.945 -1.3908 -1.1196 -3.4354
  825MOL0     H11344   3.887   5.257   2.030 -0.2944  0.0081 -1.4814
  825MOL0     H11345   4.186   5.199   2.074 -0.3405 -2.6913 -0.2122
  825MOL0     H11346   4.044   5.140   2.162  1.7162 -0.3608  0.4296
  825MOL0     H11347   4.135   5.432   2.153  2.5468 -0.0337  2.1690
  825MOL0     H11348   4.184   5.320   2.279  1.1223  1.9074 -0.5952
  825MOL0     H11349   3.896   5.309   2.250  1.1479 -2.1984  1.0847
  825MOL0     H11350   4.005   5.319   2.400 -2.2164  1.7531  2.0821
  825MOL0     H11351   3.902   5.550   2.221 -0.4223 -1.0483  0.3308
  825MOL0     H11352   4.036   5.568   2.326 -0.1688  0.1699 -1.5003
  825MOL0     H11353   3.916   5.471   2.520  1.9884  1.2379 -0.6251
  825MOL0     H11354   3.849   5.629   2.452 -2.1456 -0.5834 -0.9525
  825MOL0     H11355   3.545   5.059   1.927  0.4947 -2.0775 -0.2200
  825MOL0     H11356   3.329   5.051   1.816 -0.3889 -2.6518 -1.3429
  825MOL0     H11357   3.258   4.851   1.205  0.4733  1.3213 -3.4189
  825MOL0     H11358   3.045   4.833   1.061 -1.5844 -0.4489  0.5072
  825MOL0     H11359   1.159   4.974   1.641  2.0387  0.7194 -1.2414
  825MOL0     H11360   0.903   4.965   1.614  1.2169 -3.3311 -1.3612
  825MOL0     H11361   0.598   5.166   1.277  2.2160  0.0627  1.5480
  825MOL0     H11362   0.344   5.174   1.211 -0.8828  1.4615  0.0417
  825MOL0     H11363   0.138   5.081   1.245 -0.6130  1.1301 -1.3492
  825MOL0     H11364   0.101   5.238   1.173 -1.8941  0.5816 -0.4963
  825MOL0     H11365  -0.110   5.240   1.325  0.5353  0.7084 -0.3406
  825MOL0     H11366  -0.057   5.074   1.373  1.7046 -0.7184 -1.1899
  825MOL0     H11367  -0.082   5.005   1.131  1.0352  0.3489 -0.3882
  825MOL0     H11368  -0.116   5.171   1.088 -0.0228  1.0828  1.6652
  825MOL0     H11369  -0.300   4.981   1.102  1.4776 -0.4165  0.0523
  825MOL0     H11370  -0.283   4.990   1.273 -1.9797 -1.2445 -0.4347
  825MOL0     H11371  -0.506   5.345   1.215 -0.4248  0.7778 -2.3655
  825MOL0     H11372   0.248   5.305   1.600  0.2710  3.1200  0.1327
  825MOL0     H11373   0.537   5.200   1.752  0.9003 -0.4972 -2.7704
  825MOL0     H11374   0.566   5.374   1.721  1.2651 -0.4760 -1.0585
  825MOL0     H11375   0.409   5.312   1.772  1.6323  1.2740  0.3558
  826MOL0     O11376   3.622   8.688   1.566 -0.8073 -0.3413  0.2490
  826MOL0     C11377   3.541   8.668   1.478 -0.1000 -0.8472  0.0481
  826MOL0     O11378   3.564   8.698   1.345  0.4089  0.1008 -0.1657
  826MOL0     C11379   3.675   8.764   1.318 -0.7092 -0.3858  0.6270
  826MOL0     C11380   3.703   8.901   1.332  0.4492 -0.1935  0.3033
  826MOL0     C11381   3.814   8.965   1.294 -0.7606  0.0687 -0.2396
  826MOL0     C11382   3.922   8.889   1.252  0.1890  0.3875  0.5109
  826MOL0     O11383   4.033   8.964   1.215 -0.1051  0.6511 -0.3541
  826MOL0     C11384   4.141   8.889   1.175 -1.2225 -0.6760 -0.1944
  826MOL0     C11385   4.250   8.993   1.146 -0.0840  0.2889  0.6078
  826MOL0     C11386   4.389   8.927   1.163 -0.7643 -0.1627  0.3924
  826MOL0     C11387   4.500   9.028   1.120  0.7399  0.5441  0.7051
  826MOL0     C11388   4.630   8.956   1.151 -0.5157  0.1398  0.0514
  826MOL0     C11389   4.750   9.053   1.125  0.3397  0.2856  0.4488
  826MOL0     C11390   4.879   8.967   1.104  0.8021 -0.0769 -0.0141
  826MOL0     C11391   5.005   9.063   1.105  0.5709 -0.0108  0.2486
  826MOL0     N11392   5.132   8.991   1.080 -0.3020 -0.5640 -0.0471
  826MOL0     C11393   5.216   8.952   1.181 -1.1276 -0.4222 -0.9638
  826MOL0     C11394   5.312   8.878   1.121  0.4820 -0.2873 -0.9520
  826MOL0     C11395   5.420   8.807   1.194  0.2742  0.1416  0.2950
  826MOL0     C11396   5.391   8.666   1.188  0.4068 -0.5717 -0.1072
  826MOL0     C11397   5.491   8.578   1.267 -0.0340  0.1691  0.6527
  826MOL0     C11398   5.634   8.595   1.220 -0.3181 -0.1948  0.1700
  826MOL0     O11399   5.713   8.701   1.278  0.1289  0.1858 -0.1802
  826MOL0     C11400   5.848   8.703   1.267 -0.4918 -0.1076  0.8365
  826MOL0     C11401   5.924   8.614   1.187 -0.3643  0.8692  0.1848
  826MOL0     C11402   6.055   8.631   1.165 -1.1089 -0.5945  0.0473
  826MOL0     C11403   6.125   8.732   1.230 -0.0319 -0.0840  0.8702
  826MOL0     C11404   6.270   8.747   1.212 -0.3496 -0.5984  0.0322
  826MOL0     O11405   6.324   8.859   1.268 -0.3354 -0.6843  0.3258
  826MOL0     C11406   6.457   8.889   1.234  0.7870  0.3382 -0.5256
  826MOL0     C11407   6.493   8.911   1.106  0.0671 -0.6468  0.0791
  826MOL0     C11408   6.629   8.940   1.070  0.4483 -0.1077 -0.0420
  826MOL0     C11409   6.721   8.933   1.165 -1.2634  0.6649  0.1383
  826MOL0     O11410   6.846   8.952   1.112 -0.0458  0.5117 -0.5124
  826MOL0     C11411   6.958   8.902   1.193 -0.7427 -0.5036  0.3922
  826MOL0     C11412   7.082   8.917   1.093  0.3471 -0.1863 -0.1966
  826MOL0     C11413   7.201   8.867   1.166 -0.2354 -0.1086  0.7899
  826MOL0     C11414   7.321   8.867   1.066 -0.0237 -0.2998 -0.0996
  826MOL0     C11415   7.460   8.880   1.130 -0.2740 -0.5226 -0.1863
  826MOL0     C11416   7.571   8.860   1.030  0.4507 -0.1595  0.4234
  826MOL0     C11417   7.712   8.870   1.102 -0.0077  0.5116  0.0614
  826MOL0     C11418   7.740   8.753   1.192 -0.9179  0.0569  0.1815
  826MOL0    Cl11419   7.885   8.788   1.291 -0.1808  0.3654  0.3743
  826MOL0     C11420   6.691   8.899   1.296 -0.5089 -0.7193 -0.3002
  826MOL0     C11421   6.554   8.893   1.330  0.5553 -0.0916  0.2196
  826MOL0     O11422   6.327   8.663   1.140  0.2482 -0.9631 -0.4971
  826MOL0     C11423   6.057   8.833   1.296 -0.6058  1.2403 -1.0870
  826MOL0     C11424   5.921   8.814   1.318 -0.0495 -0.6516  0.1199
  826MOL0     N11425   5.285   8.885   0.986  0.9147  0.0813  0.4892
  826MOL0     N11426   5.181   8.960   0.962 -0.5200  0.1767  1.0435
  826MOL0     C11427   3.902   8.753   1.233 -0.6408 -0.5231 -0.7228
  826MOL0     C11428   3.786   8.687   1.279  0.2569  0.3431  0.1024
  826MOL0     C11429   3.414   8.605   1.512  0.3557  0.2278  0.0276
  826MOL0     C11430   3.320   8.580   1.415 -0.1271  1.1811 -0.5604
  826MOL0     C11431   3.186   8.539   1.439  0.0042 -0.3117 -0.5771
  826MOL0     C11432   3.151   8.523   1.572 -0.1978 -0.4294 -0.3325
  826MOL0     O11433   3.021   8.478   1.594  0.1747 -0.4898 -0.4178
  826MOL0     C11434   2.961   8.519   1.717  0.2624  0.0311 -0.0220
  826MOL0     C11435   2.816   8.528   1.706  0.5035 -0.4523  0.2267
  826MOL0     C11436   2.775   8.624   1.597 -0.1413 -0.0827  0.9817
  826MOL0     C11437   2.653   8.579   1.516  0.9929  0.2407 -0.2608
  826MOL0     C11438   2.539   8.551   1.601 -0.2283 -0.3677 -0.0714
  826MOL0     C11439   2.428   8.570   1.658  0.0252 -0.3189  0.1602
  826MOL0     C11440   3.242   8.537   1.673 -0.1125  0.4713 -0.0547
  826MOL0     C11441   3.368   8.592   1.648  0.1069  0.0450 -0.1249
  826MOL0     C11442   3.462   8.595   1.766  0.3640  0.1473  0.0350
  826MOL0     H11443   3.614   8.949   1.372  0.4053 -0.5356  0.6225
  826MOL0     H11444   3.821   9.074   1.300  3.4862  0.0095 -0.9249
  826MOL0     H11445   4.169   8.829   1.262 -1.4208  1.0409  1.1170
  826MOL0     H11446   4.127   8.824   1.088  0.4102 -0.8222 -0.3635
  826MOL0     H11447   4.240   9.085   1.205 -2.6247  0.1263  0.5352
  826MOL0     H11448   4.236   9.021   1.041  0.9885  1.0890  0.6573
  826MOL0     H11449   4.393   8.827   1.118 -3.1537  0.3390 -1.1000
  826MOL0     H11450   4.417   8.913   1.268  2.0820 -0.7535 -0.3558
  826MOL0     H11451   4.503   9.056   1.014 -0.1914  0.6007  0.6874
  826MOL0     H11452   4.495   9.113   1.189 -3.6287 -1.2864  3.0918
  826MOL0     H11453   4.630   8.916   1.253 -1.9605 -0.3854 -0.1267
  826MOL0     H11454   4.624   8.880   1.073 -2.5224  3.2636 -3.1460
  826MOL0     H11455   4.732   9.120   1.041 -0.3389  0.4038  0.6808
  826MOL0     H11456   4.767   9.106   1.220 -0.1776  0.2259  0.5748
  826MOL0     H11457   4.873   8.921   1.005 -1.5173 -0.3444  0.1968
  826MOL0     H11458   4.879   8.892   1.184 -0.8685 -1.4520 -1.2340
  826MOL0     H11459   4.995   9.141   1.029 -0.0294 -0.4670 -0.1573
  826MOL0     H11460   5.005   9.126   1.194  0.7499  0.8695 -0.3633
  826MOL0     H11461   5.208   8.974   1.287  1.9110 -0.1475 -0.6959
  826MOL0     H11462   5.507   8.831   1.132 -0.5951 -2.9131 -2.3443
  826MOL0     H11463   5.422   8.833   1.301 -0.1445  2.9243 -0.2832
  826MOL0     H11464   5.297   8.649   1.242  0.0420  1.6932  0.0589
  826MOL0     H11465   5.375   8.627   1.087 -1.1192 -1.5972  0.4982
  826MOL0     H11466   5.453   8.477   1.248  0.9086 -1.3074  5.3456
  826MOL0     H11467   5.487   8.593   1.375 -1.2483  1.4942  0.4467
  826MOL0     H11468   5.626   8.616   1.113 -0.5289  1.5075  0.4887
  826MOL0     H11469   5.693   8.504   1.236  0.0882 -0.3005 -1.7343
  826MOL0     H11470   5.879   8.533   1.131  0.5808  0.7333 -0.4112
  826MOL0     H11471   6.100   8.555   1.103 -0.9662 -0.4128 -0.0742
  826MOL0     H11472   6.417   8.915   1.028  2.2758 -3.2770 -2.4616
  826MOL0     H11473   6.664   8.966   0.970 -0.6983 -0.2272 -0.4941
  826MOL0     H11474   6.969   8.972   1.277 -2.2295  2.7251 -1.8873
  826MOL0     H11475   6.942   8.797   1.218  0.2282 -0.8695 -0.4686
  826MOL0     H11476   7.073   8.857   1.001 -0.5498 -1.2041  0.5224
  826MOL0     H11477   7.104   9.023   1.080 -1.4690  0.7826  3.4405
  826MOL0     H11478   7.231   8.919   1.257 -0.6918  1.7305 -0.0651
  826MOL0     H11479   7.178   8.762   1.187 -1.5334  0.0193  0.1108
  826MOL0     H11480   7.310   8.942   0.987 -1.8759 -1.7222 -1.3049
  826MOL0     H11481   7.321   8.771   1.013 -1.9241  0.4860 -1.6486
  826MOL0     H11482   7.457   8.806   1.211 -5.3968  0.5920  1.0638
  826MOL0     H11483   7.454   8.979   1.177 -1.0405 -0.7590  0.2396
  826MOL0     H11484   7.563   8.765   0.976  0.2986  1.2039 -2.1028
  826MOL0     H11485   7.564   8.937   0.953  0.4581 -0.1174  0.4637
  826MOL0     H11486   7.717   8.964   1.158  1.9112  0.6676 -0.3304
  826MOL0     H11487   7.781   8.870   1.017 -1.6898  2.2712 -1.4089
  826MOL0     H11488   7.659   8.748   1.266 -1.5626  0.8081 -0.4519
  826MOL0     H11489   7.735   8.663   1.129  0.7054 -1.3137  1.9064
  826MOL0     H11490   6.770   8.887   1.370 -1.1754  1.5427  0.8547
  826MOL0     H11491   6.506   8.889   1.428  0.4306  2.0813  0.3088
  826MOL0     H11492   6.100   8.926   1.332 -0.7804  0.0826  2.3909
  826MOL0     H11493   5.862   8.894   1.361  0.2464  0.1529 -0.9179
  826MOL0     H11494   3.970   8.686   1.181 -2.3856 -0.5176 -3.2204
  826MOL0     H11495   3.778   8.579   1.264 -0.0066  0.2357  0.9662
  826MOL0     H11496   3.355   8.589   1.312  0.0348  3.1650 -0.3782
  826MOL0     H11497   3.114   8.517   1.361 -1.6830  0.7639  0.6187
  826MOL0     H11498   2.997   8.618   1.749  1.6307 -0.7771  1.0535
  826MOL0     H11499   3.001   8.453   1.795  0.7258 -1.6398 -1.6089
  826MOL0     H11500   2.769   8.581   1.789  2.6268 -1.2138  2.0200
  826MOL0     H11501   2.771   8.429   1.702 -1.1463  0.2578  0.5300
  826MOL0     H11502   2.860   8.638   1.529  1.3539 -2.0932  2.3091
  826MOL0     H11503   2.755   8.719   1.647 -0.6556 -0.8767  2.3457
  826MOL0     H11504   2.622   8.652   1.441  2.5013  2.1271  0.8583
  826MOL0     H11505   2.681   8.488   1.463  0.5501 -0.5497  0.8225
  826MOL0     H11506   2.338   8.573   1.716  1.0958  0.5357  1.8269
  826MOL0     H11507   3.222   8.493   1.769 -0.2486 -2.6561 -1.3970
  826MOL0     H11508   3.399   8.596   1.855 -0.1381  1.4352 -0.3179
  826MOL0     H11509   3.528   8.507   1.765 -1.2841 -1.1524  0.9849
  826MOL0     H11510   3.524   8.685   1.774  0.1764  0.3364 -0.6225
  827MOL0     O11511   8.336   6.661   9.321 -0.3180  0.2433  0.0007
  827MOL0     C11512   8.342   6.784   9.289  0.1079 -0.2467 -0.2450
  827MOL0     O11513   8.451   6.839   9.240 -0.5049 -0.1061  0.5019
  827MOL0     C11514   8.581   6.790   9.216 -0.2670 -0.3720  0.1641
  827MOL0     C11515   8.616   6.659   9.210  0.9972 -0.4794 -0.3397
  827MOL0     C11516   8.743   6.615   9.178 -0.3593 -0.3461 -0.2365
  827MOL0     C11517   8.835   6.703   9.143 -0.2173 -0.7688  0.4316
  827MOL0     O11518   8.952   6.662   9.080 -0.2253  0.2143  0.4529
  827MOL0     C11519   9.052   6.581   9.149  0.0203 -0.6133 -0.1599
  827MOL0     C11520   9.186   6.591   9.074 -0.2405  0.1537 -0.5524
  827MOL0     C11521   9.241   6.735   9.109  0.8610 -0.5043  0.5408
  827MOL0     C11522   9.381   6.749   9.061  0.1493  0.2225  0.0491
  827MOL0     C11523   9.487   6.749   9.173  0.2853  0.0792 -0.1608
  827MOL0     C11524   9.631   6.782   9.112  0.3249  0.3506 -0.3324
  827MOL0     C11525   9.740   6.813   9.221 -0.1560 -0.5339  0.8835
  827MOL0     C11526   9.865   6.860   9.150  0.5855  0.2584 -0.0481
  827MOL0     N11527   9.950   6.949   9.235 -0.0569 -0.1178  0.1410
  827MOL0     C11528  10.003   7.073   9.206  0.2406  0.7432  0.0592
  827MOL0     C11529  10.098   7.094   9.300 -0.1979 -0.2756 -0.8980
  827MOL0     C11530  10.185   7.214   9.315  0.6647 -0.0204  0.8136
  827MOL0     C11531  10.333   7.179   9.302 -0.6787  0.0721 -0.0462
  827MOL0     C11532  10.418   7.318   9.310 -0.2404  0.3464  0.9022
  827MOL0     C11533  10.566   7.289   9.297 -0.1543 -0.3047 -0.7644
  827MOL0     O11534  10.591   7.222   9.170  0.0194 -0.1305 -0.1415
  827MOL0     C11535  10.724   7.183   9.161 -1.0629 -1.0067 -0.3975
  827MOL0     C11536  10.756   7.085   9.070  0.5483  0.5276  0.5964
  827MOL0     C11537  10.891   7.046   9.045  0.0876  0.2798  0.2188
  827MOL0     C11538  11.001   7.100   9.120 -0.1023 -0.5515 -0.3225
  827MOL0     C11539  11.137   7.073   9.093 -0.9751 -0.0590  0.5274
  827MOL0     O11540  11.227   7.104   9.186  0.2841  0.0738  0.4022
  827MOL0     C11541  11.347   7.041   9.186 -0.5905 -0.0799  0.2956
  827MOL0     C11542  11.460   7.117   9.223  0.1863  0.2189  0.4239
  827MOL0     C11543  11.583   7.064   9.235 -0.0806 -0.8429  0.6809
  827MOL0     C11544  11.605   6.923   9.211  0.4941 -1.2231  0.0683
  827MOL0     O11545  11.735   6.879   9.220  0.0852 -0.4745  0.5286
  827MOL0     C11546  11.768   6.766   9.139  1.1038 -0.1262 -0.1281
  827MOL0     C11547  11.919   6.763   9.147 -0.4500 -0.9232  0.0637
  827MOL0     C11548  11.988   6.893   9.103  0.0941  0.5557 -0.0765
  827MOL0     C11549  12.141   6.883   9.113  0.7391  0.0514  0.3561
  827MOL0     C11550  12.208   7.018   9.099  0.0940  0.6950  0.0736
  827MOL0     C11551  12.361   7.007   9.122 -0.6302  0.0195 -0.5566
  827MOL0     C11552  12.428   7.137   9.069  0.5765 -0.1293 -0.2992
  827MOL0     C11553  12.585   7.129   9.083 -0.0896 -0.2463 -0.7081
  827MOL0    Cl11554  12.612   7.095   9.257  0.7840  0.0658  0.3036
  827MOL0     C11555  11.493   6.843   9.185 -0.3543 -0.7612  0.2109
  827MOL0     C11556  11.364   6.903   9.170 -0.4766  0.0951  0.6565
  827MOL0     O11557  11.158   7.023   8.987 -0.1992  0.3963  0.2766
  827MOL0     C11558  10.969   7.198   9.215  0.4710  0.3244  0.9961
  827MOL0     C11559  10.835   7.238   9.233 -0.4000 -0.4364 -0.1329
  827MOL0     N11560  10.092   6.989   9.387  0.1427  0.8376  0.5652
  827MOL0     N11561  10.018   6.896   9.341  0.2696 -0.2314  0.6409
  827MOL0     C11562   8.806   6.838   9.144 -0.2159  1.0701  0.7534
  827MOL0     C11563   8.680   6.882   9.176  0.5004  0.0078  0.5155
  827MOL0     C11564   8.220   6.873   9.308 -0.1300 -0.4066 -0.0387
  827MOL0     C11565   8.211   6.998   9.247  0.1235 -0.0672 -0.5240
  827MOL0     C11566   8.101   7.077   9.259 -0.7201 -0.1838 -0.6590
  827MOL0     C11567   8.002   7.060   9.355  1.2280 -0.6538  0.5563
  827MOL0     O11568   7.880   7.121   9.372  0.1014 -0.4573 -0.0678
  827MOL0     C11569   7.882   7.262   9.342  0.9348 -0.3839 -0.9669
  827MOL0     C11570   7.762   7.320   9.418 -1.1021  0.3746 -0.7987
  827MOL0     C11571   7.634   7.304   9.351 -0.4816  0.7766 -0.1241
  827MOL0     C11572   7.514   7.374   9.407 -0.7937 -0.0194 -0.3449
  827MOL0     C11573   7.535   7.519   9.416 -0.5448 -0.3740  0.5932
  827MOL0     C11574   7.569   7.638   9.413  0.8738 -0.0071  0.8432
  827MOL0     C11575   8.009   6.939   9.416 -0.2984 -0.3604 -0.9436
  827MOL0     C11576   8.117   6.847   9.395  0.3836 -0.5867  0.1673
  827MOL0     C11577   8.105   6.719   9.472 -0.4858 -0.7617  0.1449
  827MOL0     H11578   8.552   6.580   9.249  1.2077  1.4659  4.5097
  827MOL0     H11579   8.770   6.510   9.173 -0.9054 -0.4567 -1.0589
  827MOL0     H11580   9.066   6.634   9.244  1.9712 -1.2979 -0.0179
  827MOL0     H11581   9.027   6.475   9.160 -0.6166 -0.5677 -1.0986
  827MOL0     H11582   9.173   6.573   8.967 -2.0987 -2.0374 -0.0258
  827MOL0     H11583   9.247   6.510   9.116  0.1215  1.3582  1.4138
  827MOL0     H11584   9.239   6.754   9.217  1.1968 -0.3618  0.5241
  827MOL0     H11585   9.178   6.806   9.054  0.2705 -0.3323  1.4054
  827MOL0     H11586   9.412   6.677   8.984  4.2028  1.4154  0.3477
  827MOL0     H11587   9.391   6.851   9.022  1.6902  1.0603  2.3991
  827MOL0     H11588   9.471   6.820   9.254  0.8360 -2.7955  2.6688
  827MOL0     H11589   9.488   6.650   9.220  0.8911  1.0706  2.0192
  827MOL0     H11590   9.651   6.695   9.048 -1.7206 -0.8013  0.4617
  827MOL0     H11591   9.619   6.864   9.041  1.4695  1.1874  0.4090
  827MOL0     H11592   9.767   6.724   9.279 -0.6449 -0.7961  0.7193
  827MOL0     H11593   9.718   6.890   9.295  0.3250  0.8657 -0.3942
  827MOL0     H11594   9.922   6.771   9.124  0.8357  1.2763 -3.4926
  827MOL0     H11595   9.837   6.904   9.054  1.4154 -0.4667 -0.6377
  827MOL0     H11596   9.973   7.135   9.122  1.6685  0.2161 -0.8746
  827MOL0     H11597  10.156   7.293   9.245  1.4514  0.0083  0.5184
  827MOL0     H11598  10.166   7.255   9.415 -1.6790 -2.5745  1.5489
  827MOL0     H11599  10.367   7.111   9.381  1.4883  1.3277  0.1659
  827MOL0     H11600  10.355   7.130   9.207 -0.8236 -2.8107  1.2826
  827MOL0     H11601  10.400   7.375   9.402 -0.7998  1.9107 -0.1267
  827MOL0     H11602  10.385   7.368   9.218 -0.4363 -0.6349  0.4314
  827MOL0     H11603  10.590   7.224   9.382 -0.6086  0.3890 -0.0976
  827MOL0     H11604  10.624   7.382   9.303  0.3248 -0.5513 -1.4645
  827MOL0     H11605  10.677   7.048   9.005  1.8958 -4.4082  1.3442
  827MOL0     H11606  10.921   6.979   8.964 -0.8619  0.0221  0.0651
  827MOL0     H11607  11.440   7.220   9.252 -2.1857 -0.1845  0.4401
  827MOL0     H11608  11.670   7.126   9.253 -0.0468 -0.3003 -1.1254
  827MOL0     H11609  11.719   6.683   9.190  1.1973 -0.3166 -0.3479
  827MOL0     H11610  11.734   6.776   9.035  0.6149 -1.1102 -0.0713
  827MOL0     H11611  11.945   6.744   9.251  0.3604  2.3906  0.5766
  827MOL0     H11612  11.952   6.677   9.088  1.6023  1.6890 -2.9285
  827MOL0     H11613  11.969   6.922   9.000 -1.4050  2.3824  0.6516
  827MOL0     H11614  11.959   6.976   9.169 -0.1656  0.1350  0.3435
  827MOL0     H11615  12.195   6.804   9.060  0.2208 -1.6452  2.2355
  827MOL0     H11616  12.157   6.858   9.219 -0.6270  1.0815  0.8357
  827MOL0     H11617  12.163   7.091   9.167  0.4513 -1.1448  2.4484
  827MOL0     H11618  12.184   7.038   8.994 -1.0270 -1.9805 -0.2618
  827MOL0     H11619  12.379   6.990   9.229  0.3898 -1.3017 -0.9170
  827MOL0     H11620  12.396   6.920   9.067 -1.7153 -1.0054  0.3221
  827MOL0     H11621  12.395   7.227   9.121 -2.0694  0.1439 -2.2625
  827MOL0     H11622  12.392   7.154   8.967 -1.0524  1.8514  0.5469
  827MOL0     H11623  12.627   7.060   9.009 -0.4992 -0.2640 -0.9294
  827MOL0     H11624  12.638   7.223   9.064  2.8529 -1.3662  1.2184
  827MOL0     H11625  11.486   6.735   9.180  0.4015 -0.7704 -0.8268
  827MOL0     H11626  11.281   6.834   9.161  2.7763 -4.1113 -0.4952
  827MOL0     H11627  11.046   7.254   9.266 -1.1221  1.9097  1.7673
  827MOL0     H11628  10.839   7.317   9.307  3.4416 -0.6702  0.0789
  827MOL0     H11629   8.877   6.906   9.099  2.6407 -1.6816  0.7239
  827MOL0     H11630   8.661   6.989   9.166 -0.8952 -0.3657 -1.3747
  827MOL0     H11631   8.289   7.023   9.175  1.3196 -0.9782  0.4047
  827MOL0     H11632   8.101   7.176   9.214 -2.6048  0.0905 -0.1685
  827MOL0     H11633   7.862   7.282   9.237  1.0463 -1.2222 -1.1542
  827MOL0     H11634   7.977   7.300   9.381  0.6484 -1.1949  0.6236
  827MOL0     H11635   7.779   7.428   9.420 -0.1503  0.2164  1.1714
  827MOL0     H11636   7.758   7.294   9.524 -2.5885  0.5244 -0.7982
  827MOL0     H11637   7.605   7.199   9.346 -2.1306  1.2150 -0.3940
  827MOL0     H11638   7.653   7.346   9.251  0.6411 -1.6120 -0.9807
  827MOL0     H11639   7.431   7.353   9.339  0.2143 -0.1064 -1.5916
  827MOL0     H11640   7.495   7.329   9.505 -3.3450 -0.3761 -0.9203
  827MOL0     H11641   7.594   7.742   9.404  0.5243  0.0597  0.6454
  827MOL0     H11642   7.925   6.902   9.475  0.7931 -1.1698  0.1608
  827MOL0     H11643   8.109   6.638   9.399  2.0677  0.9349 -1.7832
  827MOL0     H11644   8.189   6.721   9.542 -1.1793  0.5963  0.9723
  827MOL0     H11645   8.014   6.718   9.533 -1.7559 -1.5165 -1.6592
  828MOL0     O11646   8.636   9.025   0.257 -0.6545 -0.5207 -1.0353
  828MOL0     C11647   8.752   9.024   0.217  0.3363  1.1932 -0.5791
  828MOL0     O11648   8.791   9.031   0.084 -0.4639 -0.3690  0.3225
  828MOL0     C11649   8.704   9.076  -0.017 -0.0919  0.0673  0.2125
  828MOL0     C11650   8.621   9.187   0.002  0.8255 -0.6118 -0.2688
  828MOL0     C11651   8.546   9.237  -0.100 -0.6708 -0.3590  1.0017
  828MOL0     C11652   8.558   9.175  -0.229  0.1833 -0.0895  0.2374
  828MOL0     O11653   8.499   9.221  -0.338 -0.1718  0.8534 -0.4067
  828MOL0     C11654   8.419   9.132  -0.417 -0.4775  0.5923  0.6506
  828MOL0     C11655   8.333   9.208  -0.528  0.4788 -0.0116 -0.9688
  828MOL0     C11656   8.196   9.136  -0.565  0.5360  0.7133 -0.6013
  828MOL0     C11657   8.079   9.217  -0.619 -0.5147  0.2363 -0.2992
  828MOL0     C11658   7.972   9.131  -0.669  0.3585  0.0401  0.3462
  828MOL0     C11659   7.857   9.232  -0.720 -0.6377 -0.4198 -0.1159
  828MOL0     C11660   7.730   9.159  -0.744 -0.8255  0.4332 -0.7830
  828MOL0     C11661   7.604   9.246  -0.763  0.0698  0.1436  0.7214
  828MOL0     N11662   7.611   9.347  -0.870  0.7563  0.0480 -0.1248
  828MOL0     C11663   7.581   9.327  -1.005 -0.8911 -0.8433 -0.3769
  828MOL0     C11664   7.618   9.441  -1.065  0.3966  0.4584  1.2660
  828MOL0     C11665   7.600   9.487  -1.210  0.9894  0.4081 -0.4914
  828MOL0     C11666   7.739   9.486  -1.274  0.4696  0.7550  0.4721
  828MOL0     C11667   7.832   9.597  -1.215  0.4119  0.2513 -0.5462
  828MOL0     C11668   7.946   9.625  -1.314 -0.8335  0.4141 -0.0045
  828MOL0     O11669   7.996   9.494  -1.349  0.0794 -0.5317  1.2585
  828MOL0     C11670   8.127   9.488  -1.392 -0.1398 -0.1341  0.9933
  828MOL0     C11671   8.196   9.372  -1.375 -0.8020 -0.7361 -0.5150
  828MOL0     C11672   8.325   9.369  -1.421 -0.0773  0.4469 -0.1509
  828MOL0     C11673   8.397   9.481  -1.475 -0.3228 -0.1196 -0.0159
  828MOL0     C11674   8.547   9.474  -1.509 -0.2830 -0.4857 -0.1235
  828MOL0     O11675   8.590   9.579  -1.588  0.4957  0.3628 -0.4182
  828MOL0     C11676   8.724   9.579  -1.616 -0.4132  0.0022  0.5927
  828MOL0     C11677   8.811   9.667  -1.560  0.1596  0.4659  0.2550
  828MOL0     C11678   8.945   9.673  -1.607  0.4300  0.7601 -0.0411
  828MOL0     C11679   8.989   9.600  -1.711  0.2630  1.3348 -0.1972
  828MOL0     O11680   9.119   9.609  -1.739 -0.2608  0.2998 -0.2328
  828MOL0     C11681   9.176   9.543  -1.848 -0.2220  0.2067  0.1714
  828MOL0     C11682   9.321   9.506  -1.832 -0.6677  0.2245  0.2279
  828MOL0     C11683   9.401   9.636  -1.829 -0.1059 -0.5111 -0.1411
  828MOL0     C11684   9.546   9.620  -1.872 -0.5159 -0.3431 -0.4676
  828MOL0     C11685   9.618   9.760  -1.868  0.1735  1.1121  0.0465
  828MOL0     C11686   9.568   9.864  -1.960 -1.1233 -0.9259  0.0918
  828MOL0     C11687   9.668   9.928  -2.048  0.6037 -0.5047  1.0689
  828MOL0     C11688   9.746  10.035  -1.980  0.4336  0.2138 -0.4851
  828MOL0    Cl11689   9.891  10.092  -2.067  0.0886  0.1403  0.1126
  828MOL0     C11690   8.899   9.514  -1.772 -0.8897  0.2380  0.8756
  828MOL0     C11691   8.768   9.501  -1.727  0.2855  0.2670  0.2778
  828MOL0     O11692   8.610   9.370  -1.476  0.3638 -0.7119  0.4092
  828MOL0     C11693   8.320   9.595  -1.497  0.2788  0.8370  0.3949
  828MOL0     C11694   8.186   9.596  -1.466  0.1530  0.1748  0.3344
  828MOL0     N11695   7.650   9.528  -0.962 -0.1363 -0.2844 -0.3270
  828MOL0     N11696   7.641   9.474  -0.850 -0.1785  0.9934 -0.0473
  828MOL0     C11697   8.635   9.060  -0.245 -1.1011 -0.1763 -0.0975
  828MOL0     C11698   8.715   9.019  -0.145 -0.0565  0.3960 -0.6727
  828MOL0     C11699   8.861   8.985   0.315 -0.1394  0.4760  0.0146
  828MOL0     C11700   8.983   9.043   0.303  0.6593 -0.4954 -0.0969
  828MOL0     C11701   9.090   9.014   0.384 -0.0587 -0.2221  0.3863
  828MOL0     C11702   9.077   8.916   0.489  0.2193 -0.4081  1.0049
  828MOL0     O11703   9.182   8.865   0.558  0.7242 -0.5155  0.8437
  828MOL0     C11704   9.230   8.949   0.663 -0.5668  0.2569  0.2276
  828MOL0     C11705   9.349   9.040   0.611  0.1552 -0.2263 -0.6907
  828MOL0     C11706   9.412   9.118   0.729 -0.3630  1.0420 -0.5324
  828MOL0     C11707   9.515   9.220   0.682 -0.5929  1.1096  0.2092
  828MOL0     C11708   9.451   9.329   0.605 -0.0140  0.9913  0.0471
  828MOL0     C11709   9.412   9.424   0.542 -0.5060 -0.1602 -0.0113
  828MOL0     C11710   8.958   8.855   0.496  0.3624 -0.7837 -0.0294
  828MOL0     C11711   8.844   8.899   0.423 -0.2252 -0.3957  0.1189
  828MOL0     C11712   8.721   8.820   0.455  0.4600  0.1037 -0.6797
  828MOL0     H11713   8.616   9.244   0.094 -3.0248 -1.0903  0.0006
  828MOL0     H11714   8.485   9.326  -0.092 -0.7822 -0.4228  0.8808
  828MOL0     H11715   8.490   9.068  -0.470 -1.2350  2.4742 -2.9894
  828MOL0     H11716   8.354   9.074  -0.351 -1.0404 -1.9350 -1.9216
  828MOL0     H11717   8.388   9.228  -0.621 -0.9203 -1.4646 -2.1746
  828MOL0     H11718   8.296   9.301  -0.485 -1.9525 -1.5294  0.4696
  828MOL0     H11719   8.154   9.096  -0.473 -0.8263 -0.3246 -1.6193
  828MOL0     H11720   8.216   9.054  -0.636 -0.8627 -0.9579  0.8275
  828MOL0     H11721   8.042   9.269  -0.530 -3.4643 -0.9791 -0.7004
  828MOL0     H11722   8.107   9.289  -0.696 -3.2214  2.1405  0.3516
  828MOL0     H11723   8.007   9.057  -0.740 -1.2790 -1.7010  1.2591
  828MOL0     H11724   7.923   9.086  -0.582 -0.4207  3.3480  1.7842
  828MOL0     H11725   7.824   9.299  -0.640 -0.7279  1.7097 -1.8430
  828MOL0     H11726   7.897   9.298  -0.798  1.9120 -1.5061  0.1923
  828MOL0     H11727   7.713   9.078  -0.673 -0.6381  0.5624 -0.5911
  828MOL0     H11728   7.740   9.100  -0.836 -0.2006 -4.1147  1.9012
  828MOL0     H11729   7.523   9.178  -0.789 -1.0937  2.4926 -2.5389
  828MOL0     H11730   7.571   9.288  -0.668  0.2874 -1.5431  1.5656
  828MOL0     H11731   7.547   9.240  -1.060 -1.0250 -0.6946 -0.5297
  828MOL0     H11732   7.532   9.420  -1.264  3.2307 -1.2957 -1.3607
  828MOL0     H11733   7.557   9.587  -1.218 -0.7816 -0.3695 -1.2260
  828MOL0     H11734   7.772   9.383  -1.260  1.8474  1.2994  1.4059
  828MOL0     H11735   7.723   9.487  -1.383 -0.7635 -1.9665  0.5643
  828MOL0     H11736   7.871   9.543  -1.128  1.2867 -0.1050 -1.1505
  828MOL0     H11737   7.777   9.688  -1.190  3.6040  1.2329  4.1534
  828MOL0     H11738   8.018   9.692  -1.267 -0.3299  0.6872 -1.1316
  828MOL0     H11739   7.903   9.669  -1.405  0.6350 -2.8349 -2.4872
  828MOL0     H11740   8.148   9.295  -1.315 -0.4367 -0.7392 -0.2223
  828MOL0     H11741   8.372   9.272  -1.407 -1.1875  0.0458  1.0613
  828MOL0     H11742   8.782   9.728  -1.475 -0.7246  2.0922 -1.1456
  828MOL0     H11743   9.018   9.730  -1.550 -0.3828 -0.1005  1.9354
  828MOL0     H11744   9.128   9.447  -1.870  0.1163 -0.0184  0.4102
  828MOL0     H11745   9.161   9.614  -1.930  0.9606  1.7362  1.2253
  828MOL0     H11746   9.341   9.444  -1.744  0.0521 -0.0975 -0.1532
  828MOL0     H11747   9.346   9.441  -1.916  1.2293  0.5807  0.4631
  828MOL0     H11748   9.361   9.714  -1.894  0.8489  0.0951 -0.0145
  828MOL0     H11749   9.398   9.681  -1.730  0.7863  0.9810 -0.7590
  828MOL0     H11750   9.549   9.592  -1.977 -1.5540 -0.2645 -0.5348
  828MOL0     H11751   9.598   9.544  -1.813 -3.7389 -2.3926 -0.0195
  828MOL0     H11752   9.726   9.748  -1.875 -0.0341 -2.2212  0.9932
  828MOL0     H11753   9.611   9.804  -1.768  0.3748  2.6127 -0.5699
  828MOL0     H11754   9.490   9.812  -2.017  0.6502 -1.0467 -2.3638
  828MOL0     H11755   9.523   9.946  -1.903  0.2238  1.1141 -1.6697
  828MOL0     H11756   9.617   9.973  -2.134 -1.0044 -2.4157  0.9665
  828MOL0     H11757   9.740   9.857  -2.089 -0.3374 -1.0555  0.3125
  828MOL0     H11758   9.680  10.120  -1.958 -1.0124 -1.5437  2.7319
  828MOL0     H11759   9.774  10.003  -1.879  0.5628  2.3396  0.2192
  828MOL0     H11760   8.929   9.452  -1.856 -1.6838  2.5410 -1.2189
  828MOL0     H11761   8.698   9.430  -1.771 -0.0724  1.7331 -1.6867
  828MOL0     H11762   8.370   9.675  -1.550  1.0164 -1.3207 -2.4018
  828MOL0     H11763   8.128   9.686  -1.486  1.9974  2.2978  3.6563
  828MOL0     H11764   8.649   9.000  -0.335  0.0583 -1.0814  0.6483
  828MOL0     H11765   8.782   8.936  -0.165 -0.1097 -0.2098  1.3520
  828MOL0     H11766   8.984   9.118   0.224 -2.2890  2.5428  2.4460
  828MOL0     H11767   9.185   9.051   0.345 -0.6295 -0.0887 -0.9419
  828MOL0     H11768   9.267   8.889   0.747  1.0607 -0.8444 -1.2131
  828MOL0     H11769   9.155   9.019   0.702  1.0531  2.3299 -0.1915
  828MOL0     H11770   9.317   9.106   0.530 -2.2455 -1.2251 -0.6320
  828MOL0     H11771   9.422   8.970   0.570  0.2222  0.0478 -1.0425
  828MOL0     H11772   9.456   9.052   0.804 -2.9989  0.5386  0.6671
  828MOL0     H11773   9.328   9.169   0.776 -1.7066 -2.4959  1.3066
  828MOL0     H11774   9.563   9.264   0.770 -0.4332  0.5225  0.4167
  828MOL0     H11775   9.588   9.176   0.614  2.8986  5.1149  0.9691
  828MOL0     H11776   9.389   9.510   0.483 -0.6461  0.0634  0.3687
  828MOL0     H11777   8.955   8.772   0.564 -3.1595 -0.8486 -0.1180
  828MOL0     H11778   8.665   8.786   0.367  0.1718 -1.1312 -0.0444
  828MOL0     H11779   8.748   8.723   0.496 -0.7505 -1.3017 -2.9977
  828MOL0     H11780   8.661   8.883   0.521  1.5586  4.3974 -3.3219
  829MOL0     O11781   6.497   7.941   1.157  0.6573  0.0148 -0.0203
  829MOL0     C11782   6.593   7.877   1.206  0.5984 -0.3542 -0.4748
  829MOL0     O11783   6.594   7.741   1.212 -0.4981 -0.1057  0.0810
  829MOL0     C11784   6.496   7.658   1.159  0.2061 -0.1395 -0.7614
  829MOL0     C11785   6.454   7.550   1.242  0.7824  1.0380  0.0325
  829MOL0     C11786   6.362   7.456   1.190  0.0216 -0.0211 -0.6762
  829MOL0     C11787   6.306   7.464   1.064 -0.6136 -1.0586  0.1080
  829MOL0     O11788   6.221   7.367   1.027 -0.4929 -0.6070 -0.7352
  829MOL0     C11789   6.086   7.413   1.002 -0.6285  0.5515 -0.5274
  829MOL0     C11790   5.966   7.328   1.043 -0.7658  0.3389  0.1104
  829MOL0     C11791   5.846   7.401   1.000  0.0198 -0.5248 -0.0600
  829MOL0     C11792   5.715   7.329   1.040  0.9144  0.4846 -0.1006
  829MOL0     C11793   5.593   7.420   1.026 -0.4481 -0.1621  0.6309
  829MOL0     C11794   5.464   7.341   1.041  1.1920  0.3054 -0.2586
  829MOL0     C11795   5.338   7.430   1.015  0.1209 -0.4146  0.3721
  829MOL0     C11796   5.204   7.361   1.039 -0.3521 -0.7139 -0.3851
  829MOL0     N11797   5.168   7.276   0.929 -0.3909 -0.2738 -0.5489
  829MOL0     C11798   5.236   7.168   0.874 -0.2480 -0.0035 -0.5575
  829MOL0     C11799   5.159   7.120   0.771  0.0440  0.0954  0.6364
  829MOL0     C11800   5.195   7.001   0.688 -0.3035  0.1531  0.5564
  829MOL0     C11801   5.227   7.028   0.543  0.0149 -0.0025 -0.5912
  829MOL0     C11802   5.254   6.896   0.460 -0.2135  0.0793 -0.6512
  829MOL0     C11803   5.160   6.879   0.345  0.0857  0.5518 -0.0022
  829MOL0     O11804   5.153   6.743   0.310  0.1668  0.3282 -0.2530
  829MOL0     C11805   5.264   6.689   0.240  0.1990 -0.9145 -0.1942
  829MOL0     C11806   5.271   6.548   0.242 -0.9992  0.3798 -1.1794
  829MOL0     C11807   5.374   6.487   0.170 -0.9109  0.6074  0.3152
  829MOL0     C11808   5.469   6.557   0.093 -0.4136 -0.4272  0.5992
  829MOL0     C11809   5.576   6.491   0.027  0.2932 -0.0027 -0.4797
  829MOL0     O11810   5.650   6.571  -0.050  0.0938 -0.5813  0.4359
  829MOL0     C11811   5.774   6.540  -0.101  0.2553 -0.0705  0.6561
  829MOL0     C11812   5.869   6.438  -0.064  0.2978 -0.5206  0.6707
  829MOL0     C11813   5.994   6.427  -0.131 -0.0664 -0.1831 -1.3087
  829MOL0     C11814   6.026   6.519  -0.229  0.0497  0.3144  0.7189
  829MOL0     O11815   6.143   6.514  -0.298 -0.2677 -1.1091 -0.4526
  829MOL0     C11816   6.254   6.570  -0.226  0.1809 -0.2632 -1.2291
  829MOL0     C11817   6.370   6.503  -0.302  0.3014 -0.1570 -0.5861
  829MOL0     C11818   6.509   6.529  -0.248 -0.8548 -0.0197 -0.0025
  829MOL0     C11819   6.611   6.447  -0.331 -1.2424  0.5448 -0.3409
  829MOL0     C11820   6.748   6.470  -0.272  0.7501  0.0684  0.4221
  829MOL0     C11821   6.862   6.389  -0.334  0.1448  1.0369 -0.1180
  829MOL0     C11822   7.002   6.417  -0.274  0.1477 -0.1295  1.0488
  829MOL0     C11823   7.107   6.344  -0.352 -1.2426 -0.1217  0.7069
  829MOL0    Cl11824   7.090   6.165  -0.317  0.5485  0.1771 -0.8126
  829MOL0     C11825   5.931   6.619  -0.273 -0.0074  0.6043  0.4827
  829MOL0     C11826   5.801   6.622  -0.209  0.8126  0.1577  0.5700
  829MOL0     O11827   5.599   6.373   0.045 -0.8317  0.4735  0.3238
  829MOL0     C11828   5.462   6.699   0.089 -0.2188 -1.1133 -0.6822
  829MOL0     C11829   5.356   6.763   0.159  0.2947 -0.2986  0.6033
  829MOL0     N11830   5.052   7.212   0.764 -0.0654  0.1397  0.5673
  829MOL0     N11831   5.053   7.298   0.863 -0.4220  0.2567 -0.4090
  829MOL0     C11832   6.355   7.567   0.978  0.2779  0.1960  0.0020
  829MOL0     C11833   6.450   7.658   1.027  1.3620 -0.7999 -0.6297
  829MOL0     C11834   6.711   7.954   1.254 -0.6224 -0.0401  1.0274
  829MOL0     C11835   6.831   7.880   1.284 -0.3261 -0.4673 -0.4881
  829MOL0     C11836   6.944   7.940   1.329 -0.3441 -0.4075 -0.0179
  829MOL0     C11837   6.955   8.080   1.338  0.0124  0.2096 -0.0320
  829MOL0     O11838   7.070   8.143   1.385 -0.4129 -0.1946 -0.5684
  829MOL0     C11839   7.175   8.067   1.449  0.1680 -0.1401  0.2578
  829MOL0     C11840   7.254   8.153   1.552  0.1553  0.7873  0.6106
  829MOL0     C11841   7.403   8.114   1.573  0.6027  0.2969 -0.5641
  829MOL0     C11842   7.427   7.971   1.601  0.1380 -0.1592  0.3925
  829MOL0     C11843   7.577   7.948   1.593 -0.2523 -0.4749  0.4612
  829MOL0     C11844   7.699   7.938   1.576  0.6912 -0.4625 -0.7076
  829MOL0     C11845   6.842   8.156   1.315 -0.3010  0.6154  0.1833
  829MOL0     C11846   6.721   8.096   1.272 -0.0633  0.3195  0.4594
  829MOL0     C11847   6.611   8.201   1.245 -0.5315  1.3382 -0.3861
  829MOL0     H11848   6.495   7.535   1.342  0.0571 -2.5458 -0.0779
  829MOL0     H11849   6.330   7.365   1.240 -0.0160  0.4453  0.1640
  829MOL0     H11850   6.073   7.511   1.049 -1.7861  0.0690  0.2396
  829MOL0     H11851   6.080   7.419   0.893 -0.5224  0.5645 -0.5328
  829MOL0     H11852   5.969   7.306   1.151  0.3554  1.1271  0.2515
  829MOL0     H11853   5.971   7.229   0.997 -0.4626 -0.1334  1.1242
  829MOL0     H11854   5.851   7.414   0.891 -0.7863 -1.0377 -0.1581
  829MOL0     H11855   5.853   7.501   1.044  0.2570 -1.4283  2.0756
  829MOL0     H11856   5.715   7.250   0.965  1.4859  2.1853 -1.9815
  829MOL0     H11857   5.711   7.301   1.146  0.4699 -0.8547 -0.4623
  829MOL0     H11858   5.596   7.505   1.094 -1.4705  0.9246 -0.6282
  829MOL0     H11859   5.592   7.464   0.926  0.1535 -3.0818 -0.7756
  829MOL0     H11860   5.463   7.263   0.964 -0.1350  0.3527 -0.3206
  829MOL0     H11861   5.457   7.283   1.133  1.0855 -2.2387 -1.7700
  829MOL0     H11862   5.337   7.466   0.912 -0.2847 -2.3678 -0.3589
  829MOL0     H11863   5.345   7.510   1.089  1.5610 -0.2937  0.1465
  829MOL0     H11864   5.203   7.312   1.136 -0.2794 -1.6656 -0.8554
  829MOL0     H11865   5.127   7.439   1.048 -1.0042 -1.5422  1.7033
  829MOL0     H11866   5.328   7.122   0.908 -1.5133 -1.9781  0.4413
  829MOL0     H11867   5.291   6.963   0.727 -0.1186 -0.7255 -0.6605
  829MOL0     H11868   5.120   6.925   0.714 -0.6761  0.8503  1.5390
  829MOL0     H11869   5.139   7.077   0.499 -1.6987 -0.6290  1.9099
  829MOL0     H11870   5.310   7.098   0.531 -2.3823  3.0464 -0.8569
  829MOL0     H11871   5.248   6.817   0.535  1.3997 -0.4061 -0.9979
  829MOL0     H11872   5.356   6.907   0.422 -0.3757  0.4458 -0.9892
  829MOL0     H11873   5.183   6.944   0.260 -1.4624  0.8480 -0.2178
  829MOL0     H11874   5.057   6.906   0.371 -0.7643 -2.5124  0.2341
  829MOL0     H11875   5.203   6.483   0.296 -1.3602 -0.3738 -2.5011
  829MOL0     H11876   5.374   6.378   0.176 -0.3089  0.5047 -1.1251
  829MOL0     H11877   5.837   6.368   0.012 -1.0241 -0.9257 -0.2307
  829MOL0     H11878   6.062   6.346  -0.107  0.1130 -0.0365 -1.3229
  829MOL0     H11879   6.271   6.678  -0.237 -0.7250 -0.0920 -1.0020
  829MOL0     H11880   6.260   6.531  -0.124  1.4597  0.0979 -1.1492
  829MOL0     H11881   6.346   6.396  -0.296  2.2179 -0.6412 -1.0493
  829MOL0     H11882   6.366   6.527  -0.409  1.4025  1.0486 -0.3720
  829MOL0     H11883   6.525   6.637  -0.255 -0.6572  0.1057  1.8670
  829MOL0     H11884   6.520   6.504  -0.142  0.5196  0.2310 -0.0646
  829MOL0     H11885   6.608   6.465  -0.439 -1.2069 -0.9992 -0.6149
  829MOL0     H11886   6.583   6.342  -0.322 -1.2742  0.6044  0.3138
  829MOL0     H11887   6.738   6.441  -0.167  0.6408  1.7363  0.9011
  829MOL0     H11888   6.770   6.577  -0.265 -1.7743  0.7412 -0.4814
  829MOL0     H11889   6.842   6.283  -0.316  0.9521  1.0134  0.7641
  829MOL0     H11890   6.869   6.408  -0.442  2.8271  1.3409  0.0271
  829MOL0     H11891   7.030   6.380  -0.175  2.6643 -0.5133  0.2737
  829MOL0     H11892   7.010   6.525  -0.294 -5.3823  0.0692 -2.1412
  829MOL0     H11893   7.090   6.365  -0.458 -3.1071  0.7872  1.1568
  829MOL0     H11894   7.208   6.365  -0.316 -1.5084  1.9159  0.3818
  829MOL0     H11895   5.978   6.679  -0.351  3.0466 -2.1425 -0.0346
  829MOL0     H11896   5.722   6.686  -0.248  1.5663  0.7121 -0.0746
  829MOL0     H11897   5.534   6.758   0.033 -1.6755  0.8457 -0.6163
  829MOL0     H11898   5.353   6.871   0.159  1.8212 -0.2035 -1.4985
  829MOL0     H11899   6.306   7.579   0.882  1.3099  0.7457 -0.4745
  829MOL0     H11900   6.487   7.736   0.961 -0.7614  1.1358  0.3097
  829MOL0     H11901   6.828   7.772   1.291 -0.6318 -0.3523  1.8013
  829MOL0     H11902   7.032   7.879   1.345 -0.9882 -1.2595  0.3770
  829MOL0     H11903   7.243   8.036   1.369  0.1374  1.0587 -0.2541
  829MOL0     H11904   7.131   7.984   1.505  1.7307  0.5851  2.7395
  829MOL0     H11905   7.207   8.151   1.651  0.5962 -1.9016  0.8313
  829MOL0     H11906   7.242   8.254   1.512 -0.3134 -0.1606 -1.7848
  829MOL0     H11907   7.448   8.173   1.653  0.3281 -1.7605  1.2162
  829MOL0     H11908   7.439   8.149   1.476  0.8302  2.5720  0.2750
  829MOL0     H11909   7.386   7.946   1.699 -1.9904  1.3085 -0.0546
  829MOL0     H11910   7.372   7.917   1.523 -2.6182  2.3769  0.4125
  829MOL0     H11911   7.804   7.919   1.566  0.7843 -0.6405  0.4198
  829MOL0     H11912   6.843   8.264   1.327 -3.7947  0.6561  1.4860
  829MOL0     H11913   6.574   8.194   1.142 -1.2378 -1.5543 -0.0289
  829MOL0     H11914   6.530   8.166   1.309  1.9040  1.2569  2.9182
  829MOL0     H11915   6.633   8.305   1.270 -3.7057  1.8041  0.9032
  830MOL0     O11916   1.056   6.414   8.612  0.1414 -0.1391  0.3497
  830MOL0     C11917   1.146   6.339   8.566 -0.8160  0.1987  0.4087
  830MOL0     O11918   1.133   6.271   8.447  0.2892  0.1078 -0.5144
  830MOL0     C11919   1.022   6.209   8.402  0.7168 -0.2045  0.3557
  830MOL0     C11920   1.028   6.166   8.268  0.6781 -0.1616  0.8456
  830MOL0     C11921   0.928   6.092   8.209 -0.8661 -0.2946 -0.1230
  830MOL0     C11922   0.813   6.066   8.283  0.2757  0.1693  0.0409
  830MOL0     O11923   0.710   5.986   8.233  0.1915  0.5780 -0.2353
  830MOL0     C11924   0.706   5.972   8.093 -0.0145  0.5126  0.3872
  830MOL0     C11925   0.578   5.898   8.048  1.0385 -0.2066  0.4201
  830MOL0     C11926   0.460   6.004   8.050 -0.3584 -0.6526 -0.6312
  830MOL0     C11927   0.330   5.937   8.033  0.2714 -0.2894 -0.0562
  830MOL0     C11928   0.211   6.031   8.057 -0.2242 -0.0700 -0.1374
  830MOL0     C11929   0.081   5.964   8.031  0.3959  0.0603 -0.5139
  830MOL0     C11930  -0.036   6.056   8.074 -0.1999  0.1646 -0.3646
  830MOL0     C11931  -0.156   5.980   8.121  1.2246 -0.5733  0.3550
  830MOL0     N11932  -0.241   5.959   8.004  0.3038  0.1912  0.0489
  830MOL0     C11933  -0.374   5.952   8.014 -0.5902  0.4527 -0.2085
  830MOL0     C11934  -0.417   5.935   7.888 -0.8640  0.3550 -0.3752
  830MOL0     C11935  -0.559   5.941   7.862 -0.2776 -0.1034  0.5403
  830MOL0     C11936  -0.622   5.826   7.789  0.0139 -1.0522  0.0607
  830MOL0     C11937  -0.675   5.717   7.891 -0.4982 -0.9550 -0.4079
  830MOL0     C11938  -0.563   5.656   7.972 -0.6995  0.5374  0.9616
  830MOL0     O11939  -0.457   5.603   7.886  0.3835  0.3098  0.5254
  830MOL0     C11940  -0.327   5.610   7.926 -0.1208 -0.1842  0.3254
  830MOL0     C11941  -0.293   5.597   8.060 -0.7757  0.2608 -0.3124
  830MOL0     C11942  -0.153   5.588   8.093 -1.1242 -0.0707 -0.6869
  830MOL0     C11943  -0.056   5.605   8.004  0.0479 -0.5580 -0.2546
  830MOL0     C11944   0.085   5.576   8.030  0.5605  0.9756 -0.4755
  830MOL0     O11945   0.168   5.590   7.928 -0.1384 -1.1818 -0.1209
  830MOL0     C11946   0.304   5.569   7.937  0.2879  0.3363 -0.8757
  830MOL0     C11947   0.368   5.580   7.814  0.4757  0.5332 -0.3222
  830MOL0     C11948   0.512   5.571   7.804 -1.0337  0.2633  0.3918
  830MOL0     C11949   0.587   5.533   7.914 -0.1671  0.6495 -0.2380
  830MOL0     O11950   0.720   5.543   7.891 -0.8004 -0.3924 -0.9545
  830MOL0     C11951   0.816   5.502   7.985 -0.1857  0.6215 -0.1675
  830MOL0     C11952   0.957   5.543   7.951  0.2825 -0.3898 -0.0035
  830MOL0     C11953   1.021   5.626   8.071 -0.0050  0.1534 -0.0527
  830MOL0     C11954   1.168   5.645   8.033  0.2876  0.1100 -0.0316
  830MOL0     C11955   1.235   5.738   8.136 -0.7748  0.4665 -0.7700
  830MOL0     C11956   1.233   5.672   8.277  1.0875 -0.2215  0.0787
  830MOL0     C11957   1.309   5.732   8.386 -0.5300 -0.7338  0.2195
  830MOL0     C11958   1.280   5.884   8.419 -0.7758 -0.2994  1.1150
  830MOL0    Cl11959   1.403   5.911   8.547  0.2263 -0.2650  0.2244
  830MOL0     C11960   0.524   5.525   8.044 -0.1071  0.4148 -0.5985
  830MOL0     C11961   0.383   5.536   8.053 -0.7161 -0.3983 -1.1140
  830MOL0     O11962   0.109   5.546   8.147 -0.1668  0.4530 -0.7763
  830MOL0     C11963  -0.093   5.640   7.871 -0.2373  1.1467  0.1067
  830MOL0     C11964  -0.225   5.636   7.837 -1.0435  0.5146 -0.0409
  830MOL0     N11965  -0.304   5.940   7.805  0.3397 -0.2804 -0.1147
  830MOL0     N11966  -0.204   5.965   7.876 -0.8162 -1.1084 -0.3948
  830MOL0     C11967   0.801   6.100   8.418  0.1986 -0.2458  0.3069
  830MOL0     C11968   0.915   6.160   8.476 -0.0212  0.3616  1.0664
  830MOL0     C11969   1.271   6.335   8.646  0.0172  0.4996 -0.6192
  830MOL0     C11970   1.366   6.243   8.603 -1.0527  0.0827  0.2329
  830MOL0     C11971   1.493   6.231   8.670 -0.4163 -0.7302  0.4761
  830MOL0     C11972   1.541   6.308   8.772  0.9081  0.1023 -0.0930
  830MOL0     O11973   1.674   6.295   8.812 -0.0217  0.2857 -0.8757
  830MOL0     C11974   1.717   6.306   8.949 -0.2079 -0.3348 -0.4950
  830MOL0     C11975   1.822   6.200   8.961  0.4717 -0.0758  0.5301
  830MOL0     C11976   1.799   6.069   8.884  0.3834  0.5213 -0.3218
  830MOL0     C11977   1.926   5.978   8.889  0.6858 -0.7474  0.2432
  830MOL0     C11978   2.033   6.051   8.817  0.2199  0.3479 -0.4340
  830MOL0     C11979   2.129   6.108   8.772  0.1308 -1.1927 -0.6782
  830MOL0     C11980   1.436   6.392   8.826 -0.5978  0.0658 -0.0536
  830MOL0     C11981   1.308   6.410   8.765  0.6475 -0.0750 -0.0348
  830MOL0     C11982   1.206   6.507   8.844 -1.3067 -0.1930  0.2090
  830MOL0     H11983   1.119   6.185   8.212  0.8134 -1.9273  0.3986
  830MOL0     H11984   0.941   6.043   8.112 -0.9380  0.3577 -0.4672
  830MOL0     H11985   0.707   6.067   8.040 -2.3783 -0.6143 -1.8747
  830MOL0     H11986   0.796   5.919   8.058  1.1330  2.2389  0.5819
  830MOL0     H11987   0.564   5.813   8.115  1.6304 -0.1792  0.5851
  830MOL0     H11988   0.583   5.855   7.948 -1.2627 -2.5009  1.1894
  830MOL0     H11989   0.472   6.071   7.964 -0.3724 -0.1660 -0.2639
  830MOL0     H11990   0.454   6.059   8.145 -1.5400 -0.3848 -0.8449
  830MOL0     H11991   0.326   5.902   7.929  1.5682  2.1208 -1.0018
  830MOL0     H11992   0.319   5.855   8.104  2.6848 -2.3387 -1.8445
  830MOL0     H11993   0.217   6.060   8.163  1.8499 -2.3896  0.4809
  830MOL0     H11994   0.212   6.126   8.003 -0.6242  0.6434  1.0622
  830MOL0     H11995   0.077   5.918   7.932  1.3650 -0.6347 -0.2440
  830MOL0     H11996   0.095   5.885   8.105  0.3202  0.4918 -0.0261
  830MOL0     H11997  -0.051   6.130   7.995  1.6036  0.0121 -0.9166
  830MOL0     H11998  -0.002   6.114   8.160  0.8839 -1.1085  0.1068
  830MOL0     H11999  -0.119   5.890   8.171 -1.2706 -1.3198  1.0266
  830MOL0     H12000  -0.209   6.040   8.195  0.7524 -0.8447  0.2430
  830MOL0     H12001  -0.430   5.947   8.106 -0.3714 -0.4608 -0.1142
  830MOL0     H12002  -0.603   5.940   7.962 -0.5574 -3.8221  0.5123
  830MOL0     H12003  -0.578   6.040   7.820  0.0421  0.6185  1.9964
  830MOL0     H12004  -0.712   5.863   7.740 -0.6664 -0.5685  1.6131
  830MOL0     H12005  -0.562   5.776   7.713 -0.1033 -1.5701  0.3033
  830MOL0     H12006  -0.726   5.637   7.838 -0.2795 -1.8529  0.6951
  830MOL0     H12007  -0.744   5.764   7.961  0.7161  2.1478 -1.1312
  830MOL0     H12008  -0.611   5.573   8.026  1.0460 -0.6905  0.6941
  830MOL0     H12009  -0.528   5.717   8.055 -2.9391  1.3792  1.3679
  830MOL0     H12010  -0.373   5.582   8.131  0.0570 -0.2798  0.5279
  830MOL0     H12011  -0.123   5.570   8.196 -0.0116 -0.1360 -1.0073
  830MOL0     H12012   0.312   5.609   7.727 -1.6586  0.9972  1.1378
  830MOL0     H12013   0.563   5.593   7.711  0.9730  2.8053  1.9555
  830MOL0     H12014   0.790   5.548   8.081 -2.6332  0.7691 -0.8410
  830MOL0     H12015   0.822   5.394   8.002 -2.4605  0.5456  0.4802
  830MOL0     H12016   1.021   5.456   7.934 -0.8772 -1.4408  0.8160
  830MOL0     H12017   0.954   5.602   7.859  1.2116  1.3733  1.0505
  830MOL0     H12018   0.982   5.728   8.070  1.1940  0.6325  0.1078
  830MOL0     H12019   0.998   5.582   8.168  1.4822 -1.5596 -0.4261
  830MOL0     H12020   1.188   5.689   7.935 -0.7723 -0.0089 -0.3072
  830MOL0     H12021   1.216   5.547   8.045 -0.9792 -0.6563 -1.0892
  830MOL0     H12022   1.202   5.841   8.121  2.2431  1.3672 -2.0146
  830MOL0     H12023   1.343   5.735   8.120 -0.8353  1.8692 -1.5594
  830MOL0     H12024   1.130   5.657   8.308  1.0419  0.2611  0.1590
  830MOL0     H12025   1.278   5.572   8.270 -0.6573 -0.9430 -2.5657
  830MOL0     H12026   1.416   5.732   8.361 -0.1761  2.9015  1.1546
  830MOL0     H12027   1.287   5.685   8.482 -2.0516  0.2606  0.3784
  830MOL0     H12028   1.295   5.955   8.337  0.7990 -1.2053  0.5980
  830MOL0     H12029   1.173   5.893   8.442 -1.5816  0.1134 -2.2131
  830MOL0     H12030   0.574   5.502   8.138 -0.4290  1.9758 -0.0255
  830MOL0     H12031   0.344   5.525   8.153 -0.6138  1.2353 -0.8792
  830MOL0     H12032  -0.024   5.668   7.791 -1.3424  1.6432 -0.7026
  830MOL0     H12033  -0.247   5.661   7.734  0.9244  0.4793 -0.5175
  830MOL0     H12034   0.723   6.063   8.484  1.4725 -0.8480  1.5129
  830MOL0     H12035   0.927   6.180   8.582 -2.3994 -0.5814  1.5691
  830MOL0     H12036   1.342   6.186   8.514 -0.9534 -0.3170  0.4633
  830MOL0     H12037   1.565   6.161   8.629  1.1788 -0.4415  2.6264
  830MOL0     H12038   1.637   6.283   9.020 -0.4307  4.0782  1.0196
  830MOL0     H12039   1.761   6.403   8.972  0.5959 -1.2369  2.0483
  830MOL0     H12040   1.832   6.179   9.068  0.8497 -2.8813  0.0339
  830MOL0     H12041   1.918   6.244   8.934  1.0156 -1.2202  0.5233
  830MOL0     H12042   1.773   6.089   8.780 -1.5937 -1.0675 -0.1869
  830MOL0     H12043   1.714   6.024   8.936  0.4149  0.7242 -0.0904
  830MOL0     H12044   1.952   5.952   8.993  0.4372 -3.6512 -0.3291
  830MOL0     H12045   1.895   5.892   8.829 -0.2241 -0.8842  0.8841
  830MOL0     H12046   2.215   6.169   8.750  0.2914 -1.2548 -0.2379
  830MOL0     H12047   1.463   6.454   8.910 -1.5793  0.5444 -0.0811
  830MOL0     H12048   1.103   6.471   8.855 -1.5904  0.7853  0.8652
  830MOL0     H12049   1.248   6.532   8.941 -0.4903  1.5196 -0.5414
  830MOL0     H12050   1.193   6.601   8.789 -0.7013 -0.2063  0.0403
  831MOL0     O12051   2.579   5.556   8.792 -0.3985  0.4380  0.7829
  831MOL0     C12052   2.575   5.455   8.868  0.7102 -0.1834  0.4646
  831MOL0     O12053   2.670   5.423   8.965 -0.1683 -0.5069 -0.0499
  831MOL0     C12054   2.770   5.506   9.009 -0.0920 -0.6842 -0.8498
  831MOL0     C12055   2.812   5.621   8.949  0.6405 -0.7082  0.3845
  831MOL0     C12056   2.887   5.710   9.022  0.0981  0.4836 -0.2084
  831MOL0     C12057   2.946   5.673   9.145 -0.0905 -0.0942 -0.5786
  831MOL0     O12058   3.030   5.755   9.219 -0.8599  0.1901 -0.4302
  831MOL0     C12059   3.069   5.877   9.164  0.5284  0.2502  0.8051
  831MOL0     C12060   3.152   5.945   9.275 -0.1874 -0.0811 -0.2344
  831MOL0     C12061   3.221   6.066   9.215  0.3507 -0.3361  0.5912
  831MOL0     C12062   3.302   6.133   9.327 -0.0986  0.4531  0.1781
  831MOL0     C12063   3.451   6.116   9.290  0.0524 -0.0880 -0.0954
  831MOL0     C12064   3.540   6.183   9.395 -0.0044 -0.4973 -0.2553
  831MOL0     C12065   3.563   6.094   9.514 -0.5743  0.1486  0.4021
  831MOL0     C12066   3.624   6.169   9.629 -0.4202  0.5585  0.8897
  831MOL0     N12067   3.759   6.224   9.598  0.0490  0.5510 -0.2722
  831MOL0     C12068   3.805   6.339   9.652 -0.7743 -0.4188 -0.0524
  831MOL0     C12069   3.927   6.361   9.596 -0.0466  0.8896  0.3383
  831MOL0     C12070   4.010   6.476   9.626 -0.3167 -0.7595  0.1837
  831MOL0     C12071   4.162   6.432   9.625 -0.3992  0.0851  0.6661
  831MOL0     C12072   4.252   6.557   9.664  0.0261  0.1465 -0.6612
  831MOL0     C12073   4.400   6.534   9.659  0.2141 -1.1083 -0.0493
  831MOL0     O12074   4.462   6.650   9.603 -0.2642 -0.0006 -0.4761
  831MOL0     C12075   4.593   6.651   9.564 -0.6261 -0.3195 -0.1456
  831MOL0     C12076   4.636   6.776   9.525  0.1995 -0.8822  1.1540
  831MOL0     C12077   4.776   6.798   9.499  0.2680  0.5917  0.1162
  831MOL0     C12078   4.871   6.692   9.501  0.0538  0.2250 -0.1164
  831MOL0     C12079   5.008   6.702   9.454 -0.0361 -0.0790 -1.2855
  831MOL0     O12080   5.045   6.827   9.403  0.1565  0.2649  0.1737
  831MOL0     C12081   5.171   6.845   9.350  0.7160 -0.6782  0.1105
  831MOL0     C12082   5.211   6.762   9.245 -0.4826 -0.0955 -0.5722
  831MOL0     C12083   5.329   6.792   9.178 -0.1691  0.3649  0.7729
  831MOL0     C12084   5.409   6.898   9.221  0.2677 -0.1647 -0.2360
  831MOL0     O12085   5.535   6.919   9.170  0.3853  0.0484 -0.0141
  831MOL0     C12086   5.590   6.827   9.066  0.8279 -0.2817  0.2583
  831MOL0     C12087   5.741   6.841   9.050 -0.1730 -0.6996 -0.8713
  831MOL0     C12088   5.781   6.977   9.016  0.5605  0.1317 -0.0358
  831MOL0     C12089   5.791   7.095   9.114 -0.0087 -0.3167 -0.0310
  831MOL0     C12090   5.897   7.197   9.083  0.1611  0.8216 -0.3270
  831MOL0     C12091   5.887   7.325   9.161 -0.1227  0.7661  0.5904
  831MOL0     C12092   6.007   7.419   9.128 -0.4087  0.2970  0.1244
  831MOL0     C12093   5.997   7.559   9.190 -0.2044  0.4096 -0.0449
  831MOL0    Cl12094   6.153   7.641   9.195 -0.3991  0.2585 -0.1202
  831MOL0     C12095   5.374   6.975   9.331  0.5051 -0.6746  0.0913
  831MOL0     C12096   5.248   6.956   9.387 -1.1682 -0.3380 -0.0301
  831MOL0     O12097   5.070   6.596   9.439 -0.5682  0.1638  0.4702
  831MOL0     C12098   4.822   6.568   9.546 -0.2313  0.2875 -0.1223
  831MOL0     C12099   4.688   6.551   9.578 -0.0761 -0.5360  0.6619
  831MOL0     N12100   3.968   6.250   9.522  0.0474  0.7586 -0.0521
  831MOL0     N12101   3.868   6.166   9.522  0.4030  0.0081 -1.1732
  831MOL0     C12102   2.923   5.549   9.197 -0.0392 -0.3849  0.6553
  831MOL0     C12103   2.829   5.467   9.136  0.0177 -0.4699 -0.3633
  831MOL0     C12104   2.455   5.365   8.840 -1.0844  1.1202 -0.1963
  831MOL0     C12105   2.373   5.393   8.727 -0.0039  0.6720 -0.3160
  831MOL0     C12106   2.269   5.314   8.696 -0.7912 -0.5996 -0.1203
  831MOL0     C12107   2.226   5.204   8.778  0.1156  0.0871  0.1561
  831MOL0     O12108   2.119   5.120   8.737 -1.0795 -0.1214  0.1620
  831MOL0     C12109   2.042   5.165   8.620 -0.7395 -0.2351 -0.4958
  831MOL0     C12110   1.911   5.075   8.601 -0.7670 -0.0102  0.2085
  831MOL0     C12111   1.929   4.954   8.503  0.7691 -0.8793 -0.7276
  831MOL0     C12112   1.832   4.842   8.541  0.4529  0.4885 -0.5233
  831MOL0     C12113   1.688   4.867   8.515  0.5346  0.2646  0.8475
  831MOL0     C12114   1.578   4.885   8.475 -0.1634  0.2874  0.0659
  831MOL0     C12115   2.308   5.161   8.875  0.4868 -0.0627 -0.0609
  831MOL0     C12116   2.423   5.237   8.909  1.4112 -0.9696 -0.3129
  831MOL0     C12117   2.488   5.193   9.033 -0.8570 -0.1341  0.0593
  831MOL0     H12118   2.772   5.667   8.859  0.6713 -0.3328  0.5628
  831MOL0     H12119   2.907   5.806   8.976  0.1427  0.9242  0.7195
  831MOL0     H12120   3.134   5.866   9.077 -0.8578 -1.9373 -0.0473
  831MOL0     H12121   2.987   5.942   9.134  0.5140 -0.5531 -1.0707
  831MOL0     H12122   3.220   5.874   9.322 -3.5809 -1.4754  3.0312
  831MOL0     H12123   3.076   5.964   9.351 -1.4394  0.6403 -1.6113
  831MOL0     H12124   3.137   6.131   9.189  0.2076 -0.0420  1.7161
  831MOL0     H12125   3.290   6.049   9.132 -0.0092  0.1770  0.1790
  831MOL0     H12126   3.270   6.237   9.337 -2.7391 -0.2496 -0.0987
  831MOL0     H12127   3.280   6.099   9.429  0.4852  0.6915  0.3910
  831MOL0     H12128   3.484   6.012   9.290 -1.1754 -0.5095  1.3906
  831MOL0     H12129   3.456   6.156   9.188 -1.4619  1.3377  0.3423
  831MOL0     H12130   3.639   6.199   9.352 -0.4278 -1.8728 -1.8510
  831MOL0     H12131   3.484   6.269   9.433 -1.1679 -2.3494  2.5223
  831MOL0     H12132   3.636   6.016   9.490  1.2076  1.9241 -0.2506
  831MOL0     H12133   3.473   6.045   9.552 -0.4804 -0.4658 -0.1624
  831MOL0     H12134   3.561   6.255   9.656 -1.8932 -0.5295  1.0776
  831MOL0     H12135   3.630   6.095   9.710  0.7304 -1.3636 -0.8740
  831MOL0     H12136   3.747   6.415   9.702  1.6275  0.5457  1.4341
  831MOL0     H12137   4.001   6.550   9.545  0.0595  0.2405  1.0284
  831MOL0     H12138   3.977   6.519   9.721 -1.6578 -1.9675  0.2860
  831MOL0     H12139   4.184   6.355   9.699  0.3993 -0.2671  0.0748
  831MOL0     H12140   4.194   6.390   9.529  1.1608  0.7445  0.8743
  831MOL0     H12141   4.224   6.576   9.768  0.3952 -1.3425 -0.2686
  831MOL0     H12142   4.228   6.641   9.599 -0.3736 -0.7184 -1.6603
  831MOL0     H12143   4.438   6.442   9.612  2.5821 -0.0475 -0.3286
  831MOL0     H12144   4.445   6.511   9.756 -0.0134  0.1527  0.3649
  831MOL0     H12145   4.570   6.861   9.535 -1.6852 -2.2895  1.3047
  831MOL0     H12146   4.794   6.897   9.458 -0.8702  0.2226 -1.3494
  831MOL0     H12147   5.155   6.677   9.206  1.7994 -2.1008  0.2510
  831MOL0     H12148   5.360   6.729   9.095 -0.7580 -0.7244  1.3697
  831MOL0     H12149   5.572   6.720   9.078  1.4112 -0.2207  2.0960
  831MOL0     H12150   5.558   6.856   8.966  2.3350  0.1388 -0.1323
  831MOL0     H12151   5.789   6.802   9.140  3.4900 -0.1669 -2.3998
  831MOL0     H12152   5.783   6.783   8.967  0.8881  1.9694 -2.3299
  831MOL0     H12153   5.876   6.963   8.964  1.3586  1.1322  1.0809
  831MOL0     H12154   5.711   7.021   8.945  1.9946  3.0875  0.2447
  831MOL0     H12155   5.818   7.062   9.215  0.9187  0.5281  0.0161
  831MOL0     H12156   5.703   7.155   9.135  0.9052  1.0279  0.0485
  831MOL0     H12157   5.879   7.219   8.977 -0.9850 -1.4849 -0.6616
  831MOL0     H12158   5.999   7.157   9.090  0.5818  1.8422 -0.3669
  831MOL0     H12159   5.796   7.374   9.124 -2.0301 -3.0776 -0.3576
  831MOL0     H12160   5.875   7.319   9.270  3.7407 -0.0997  1.0970
  831MOL0     H12161   6.016   7.428   9.020 -3.2818 -0.2682 -0.2493
  831MOL0     H12162   6.094   7.371   9.173 -0.2390  1.5992  1.2859
  831MOL0     H12163   5.925   7.606   9.122 -0.4282  0.3186  0.1267
  831MOL0     H12164   5.949   7.549   9.288 -3.1899  0.6309 -1.3590
  831MOL0     H12165   5.436   7.053   9.374 -2.1489  1.1238  0.9824
  831MOL0     H12166   5.225   7.024   9.469  0.9002  1.3127 -0.7358
  831MOL0     H12167   4.887   6.482   9.556 -0.5775  0.0560  0.1376
  831MOL0     H12168   4.654   6.453   9.610  1.8594 -2.5916 -2.9810
  831MOL0     H12169   2.982   5.527   9.285 -2.9123 -0.2155  2.7512
  831MOL0     H12170   2.814   5.375   9.191  3.1108  0.3209  2.0651
  831MOL0     H12171   2.385   5.479   8.662 -1.1686  2.0767  1.2253
  831MOL0     H12172   2.232   5.345   8.599  2.3945 -0.2060 -1.3182
  831MOL0     H12173   2.093   5.160   8.523 -1.1708 -0.5825 -0.7067
  831MOL0     H12174   2.002   5.266   8.636  0.2606 -0.1169  1.6068
  831MOL0     H12175   1.836   5.137   8.551  0.6771  0.5413 -1.3926
  831MOL0     H12176   1.872   5.053   8.701 -0.7122  0.6378  0.3726
  831MOL0     H12177   2.031   4.913   8.505  1.4183  0.6294  1.7948
  831MOL0     H12178   1.908   4.974   8.397  0.7798  0.5945 -0.4737
  831MOL0     H12179   1.850   4.755   8.478 -1.6132 -0.8969  0.6482
  831MOL0     H12180   1.836   4.822   8.649  0.3605  0.4033 -0.5356
  831MOL0     H12181   1.486   4.924   8.436 -0.7624 -1.1288  0.0267
  831MOL0     H12182   2.289   5.070   8.930 -0.2492  0.4688  0.5819
  831MOL0     H12183   2.465   5.267   9.110 -0.5372 -0.1536  0.1743
  831MOL0     H12184   2.453   5.094   9.063  1.1949 -1.8773 -2.7497
  831MOL0     H12185   2.593   5.188   9.003 -1.4324  2.2633 -2.7963
  832MOL0     O12186   5.801   6.410   2.108 -0.4268  0.7294 -0.2024
  832MOL0     C12187   5.761   6.514   2.062  0.1398  0.7875  0.1370
  832MOL0     O12188   5.839   6.589   1.984 -0.3677 -0.9069  0.3930
  832MOL0     C12189   5.970   6.557   1.956 -0.3702  0.4637  0.3233
  832MOL0     C12190   6.065   6.649   2.002  0.0429  0.7962  0.2116
  832MOL0     C12191   6.200   6.627   1.954  0.0392  0.0798 -0.1386
  832MOL0     C12192   6.230   6.531   1.860  0.9781 -0.3963  0.5000
  832MOL0     O12193   6.351   6.553   1.799 -0.1351 -0.2876  0.3562
  832MOL0     C12194   6.393   6.471   1.695  0.0120  0.5106  0.5365
  832MOL0     C12195   6.517   6.519   1.616 -0.1900  0.1133 -0.4201
  832MOL0     C12196   6.550   6.452   1.479  0.5915  0.3192  0.3394
  832MOL0     C12197   6.696   6.469   1.436 -0.8225  1.0561  0.4313
  832MOL0     C12198   6.737   6.401   1.301  0.4919 -0.3612 -0.0234
  832MOL0     C12199   6.846   6.471   1.228 -0.6503  0.2095  0.1962
  832MOL0     C12200   6.925   6.380   1.132  0.1925 -0.3759  0.3702
  832MOL0     C12201   7.046   6.451   1.079 -0.2158  0.5833  0.1908
  832MOL0     N12202   7.149   6.473   1.182  0.1529  0.5981  0.6464
  832MOL0     C12203   7.223   6.374   1.250 -0.4051  0.0779  0.0411
  832MOL0     C12204   7.315   6.444   1.322 -0.2797  1.3007 -0.2733
  832MOL0     C12205   7.396   6.364   1.428  0.0850  0.1552 -0.2696
  832MOL0     C12206   7.549   6.386   1.429  0.0419 -0.0111  0.2619
  832MOL0     C12207   7.579   6.499   1.525 -0.3568  0.5723 -0.2667
  832MOL0     C12208   7.726   6.504   1.555 -0.5734 -0.4116 -0.5168
  832MOL0     O12209   7.775   6.378   1.608 -0.4844  0.3217  0.2822
  832MOL0     C12210   7.903   6.364   1.662  0.6851  0.2299  0.7504
  832MOL0     C12211   7.921   6.234   1.711  0.5284  0.7939 -0.3477
  832MOL0     C12212   8.044   6.195   1.765 -0.0365 -0.0982 -0.6789
  832MOL0     C12213   8.148   6.291   1.773  0.2112 -0.4678 -0.7499
  832MOL0     C12214   8.284   6.246   1.808 -0.5482  1.0636 -0.1699
  832MOL0     O12215   8.392   6.313   1.744 -0.5104  0.5442  0.0639
  832MOL0     C12216   8.523   6.311   1.787  0.0694 -0.1273 -0.4604
  832MOL0     C12217   8.585   6.199   1.838  0.1512  0.6553 -0.6002
  832MOL0     C12218   8.713   6.204   1.868 -0.8500 -0.0175 -0.9002
  832MOL0     C12219   8.797   6.312   1.850  0.2376  0.4163 -0.5049
  832MOL0     O12220   8.924   6.308   1.888 -0.1255 -0.3685  0.3347
  832MOL0     C12221   9.021   6.405   1.849 -0.3001 -0.1253  0.7453
  832MOL0     C12222   9.157   6.351   1.901  0.2113 -0.3212  0.0488
  832MOL0     C12223   9.283   6.433   1.865  0.1825  0.5970  0.1692
  832MOL0     C12224   9.410   6.395   1.937  0.4656 -0.3042  0.4105
  832MOL0     C12225   9.533   6.461   1.893 -0.4746 -0.2453 -0.5116
  832MOL0     C12226   9.657   6.406   1.964  0.5811 -0.0072  0.1827
  832MOL0     C12227   9.791   6.450   1.904  1.1471 -0.7080 -0.2059
  832MOL0     C12228   9.814   6.606   1.907  1.4810 -0.4070 -0.1731
  832MOL0    Cl12229   9.805   6.683   2.066 -0.3482 -0.1045  0.1200
  832MOL0     C12230   8.731   6.427   1.801 -0.3410 -1.1226 -0.0094
  832MOL0     C12231   8.595   6.433   1.774 -1.4143 -0.5438  1.1687
  832MOL0     O12232   8.293   6.169   1.903 -0.1058 -0.4914 -0.2168
  832MOL0     C12233   8.127   6.422   1.714 -0.6559 -0.7081  0.0047
  832MOL0     C12234   7.997   6.455   1.671  0.4220 -0.2709 -0.3051
  832MOL0     N12235   7.310   6.583   1.292 -0.0214  0.3652  0.7724
  832MOL0     N12236   7.211   6.595   1.212 -0.4020  0.0176  0.2191
  832MOL0     C12237   6.133   6.433   1.823  0.1892  0.0985 -0.2724
  832MOL0     C12238   6.000   6.443   1.871  0.0511 -0.4692  0.1712
  832MOL0     C12239   5.631   6.548   2.109 -0.5219 -0.0737  0.1835
  832MOL0     C12240   5.526   6.443   2.110 -0.0705  1.0101  0.5864
  832MOL0     C12241   5.392   6.476   2.125  0.1550 -0.1871  0.2681
  832MOL0     C12242   5.356   6.612   2.157 -0.1360 -0.3524  0.9027
  832MOL0     O12243   5.228   6.661   2.172  0.5706  0.0500 -0.0906
  832MOL0     C12244   5.122   6.565   2.166 -0.8082 -0.2116  0.4205
  832MOL0     C12245   4.987   6.642   2.177 -0.5537 -0.1743 -0.6837
  832MOL0     C12246   4.954   6.670   2.326  0.4492 -0.7675 -0.1040
  832MOL0     C12247   4.826   6.754   2.335 -0.0010  0.3456  0.7008
  832MOL0     C12248   4.711   6.687   2.266  0.0032 -0.2860 -0.5362
  832MOL0     C12249   4.607   6.642   2.217  0.0118  0.4791 -0.1377
  832MOL0     C12250   5.460   6.708   2.164  0.0654  0.0837 -0.0267
  832MOL0     C12251   5.594   6.682   2.135 -0.0075  0.4973  0.3508
  832MOL0     C12252   5.697   6.789   2.158 -0.0979  0.5759 -0.4874
  832MOL0     H12253   6.046   6.734   2.066  0.8602  1.2263 -0.0978
  832MOL0     H12254   6.272   6.702   1.985 -0.3184 -0.7048  2.9043
  832MOL0     H12255   6.418   6.376   1.744 -1.8321  0.7118  1.9628
  832MOL0     H12256   6.318   6.463   1.615 -0.4131 -0.9524  1.0461
  832MOL0     H12257   6.605   6.498   1.678 -0.5078 -0.3373 -0.1092
  832MOL0     H12258   6.503   6.625   1.593 -1.0555  0.6102  2.0988
  832MOL0     H12259   6.493   6.499   1.398  1.9799 -0.6046 -1.2447
  832MOL0     H12260   6.520   6.347   1.480 -0.2957  0.5543 -0.1715
  832MOL0     H12261   6.723   6.574   1.425 -1.0425  0.9385 -1.6436
  832MOL0     H12262   6.757   6.422   1.513 -1.6778  2.0825  1.7846
  832MOL0     H12263   6.780   6.303   1.321 -0.0642 -1.0563 -1.9658
  832MOL0     H12264   6.656   6.393   1.228 -1.2892 -1.5357  1.9817
  832MOL0     H12265   6.817   6.562   1.176 -1.3387  0.6341  1.2788
  832MOL0     H12266   6.917   6.495   1.308 -2.3121  3.2004  0.9413
  832MOL0     H12267   6.844   6.373   1.059 -2.2294  3.6130  2.2909
  832MOL0     H12268   6.958   6.286   1.176  0.4849 -0.5024 -0.1178
  832MOL0     H12269   7.096   6.403   0.995 -0.3803 -1.3513  1.1379
  832MOL0     H12270   7.007   6.544   1.038 -2.4945 -0.4853 -0.2716
  832MOL0     H12271   7.208   6.266   1.248 -0.3761  0.0843 -0.6313
  832MOL0     H12272   7.349   6.385   1.525 -0.7905 -1.8151 -0.2160
  832MOL0     H12273   7.385   6.259   1.399 -0.0321 -0.2123  1.0019
  832MOL0     H12274   7.598   6.295   1.465 -2.4389 -1.9196 -0.8338
  832MOL0     H12275   7.581   6.424   1.332 -2.7107 -1.5861 -1.4167
  832MOL0     H12276   7.523   6.467   1.613 -1.3152 -3.0113 -2.0001
  832MOL0     H12277   7.540   6.595   1.490 -0.0335  0.2644 -1.5147
  832MOL0     H12278   7.752   6.585   1.623  1.5468 -1.0894 -0.4282
  832MOL0     H12279   7.776   6.532   1.462 -0.2725 -2.1364 -0.9047
  832MOL0     H12280   7.837   6.166   1.704  1.4614 -0.7834  2.2628
  832MOL0     H12281   8.061   6.094   1.803  1.5752  0.0535 -0.9237
  832MOL0     H12282   8.529   6.109   1.860  1.2847 -0.0239 -0.4061
  832MOL0     H12283   8.768   6.121   1.911 -2.7201 -0.1525  1.4804
  832MOL0     H12284   9.019   6.420   1.740 -1.2213 -1.3865  0.5724
  832MOL0     H12285   9.002   6.501   1.899 -1.5430  0.1482 -0.1936
  832MOL0     H12286   9.164   6.339   2.009 -1.1374 -2.8167 -0.0701
  832MOL0     H12287   9.179   6.249   1.866 -1.0329  0.5151 -3.6257
  832MOL0     H12288   9.294   6.428   1.756  0.1123  0.8390  0.1503
  832MOL0     H12289   9.270   6.540   1.880  0.4828  1.5210 -4.5570
  832MOL0     H12290   9.417   6.287   1.921 -1.1661 -0.7303  2.1465
  832MOL0     H12291   9.399   6.413   2.045 -0.2610 -0.7318  0.4185
  832MOL0     H12292   9.518   6.569   1.902  0.6804 -0.2015  1.4638
  832MOL0     H12293   9.544   6.446   1.785  0.4094 -2.4073 -0.1752
  832MOL0     H12294   9.655   6.431   2.071  0.2661  0.0342  0.1681
  832MOL0     H12295   9.666   6.297   1.960  2.9472 -0.0907  3.2777
  832MOL0     H12296   9.800   6.416   1.801 -1.3327 -1.3258 -0.2779
  832MOL0     H12297   9.883   6.409   1.948  2.7685  0.1197 -2.6230
  832MOL0     H12298   9.912   6.628   1.865  1.8476  1.8033  1.6813
  832MOL0     H12299   9.733   6.655   1.852  1.2460  1.5743  1.8095
  832MOL0     H12300   8.787   6.518   1.782 -0.6899 -0.5367  1.5858
  832MOL0     H12301   8.550   6.522   1.730  2.0808  0.2310 -1.2558
  832MOL0     H12302   8.199   6.501   1.699 -1.3637 -0.2753 -1.2761
  832MOL0     H12303   7.966   6.549   1.627 -1.0547 -0.8901 -0.6328
  832MOL0     H12304   6.161   6.355   1.752  0.1468 -0.5572  0.4169
  832MOL0     H12305   5.927   6.377   1.826 -0.5503  0.8849 -0.9164
  832MOL0     H12306   5.544   6.342   2.074  1.8147  1.6380 -0.3483
  832MOL0     H12307   5.308   6.409   2.106 -1.0449  1.3069  0.1695
  832MOL0     H12308   5.125   6.482   2.238 -0.1465  2.8250  4.2154
  832MOL0     H12309   5.124   6.518   2.067  2.8837 -0.7423  0.6174
  832MOL0     H12310   4.902   6.585   2.140 -1.2089  1.8057 -2.4233
  832MOL0     H12311   4.977   6.729   2.111 -2.3508 -0.2293 -0.5252
  832MOL0     H12312   5.028   6.734   2.375 -0.2513  2.0553 -2.3737
  832MOL0     H12313   4.927   6.581   2.383  0.9260  1.1561  3.3795
  832MOL0     H12314   4.792   6.760   2.439  0.7479 -0.8486  1.0309
  832MOL0     H12315   4.830   6.852   2.286  0.8812 -0.6676 -1.3670
  832MOL0     H12316   4.525   6.590   2.173  0.8237 -0.3331 -0.7189
  832MOL0     H12317   5.436   6.811   2.188  0.2954 -0.0560  0.8162
  832MOL0     H12318   5.659   6.868   2.223  1.0681  2.2573 -1.7460
  832MOL0     H12319   5.782   6.749   2.215  0.1480  1.7770  0.0109
  832MOL0     H12320   5.744   6.823   2.065 -0.1269 -0.7026 -1.0014
  833MOL0     O12321  10.384   0.655   1.951 -0.0062  0.8374 -0.0297
  833MOL0     C12322  10.272   0.595   1.935 -0.1605 -0.3772  0.1785
  833MOL0     O12323  10.248   0.496   1.850  0.4910  0.5036  0.5152
  833MOL0     C12324  10.352   0.435   1.790  0.4145  0.5735 -0.0042
  833MOL0     C12325  10.397   0.312   1.831 -0.5091  0.8267  1.0881
  833MOL0     C12326  10.516   0.249   1.771  0.0659  0.2274 -0.5164
  833MOL0     C12327  10.575   0.314   1.663  0.4497  0.0094  0.9265
  833MOL0     O12328  10.685   0.255   1.604  1.0078 -0.4155 -0.1387
  833MOL0     C12329  10.724   0.287   1.473  0.3898 -0.0005 -0.2760
  833MOL0     C12330  10.803   0.167   1.414 -0.5244 -0.0061 -0.8491
  833MOL0     C12331  10.887   0.212   1.297  0.4513 -0.2518 -0.2308
  833MOL0     C12332  10.990   0.113   1.262 -0.0400  0.3377 -0.1245
  833MOL0     C12333  11.091   0.139   1.154 -0.0216 -0.5989 -0.3613
  833MOL0     C12334  11.177   0.265   1.163 -0.0285  0.3885  0.1954
  833MOL0     C12335  11.271   0.286   1.048 -0.5138 -1.0213 -0.1597
  833MOL0     C12336  11.338   0.418   1.064  0.1319 -0.0055 -0.2393
  833MOL0     N12337  11.484   0.404   1.061 -0.1090  0.6950  0.1775
  833MOL0     C12338  11.574   0.427   1.161 -0.2042 -0.4964  0.6940
  833MOL0     C12339  11.689   0.442   1.101  0.4617  0.6530  0.6882
  833MOL0     C12340  11.828   0.475   1.165 -0.1050 -0.1490 -0.0644
  833MOL0     C12341  11.844   0.633   1.165 -1.0033  0.0101  0.3115
  833MOL0     C12342  11.974   0.677   1.217  0.2062 -0.4635  0.7258
  833MOL0     C12343  12.065   0.720   1.103  0.2618 -0.0285  0.0135
  833MOL0     O12344  12.078   0.625   1.000 -0.3860 -0.1593 -0.0248
  833MOL0     C12345  12.194   0.629   0.922 -0.9220 -0.2949  0.3132
  833MOL0     C12346  12.225   0.525   0.834  0.6747 -0.2145 -0.6615
  833MOL0     C12347  12.342   0.530   0.755  0.6794  0.4314  0.3102
  833MOL0     C12348  12.427   0.642   0.765  0.2607 -0.8757  0.2903
  833MOL0     C12349  12.549   0.649   0.678  0.4929  0.2316  0.2887
  833MOL0     O12350  12.632   0.757   0.702  0.0159  0.5788  0.5435
  833MOL0     C12351  12.763   0.741   0.672 -0.2829  0.3042  0.2337
  833MOL0     C12352  12.813   0.792   0.549 -0.2000  0.7398  0.0158
  833MOL0     C12353  12.950   0.779   0.514  0.5732 -0.4389 -0.0669
  833MOL0     C12354  13.042   0.722   0.595  0.2354  0.3826 -0.3916
  833MOL0     O12355  13.176   0.700   0.567  0.5418 -0.2985 -0.0531
  833MOL0     C12356  13.230   0.742   0.440 -0.1573  0.3993  0.7407
  833MOL0     C12357  13.375   0.699   0.430  0.1458 -0.0397 -0.5897
  833MOL0     C12358  13.461   0.752   0.542 -0.1898 -0.0799 -1.1852
  833MOL0     C12359  13.599   0.678   0.539 -0.4870  0.8671 -0.5032
  833MOL0     C12360  13.675   0.704   0.663  0.4086 -0.0286 -0.1453
  833MOL0     C12361  13.805   0.613   0.674  0.2965  0.7686 -0.5870
  833MOL0     C12362  13.832   0.575   0.819  0.7392  0.2741 -0.2293
  833MOL0     C12363  13.748   0.458   0.858 -0.4220 -0.6284 -0.1961
  833MOL0    Cl12364  13.774   0.435   1.035  0.2425  0.0325 -0.0274
  833MOL0     C12365  12.997   0.669   0.718 -0.7628 -0.5383  0.0217
  833MOL0     C12366  12.862   0.675   0.750  0.2600  0.5851  0.2466
  833MOL0     O12367  12.561   0.561   0.589 -0.0361 -0.1204 -0.0817
  833MOL0     C12368  12.403   0.743   0.855 -0.2205 -0.3332 -0.2959
  833MOL0     C12369  12.288   0.737   0.935  0.1798  0.0868 -0.4498
  833MOL0     N12370  11.677   0.392   0.972  0.3877  0.6538  0.5468
  833MOL0     N12371  11.546   0.369   0.945  0.1271  0.0757  0.2499
  833MOL0     C12372  10.528   0.441   1.626  0.3839 -0.1042  0.1075
  833MOL0     C12373  10.418   0.498   1.682 -0.3186  0.5151  0.1832
  833MOL0     C12374  10.158   0.652   2.008 -0.6492  0.0280  0.4819
  833MOL0     C12375  10.082   0.565   2.083  0.4731 -0.0111  0.3663
  833MOL0     C12376   9.971   0.599   2.160  0.1691 -0.2863  0.2428
  833MOL0     C12377   9.924   0.731   2.148  0.4975 -0.0059 -0.6272
  833MOL0     O12378   9.806   0.754   2.213  0.4239  0.0653  0.4070
  833MOL0     C12379   9.697   0.730   2.122  0.3853  0.7234 -0.0712
  833MOL0     C12380   9.564   0.725   2.194  0.2720 -0.9587  0.3397
  833MOL0     C12381   9.447   0.708   2.099 -0.4698  0.0625  0.3307
  833MOL0     C12382   9.313   0.703   2.161  0.3976 -0.7255  0.5107
  833MOL0     C12383   9.222   0.657   2.052  0.0119 -0.9883  0.1854
  833MOL0     C12384   9.144   0.636   1.965 -0.6962  0.3150  0.1310
  833MOL0     C12385   9.996   0.824   2.073 -0.1822  0.2059 -0.0033
  833MOL0     C12386  10.113   0.783   2.009 -1.1046 -0.7780 -0.1300
  833MOL0     C12387  10.187   0.887   1.939  0.9524 -0.1570 -0.3529
  833MOL0     H12388  10.354   0.270   1.921 -0.1284 -1.7393  0.1718
  833MOL0     H12389  10.568   0.160   1.806  0.8698  0.2949 -1.4905
  833MOL0     H12390  10.635   0.309   1.414  0.1751 -1.0509 -0.3612
  833MOL0     H12391  10.784   0.378   1.488 -0.6174  0.9139 -1.5249
  833MOL0     H12392  10.726   0.093   1.388 -3.9532  3.1280 -0.3672
  833MOL0     H12393  10.861   0.120   1.494 -0.4770 -2.6069 -2.2810
  833MOL0     H12394  10.936   0.302   1.335 -2.6697  1.9082 -0.8729
  833MOL0     H12395  10.821   0.249   1.218  0.5135 -1.3429 -0.8136
  833MOL0     H12396  11.052   0.095   1.351 -1.0198  3.5479  1.3652
  833MOL0     H12397  10.945   0.018   1.231 -1.2278  0.2974  1.6075
  833MOL0     H12398  11.157   0.051   1.151  0.7831  0.0348 -2.3843
  833MOL0     H12399  11.050   0.150   1.053  3.5889 -0.1999 -1.9407
  833MOL0     H12400  11.103   0.345   1.164  1.8347  2.3242 -2.3947
  833MOL0     H12401  11.244   0.283   1.248 -0.9832  2.4950  0.5759
  833MOL0     H12402  11.203   0.293   0.962 -0.2906  0.5285 -0.2384
  833MOL0     H12403  11.347   0.208   1.044 -0.6772 -1.1349 -1.4709
  833MOL0     H12404  11.318   0.488   0.982 -1.1846  1.3361  1.1757
  833MOL0     H12405  11.315   0.472   1.156  1.2386 -0.1457  0.1349
  833MOL0     H12406  11.569   0.456   1.265  0.3209  1.5061  0.2141
  833MOL0     H12407  11.851   0.431   1.263  0.9831  0.9500  0.1928
  833MOL0     H12408  11.902   0.428   1.100 -0.2502  1.0423 -1.1264
  833MOL0     H12409  11.818   0.679   1.069  3.2853  2.6940  0.1985
  833MOL0     H12410  11.777   0.661   1.247  2.6680 -0.7530  3.8975
  833MOL0     H12411  12.020   0.602   1.281 -2.6267 -3.5292 -0.5344
  833MOL0     H12412  11.948   0.761   1.283  2.6824 -1.1287  2.7125
  833MOL0     H12413  12.160   0.740   1.154  0.6293 -0.9581 -0.2781
  833MOL0     H12414  12.040   0.819   1.062 -2.2380 -0.0677  1.2552
  833MOL0     H12415  12.152   0.445   0.825  0.3816  0.0074 -0.2694
  833MOL0     H12416  12.359   0.451   0.683 -1.5507  1.6737 -1.7053
  833MOL0     H12417  12.743   0.848   0.488 -1.6607 -0.9650  0.0604
  833MOL0     H12418  12.972   0.819   0.415 -1.3208 -1.9900 -1.2140
  833MOL0     H12419  13.170   0.698   0.360 -1.1691  0.0064  1.6902
  833MOL0     H12420  13.221   0.851   0.437 -2.0418  0.2683 -0.2965
  833MOL0     H12421  13.380   0.590   0.436  0.4598  0.0303  0.6871
  833MOL0     H12422  13.425   0.725   0.336  0.6408  1.4633  0.0521
  833MOL0     H12423  13.469   0.861   0.539 -2.9646  0.2460 -0.3127
  833MOL0     H12424  13.414   0.736   0.640 -1.2107  1.0248 -1.4776
  833MOL0     H12425  13.661   0.705   0.453  1.6033  2.7288  1.4707
  833MOL0     H12426  13.576   0.571   0.532 -0.6537  0.9026 -0.5147
  833MOL0     H12427  13.611   0.678   0.748 -0.2666 -0.2789 -0.7144
  833MOL0     H12428  13.705   0.809   0.668  0.7448 -0.1616  4.0385
  833MOL0     H12429  13.798   0.518   0.621  2.7739 -1.8500  3.2892
  833MOL0     H12430  13.895   0.664   0.640  0.4587  0.8590 -0.0269
  833MOL0     H12431  13.808   0.656   0.889 -3.5593 -1.0216  0.1015
  833MOL0     H12432  13.936   0.541   0.819  0.3889 -0.9651  1.8272
  833MOL0     H12433  13.643   0.487   0.849 -0.2825 -0.5653 -1.9434
  833MOL0     H12434  13.761   0.368   0.798 -2.7197 -0.6060 -0.8114
  833MOL0     H12435  13.070   0.619   0.782 -0.0157  1.3706  0.7369
  833MOL0     H12436  12.838   0.625   0.843  0.8369 -2.7759 -1.2752
  833MOL0     H12437  12.488   0.801   0.889  2.0279 -3.3187 -0.4176
  833MOL0     H12438  12.274   0.819   1.005 -4.7112  0.2956 -1.3629
  833MOL0     H12439  10.579   0.490   1.543  1.6325  1.2846  1.6109
  833MOL0     H12440  10.377   0.592   1.647 -1.4542  0.1345  0.4548
  833MOL0     H12441  10.120   0.464   2.078 -0.8082 -0.4670 -1.1786
  833MOL0     H12442   9.908   0.524   2.206 -0.3142 -1.3716 -2.0484
  833MOL0     H12443   9.714   0.646   2.054 -0.0997  2.3105 -2.2432
  833MOL0     H12444   9.692   0.818   2.058 -1.1031  0.7753  0.0671
  833MOL0     H12445   9.555   0.825   2.238 -0.1223 -0.5785 -0.5866
  833MOL0     H12446   9.565   0.640   2.263 -0.6010 -1.2752 -0.0234
  833MOL0     H12447   9.448   0.616   2.040 -0.1199  0.0353  0.3761
  833MOL0     H12448   9.466   0.787   2.025 -0.5219 -0.9723 -0.8203
  833MOL0     H12449   9.306   0.630   2.243 -0.4229 -1.6869 -0.3945
  833MOL0     H12450   9.286   0.800   2.205 -0.8815 -0.3898 -0.9441
  833MOL0     H12451   9.074   0.620   1.886 -0.5897 -3.7140  0.6756
  833MOL0     H12452   9.949   0.921   2.057 -1.8130 -0.5856 -0.2490
  833MOL0     H12453  10.291   0.899   1.969  2.1678 -5.0415 -1.7070
  833MOL0     H12454  10.194   0.878   1.830  1.3894 -2.3656 -0.1864
  833MOL0     H12455  10.136   0.983   1.953  1.4870  0.6550 -3.3220
  834MOL0     O12456   5.854   3.266  10.233  0.3086  0.0902  0.3849
  834MOL0     C12457   5.737   3.247  10.225 -0.4763 -0.6446 -0.5398
  834MOL0     O12458   5.681   3.130  10.177  0.8144 -0.6621  0.5939
  834MOL0     C12459   5.758   3.019  10.147  0.1618  0.1882 -1.2377
  834MOL0     C12460   5.881   3.022  10.073  0.5067  0.1746  0.2584
  834MOL0     C12461   5.930   2.904  10.029 -0.7127  0.0858 -0.3214
  834MOL0     C12462   5.878   2.777  10.052  0.3149  0.3888 -0.4377
  834MOL0     O12463   5.944   2.675   9.986  0.0510 -0.5675  1.2323
  834MOL0     C12464   5.892   2.549  10.011 -0.4738  0.1222 -0.4643
  834MOL0     C12465   5.972   2.444   9.935 -0.2656  0.6044  0.0311
  834MOL0     C12466   6.130   2.443   9.964  0.5099  0.1934  0.3982
  834MOL0     C12467   6.190   2.318   9.893  0.1270 -0.7048 -0.3948
  834MOL0     C12468   6.336   2.281   9.921  0.2960 -0.1019 -0.2295
  834MOL0     C12469   6.437   2.381   9.886 -0.3454 -0.0781 -0.2819
  834MOL0     C12470   6.580   2.334   9.926 -0.6899  1.1610  0.1569
  834MOL0     C12471   6.610   2.328  10.079 -0.4225  0.9202  0.3399
  834MOL0     N12472   6.753   2.301  10.114  0.1690 -0.9451  0.5020
  834MOL0     C12473   6.810   2.176  10.137  0.1396 -0.3966 -0.3231
  834MOL0     C12474   6.930   2.207  10.173  0.1029  0.1569 -0.1599
  834MOL0     C12475   7.031   2.112  10.220 -0.4227  0.2124  0.4668
  834MOL0     C12476   7.031   2.103  10.372  0.5587 -0.7836  0.1941
  834MOL0     C12477   7.140   2.005  10.429 -1.2400 -0.3229  0.5398
  834MOL0     C12478   7.286   2.065  10.403  0.2979  0.6195 -0.1924
  834MOL0     O12479   7.375   1.985  10.478  0.4730 -0.2182 -0.0358
  834MOL0     C12480   7.412   1.861  10.442  0.6022  0.0565 -0.4098
  834MOL0     C12481   7.384   1.793  10.317  0.1390 -0.8818 -0.6759
  834MOL0     C12482   7.426   1.663  10.296 -0.1743 -0.2177 -0.2560
  834MOL0     C12483   7.503   1.585  10.397 -0.6217  0.2316  0.8183
  834MOL0     C12484   7.564   1.455  10.358 -0.2770  0.2668  0.5499
  834MOL0     O12485   7.557   1.414  10.228 -0.2436  0.1485 -0.2391
  834MOL0     C12486   7.634   1.302  10.195  0.4614  0.6113 -0.3416
  834MOL0     C12487   7.764   1.334  10.159  0.2711  0.4294  1.2209
  834MOL0     C12488   7.845   1.230  10.112  0.5143 -0.2053 -0.3678
  834MOL0     C12489   7.795   1.095  10.101  0.1203  0.5514  0.0524
  834MOL0     O12490   7.868   0.981  10.068 -0.0743  0.1266 -0.2082
  834MOL0     C12491   8.012   0.985  10.104  0.3313  0.2905 -0.0032
  834MOL0     C12492   8.072   0.845  10.104  0.7446  0.1102 -0.7519
  834MOL0     C12493   8.029   0.769  10.226  0.2959  0.3196  0.0899
  834MOL0     C12494   8.130   0.658  10.271  0.7019  0.0299 -0.7939
  834MOL0     C12495   8.089   0.594  10.407 -0.4121 -0.2047  0.0432
  834MOL0     C12496   8.200   0.491  10.455 -0.4965  0.1185  0.1553
  834MOL0     C12497   8.181   0.417  10.588 -1.0234 -0.0717 -0.1191
  834MOL0     C12498   8.156   0.515  10.695 -0.1653 -0.4129 -0.4206
  834MOL0    Cl12499   8.277   0.649  10.695 -0.2048 -0.0278 -0.1570
  834MOL0     C12500   7.662   1.070  10.131  0.4676 -0.7531  0.1877
  834MOL0     C12501   7.579   1.176  10.184  0.3826  0.3629 -0.2645
  834MOL0     O12502   7.613   1.393  10.449 -0.9092 -0.3833  0.2215
  834MOL0     C12503   7.533   1.646  10.513  1.0851 -0.2059  0.3488
  834MOL0     C12504   7.491   1.782  10.541  0.0007 -0.2590 -0.8100
  834MOL0     N12505   6.955   2.348  10.169  0.1830  0.9290  0.3539
  834MOL0     N12506   6.845   2.399  10.130 -0.0783 -0.5496 -0.1513
  834MOL0     C12507   5.761   2.776  10.133  0.1241 -0.4107 -0.2599
  834MOL0     C12508   5.694   2.890  10.169  0.0533  0.5148 -0.3072
  834MOL0     C12509   5.644   3.363  10.246 -0.2340 -0.5050 -0.6876
  834MOL0     C12510   5.502   3.337  10.250 -0.1052 -0.1485 -0.1144
  834MOL0     C12511   5.410   3.444  10.231 -0.8235  0.2263 -1.1545
  834MOL0     C12512   5.453   3.575  10.220  0.2067  0.5059  0.8117
  834MOL0     O12513   5.363   3.686  10.203  0.5944  0.5988 -1.0728
  834MOL0     C12514   5.219   3.662  10.215 -0.7144  0.2799 -0.7281
  834MOL0     C12515   5.156   3.800  10.190  0.5150 -0.6617  0.2129
  834MOL0     C12516   5.006   3.788  10.190  0.2387 -0.2810 -0.7173
  834MOL0     C12517   4.953   3.924  10.167  0.8256 -1.0601  1.0379
  834MOL0     C12518   4.985   3.975  10.031 -0.1773 -0.2729  0.2898
  834MOL0     C12519   5.011   4.033   9.926 -0.3581 -0.8004  0.5748
  834MOL0     C12520   5.590   3.597  10.224 -0.0685  0.0220 -0.1559
  834MOL0     C12521   5.686   3.495  10.233 -0.3320  0.5584 -0.3080
  834MOL0     C12522   5.833   3.553  10.219  0.0684 -0.3395  0.1238
  834MOL0     H12523   5.931   3.111  10.036 -2.3980  1.6528 -0.4013
  834MOL0     H12524   6.016   2.915   9.964  1.2110  0.8862  2.2078
  834MOL0     H12525   5.900   2.528  10.118  1.0277  3.3620  0.1855
  834MOL0     H12526   5.787   2.546   9.980 -0.6415  1.0764 -0.0375
  834MOL0     H12527   5.953   2.457   9.828 -0.2828  0.7588  0.0513
  834MOL0     H12528   5.940   2.345   9.967  3.7076 -0.5103  1.0203
  834MOL0     H12529   6.140   2.440  10.073 -0.5262 -5.3339  0.6360
  834MOL0     H12530   6.168   2.536   9.920 -0.1117  0.1390 -0.2752
  834MOL0     H12531   6.124   2.234   9.916 -1.7231  1.0861  1.3235
  834MOL0     H12532   6.173   2.338   9.786 -1.4956 -0.3975 -0.1046
  834MOL0     H12533   6.335   2.261  10.029 -1.3866  1.4031  0.0674
  834MOL0     H12534   6.365   2.196   9.858  1.7827 -1.5799  2.2566
  834MOL0     H12535   6.433   2.407   9.779 -0.5397 -0.0589 -0.2704
  834MOL0     H12536   6.415   2.479   9.929 -0.6579  0.9117 -2.5206
  834MOL0     H12537   6.658   2.401   9.889 -0.1821  0.9610  0.8574
  834MOL0     H12538   6.593   2.232   9.888 -0.5893 -0.1512  3.4022
  834MOL0     H12539   6.589   2.424  10.126 -0.0781  0.3818  1.6313
  834MOL0     H12540   6.543   2.258  10.129  0.2382 -0.6381 -0.8670
  834MOL0     H12541   6.766   2.078  10.124  0.8103 -0.5568 -1.5059
  834MOL0     H12542   7.009   2.009  10.193 -1.0995  0.8917 -1.7669
  834MOL0     H12543   7.128   2.142  10.180  0.9279 -1.6680  2.1424
  834MOL0     H12544   7.030   2.206  10.410 -0.1992 -0.9325  0.5898
  834MOL0     H12545   6.933   2.065  10.401  2.4808 -5.9825  0.8597
  834MOL0     H12546   7.129   1.907  10.381 -0.2393  0.1196 -0.6346
  834MOL0     H12547   7.126   1.995  10.537  2.2985 -1.4106  1.0268
  834MOL0     H12548   7.287   2.166  10.445 -1.2415  0.0488  1.3358
  834MOL0     H12549   7.313   2.079  10.298  0.8631  0.2623 -0.0955
  834MOL0     H12550   7.327   1.848  10.243  0.3575 -1.2026 -1.0894
  834MOL0     H12551   7.415   1.634  10.192  0.7835  2.8576 -1.3366
  834MOL0     H12552   7.794   1.438  10.167 -2.3054  1.1107  4.3146
  834MOL0     H12553   7.946   1.255  10.084  0.3842  0.4648 -0.2494
  834MOL0     H12554   8.056   1.048  10.026 -1.2643  1.6106  0.1170
  834MOL0     H12555   8.021   1.036  10.201 -4.1804  1.2697  0.1379
  834MOL0     H12556   8.025   0.788  10.023  0.1678  1.1737 -1.1760
  834MOL0     H12557   8.180   0.856  10.089  1.0444 -2.1676 -0.6249
  834MOL0     H12558   8.022   0.845  10.305 -0.6867  1.1258 -0.7388
  834MOL0     H12559   7.931   0.723  10.209  0.5585 -0.4279  0.5758
  834MOL0     H12560   8.231   0.700  10.281  0.6405  0.2089 -0.9046
  834MOL0     H12561   8.126   0.584  10.191 -0.3775  1.3036 -1.9722
  834MOL0     H12562   7.998   0.533  10.400 -0.3153 -0.2617 -0.7810
  834MOL0     H12563   8.081   0.673  10.482  0.8545 -1.4670  1.5931
  834MOL0     H12564   8.196   0.413  10.379 -0.5746  0.5801 -0.3223
  834MOL0     H12565   8.303   0.531  10.452 -0.3823  0.1624  2.7470
  834MOL0     H12566   8.271   0.356  10.592 -1.5477 -0.8085  1.7000
  834MOL0     H12567   8.090   0.356  10.585 -1.1129 -0.0275  1.1176
  834MOL0     H12568   8.057   0.559  10.684  0.2908  0.8090  0.2093
  834MOL0     H12569   8.157   0.470  10.795  2.6822  0.0620 -0.1502
  834MOL0     H12570   7.614   0.973  10.132 -0.2140 -0.4540 -1.3208
  834MOL0     H12571   7.474   1.164  10.207  0.8569 -2.0434  1.0176
  834MOL0     H12572   7.620   1.607  10.565  2.1238 -1.3330 -2.0898
  834MOL0     H12573   7.500   1.838  10.633 -2.9929 -2.2415  0.8405
  834MOL0     H12574   5.701   2.687  10.146 -1.4990  0.4736 -1.3055
  834MOL0     H12575   5.604   2.890  10.230  1.4801 -2.3933  2.0446
  834MOL0     H12576   5.465   3.236  10.254 -2.6214  0.7242 -0.0119
  834MOL0     H12577   5.304   3.418  10.235 -0.5074 -0.9749  1.8088
  834MOL0     H12578   5.197   3.624  10.316 -0.6862  1.8403 -0.0976
  834MOL0     H12579   5.181   3.596  10.137 -0.3765 -0.5967 -0.1638
  834MOL0     H12580   5.201   3.835  10.097  0.1179 -0.7070  0.0023
  834MOL0     H12581   5.181   3.878  10.262  1.6700  0.7471 -1.6204
  834MOL0     H12582   4.985   3.753  10.292  1.9095  1.1644  0.1688
  834MOL0     H12583   4.982   3.721  10.106 -0.4250  0.4274 -1.0951
  834MOL0     H12584   4.845   3.938  10.182  0.8290  1.8672 -0.8513
  834MOL0     H12585   5.009   3.990  10.235 -2.0696  1.5387  1.1295
  834MOL0     H12586   5.054   4.081   9.840 -0.7316  1.0314  1.3852
  834MOL0     H12587   5.614   3.702  10.208 -1.6460  0.6317  1.1185
  834MOL0     H12588   5.904   3.482  10.262 -2.3482 -2.1732  1.3972
  834MOL0     H12589   5.848   3.565  10.111  0.8766  1.0919  0.3704
  834MOL0     H12590   5.850   3.643  10.279  0.0658 -0.9267  1.0321
  835MOL0     O12591   8.284  10.176   9.135  0.0879  0.2313  0.2638
  835MOL0     C12592   8.262  10.286   9.182  0.0953 -0.6302 -0.2639
  835MOL0     O12593   8.343  10.388   9.190 -0.3419 -0.2457 -0.1427
  835MOL0     C12594   8.469  10.376   9.129  0.5201  0.6343  0.3095
  835MOL0     C12595   8.512  10.481   9.048  0.3321  0.3359  0.1801
  835MOL0     C12596   8.636  10.473   8.990 -0.1120  0.4269  0.4800
  835MOL0     C12597   8.721  10.356   9.001 -0.7761 -0.7373  0.2619
  835MOL0     O12598   8.854  10.357   8.958 -0.6146  0.3309  0.2534
  835MOL0     C12599   8.927  10.482   8.978 -0.0799 -0.1257 -0.7392
  835MOL0     C12600   9.070  10.448   8.953  0.0630  0.3607  0.4722
  835MOL0     C12601   9.164  10.563   8.993  0.3884 -0.3420  0.0146
  835MOL0     C12602   9.305  10.541   8.962  0.0384 -0.3576 -0.3610
  835MOL0     C12603   9.391  10.465   9.060 -0.4895  0.0391 -0.1266
  835MOL0     C12604   9.544  10.477   9.014  1.1112 -0.2043 -0.0757
  835MOL0     C12605   9.619  10.400   9.116 -0.0203  0.7811  0.3819
  835MOL0     C12606   9.775  10.421   9.101 -0.1677  0.3715  0.6142
  835MOL0     N12607   9.814  10.550   9.141  0.3609 -1.3065  0.5340
  835MOL0     C12608   9.844  10.666   9.072  0.0426  0.2673  0.1557
  835MOL0     C12609   9.899  10.755   9.160 -0.5885 -0.4363  0.3860
  835MOL0     C12610   9.941  10.903   9.143  0.1633  0.5023 -0.4329
  835MOL0     C12611  10.081  10.915   9.083 -1.1391  0.1304  0.2638
  835MOL0     C12612  10.186  10.851   9.172 -0.6205 -0.7031 -0.0212
  835MOL0     C12613  10.323  10.889   9.144 -0.0254  0.0176  0.5711
  835MOL0     O12614  10.347  10.865   9.003 -0.5585 -0.0881  0.4465
  835MOL0     C12615  10.482  10.851   8.961 -0.4604  0.0285  0.0652
  835MOL0     C12616  10.507  10.790   8.826 -0.0570 -0.9566  0.2254
  835MOL0     C12617  10.633  10.768   8.774 -0.3493 -0.3129 -0.1011
  835MOL0     C12618  10.742  10.826   8.846  0.5338 -0.3169 -0.6342
  835MOL0     C12619  10.881  10.806   8.808  0.5064  0.9619  0.0104
  835MOL0     O12620  10.977  10.894   8.843  0.0084 -0.0418  0.8216
  835MOL0     C12621  11.115  10.892   8.818 -0.0925 -0.6039 -0.0784
  835MOL0     C12622  11.182  10.781   8.759  0.5769  0.0665 -0.9406
  835MOL0     C12623  11.324  10.779   8.759 -0.5656  0.1342 -1.2661
  835MOL0     C12624  11.408  10.883   8.812  0.2348 -0.7655  0.0434
  835MOL0     O12625  11.542  10.857   8.815 -0.2234  0.3572  0.0113
  835MOL0     C12626  11.640  10.953   8.882 -0.2848  0.4135 -0.1356
  835MOL0     C12627  11.770  10.869   8.896  0.3523  0.5951 -0.7838
  835MOL0     C12628  11.782  10.764   9.009 -0.6274  0.1621  0.2159
  835MOL0     C12629  11.923  10.701   9.024  0.2714  0.7103  0.1060
  835MOL0     C12630  12.012  10.775   9.132  0.1448  0.2153 -0.1306
  835MOL0     C12631  12.134  10.697   9.156 -0.6148 -0.2132  1.0037
  835MOL0     C12632  12.230  10.781   9.248  0.2094 -0.1105 -0.0802
  835MOL0     C12633  12.374  10.721   9.245  0.6687 -0.7536  0.0725
  835MOL0    Cl12634  12.482  10.839   9.331 -0.1068 -0.2514 -0.2169
  835MOL0     C12635  11.336  10.998   8.855 -0.6040  0.1486 -0.4114
  835MOL0     C12636  11.196  11.004   8.857  0.1337  0.1248  0.0664
  835MOL0     O12637  10.903  10.698   8.755  0.0682 -0.2223 -0.5441
  835MOL0     C12638  10.724  10.885   8.972 -0.0591  0.0258  0.3673
  835MOL0     C12639  10.598  10.892   9.029  0.7716  0.2866 -0.2044
  835MOL0     N12640   9.895  10.700   9.281 -0.3885 -0.2228 -0.5253
  835MOL0     N12641   9.853  10.577   9.266  0.8905 -1.0446  0.0800
  835MOL0     C12642   8.675  10.254   9.084 -0.8942  0.5589  0.9344
  835MOL0     C12643   8.555  10.268   9.155 -0.2615 -0.2811 -0.4671
  835MOL0     C12644   8.138  10.290   9.264  0.8778 -0.4974 -1.6515
  835MOL0     C12645   8.098  10.187   9.354 -0.8485 -0.2163 -0.8246
  835MOL0     C12646   7.989  10.196   9.445  0.0632  0.0233 -0.4109
  835MOL0     C12647   7.911  10.314   9.449 -0.9547  0.2870  0.1622
  835MOL0     O12648   7.797  10.335   9.532 -0.4763 -0.1812  0.1084
  835MOL0     C12649   7.780  10.247   9.649 -0.0486  0.1257  0.5257
  835MOL0     C12650   7.669  10.309   9.739  0.5983 -0.3175 -0.1516
  835MOL0     C12651   7.530  10.255   9.691 -0.6087 -0.2225  0.1854
  835MOL0     C12652   7.409  10.279   9.784 -0.5974 -0.0523 -0.1466
  835MOL0     C12653   7.283  10.255   9.717 -0.1136 -0.0787  0.1820
  835MOL0     C12654   7.178  10.230   9.661 -0.3399  0.5298  0.7211
  835MOL0     C12655   7.949  10.417   9.354  0.2305  0.1890  0.2834
  835MOL0     C12656   8.058  10.406   9.272 -0.8897 -0.4747  0.1993
  835MOL0     C12657   8.084  10.521   9.184 -0.5110 -0.2955 -0.0831
  835MOL0     H12658   8.445  10.562   9.022 -2.2600 -1.5268  0.5980
  835MOL0     H12659   8.665  10.550   8.919 -0.5342 -0.2429 -0.4453
  835MOL0     H12660   8.897  10.558   8.906 -2.7670 -0.9421 -0.6022
  835MOL0     H12661   8.904  10.521   9.078 -0.2886 -2.5469  0.2240
  835MOL0     H12662   9.092  10.429   8.847  1.1107  2.3927  0.2813
  835MOL0     H12663   9.083  10.354   9.007 -2.3487 -0.6719 -0.5760
  835MOL0     H12664   9.155  10.578   9.101  2.5810  1.0106  0.0621
  835MOL0     H12665   9.126  10.657   8.951  1.0160 -0.3586 -0.6010
  835MOL0     H12666   9.305  10.499   8.861 -1.1377 -1.0549 -0.0863
  835MOL0     H12667   9.345  10.643   8.960  2.9564 -1.3701  0.4874
  835MOL0     H12668   9.380  10.509   9.159  2.0677 -0.3698  0.4181
  835MOL0     H12669   9.343  10.367   9.062 -0.3320 -0.1603 -2.5885
  835MOL0     H12670   9.546  10.422   8.919 -2.2018 -2.9614  1.2307
  835MOL0     H12671   9.570  10.583   9.005 -0.0572  0.2835  1.7948
  835MOL0     H12672   9.592  10.293   9.115  1.6721  0.3260 -1.2633
  835MOL0     H12673   9.610  10.451   9.212  2.5368  2.3594 -0.1349
  835MOL0     H12674   9.837  10.358   9.165  1.6100  0.7482 -0.6703
  835MOL0     H12675   9.808  10.394   9.001  0.2861  0.3924  0.7535
  835MOL0     H12676   9.811  10.682   8.970 -3.0754  1.3451  1.2320
  835MOL0     H12677   9.877  10.970   9.086 -1.7196  0.3580  1.4268
  835MOL0     H12678   9.940  10.955   9.239  1.5118  0.9944 -0.6531
  835MOL0     H12679  10.086  10.879   8.980  1.0938  0.4190  0.2360
  835MOL0     H12680  10.107  11.020   9.073  0.5045 -0.0639  2.0006
  835MOL0     H12681  10.185  10.742   9.162  2.4015 -0.6845 -1.7922
  835MOL0     H12682  10.169  10.877   9.276  0.9123 -2.0279  0.5992
  835MOL0     H12683  10.385  10.823   9.205  0.0919 -1.3044 -0.9316
  835MOL0     H12684  10.342  10.996   9.160  3.0989 -0.0852 -1.6415
  835MOL0     H12685  10.420  10.768   8.766  1.5045  0.0897 -2.6240
  835MOL0     H12686  10.647  10.712   8.682 -1.3092  1.8383 -1.6392
  835MOL0     H12687  11.125  10.705   8.707 -0.1563  2.1490 -3.3655
  835MOL0     H12688  11.379  10.699   8.709 -2.7143 -2.0837 -0.3101
  835MOL0     H12689  11.664  11.034   8.813 -0.0094 -1.3208 -2.1679
  835MOL0     H12690  11.599  10.995   8.975 -0.7466  0.4335 -0.3489
  835MOL0     H12691  11.803  10.819   8.804  3.2006 -0.2528  0.5653
  835MOL0     H12692  11.858  10.933   8.904  1.0872 -0.5969  1.6317
  835MOL0     H12693  11.764  10.814   9.104  2.1328 -0.3848  1.1120
  835MOL0     H12694  11.702  10.690   8.995  0.5024 -0.9067 -0.8992
  835MOL0     H12695  11.975  10.700   8.927  1.2728 -2.7087  0.5295
  835MOL0     H12696  11.920  10.594   9.049  2.7484  0.1634 -1.5198
  835MOL0     H12697  11.950  10.776   9.222 -2.7549 -0.2564 -1.9890
  835MOL0     H12698  12.028  10.879   9.105  0.2746 -0.2207 -1.8611
  835MOL0     H12699  12.107  10.602   9.203 -1.9855  0.3624  1.4465
  835MOL0     H12700  12.183  10.682   9.060 -0.4201 -1.3273  1.2596
  835MOL0     H12701  12.186  10.771   9.348 -1.4215 -1.0891 -0.8460
  835MOL0     H12702  12.234  10.882   9.208  0.3641 -0.1231 -0.0949
  835MOL0     H12703  12.373  10.627   9.301 -0.8175 -0.2112  1.0237
  835MOL0     H12704  12.420  10.699   9.148 -1.7867 -0.9114 -1.1149
  835MOL0     H12705  11.385  11.089   8.887  1.0630 -0.3864 -1.2879
  835MOL0     H12706  11.157  11.097   8.897 -0.1910  0.1575 -0.3254
  835MOL0     H12707  10.813  10.915   9.025 -0.4516  1.0385  0.4656
  835MOL0     H12708  10.594  10.930   9.131  1.5882  0.0183 -0.0625
  835MOL0     H12709   8.749  10.175   9.088  0.9783  2.0687 -1.4635
  835MOL0     H12710   8.531  10.194   9.230 -1.7501  2.5119  1.9736
  835MOL0     H12711   8.148  10.090   9.349 -2.5621 -1.1707 -0.3574
  835MOL0     H12712   7.959  10.111   9.506  1.7325  0.3965  1.0175
  835MOL0     H12713   7.874  10.239   9.705 -0.2095  0.3489  0.8246
  835MOL0     H12714   7.748  10.149   9.611  0.8048  1.2101 -3.4242
  835MOL0     H12715   7.670  10.419   9.737 -1.3902 -0.2662 -0.3751
  835MOL0     H12716   7.680  10.279   9.843  1.4341 -2.8217 -0.8972
  835MOL0     H12717   7.538  10.148   9.671  1.0697 -0.0861  0.0060
  835MOL0     H12718   7.508  10.314   9.602 -2.4192 -1.2479 -0.0891
  835MOL0     H12719   7.413  10.210   9.869 -0.1195 -0.1663 -0.2559
  835MOL0     H12720   7.409  10.385   9.811 -0.0923  0.5377 -2.3354
  835MOL0     H12721   7.092  10.205   9.601  2.8872 -2.3532 -3.2592
  835MOL0     H12722   7.888  10.507   9.343  0.6881  0.8265  2.4303
  835MOL0     H12723   7.993  10.578   9.161  0.1441  0.7643 -0.1195
  835MOL0     H12724   8.149  10.599   9.224  1.2624 -2.2468  1.0236
  835MOL0     H12725   8.123  10.492   9.086  1.4612  0.2767  0.4797
  836MOL0     O12726   0.943   8.565   0.704 -0.8244 -0.9430 -0.6466
  836MOL0     C12727   0.854   8.653   0.707 -0.4932  0.9220  0.2249
  836MOL0     O12728   0.882   8.790   0.691 -0.9339  0.9796  0.6569
  836MOL0     C12729   1.015   8.840   0.683 -0.0181 -0.2621 -0.3752
  836MOL0     C12730   1.044   8.930   0.579  0.5485 -0.0272  0.5660
  836MOL0     C12731   1.167   8.986   0.569 -0.2044 -0.8848  0.0952
  836MOL0     C12732   1.267   8.953   0.660  0.0506 -0.1537  0.5440
  836MOL0     O12733   1.391   9.009   0.637  0.3965  0.5107 -0.1703
  836MOL0     C12734   1.496   8.919   0.590 -0.4994  0.2111  0.6896
  836MOL0     C12735   1.625   8.991   0.561  0.3466 -0.3229 -0.0036
  836MOL0     C12736   1.731   8.897   0.526 -0.4168 -0.5022 -0.7064
  836MOL0     C12737   1.867   8.965   0.497 -0.0548  0.4093  0.1959
  836MOL0     C12738   1.883   9.022   0.360  0.0532  0.2765  0.6635
  836MOL0     C12739   2.037   9.054   0.338 -0.4936  0.3729  0.6555
  836MOL0     C12740   2.069   9.123   0.206  0.5899  0.0764  0.3939
  836MOL0     C12741   2.022   9.045   0.083 -0.2682  0.1033 -0.2072
  836MOL0     N12742   2.093   9.096  -0.037 -0.0712 -0.2604 -0.4256
  836MOL0     C12743   2.087   9.222  -0.075 -0.1868 -0.5577 -0.0007
  836MOL0     C12744   2.144   9.231  -0.198 -0.9252  0.4909 -0.2340
  836MOL0     C12745   2.190   9.358  -0.258 -0.3571 -0.0052 -0.0268
  836MOL0     C12746   2.333   9.330  -0.316 -0.1806  0.3908  0.5411
  836MOL0     C12747   2.397   9.460  -0.387  0.3359  0.6852 -0.4976
  836MOL0     C12748   2.524   9.417  -0.456  0.6513  0.1698  0.1262
  836MOL0     O12749   2.598   9.533  -0.514  0.1015  0.2931 -0.3937
  836MOL0     C12750   2.730   9.514  -0.549 -1.1333 -0.2193  0.6667
  836MOL0     C12751   2.806   9.399  -0.516 -0.1894  0.2515  1.0388
  836MOL0     C12752   2.939   9.404  -0.556 -0.5207  0.3547 -0.5180
  836MOL0     C12753   2.989   9.492  -0.652 -0.0267  0.6812 -0.0742
  836MOL0     C12754   3.131   9.482  -0.693 -0.3347  0.0352 -0.7018
  836MOL0     O12755   3.198   9.359  -0.693 -0.1367 -0.2854 -0.1314
  836MOL0     C12756   3.323   9.364  -0.737 -0.1928 -0.3469  0.5816
  836MOL0     C12757   3.347   9.380  -0.873  0.6448  0.1319  0.5804
  836MOL0     C12758   3.479   9.348  -0.923 -0.4092 -0.1739 -0.3842
  836MOL0     C12759   3.583   9.315  -0.832  0.5658 -0.0717  0.3123
  836MOL0     O12760   3.697   9.272  -0.882 -0.0648  0.3083  0.1556
  836MOL0     C12761   3.788   9.369  -0.928  0.1092 -0.5878 -0.4258
  836MOL0     C12762   3.930   9.319  -0.908  0.7049 -0.1421 -0.2432
  836MOL0     C12763   4.030   9.432  -0.932 -0.4719 -0.3717  0.4058
  836MOL0     C12764   4.170   9.367  -0.965  0.6858 -0.1770 -0.4012
  836MOL0     C12765   4.281   9.456  -0.915 -0.7242 -0.3004 -0.0842
  836MOL0     C12766   4.417   9.398  -0.948 -1.2194 -0.3003 -0.1197
  836MOL0     C12767   4.490   9.485  -1.064 -0.1348  0.9135 -0.0298
  836MOL0     C12768   4.636   9.442  -1.087  0.7312 -0.1875  0.5051
  836MOL0    Cl12769   4.738   9.486  -0.939 -0.3041 -0.4131 -0.6174
  836MOL0     C12770   3.557   9.304  -0.697  0.1113  0.8806 -0.3763
  836MOL0     C12771   3.431   9.328  -0.653  0.5581  0.0867 -0.3325
  836MOL0     O12772   3.172   9.588  -0.739 -0.1973 -0.3302 -0.1064
  836MOL0     C12773   2.906   9.594  -0.691 -0.5440 -0.0638 -0.1160
  836MOL0     C12774   2.782   9.609  -0.636  0.0523  0.5879 -0.3919
  836MOL0     N12775   2.178   9.094  -0.227 -0.0252  0.1239 -0.2712
  836MOL0     N12776   2.136   9.014  -0.132 -0.5798 -0.3787  0.8924
  836MOL0     C12777   1.248   8.870   0.769 -0.3952 -0.5564 -0.3703
  836MOL0     C12778   1.122   8.813   0.780 -0.0533  0.2467 -0.4236
  836MOL0     C12779   0.714   8.607   0.717 -0.4951 -0.7498 -0.6689
  836MOL0     C12780   0.617   8.708   0.735  0.0384  0.6032 -0.9673
  836MOL0     C12781   0.488   8.685   0.754 -0.0578 -0.1863  0.4365
  836MOL0     C12782   0.443   8.554   0.753 -0.3137  0.2920 -0.5696
  836MOL0     O12783   0.301   8.534   0.760 -1.3626  0.2196 -0.2359
  836MOL0     C12784   0.247   8.402   0.772 -0.3155  0.5381  0.0147
  836MOL0     C12785   0.089   8.411   0.768  0.2153 -1.1678 -0.7649
  836MOL0     C12786   0.002   8.293   0.787  0.6843  0.3957 -0.2762
  836MOL0     C12787   0.055   8.173   0.872 -0.9690 -0.3007 -0.8437
  836MOL0     C12788  -0.039   8.060   0.879 -0.5223 -0.6952  0.6958
  836MOL0     C12789  -0.129   7.978   0.866  0.0820 -0.8093 -0.5827
  836MOL0     C12790   0.537   8.455   0.729  0.2096  0.0451  0.5956
  836MOL0     C12791   0.671   8.471   0.714 -0.5199 -0.8117  0.1772
  836MOL0     C12792   0.760   8.350   0.676  0.2620  0.3284 -1.4032
  836MOL0     H12793   0.967   8.953   0.507  0.0680  1.0509  1.4035
  836MOL0     H12794   1.194   9.053   0.488 -0.3500 -1.3856 -0.3724
  836MOL0     H12795   1.511   8.829   0.651  1.5384 -0.2862 -0.4340
  836MOL0     H12796   1.462   8.865   0.501  1.8962 -1.2452  0.5488
  836MOL0     H12797   1.658   9.052   0.646 -0.3488  2.5061 -1.6322
  836MOL0     H12798   1.629   9.065   0.480  0.2321  1.9563  1.9827
  836MOL0     H12799   1.694   8.833   0.445 -1.0852 -0.4665 -0.4346
  836MOL0     H12800   1.749   8.830   0.611 -1.2480  0.5496  0.3182
  836MOL0     H12801   1.867   9.053   0.563  0.0300  2.9216 -2.9211
  836MOL0     H12802   1.948   8.899   0.528 -1.6877 -1.5285  0.5409
  836MOL0     H12803   1.847   8.947   0.290  0.7036  0.1104  0.4978
  836MOL0     H12804   1.830   9.116   0.344 -0.0074  0.0814 -0.3074
  836MOL0     H12805   2.093   9.099   0.421  0.7191  0.0220  0.0522
  836MOL0     H12806   2.084   8.954   0.334 -1.2851 -0.0127  0.8192
  836MOL0     H12807   2.173   9.152   0.191 -0.1231  1.3268 -3.3325
  836MOL0     H12808   2.026   9.224   0.211  1.3714  0.4644 -0.3607
  836MOL0     H12809   2.052   8.940   0.086  0.6820  0.2338 -2.7867
  836MOL0     H12810   1.913   9.057   0.077 -0.4935 -2.3330 -2.7839
  836MOL0     H12811   2.045   9.310  -0.027 -1.3234  1.9984 -4.9467
  836MOL0     H12812   2.122   9.398  -0.334 -0.4510  0.4461  0.2917
  836MOL0     H12813   2.185   9.434  -0.179 -1.9246  1.6198 -1.5975
  836MOL0     H12814   2.400   9.292  -0.239  0.1324  1.3773  0.7705
  836MOL0     H12815   2.320   9.248  -0.387  1.2138 -1.9230  2.7876
  836MOL0     H12816   2.431   9.528  -0.309  3.9391 -1.4264 -0.0086
  836MOL0     H12817   2.321   9.506  -0.452 -2.2202 -2.0682  0.3138
  836MOL0     H12818   2.498   9.342  -0.531 -0.1859 -1.5203  1.9933
  836MOL0     H12819   2.592   9.368  -0.386 -0.8739 -1.8107  0.3064
  836MOL0     H12820   2.772   9.312  -0.461 -0.0693  1.3118  2.8678
  836MOL0     H12821   3.003   9.318  -0.538  0.4680  1.0151 -0.7996
  836MOL0     H12822   3.273   9.400  -0.950  1.4448  1.9371  0.2260
  836MOL0     H12823   3.497   9.349  -1.030 -1.3947  0.4246 -0.5585
  836MOL0     H12824   3.779   9.385  -1.036 -3.7667 -1.4018 -0.3593
  836MOL0     H12825   3.762   9.461  -0.874 -0.1238  0.1764 -1.7943
  836MOL0     H12826   3.942   9.268  -0.811 -1.3192  0.3198  0.2984
  836MOL0     H12827   3.952   9.246  -0.986  1.3852  0.7999 -0.9513
  836MOL0     H12828   4.007   9.496  -1.018  0.4173  1.3291  1.3849
  836MOL0     H12829   4.035   9.488  -0.838  2.1077 -0.9679  0.6826
  836MOL0     H12830   4.178   9.349  -1.072 -0.1003 -1.8977 -0.2046
  836MOL0     H12831   4.187   9.273  -0.911  3.1528  0.8956  0.8706
  836MOL0     H12832   4.270   9.456  -0.807  4.8292  3.6709  0.9361
  836MOL0     H12833   4.254   9.556  -0.950 -2.9185 -0.3697  1.2598
  836MOL0     H12834   4.481   9.404  -0.860  2.1436 -0.7175 -2.3580
  836MOL0     H12835   4.396   9.292  -0.969 -1.4379 -0.4269  0.7215
  836MOL0     H12836   4.481   9.589  -1.034  1.1912  0.2990  2.8995
  836MOL0     H12837   4.439   9.471  -1.159 -0.4285 -1.5911  0.4167
  836MOL0     H12838   4.639   9.340  -1.128 -1.9765 -0.0034 -0.2986
  836MOL0     H12839   4.670   9.511  -1.165 -1.3887  2.1059  1.4843
  836MOL0     H12840   3.636   9.254  -0.641  0.6854 -1.7443 -3.1854
  836MOL0     H12841   3.402   9.325  -0.549  2.2492  0.9454  0.1934
  836MOL0     H12842   2.938   9.669  -0.763  0.6413 -0.6610 -0.2294
  836MOL0     H12843   2.719   9.696  -0.649 -0.0499  0.5276 -0.2981
  836MOL0     H12844   1.328   8.837   0.835 -1.8666  0.4410  2.0463
  836MOL0     H12845   1.102   8.747   0.864  0.3980 -2.5519 -2.3949
  836MOL0     H12846   0.653   8.810   0.731 -0.4676  0.8510  0.2104
  836MOL0     H12847   0.409   8.756   0.774 -0.6340 -1.3604  2.7168
  836MOL0     H12848   0.275   8.362   0.870 -2.2249  0.2535  0.4931
  836MOL0     H12849   0.283   8.345   0.686 -0.2299  1.7650 -0.7796
  836MOL0     H12850   0.059   8.456   0.673 -0.6075  0.1670  0.0980
  836MOL0     H12851   0.064   8.479   0.850  0.0984  2.5034 -3.5982
  836MOL0     H12852  -0.015   8.246   0.690 -3.9110  0.8020  0.1135
  836MOL0     H12853  -0.096   8.320   0.828  1.3649  0.7132  1.2188
  836MOL0     H12854   0.151   8.140   0.831 -1.5305  0.7426 -3.1518
  836MOL0     H12855   0.086   8.208   0.971  1.2193 -0.6379 -1.3600
  836MOL0     H12856  -0.204   7.904   0.847  0.2767 -1.8635  2.1702
  836MOL0     H12857   0.515   8.350   0.715 -0.8548  0.2499  0.6431
  836MOL0     H12858   0.838   8.331   0.750  0.2125 -1.1674 -1.7012
  836MOL0     H12859   0.704   8.257   0.668  0.4592 -0.0431  0.8066
  836MOL0     H12860   0.803   8.364   0.577 -2.1205 -0.1210 -2.5854
  837MOL0     O12861   7.299   6.108  10.710  0.2395  0.4346 -0.3499
  837MOL0     C12862   7.336   6.003  10.752 -0.2246  0.6003  0.3242
  837MOL0     O12863   7.466   5.969  10.762 -0.4173  0.1231 -0.7671
  837MOL0     C12864   7.559   6.069  10.745  0.0611  0.2678 -1.0029
  837MOL0     C12865   7.614   6.089  10.613  0.8694 -1.0351  0.2737
  837MOL0     C12866   7.700   6.196  10.586 -0.9928  0.3122 -0.5375
  837MOL0     C12867   7.731   6.281  10.693  0.2293 -0.0574 -0.0043
  837MOL0     O12868   7.814   6.386  10.658 -0.9099 -0.3691 -0.3871
  837MOL0     C12869   7.930   6.402  10.751 -0.0921 -0.1450 -1.1599
  837MOL0     C12870   8.028   6.498  10.698 -0.0727  0.4362  0.3573
  837MOL0     C12871   8.088   6.454  10.569  0.4667 -0.3907  0.0790
  837MOL0     C12872   8.165   6.565  10.495  0.1400  0.8333 -0.0383
  837MOL0     C12873   8.227   6.508  10.365  0.4218  0.1827 -0.8992
  837MOL0     C12874   8.368   6.440  10.405 -0.7482 -0.4151  0.3188
  837MOL0     C12875   8.454   6.411  10.280 -0.2961 -1.1730 -0.3403
  837MOL0     C12876   8.595   6.359  10.322 -0.6911  0.7190 -0.3957
  837MOL0     N12877   8.695   6.462  10.328  0.3081 -0.3204  0.1677
  837MOL0     C12878   8.768   6.530  10.229 -0.0076  0.1110 -0.3953
  837MOL0     C12879   8.849   6.621  10.285  0.8856 -0.2984 -0.0284
  837MOL0     C12880   8.949   6.712  10.208  0.3552 -0.1127 -0.5426
  837MOL0     C12881   9.085   6.685  10.280  0.4150  0.3187 -0.4076
  837MOL0     C12882   9.198   6.759  10.216 -0.3057 -0.8970  0.3912
  837MOL0     C12883   9.337   6.717  10.248  0.7509  1.0082  1.0100
  837MOL0     O12884   9.360   6.758  10.384  0.5140 -0.5802  0.0878
  837MOL0     C12885   9.484   6.753  10.441 -0.0048  0.0049  0.0308
  837MOL0     C12886   9.608   6.725  10.373 -1.1910 -0.1051  0.1527
  837MOL0     C12887   9.731   6.733  10.450 -0.3804 -0.0589  0.3892
  837MOL0     C12888   9.727   6.766  10.587 -1.1811 -0.0900 -0.2426
  837MOL0     C12889   9.851   6.778  10.661 -0.6340 -0.0753  0.5392
  837MOL0     O12890   9.963   6.781  10.585  0.9839 -0.3051 -0.2715
  837MOL0     C12891  10.091   6.800  10.629 -0.7036  0.4496 -0.7634
  837MOL0     C12892  10.190   6.717  10.572  0.5408 -0.9008 -0.4600
  837MOL0     C12893  10.322   6.739  10.615 -0.3610  0.2913  0.4244
  837MOL0     C12894  10.352   6.824  10.729 -0.6031  1.5918  0.5795
  837MOL0     O12895  10.485   6.830  10.774  0.1312 -0.8237 -0.1120
  837MOL0     C12896  10.517   6.775  10.901 -0.0600 -0.0198 -0.6795
  837MOL0     C12897  10.655   6.809  10.948 -0.3836 -0.1497 -0.2159
  837MOL0     C12898  10.688   6.962  10.970  0.0803  0.1910  0.8534
  837MOL0     C12899  10.767   6.998  11.093 -0.5769 -0.4017  0.4448
  837MOL0     C12900  10.796   7.153  11.117 -0.3730 -0.0805  0.2358
  837MOL0     C12901  10.900   7.164  11.227  0.6889 -0.2179  0.1489
  837MOL0     C12902  10.852   7.109  11.365  0.4441  0.6776 -0.1970
  837MOL0     C12903  10.716   7.161  11.411  0.1992 -0.5922  0.3200
  837MOL0    Cl12904  10.683   7.098  11.568  0.2243  0.5044 -0.2862
  837MOL0     C12905  10.250   6.902  10.780 -0.6689 -0.8806 -0.0435
  837MOL0     C12906  10.122   6.893  10.726  0.1546 -0.2613 -0.1027
  837MOL0     O12907   9.847   6.798  10.783 -0.4076 -0.2004 -0.1628
  837MOL0     C12908   9.610   6.791  10.655 -0.0209  0.0418  0.8103
  837MOL0     C12909   9.488   6.786  10.576  0.3500 -0.5918 -0.5809
  837MOL0     N12910   8.818   6.601  10.421 -0.4271  0.1792  0.0557
  837MOL0     N12911   8.726   6.518  10.453  0.2599 -0.6898  0.8151
  837MOL0     C12912   7.684   6.256  10.817 -0.0311  0.3673 -0.0492
  837MOL0     C12913   7.596   6.157  10.843  0.1566  0.0304 -0.0198
  837MOL0     C12914   7.231   5.903  10.792  0.6745 -0.5424 -0.1056
  837MOL0     C12915   7.107   5.918  10.721  0.1674 -0.1168 -1.3278
  837MOL0     C12916   6.998   5.842  10.758  1.0202 -0.0421 -0.2250
  837MOL0     C12917   7.012   5.738  10.853  0.2120 -0.3856 -0.9765
  837MOL0     O12918   6.922   5.638  10.884 -0.0176 -0.1662  0.2555
  837MOL0     C12919   6.799   5.634  10.809  0.0426 -1.2160  0.0827
  837MOL0     C12920   6.720   5.519  10.878  0.2981  0.8941 -0.0870
  837MOL0     C12921   6.591   5.473  10.804  0.7959 -0.1285 -0.4186
  837MOL0     C12922   6.469   5.459  10.894  0.6011 -0.7441  0.9818
  837MOL0     C12923   6.341   5.460  10.821 -0.3002 -0.1970  0.3464
  837MOL0     C12924   6.234   5.487  10.767  0.0788  0.8053 -0.0772
  837MOL0     C12925   7.136   5.715  10.911  0.5793  0.0974  0.1940
  837MOL0     C12926   7.245   5.810  10.899  0.3777  0.0950  0.3996
  837MOL0     C12927   7.362   5.802  10.997  0.2774 -0.1943 -0.0943
  837MOL0     H12928   7.589   6.013  10.540  0.2099 -0.3802 -0.2004
  837MOL0     H12929   7.747   6.196  10.488  0.7207 -1.8983  0.2047
  837MOL0     H12930   7.895   6.453  10.842  0.0195  0.7388 -1.5986
  837MOL0     H12931   7.978   6.312  10.791 -0.5316  1.3418  3.2793
  837MOL0     H12932   8.109   6.507  10.771  0.0590  3.3921 -0.0128
  837MOL0     H12933   7.996   6.600  10.676  0.8603  0.0074 -3.7357
  837MOL0     H12934   8.015   6.416  10.497 -1.7918  2.1016  0.9208
  837MOL0     H12935   8.163   6.379  10.598 -1.2264 -1.1308  2.8439
  837MOL0     H12936   8.089   6.634  10.456  1.1669  1.2162 -1.4328
  837MOL0     H12937   8.242   6.611  10.558 -1.1739 -0.3594  2.6332
  837MOL0     H12938   8.172   6.433  10.306 -1.8296  2.7764 -2.2947
  837MOL0     H12939   8.249   6.590  10.296  1.7915  0.8277  0.2533
  837MOL0     H12940   8.424   6.506  10.471  0.5648 -3.2271  2.1769
  837MOL0     H12941   8.348   6.347  10.459  0.9563  0.1279  2.0063
  837MOL0     H12942   8.463   6.503  10.223  0.6819 -2.0558 -1.6677
  837MOL0     H12943   8.415   6.333  10.214  0.1780 -2.2746  0.6285
  837MOL0     H12944   8.588   6.296  10.411 -2.5868  3.1794  1.3415
  837MOL0     H12945   8.626   6.288  10.245  1.0012 -2.5725  3.0010
  837MOL0     H12946   8.764   6.497  10.126  2.8924  1.0706 -0.9291
  837MOL0     H12947   8.956   6.691  10.101  1.4335  0.6594 -0.6453
  837MOL0     H12948   8.901   6.809  10.224  0.5945 -0.2342  1.1488
  837MOL0     H12949   9.088   6.710  10.387  1.4428 -0.5347 -0.2125
  837MOL0     H12950   9.096   6.576  10.288 -1.2598  0.2186  1.3458
  837MOL0     H12951   9.180   6.862  10.249 -0.6962 -0.1659 -1.9157
  837MOL0     H12952   9.189   6.765  10.107  2.3842 -1.0155  0.0881
  837MOL0     H12953   9.409   6.764  10.180 -1.2827 -1.6961 -3.4268
  837MOL0     H12954   9.340   6.610  10.227  0.0385  0.6932  2.4018
  837MOL0     H12955   9.623   6.703  10.268  1.7099  2.9089 -0.2042
  837MOL0     H12956   9.823   6.712  10.396 -0.2155 -1.1831  1.0757
  837MOL0     H12957  10.159   6.650  10.493  0.7531 -0.5164 -0.8723
  837MOL0     H12958  10.411   6.695  10.572  1.1648  3.1196  0.4073
  837MOL0     H12959  10.438   6.792  10.975  0.0268 -3.0041  0.2338
  837MOL0     H12960  10.520   6.668  10.878  2.4521 -0.4046  1.0715
  837MOL0     H12961  10.668   6.753  11.041 -0.5087 -0.6475 -0.4955
  837MOL0     H12962  10.720   6.772  10.869 -0.7750 -0.9672 -0.1690
  837MOL0     H12963  10.740   7.001  10.882  1.0503 -0.1868  1.2400
  837MOL0     H12964  10.596   7.020  10.961  0.4609  0.8017  0.8270
  837MOL0     H12965  10.863   6.947  11.084  0.3493  1.2239  0.7957
  837MOL0     H12966  10.702   6.958  11.172 -3.6092  0.4428 -1.4363
  837MOL0     H12967  10.705   7.211  11.137  0.3527  0.7976  1.0522
  837MOL0     H12968  10.848   7.200  11.034 -2.0217  0.1122 -0.7509
  837MOL0     H12969  10.992   7.111  11.201 -0.4655 -0.6052 -3.9270
  837MOL0     H12970  10.922   7.269  11.247  1.0326  0.0583 -1.4947
  837MOL0     H12971  10.924   7.141  11.440  1.7590 -1.2954 -0.5638
  837MOL0     H12972  10.851   7.000  11.362 -1.7893  0.6406 -3.0108
  837MOL0     H12973  10.704   7.270  11.411  0.5783 -0.5256 -1.1670
  837MOL0     H12974  10.646   7.124  11.335  0.4634  1.6558 -1.1282
  837MOL0     H12975  10.264   6.967  10.865 -1.9933  0.2696 -0.6495
  837MOL0     H12976  10.050   6.959  10.773 -0.2186  1.4899 -2.9352
  837MOL0     H12977   9.600   6.830  10.756 -0.8248  2.0900 -0.0172
  837MOL0     H12978   9.399   6.803  10.635  0.0432 -3.4073 -0.0948
  837MOL0     H12979   7.713   6.322  10.899 -2.1968 -0.9007  1.8792
  837MOL0     H12980   7.560   6.145  10.945  0.0504 -0.4350 -0.1120
  837MOL0     H12981   7.080   5.986  10.641 -1.5635 -0.3861 -1.0116
  837MOL0     H12982   6.908   5.854  10.698  0.6398 -3.7821 -0.6269
  837MOL0     H12983   6.819   5.612  10.704  1.9277 -2.5730  0.6761
  837MOL0     H12984   6.748   5.731  10.809  2.0206 -0.1377  0.5848
  837MOL0     H12985   6.695   5.556  10.978 -0.7998  0.5507 -0.2219
  837MOL0     H12986   6.798   5.443  10.883 -1.5843 -1.0819  0.5322
  837MOL0     H12987   6.609   5.377  10.755 -0.4994 -2.4301  3.1903
  837MOL0     H12988   6.568   5.549  10.729 -0.3484 -0.0893 -0.0541
  837MOL0     H12989   6.480   5.364  10.946  0.3733 -1.0927  0.4069
  837MOL0     H12990   6.449   5.539  10.966 -1.3812 -1.3083  1.1313
  837MOL0     H12991   6.132   5.502  10.736 -0.8218  1.2104  2.7586
  837MOL0     H12992   7.140   5.625  10.972  1.7340  1.5592  2.4305
  837MOL0     H12993   7.454   5.773  10.946 -0.0781 -1.5764  0.0120
  837MOL0     H12994   7.371   5.902  11.041 -2.9957  0.1228  0.0786
  837MOL0     H12995   7.335   5.730  11.076  0.7015 -0.4060 -0.1362
  838MOL0     O12996   0.440   6.682   3.349 -1.2714  1.3392  0.0497
  838MOL0     C12997   0.418   6.690   3.469 -0.0854  0.0675  0.5632
  838MOL0     O12998   0.517   6.713   3.563  0.3936 -0.3960 -0.9830
  838MOL0     C12999   0.614   6.802   3.531 -0.4054  0.2987 -0.2771
  838MOL0     C13000   0.592   6.942   3.540 -0.0948  0.5599  0.2051
  838MOL0     C13001   0.694   7.035   3.499 -0.1121 -0.3599 -0.1862
  838MOL0     C13002   0.824   6.977   3.463  0.1882  0.3033  0.2974
  838MOL0     O13003   0.921   7.060   3.427  0.1497  0.0188  0.4291
  838MOL0     C13004   1.052   7.027   3.459  0.2553 -0.1128  0.0887
  838MOL0     C13005   1.145   7.153   3.453  0.2603  0.1070  0.7414
  838MOL0     C13006   1.127   7.239   3.578 -0.1522 -0.3690  0.9078
  838MOL0     C13007   1.221   7.358   3.570 -0.4062  0.5423  0.5051
  838MOL0     C13008   1.187   7.473   3.675 -0.8838  0.3404 -0.2716
  838MOL0     C13009   1.257   7.611   3.660 -0.7456 -0.5269  0.4461
  838MOL0     C13010   1.154   7.724   3.697 -0.5649 -0.3058 -0.3795
  838MOL0     C13011   1.145   7.736   3.848  0.4791  0.2237 -0.6593
  838MOL0     N13012   1.052   7.836   3.891 -0.1327 -0.2192 -0.4482
  838MOL0     C13013   1.069   7.974   3.903  0.6871 -1.5316  0.0201
  838MOL0     C13014   0.944   8.005   3.952  0.4674 -0.3856 -0.5363
  838MOL0     C13015   0.881   8.139   3.976  0.3831  0.4714 -0.1979
  838MOL0     C13016   0.796   8.170   3.846  0.2832 -0.4140  0.4253
  838MOL0     C13017   0.717   8.305   3.855 -0.0507 -0.3709  0.7855
  838MOL0     C13018   0.799   8.430   3.844  0.1359 -0.4980  0.1793
  838MOL0     O13019   0.901   8.432   3.740  0.7013 -0.0626 -0.2986
  838MOL0     C13020   1.013   8.522   3.743  0.2736 -0.2075 -1.1831
  838MOL0     C13021   1.012   8.652   3.809  0.1929 -0.4357 -0.7117
  838MOL0     C13022   1.134   8.711   3.827  0.3678 -0.2820 -0.2747
  838MOL0     C13023   1.248   8.671   3.755  0.3690 -0.8608 -0.7892
  838MOL0     C13024   1.374   8.752   3.785 -0.2070  0.8142 -0.0866
  838MOL0     O13025   1.380   8.865   3.859 -0.3983  0.0794 -0.4878
  838MOL0     C13026   1.485   8.950   3.860 -0.8029 -0.5355  0.2231
  838MOL0     C13027   1.562   8.989   3.752  0.0748  0.2888 -0.2929
  838MOL0     C13028   1.658   9.087   3.766  0.0328  0.3111 -0.1079
  838MOL0     C13029   1.666   9.161   3.874 -0.0760 -0.0752 -0.0608
  838MOL0     O13030   1.740   9.270   3.889  0.1737 -0.1425  0.2557
  838MOL0     C13031   1.739   9.362   3.776 -0.6672  0.0479 -0.4163
  838MOL0     C13032   1.867   9.341   3.691 -0.0682 -0.0380  0.0367
  838MOL0     C13033   1.983   9.402   3.763 -0.3202  0.6874  0.4232
  838MOL0     C13034   2.118   9.373   3.703 -0.6203 -0.2323  0.4064
  838MOL0     C13035   2.237   9.437   3.781  0.3043 -0.0600 -0.3226
  838MOL0     C13036   2.365   9.399   3.699 -0.1992 -0.3838 -0.2799
  838MOL0     C13037   2.482   9.474   3.763 -0.4253  0.8680  0.2570
  838MOL0     C13038   2.583   9.501   3.653  0.2292 -0.5609 -0.5745
  838MOL0    Cl13039   2.527   9.588   3.510 -0.1911 -0.1441 -0.4254
  838MOL0     C13040   1.600   9.127   3.986  0.5505  0.3686  0.4464
  838MOL0     C13041   1.508   9.025   3.981  0.9307 -0.4906 -0.1289
  838MOL0     O13042   1.476   8.699   3.752 -0.2406 -0.5987  0.3737
  838MOL0     C13043   1.243   8.561   3.678  0.3244 -0.4638 -0.1310
  838MOL0     C13044   1.124   8.480   3.667 -0.6524  0.7345  0.6464
  838MOL0     N13045   0.870   7.894   3.981 -0.4223 -0.6728 -0.2980
  838MOL0     N13046   0.940   7.787   3.947 -0.3875 -0.3322  0.3494
  838MOL0     C13047   0.844   6.837   3.459 -0.1966 -0.1742  0.4811
  838MOL0     C13048   0.739   6.749   3.492  0.2370 -0.1205 -0.1985
  838MOL0     C13049   0.292   6.629   3.517 -0.3071 -0.3022 -0.0996
  838MOL0     C13050   0.306   6.536   3.629 -0.9590  0.2264  0.7129
  838MOL0     C13051   0.200   6.460   3.661  1.1963  0.4909 -0.7568
  838MOL0     C13052   0.070   6.483   3.603  0.4969  0.7048  0.3874
  838MOL0     O13053  -0.032   6.419   3.671 -0.1584 -0.0166  0.3063
  838MOL0     C13054  -0.100   6.333   3.587  1.7510 -0.6899 -0.3378
  838MOL0     C13055  -0.188   6.228   3.660 -0.4551 -0.4004 -0.4926
  838MOL0     C13056  -0.289   6.317   3.743 -0.8999  0.0209  0.7733
  838MOL0     C13057  -0.330   6.293   3.885  0.2147  0.4394 -0.4530
  838MOL0     C13058  -0.381   6.156   3.913  0.1283 -0.2780  0.2880
  838MOL0     C13059  -0.412   6.048   3.955 -0.3602  0.4380  0.0011
  838MOL0     C13060   0.052   6.575   3.498 -0.1182  0.2736  0.3926
  838MOL0     C13061   0.164   6.651   3.452  0.5308  0.2899 -0.2825
  838MOL0     C13062   0.136   6.760   3.341 -0.6618  0.6605 -0.1824
  838MOL0     H13063   0.496   6.983   3.567  0.4654  1.1727  1.3781
  838MOL0     H13064   0.678   7.142   3.485 -0.7387 -0.0674  2.3019
  838MOL0     H13065   1.040   6.984   3.559  1.5421 -1.7352 -0.4038
  838MOL0     H13066   1.100   6.949   3.400  0.2494  0.5861 -0.8664
  838MOL0     H13067   1.129   7.205   3.358  0.9506 -2.9201 -1.1803
  838MOL0     H13068   1.246   7.111   3.462  1.3426  2.4532  0.4565
  838MOL0     H13069   1.155   7.178   3.665  3.2531  0.2299  0.3953
  838MOL0     H13070   1.027   7.282   3.585  0.1106  0.6102 -0.8317
  838MOL0     H13071   1.325   7.330   3.589 -0.6719 -0.7417  0.1493
  838MOL0     H13072   1.213   7.402   3.470  0.9128  0.3956  0.3262
  838MOL0     H13073   1.079   7.491   3.664 -0.9009  0.2236 -0.2961
  838MOL0     H13074   1.203   7.433   3.776 -1.7305 -0.3235 -0.3916
  838MOL0     H13075   1.339   7.622   3.732 -1.2073  2.5442  0.6412
  838MOL0     H13076   1.299   7.614   3.559  0.1155 -0.8800  0.7819
  838MOL0     H13077   1.058   7.724   3.644  0.2032  3.6118 -2.1268
  838MOL0     H13078   1.205   7.815   3.665  0.9643 -2.3053 -4.4290
  838MOL0     H13079   1.105   7.642   3.887 -0.6518 -0.2866 -2.8809
  838MOL0     H13080   1.243   7.765   3.888  0.4681  2.3357 -2.0067
  838MOL0     H13081   1.156   8.039   3.894 -0.2456 -0.3808 -0.9440
  838MOL0     H13082   0.820   8.130   4.065  0.7080 -4.0078 -0.1998
  838MOL0     H13083   0.963   8.210   3.995  0.7636  0.0869 -0.3785
  838MOL0     H13084   0.870   8.180   3.766  2.1142  1.2689  2.2029
  838MOL0     H13085   0.724   8.089   3.835  0.7962 -1.0053  1.2995
  838MOL0     H13086   0.662   8.309   3.950 -0.9008  0.1598  0.2877
  838MOL0     H13087   0.658   8.302   3.763  3.4960 -1.5847 -1.6804
  838MOL0     H13088   0.849   8.449   3.940  1.2310  0.5842 -0.5668
  838MOL0     H13089   0.725   8.508   3.821 -0.2459 -0.2014  2.2516
  838MOL0     H13090   0.923   8.687   3.861  1.4793  1.6469  0.1910
  838MOL0     H13091   1.133   8.802   3.887 -0.6938 -0.1832 -0.4148
  838MOL0     H13092   1.541   8.934   3.660 -3.4838 -2.2225  1.7197
  838MOL0     H13093   1.720   9.115   3.681 -0.5340  2.0576  0.0090
  838MOL0     H13094   1.648   9.362   3.716 -0.0637  0.4456 -1.3685
  838MOL0     H13095   1.746   9.467   3.808  2.2474 -0.6302  1.6095
  838MOL0     H13096   1.888   9.234   3.675 -1.4742 -0.1865 -0.9656
  838MOL0     H13097   1.854   9.386   3.592 -1.0774  1.9160  1.0089
  838MOL0     H13098   1.960   9.508   3.779 -0.7352  0.5861  0.4958
  838MOL0     H13099   1.994   9.349   3.858  0.0210  0.4977  0.2826
  838MOL0     H13100   2.130   9.401   3.599  0.8458 -1.1587  0.3024
  838MOL0     H13101   2.122   9.264   3.711 -1.3996 -0.1733  2.2639
  838MOL0     H13102   2.234   9.388   3.879 -1.5324 -0.9679 -0.7705
  838MOL0     H13103   2.220   9.545   3.791  1.0217  0.2711 -2.3312
  838MOL0     H13104   2.387   9.293   3.706 -0.7515 -0.3970  2.7836
  838MOL0     H13105   2.357   9.432   3.595  1.9072 -1.8332 -0.9626
  838MOL0     H13106   2.523   9.416   3.845 -1.7207  0.4175  0.6082
  838MOL0     H13107   2.456   9.573   3.803  0.2531  0.3924  1.9698
  838MOL0     H13108   2.658   9.564   3.702  3.0205 -3.5759 -0.6181
  838MOL0     H13109   2.640   9.414   3.622  0.0104 -1.0984  0.4935
  838MOL0     H13110   1.611   9.185   4.077  2.5828 -2.9743  2.5225
  838MOL0     H13111   1.455   8.998   4.072 -0.5572 -1.4958 -1.2467
  838MOL0     H13112   1.341   8.535   3.639  1.1409  2.7063 -0.4327
  838MOL0     H13113   1.123   8.387   3.611  1.2970  0.8932  0.2663
  838MOL0     H13114   0.942   6.794   3.444 -0.5731 -1.5624  1.7458
  838MOL0     H13115   0.756   6.643   3.477  0.6992 -0.1173  0.2661
  838MOL0     H13116   0.395   6.534   3.690  1.8246  2.4192 -2.8606
  838MOL0     H13117   0.201   6.388   3.742  1.7893  1.1911 -0.1345
  838MOL0     H13118  -0.036   6.280   3.516 -0.4321 -1.0410 -2.1596
  838MOL0     H13119  -0.169   6.383   3.517  0.4111 -1.5855  0.3072
  838MOL0     H13120  -0.121   6.168   3.722 -0.5816  0.3186  0.3547
  838MOL0     H13121  -0.244   6.161   3.593  0.7723 -1.4374 -0.5045
  838MOL0     H13122  -0.383   6.297   3.690  0.1243 -1.6325 -0.4895
  838MOL0     H13123  -0.271   6.425   3.747 -1.0308  0.1198 -0.7751
  838MOL0     H13124  -0.251   6.322   3.955 -0.8992 -0.0098  1.0340
  838MOL0     H13125  -0.416   6.360   3.897  1.5316  1.8104  2.0311
  838MOL0     H13126  -0.436   5.955   4.001 -2.7151  0.9143 -0.1342
  838MOL0     H13127  -0.047   6.596   3.458 -0.3301  2.7909  2.0248
  838MOL0     H13128   0.034   6.798   3.344 -0.2566  1.8427 -0.7298
  838MOL0     H13129   0.209   6.840   3.347  0.6776 -0.5954  1.0329
  838MOL0     H13130   0.151   6.702   3.249 -3.0070 -2.3546  1.1498
  839MOL0     O13131   9.706   7.932   4.041 -0.2452  0.2238  0.1378
  839MOL0     C13132   9.669   7.819   4.078  0.4151  0.3495  0.2921
  839MOL0     O13133   9.755   7.738   4.151  0.4277  0.7008 -0.5920
  839MOL0     C13134   9.893   7.750   4.124  0.3653 -0.9679  0.0856
  839MOL0     C13135   9.963   7.837   4.207 -0.2273 -0.4661  0.2507
  839MOL0     C13136  10.102   7.845   4.192  0.5846 -0.5209  0.1112
  839MOL0     C13137  10.170   7.785   4.080  0.7146  0.3870 -0.1652
  839MOL0     O13138  10.303   7.779   4.054 -0.2088 -0.2982 -0.8323
  839MOL0     C13139  10.399   7.880   4.083  0.7856  0.4631 -0.6375
  839MOL0     C13140  10.512   7.853   3.973 -0.4724  0.0746 -1.2328
  839MOL0     C13141  10.613   7.976   3.966  0.1665 -0.6870  0.0852
  839MOL0     C13142  10.683   7.990   4.105 -0.6085  0.0873  0.3302
  839MOL0     C13143  10.753   8.136   4.118 -0.1235 -0.2841 -0.3506
  839MOL0     C13144  10.802   8.152   4.267  0.0659 -0.2443 -0.6488
  839MOL0     C13145  10.694   8.170   4.375  0.4430 -0.7431  0.5441
  839MOL0     C13146  10.676   8.306   4.441 -0.7640 -0.0288  0.6951
  839MOL0     N13147  10.595   8.297   4.558 -0.1989 -0.2144  0.5758
  839MOL0     C13148  10.616   8.204   4.661 -0.0067 -0.6715 -0.3946
  839MOL0     C13149  10.525   8.242   4.756  0.3568 -0.5926  0.7906
  839MOL0     C13150  10.518   8.185   4.894  0.3115 -0.2422  0.1633
  839MOL0     C13151  10.627   8.245   4.986  0.2272  0.3994  0.8139
  839MOL0     C13152  10.602   8.198   5.135  1.1861  0.9636  0.8005
  839MOL0     C13153  10.708   8.246   5.229 -0.2875 -0.2689 -0.3522
  839MOL0     O13154  10.840   8.204   5.185 -0.2762 -0.1354  0.0672
  839MOL0     C13155  10.952   8.226   5.258 -0.6913 -0.1408 -0.0741
  839MOL0     C13156  11.075   8.212   5.192  0.2401  0.4063  0.5547
  839MOL0     C13157  11.193   8.218   5.260 -0.3354 -0.4286  0.8864
  839MOL0     C13158  11.203   8.263   5.390 -0.3275 -0.5725 -0.0274
  839MOL0     C13159  11.322   8.279   5.460  0.0780 -0.5735  0.4462
  839MOL0     O13160  11.434   8.239   5.391 -0.0168 -0.2943  0.0821
  839MOL0     C13161  11.551   8.296   5.427 -0.2300  0.6489  0.3651
  839MOL0     C13162  11.571   8.426   5.442 -0.3452 -0.4105 -0.0237
  839MOL0     C13163  11.706   8.468   5.463 -0.0198 -0.3657 -0.4319
  839MOL0     C13164  11.809   8.387   5.482  0.7323  0.7769 -0.5260
  839MOL0     O13165  11.921   8.452   5.516 -0.2465  0.4405  0.3078
  839MOL0     C13166  12.043   8.387   5.540 -0.7920 -0.2522 -0.7674
  839MOL0     C13167  12.155   8.486   5.543 -0.7080 -0.1185 -0.4293
  839MOL0     C13168  12.289   8.422   5.565 -0.2639 -0.6741  0.5543
  839MOL0     C13169  12.385   8.529   5.565 -0.2572  0.0991 -0.5955
  839MOL0     C13170  12.524   8.472   5.613  0.9351 -0.5268 -0.1814
  839MOL0     C13171  12.639   8.570   5.583 -0.1450 -0.0315  0.8138
  839MOL0     C13172  12.773   8.504   5.620 -0.2947  0.2977  0.0034
  839MOL0     C13173  12.877   8.616   5.633 -0.0765  0.3617  0.2950
  839MOL0    Cl13174  12.888   8.726   5.487  0.0847 -0.3687 -0.0529
  839MOL0     C13175  11.785   8.248   5.483 -0.8777 -0.1400  0.3647
  839MOL0     C13176  11.657   8.208   5.450 -0.2335 -0.4017 -1.0840
  839MOL0     O13177  11.322   8.334   5.568  0.5173  0.9476 -0.0875
  839MOL0     C13178  11.079   8.284   5.465  0.4478 -0.0129  0.4370
  839MOL0     C13179  10.958   8.272   5.387 -0.1425 -0.5437  0.1459
  839MOL0     N13180  10.461   8.354   4.715 -0.7884  0.0214 -0.4288
  839MOL0     N13181  10.495   8.391   4.593 -0.8952  0.1657  0.7285
  839MOL0     C13182  10.098   7.702   3.994 -0.1672  1.4027  0.4441
  839MOL0     C13183   9.962   7.698   4.003 -0.4385  0.0515  0.8375
  839MOL0     C13184   9.529   7.784   4.042 -0.4696  0.6894  0.4073
  839MOL0     C13185   9.503   7.650   4.007  0.3545  0.3449  0.3270
  839MOL0     C13186   9.371   7.616   3.975  0.6992 -0.2166  1.1951
  839MOL0     C13187   9.260   7.714   3.961 -0.3740  0.6180 -0.5980
  839MOL0     O13188   9.131   7.669   3.933  1.0468 -0.8758  0.4035
  839MOL0     C13189   9.125   7.549   3.850  0.1289 -0.7117  0.6085
  839MOL0     C13190   8.985   7.527   3.791  0.0091 -0.4393 -0.7208
  839MOL0     C13191   8.873   7.545   3.895 -0.3898 -0.0740  0.6865
  839MOL0     C13192   8.732   7.533   3.840  0.0446 -1.2293  0.2633
  839MOL0     C13193   8.686   7.396   3.834 -0.4749 -0.4813  0.6625
  839MOL0     C13194   8.623   7.291   3.821  0.1411  0.8210 -0.0510
  839MOL0     C13195   9.293   7.840   4.005  0.5959  0.4958 -0.1888
  839MOL0     C13196   9.422   7.874   4.053 -0.6189 -0.2377  0.8468
  839MOL0     C13197   9.443   8.013   4.100  1.4351 -0.5330  0.6170
  839MOL0     H13198   9.914   7.890   4.288  0.0789  0.5800 -0.2266
  839MOL0     H13199  10.163   7.912   4.251 -1.7342  0.0585  2.0520
  839MOL0     H13200  10.359   7.980   4.063 -0.4107 -0.1482 -1.4447
  839MOL0     H13201  10.447   7.863   4.180  0.5610 -2.5469 -0.9412
  839MOL0     H13202  10.458   7.832   3.881 -1.3831 -2.4840 -0.2000
  839MOL0     H13203  10.569   7.766   4.005 -0.8934  0.5847  1.1807
  839MOL0     H13204  10.559   8.069   3.944 -1.6579 -1.0042  2.7661
  839MOL0     H13205  10.682   7.965   3.882  0.5691  0.4409  0.2477
  839MOL0     H13206  10.603   7.983   4.179 -1.8552 -0.1974 -1.0044
  839MOL0     H13207  10.759   7.917   4.134 -0.1554  0.8441  1.0816
  839MOL0     H13208  10.835   8.128   4.046  1.2041  2.5522  0.6855
  839MOL0     H13209  10.676   8.210   4.095 -1.2145 -1.5101 -0.7476
  839MOL0     H13210  10.860   8.061   4.287  0.3477  0.1670  0.4906
  839MOL0     H13211  10.869   8.237   4.273 -0.5082  0.3345 -2.0315
  839MOL0     H13212  10.705   8.102   4.460 -2.4655  2.8908  4.2165
  839MOL0     H13213  10.600   8.143   4.328  1.1006  0.2540 -1.4611
  839MOL0     H13214  10.776   8.348   4.456 -0.5762  0.2355 -1.0652
  839MOL0     H13215  10.629   8.370   4.366 -1.0378 -1.2440 -0.1811
  839MOL0     H13216  10.696   8.131   4.663  1.4917  0.8499  3.1574
  839MOL0     H13217  10.420   8.219   4.929 -0.1972 -0.1104 -1.3182
  839MOL0     H13218  10.528   8.076   4.895  1.9327 -0.2277 -2.6524
  839MOL0     H13219  10.725   8.215   4.947 -0.5448 -1.3068  0.1033
  839MOL0     H13220  10.619   8.354   4.986  0.4849  0.4481 -1.3882
  839MOL0     H13221  10.598   8.088   5.128  1.8771  1.0300 -1.4033
  839MOL0     H13222  10.502   8.233   5.160  0.7520  2.0528 -2.0464
  839MOL0     H13223  10.690   8.224   5.334  0.4092  3.0464  0.5741
  839MOL0     H13224  10.707   8.355   5.228  2.0837 -0.1538  1.5281
  839MOL0     H13225  11.067   8.187   5.087  0.2169  2.4395  0.0177
  839MOL0     H13226  11.281   8.188   5.204  1.3775 -0.3335  3.3474
  839MOL0     H13227  11.492   8.501   5.444 -0.7552 -0.8586  1.4538
  839MOL0     H13228  11.720   8.572   5.491 -1.4244 -0.1184 -0.5981
  839MOL0     H13229  12.055   8.338   5.637  2.5558  1.7137 -0.0225
  839MOL0     H13230  12.068   8.318   5.459  3.0292 -0.2195  0.1876
  839MOL0     H13231  12.149   8.533   5.444  0.3617 -1.2730 -1.0611
  839MOL0     H13232  12.129   8.558   5.621 -4.8817 -2.1786  0.3857
  839MOL0     H13233  12.283   8.367   5.660  0.1577 -2.3915 -0.3735
  839MOL0     H13234  12.307   8.352   5.484 -1.2829  0.4299 -0.6661
  839MOL0     H13235  12.358   8.613   5.629  1.7937 -0.5712  1.2731
  839MOL0     H13236  12.389   8.566   5.462 -0.4662  4.1006  0.6668
  839MOL0     H13237  12.549   8.383   5.553  3.4107 -0.1885  0.2383
  839MOL0     H13238  12.516   8.447   5.719  1.0540 -2.2436 -0.5409
  839MOL0     H13239  12.628   8.589   5.476 -2.3750 -0.8305  0.8487
  839MOL0     H13240  12.624   8.656   5.650 -0.5996  0.2708  0.3323
  839MOL0     H13241  12.807   8.423   5.555  1.4757  1.3328 -0.4143
  839MOL0     H13242  12.764   8.454   5.717 -0.1209 -0.7218 -0.4948
  839MOL0     H13243  12.850   8.674   5.722  0.8118  0.8858  0.2400
  839MOL0     H13244  12.975   8.568   5.644  0.1116  1.1438  2.4249
  839MOL0     H13245  11.869   8.185   5.513  0.5276  2.0107  1.1665
  839MOL0     H13246  11.632   8.102   5.446 -0.2970 -0.3892 -1.0020
  839MOL0     H13247  11.071   8.314   5.569 -1.5381 -0.1267  0.3463
  839MOL0     H13248  10.868   8.301   5.441 -1.0555 -1.7072 -0.6960
  839MOL0     H13249  10.157   7.667   3.910  1.5208  1.6830  1.4734
  839MOL0     H13250   9.905   7.634   3.936 -0.7966  1.0072  0.2086
  839MOL0     H13251   9.586   7.580   4.005  0.6979  0.6918 -2.4751
  839MOL0     H13252   9.349   7.510   3.968 -0.2555 -0.0266  1.0939
  839MOL0     H13253   9.148   7.463   3.913  2.2670 -1.0855 -0.5842
  839MOL0     H13254   9.201   7.547   3.772 -0.6817 -1.9483 -0.1778
  839MOL0     H13255   8.976   7.424   3.754 -0.5688 -0.5995 -0.1692
  839MOL0     H13256   8.971   7.597   3.708 -1.8813  1.1732  0.8431
  839MOL0     H13257   8.874   7.645   3.939 -0.4789  0.3574 -0.2600
  839MOL0     H13258   8.893   7.476   3.977 -1.0347 -2.3836 -0.9840
  839MOL0     H13259   8.660   7.585   3.904  0.0281  1.0970 -1.5092
  839MOL0     H13260   8.720   7.571   3.738 -2.5687 -1.7599  0.2987
  839MOL0     H13261   8.570   7.198   3.811 -0.9659  1.4428 -0.1625
  839MOL0     H13262   9.217   7.917   4.003  1.0612  0.9927  0.5749
  839MOL0     H13263   9.354   8.067   4.132  1.1004 -1.3214  1.0379
  839MOL0     H13264   9.505   8.005   4.190  0.6693  1.3514  1.3452
  839MOL0     H13265   9.486   8.069   4.016 -0.6282  0.5694  0.2357
  840MOL0     O13266   2.373   3.010   3.161  0.1314 -0.7833  0.0525
  840MOL0     C13267   2.285   2.994   3.080  0.1257  0.0023  0.4099
  840MOL0     O13268   2.298   3.002   2.943  0.2046  0.5739 -0.2207
  840MOL0     C13269   2.426   2.999   2.905  0.1363 -0.6561 -0.7757
  840MOL0     C13270   2.502   3.116   2.895 -0.9903  0.7206  0.8280
  840MOL0     C13271   2.627   3.107   2.833  0.0368 -0.6364  0.4849
  840MOL0     C13272   2.669   2.992   2.765 -0.5781  0.3109 -0.4501
  840MOL0     O13273   2.789   2.984   2.697  0.2789 -0.2043  0.5733
  840MOL0     C13274   2.806   2.895   2.584  0.1510  0.0051  0.3029
  840MOL0     C13275   2.917   2.947   2.491  0.7654  0.6147 -0.4127
  840MOL0     C13276   3.014   3.046   2.546 -0.2566  1.0696  0.1471
  840MOL0     C13277   3.143   3.045   2.468  0.4594  0.0598 -0.2809
  840MOL0     C13278   3.239   3.143   2.537  0.5240 -0.3600 -0.3738
  840MOL0     C13279   3.322   3.089   2.655  0.2475  0.2096  0.1973
  840MOL0     C13280   3.406   2.961   2.627  0.9120  0.2932  0.3499
  840MOL0     C13281   3.485   2.912   2.754 -0.5344 -0.0083  0.2788
  840MOL0     N13282   3.534   2.771   2.733  0.4825 -0.1386  0.1595
  840MOL0     C13283   3.504   2.676   2.627 -0.8108 -0.7558  0.3287
  840MOL0     C13284   3.595   2.577   2.654 -1.6812 -0.2577  1.0097
  840MOL0     C13285   3.609   2.461   2.569 -0.1841  0.3724  0.2533
  840MOL0     C13286   3.746   2.441   2.514  0.4036 -0.0493  0.0809
  840MOL0     C13287   3.787   2.541   2.406 -0.3282 -0.0804 -0.4608
  840MOL0     C13288   3.930   2.542   2.379  0.0084  0.5823 -0.0726
  840MOL0     O13289   3.962   2.641   2.275 -0.9396 -0.2184  0.2671
  840MOL0     C13290   4.081   2.621   2.210 -0.3231 -0.2923 -0.4142
  840MOL0     C13291   4.099   2.712   2.103 -0.8345  0.1403 -0.6500
  840MOL0     C13292   4.215   2.706   2.020  0.5367 -0.2195 -0.4375
  840MOL0     C13293   4.323   2.616   2.052  0.2414 -0.0747  0.3943
  840MOL0     C13294   4.460   2.616   1.989  0.0112 -0.0670  0.3045
  840MOL0     O13295   4.544   2.515   2.036  0.0558  0.0118  0.3768
  840MOL0     C13296   4.665   2.495   1.977 -0.0129  0.9866  0.6976
  840MOL0     C13297   4.676   2.415   1.863 -0.7827 -0.6432  0.5127
  840MOL0     C13298   4.801   2.367   1.816 -0.2574 -0.4668  0.3598
  840MOL0     C13299   4.925   2.407   1.880  0.9133  0.0966  0.2458
  840MOL0     O13300   5.036   2.358   1.831  0.2179 -0.0382 -0.5360
  840MOL0     C13301   5.140   2.378   1.918 -0.8882  0.0955 -0.4636
  840MOL0     C13302   5.274   2.342   1.858  0.0119  0.1848  0.1417
  840MOL0     C13303   5.314   2.456   1.765  0.5688 -0.3358 -0.2888
  840MOL0     C13304   5.462   2.457   1.731 -0.0503 -0.6147 -0.2486
  840MOL0     C13305   5.554   2.504   1.848  0.0644  1.0712  0.3688
  840MOL0     C13306   5.705   2.498   1.812  0.1587 -0.8754  0.8226
  840MOL0     C13307   5.753   2.354   1.801 -0.8817 -0.2232 -0.3676
  840MOL0     C13308   5.903   2.332   1.791 -0.0160  0.4885 -0.6038
  840MOL0    Cl13309   5.966   2.320   1.627 -0.1076  0.2867  0.2198
  840MOL0     C13310   4.906   2.507   1.982 -0.2286 -0.6958 -0.6041
  840MOL0     C13311   4.779   2.547   2.033  0.3060 -0.0478  0.0402
  840MOL0     O13312   4.488   2.695   1.897 -0.4887 -0.4394 -0.6132
  840MOL0     C13313   4.302   2.529   2.158  0.4187  0.4509 -1.0251
  840MOL0     C13314   4.186   2.532   2.233 -0.1786 -0.1251 -0.7615
  840MOL0     N13315   3.680   2.614   2.762 -0.1069  0.5488  0.5095
  840MOL0     N13316   3.637   2.728   2.805  0.2416  0.1163  0.1081
  840MOL0     C13317   2.582   2.882   2.773  0.0461 -0.6348  0.1942
  840MOL0     C13318   2.461   2.880   2.840 -0.1088 -0.6677  0.5845
  840MOL0     C13319   2.150   2.960   3.131  0.9056 -1.2189 -0.0511
  840MOL0     C13320   2.082   2.847   3.088 -0.2202 -0.2060  0.5447
  840MOL0     C13321   1.954   2.800   3.132  0.0291 -0.7453  0.0074
  840MOL0     C13322   1.891   2.873   3.240 -0.9527 -0.5434  0.6399
  840MOL0     O13323   1.765   2.851   3.288 -0.2035  0.3508 -0.5059
  840MOL0     C13324   1.698   2.736   3.244 -0.9230  1.2245 -0.1625
  840MOL0     C13325   1.567   2.698   3.314  0.4276 -0.4358  0.4881
  840MOL0     C13326   1.570   2.718   3.468  0.1094  0.5331  0.3210
  840MOL0     C13327   1.438   2.720   3.548 -0.0051 -1.0206 -0.0938
  840MOL0     C13328   1.348   2.837   3.516  0.2487  0.0232  0.0326
  840MOL0     C13329   1.272   2.927   3.477  0.0836  0.9225 -0.0279
  840MOL0     C13330   1.971   2.978   3.301  0.5404  1.1373 -0.7146
  840MOL0     C13331   2.094   3.020   3.244 -0.1630  0.1703 -0.4305
  840MOL0     C13332   2.135   3.140   3.311 -0.2913  0.3459 -0.3918
  840MOL0     H13333   2.467   3.211   2.934 -0.4899  1.1797  0.1896
  840MOL0     H13334   2.695   3.192   2.834  0.0507 -0.6174 -0.7554
  840MOL0     H13335   2.830   2.798   2.630 -1.4495  0.6816  2.7849
  840MOL0     H13336   2.713   2.889   2.528  1.9519 -1.0397 -2.8152
  840MOL0     H13337   2.871   2.998   2.406  1.6028 -1.0011 -1.9058
  840MOL0     H13338   2.972   2.861   2.452  1.7318  0.8817  0.3306
  840MOL0     H13339   3.045   3.020   2.648  1.7296  0.7303 -0.4965
  840MOL0     H13340   2.970   3.145   2.560  0.1815  1.5591 -1.7558
  840MOL0     H13341   3.174   2.941   2.456 -1.5596 -0.3932 -2.1042
  840MOL0     H13342   3.121   3.074   2.365 -0.8246  0.2923  0.0468
  840MOL0     H13343   3.303   3.177   2.455  1.8281 -1.0324  0.3280
  840MOL0     H13344   3.168   3.221   2.565 -0.0724  0.1021 -2.9201
  840MOL0     H13345   3.392   3.164   2.692 -0.0649 -0.0632  1.3833
  840MOL0     H13346   3.257   3.064   2.739 -1.1505 -0.9808 -1.1631
  840MOL0     H13347   3.475   2.971   2.543  1.3912 -3.3004  0.1472
  840MOL0     H13348   3.341   2.880   2.591  2.3480 -0.8499  0.2246
  840MOL0     H13349   3.573   2.972   2.781 -0.2914 -0.7678  1.2297
  840MOL0     H13350   3.416   2.910   2.839  0.0034 -1.8293  0.7209
  840MOL0     H13351   3.428   2.683   2.551 -1.3095  0.2151  0.8961
  840MOL0     H13352   3.585   2.367   2.619  1.0750 -0.9734 -1.5494
  840MOL0     H13353   3.533   2.466   2.491  1.6430 -1.0488 -1.7695
  840MOL0     H13354   3.823   2.444   2.591 -1.6536  1.7292  2.2328
  840MOL0     H13355   3.752   2.343   2.466  1.8004  0.0972 -0.0821
  840MOL0     H13356   3.758   2.643   2.432  3.3903  1.5976 -2.2757
  840MOL0     H13357   3.735   2.509   2.315 -2.0415  1.0342  0.0671
  840MOL0     H13358   3.952   2.440   2.344 -2.5148  0.1104 -0.5239
  840MOL0     H13359   3.990   2.562   2.468 -1.2276 -1.4773  1.3269
  840MOL0     H13360   4.023   2.789   2.091  0.2438  1.4871  0.7258
  840MOL0     H13361   4.228   2.779   1.941  0.4671  1.6464  1.1870
  840MOL0     H13362   4.589   2.367   1.820  1.2998 -3.6538 -0.7535
  840MOL0     H13363   4.819   2.299   1.734 -0.0899 -0.6611  0.5561
  840MOL0     H13364   5.139   2.481   1.955 -3.6268 -0.3344  0.8581
  840MOL0     H13365   5.107   2.314   2.000 -0.8516  1.4142  0.6159
  840MOL0     H13366   5.348   2.336   1.939  2.7083  2.0497 -1.9684
  840MOL0     H13367   5.282   2.244   1.810  1.7823 -0.1764  1.0614
  840MOL0     H13368   5.250   2.444   1.677 -0.3534  0.4304  0.2553
  840MOL0     H13369   5.280   2.547   1.815  1.1161 -0.7985  0.9663
  840MOL0     H13370   5.488   2.528   1.652  1.0546  2.7602  2.8603
  840MOL0     H13371   5.488   2.357   1.696  1.6738 -0.2150 -0.1566
  840MOL0     H13372   5.537   2.449   1.941  1.9187 -1.1186 -0.4674
  840MOL0     H13373   5.517   2.602   1.878 -2.7525 -0.0895  0.9544
  840MOL0     H13374   5.733   2.559   1.725  0.5877 -2.2221 -0.0076
  840MOL0     H13375   5.752   2.545   1.899  1.2201  0.7145 -0.5464
  840MOL0     H13376   5.704   2.298   1.721  1.3022 -1.6916 -0.7604
  840MOL0     H13377   5.732   2.297   1.892  0.7882  0.9354  0.7950
  840MOL0     H13378   5.951   2.414   1.844  1.6853 -0.3181 -0.8397
  840MOL0     H13379   5.938   2.244   1.847  1.6425  0.6564 -1.3216
  840MOL0     H13380   4.979   2.573   2.028 -3.8474  3.9612 -0.8009
  840MOL0     H13381   4.773   2.623   2.109  2.0435 -2.2848  2.6055
  840MOL0     H13382   4.378   2.453   2.172  1.0468  1.0195 -1.3181
  840MOL0     H13383   4.183   2.466   2.319 -0.6072  1.7499  0.7145
  840MOL0     H13384   2.605   2.798   2.708 -1.3773  0.0712 -1.3039
  840MOL0     H13385   2.400   2.790   2.845  0.0280 -0.6956  3.0534
  840MOL0     H13386   2.126   2.791   3.007  1.5833 -0.6629  1.7709
  840MOL0     H13387   1.910   2.718   3.076  0.7722 -1.7722  0.8858
  840MOL0     H13388   1.761   2.647   3.257 -2.0848  0.4253  0.1853
  840MOL0     H13389   1.693   2.736   3.135  2.4682 -0.0096 -0.4341
  840MOL0     H13390   1.549   2.592   3.293  3.9392 -0.9393 -0.5346
  840MOL0     H13391   1.488   2.765   3.277  1.2395  0.8480  0.9902
  840MOL0     H13392   1.632   2.803   3.499  0.7941 -1.2359  4.4399
  840MOL0     H13393   1.621   2.633   3.514  3.7500  3.5467  2.4305
  840MOL0     H13394   1.385   2.628   3.524 -0.0361 -1.4995  1.6181
  840MOL0     H13395   1.472   2.725   3.652  1.4796  2.2236 -0.5955
  840MOL0     H13396   1.192   2.993   3.453 -1.2575 -0.5511  0.2394
  840MOL0     H13397   1.923   3.032   3.382  1.0325  2.0519 -1.0175
  840MOL0     H13398   2.104   3.146   3.416  0.4887  0.1126 -0.1376
  840MOL0     H13399   2.245   3.138   3.307 -0.2925 -0.6895 -0.2124
  840MOL0     H13400   2.106   3.232   3.260  2.9490  0.7660 -1.7132
  841MOL0     O13401   2.689   0.277  11.219 -0.3533 -0.7714 -0.5596
  841MOL0     C13402   2.722   0.195  11.136  0.3459 -0.0994 -0.8422
  841MOL0     O13403   2.840   0.192  11.067  0.0192 -0.4059  0.1153
  841MOL0     C13404   2.919   0.303  11.046  0.1169  0.2589 -0.4078
  841MOL0     C13405   3.049   0.277  11.004 -0.3156 -0.2130 -0.3227
  841MOL0     C13406   3.147   0.377  10.992  1.3890  0.9372 -0.2205
  841MOL0     C13407   3.115   0.508  11.021 -0.0268 -0.0921  0.2109
  841MOL0     O13408   3.220   0.593  11.034 -0.5945 -0.1208 -0.3459
  841MOL0     C13409   3.203   0.714  11.109  0.1674 -0.2248 -0.2366
  841MOL0     C13410   3.343   0.763  11.134 -0.9059  0.6679  0.3832
  841MOL0     C13411   3.368   0.867  11.242  0.4543 -0.3373 -0.2359
  841MOL0     C13412   3.515   0.904  11.232  0.7779  0.4979 -0.0416
  841MOL0     C13413   3.560   1.019  11.329  0.5751  0.4810 -0.0519
  841MOL0     C13414   3.643   0.945  11.432 -0.2735  1.0832 -0.7954
  841MOL0     C13415   3.675   1.029  11.554  0.0790 -0.2540  0.7735
  841MOL0     C13416   3.588   1.032  11.678  0.2909  0.0625  0.7446
  841MOL0     N13417   3.620   1.142  11.772 -0.5022 -0.1006 -0.9169
  841MOL0     C13418   3.672   1.129  11.900  0.8950  0.5485 -0.2464
  841MOL0     C13419   3.658   1.251  11.943  0.1562  0.0394 -0.7775
  841MOL0     C13420   3.694   1.291  12.089 -0.2398 -0.7926 -0.6380
  841MOL0     C13421   3.763   1.428  12.098  0.0218  0.2130 -1.2624
  841MOL0     C13422   3.904   1.414  12.038 -0.6499  0.0146  0.0370
  841MOL0     C13423   3.965   1.555  12.015 -0.0285 -0.0985 -0.2501
  841MOL0     O13424   4.105   1.538  11.953 -0.3747 -0.1519  0.4426
  841MOL0     C13425   4.204   1.627  11.940 -0.1225 -0.9203 -0.6934
  841MOL0     C13426   4.183   1.767  11.954  0.3526 -0.1464  0.0999
  841MOL0     C13427   4.276   1.860  11.933 -0.5733  0.3721 -0.5838
  841MOL0     C13428   4.406   1.818  11.884 -0.0358 -0.2224 -0.3625
  841MOL0     C13429   4.513   1.914  11.849 -0.6171 -0.0534  0.3385
  841MOL0     O13430   4.621   1.872  11.775  0.4029  0.0534  0.6764
  841MOL0     C13431   4.716   1.968  11.740  0.7344  0.1629 -0.4425
  841MOL0     C13432   4.690   2.091  11.695 -0.3396 -0.5021  0.6870
  841MOL0     C13433   4.792   2.179  11.663 -0.5941 -0.2270  1.2294
  841MOL0     C13434   4.925   2.144  11.685 -0.6608  0.2258 -0.5293
  841MOL0     O13435   5.032   2.214  11.660 -0.4686 -0.7123  0.8336
  841MOL0     C13436   5.068   2.232  11.522 -0.0194  0.2380  0.7920
  841MOL0     C13437   5.217   2.250  11.491  0.0155 -0.6429 -0.3558
  841MOL0     C13438   5.283   2.115  11.528 -0.1047 -0.0913 -0.5882
  841MOL0     C13439   5.423   2.110  11.483  0.0930  0.5017  0.6967
  841MOL0     C13440   5.515   2.192  11.579  0.0193  0.6392  0.7201
  841MOL0     C13441   5.653   2.217  11.523  0.0520  0.2751  0.8174
  841MOL0     C13442   5.722   2.091  11.474 -1.0775  0.7409  0.9037
  841MOL0     C13443   5.873   2.129  11.449  0.0354  0.8044 -0.0675
  841MOL0    Cl13444   5.968   2.087  11.595 -0.2815 -0.4297  0.4671
  841MOL0     C13445   4.955   2.014  11.736  0.3817  0.2436  0.4951
  841MOL0     C13446   4.845   1.929  11.761  0.2372  0.2926  0.3434
  841MOL0     O13447   4.500   2.020  11.909  0.3432 -0.7418 -1.2860
  841MOL0     C13448   4.430   1.685  11.869 -0.2066 -0.5410 -0.1329
  841MOL0     C13449   4.325   1.590  11.895 -0.0306  0.1798 -0.3491
  841MOL0     N13450   3.617   1.343  11.846 -0.2021 -0.2091 -0.0119
  841MOL0     N13451   3.590   1.271  11.735 -0.1726  0.1767 -0.4152
  841MOL0     C13452   2.981   0.546  11.045  0.0015 -0.1026  0.7386
  841MOL0     C13453   2.883   0.446  11.058  0.6272 -0.0211  0.5091
  841MOL0     C13454   2.644   0.067  11.131  0.2698  0.2821  0.6556
  841MOL0     C13455   2.709  -0.058  11.110 -0.3112 -0.4586 -0.0148
  841MOL0     C13456   2.633  -0.170  11.119 -1.5597 -0.1338  0.2603
  841MOL0     C13457   2.504  -0.166  11.164  0.6602  0.0618 -0.2026
  841MOL0     O13458   2.431  -0.285  11.186  0.0968 -0.0033 -0.1427
  841MOL0     C13459   2.303  -0.278  11.257  0.0022  0.3131 -0.1415
  841MOL0     C13460   2.280  -0.415  11.315 -0.2118  0.0155 -0.0772
  841MOL0     C13461   2.286  -0.538  11.222  1.0265  0.1755  0.2309
  841MOL0     C13462   2.171  -0.546  11.120 -0.0029  0.3053  0.6125
  841MOL0     C13463   2.040  -0.504  11.174 -0.0470 -0.0129  0.7983
  841MOL0     C13464   1.926  -0.483  11.209  0.3442 -0.1195 -0.1024
  841MOL0     C13465   2.435  -0.044  11.175  0.7564  1.0462 -0.2458
  841MOL0     C13466   2.499   0.073  11.144  0.7685  0.1644  0.6350
  841MOL0     C13467   2.409   0.192  11.140 -0.6689 -0.6865 -0.6132
  841MOL0     H13468   3.080   0.180  10.967 -0.3125 -0.3507  0.0365
  841MOL0     H13469   3.245   0.355  10.951  0.6490  0.2282 -1.6932
  841MOL0     H13470   3.151   0.795  11.058 -1.7795 -0.8282  0.6867
  841MOL0     H13471   3.149   0.700  11.203  1.5626  1.2438  0.8433
  841MOL0     H13472   3.376   0.793  11.034 -1.3112  0.3966  0.1660
  841MOL0     H13473   3.403   0.677  11.167 -0.7400  1.5730  2.5596
  841MOL0     H13474   3.336   0.829  11.339  0.5638 -1.8645 -0.7682
  841MOL0     H13475   3.308   0.956  11.218 -2.5203 -1.7951  1.2464
  841MOL0     H13476   3.565   0.809  11.250 -1.4383 -0.3670  2.3017
  841MOL0     H13477   3.542   0.923  11.128 -2.3556  0.6324 -0.9405
  841MOL0     H13478   3.619   1.087  11.266  0.3341  0.6164 -0.1342
  841MOL0     H13479   3.476   1.069  11.378  0.7875  0.6953  0.0982
  841MOL0     H13480   3.577   0.866  11.471  0.5028  1.3635  1.1712
  841MOL0     H13481   3.737   0.901  11.399 -1.2944 -2.7845  0.8674
  841MOL0     H13482   3.670   1.132  11.518 -1.9472 -0.7756 -0.6036
  841MOL0     H13483   3.775   1.010  11.596 -0.7240  0.0241  2.9164
  841MOL0     H13484   3.483   1.044  11.647  0.8865 -0.4585 -1.6628
  841MOL0     H13485   3.604   0.929  11.710  3.2034 -0.5677 -2.2067
  841MOL0     H13486   3.706   1.039  11.951 -0.0121 -0.6069 -1.6027
  841MOL0     H13487   3.599   1.315  12.137  1.0957  0.4303  1.5295
  841MOL0     H13488   3.750   1.215  12.144  0.0416 -0.4332 -0.4256
  841MOL0     H13489   3.709   1.512  12.054  0.4528  0.4622 -1.3282
  841MOL0     H13490   3.778   1.461  12.201  2.7472  2.0721 -2.1225
  841MOL0     H13491   3.886   1.364  11.943  0.7834 -0.2544 -0.1094
  841MOL0     H13492   3.975   1.348  12.089  0.4544  0.9467 -0.2593
  841MOL0     H13493   3.982   1.599  12.113 -0.0705  0.7247 -0.6056
  841MOL0     H13494   3.893   1.608  11.953  0.9264  0.3800 -0.9816
  841MOL0     H13495   4.083   1.782  11.993  0.0467 -5.2646  2.0567
  841MOL0     H13496   4.263   1.963  11.966 -1.3366 -0.8949  3.6506
  841MOL0     H13497   4.590   2.129  11.676  0.7505  0.9810 -3.0862
  841MOL0     H13498   4.763   2.273  11.618 -0.1982 -1.1010 -0.9650
  841MOL0     H13499   5.023   2.158  11.456 -0.3509  2.6888 -1.9656
  841MOL0     H13500   5.003   2.313  11.486 -0.0754 -0.1133  0.0705
  841MOL0     H13501   5.225   2.270  11.384 -2.3152 -0.3853 -0.5355
  841MOL0     H13502   5.258   2.334  11.548  0.3655 -1.3152  0.4218
  841MOL0     H13503   5.283   2.098  11.636 -0.8694  3.5874  0.1416
  841MOL0     H13504   5.224   2.039  11.475 -2.3305  0.0318  1.5478
  841MOL0     H13505   5.426   2.153  11.383 -0.7775 -0.0045  0.4343
  841MOL0     H13506   5.452   2.004  11.480  1.4666  0.8591  0.9459
  841MOL0     H13507   5.521   2.149  11.679  0.6466  0.2485  0.5255
  841MOL0     H13508   5.472   2.290  11.596 -2.0261  0.0336 -0.6445
  841MOL0     H13509   5.637   2.278  11.434  1.6405  1.7745  1.4849
  841MOL0     H13510   5.715   2.264  11.601 -1.2559 -1.5448  3.0639
  841MOL0     H13511   5.675   2.070  11.377  1.1741 -0.1924 -0.0450
  841MOL0     H13512   5.716   2.010  11.547 -4.7710 -1.1466 -1.1602
  841MOL0     H13513   5.902   2.082  11.355  4.2403  2.6934  0.0837
  841MOL0     H13514   5.878   2.237  11.435  0.8671  1.1416  2.3290
  841MOL0     H13515   5.056   1.980  11.753  0.5505  0.2569 -0.4309
  841MOL0     H13516   4.867   1.823  11.772 -2.8273 -0.3376  1.2050
  841MOL0     H13517   4.533   1.657  11.851  0.1609  0.6331  0.0683
  841MOL0     H13518   4.336   1.482  11.893 -2.5879 -0.3843  3.6217
  841MOL0     H13519   2.949   0.647  11.072 -2.1467 -0.7776  0.8750
  841MOL0     H13520   2.782   0.482  11.071  0.9636  0.7172  1.1149
  841MOL0     H13521   2.815  -0.060  11.087  0.4615  2.5321  2.5816
  841MOL0     H13522   2.685  -0.264  11.104 -2.1456 -0.1252 -2.2081
  841MOL0     H13523   2.228  -0.244  11.185  0.8498 -0.4875 -1.4469
  841MOL0     H13524   2.296  -0.216  11.347 -0.1083  1.4824 -0.9332
  841MOL0     H13525   2.189  -0.415  11.377 -1.8251  0.6583 -2.2964
  841MOL0     H13526   2.360  -0.441  11.384  0.8547 -0.8794 -1.5913
  841MOL0     H13527   2.272  -0.623  11.289 -2.5398  0.1973 -0.2446
  841MOL0     H13528   2.383  -0.548  11.173 -0.6021 -0.4641 -3.1901
  841MOL0     H13529   2.190  -0.478  11.036  0.5884  0.1348  0.6031
  841MOL0     H13530   2.159  -0.647  11.079 -3.4511  1.4455 -1.6884
  841MOL0     H13531   1.829  -0.448  11.238  0.0702  0.0557 -1.1733
  841MOL0     H13532   2.331  -0.040  11.203  1.0488 -0.2808  1.1666
  841MOL0     H13533   2.314   0.172  11.089 -1.3717  3.5431 -1.3848
  841MOL0     H13534   2.381   0.216  11.243 -1.9878 -5.0161  0.2318
  841MOL0     H13535   2.464   0.282  11.111  4.7746 -2.8839  1.5361
  842MOL0     O13536   0.828   7.578   1.597  0.3864 -0.0072  0.4011
  842MOL0     C13537   0.779   7.649   1.506  0.4930  0.0881 -0.0835
  842MOL0     O13538   0.844   7.696   1.397 -0.0553  0.4271  0.4470
  842MOL0     C13539   0.975   7.651   1.372  0.3449 -0.3762 -1.2827
  842MOL0     C13540   1.003   7.514   1.365 -0.2256  0.0923 -0.6220
  842MOL0     C13541   1.135   7.479   1.342 -0.4380  0.0695 -0.8945
  842MOL0     C13542   1.239   7.563   1.336  0.2171  0.3148 -0.5004
  842MOL0     O13543   1.363   7.505   1.327  0.1129  0.8573 -0.1192
  842MOL0     C13544   1.476   7.590   1.272  0.6770 -0.2702  0.0635
  842MOL0     C13545   1.616   7.524   1.290  0.0571  0.1639 -0.9963
  842MOL0     C13546   1.645   7.486   1.433  0.2282  0.1005 -0.2426
  842MOL0     C13547   1.775   7.398   1.433  0.0331  0.0284 -0.3089
  842MOL0     C13548   1.813   7.373   1.583  0.2172  0.0319 -0.9136
  842MOL0     C13549   1.910   7.253   1.585 -0.0728 -0.0745 -0.0232
  842MOL0     C13550   1.958   7.222   1.733  0.4455  0.5534  0.2872
  842MOL0     C13551   2.056   7.319   1.782 -0.4679  0.6225 -0.4894
  842MOL0     N13552   2.101   7.286   1.920  0.7021 -0.2615 -0.3691
  842MOL0     C13553   2.121   7.381   2.019 -0.0351  0.1537 -0.3407
  842MOL0     C13554   2.152   7.320   2.133 -1.2016  0.0613  0.9259
  842MOL0     C13555   2.198   7.402   2.252  0.4482  0.8152  0.4950
  842MOL0     C13556   2.353   7.406   2.253 -0.8923  0.5528  0.6264
  842MOL0     C13557   2.441   7.304   2.183  0.3934 -0.7995  0.5352
  842MOL0     C13558   2.589   7.361   2.170  0.3269  0.2066  0.2088
  842MOL0     O13559   2.654   7.376   2.292  0.5085  0.3669 -0.3619
  842MOL0     C13560   2.788   7.351   2.301  0.7345 -0.1963  0.5754
  842MOL0     C13561   2.832   7.328   2.429 -0.2888  0.4095 -0.9494
  842MOL0     C13562   2.960   7.321   2.461  0.0130  0.3568 -0.0828
  842MOL0     C13563   3.057   7.305   2.357 -0.0880 -0.2760 -0.7117
  842MOL0     C13564   3.195   7.275   2.393  0.3418 -0.2370  0.2319
  842MOL0     O13565   3.286   7.279   2.292 -0.1654  0.5166  0.1104
  842MOL0     C13566   3.424   7.249   2.301  0.7520 -0.4917 -0.2990
  842MOL0     C13567   3.504   7.282   2.191 -0.1349  0.1105 -0.8189
  842MOL0     C13568   3.641   7.239   2.193 -0.4047 -1.0049  0.0429
  842MOL0     C13569   3.700   7.175   2.297  0.7205  0.3945 -0.5719
  842MOL0     O13570   3.832   7.137   2.323 -0.0736  0.2406  0.2372
  842MOL0     C13571   3.927   7.191   2.235  0.3294  0.5397 -0.5389
  842MOL0     C13572   3.963   7.107   2.109 -0.1999  0.5247 -0.4380
  842MOL0     C13573   3.991   6.959   2.144 -0.1698 -0.6737  0.2041
  842MOL0     C13574   4.067   6.876   2.030 -0.5291 -0.2411 -0.0735
  842MOL0     C13575   3.968   6.824   1.924 -0.3597  0.1911  0.3591
  842MOL0     C13576   3.877   6.709   1.977 -0.3354  0.5598 -0.0334
  842MOL0     C13577   3.753   6.689   1.886  0.5747  0.2384  0.2747
  842MOL0     C13578   3.642   6.614   1.951  0.7765 -0.6006  0.2768
  842MOL0    Cl13579   3.712   6.462   2.002  0.0915  0.2735 -0.5744
  842MOL0     C13580   3.618   7.131   2.402  0.5742 -0.1425  0.4114
  842MOL0     C13581   3.479   7.169   2.409 -0.7585 -0.9334  0.3356
  842MOL0     O13582   3.219   7.250   2.511 -0.4590 -0.3985 -0.1975
  842MOL0     C13583   3.014   7.307   2.230  0.0377  0.1083 -0.3585
  842MOL0     C13584   2.881   7.338   2.202 -0.7589 -0.6750  0.8900
  842MOL0     N13585   2.149   7.187   2.109  0.1178  0.4022 -0.1598
  842MOL0     N13586   2.111   7.165   1.986 -0.0222  0.3878 -0.0366
  842MOL0     C13587   1.207   7.704   1.332  1.0258 -0.1798 -0.1271
  842MOL0     C13588   1.074   7.749   1.355  0.4523  0.0786 -0.2085
  842MOL0     C13589   0.643   7.709   1.520  0.5835  0.5356 -0.1092
  842MOL0     C13590   0.578   7.764   1.404  0.6066  1.0703 -0.4810
  842MOL0     C13591   0.446   7.814   1.402 -0.0211 -0.1279 -0.0193
  842MOL0     C13592   0.369   7.819   1.519 -0.6267  0.1455  0.3114
  842MOL0     O13593   0.235   7.861   1.518 -0.0516 -0.1693 -1.2236
  842MOL0     C13594   0.178   7.963   1.448  0.6021 -0.8790  0.1290
  842MOL0     C13595   0.027   7.975   1.467 -0.1697 -0.0693  0.3797
  842MOL0     C13596  -0.038   8.021   1.342 -0.1962 -0.3922 -0.7926
  842MOL0     C13597  -0.168   8.111   1.361 -0.6298  0.0852 -0.3524
  842MOL0     C13598  -0.198   8.189   1.245 -0.8822 -0.2393  0.4733
  842MOL0     C13599  -0.223   8.253   1.139  0.7716  0.2237  0.1701
  842MOL0     C13600   0.420   7.760   1.632 -0.7961 -0.0086  0.1512
  842MOL0     C13601   0.554   7.708   1.633  0.1288 -0.0419 -0.6591
  842MOL0     C13602   0.587   7.654   1.768 -0.8391  0.4099 -0.9916
  842MOL0     H13603   0.927   7.437   1.350  1.4843 -1.8649  0.2600
  842MOL0     H13604   1.171   7.376   1.343  0.4218  0.3476  1.2357
  842MOL0     H13605   1.457   7.607   1.166  2.1576  2.7906  0.1831
  842MOL0     H13606   1.469   7.692   1.311  1.5158 -0.3058  0.3261
  842MOL0     H13607   1.684   7.605   1.263  3.0400 -1.7448  0.2855
  842MOL0     H13608   1.623   7.440   1.221  1.9134 -1.8593  1.4551
  842MOL0     H13609   1.565   7.431   1.483  2.2986 -2.5925  0.3518
  842MOL0     H13610   1.655   7.577   1.494  0.3643 -0.6092  0.8132
  842MOL0     H13611   1.748   7.301   1.389 -0.2804  0.5763 -1.3518
  842MOL0     H13612   1.859   7.440   1.379 -0.4469  0.4131 -0.7691
  842MOL0     H13613   1.855   7.465   1.625 -3.4123  1.2536  0.4923
  842MOL0     H13614   1.722   7.340   1.634 -0.8510 -1.7043 -3.7017
  842MOL0     H13615   1.859   7.158   1.564 -0.8533  0.0974  1.0112
  842MOL0     H13616   1.991   7.256   1.512 -1.4869  1.2849 -1.6124
  842MOL0     H13617   2.004   7.123   1.745 -1.3454 -0.5556 -1.2330
  842MOL0     H13618   1.872   7.215   1.799 -0.2334 -1.3882 -0.7160
  842MOL0     H13619   2.144   7.319   1.716 -0.1860 -1.8131 -0.1725
  842MOL0     H13620   2.012   7.419   1.773  0.3310  0.8964 -1.5881
  842MOL0     H13621   2.111   7.488   2.011  0.0115  0.1842  0.0354
  842MOL0     H13622   2.151   7.500   2.258  2.1911  1.7390 -0.1921
  842MOL0     H13623   2.172   7.349   2.344 -2.5024  1.6730  0.2718
  842MOL0     H13624   2.372   7.495   2.191 -0.7356  0.5087  0.6105
  842MOL0     H13625   2.387   7.418   2.356 -0.6150 -1.5499  0.8098
  842MOL0     H13626   2.406   7.289   2.081  0.2695 -1.4666  0.6695
  842MOL0     H13627   2.437   7.210   2.239 -4.0532 -2.3696 -1.9211
  842MOL0     H13628   2.590   7.458   2.119  1.3902  1.1882  2.0061
  842MOL0     H13629   2.638   7.290   2.103  2.0586  1.4680  0.0706
  842MOL0     H13630   2.752   7.318   2.502  2.0823 -0.0363  1.7522
  842MOL0     H13631   2.978   7.302   2.566 -3.2176  2.6559  1.0158
  842MOL0     H13632   3.460   7.345   2.115 -0.7871 -1.0117 -1.3897
  842MOL0     H13633   3.701   7.279   2.112  0.1005  1.0781  1.3920
  842MOL0     H13634   3.896   7.292   2.207  0.7935  0.0924 -2.8738
  842MOL0     H13635   4.020   7.213   2.288  1.5819 -0.1017 -2.3674
  842MOL0     H13636   3.880   7.119   2.039 -1.1837  2.2372  0.9402
  842MOL0     H13637   4.049   7.162   2.070  1.1854  0.8523  2.8171
  842MOL0     H13638   4.055   6.966   2.232 -0.8788  1.7423  0.6114
  842MOL0     H13639   3.899   6.906   2.168 -0.1179  0.3169  2.9002
  842MOL0     H13640   4.115   6.793   2.083  0.6809 -1.3102 -2.6756
  842MOL0     H13641   4.138   6.940   1.976 -2.1004  1.2470 -0.4482
  842MOL0     H13642   4.012   6.786   1.832  0.3057  0.0895  0.7162
  842MOL0     H13643   3.899   6.906   1.901 -1.4589 -0.6809  0.4874
  842MOL0     H13644   3.945   6.626   1.999  0.8283  1.2944 -0.7187
  842MOL0     H13645   3.843   6.723   2.080 -0.4216 -3.5612  0.6446
  842MOL0     H13646   3.786   6.644   1.792  4.1874 -0.9266  1.9262
  842MOL0     H13647   3.727   6.792   1.858  0.8966 -0.4006 -2.7071
  842MOL0     H13648   3.605   6.671   2.038 -1.2365  1.7922 -1.9871
  842MOL0     H13649   3.560   6.586   1.885  0.2474  0.3646  0.4922
  842MOL0     H13650   3.664   7.073   2.481  1.4836 -0.8818 -0.6235
  842MOL0     H13651   3.427   7.123   2.491 -0.6467 -0.1295  0.8696
  842MOL0     H13652   3.091   7.293   2.155  1.2881  0.0965  0.8777
  842MOL0     H13653   2.850   7.348   2.098 -1.2393  0.7712  1.1472
  842MOL0     H13654   1.281   7.781   1.315  0.5618  0.7155  1.6465
  842MOL0     H13655   1.055   7.855   1.349  2.5511  0.4501 -4.9224
  842MOL0     H13656   0.634   7.767   1.310  2.3638  2.6884  0.5385
  842MOL0     H13657   0.415   7.857   1.307 -0.7052  3.3480  1.6218
  842MOL0     H13658   0.184   7.938   1.341 -0.2822 -0.2137 -0.0914
  842MOL0     H13659   0.212   8.064   1.472 -3.7281  0.0982  3.4466
  842MOL0     H13660   0.008   8.059   1.534 -0.3221 -0.9457  1.4530
  842MOL0     H13661  -0.017   7.881   1.501  1.0980 -2.0479 -2.9882
  842MOL0     H13662  -0.060   7.939   1.273 -3.5010 -0.6087  0.3215
  842MOL0     H13663   0.024   8.096   1.292 -0.8890  0.5479 -0.2717
  842MOL0     H13664  -0.254   8.050   1.391  0.7123 -0.4311  2.7689
  842MOL0     H13665  -0.149   8.184   1.440  1.2231  0.9210 -1.5085
  842MOL0     H13666  -0.259   8.303   1.051 -0.9638 -2.5711 -0.8473
  842MOL0     H13667   0.361   7.779   1.721 -0.0250 -1.0480  0.9161
  842MOL0     H13668   0.673   7.713   1.802 -0.8889 -0.5071  0.8695
  842MOL0     H13669   0.503   7.666   1.837 -0.6167 -2.2700 -0.1235
  842MOL0     H13670   0.621   7.550   1.770 -3.2624 -0.4533  1.1141
  843MOL0     O13671  10.553   2.063   3.207 -0.5486 -0.0697 -0.5564
  843MOL0     C13672  10.581   2.116   3.104  0.0602 -0.5971  0.0246
  843MOL0     O13673  10.695   2.090   3.051 -0.2128  0.7631  0.4655
  843MOL0     C13674  10.808   2.086   3.137 -0.6919 -0.2032 -0.0491
  843MOL0     C13675  10.908   1.997   3.102  0.5124 -0.5665  0.7335
  843MOL0     C13676  11.014   1.965   3.179  0.1196  0.5951 -0.6709
  843MOL0     C13677  11.035   2.035   3.303  0.2225  0.2495 -0.3975
  843MOL0     O13678  11.156   2.012   3.357 -0.1906 -0.5052 -0.7058
  843MOL0     C13679  11.202   2.093   3.471  0.1637  0.4587  0.2255
  843MOL0     C13680  11.321   2.008   3.533  0.0067 -0.0094  0.8707
  843MOL0     C13681  11.451   2.036   3.452  0.0512  0.5668 -0.0927
  843MOL0     C13682  11.570   1.950   3.490  0.7313 -0.0861  0.2933
  843MOL0     C13683  11.709   2.015   3.440  0.2072 -0.2458  0.6595
  843MOL0     C13684  11.822   1.913   3.441  0.5634  0.8171  0.3005
  843MOL0     C13685  11.959   1.981   3.404 -0.8002 -0.4266  0.5140
  843MOL0     C13686  12.018   2.065   3.517 -0.4761  0.5728 -0.0899
  843MOL0     N13687  12.158   2.092   3.490 -0.6402 -0.6096  0.2805
  843MOL0     C13688  12.206   2.188   3.406  0.4864  0.0996  0.2458
  843MOL0     C13689  12.342   2.193   3.419 -0.4271  0.8399  0.2112
  843MOL0     C13690  12.445   2.274   3.334  0.5442 -0.3642  1.3666
  843MOL0     C13691  12.531   2.369   3.422  1.0082 -0.0586  0.2333
  843MOL0     C13692  12.604   2.304   3.538  0.0185  0.2285 -0.0888
  843MOL0     C13693  12.697   2.190   3.506  0.4498  0.6287  0.2206
  843MOL0     O13694  12.780   2.229   3.392 -0.3192  0.1966  0.2718
  843MOL0     C13695  12.906   2.285   3.412  0.2551  0.3583 -1.4123
  843MOL0     C13696  12.972   2.279   3.535  0.0616  0.6852 -0.6699
  843MOL0     C13697  13.097   2.329   3.549 -0.1865 -0.5176  0.8295
  843MOL0     C13698  13.165   2.387   3.440 -1.3327 -0.3727  0.1583
  843MOL0     C13699  13.299   2.450   3.451 -0.8315  0.0758 -0.2224
  843MOL0     O13700  13.367   2.455   3.334 -0.3040  0.1980 -0.2193
  843MOL0     C13701  13.491   2.496   3.363 -0.6288 -0.7383  0.2542
  843MOL0     C13702  13.584   2.423   3.441  0.3186 -0.4357 -0.0340
  843MOL0     C13703  13.704   2.474   3.486  0.0499  0.0453 -0.3048
  843MOL0     C13704  13.744   2.603   3.447  0.5927  0.1868 -0.1376
  843MOL0     O13705  13.862   2.657   3.487  0.5571 -0.4848 -0.4628
  843MOL0     C13706  13.933   2.600   3.604  0.2068 -0.0745  0.1862
  843MOL0     C13707  14.067   2.677   3.610 -0.1713  0.4469 -0.8077
  843MOL0     C13708  14.171   2.612   3.715 -0.3328 -0.7672  0.8771
  843MOL0     C13709  14.300   2.704   3.728 -0.3119 -0.6550 -0.7334
  843MOL0     C13710  14.399   2.633   3.825  0.9337 -0.4222  0.0963
  843MOL0     C13711  14.535   2.702   3.834  0.9967  1.2020  0.0008
  843MOL0     C13712  14.616   2.675   3.710 -0.1998  0.7467  0.2818
  843MOL0     C13713  14.751   2.746   3.711  0.1471 -0.3454  0.5821
  843MOL0    Cl13714  14.849   2.677   3.845 -0.2643  0.0157 -0.6822
  843MOL0     C13715  13.664   2.670   3.358  0.8746 -0.2267  0.1426
  843MOL0     C13716  13.535   2.625   3.327 -0.6033  0.4324 -0.4572
  843MOL0     O13717  13.338   2.475   3.564 -0.1419 -0.9325 -0.0402
  843MOL0     C13718  13.101   2.381   3.311 -0.2908 -0.3332 -0.5490
  843MOL0     C13719  12.968   2.347   3.307 -0.4801  0.0259  0.6970
  843MOL0     N13720  12.374   2.108   3.521  0.0895  1.0828 -1.2327
  843MOL0     N13721  12.270   2.047   3.558 -0.2789 -0.0838 -0.9034
  843MOL0     C13722  10.941   2.129   3.341  0.8246 -0.3641  0.6494
  843MOL0     C13723  10.827   2.166   3.256 -0.0283  0.2439  0.1330
  843MOL0     C13724  10.481   2.209   3.039 -0.3467 -0.1045  0.3526
  843MOL0     C13725  10.346   2.182   3.059 -0.2217  0.7954 -0.3931
  843MOL0     C13726  10.250   2.262   3.000  0.0023 -0.8091 -0.7364
  843MOL0     C13727  10.274   2.368   2.913 -0.6889 -0.0427  0.7726
  843MOL0     O13728  10.180   2.448   2.847  0.5505  0.0501 -0.7193
  843MOL0     C13729  10.046   2.401   2.832  0.7130  0.4786 -0.7698
  843MOL0     C13730   9.974   2.489   2.734 -0.6010  0.7617 -0.6025
  843MOL0     C13731   9.990   2.641   2.748  0.1516 -0.3608 -0.2094
  843MOL0     C13732   9.896   2.714   2.652 -0.4501  0.2002  0.9312
  843MOL0     C13733   9.908   2.669   2.512 -0.7345 -0.1190 -0.2619
  843MOL0     C13734   9.913   2.624   2.403 -0.1393  0.3164 -0.2972
  843MOL0     C13735  10.408   2.385   2.886 -0.2869  0.5424 -0.0922
  843MOL0     C13736  10.511   2.303   2.941  0.5214 -0.8234 -1.3072
  843MOL0     C13737  10.655   2.340   2.916  0.2131  0.0271 -0.4359
  843MOL0     H13738  10.905   1.953   3.003 -2.0664 -1.1642  1.0224
  843MOL0     H13739  11.078   1.887   3.138  1.6404  1.2640  0.3381
  843MOL0     H13740  11.234   2.190   3.429 -0.5131 -0.7512 -3.4635
  843MOL0     H13741  11.122   2.115   3.542  1.0702  0.0536  1.4014
  843MOL0     H13742  11.304   1.900   3.533  0.8626 -0.1941  3.0999
  843MOL0     H13743  11.334   2.027   3.640 -0.8257 -2.3664  1.4491
  843MOL0     H13744  11.496   2.132   3.478 -0.5596  0.7912  0.1435
  843MOL0     H13745  11.442   2.045   3.343 -0.7840  1.8343  0.0646
  843MOL0     H13746  11.562   1.928   3.597  0.6310  0.6999  0.4554
  843MOL0     H13747  11.558   1.854   3.438 -0.7108  0.0181  0.3851
  843MOL0     H13748  11.687   2.040   3.336  0.9211 -0.4458  0.4590
  843MOL0     H13749  11.724   2.106   3.499 -1.2662  0.1676  0.4429
  843MOL0     H13750  11.836   1.868   3.540  0.1110 -1.8254 -0.7499
  843MOL0     H13751  11.798   1.833   3.371  0.4078 -1.2861  2.6372
  843MOL0     H13752  11.937   2.043   3.317  0.9744 -0.0507  0.3070
  843MOL0     H13753  12.028   1.904   3.367 -1.3904 -0.7822  0.1364
  843MOL0     H13754  11.971   2.164   3.518 -0.7080  0.5294  2.6461
  843MOL0     H13755  12.008   2.010   3.611 -1.5608  1.0735  0.1072
  843MOL0     H13756  12.159   2.243   3.325 -0.7907  1.4823  1.8432
  843MOL0     H13757  12.508   2.201   3.281 -0.3970 -0.5740  0.5084
  843MOL0     H13758  12.388   2.330   3.261  3.8412  1.5147  0.0262
  843MOL0     H13759  12.607   2.412   3.356  1.7007 -3.8914 -1.7652
  843MOL0     H13760  12.464   2.448   3.457  0.3951 -1.6665  2.9819
  843MOL0     H13761  12.529   2.279   3.614 -2.4522 -0.0559 -2.4779
  843MOL0     H13762  12.660   2.385   3.586  0.3740 -0.4009  0.5864
  843MOL0     H13763  12.639   2.102   3.477  2.3114  0.0332 -1.9132
  843MOL0     H13764  12.765   2.156   3.585  1.2963  0.0507 -0.7349
  843MOL0     H13765  12.929   2.243   3.628  2.8176  0.8415  0.7695
  843MOL0     H13766  13.151   2.318   3.643  0.6225  0.6494  0.5190
  843MOL0     H13767  13.548   2.324   3.468  0.1387 -0.5600 -0.7146
  843MOL0     H13768  13.750   2.412   3.562  0.8413 -0.7885 -1.4421
  843MOL0     H13769  13.867   2.623   3.688 -1.3516 -0.5290 -0.8744
  843MOL0     H13770  13.953   2.493   3.587 -2.8171 -1.0219  1.8056
  843MOL0     H13771  14.114   2.665   3.512  1.9020 -0.1165  0.1946
  843MOL0     H13772  14.047   2.782   3.632  1.5606  0.1001  3.1195
  843MOL0     H13773  14.125   2.603   3.814 -3.2435  0.2324 -0.3034
  843MOL0     H13774  14.205   2.517   3.673 -2.4946  0.2369 -3.6876
  843MOL0     H13775  14.276   2.801   3.773  2.7661 -0.6751  1.1855
  843MOL0     H13776  14.344   2.726   3.630 -0.8689  1.9410 -0.4776
  843MOL0     H13777  14.409   2.527   3.800  0.5695 -0.8595  1.6695
  843MOL0     H13778  14.347   2.634   3.922 -1.2211  2.4251 -0.9436
  843MOL0     H13779  14.518   2.808   3.855  0.8458  1.5263 -1.5956
  843MOL0     H13780  14.582   2.667   3.926 -1.2884  1.7632  1.4693
  843MOL0     H13781  14.555   2.699   3.621  0.1042  0.4432 -0.0096
  843MOL0     H13782  14.643   2.570   3.701  0.1266  0.7197  1.4601
  843MOL0     H13783  14.795   2.748   3.611  1.4290  0.9388  1.1275
  843MOL0     H13784  14.734   2.850   3.743 -0.2275 -0.9808  2.5983
  843MOL0     H13785  13.700   2.754   3.299 -3.2706  1.1809 -0.7049
  843MOL0     H13786  13.474   2.698   3.274  1.1391  2.0532 -0.3235
  843MOL0     H13787  13.162   2.416   3.228  0.2707 -3.6821 -1.7125
  843MOL0     H13788  12.917   2.355   3.212 -0.1359 -0.9228  0.4225
  843MOL0     H13789  10.949   2.173   3.440 -0.0607  0.5502  0.3377
  843MOL0     H13790  10.759   2.246   3.281 -0.1960  0.9241 -2.2901
  843MOL0     H13791  10.299   2.100   3.112  1.9990 -0.9837 -1.0455
  843MOL0     H13792  10.145   2.242   3.017  0.2029 -0.2101  1.4369
  843MOL0     H13793   9.990   2.401   2.927  0.4127  1.8730 -0.9237
  843MOL0     H13794  10.041   2.299   2.794 -1.5684  0.4155 -0.4535
  843MOL0     H13795   9.871   2.453   2.745  0.7277 -3.6055 -0.3143
  843MOL0     H13796  10.011   2.462   2.635  0.7320  0.5397 -0.0582
  843MOL0     H13797  10.095   2.663   2.729 -0.1728  1.9217  0.4277
  843MOL0     H13798   9.978   2.672   2.852  0.7688  0.8998 -0.5075
  843MOL0     H13799   9.796   2.703   2.693 -1.0754 -0.5995 -0.7253
  843MOL0     H13800   9.914   2.822   2.644  1.8460 -0.2100 -0.4265
  843MOL0     H13801   9.923   2.594   2.301 -1.0450  0.7485 -0.5146
  843MOL0     H13802  10.424   2.458   2.807 -1.1797 -0.1657 -0.9547
  843MOL0     H13803  10.663   2.430   2.854 -0.6283  0.4288  0.0217
  843MOL0     H13804  10.708   2.364   3.009 -1.4667  2.1688  0.0524
  843MOL0     H13805  10.696   2.252   2.867 -1.5599  0.0582 -2.0673
  844MOL0     O13806   1.284   1.579   6.683  0.4074 -0.0497 -0.4345
  844MOL0     C13807   1.263   1.693   6.633 -0.7170 -0.4952 -0.1201
  844MOL0     O13808   1.362   1.771   6.584 -0.0970  0.1115  0.3551
  844MOL0     C13809   1.491   1.719   6.589 -0.4742  0.7016  0.2670
  844MOL0     C13810   1.564   1.727   6.473 -0.1758 -0.1746  0.1736
  844MOL0     C13811   1.695   1.697   6.472  0.0783  0.6964  0.6975
  844MOL0     C13812   1.765   1.644   6.582 -0.9512 -0.0659  0.6524
  844MOL0     O13813   1.903   1.623   6.567 -0.0514 -0.0824 -0.0797
  844MOL0     C13814   1.974   1.613   6.687  0.4814  0.3969 -0.2332
  844MOL0     C13815   2.126   1.595   6.651  0.0636  0.2993 -0.7011
  844MOL0     C13816   2.219   1.637   6.773 -0.1741 -0.4930  0.0252
  844MOL0     C13817   2.363   1.644   6.738 -0.0533  0.1024 -0.4023
  844MOL0     C13818   2.457   1.665   6.850  0.9296  0.7567 -0.9031
  844MOL0     C13819   2.605   1.649   6.812  0.0548  0.3930 -0.0858
  844MOL0     C13820   2.654   1.505   6.774  0.3360 -0.8605  0.6086
  844MOL0     C13821   2.783   1.511   6.685 -0.2501 -0.0275  0.5794
  844MOL0     N13822   2.909   1.515   6.761  0.7654 -0.5338  0.3056
  844MOL0     C13823   2.967   1.418   6.834  0.4257 -0.1948  0.4723
  844MOL0     C13824   3.083   1.458   6.878 -0.4571  0.6560  0.4294
  844MOL0     C13825   3.181   1.374   6.957  0.7701  0.0496 -0.4119
  844MOL0     C13826   3.238   1.457   7.077 -0.2620 -0.2065 -0.2311
  844MOL0     C13827   3.283   1.371   7.205  0.6680  0.8827  0.7433
  844MOL0     C13828   3.402   1.296   7.187 -0.8321  0.4268  0.3842
  844MOL0     O13829   3.392   1.193   7.084  0.7612 -0.2657 -0.4243
  844MOL0     C13830   3.503   1.154   7.019 -0.1824 -0.2262 -0.2235
  844MOL0     C13831   3.488   1.071   6.906  0.3833 -0.3765 -0.9508
  844MOL0     C13832   3.596   1.043   6.829 -0.2810  0.0704  1.7494
  844MOL0     C13833   3.726   1.075   6.868 -0.7755  0.4623  0.3379
  844MOL0     C13834   3.842   1.026   6.791 -0.0901 -0.6580  0.3846
  844MOL0     O13835   3.960   1.097   6.803 -0.3825  0.5096 -0.4935
  844MOL0     C13836   4.080   1.040   6.772  1.0969 -0.1010 -0.0706
  844MOL0     C13837   4.121   0.916   6.801 -0.2013  0.4725 -0.9749
  844MOL0     C13838   4.251   0.867   6.773 -0.5995  0.8209 -0.5442
  844MOL0     C13839   4.352   0.945   6.729  0.0649 -0.3490 -0.3259
  844MOL0     O13840   4.482   0.899   6.715 -0.4941 -0.0439  0.4434
  844MOL0     C13841   4.520   0.857   6.578  0.2378 -1.0663 -0.7133
  844MOL0     C13842   4.654   0.792   6.581 -0.3910 -0.4348  0.0855
  844MOL0     C13843   4.766   0.893   6.601  0.0742  0.1000  0.1997
  844MOL0     C13844   4.903   0.827   6.571  0.6198 -1.3305  0.3257
  844MOL0     C13845   5.027   0.926   6.583 -0.3170  0.0172 -0.2530
  844MOL0     C13846   5.160   0.865   6.524 -1.1070  0.7492 -0.0308
  844MOL0     C13847   5.168   0.850   6.372  0.9114 -0.2493  0.3456
  844MOL0     C13848   5.134   0.984   6.295  0.2215  0.1895 -0.0056
  844MOL0    Cl13849   5.258   1.099   6.333  0.1921 -0.1173  0.4020
  844MOL0     C13850   4.317   1.076   6.713  0.9746  0.3408 -1.0584
  844MOL0     C13851   4.180   1.122   6.718 -1.0381  0.1904  0.9493
  844MOL0     O13852   3.823   0.933   6.718  0.4528 -0.1209  0.1244
  844MOL0     C13853   3.741   1.158   6.977 -0.5422 -0.8051 -0.4296
  844MOL0     C13854   3.634   1.196   7.055 -0.0676  0.6080  0.5533
  844MOL0     N13855   3.099   1.592   6.831  0.2794  0.2255 -0.1409
  844MOL0     N13856   2.998   1.622   6.763  0.0866  0.8559 -0.6318
  844MOL0     C13857   1.695   1.640   6.699  0.4178  0.0080 -0.3295
  844MOL0     C13858   1.559   1.673   6.698  0.3909  0.2105 -0.5294
  844MOL0     C13859   1.116   1.719   6.621  0.4061 -0.0870  0.6834
  844MOL0     C13860   1.019   1.626   6.657 -0.0335 -0.6078 -0.3688
  844MOL0     C13861   0.886   1.656   6.645  0.0821  0.8250  0.3835
  844MOL0     C13862   0.835   1.776   6.593 -0.3951 -0.0684 -0.1073
  844MOL0     O13863   0.698   1.810   6.573 -1.0710 -0.3907  0.3991
  844MOL0     C13864   0.598   1.720   6.615 -0.2964 -0.1466 -0.0541
  844MOL0     C13865   0.553   1.747   6.761 -0.4172 -0.0649  0.3589
  844MOL0     C13866   0.460   1.872   6.755 -0.6340  0.6739 -0.2386
  844MOL0     C13867   0.466   1.946   6.888 -0.0194 -1.0236  0.4320
  844MOL0     C13868   0.459   1.855   7.001  0.0293  0.6249 -0.1283
  844MOL0     C13869   0.456   1.758   7.085 -0.2668 -0.5107  0.2416
  844MOL0     C13870   0.925   1.867   6.545  0.8719 -0.7377 -0.3189
  844MOL0     C13871   1.066   1.844   6.564  0.2788  0.0150 -1.0205
  844MOL0     C13872   1.155   1.956   6.510 -0.0045 -0.1484 -0.4759
  844MOL0     H13873   1.513   1.743   6.378  1.3676  2.1649 -0.3348
  844MOL0     H13874   1.738   1.711   6.373 -1.3208  2.1490  0.2543
  844MOL0     H13875   1.976   1.707   6.742  1.2567  0.0937  0.2702
  844MOL0     H13876   1.944   1.533   6.756  0.7301  0.1236 -0.4405
  844MOL0     H13877   2.143   1.658   6.563  1.2018 -0.8797 -1.3549
  844MOL0     H13878   2.144   1.499   6.603  2.6375  0.9913 -1.2340
  844MOL0     H13879   2.213   1.563   6.854  0.4753 -0.9638 -0.3458
  844MOL0     H13880   2.200   1.737   6.811  0.2410 -0.7281  0.8721
  844MOL0     H13881   2.392   1.561   6.674  1.7382  0.8811 -0.6430
  844MOL0     H13882   2.376   1.735   6.678 -0.4400  0.1643 -0.3979
  844MOL0     H13883   2.442   1.768   6.881  1.3105  0.6639 -0.3909
  844MOL0     H13884   2.427   1.594   6.928  0.7446 -1.6614 -3.0464
  844MOL0     H13885   2.634   1.717   6.731 -1.3668  0.2572 -0.7352
  844MOL0     H13886   2.667   1.680   6.897  1.0796  1.9060 -1.3312
  844MOL0     H13887   2.573   1.462   6.715  0.8755 -2.2315  0.8441
  844MOL0     H13888   2.677   1.449   6.865  0.3906 -1.2750  0.3387
  844MOL0     H13889   2.789   1.421   6.623  2.3220  1.6948 -1.8943
  844MOL0     H13890   2.784   1.595   6.615 -0.7757  1.9150  2.8048
  844MOL0     H13891   2.916   1.323   6.841 -0.2848  0.2373  1.3851
  844MOL0     H13892   3.129   1.286   6.996 -1.7085  0.9862 -1.4154
  844MOL0     H13893   3.264   1.345   6.892  0.6524  1.4287 -1.2149
  844MOL0     H13894   3.317   1.525   7.046 -1.0084  1.4159  1.2380
  844MOL0     H13895   3.168   1.530   7.119  0.6686 -0.5679  2.1004
  844MOL0     H13896   3.204   1.305   7.242  0.3967  0.6573 -0.2271
  844MOL0     H13897   3.293   1.451   7.280 -0.4067  1.3369  0.4190
  844MOL0     H13898   3.429   1.254   7.284  0.3505 -0.7453 -0.4318
  844MOL0     H13899   3.476   1.371   7.158 -1.7635 -0.2448 -4.5065
  844MOL0     H13900   3.388   1.043   6.874 -1.6110  3.6524  0.9768
  844MOL0     H13901   3.575   0.992   6.736  1.5301  0.0587  1.3148
  844MOL0     H13902   4.055   0.831   6.816 -0.4720  1.0470  1.3779
  844MOL0     H13903   4.282   0.766   6.798  0.6345  1.5426  1.0603
  844MOL0     H13904   4.450   0.780   6.546  2.3910 -3.3522 -0.2275
  844MOL0     H13905   4.525   0.941   6.509  2.0420  1.7401  2.5151
  844MOL0     H13906   4.669   0.720   6.662  0.3130  1.1568  1.4318
  844MOL0     H13907   4.664   0.745   6.483 -2.6787  3.3849 -2.2633
  844MOL0     H13908   4.750   0.972   6.527 -1.0137 -1.7986 -1.7188
  844MOL0     H13909   4.763   0.922   6.707  1.6335  0.1055  0.2627
  844MOL0     H13910   4.893   0.795   6.467 -0.1051 -0.0029 -0.0355
  844MOL0     H13911   4.920   0.747   6.643  1.6028 -1.2627  0.1825
  844MOL0     H13912   5.052   0.953   6.686  2.2938 -0.7823 -0.5770
  844MOL0     H13913   4.997   1.020   6.537  0.3204 -0.0588 -0.8553
  844MOL0     H13914   5.235   0.937   6.557  1.6203 -2.2237  0.7345
  844MOL0     H13915   5.162   0.769   6.575 -3.4644 -0.0228 -1.2357
  844MOL0     H13916   5.091   0.776   6.351 -0.1848  0.4895  1.5626
  844MOL0     H13917   5.264   0.805   6.346  0.2930  0.0621 -2.7973
  844MOL0     H13918   5.135   0.966   6.187 -1.7750 -1.2905  0.1659
  844MOL0     H13919   5.031   1.014   6.318 -0.1094  0.1266 -1.2881
  844MOL0     H13920   4.386   1.156   6.689 -0.3124  2.9597  2.9407
  844MOL0     H13921   4.145   1.223   6.699 -1.2671  0.2013  1.4050
  844MOL0     H13922   3.837   1.189   7.015 -0.3884 -2.9327  1.1185
  844MOL0     H13923   3.646   1.264   7.140 -2.7090  0.7600  0.8982
  844MOL0     H13924   1.736   1.610   6.795 -2.6361 -3.4995  0.1102
  844MOL0     H13925   1.514   1.663   6.796 -1.7305 -1.1565 -1.5595
  844MOL0     H13926   1.043   1.526   6.692  1.7012  0.0890  0.5822
  844MOL0     H13927   0.816   1.590   6.695  0.1527  1.0668  0.8026
  844MOL0     H13928   0.648   1.623   6.601  1.8546  1.1454 -2.1905
  844MOL0     H13929   0.513   1.727   6.547  0.1065  0.8659 -0.4704
  844MOL0     H13930   0.639   1.758   6.828  0.3175 -1.2051 -0.3630
  844MOL0     H13931   0.489   1.662   6.786  1.5547 -0.8103  3.3489
  844MOL0     H13932   0.358   1.835   6.739  1.0949 -3.4644 -3.6142
  844MOL0     H13933   0.484   1.930   6.665 -0.4957 -1.0561 -1.3695
  844MOL0     H13934   0.548   2.018   6.891 -1.2576  0.4470  0.5306
  844MOL0     H13935   0.382   2.015   6.891  1.5628  0.9714  0.7650
  844MOL0     H13936   0.462   1.671   7.147  0.3127 -2.4733 -2.3783
  844MOL0     H13937   0.894   1.965   6.511  1.3802 -0.1442  0.8905
  844MOL0     H13938   1.099   2.026   6.449 -3.6167 -2.6313 -0.3466
  844MOL0     H13939   1.205   2.003   6.595 -0.9588 -0.9576  0.5628
  844MOL0     H13940   1.237   1.915   6.451 -0.0065  0.3661 -0.8325
  845MOL0     O13941   5.703   4.434   0.839  0.4792  0.2651 -1.2363
  845MOL0     C13942   5.580   4.426   0.826 -0.1257 -0.4780  0.0060
  845MOL0     O13943   5.515   4.325   0.758  0.1776  0.9208  0.0579
  845MOL0     C13944   5.593   4.215   0.731 -0.1451 -0.0287 -0.8308
  845MOL0     C13945   5.599   4.183   0.598  0.4796 -0.6490 -0.2178
  845MOL0     C13946   5.682   4.076   0.570 -0.4802 -0.2362  0.1974
  845MOL0     C13947   5.756   4.001   0.669  0.2958 -0.1411  0.3576
  845MOL0     O13948   5.843   3.905   0.615  0.2110  0.3094 -0.1358
  845MOL0     C13949   5.948   3.837   0.691  0.7635  0.2188 -0.7449
  845MOL0     C13950   6.058   3.940   0.721 -0.2486 -0.2697 -0.4113
  845MOL0     C13951   6.171   3.901   0.821 -0.8814  0.5714  0.9029
  845MOL0     C13952   6.270   4.018   0.863  0.7005  0.2549 -0.5864
  845MOL0     C13953   6.382   3.963   0.948 -0.3509 -0.3532 -0.5499
  845MOL0     C13954   6.458   4.088   0.985  0.5150  0.0823  0.0379
  845MOL0     C13955   6.573   4.064   1.086  0.0731 -0.4717  0.2281
  845MOL0     C13956   6.706   4.022   1.021  0.3557  0.3327 -0.7788
  845MOL0     N13957   6.770   4.138   0.960 -0.1706 -0.6682 -0.2577
  845MOL0     C13958   6.824   4.247   1.020 -0.5604  0.2750  0.2329
  845MOL0     C13959   6.888   4.317   0.920 -0.1853 -0.3473  0.0350
  845MOL0     C13960   6.990   4.429   0.948  0.1941 -0.7141  0.0988
  845MOL0     C13961   7.130   4.392   0.901 -0.8556 -0.4922 -0.0610
  845MOL0     C13962   7.206   4.520   0.857 -0.2105 -0.8622  0.1652
  845MOL0     C13963   7.359   4.492   0.833  0.0168  0.8077 -0.2577
  845MOL0     O13964   7.445   4.594   0.878 -0.0999  0.5095 -0.7878
  845MOL0     C13965   7.586   4.585   0.884  0.2537  0.1007 -0.2135
  845MOL0     C13966   7.645   4.691   0.942 -0.2395 -0.2189 -0.2752
  845MOL0     C13967   7.784   4.705   0.962 -0.3062  0.0255  0.3844
  845MOL0     C13968   7.857   4.597   0.901  0.5800 -0.4451 -0.1656
  845MOL0     C13969   8.009   4.591   0.907 -0.2381 -0.1279  0.2054
  845MOL0     O13970   8.070   4.688   0.972 -0.2934  0.2074  0.6274
  845MOL0     C13971   8.210   4.693   0.964  1.0299 -0.3019  0.7913
  845MOL0     C13972   8.261   4.827   0.965  0.6353  0.2957 -0.9875
  845MOL0     C13973   8.394   4.848   0.989 -0.6496 -0.0704 -0.0134
  845MOL0     C13974   8.488   4.742   0.999 -0.3778 -0.3502 -0.3190
  845MOL0     O13975   8.615   4.790   1.026  0.3430 -0.5289 -0.2499
  845MOL0     C13976   8.719   4.728   0.966 -0.2730  0.6099  0.4230
  845MOL0     C13977   8.842   4.818   1.012  0.1020  0.1357  0.3650
  845MOL0     C13978   8.905   4.765   1.141  0.0087 -0.4174 -0.0622
  845MOL0     C13979   9.042   4.839   1.170 -0.2637  0.3043  0.2860
  845MOL0     C13980   9.159   4.819   1.085 -0.1830 -0.1288  0.3176
  845MOL0     C13981   9.212   4.677   1.083  1.0530  0.1867 -0.4664
  845MOL0     C13982   9.351   4.672   1.007 -0.0873 -0.7796  0.6383
  845MOL0     C13983   9.420   4.542   1.018  0.4735  0.4314 -0.7163
  845MOL0    Cl13984   9.590   4.554   0.962 -0.0808 -0.1351  0.1576
  845MOL0     C13985   8.441   4.609   0.995 -0.5306 -0.5294  0.2806
  845MOL0     C13986   8.299   4.582   0.974 -0.9878 -0.4533 -0.2388
  845MOL0     O13987   8.070   4.523   0.826  0.0534  0.5526 -0.5687
  845MOL0     C13988   7.797   4.486   0.842  0.3565  0.2940 -0.3691
  845MOL0     C13989   7.657   4.476   0.842 -0.7008  0.1034  0.2406
  845MOL0     N13990   6.860   4.256   0.799 -0.1150 -0.2516 -0.6563
  845MOL0     N13991   6.784   4.155   0.822  0.5337 -0.7914  0.9022
  845MOL0     C13992   5.728   4.017   0.802  0.2518  0.1382  0.2542
  845MOL0     C13993   5.644   4.125   0.832  0.5399  0.3913 -0.3650
  845MOL0     C13994   5.492   4.524   0.899 -1.0579  0.1800  0.6462
  845MOL0     C13995   5.364   4.488   0.931  0.6813 -0.0047 -0.2290
  845MOL0     C13996   5.286   4.562   1.015 -0.2058 -0.8897 -0.4545
  845MOL0     C13997   5.318   4.686   1.066  0.2695  0.2618  0.1902
  845MOL0     O13998   5.246   4.759   1.159 -0.4123 -0.0957 -0.0286
  845MOL0     C13999   5.111   4.726   1.188  0.8302 -0.0766 -0.5922
  845MOL0     C14000   5.096   4.673   1.333  0.4768 -0.0173  0.8970
  845MOL0     C14001   4.951   4.683   1.382 -0.0174  0.2806 -0.5485
  845MOL0     C14002   4.854   4.572   1.333 -0.3623 -1.2634  0.4507
  845MOL0     C14003   4.713   4.604   1.363 -0.5237 -0.2049 -0.5804
  845MOL0     C14004   4.595   4.632   1.380 -0.0142  0.3571  0.0142
  845MOL0     C14005   5.441   4.728   1.024 -0.4991  0.1896  0.0884
  845MOL0     C14006   5.525   4.653   0.938  0.6893 -0.0404 -0.6266
  845MOL0     C14007   5.654   4.716   0.903 -0.4752  0.1150 -0.6260
  845MOL0     H14008   5.536   4.232   0.525 -2.0584 -1.4343  1.3494
  845MOL0     H14009   5.707   4.056   0.467 -0.2992 -0.1814  0.2299
  845MOL0     H14010   5.899   3.793   0.778  1.9242 -0.7581 -0.5515
  845MOL0     H14011   5.995   3.759   0.631 -1.5884 -1.1531 -0.9326
  845MOL0     H14012   6.015   4.033   0.757  0.1730  0.6415 -2.1495
  845MOL0     H14013   6.100   3.964   0.623 -0.0641  2.9841  0.3537
  845MOL0     H14014   6.221   3.815   0.775 -1.1783  0.8598  0.0423
  845MOL0     H14015   6.128   3.856   0.912  0.0187  1.0096  1.5635
  845MOL0     H14016   6.307   4.075   0.777 -0.7964  0.7197 -0.9488
  845MOL0     H14017   6.208   4.084   0.925 -2.1323 -1.3339 -1.5232
  845MOL0     H14018   6.355   3.910   1.039 -0.1928  0.0965 -0.2389
  845MOL0     H14019   6.443   3.893   0.890  1.3917 -0.5666  1.4389
  845MOL0     H14020   6.495   4.131   0.891  0.7976 -1.5490 -0.6400
  845MOL0     H14021   6.397   4.162   1.037  1.5668 -0.5050  2.2437
  845MOL0     H14022   6.544   3.989   1.161  1.6703 -0.0000  1.3542
  845MOL0     H14023   6.592   4.152   1.147 -0.5461 -0.1633 -0.0121
  845MOL0     H14024   6.768   3.978   1.099 -0.9291 -1.9531 -0.9588
  845MOL0     H14025   6.689   3.947   0.944  0.4905  1.2546 -1.7257
  845MOL0     H14026   6.827   4.268   1.127 -0.6236 -2.7357  0.8983
  845MOL0     H14027   6.965   4.521   0.895  0.3485 -0.0433  1.1633
  845MOL0     H14028   6.996   4.463   1.051 -1.4527  1.4772 -0.4508
  845MOL0     H14029   7.191   4.335   0.972  1.1099  0.6500 -0.7398
  845MOL0     H14030   7.132   4.317   0.822  0.5533  0.4551 -0.9785
  845MOL0     H14031   7.200   4.587   0.944 -1.4257 -0.7377  0.0023
  845MOL0     H14032   7.160   4.575   0.774  0.6503 -1.2313 -0.5579
  845MOL0     H14033   7.376   4.481   0.725  3.3537 -0.4623  0.2846
  845MOL0     H14034   7.398   4.401   0.880 -1.7544  1.0321  1.8550
  845MOL0     H14035   7.579   4.772   0.973 -1.9545 -1.8615  0.5107
  845MOL0     H14036   7.825   4.780   1.029 -1.3607 -0.5917  1.7506
  845MOL0     H14037   8.190   4.908   0.954 -0.2310 -0.1624  0.8781
  845MOL0     H14038   8.424   4.952   0.997  0.1458 -0.2577 -0.4067
  845MOL0     H14039   8.726   4.624   0.998 -1.7503  0.5627  0.6954
  845MOL0     H14040   8.706   4.736   0.857  1.3798 -0.6365  0.1022
  845MOL0     H14041   8.918   4.807   0.934 -0.1263 -1.2693  0.3068
  845MOL0     H14042   8.825   4.925   1.024  0.8693  0.0666  2.5990
  845MOL0     H14043   8.833   4.781   1.222 -1.7240 -2.5373 -1.0626
  845MOL0     H14044   8.921   4.657   1.130  0.1870 -0.5264  1.1067
  845MOL0     H14045   9.067   4.813   1.273  3.9206  1.8080 -0.1680
  845MOL0     H14046   9.020   4.945   1.180 -2.5555 -0.0337 -0.6046
  845MOL0     H14047   9.240   4.875   1.134  0.0220 -1.1348  1.1758
  845MOL0     H14048   9.151   4.859   0.984  2.5018  2.5253  0.9925
  845MOL0     H14049   9.224   4.647   1.188 -0.8592  0.3628 -0.1585
  845MOL0     H14050   9.137   4.607   1.044 -0.8668  2.4127 -1.0172
  845MOL0     H14051   9.410   4.756   1.045 -2.7191  2.2195 -1.4526
  845MOL0     H14052   9.327   4.688   0.902 -0.5265 -1.4479  0.6293
  845MOL0     H14053   9.409   4.508   1.121 -0.3300 -3.0961 -1.8614
  845MOL0     H14054   9.373   4.474   0.947  2.8296  0.2945 -2.2840
  845MOL0     H14055   8.511   4.527   1.009 -0.8904 -0.6543  1.4770
  845MOL0     H14056   8.271   4.478   0.966  3.4812 -2.0948  1.9063
  845MOL0     H14057   7.861   4.401   0.824  0.2324  0.0112  0.4753
  845MOL0     H14058   7.614   4.385   0.802 -3.1200  0.8634  0.9353
  845MOL0     H14059   5.766   3.947   0.877  0.6062 -1.7696 -1.6189
  845MOL0     H14060   5.602   4.141   0.931 -0.8912 -2.6299 -0.3726
  845MOL0     H14061   5.330   4.389   0.902  0.3346  0.5185 -1.6674
  845MOL0     H14062   5.197   4.512   1.052 -1.5300  0.7157 -1.3503
  845MOL0     H14063   5.062   4.660   1.116 -0.7089  0.3404  0.0462
  845MOL0     H14064   5.046   4.814   1.190 -1.1592 -1.4716 -1.3598
  845MOL0     H14065   5.153   4.735   1.403 -0.8510  1.1733  0.9790
  845MOL0     H14066   5.128   4.569   1.342 -2.5641 -1.1139  0.1971
  845MOL0     H14067   4.908   4.779   1.349 -2.7126 -0.9296 -0.8326
  845MOL0     H14068   4.954   4.673   1.491 -0.4008  1.1568 -0.4452
  845MOL0     H14069   4.854   4.566   1.223 -0.8279 -1.4645  0.4648
  845MOL0     H14070   4.876   4.472   1.369  2.6193 -1.7288 -2.1395
  845MOL0     H14071   4.495   4.668   1.365 -0.2615 -1.1359 -2.5031
  845MOL0     H14072   5.473   4.829   1.044 -2.1914  0.8710 -0.4187
  845MOL0     H14073   5.724   4.719   0.987 -1.2771  0.0500  0.0666
  845MOL0     H14074   5.709   4.672   0.819  1.2864 -1.1281  1.0934
  845MOL0     H14075   5.642   4.820   0.871  1.7798  0.2599 -1.1889
  846MOL0     O14076   9.009   5.745   5.980  0.4203  0.0670  0.1524
  846MOL0     C14077   8.992   5.857   5.930  0.1830 -0.4790  0.9942
  846MOL0     O14078   9.071   5.966   5.950 -0.4041  0.2083  0.3997
  846MOL0     C14079   9.171   5.960   6.035 -0.3426  0.5218 -0.5814
  846MOL0     C14080   9.301   5.974   5.998  0.2030 -0.0966  0.6836
  846MOL0     C14081   9.412   5.981   6.088  0.3989  0.2385 -0.1341
  846MOL0     C14082   9.377   5.967   6.233 -0.3119  0.4233  0.2407
  846MOL0     O14083   9.475   5.976   6.331  0.1197 -0.1336 -0.6271
  846MOL0     C14084   9.438   6.043   6.445 -0.0217  0.3698 -0.4755
  846MOL0     C14085   9.554   6.042   6.538  0.2946  0.1433 -0.1928
  846MOL0     C14086   9.671   6.120   6.477  0.7226  0.3808  0.4714
  846MOL0     C14087   9.779   6.155   6.577 -0.1878  0.5704  0.1652
  846MOL0     C14088   9.902   6.214   6.513 -0.7658  0.2464  0.2506
  846MOL0     C14089   9.998   6.238   6.628 -0.1513 -0.3664 -0.0438
  846MOL0     C14090  10.137   6.274   6.579 -0.0209 -0.8992 -0.1973
  846MOL0     C14091  10.145   6.405   6.492  0.2555  0.3947 -0.6730
  846MOL0     N14092  10.132   6.523   6.584 -0.7088  0.6802 -0.0960
  846MOL0     C14093  10.232   6.578   6.655 -0.2902 -1.6183 -0.5757
  846MOL0     C14094  10.179   6.699   6.700  0.4603 -0.1135 -0.9711
  846MOL0     C14095  10.245   6.813   6.772 -0.0350  0.0432 -0.1675
  846MOL0     C14096  10.271   6.778   6.921 -0.1909  0.8080  0.5591
  846MOL0     C14097  10.348   6.875   7.008 -0.1129 -0.1772  0.1663
  846MOL0     C14098  10.370   6.785   7.130 -0.2135 -0.0940 -0.3802
  846MOL0     O14099  10.405   6.877   7.233 -0.5494  0.3989 -0.7177
  846MOL0     C14100  10.537   6.897   7.268 -0.1032  0.4174 -0.1470
  846MOL0     C14101  10.569   6.938   7.396 -0.6698 -1.1180 -0.8285
  846MOL0     C14102  10.696   6.958   7.436  0.2968  0.4538  0.1461
  846MOL0     C14103  10.802   6.932   7.357 -0.3509  0.2412  0.9136
  846MOL0     C14104  10.935   6.947   7.414 -0.4714  0.4018 -0.1675
  846MOL0     O14105  10.957   6.933   7.545 -0.3332 -0.2782 -0.4364
  846MOL0     C14106  11.078   6.941   7.590 -0.4404 -0.1984  0.4981
  846MOL0     C14107  11.145   6.829   7.618 -0.1695  0.0038 -0.0903
  846MOL0     C14108  11.281   6.841   7.685  0.6841 -0.2201 -0.2615
  846MOL0     C14109  11.342   6.964   7.715 -0.4283 -0.1068  0.5638
  846MOL0     O14110  11.470   6.979   7.763  0.1594  0.2713  0.1574
  846MOL0     C14111  11.507   6.867   7.852 -1.0859  0.0571  0.2322
  846MOL0     C14112  11.645   6.900   7.922 -1.1124 -0.5267 -0.8060
  846MOL0     C14113  11.636   7.045   7.993 -0.1236 -0.2140 -0.1057
  846MOL0     C14114  11.760   7.080   8.070  0.3778 -0.2647 -0.0659
  846MOL0     C14115  11.715   7.164   8.191 -0.4030 -0.5958  0.5810
  846MOL0     C14116  11.849   7.199   8.262  0.0083  0.5912 -1.0513
  846MOL0     C14117  11.836   7.259   8.411 -0.0328 -0.6254 -0.3365
  846MOL0     C14118  11.978   7.262   8.483 -0.6915 -0.3173  0.1344
  846MOL0    Cl14119  12.033   7.097   8.509  0.0902  0.0164  0.0526
  846MOL0     C14120  11.269   7.073   7.667 -0.6777  0.5806  0.0959
  846MOL0     C14121  11.138   7.068   7.615  0.2874  1.2256  0.5875
  846MOL0     O14122  11.024   6.969   7.331 -0.4026  0.1851  0.1513
  846MOL0     C14123  10.779   6.884   7.222 -0.1445  0.2069  0.2928
  846MOL0     C14124  10.644   6.859   7.187 -0.2721 -0.2893  0.1676
  846MOL0     N14125  10.054   6.714   6.643 -0.5368  0.0312  0.2940
  846MOL0     N14126  10.031   6.611   6.570 -0.1445 -0.1114 -0.3101
  846MOL0     C14127   9.240   5.951   6.264 -1.4743 -0.1875 -0.1066
  846MOL0     C14128   9.138   5.961   6.171  0.9499  0.4383 -0.6778
  846MOL0     C14129   8.880   5.875   5.832  0.0400  0.0575  0.7362
  846MOL0     C14130   8.884   5.974   5.729  0.3334 -0.2725  1.0101
  846MOL0     C14131   8.768   5.992   5.643  0.2447 -0.6022  0.4380
  846MOL0     C14132   8.644   5.923   5.664  0.0079 -0.1304  1.1547
  846MOL0     O14133   8.525   5.948   5.602 -0.5277 -0.2718 -0.0790
  846MOL0     C14134   8.511   6.082   5.541  0.3236 -0.9608 -0.6795
  846MOL0     C14135   8.534   6.071   5.394 -0.4406 -0.4621 -0.4950
  846MOL0     C14136   8.531   6.212   5.331 -0.0965  1.2020 -0.5648
  846MOL0     C14137   8.388   6.265   5.313 -0.7907  0.0135 -0.5657
  846MOL0     C14138   8.314   6.184   5.216 -0.1995 -0.1747 -1.0548
  846MOL0     C14139   8.246   6.109   5.143 -1.0212 -0.8555  0.0285
  846MOL0     C14140   8.649   5.825   5.762 -0.5221  0.3802 -1.3325
  846MOL0     C14141   8.761   5.804   5.846 -0.5395  0.6825  0.1752
  846MOL0     C14142   8.742   5.706   5.958  0.4872  0.3062 -0.0729
  846MOL0     H14143   9.321   5.992   5.892  3.1297 -1.6828  0.8439
  846MOL0     H14144   9.517   5.992   6.062  0.9116 -2.5307  0.3796
  846MOL0     H14145   9.409   6.144   6.413 -1.7030 -0.1680 -0.7650
  846MOL0     H14146   9.349   6.004   6.497 -1.1031  1.9930 -1.0117
  846MOL0     H14147   9.569   5.941   6.576 -1.0443  1.1453  3.4586
  846MOL0     H14148   9.518   6.097   6.626  2.1834  2.6666 -0.8715
  846MOL0     H14149   9.657   6.213   6.421 -1.0120  0.2327  0.6124
  846MOL0     H14150   9.721   6.056   6.404  0.3562  1.1483 -0.4752
  846MOL0     H14151   9.728   6.221   6.647 -2.3093 -0.6613 -0.1080
  846MOL0     H14152   9.819   6.066   6.626 -0.2354 -0.9326 -2.3211
  846MOL0     H14153   9.950   6.154   6.435  1.1907  1.6028  0.3466
  846MOL0     H14154   9.871   6.309   6.470 -1.0889 -0.2419 -0.6336
  846MOL0     H14155   9.960   6.311   6.700 -2.3343 -0.1428 -1.3210
  846MOL0     H14156  10.023   6.147   6.682  0.8037 -0.9146 -1.3467
  846MOL0     H14157  10.183   6.194   6.520  2.4920  0.0486  0.3445
  846MOL0     H14158  10.204   6.273   6.665 -0.5847 -5.9372  0.4855
  846MOL0     H14159  10.237   6.420   6.435  1.4087  1.8337  1.4342
  846MOL0     H14160  10.066   6.408   6.416 -0.6424  2.1760  0.2585
  846MOL0     H14161  10.331   6.539   6.676  1.3956  3.4247  2.4693
  846MOL0     H14162  10.341   6.847   6.734  0.1048  2.0021  1.7588
  846MOL0     H14163  10.182   6.902   6.780 -0.1560 -0.0573  0.0002
  846MOL0     H14164  10.173   6.767   6.968  0.1505  0.1388  1.1380
  846MOL0     H14165  10.315   6.678   6.924  0.3568  1.0373  0.1378
  846MOL0     H14166  10.289   6.966   7.020 -0.0770 -0.1610  0.2219
  846MOL0     H14167  10.445   6.899   6.964 -0.7671 -0.2308 -1.3743
  846MOL0     H14168  10.439   6.702   7.110 -1.9557 -1.8623  0.5810
  846MOL0     H14169  10.269   6.744   7.145 -0.7064  0.7963 -1.1440
  846MOL0     H14170  10.484   6.956   7.461 -0.2809 -1.6977 -0.1425
  846MOL0     H14171  10.700   6.985   7.541  0.8832 -0.8293  0.4710
  846MOL0     H14172  11.105   6.732   7.592 -1.6004  0.5940 -0.2049
  846MOL0     H14173  11.319   6.749   7.728 -0.7417 -0.4366  0.6193
  846MOL0     H14174  11.439   6.838   7.932 -1.4683  0.0087 -0.1071
  846MOL0     H14175  11.520   6.778   7.790  0.4920  1.0985 -1.0295
  846MOL0     H14176  11.681   6.826   7.993  1.5078 -0.7547 -2.2615
  846MOL0     H14177  11.727   6.918   7.851  0.6463  1.3789  1.5480
  846MOL0     H14178  11.610   7.116   7.914  3.7458 -2.4718 -3.8271
  846MOL0     H14179  11.547   7.042   8.057 -0.4939 -0.0892 -0.6094
  846MOL0     H14180  11.819   7.139   7.999  0.4419  0.7070  0.7738
  846MOL0     H14181  11.814   6.989   8.101 -0.7973 -0.9624 -0.0352
  846MOL0     H14182  11.655   7.103   8.258 -0.7177 -2.2187 -1.0943
  846MOL0     H14183  11.659   7.248   8.149 -0.1292 -0.6298  0.1334
  846MOL0     H14184  11.918   7.115   8.272  1.5856  1.9313 -0.2128
  846MOL0     H14185  11.900   7.274   8.201  0.9269 -0.9584 -2.2566
  846MOL0     H14186  11.770   7.191   8.465 -1.8101  0.3777 -1.1543
  846MOL0     H14187  11.800   7.362   8.420  1.6976  0.0231 -0.3465
  846MOL0     H14188  12.053   7.306   8.418 -0.4327 -0.4421  0.3496
  846MOL0     H14189  11.979   7.316   8.578  2.6830 -0.1157  0.1045
  846MOL0     H14190  11.315   7.170   7.686  1.1534 -0.4002  0.9512
  846MOL0     H14191  11.078   7.156   7.593 -0.5409  0.8353  1.2160
  846MOL0     H14192  10.871   6.857   7.171  0.8911  1.8799  1.1957
  846MOL0     H14193  10.634   6.824   7.085 -1.1833  2.4824 -0.7776
  846MOL0     H14194   9.219   5.941   6.370  2.4027  2.7255  1.1524
  846MOL0     H14195   9.031   5.967   6.190  0.4748 -2.4781 -1.8985
  846MOL0     H14196   8.969   6.039   5.711 -0.9047  1.4707  1.2020
  846MOL0     H14197   8.770   6.072   5.571 -1.3719  1.1410  2.1987
  846MOL0     H14198   8.578   6.156   5.585  0.1606 -1.8893  1.2112
  846MOL0     H14199   8.417   6.131   5.569  1.8165  1.6166  0.1666
  846MOL0     H14200   8.467   6.001   5.344 -2.4833 -1.0565  2.7566
  846MOL0     H14201   8.630   6.020   5.385 -2.1308 -4.5314  1.8680
  846MOL0     H14202   8.588   6.224   5.239  1.1185 -2.2402 -0.3855
  846MOL0     H14203   8.576   6.286   5.398 -0.9980  2.2929 -1.1224
  846MOL0     H14204   8.335   6.272   5.408  0.7281  1.8814  0.2187
  846MOL0     H14205   8.395   6.370   5.283  4.1660 -0.1328 -0.7438
  846MOL0     H14206   8.183   6.054   5.076 -1.3656 -0.8354  0.3363
  846MOL0     H14207   8.561   5.764   5.781  0.5262 -0.5665  0.9809
  846MOL0     H14208   8.642   5.669   5.982  0.0175  2.8619  2.5395
  846MOL0     H14209   8.806   5.619   5.936  1.1901  0.8646 -0.2690
  846MOL0     H14210   8.762   5.767   6.047 -1.8108  2.1501 -0.7326
  847MOL0     O14211   2.155   2.527  10.097 -0.8023 -0.4363 -0.2414
  847MOL0     C14212   2.183   2.444  10.179 -0.2873  0.6025  0.3446
  847MOL0     O14213   2.303   2.425  10.243 -0.4441 -0.5537  0.3063
  847MOL0     C14214   2.421   2.500  10.216  0.2850  1.0032 -0.1154
  847MOL0     C14215   2.534   2.450  10.284  0.0564  0.4979  0.3373
  847MOL0     C14216   2.659   2.496  10.260 -0.4603 -0.4657  0.0141
  847MOL0     C14217   2.689   2.603  10.176 -0.2599 -0.4693 -0.3095
  847MOL0     O14218   2.820   2.654  10.147  0.7970 -0.2933  0.9951
  847MOL0     C14219   2.911   2.647  10.252 -0.0320 -0.2996 -0.5764
  847MOL0     C14220   3.017   2.746  10.235  0.4514 -0.4577 -0.4558
  847MOL0     C14221   3.126   2.724  10.347 -0.2268  0.1642  0.0626
  847MOL0     C14222   3.230   2.843  10.355 -0.6822  0.8040 -0.1206
  847MOL0     C14223   3.318   2.824  10.482 -0.4217 -0.3592 -0.1406
  847MOL0     C14224   3.394   2.955  10.503  0.8176 -0.2866  0.0975
  847MOL0     C14225   3.484   2.936  10.623 -0.7517 -0.3606  0.1913
  847MOL0     C14226   3.612   2.866  10.583 -0.8333 -0.4055  0.4644
  847MOL0     N14227   3.706   2.852  10.703  0.0731  0.1319 -0.1611
  847MOL0     C14228   3.759   2.956  10.774  0.7142  0.5284  0.1279
  847MOL0     C14229   3.844   2.892  10.861 -0.0084 -0.2028 -0.0215
  847MOL0     C14230   3.903   2.966  10.976  1.0813  0.1569 -0.6424
  847MOL0     C14231   4.054   2.951  10.965 -0.1717  0.5393 -0.2032
  847MOL0     C14232   4.116   3.009  11.092  0.7812  0.4305  0.0371
  847MOL0     C14233   4.264   3.002  11.074  0.1955 -0.4345 -0.2228
  847MOL0     O14234   4.335   3.004  11.197 -0.6963 -0.2615 -0.6397
  847MOL0     C14235   4.473   3.036  11.212  0.8633 -0.3187  0.4380
  847MOL0     C14236   4.526   3.030  11.330  0.3649 -1.1035 -0.1910
  847MOL0     C14237   4.664   3.044  11.347 -0.7912  0.3956 -0.3522
  847MOL0     C14238   4.753   3.083  11.242  0.2801 -0.5062  0.3186
  847MOL0     C14239   4.902   3.098  11.262  0.2075  0.0002 -0.0132
  847MOL0     O14240   4.960   3.027  11.359  0.6640  0.0047  0.4451
  847MOL0     C14241   5.084   3.052  11.386 -1.1981  0.8323  0.3216
  847MOL0     C14242   5.183   2.964  11.362  0.4146  0.6662 -0.0367
  847MOL0     C14243   5.311   2.985  11.415  0.2470  0.0226 -0.8897
  847MOL0     C14244   5.353   3.105  11.475  0.5670 -0.8890  0.4086
  847MOL0     O14245   5.484   3.125  11.520  0.3157  0.0830 -0.0101
  847MOL0     C14246   5.549   3.254  11.517  0.1143 -0.3772 -0.5644
  847MOL0     C14247   5.694   3.227  11.565 -0.0332  0.9351  0.4329
  847MOL0     C14248   5.783   3.348  11.564  0.3672  0.4823  0.5603
  847MOL0     C14249   5.922   3.315  11.595  0.5213 -0.3694  0.0102
  847MOL0     C14250   6.000   3.449  11.620  0.0779 -0.5999  1.3892
  847MOL0     C14251   6.154   3.426  11.654 -0.3886  0.2670 -0.1436
  847MOL0     C14252   6.228   3.560  11.692  0.2963 -0.5269  0.2287
  847MOL0     C14253   6.338   3.555  11.792 -0.6755 -0.6308  0.3758
  847MOL0    Cl14254   6.281   3.578  11.966 -0.2217 -0.0512 -0.0462
  847MOL0     C14255   5.248   3.193  11.497 -0.2132 -1.6412 -0.1114
  847MOL0     C14256   5.114   3.164  11.466 -0.0567  0.4329 -0.0562
  847MOL0     O14257   4.960   3.176  11.185  0.2101 -0.4624  0.7665
  847MOL0     C14258   4.690   3.091  11.122  0.2573  0.2209 -0.2962
  847MOL0     C14259   4.558   3.065  11.093  0.9317 -0.1526 -0.3935
  847MOL0     N14260   3.838   2.759  10.842 -0.0860  0.5176 -0.1683
  847MOL0     N14261   3.759   2.735  10.737  0.4675 -0.3575 -0.4842
  847MOL0     C14262   2.581   2.658  10.102 -0.2124  0.1692 -0.8454
  847MOL0     C14263   2.450   2.614  10.128  0.1354  0.2848 -0.4276
  847MOL0     C14264   2.086   2.347  10.222  0.4446  0.3046  0.8064
  847MOL0     C14265   1.966   2.380  10.302 -1.0597 -0.9111  1.1902
  847MOL0     C14266   1.878   2.288  10.338  0.5402  0.3657 -0.3311
  847MOL0     C14267   1.903   2.155  10.312 -0.4140 -0.2086  0.2431
  847MOL0     O14268   1.828   2.048  10.353 -0.3456  0.0255  0.6276
  847MOL0     C14269   1.685   2.057  10.339  0.0174  0.0433  0.3681
  847MOL0     C14270   1.634   2.061  10.199 -0.4791  0.2436 -0.6679
  847MOL0     C14271   1.488   2.069  10.204  0.6290 -0.9141 -0.6683
  847MOL0     C14272   1.415   2.029  10.080 -0.0160  0.0453  0.1243
  847MOL0     C14273   1.272   2.022  10.097  0.3631 -0.7025  0.9441
  847MOL0     C14274   1.157   2.011  10.102  0.3676  0.0186 -0.9155
  847MOL0     C14275   2.007   2.122  10.233  1.1910 -0.9330 -0.2045
  847MOL0     C14276   2.101   2.209  10.182  0.1249  0.6931 -0.5915
  847MOL0     C14277   2.231   2.169  10.119 -0.3914  0.2304  0.5226
  847MOL0     H14278   2.505   2.376  10.358 -0.1489  1.1398  0.9155
  847MOL0     H14279   2.732   2.450  10.325  0.6011  0.8854 -0.1790
  847MOL0     H14280   2.855   2.677  10.341 -0.8657  1.0739 -1.5215
  847MOL0     H14281   2.949   2.546  10.268  0.2930 -0.1157 -0.1533
  847MOL0     H14282   2.972   2.844  10.253 -0.9907 -0.8387 -1.8254
  847MOL0     H14283   3.065   2.747  10.137  0.2880  1.8251 -0.5651
  847MOL0     H14284   3.179   2.630  10.331 -1.0927 -0.6625  1.7468
  847MOL0     H14285   3.081   2.714  10.446 -2.1288 -0.4925 -0.8045
  847MOL0     H14286   3.280   2.849  10.258  1.0539  0.0628  0.6979
  847MOL0     H14287   3.171   2.935  10.362  0.9364  2.1971 -2.9516
  847MOL0     H14288   3.273   2.808  10.581 -0.0379  0.0514  0.1036
  847MOL0     H14289   3.380   2.741  10.448 -1.0192 -1.1680  0.6866
  847MOL0     H14290   3.448   2.993  10.416  1.6106  4.6909  2.4409
  847MOL0     H14291   3.322   3.034  10.525  0.6961 -0.5968  0.8379
  847MOL0     H14292   3.434   2.878  10.701 -1.8449 -1.4450 -1.2814
  847MOL0     H14293   3.508   3.038  10.657  2.0854 -0.4299 -1.2867
  847MOL0     H14294   3.596   2.763  10.552  0.3739 -0.2433 -0.7908
  847MOL0     H14295   3.665   2.924  10.507  1.2644 -2.9285 -0.1517
  847MOL0     H14296   3.739   3.062  10.761 -0.5005  0.2966 -0.0726
  847MOL0     H14297   3.879   3.073  10.974 -1.6851 -0.3657  0.2770
  847MOL0     H14298   3.869   2.925  11.071  1.3420 -2.2267 -1.5074
  847MOL0     H14299   4.081   2.845  10.960 -0.1130  0.6080 -1.5334
  847MOL0     H14300   4.088   2.997  10.872 -0.2025  1.4420  0.2157
  847MOL0     H14301   4.079   2.958  11.182 -0.1383  1.7644  0.4451
  847MOL0     H14302   4.085   3.114  11.102 -1.2848  0.0076 -1.3207
  847MOL0     H14303   4.304   3.080  11.008  0.6962  0.1534  0.7591
  847MOL0     H14304   4.278   2.910  11.018 -3.4443 -0.4493 -1.4022
  847MOL0     H14305   4.462   3.001  11.413  0.4533  0.1234  0.3311
  847MOL0     H14306   4.715   3.030  11.442 -0.9404  0.5310 -0.2493
  847MOL0     H14307   5.151   2.877  11.305 -1.7270  0.6914  1.0178
  847MOL0     H14308   5.384   2.908  11.392 -2.0019 -1.5763 -3.3650
  847MOL0     H14309   5.558   3.305  11.421 -2.1726  1.8007  0.2569
  847MOL0     H14310   5.495   3.320  11.585 -0.0191 -2.8980  1.9639
  847MOL0     H14311   5.683   3.187  11.666  2.8319  2.0345  1.2799
  847MOL0     H14312   5.735   3.145  11.505 -2.5881 -0.9870  1.1290
  847MOL0     H14313   5.779   3.392  11.464  0.3577 -1.3262 -0.2775
  847MOL0     H14314   5.750   3.417  11.643 -0.3300  1.9695 -0.9550
  847MOL0     H14315   5.974   3.273  11.508  2.9897  2.0178  0.1929
  847MOL0     H14316   5.934   3.235  11.669  4.1225  0.4977  0.5458
  847MOL0     H14317   5.953   3.498  11.705 -1.1874  1.1016 -0.1881
  847MOL0     H14318   5.987   3.527  11.543  1.2846 -0.4274  1.3439
  847MOL0     H14319   6.164   3.357  11.738  0.9124  0.2203 -0.3211
  847MOL0     H14320   6.211   3.378  11.574 -0.5464 -1.9032  0.9565
  847MOL0     H14321   6.158   3.633  11.734 -0.8326 -1.9210  0.8631
  847MOL0     H14322   6.265   3.608  11.601  0.4500  0.7387  0.9248
  847MOL0     H14323   6.405   3.468  11.783  2.2766  1.3941  1.1385
  847MOL0     H14324   6.405   3.640  11.776 -1.6860 -0.1915 -1.7952
  847MOL0     H14325   5.268   3.290  11.542  2.5649 -1.6113 -1.1861
  847MOL0     H14326   5.032   3.224  11.504 -0.3127  2.8427 -3.8271
  847MOL0     H14327   4.746   3.111  11.031 -1.7206  2.2560 -1.1508
  847MOL0     H14328   4.512   3.052  10.996 -1.4788 -0.3635  0.6773
  847MOL0     H14329   2.604   2.745  10.042 -1.6053 -0.3341 -2.1829
  847MOL0     H14330   2.373   2.661  10.068 -3.3251 -2.4725  1.4394
  847MOL0     H14331   1.948   2.479  10.341 -1.6324 -0.6099  0.2083
  847MOL0     H14332   1.797   2.310  10.407  1.3411 -1.0207  1.1017
  847MOL0     H14333   1.648   2.141  10.399 -0.2502 -0.3302  0.7347
  847MOL0     H14334   1.644   1.967  10.386  2.3034  0.5869  3.7551
  847MOL0     H14335   1.668   1.970  10.148  0.1240  0.7878 -1.2533
  847MOL0     H14336   1.677   2.144  10.142  1.1598  0.5198  0.8994
  847MOL0     H14337   1.459   2.173  10.225  2.9550 -0.8911  3.4418
  847MOL0     H14338   1.445   2.014  10.288  1.7870  0.4197  0.8580
  847MOL0     H14339   1.437   2.101  10.000  0.3604  2.7221  2.4558
  847MOL0     H14340   1.446   1.926  10.062 -2.6424 -0.6018 -1.0289
  847MOL0     H14341   1.055   1.980  10.110  0.1441  1.2728  2.6007
  847MOL0     H14342   2.026   2.023  10.192  2.9045 -0.4099 -0.7448
  847MOL0     H14343   2.306   2.120  10.182 -1.5680 -0.4102  1.4647
  847MOL0     H14344   2.213   2.098  10.037  0.9368  1.4937 -0.9513
  847MOL0     H14345   2.281   2.242  10.054 -2.0350 -0.9126 -2.2235
  848MOL0     O14346   7.717   6.797   8.491 -0.1092  0.9545 -0.7414
  848MOL0     C14347   7.759   6.794   8.605 -0.1497  0.1777 -0.4182
  848MOL0     O14348   7.884   6.812   8.641  1.2454  0.4212 -0.2363
  848MOL0     C14349   7.987   6.851   8.559  0.7384  0.4705  0.3142
  848MOL0     C14350   7.987   6.977   8.502  0.4298 -0.1331  0.0953
  848MOL0     C14351   8.105   7.027   8.446 -1.1814  0.3686 -0.6024
  848MOL0     C14352   8.225   6.957   8.455 -0.0025 -0.4624 -0.0387
  848MOL0     O14353   8.335   7.018   8.401 -0.1592 -0.2983  0.5846
  848MOL0     C14354   8.470   6.979   8.441 -0.6713  0.2940 -0.3462
  848MOL0     C14355   8.517   6.856   8.352  0.0760 -0.0502  0.1854
  848MOL0     C14356   8.666   6.841   8.367 -0.3331 -0.3250 -0.0736
  848MOL0     C14357   8.734   6.936   8.270  0.0565  0.0061  0.8637
  848MOL0     C14358   8.880   6.975   8.296 -0.2193 -0.2775  0.2500
  848MOL0     C14359   8.903   7.078   8.405 -0.4605  0.3348 -0.8428
  848MOL0     C14360   9.048   7.118   8.399 -0.2817  0.5658  0.6805
  848MOL0     C14361   9.094   7.183   8.267 -0.1035 -0.2738 -0.5005
  848MOL0     N14362   9.230   7.239   8.272 -0.0962  0.0559  0.5100
  848MOL0     C14363   9.322   7.258   8.370 -0.9212  0.1626  0.1551
  848MOL0     C14364   9.407   7.352   8.337 -0.6738 -0.5397  0.5632
  848MOL0     C14365   9.535   7.391   8.410 -0.0567  0.4071 -0.1428
  848MOL0     C14366   9.503   7.510   8.508  0.6982  0.0204  0.6232
  848MOL0     C14367   9.633   7.576   8.559  1.0822  0.4293 -0.6932
  848MOL0     C14368   9.720   7.471   8.630 -0.3784 -0.2574 -0.1033
  848MOL0     O14369   9.815   7.399   8.539 -0.2702  0.1894  0.0225
  848MOL0     C14370   9.936   7.473   8.509  0.2975 -0.0684 -0.0243
  848MOL0     C14371  10.034   7.408   8.431  0.6213  0.1800 -0.4980
  848MOL0     C14372  10.166   7.460   8.417 -0.4557  0.6001  0.7837
  848MOL0     C14373  10.194   7.586   8.457 -0.3680 -0.8030 -0.6759
  848MOL0     C14374  10.329   7.646   8.455 -0.7100  0.7969  0.7061
  848MOL0     O14375  10.384   7.705   8.560 -0.5423  0.0108 -0.9177
  848MOL0     C14376  10.518   7.754   8.554 -0.0415  0.4421  0.4624
  848MOL0     C14377  10.628   7.667   8.539  0.2473  0.5489  0.2011
  848MOL0     C14378  10.758   7.715   8.524 -0.3804 -0.5889 -0.0701
  848MOL0     C14379  10.780   7.849   8.535 -0.0765  0.1409 -1.0456
  848MOL0     O14380  10.895   7.910   8.534 -0.3596 -0.0431  0.1645
  848MOL0     C14381  11.016   7.836   8.545 -0.2822  0.2786  0.3172
  848MOL0     C14382  11.127   7.931   8.589 -1.1617 -0.6468  0.4515
  848MOL0     C14383  11.263   7.870   8.566 -0.8367 -0.1705  0.1143
  848MOL0     C14384  11.376   7.965   8.623  0.0751 -0.0958 -0.8028
  848MOL0     C14385  11.515   7.906   8.595  1.7017 -0.1778 -0.4616
  848MOL0     C14386  11.560   7.793   8.685  0.1885 -0.6498 -0.5386
  848MOL0     C14387  11.707   7.817   8.691 -0.2288  0.6042 -0.1584
  848MOL0     C14388  11.776   7.704   8.761 -0.7208 -0.3764  0.0569
  848MOL0    Cl14389  11.795   7.543   8.681 -0.1011  0.1312 -0.2180
  848MOL0     C14390  10.675   7.934   8.549 -0.6089  0.1946 -0.6200
  848MOL0     C14391  10.544   7.890   8.553  0.3562 -0.7178  0.0603
  848MOL0     O14392  10.378   7.642   8.343  0.1095  0.0236 -0.3716
  848MOL0     C14393  10.103   7.655   8.529 -0.6894  0.0757  0.4119
  848MOL0     C14394   9.979   7.605   8.562 -0.6945  0.5289  0.5203
  848MOL0     N14395   9.365   7.406   8.218 -0.0661 -0.5492  0.3177
  848MOL0     N14396   9.264   7.334   8.182 -0.3274 -0.1258  0.2691
  848MOL0     C14397   8.231   6.844   8.529  0.0477  0.8823 -0.2745
  848MOL0     C14398   8.105   6.790   8.574 -0.0522  0.2828 -0.4639
  848MOL0     C14399   7.656   6.754   8.704  1.4368  0.3157  0.3495
  848MOL0     C14400   7.547   6.832   8.720 -0.1345 -0.1544  0.1601
  848MOL0     C14401   7.446   6.794   8.810 -0.5491 -0.9742  0.4890
  848MOL0     C14402   7.452   6.679   8.884 -1.0509 -0.1429  0.4465
  848MOL0     O14403   7.364   6.639   8.978 -0.1019 -0.3498  0.2891
  848MOL0     C14404   7.258   6.726   9.020 -0.0882  0.2990  0.7690
  848MOL0     C14405   7.143   6.712   8.922 -0.4440  0.7042 -0.0404
  848MOL0     C14406   7.008   6.750   8.985 -0.4097 -0.3823 -0.0854
  848MOL0     C14407   6.922   6.849   8.905 -0.4567 -0.2841 -0.2893
  848MOL0     C14408   6.870   6.775   8.791  0.2364  0.1626  0.2090
  848MOL0     C14409   6.835   6.733   8.686  0.3701  0.8445 -0.7632
  848MOL0     C14410   7.559   6.593   8.859 -0.2142 -0.2656 -0.2193
  848MOL0     C14411   7.656   6.623   8.763  0.1794 -0.2598 -0.0884
  848MOL0     C14412   7.768   6.530   8.736 -0.5528 -0.2277 -0.2269
  848MOL0     H14413   7.889   7.020   8.487  0.5337 -0.0901 -0.4842
  848MOL0     H14414   8.119   7.125   8.401  2.2448 -0.3565 -1.3634
  848MOL0     H14415   8.524   7.072   8.418  0.1893  0.1464  0.9483
  848MOL0     H14416   8.478   6.959   8.548  3.0735  3.3019  0.1842
  848MOL0     H14417   8.490   6.861   8.247 -0.0302 -0.1290  0.2095
  848MOL0     H14418   8.471   6.765   8.390  1.1785 -0.8019 -0.2114
  848MOL0     H14419   8.701   6.737   8.357 -0.8653 -0.8277  2.4198
  848MOL0     H14420   8.704   6.879   8.462 -0.4144  0.6540 -0.4224
  848MOL0     H14421   8.724   6.896   8.169 -1.4006  0.9398  0.6061
  848MOL0     H14422   8.681   7.032   8.271 -2.5566 -1.2539 -1.6952
  848MOL0     H14423   8.941   6.888   8.322  0.4345  0.7405  2.3248
  848MOL0     H14424   8.917   7.025   8.206  2.4794  2.4796  2.6763
  848MOL0     H14425   8.845   7.170   8.394  1.0824  1.2716 -1.4084
  848MOL0     H14426   8.879   7.030   8.500  0.2018  1.0935 -0.2774
  848MOL0     H14427   9.107   7.029   8.425 -1.9495 -0.5420  0.8054
  848MOL0     H14428   9.061   7.181   8.488  0.5556  1.7981 -0.2761
  848MOL0     H14429   9.107   7.104   8.191 -0.7092 -0.0105 -0.8836
  848MOL0     H14430   9.019   7.254   8.230 -0.5803 -0.7225 -0.4038
  848MOL0     H14431   9.338   7.191   8.455  1.6253  0.1734 -0.2223
  848MOL0     H14432   9.569   7.305   8.468 -0.7049 -1.1521 -1.9929
  848MOL0     H14433   9.615   7.411   8.338  1.1155 -0.3745  0.8922
  848MOL0     H14434   9.454   7.580   8.441  1.1002 -0.7923 -0.5548
  848MOL0     H14435   9.437   7.473   8.587 -0.8153  0.7057 -0.2977
  848MOL0     H14436   9.605   7.653   8.631  0.7097 -0.5401  0.2311
  848MOL0     H14437   9.677   7.630   8.476 -0.2006  2.3783 -0.1721
  848MOL0     H14438   9.661   7.408   8.696 -1.9265  0.5874 -0.6374
  848MOL0     H14439   9.784   7.519   8.704  0.1208  1.6851 -1.6754
  848MOL0     H14440  10.003   7.310   8.394 -2.0213 -0.4745  2.9313
  848MOL0     H14441  10.256   7.408   8.385 -0.0762  2.6319 -1.7865
  848MOL0     H14442  10.601   7.563   8.549 -0.1818  0.5588 -0.7752
  848MOL0     H14443  10.841   7.646   8.511  2.0035  2.1114 -0.2901
  848MOL0     H14444  11.015   7.749   8.611 -0.4825 -0.9940 -1.2920
  848MOL0     H14445  11.061   7.797   8.453  3.2739  3.1019  0.6623
  848MOL0     H14446  11.108   8.028   8.542 -0.0545  0.6793  2.5885
  848MOL0     H14447  11.106   7.948   8.695 -3.0728  1.6506 -0.2028
  848MOL0     H14448  11.284   7.784   8.630 -0.3245  1.6245  2.4824
  848MOL0     H14449  11.277   7.836   8.463 -0.6201 -0.1362  0.1317
  848MOL0     H14450  11.356   7.977   8.730 -0.0529 -1.8681 -0.6013
  848MOL0     H14451  11.368   8.060   8.569  0.2767  0.5480  0.2701
  848MOL0     H14452  11.583   7.990   8.608  1.0578  0.4526 -1.1354
  848MOL0     H14453  11.514   7.879   8.489 -1.4074 -0.5587 -0.4159
  848MOL0     H14454  11.509   7.794   8.782 -1.6413 -1.3956 -1.4373
  848MOL0     H14455  11.534   7.698   8.636 -2.1319  1.4918 -3.9057
  848MOL0     H14456  11.726   7.910   8.743  1.9663 -0.5847  1.3117
  848MOL0     H14457  11.762   7.824   8.596  1.9007  1.3657  1.0771
  848MOL0     H14458  11.876   7.747   8.773 -0.8573 -0.3222  1.1664
  848MOL0     H14459  11.736   7.690   8.862 -0.8126  2.3378  0.4653
  848MOL0     H14460  10.693   8.040   8.569  0.5813  0.6908 -3.7143
  848MOL0     H14461  10.459   7.957   8.562  1.2381  1.0033 -2.8227
  848MOL0     H14462  10.138   7.756   8.549  0.9567  0.3545 -3.0697
  848MOL0     H14463   9.914   7.665   8.624  2.1694  1.9903  2.3262
  848MOL0     H14464   8.327   6.803   8.559  0.6414  2.6915  0.4251
  848MOL0     H14465   8.109   6.703   8.639  2.4194 -1.1171 -2.2901
  848MOL0     H14466   7.553   6.925   8.665  0.9150  0.5621  1.4316
  848MOL0     H14467   7.365   6.866   8.811  0.7126  0.5191  1.8852
  848MOL0     H14468   7.291   6.830   9.011  0.8349 -0.0676 -0.3708
  848MOL0     H14469   7.231   6.696   9.122 -2.8656  0.3694  0.1190
  848MOL0     H14470   7.142   6.609   8.886  0.3140  0.9081 -0.6846
  848MOL0     H14471   7.157   6.775   8.833 -0.2595  1.2334  0.3548
  848MOL0     H14472   7.028   6.791   9.084  1.5478  2.0931 -1.3615
  848MOL0     H14473   6.958   6.654   8.999  1.6784 -1.7918 -1.6463
  848MOL0     H14474   6.843   6.889   8.969 -0.2769 -1.0162  0.3986
  848MOL0     H14475   6.996   6.925   8.880  0.4742 -0.6403  1.3056
  848MOL0     H14476   6.799   6.691   8.594 -0.7926 -0.5532  0.2793
  848MOL0     H14477   7.565   6.505   8.922  0.4724 -0.9260 -1.1639
  848MOL0     H14478   7.842   6.526   8.817 -0.8041  0.6048  0.0540
  848MOL0     H14479   7.714   6.435   8.738  0.9406 -1.0966  0.9373
  848MOL0     H14480   7.826   6.550   8.644  2.9310 -1.7238  1.4580
  849MOL0     O14481   9.354   1.360   7.573 -0.2758 -0.0014  0.0823
  849MOL0     C14482   9.318   1.381   7.689 -0.5270 -0.6476  0.0339
  849MOL0     O14483   9.386   1.349   7.803 -0.8474  1.5808  0.2854
  849MOL0     C14484   9.502   1.280   7.786 -0.0276 -0.7648  0.1665
  849MOL0     C14485   9.513   1.139   7.762  0.3563 -1.0133 -0.4205
  849MOL0     C14486   9.637   1.076   7.761 -0.5931  0.4420 -0.5036
  849MOL0     C14487   9.755   1.147   7.768  0.5722 -0.3589  1.0180
  849MOL0     O14488   9.871   1.077   7.781  0.1197  0.2051  0.5232
  849MOL0     C14489   9.989   1.141   7.745  0.0147 -0.6653  0.5012
  849MOL0     C14490  10.115   1.054   7.777  0.3478 -0.2230  1.4858
  849MOL0     C14491  10.127   0.991   7.912  0.8594  0.2253  0.1749
  849MOL0     C14492  10.174   1.093   8.011  0.2452  0.5379 -0.6469
  849MOL0     C14493  10.151   1.018   8.155  0.0755 -0.2165  0.2652
  849MOL0     C14494  10.221   1.096   8.269  0.2606  0.3233 -0.3602
  849MOL0     C14495  10.177   1.032   8.402  0.0909  0.2226 -0.0169
  849MOL0     C14496  10.240   1.098   8.530 -0.3555  0.4175 -0.8548
  849MOL0     N14497  10.379   1.073   8.547  0.3693 -0.0490 -0.0531
  849MOL0     C14498  10.484   1.153   8.507  0.3851  1.0284  0.2091
  849MOL0     C14499  10.601   1.111   8.567  0.0208  0.6001 -0.3008
  849MOL0     C14500  10.746   1.159   8.558  0.4449  0.6465  0.1413
  849MOL0     C14501  10.837   1.039   8.527 -0.2406 -0.0790  0.3996
  849MOL0     C14502  10.979   1.092   8.495  0.3255  0.3568 -0.2065
  849MOL0     C14503  11.083   0.982   8.486  0.1952  0.3253 -0.3090
  849MOL0     O14504  11.207   1.043   8.451 -0.2000  0.2218 -0.2001
  849MOL0     C14505  11.329   0.996   8.486 -0.2567  0.9573  0.4929
  849MOL0     C14506  11.348   0.878   8.563 -0.3539  1.3510 -0.4687
  849MOL0     C14507  11.481   0.837   8.586  0.0197 -0.1313  0.3472
  849MOL0     C14508  11.586   0.912   8.540 -0.1456  0.1511  0.2664
  849MOL0     C14509  11.722   0.864   8.569  0.1327 -0.1468  0.1906
  849MOL0     O14510  11.743   0.764   8.651  0.5260 -0.2990 -1.1487
  849MOL0     C14511  11.862   0.723   8.701 -0.7991  0.1024  0.9141
  849MOL0     C14512  11.922   0.612   8.644 -0.3812  0.2338  1.1409
  849MOL0     C14513  12.045   0.557   8.697 -0.1709  0.6899 -0.1028
  849MOL0     C14514  12.116   0.625   8.788 -0.6439 -0.0261 -0.0069
  849MOL0     O14515  12.231   0.570   8.840 -0.4502  1.3306 -0.1026
  849MOL0     C14516  12.356   0.646   8.829  0.9416  0.3462  0.3496
  849MOL0     C14517  12.437   0.630   8.957 -0.4137 -0.6690 -0.1621
  849MOL0     C14518  12.478   0.489   8.998  0.6806 -0.2318  0.8543
  849MOL0     C14519  12.553   0.494   9.130 -0.4381  0.0286  0.0016
  849MOL0     C14520  12.591   0.350   9.179  0.0003 -0.7280  0.2372
  849MOL0     C14521  12.639   0.357   9.328 -0.5501  0.8294  0.4397
  849MOL0     C14522  12.760   0.437   9.358  0.1433  0.7120  0.2116
  849MOL0     C14523  12.807   0.425   9.500 -0.0164  0.2034  0.0108
  849MOL0    Cl14524  12.891   0.270   9.525  0.3990  0.0980  0.0253
  849MOL0     C14525  12.052   0.735   8.851 -0.6163 -0.0692 -0.2605
  849MOL0     C14526  11.925   0.784   8.811  0.4468 -0.3909 -0.7924
  849MOL0     O14527  11.812   0.927   8.514 -0.9323  0.5349  0.2019
  849MOL0     C14528  11.567   1.027   8.462  0.2576  0.0885  0.3866
  849MOL0     C14529  11.434   1.067   8.435  0.0909 -0.1903  0.2718
  849MOL0     N14530  10.553   1.003   8.646  0.2846  0.5949  0.3437
  849MOL0     N14531  10.427   0.975   8.629  0.2608 -0.5610  0.2491
  849MOL0     C14532   9.747   1.284   7.793  1.2448  0.5171 -0.7038
  849MOL0     C14533   9.619   1.346   7.802 -0.9237 -0.4924 -0.1063
  849MOL0     C14534   9.196   1.466   7.696  0.5465  0.0886  0.8073
  849MOL0     C14535   9.089   1.425   7.617 -0.5159 -0.8042  0.7337
  849MOL0     C14536   8.972   1.497   7.625  0.1430  0.3639  0.4735
  849MOL0     C14537   8.941   1.591   7.728 -1.0129 -0.2516  0.2818
  849MOL0     O14538   8.829   1.668   7.743  0.1495 -0.0193  0.6635
  849MOL0     C14539   8.703   1.604   7.742  0.0022  0.2615 -0.0817
  849MOL0     C14540   8.632   1.636   7.882  0.0227  0.6948 -0.5012
  849MOL0     C14541   8.720   1.557   7.997  0.4382 -0.5186 -0.5360
  849MOL0     C14542   8.706   1.629   8.134  0.4459 -0.4513 -0.3644
  849MOL0     C14543   8.814   1.723   8.153  0.8215 -0.0730  0.2491
  849MOL0     C14544   8.913   1.799   8.171  0.5770  0.4184  0.7079
  849MOL0     C14545   9.047   1.606   7.814  0.1490 -0.5230  0.2345
  849MOL0     C14546   9.171   1.545   7.813 -0.2018  0.2705  0.8218
  849MOL0     C14547   9.275   1.582   7.908 -0.2331 -0.1204 -0.5011
  849MOL0     H14548   9.420   1.084   7.754  1.7347 -3.4396 -0.6851
  849MOL0     H14549   9.653   0.970   7.744  2.6501 -0.0750  3.9378
  849MOL0     H14550   9.999   1.167   7.639 -1.7926 -0.1391  0.4142
  849MOL0     H14551  10.001   1.239   7.792  2.1995  0.7395 -2.6553
  849MOL0     H14552  10.211   1.105   7.760  1.2446 -2.1372  0.4403
  849MOL0     H14553  10.102   0.971   7.706 -2.7913 -0.1800  1.8939
  849MOL0     H14554  10.189   0.902   7.900  1.7011  0.8248  0.0105
  849MOL0     H14555  10.026   0.950   7.931  1.1898 -0.6760  0.0554
  849MOL0     H14556  10.281   1.115   8.002  1.4554 -3.2783  1.8288
  849MOL0     H14557  10.113   1.183   8.000 -1.3841 -0.6018 -1.2062
  849MOL0     H14558  10.044   1.009   8.178 -0.9638  2.2228 -2.8782
  849MOL0     H14559  10.201   0.921   8.155  2.0633  0.7414 -0.6218
  849MOL0     H14560  10.331   1.102   8.265  0.2356  1.2637 -0.0718
  849MOL0     H14561  10.178   1.197   8.276 -2.8321 -0.9673  0.9516
  849MOL0     H14562  10.214   0.929   8.397  3.7798  1.4243 -0.2106
  849MOL0     H14563  10.068   1.036   8.408  0.0113  0.1990 -1.3343
  849MOL0     H14564  10.227   1.207   8.524  0.4193  0.4949 -1.2375
  849MOL0     H14565  10.182   1.068   8.618 -0.5616  3.5160  0.1840
  849MOL0     H14566  10.468   1.238   8.441  1.3845  0.3890 -0.9032
  849MOL0     H14567  10.758   1.243   8.489  0.1092  0.5136 -0.0763
  849MOL0     H14568  10.761   1.189   8.663 -1.9599  0.3863  0.6052
  849MOL0     H14569  10.846   0.981   8.620 -3.1133  0.0984  0.8833
  849MOL0     H14570  10.798   0.980   8.443 -0.6431 -0.1468  0.6335
  849MOL0     H14571  11.007   1.166   8.571  1.6700  1.1642 -1.4229
  849MOL0     H14572  10.969   1.132   8.394 -1.0319 -1.7272 -0.9560
  849MOL0     H14573  11.049   0.905   8.415 -3.7088 -1.3768  2.9541
  849MOL0     H14574  11.089   0.933   8.583  0.6130 -2.3005 -1.5623
  849MOL0     H14575  11.269   0.808   8.587  3.1962 -2.8329  0.2200
  849MOL0     H14576  11.494   0.744   8.641 -1.0927  1.2747  3.2269
  849MOL0     H14577  11.879   0.565   8.556 -0.2676  1.5359  0.3625
  849MOL0     H14578  12.078   0.461   8.659 -1.9046 -1.0104  2.4259
  849MOL0     H14579  12.415   0.612   8.743  1.0503  2.1377 -0.3085
  849MOL0     H14580  12.343   0.748   8.794  1.8167  0.5766  0.6554
  849MOL0     H14581  12.526   0.694   8.957 -1.0251  0.2589  1.8198
  849MOL0     H14582  12.387   0.679   9.041  0.5303  1.8783 -0.9940
  849MOL0     H14583  12.389   0.430   9.023  0.7786 -1.4613 -1.4544
  849MOL0     H14584  12.544   0.448   8.921  0.5605 -0.8986  1.1012
  849MOL0     H14585  12.496   0.545   9.209  2.7750  0.9008  1.9684
  849MOL0     H14586  12.650   0.546   9.127  0.0073 -0.8143 -0.9570
  849MOL0     H14587  12.667   0.310   9.112  1.9825  1.7811  0.8310
  849MOL0     H14588  12.503   0.285   9.167  2.1987 -3.6268 -1.3977
  849MOL0     H14589  12.553   0.388   9.388 -0.1962 -1.2007  2.0933
  849MOL0     H14590  12.670   0.257   9.362 -1.1700  0.3214 -0.4344
  849MOL0     H14591  12.730   0.541   9.341  1.1108  1.5981  3.3042
  849MOL0     H14592  12.846   0.410   9.296  1.2718 -1.1742  2.4326
  849MOL0     H14593  12.875   0.507   9.523  0.9169 -0.2679 -0.9956
  849MOL0     H14594  12.716   0.423   9.562 -1.2028  5.0567 -1.1718
  849MOL0     H14595  12.103   0.788   8.931  0.7729  1.8696 -2.3137
  849MOL0     H14596  11.886   0.872   8.861  0.3069 -0.3387 -0.9946
  849MOL0     H14597  11.657   1.077   8.425  2.6828 -3.2427  1.3192
  849MOL0     H14598  11.419   1.141   8.358 -4.9415 -3.6827 -2.7186
  849MOL0     H14599   9.834   1.348   7.809  0.1368  1.5954  1.4607
  849MOL0     H14600   9.617   1.454   7.811 -4.1782 -0.3458 -1.3286
  849MOL0     H14601   9.105   1.355   7.535 -1.2000  0.4522 -0.5058
  849MOL0     H14602   8.905   1.474   7.542 -0.4450 -0.1262  1.0720
  849MOL0     H14603   8.720   1.497   7.725  1.6899  0.8436 -2.7413
  849MOL0     H14604   8.645   1.638   7.655  1.2007 -1.8241 -1.8226
  849MOL0     H14605   8.529   1.600   7.887 -0.1713  1.2098 -0.7458
  849MOL0     H14606   8.640   1.744   7.896  0.7979  0.7905 -1.5558
  849MOL0     H14607   8.823   1.543   7.965 -0.1103 -2.6997 -1.5335
  849MOL0     H14608   8.684   1.454   8.006  2.2035 -1.4401 -3.0404
  849MOL0     H14609   8.611   1.682   8.141  0.3368 -0.6071 -0.6420
  849MOL0     H14610   8.697   1.557   8.215 -1.4844 -0.7808 -0.8290
  849MOL0     H14611   8.988   1.872   8.190 -1.8526  3.2218  0.2240
  849MOL0     H14612   9.020   1.654   7.908  1.4208 -2.8381  1.8983
  849MOL0     H14613   9.370   1.594   7.855  0.3557 -0.3807  0.4719
  849MOL0     H14614   9.253   1.672   7.967 -0.4422  0.1253 -0.9463
  849MOL0     H14615   9.289   1.502   7.981  1.5981 -1.6556 -2.3936
  850MOL0     O14616  10.528   1.319   1.612 -0.3602  0.1153  0.3599
  850MOL0     C14617  10.494   1.241   1.695  0.7690  0.2539  0.2334
  850MOL0     O14618  10.362   1.214   1.722 -0.6660  0.0235 -0.4163
  850MOL0     C14619  10.303   1.323   1.779  0.3761 -1.0184  0.0035
  850MOL0     C14620  10.161   1.315   1.773  0.1596  0.0377  1.3647
  850MOL0     C14621  10.070   1.419   1.818  0.1772 -0.4081 -0.4764
  850MOL0     C14622  10.129   1.535   1.874 -0.3576 -0.1790 -0.8058
  850MOL0     O14623  10.049   1.646   1.910  0.6316 -0.6298  0.0119
  850MOL0     C14624   9.906   1.627   1.917  0.2127 -0.1999  0.6583
  850MOL0     C14625   9.857   1.765   1.962  0.2677  0.1912 -0.3586
  850MOL0     C14626   9.708   1.786   1.924  0.3696 -0.4419  0.5091
  850MOL0     C14627   9.638   1.909   1.987  0.3674  0.2229 -0.0922
  850MOL0     C14628   9.484   1.906   1.950 -0.0288 -0.0482  0.2862
  850MOL0     C14629   9.429   2.046   1.972 -0.4554 -0.1539 -0.9777
  850MOL0     C14630   9.282   2.053   1.972 -0.4528  0.8948  0.8935
  850MOL0     C14631   9.216   1.993   1.847  0.4299  0.2449 -0.1813
  850MOL0     N14632   9.081   2.025   1.840  0.3922  0.3564 -0.3599
  850MOL0     C14633   9.007   2.146   1.833  0.0131 -0.0590  0.0418
  850MOL0     C14634   8.873   2.102   1.854  0.1552 -0.6928  0.5201
  850MOL0     C14635   8.754   2.188   1.862  0.3708 -0.2349 -0.1315
  850MOL0     C14636   8.732   2.242   1.722  0.2198  0.3530  0.1631
  850MOL0     C14637   8.599   2.325   1.727 -0.8745 -0.2260 -0.1491
  850MOL0     C14638   8.557   2.372   1.590  0.4009 -0.6560 -0.4033
  850MOL0     O14639   8.631   2.484   1.537  0.1448 -0.1088  0.0425
  850MOL0     C14640   8.621   2.523   1.406  1.0980  0.4041  0.0016
  850MOL0     C14641   8.541   2.462   1.306  0.2400 -0.9363 -0.1129
  850MOL0     C14642   8.525   2.516   1.179 -0.2481  0.9206  0.8381
  850MOL0     C14643   8.590   2.639   1.153  0.0805 -0.8527 -0.6747
  850MOL0     C14644   8.579   2.696   1.011 -0.1439  0.2171 -0.5612
  850MOL0     O14645   8.549   2.615   0.907 -0.3832 -0.1041 -0.3187
  850MOL0     C14646   8.577   2.654   0.772  0.0954  0.4444 -0.8593
  850MOL0     C14647   8.646   2.764   0.723 -0.7717 -0.3235 -0.3468
  850MOL0     C14648   8.643   2.807   0.588 -0.9305 -0.3113  0.3327
  850MOL0     C14649   8.581   2.719   0.490 -0.3266 -0.3102  0.0154
  850MOL0     O14650   8.581   2.750   0.350  0.3042  0.2200  0.2472
  850MOL0     C14651   8.633   2.881   0.299  0.4094 -0.5696  0.4616
  850MOL0     C14652   8.666   2.881   0.150  0.1148  0.6389 -0.5244
  850MOL0     C14653   8.547   2.829   0.062 -0.4873  0.1105 -0.0163
  850MOL0     C14654   8.421   2.924   0.062  0.1140  0.1282  0.5001
  850MOL0     C14655   8.344   2.916  -0.078 -0.3398  0.0504 -0.2004
  850MOL0     C14656   8.217   3.001  -0.093  0.3646 -0.2821 -0.7461
  850MOL0     C14657   8.103   2.957   0.003  0.6180  0.9437  0.3718
  850MOL0     C14658   8.074   2.817   0.004 -0.1370  0.5061  0.5924
  850MOL0    Cl14659   8.080   2.732  -0.154  0.1023 -0.5269 -0.2657
  850MOL0     C14660   8.530   2.597   0.531  0.5277 -0.9808 -0.4848
  850MOL0     C14661   8.516   2.570   0.670 -0.4224 -0.6485 -0.0550
  850MOL0     O14662   8.587   2.816   0.996 -0.2422  0.0964 -0.4937
  850MOL0     C14663   8.667   2.705   1.251  0.4165 -0.0656  0.1244
  850MOL0     C14664   8.681   2.642   1.377  0.2218 -0.1107 -0.2909
  850MOL0     N14665   8.867   1.963   1.854 -0.5145 -0.0877 -0.0133
  850MOL0     N14666   8.991   1.922   1.854 -1.8171  0.5736  0.0184
  850MOL0     C14667  10.263   1.556   1.865  0.3455 -0.8775  0.4387
  850MOL0     C14668  10.351   1.449   1.827 -0.3150  0.5429  0.4813
  850MOL0     C14669  10.588   1.184   1.792  0.1617  0.2923  0.8142
  850MOL0     C14670  10.545   1.063   1.848  0.8163 -1.1612 -0.1124
  850MOL0     C14671  10.618   0.995   1.945  0.4812 -0.0077  0.7946
  850MOL0     C14672  10.742   1.042   1.981  0.2769  0.6283 -0.2991
  850MOL0     O14673  10.830   0.977   2.064  0.7430 -0.2235 -1.0556
  850MOL0     C14674  10.769   0.881   2.158 -0.5906 -0.4851  0.1115
  850MOL0     C14675  10.888   0.778   2.206 -1.2233 -0.2644 -0.6794
  850MOL0     C14676  10.999   0.866   2.262  0.0563 -0.8859 -0.5969
  850MOL0     C14677  11.094   0.888   2.141 -0.4603  0.0226 -0.6418
  850MOL0     C14678  11.225   0.941   2.189 -0.8246 -0.0426 -0.5530
  850MOL0     C14679  11.327   0.990   2.240  0.1409 -0.2601 -0.2200
  850MOL0     C14680  10.791   1.166   1.931  0.1998 -0.8681 -0.4518
  850MOL0     C14681  10.713   1.238   1.832 -0.7021 -0.0576 -0.1702
  850MOL0     C14682  10.778   1.351   1.767  0.6693 -0.3008  0.0083
  850MOL0     H14683  10.118   1.225   1.732 -2.4737  1.2345  1.3338
  850MOL0     H14684   9.965   1.424   1.791  1.0354  4.3917 -4.3691
  850MOL0     H14685   9.870   1.600   1.817 -1.1317 -4.3953  2.0400
  850MOL0     H14686   9.882   1.545   1.985  2.4487  0.2451  2.0650
  850MOL0     H14687   9.921   1.850   1.937  2.8555 -1.2393  0.9688
  850MOL0     H14688   9.860   1.758   2.071  1.3707 -1.2768 -0.4494
  850MOL0     H14689   9.656   1.695   1.956  2.9123 -1.6255  1.6062
  850MOL0     H14690   9.714   1.784   1.815  1.4521  0.4437  0.5431
  850MOL0     H14691   9.663   1.914   2.094  1.0397  4.0813 -0.2654
  850MOL0     H14692   9.685   2.000   1.947 -0.5493  0.5147 -0.5286
  850MOL0     H14693   9.463   1.868   1.849 -0.5180 -0.3929  0.5156
  850MOL0     H14694   9.435   1.824   2.002  2.8225 -2.8432 -1.1075
  850MOL0     H14695   9.463   2.079   2.070 -1.4828  2.2659 -1.3748
  850MOL0     H14696   9.468   2.107   1.890 -0.4973 -2.9790 -3.2843
  850MOL0     H14697   9.251   2.157   1.986 -1.1311  0.4916  2.6315
  850MOL0     H14698   9.250   2.010   2.067 -0.7704 -0.5712  0.1557
  850MOL0     H14699   9.267   2.037   1.761  1.9543 -0.1731  0.4698
  850MOL0     H14700   9.240   1.886   1.846  2.6076  0.5585  3.0045
  850MOL0     H14701   9.055   2.243   1.831 -0.1991  0.0588  0.4913
  850MOL0     H14702   8.666   2.128   1.889 -0.8970  1.3145 -0.6452
  850MOL0     H14703   8.767   2.274   1.928 -2.1286  0.1137  0.0366
  850MOL0     H14704   8.819   2.291   1.677  1.1732 -1.4979 -0.0975
  850MOL0     H14705   8.722   2.149   1.664 -1.3390  0.3641  0.3890
  850MOL0     H14706   8.614   2.410   1.795  1.7050 -0.1687 -0.6874
  850MOL0     H14707   8.515   2.273   1.774 -0.4576 -0.3645  0.4586
  850MOL0     H14708   8.454   2.410   1.600  0.2358 -1.1564 -0.1996
  850MOL0     H14709   8.562   2.290   1.518  2.3782 -1.2821  0.3897
  850MOL0     H14710   8.503   2.364   1.334  0.7018 -0.5695  1.9368
  850MOL0     H14711   8.464   2.459   1.110  0.7662  1.1104 -0.2538
  850MOL0     H14712   8.688   2.842   0.786  0.3301  0.2087 -1.6878
  850MOL0     H14713   8.686   2.900   0.552  0.0796 -1.5589 -1.9466
  850MOL0     H14714   8.562   2.961   0.321 -0.9943 -1.9907  1.2921
  850MOL0     H14715   8.728   2.912   0.343  0.3806 -1.7147  1.3810
  850MOL0     H14716   8.687   2.981   0.110 -1.4252  1.5078  0.7114
  850MOL0     H14717   8.751   2.815   0.130 -0.7785  0.1254 -2.9846
  850MOL0     H14718   8.586   2.816  -0.039 -0.2704  4.1162 -0.6300
  850MOL0     H14719   8.520   2.729   0.096 -1.4667 -0.2280 -1.6540
  850MOL0     H14720   8.453   3.029   0.067 -1.9861  0.7713  1.1421
  850MOL0     H14721   8.351   2.902   0.143 -2.3333  1.0385 -1.2577
  850MOL0     H14722   8.316   2.816  -0.114  4.3351 -0.8234 -2.1955
  850MOL0     H14723   8.427   2.950  -0.141 -0.2457  2.2974  1.0497
  850MOL0     H14724   8.237   3.107  -0.074 -3.2538  0.2989  0.7259
  850MOL0     H14725   8.177   3.005  -0.195  0.1637  0.1339 -0.6550
  850MOL0     H14726   8.015   3.012  -0.031  0.6462  1.3311  0.9080
  850MOL0     H14727   8.128   3.002   0.099 -1.5456 -0.4486  1.6625
  850MOL0     H14728   8.132   2.765   0.081 -1.6273 -0.8565  0.8577
  850MOL0     H14729   7.970   2.802   0.034 -0.2274  0.0337  0.0682
  850MOL0     H14730   8.485   2.531   0.457  0.8188 -2.1006  0.3172
  850MOL0     H14731   8.478   2.474   0.706 -3.1170  0.2489 -0.2839
  850MOL0     H14732   8.710   2.799   1.216  1.5726 -1.6026 -2.8756
  850MOL0     H14733   8.743   2.681   1.458  0.8354 -0.7480 -0.4408
  850MOL0     H14734  10.307   1.651   1.894 -0.1232 -0.0193 -1.4328
  850MOL0     H14735  10.455   1.478   1.821 -0.1385 -0.3264 -2.1130
  850MOL0     H14736  10.451   1.016   1.820  1.4843 -1.9021 -1.1837
  850MOL0     H14737  10.572   0.906   1.986 -1.9261  1.7244  2.1697
  850MOL0     H14738  10.696   0.814   2.110 -1.9230  1.6178 -0.9187
  850MOL0     H14739  10.724   0.937   2.240  2.3535 -0.0229  1.5236
  850MOL0     H14740  10.915   0.724   2.116 -2.3839 -2.9575  0.4800
  850MOL0     H14741  10.861   0.712   2.289  0.8585  0.2902  0.5117
  850MOL0     H14742  11.046   0.808   2.341 -1.1412  0.0577  0.8627
  850MOL0     H14743  10.962   0.959   2.306  2.2424 -0.0328 -0.4060
  850MOL0     H14744  11.110   0.792   2.091 -3.1157 -0.4369 -0.7463
  850MOL0     H14745  11.062   0.965   2.070 -0.2056  0.1700 -0.5991
  850MOL0     H14746  11.410   1.043   2.284 -0.4816  0.7064 -0.1689
  850MOL0     H14747  10.885   1.212   1.957 -1.0460  3.2948 -2.5009
  850MOL0     H14748  10.807   1.331   1.664  0.4363 -1.2244  0.1104
  850MOL0     H14749  10.695   1.422   1.770 -0.0136 -1.0666 -0.3710
  850MOL0     H14750  10.867   1.394   1.814  0.1321  1.8151 -0.7843
  851MOL0     O14751   3.403   3.033   3.558  0.0743  0.0278  0.4950
  851MOL0     C14752   3.331   3.117   3.608  0.5149 -0.4247 -0.4911
  851MOL0     O14753   3.372   3.221   3.690 -0.1762 -0.2892 -0.2815
  851MOL0     C14754   3.506   3.228   3.716 -0.0150 -0.5861 -0.2170
  851MOL0     C14755   3.552   3.213   3.849 -0.1289  0.0515 -0.1689
  851MOL0     C14756   3.682   3.240   3.883  0.6994  0.2063  0.1566
  851MOL0     C14757   3.777   3.271   3.779  0.0132  0.2982 -0.6217
  851MOL0     O14758   3.910   3.294   3.796 -0.3162 -0.2738  0.1158
  851MOL0     C14759   3.964   3.255   3.924  0.1060 -0.0967  0.6931
  851MOL0     C14760   4.112   3.241   3.893 -0.0142 -0.5045  0.8498
  851MOL0     C14761   4.196   3.217   4.015 -1.1655 -0.1627 -0.3800
  851MOL0     C14762   4.347   3.237   3.973  0.4351 -0.3639 -0.2805
  851MOL0     C14763   4.442   3.144   4.045  0.5381  0.3128 -0.9119
  851MOL0     C14764   4.576   3.140   3.964 -0.6086  0.1011  0.9749
  851MOL0     C14765   4.650   3.274   3.964  0.1201  0.4015 -0.3195
  851MOL0     C14766   4.805   3.268   3.945  0.3285  0.1183 -0.3958
  851MOL0     N14767   4.868   3.177   4.040 -0.5614 -1.0756  0.1750
  851MOL0     C14768   4.869   3.195   4.171 -0.3855  0.0420 -0.0500
  851MOL0     C14769   4.923   3.093   4.229 -0.8579 -0.3780 -0.4290
  851MOL0     C14770   4.955   3.079   4.378 -0.7378 -0.1040  0.6566
  851MOL0     C14771   4.997   2.931   4.411 -0.3024 -0.3821  0.3972
  851MOL0     C14772   5.026   2.917   4.560  0.3610 -0.4196 -0.0216
  851MOL0     C14773   5.084   2.784   4.594  0.1567 -0.1791  0.3740
  851MOL0     O14774   5.098   2.760   4.735 -0.0138 -0.5374  0.2241
  851MOL0     C14775   5.184   2.671   4.785 -0.0132  0.8764 -0.1062
  851MOL0     C14776   5.280   2.585   4.719  0.2651 -0.0217 -0.2043
  851MOL0     C14777   5.365   2.503   4.795 -0.4512 -0.3016  0.7922
  851MOL0     C14778   5.361   2.503   4.934  0.7083 -0.4420 -0.7555
  851MOL0     C14779   5.469   2.439   5.016  0.0398  0.2682 -0.1544
  851MOL0     O14780   5.452   2.443   5.151  0.0608 -0.1199 -0.3924
  851MOL0     C14781   5.545   2.390   5.236 -0.6437  0.8152 -1.0427
  851MOL0     C14782   5.687   2.420   5.237 -0.1838  0.4777 -0.2513
  851MOL0     C14783   5.779   2.364   5.328  0.3816  0.0198 -0.1978
  851MOL0     C14784   5.738   2.278   5.431  0.5512 -0.2618 -0.7298
  851MOL0     O14785   5.839   2.233   5.511 -0.2537  1.1739  0.2698
  851MOL0     C14786   5.817   2.111   5.587  0.0801 -0.1283 -0.1309
  851MOL0     C14787   5.947   2.034   5.578  0.6198  0.0151  0.0507
  851MOL0     C14788   6.025   2.043   5.703 -0.7561 -0.2721 -0.3695
  851MOL0     C14789   6.148   1.952   5.696  0.0111 -0.2785 -0.1414
  851MOL0     C14790   6.246   2.002   5.811  0.7798  0.2273  0.3934
  851MOL0     C14791   6.391   1.938   5.809 -0.1591 -0.3541 -0.2014
  851MOL0     C14792   6.489   1.987   5.914 -0.4806 -0.1644 -1.3120
  851MOL0     C14793   6.472   2.135   5.969 -1.2152  0.6141  0.2503
  851MOL0    Cl14794   6.615   2.202   6.060 -0.2165 -0.1833  0.2654
  851MOL0     C14795   5.601   2.238   5.436 -0.3427 -0.5684  0.1917
  851MOL0     C14796   5.510   2.298   5.335 -0.3740 -0.3907  0.0924
  851MOL0     O14797   5.569   2.390   4.954 -0.2467 -0.0011  0.0054
  851MOL0     C14798   5.264   2.579   4.999  0.1863 -0.0088 -0.5534
  851MOL0     C14799   5.172   2.654   4.928 -0.3759 -0.7370  0.5381
  851MOL0     N14800   4.968   3.016   4.120  0.8766 -0.6318 -0.3794
  851MOL0     N14801   4.933   3.064   4.009  0.2549  0.8154  0.2897
  851MOL0     C14802   3.735   3.285   3.648 -0.4537  0.2290  0.7619
  851MOL0     C14803   3.597   3.267   3.617  0.0946  0.3649  0.5322
  851MOL0     C14804   3.187   3.112   3.570 -0.5261 -0.3151 -0.3083
  851MOL0     C14805   3.104   3.193   3.640 -0.3268  0.3017 -0.4560
  851MOL0     C14806   2.961   3.181   3.627  1.2159 -0.0487  0.0338
  851MOL0     C14807   2.905   3.087   3.541  0.0970  0.0135 -0.3134
  851MOL0     O14808   2.772   3.057   3.514 -0.0566 -0.0093 -0.7701
  851MOL0     C14809   2.677   3.154   3.558  0.0832  0.2218  0.7303
  851MOL0     C14810   2.546   3.138   3.486  0.5591 -0.4084  0.0643
  851MOL0     C14811   2.473   3.002   3.519  0.0647  0.2007 -0.9308
  851MOL0     C14812   2.394   3.004   3.652 -0.7243 -0.8194  0.0658
  851MOL0     C14813   2.316   2.875   3.678 -0.0144  0.3200  0.9664
  851MOL0     C14814   2.251   2.776   3.674  0.1993 -0.0727 -0.1344
  851MOL0     C14815   2.995   3.013   3.463  0.0304  0.2279 -0.8345
  851MOL0     C14816   3.135   3.022   3.472  0.4447 -0.1408 -0.9653
  851MOL0     C14817   3.204   2.952   3.353 -0.7967  0.1749 -0.5459
  851MOL0     H14818   3.485   3.185   3.929 -0.8641 -0.7629 -1.0397
  851MOL0     H14819   3.719   3.226   3.984 -0.8195 -2.2983  0.4647
  851MOL0     H14820   3.947   3.337   3.994 -2.9944 -0.3881  0.4183
  851MOL0     H14821   3.930   3.158   3.963  1.9839 -1.3847 -0.7049
  851MOL0     H14822   4.147   3.334   3.847  3.4813 -2.0887 -0.0881
  851MOL0     H14823   4.124   3.164   3.816  0.2885  0.5318 -0.1710
  851MOL0     H14824   4.189   3.114   4.050  3.1358 -0.6089 -0.3109
  851MOL0     H14825   4.178   3.291   4.094 -2.4264 -2.6095  1.7836
  851MOL0     H14826   4.370   3.230   3.866  3.8766 -2.1147  0.4374
  851MOL0     H14827   4.372   3.338   4.008 -1.5204  0.1817 -0.3473
  851MOL0     H14828   4.454   3.183   4.147  0.2649 -0.0837 -0.7244
  851MOL0     H14829   4.401   3.042   4.043  3.4549 -1.0153  0.9149
  851MOL0     H14830   4.638   3.059   4.004  2.3069  2.0491  0.7876
  851MOL0     H14831   4.564   3.127   3.856  1.1817  5.7718 -0.2943
  851MOL0     H14832   4.639   3.323   4.061 -2.1453 -0.4785 -0.0678
  851MOL0     H14833   4.608   3.348   3.894 -0.0496  1.0743  0.4768
  851MOL0     H14834   4.830   3.239   3.843  2.1903 -1.3361  0.4105
  851MOL0     H14835   4.843   3.370   3.963  0.6736  0.1312 -1.1707
  851MOL0     H14836   4.827   3.282   4.221 -1.8501  1.2809 -3.1910
  851MOL0     H14837   5.039   3.145   4.400  0.8173 -1.6962 -0.2458
  851MOL0     H14838   4.864   3.110   4.430 -2.3198 -0.7461 -1.5714
  851MOL0     H14839   4.919   2.864   4.374  0.4986  0.0702 -2.3757
  851MOL0     H14840   5.094   2.909   4.365  1.1110  0.0161  2.9794
  851MOL0     H14841   4.938   2.931   4.623  0.2781  1.9811 -0.5955
  851MOL0     H14842   5.098   2.994   4.590  1.9132 -0.8441 -2.3815
  851MOL0     H14843   5.182   2.770   4.547  0.8048  0.2108  1.5542
  851MOL0     H14844   5.011   2.711   4.559 -0.6898  0.8558 -0.0815
  851MOL0     H14845   5.273   2.587   4.610 -0.4925 -1.5962 -0.2221
  851MOL0     H14846   5.440   2.445   4.742  0.2375 -0.7913  2.2265
  851MOL0     H14847   5.724   2.508   5.186 -0.2912  1.6580  1.5892
  851MOL0     H14848   5.878   2.407   5.320 -0.5851  4.4033  5.1563
  851MOL0     H14849   5.780   2.136   5.687 -0.0432  3.7933 -0.9856
  851MOL0     H14850   5.745   2.047   5.537  0.0279  0.5747 -0.9840
  851MOL0     H14851   5.913   1.932   5.557  2.4081 -0.6758  0.3314
  851MOL0     H14852   6.007   2.079   5.497 -1.4924  1.1809 -0.9487
  851MOL0     H14853   6.051   2.146   5.729 -0.4319 -0.0203 -1.6422
  851MOL0     H14854   5.968   2.004   5.788  0.9971 -1.3218  0.3833
  851MOL0     H14855   6.200   1.953   5.600 -0.7978 -0.6762 -0.5943
  851MOL0     H14856   6.125   1.847   5.714 -0.7382  0.0115  0.6216
  851MOL0     H14857   6.209   1.978   5.911  2.3319 -4.0106  0.1551
  851MOL0     H14858   6.254   2.110   5.798 -0.9806  0.0655 -2.9486
  851MOL0     H14859   6.383   1.830   5.826  0.2415 -0.6997 -2.0551
  851MOL0     H14860   6.429   1.956   5.708  1.2923 -0.5660  0.2783
  851MOL0     H14861   6.591   1.981   5.875  0.0411 -1.8484  0.1716
  851MOL0     H14862   6.481   1.917   5.998  3.1642 -0.6222 -1.1823
  851MOL0     H14863   6.452   2.201   5.884 -0.1898  1.0890  0.3572
  851MOL0     H14864   6.390   2.137   6.042 -0.9450  1.3707  0.5504
  851MOL0     H14865   5.563   2.164   5.505  0.1516 -0.0144  1.0809
  851MOL0     H14866   5.406   2.268   5.330 -0.4249 -0.3279  0.6295
  851MOL0     H14867   5.254   2.587   5.106 -1.6517  2.7182 -0.8294
  851MOL0     H14868   5.090   2.704   4.978 -0.5326 -0.2936 -0.1527
  851MOL0     H14869   3.803   3.319   3.570 -1.9729 -0.8523 -1.1212
  851MOL0     H14870   3.560   3.288   3.517  1.6127  5.0945  0.7263
  851MOL0     H14871   3.144   3.267   3.709  0.0405 -0.8819  0.6350
  851MOL0     H14872   2.893   3.241   3.687  1.4049  1.1184 -0.9028
  851MOL0     H14873   2.702   3.256   3.527 -0.5504 -0.6046 -3.0041
  851MOL0     H14874   2.668   3.138   3.666 -1.7189 -0.6625  0.4806
  851MOL0     H14875   2.555   3.153   3.378  1.3929  1.4133  0.3545
  851MOL0     H14876   2.478   3.217   3.518  1.4364  0.8583 -1.0693
  851MOL0     H14877   2.552   2.927   3.518 -0.0828  0.0426 -2.6595
  851MOL0     H14878   2.408   2.980   3.434  1.3931 -1.0361 -1.6661
  851MOL0     H14879   2.462   3.021   3.735 -0.2878  1.9313 -0.7712
  851MOL0     H14880   2.322   3.086   3.647  1.2902  0.9525 -3.6177
  851MOL0     H14881   2.187   2.690   3.672  0.7092 -0.4688  0.3844
  851MOL0     H14882   2.969   2.937   3.390  2.3819 -2.4501  0.8865
  851MOL0     H14883   3.234   3.027   3.280  0.2683  1.3053  0.9849
  851MOL0     H14884   3.294   2.897   3.381  0.4790  1.0858 -2.6491
  851MOL0     H14885   3.145   2.869   3.313 -0.9377 -1.8807  3.4118
  852MOL0     O14886   6.339   6.524   0.253 -0.1142 -1.0273 -0.5872
  852MOL0     C14887   6.331   6.406   0.230  0.4644 -0.2758 -0.0024
  852MOL0     O14888   6.437   6.320   0.198  0.9680  0.0822 -0.4105
  852MOL0     C14889   6.564   6.379   0.205 -0.0945  0.4068  0.5427
  852MOL0     C14890   6.641   6.378   0.089 -0.5678 -0.8846 -0.2702
  852MOL0     C14891   6.775   6.426   0.101  0.9942 -0.1523 -0.7546
  852MOL0     C14892   6.827   6.471   0.225 -0.4899 -0.2721 -0.1938
  852MOL0     O14893   6.953   6.520   0.231 -0.1570  0.1589  0.0251
  852MOL0     C14894   7.038   6.501   0.124 -0.9316  0.2353  0.1322
  852MOL0     C14895   7.167   6.576   0.165 -0.2272 -0.3625  0.4968
  852MOL0     C14896   7.285   6.531   0.072 -0.1400 -0.5044 -0.1196
  852MOL0     C14897   7.418   6.598   0.138 -0.2700  0.4833 -0.8874
  852MOL0     C14898   7.547   6.569   0.051  0.1843  0.2549  0.1073
  852MOL0     C14899   7.674   6.636   0.107 -0.7482  0.7601  0.0679
  852MOL0     C14900   7.802   6.577   0.046 -0.4446 -0.0606  0.4369
  852MOL0     C14901   7.807   6.559  -0.109 -0.9371  0.4949 -0.9673
  852MOL0     N14902   7.862   6.424  -0.147  0.7325  0.1544 -0.5387
  852MOL0     C14903   7.808   6.303  -0.115  0.9542 -0.0680  0.1351
  852MOL0     C14904   7.889   6.207  -0.168  0.3927  0.8989  0.5329
  852MOL0     C14905   7.843   6.064  -0.171 -0.7403  0.3766  0.6011
  852MOL0     C14906   7.877   5.990  -0.307 -0.3671  0.3728  0.7210
  852MOL0     C14907   7.794   5.859  -0.326  0.4908 -0.0036 -0.3358
  852MOL0     C14908   7.819   5.782  -0.452 -0.0772  0.3734  0.3081
  852MOL0     O14909   7.954   5.729  -0.447  0.4357 -0.2083  0.1312
  852MOL0     C14910   7.981   5.658  -0.563 -0.4285  1.2218 -0.5292
  852MOL0     C14911   7.902   5.554  -0.614  0.2180 -0.5888 -0.0144
  852MOL0     C14912   7.927   5.500  -0.738  0.2518  0.3753  0.7382
  852MOL0     C14913   8.045   5.525  -0.812 -0.0141 -0.3879 -0.9591
  852MOL0     C14914   8.068   5.452  -0.942  0.7040  0.2193 -0.9081
  852MOL0     O14915   7.960   5.379  -0.981 -0.5411 -0.2726  0.3974
  852MOL0     C14916   7.966   5.314  -1.102 -0.4710 -0.4950  0.0467
  852MOL0     C14917   7.871   5.351  -1.194 -1.2828 -0.2177 -0.2999
  852MOL0     C14918   7.886   5.307  -1.326  0.8162 -0.4760 -0.2347
  852MOL0     C14919   7.994   5.233  -1.367  0.9570 -0.6366 -0.2065
  852MOL0     O14920   8.021   5.183  -1.495 -0.0664 -0.2474 -0.0533
  852MOL0     C14921   7.915   5.201  -1.587 -0.1193 -0.5012 -0.4590
  852MOL0     C14922   7.954   5.183  -1.730  0.0138 -0.0804  1.1897
  852MOL0     C14923   7.860   5.074  -1.787  0.4629 -0.4507  0.5014
  852MOL0     C14924   7.891   5.055  -1.941 -0.0382  0.5626  0.1585
  852MOL0     C14925   7.790   4.962  -2.023  0.1723 -1.6043 -0.1227
  852MOL0     C14926   7.820   4.817  -2.011 -0.6169  0.5331  0.1480
  852MOL0     C14927   7.757   4.732  -2.116  0.0853 -0.5334  0.5958
  852MOL0     C14928   7.611   4.757  -2.125  0.2433 -0.0692 -0.8697
  852MOL0    Cl14929   7.530   4.696  -1.985 -0.1055 -0.2559 -0.6239
  852MOL0     C14930   8.082   5.193  -1.261  0.6471 -0.0412  0.5703
  852MOL0     C14931   8.071   5.236  -1.132 -0.1170 -0.7638 -0.2601
  852MOL0     O14932   8.172   5.470  -0.995 -0.5079 -0.4974  0.3484
  852MOL0     C14933   8.133   5.617  -0.750  0.5692  0.5847 -0.9546
  852MOL0     C14934   8.104   5.679  -0.630  0.1171 -0.0830 -0.8804
  852MOL0     N14935   7.989   6.274  -0.235  0.5308 -0.5861  0.0196
  852MOL0     N14936   7.982   6.400  -0.205  0.1836 -0.0021 -1.0056
  852MOL0     C14937   6.750   6.468   0.338  0.1722 -0.9579  0.1250
  852MOL0     C14938   6.617   6.423   0.332 -0.1388 -0.3425  0.3012
  852MOL0     C14939   6.196   6.340   0.246  0.3790 -0.3668  1.0289
  852MOL0     C14940   6.106   6.392   0.333 -0.1549  0.4764  0.3271
  852MOL0     C14941   5.973   6.355   0.330  0.4667 -0.1677 -1.6590
  852MOL0     C14942   5.924   6.259   0.242  0.5089  0.3968 -0.1058
  852MOL0     O14943   5.787   6.215   0.261 -0.9420 -0.0907 -0.5801
  852MOL0     C14944   5.754   6.078   0.226  0.0276 -1.1494  0.0617
  852MOL0     C14945   5.607   6.055   0.269  0.3363 -0.1994  0.0887
  852MOL0     C14946   5.593   6.067   0.417  0.1477  0.5597  0.0541
  852MOL0     C14947   5.449   6.043   0.451 -0.1897 -0.5187 -0.5315
  852MOL0     C14948   5.408   6.072   0.594 -0.0707 -0.3941 -0.3766
  852MOL0     C14949   5.383   6.099   0.710 -1.0014  0.3430 -0.0074
  852MOL0     C14950   6.010   6.197   0.158 -0.1646 -0.2073 -0.8886
  852MOL0     C14951   6.143   6.237   0.158 -0.1368  1.2160  0.6367
  852MOL0     C14952   6.225   6.159   0.063 -0.3063  0.6840  0.6999
  852MOL0     H14953   6.597   6.322   0.008 -1.1892  0.0772 -0.6231
  852MOL0     H14954   6.833   6.418   0.010  2.4445  4.4258 -0.4633
  852MOL0     H14955   7.055   6.394   0.106 -1.4777  0.0743  0.5642
  852MOL0     H14956   7.003   6.556   0.037 -0.6597  1.2828  0.6679
  852MOL0     H14957   7.193   6.548   0.268  0.7612 -3.1265 -0.4156
  852MOL0     H14958   7.143   6.682   0.169 -0.6698 -0.3446 -1.5107
  852MOL0     H14959   7.279   6.581  -0.025 -0.0278  2.3174  1.2542
  852MOL0     H14960   7.289   6.421   0.068 -1.2116 -0.9413  4.5794
  852MOL0     H14961   7.399   6.705   0.135  1.5993  0.8964  0.2915
  852MOL0     H14962   7.427   6.562   0.241 -0.7007  3.0565  0.1302
  852MOL0     H14963   7.564   6.462   0.044  1.0198  0.1840  2.3412
  852MOL0     H14964   7.532   6.614  -0.048  1.7704 -0.0709 -0.3038
  852MOL0     H14965   7.668   6.743   0.083  0.1663  0.7202 -0.3684
  852MOL0     H14966   7.670   6.618   0.214  1.5606 -0.6802 -0.0266
  852MOL0     H14967   7.811   6.475   0.085  2.5240 -0.4872 -1.0623
  852MOL0     H14968   7.898   6.611   0.087  0.0790 -1.4969  0.4734
  852MOL0     H14969   7.708   6.568  -0.154 -1.8486 -2.4194  0.1684
  852MOL0     H14970   7.872   6.635  -0.152  0.0979 -0.4359 -1.0897
  852MOL0     H14971   7.712   6.285  -0.066  0.4737  5.2810  1.7793
  852MOL0     H14972   7.875   6.011  -0.081 -1.9233  0.7620  1.2773
  852MOL0     H14973   7.734   6.058  -0.158 -0.6242 -0.0409  1.4583
  852MOL0     H14974   7.861   6.058  -0.391  4.4288  0.7585 -0.1854
  852MOL0     H14975   7.982   5.958  -0.308 -0.6002 -0.5390 -2.0065
  852MOL0     H14976   7.687   5.881  -0.320  0.5937  0.4622 -0.1777
  852MOL0     H14977   7.807   5.797  -0.237 -2.5353  1.4158  1.2215
  852MOL0     H14978   7.799   5.845  -0.539 -1.0457 -2.3456 -1.5650
  852MOL0     H14979   7.756   5.693  -0.457 -0.4584  0.6349  0.4404
  852MOL0     H14980   7.818   5.514  -0.559  0.3009  0.1685  0.6861
  852MOL0     H14981   7.861   5.424  -0.779 -0.7331  1.1159  0.9154
  852MOL0     H14982   7.796   5.417  -1.151 -1.7070 -0.1243 -1.1555
  852MOL0     H14983   7.803   5.342  -1.386 -1.9232  0.2133  3.5945
  852MOL0     H14984   7.834   5.133  -1.561 -0.3485  0.2625  0.9551
  852MOL0     H14985   7.872   5.302  -1.577  0.7984 -0.0500 -0.9078
  852MOL0     H14986   7.943   5.274  -1.790 -3.5777 -0.7524  0.5712
  852MOL0     H14987   8.059   5.153  -1.728  0.4535  1.0187 -1.4883
  852MOL0     H14988   7.868   4.980  -1.731 -2.0860 -0.3870  1.0617
  852MOL0     H14989   7.755   5.100  -1.774  0.9514  0.5432  3.1730
  852MOL0     H14990   7.990   5.010  -1.951 -0.3137  0.3961 -2.3437
  852MOL0     H14991   7.883   5.155  -1.985 -0.5862  1.0146  1.2401
  852MOL0     H14992   7.796   4.990  -2.128 -0.8881  1.8688  0.5993
  852MOL0     H14993   7.685   4.975  -1.994  0.5069 -1.0938  0.9033
  852MOL0     H14994   7.929   4.809  -2.013 -0.4471  2.2629 -1.9062
  852MOL0     H14995   7.789   4.787  -1.911 -0.6319 -1.4912 -0.4200
  852MOL0     H14996   7.775   4.627  -2.093 -2.0076 -1.0128  0.2141
  852MOL0     H14997   7.798   4.741  -2.217 -2.7418  0.0992 -0.5895
  852MOL0     H14998   7.596   4.865  -2.131  0.3276 -0.0639 -0.9930
  852MOL0     H14999   7.561   4.705  -2.208 -0.9600  1.0296 -0.8585
  852MOL0     H15000   8.157   5.117  -1.278  0.4430  0.3642 -2.7475
  852MOL0     H15001   8.137   5.202  -1.053  1.1005 -1.1275 -1.3815
  852MOL0     H15002   8.224   5.644  -0.803  0.2975  0.1716 -1.6426
  852MOL0     H15003   8.177   5.754  -0.600 -1.4396  1.0024  0.3526
  852MOL0     H15004   6.790   6.504   0.432  0.6294 -0.9172 -0.0795
  852MOL0     H15005   6.555   6.410   0.420 -2.0480  0.4397 -0.8802
  852MOL0     H15006   6.135   6.476   0.396 -0.7052  0.9177  0.0002
  852MOL0     H15007   5.900   6.405   0.394  1.1411  0.1338 -1.1199
  852MOL0     H15008   5.821   6.019   0.288 -1.8627 -1.2593  2.1324
  852MOL0     H15009   5.770   6.047   0.122 -0.8526  1.8872 -1.0683
  852MOL0     H15010   5.578   5.959   0.226 -0.3099  0.3267 -0.6505
  852MOL0     H15011   5.541   6.122   0.214 -1.2789 -0.7515  1.2889
  852MOL0     H15012   5.632   6.163   0.452  3.3880 -0.8629  0.7641
  852MOL0     H15013   5.657   5.992   0.465 -1.5366 -0.4409  0.8243
  852MOL0     H15014   5.396   6.116   0.390  0.2910  0.8142  0.5818
  852MOL0     H15015   5.423   5.941   0.421  1.1604 -0.2875 -2.6303
  852MOL0     H15016   5.375   6.123   0.814 -0.2356  2.0233 -0.3103
  852MOL0     H15017   5.974   6.119   0.092 -0.4676  0.4521 -1.5231
  852MOL0     H15018   6.318   6.134   0.113 -1.2352  0.1566  2.2386
  852MOL0     H15019   6.177   6.063   0.041  0.4380  0.0298  1.8971
  852MOL0     H15020   6.235   6.213  -0.032 -0.6313  2.7370  1.7740
  853MOL0     O15021   2.472   8.190   8.960 -0.3892 -0.8923  0.1074
  853MOL0     C15022   2.485   8.104   8.871  0.9919 -0.2401 -0.7933
  853MOL0     O15023   2.568   7.998   8.875 -0.3350 -0.0046 -0.5829
  853MOL0     C15024   2.677   7.998   8.958 -0.2118  0.1083 -0.2665
  853MOL0     C15025   2.654   8.004   9.097  0.3929  0.2601  0.5309
  853MOL0     C15026   2.763   8.015   9.187 -0.1018 -0.4681  0.4383
  853MOL0     C15027   2.894   8.031   9.151  0.0788 -0.0487  0.3733
  853MOL0     O15028   2.995   8.048   9.239  0.0417 -0.3961  0.0748
  853MOL0     C15029   2.968   8.133   9.344  0.0592  0.3645 -1.3341
  853MOL0     C15030   3.103   8.172   9.413  0.4827 -0.5327  0.5490
  853MOL0     C15031   3.173   8.059   9.474 -0.7581  0.1490 -0.1706
  853MOL0     C15032   3.311   8.115   9.519  1.5209 -0.4108  1.0939
  853MOL0     C15033   3.389   8.001   9.582 -0.7103 -0.0569  0.2688
  853MOL0     C15034   3.476   7.928   9.474 -0.7216 -0.0362 -0.2621
  853MOL0     C15035   3.602   7.853   9.535  0.7789 -0.4646 -0.2741
  853MOL0     C15036   3.562   7.727   9.626  0.9720 -0.6332  0.2613
  853MOL0     N15037   3.687   7.659   9.676  0.1354  0.8549  0.4382
  853MOL0     C15038   3.752   7.552   9.620  0.4067  0.3443 -0.4847
  853MOL0     C15039   3.857   7.524   9.702 -0.5966  0.5479 -0.6153
  853MOL0     C15040   3.947   7.399   9.696  1.0027 -0.0397 -0.5353
  853MOL0     C15041   4.081   7.442   9.630  0.0646  0.1042 -1.0142
  853MOL0     C15042   4.189   7.497   9.725 -0.6860 -0.5192 -0.1762
  853MOL0     C15043   4.239   7.398   9.839  0.1221  0.4806 -0.5508
  853MOL0     O15044   4.265   7.263   9.792 -0.1135 -0.1791  0.1565
  853MOL0     C15045   4.374   7.248   9.707 -1.0825  0.2223  0.1771
  853MOL0     C15046   4.493   7.326   9.711  0.8082 -0.1502  0.2558
  853MOL0     C15047   4.603   7.294   9.629 -0.2968  0.2379  0.1243
  853MOL0     C15048   4.591   7.188   9.535  0.5374  0.2253 -0.5201
  853MOL0     C15049   4.689   7.166   9.428 -0.8267 -0.0538  0.0517
  853MOL0     O15050   4.657   7.081   9.327 -0.9006 -0.3864 -0.0993
  853MOL0     C15051   4.734   7.078   9.214 -0.3470 -0.2174 -0.1212
  853MOL0     C15052   4.657   7.062   9.103  0.5083  0.2741 -0.4568
  853MOL0     C15053   4.719   7.068   8.975  0.7478  0.6851  0.4412
  853MOL0     C15054   4.856   7.083   8.964  0.2467  0.1626 -0.1515
  853MOL0     O15055   4.908   7.089   8.835 -0.8173  0.3235  0.1724
  853MOL0     C15056   4.895   7.220   8.772 -0.9092  0.5430 -0.7885
  853MOL0     C15057   5.012   7.312   8.800 -0.3370  0.2986  1.0351
  853MOL0     C15058   5.128   7.275   8.704 -0.2241  0.4313  0.8644
  853MOL0     C15059   5.248   7.372   8.727 -0.5046 -0.6778  0.3617
  853MOL0     C15060   5.203   7.523   8.713  0.7069 -0.9300  0.3606
  853MOL0     C15061   5.313   7.614   8.647 -0.2456 -0.3200  0.3274
  853MOL0     C15062   5.283   7.761   8.639 -0.0844 -0.9858  0.3085
  853MOL0     C15063   5.352   7.822   8.516  0.1471 -0.1652 -0.1401
  853MOL0    Cl15064   5.526   7.768   8.499  0.1020 -0.1946 -0.3014
  853MOL0     C15065   4.939   7.078   9.072 -1.0771  0.1426 -0.5181
  853MOL0     C15066   4.877   7.084   9.198 -0.9890  0.4002 -0.3585
  853MOL0     O15067   4.796   7.225   9.436 -0.0547 -0.0819  0.3657
  853MOL0     C15068   4.475   7.119   9.522  0.4952  0.1334 -0.1756
  853MOL0     C15069   4.363   7.157   9.600 -0.2158  0.2457  0.0812
  853MOL0     N15070   3.863   7.620   9.802  0.1239 -0.3871  0.3412
  853MOL0     N15071   3.748   7.691   9.789 -0.2575  0.2488 -0.2091
  853MOL0     C15072   2.918   8.031   9.013 -0.1658  0.0392  0.0411
  853MOL0     C15073   2.810   8.010   8.920 -0.0529  0.7909  0.3155
  853MOL0     C15074   2.387   8.116   8.765  0.5522  0.1044 -0.0754
  853MOL0     C15075   2.344   7.994   8.702  0.1229 -0.3241 -0.6606
  853MOL0     C15076   2.251   7.993   8.604  0.1801 -0.0903 -0.8765
  853MOL0     C15077   2.187   8.112   8.567  0.3098  1.8567  0.4728
  853MOL0     O15078   2.094   8.102   8.465 -0.2344  0.2884 -0.2553
  853MOL0     C15079   1.970   8.170   8.485  0.8334  0.4460 -1.6406
  853MOL0     C15080   1.858   8.079   8.429  1.2095 -0.9844  0.3995
  853MOL0     C15081   1.715   8.154   8.447  0.3320  0.1337  0.5082
  853MOL0     C15082   1.620   8.097   8.339 -0.7048  0.3525 -0.3049
  853MOL0     C15083   1.483   8.149   8.359  0.4829  0.2669  0.1464
  853MOL0     C15084   1.380   8.193   8.398  0.6727  0.0389 -0.6801
  853MOL0     C15085   2.233   8.228   8.618  0.2749  0.8965  0.7233
  853MOL0     C15086   2.324   8.236   8.719 -0.4572  0.6697 -0.2561
  853MOL0     C15087   2.369   8.370   8.766 -1.1342 -0.4845 -0.0450
  853MOL0     H15088   2.557   7.994   9.144  1.2786 -2.8195  1.9792
  853MOL0     H15089   2.743   8.014   9.294 -1.0150  1.2861  0.3329
  853MOL0     H15090   2.920   8.229   9.324 -1.6926  0.3166  1.9872
  853MOL0     H15091   2.910   8.081   9.421  1.3188  4.1908  2.6522
  853MOL0     H15092   3.074   8.243   9.491  2.1189  1.0559 -0.2184
  853MOL0     H15093   3.159   8.227   9.338 -1.4076 -0.4771 -0.9054
  853MOL0     H15094   3.196   7.978   9.405 -0.3628 -0.6143  0.8291
  853MOL0     H15095   3.135   8.009   9.564  0.7920 -0.5380  0.1333
  853MOL0     H15096   3.372   8.161   9.441 -0.3824  1.0115  0.3500
  853MOL0     H15097   3.291   8.192   9.595  1.7741  1.9213 -1.0494
  853MOL0     H15098   3.456   8.051   9.653 -0.3330 -1.0042  0.6009
  853MOL0     H15099   3.329   7.923   9.629 -0.2986  1.0284  2.7493
  853MOL0     H15100   3.409   7.854   9.430 -1.0656  0.5724 -0.7967
  853MOL0     H15101   3.512   7.997   9.396 -3.5951 -2.0843 -3.7500
  853MOL0     H15102   3.665   7.919   9.596 -0.0659 -0.8937  1.1113
  853MOL0     H15103   3.663   7.809   9.456 -0.6005 -0.9866 -1.0921
  853MOL0     H15104   3.508   7.760   9.715  0.1112  0.3979 -0.6179
  853MOL0     H15105   3.503   7.656   9.567  2.5744  0.3837 -2.7705
  853MOL0     H15106   3.702   7.501   9.538  1.7377 -2.3549  0.2686
  853MOL0     H15107   3.958   7.353   9.795  1.1255 -1.1682 -1.0549
  853MOL0     H15108   3.904   7.320   9.634 -1.5117  0.8160  0.0135
  853MOL0     H15109   4.121   7.352   9.582  0.5109  0.3533 -1.1159
  853MOL0     H15110   4.064   7.514   9.549 -0.8932 -1.6415 -2.4450
  853MOL0     H15111   4.144   7.583   9.775  0.8633  0.2510 -0.0422
  853MOL0     H15112   4.268   7.527   9.655 -2.5911  0.5446 -1.9755
  853MOL0     H15113   4.166   7.389   9.921  0.3262  2.7461 -0.0686
  853MOL0     H15114   4.331   7.437   9.883 -0.3121 -1.3091  2.2491
  853MOL0     H15115   4.518   7.395   9.791 -2.7195  3.3618 -1.3860
  853MOL0     H15116   4.690   7.357   9.646  0.4757 -0.0146 -2.4784
  853MOL0     H15117   4.552   7.088   9.110  1.0834  2.5210  1.2970
  853MOL0     H15118   4.660   7.084   8.885 -0.8809 -1.4630  1.0298
  853MOL0     H15119   4.875   7.209   8.665  0.6914 -0.5859 -1.0080
  853MOL0     H15120   4.807   7.266   8.820  0.2092  0.1342  1.8467
  853MOL0     H15121   4.972   7.410   8.774 -2.8674 -1.0074 -0.3589
  853MOL0     H15122   5.043   7.305   8.905  0.6279  0.3196  0.7658
  853MOL0     H15123   5.168   7.175   8.726  1.5081  1.4317  2.6172
  853MOL0     H15124   5.093   7.277   8.600 -0.1908  2.9951  0.8409
  853MOL0     H15125   5.323   7.350   8.651 -1.5617  0.8984 -1.2032
  853MOL0     H15126   5.283   7.350   8.828 -2.1023  2.0444  1.6305
  853MOL0     H15127   5.175   7.571   8.807 -3.8937 -1.9674 -0.2699
  853MOL0     H15128   5.125   7.523   8.637 -1.7583  1.8469  2.6487
  853MOL0     H15129   5.414   7.602   8.688 -0.8074  0.5204  2.0282
  853MOL0     H15130   5.320   7.584   8.542 -2.5356  2.2893 -0.6701
  853MOL0     H15131   5.331   7.805   8.727  1.6880 -0.0997 -1.0509
  853MOL0     H15132   5.174   7.766   8.632 -0.0473 -1.6622 -1.0612
  853MOL0     H15133   5.296   7.799   8.425  0.8953  2.5749 -1.4028
  853MOL0     H15134   5.350   7.931   8.528 -0.4418 -0.1155 -0.6382
  853MOL0     H15135   5.046   7.086   9.060 -1.1667  1.9493 -0.3423
  853MOL0     H15136   4.941   7.093   9.285 -1.1891 -1.0137 -0.0396
  853MOL0     H15137   4.466   7.036   9.452  1.5673 -0.1229 -0.0177
  853MOL0     H15138   4.265   7.111   9.594  0.1394 -0.4745 -0.5351
  853MOL0     H15139   3.022   8.038   8.981  0.3022 -2.1580  0.8993
  853MOL0     H15140   2.828   8.014   8.813 -1.5527 -3.2303 -0.2403
  853MOL0     H15141   2.381   7.894   8.724  1.1832 -0.6011 -3.3343
  853MOL0     H15142   2.214   7.910   8.545  0.4363  2.1516 -4.4653
  853MOL0     H15143   1.964   8.267   8.434 -0.3197  2.2288  1.6401
  853MOL0     H15144   1.958   8.187   8.592 -1.3092 -0.9454 -1.6010
  853MOL0     H15145   1.865   7.977   8.468 -0.4913 -2.7000 -3.2794
  853MOL0     H15146   1.879   8.064   8.323 -0.1941 -0.0137 -0.0575
  853MOL0     H15147   1.726   8.258   8.414 -0.9694 -0.1416 -0.9111
  853MOL0     H15148   1.672   8.136   8.546 -1.6456 -1.7467 -0.6079
  853MOL0     H15149   1.640   8.123   8.235 -1.0378  1.9380  0.0027
  853MOL0     H15150   1.616   7.990   8.364  0.8481  0.2590 -0.3506
  853MOL0     H15151   1.294   8.248   8.429  1.5825  0.8585  0.4964
  853MOL0     H15152   2.184   8.308   8.564 -1.2484 -0.5688 -0.1838
  853MOL0     H15153   2.474   8.376   8.794 -1.0201 -1.8196 -0.1176
  853MOL0     H15154   2.354   8.449   8.692 -3.1654  0.0138  0.8345
  853MOL0     H15155   2.315   8.396   8.858  0.4360 -1.2013  1.1162
  854MOL0     O15156  10.625   3.177  11.201 -0.5915 -0.2123 -0.0142
  854MOL0     C15157  10.572   3.121  11.297  0.4497  1.1816  0.3436
  854MOL0     O15158  10.628   3.032  11.374 -0.7171 -0.0066  0.4266
  854MOL0     C15159  10.765   3.051  11.385  0.4248 -0.9377 -0.3847
  854MOL0     C15160  10.855   3.005  11.285  0.0214 -0.1604 -0.3296
  854MOL0     C15161  10.989   3.034  11.291  0.5659  0.3545  0.2867
  854MOL0     C15162  11.049   3.100  11.401  0.9581 -0.5016  0.6331
  854MOL0     O15163  11.184   3.120  11.426 -1.3400 -0.1374  0.2267
  854MOL0     C15164  11.272   3.108  11.314  0.4963  0.5559  0.8840
  854MOL0     C15165  11.410   3.170  11.352  0.9388 -0.1143  0.4664
  854MOL0     C15166  11.494   3.222  11.228  0.0171  0.0209 -0.0734
  854MOL0     C15167  11.456   3.371  11.208  0.2378  0.4133 -0.4641
  854MOL0     C15168  11.481   3.403  11.067  0.2782  0.4662  0.2522
  854MOL0     C15169  11.527   3.542  11.047  0.5143 -0.2317 -0.0229
  854MOL0     C15170  11.411   3.637  11.072 -1.1273 -0.2605  0.0414
  854MOL0     C15171  11.448   3.783  11.031  0.4821  0.5420 -0.2100
  854MOL0     N15172  11.331   3.870  11.005  0.0394  0.5439 -0.3341
  854MOL0     C15173  11.209   3.828  10.950 -0.0110 -0.0362 -0.2035
  854MOL0     C15174  11.118   3.921  10.982 -0.3897  0.6414  0.4871
  854MOL0     C15175  11.001   3.947  10.908  0.4577 -0.6164  1.0763
  854MOL0     C15176  11.041   4.019  10.774 -0.1439 -0.2001  0.7543
  854MOL0     C15177  10.932   4.027  10.661 -0.1402  0.0783 -0.8288
  854MOL0     C15178  10.812   4.114  10.703 -0.0048  0.0037  0.5789
  854MOL0     O15179  10.744   4.058  10.817 -0.0932 -1.0279 -0.4398
  854MOL0     C15180  10.627   3.986  10.791 -0.8497 -0.1014 -0.3585
  854MOL0     C15181  10.588   3.946  10.659 -0.4572  0.2806  0.4600
  854MOL0     C15182  10.478   3.868  10.635  0.0978 -0.3100  0.0674
  854MOL0     C15183  10.392   3.839  10.749 -0.5310  0.1979 -0.1879
  854MOL0     C15184  10.288   3.746  10.727  0.4726  0.2531  1.0592
  854MOL0     O15185  10.259   3.663  10.833  0.3279 -0.3310 -0.3453
  854MOL0     C15186  10.153   3.572  10.844 -0.9761 -0.5749 -0.5693
  854MOL0     C15187  10.054   3.538  10.754  0.7976  0.8240 -0.2473
  854MOL0     C15188   9.968   3.436  10.782 -0.2837 -0.6773 -0.4675
  854MOL0     C15189   9.978   3.359  10.895 -0.5680  0.2052 -0.1264
  854MOL0     O15190   9.894   3.247  10.910  0.2613 -0.1176  0.0203
  854MOL0     C15191   9.925   3.133  10.991  0.3017 -0.7194 -0.7855
  854MOL0     C15192   9.846   3.011  10.940  0.3912  0.2882 -0.3809
  854MOL0     C15193   9.691   3.017  10.959 -0.5419  0.5292  0.6108
  854MOL0     C15194   9.602   2.913  10.890 -0.6482  0.1885 -0.2490
  854MOL0     C15195   9.449   2.931  10.926 -0.1489  0.2204  0.5091
  854MOL0     C15196   9.391   3.072  10.908  0.4332 -0.3300 -0.1360
  854MOL0     C15197   9.238   3.062  10.931 -1.4990  0.5408  1.4585
  854MOL0     C15198   9.159   3.198  10.945 -0.2491  0.1917 -0.1432
  854MOL0    Cl15199   9.206   3.326  10.828  0.1057 -0.3311 -0.2625
  854MOL0     C15200  10.069   3.397  10.993 -0.1827  0.1151 -0.4452
  854MOL0     C15201  10.148   3.504  10.966 -0.1692 -0.0111  0.1421
  854MOL0     O15202  10.241   3.736  10.610 -0.4827  0.2567 -0.1300
  854MOL0     C15203  10.429   3.879  10.874  0.4315 -0.5790  0.7752
  854MOL0     C15204  10.555   3.946  10.898 -0.0460 -0.3644  0.3521
  854MOL0     N15205  11.184   4.014  11.062  0.8050 -0.3850  1.0036
  854MOL0     N15206  11.302   3.976  11.083 -0.3508  0.4065 -0.2625
  854MOL0     C15207  10.954   3.134  11.504 -0.2127  1.2452  0.3038
  854MOL0     C15208  10.815   3.114  11.499 -0.3249  0.1430  0.3561
  854MOL0     C15209  10.427   3.117  11.307  0.6313  0.1128  0.3448
  854MOL0     C15210  10.365   2.991  11.333  0.5379 -0.5334 -0.1233
  854MOL0     C15211  10.224   2.984  11.341 -0.7854 -0.1397 -0.1372
  854MOL0     C15212  10.142   3.095  11.328  0.1025 -0.5059  0.0195
  854MOL0     O15213  10.001   3.101  11.349 -0.4499 -0.1958 -0.2942
  854MOL0     C15214   9.931   2.975  11.340  0.5106 -0.7532 -0.6204
  854MOL0     C15215   9.780   3.011  11.340  0.1323  0.0535 -0.4336
  854MOL0     C15216   9.737   3.066  11.474  0.6360  0.3473  0.7187
  854MOL0     C15217   9.590   3.053  11.492  0.2180  0.9063  1.0739
  854MOL0     C15218   9.514   3.119  11.381  0.2080 -0.0536 -0.4756
  854MOL0     C15219   9.449   3.149  11.281 -0.3001  0.3825  1.2703
  854MOL0     C15220  10.205   3.216  11.306  0.3892 -0.1535  0.6118
  854MOL0     C15221  10.342   3.231  11.292 -0.2318 -0.2920 -0.3148
  854MOL0     C15222  10.386   3.378  11.271 -0.0363  0.0023  0.1735
  854MOL0     H15223  10.814   2.949  11.201  0.3451 -0.6871 -0.1401
  854MOL0     H15224  11.046   3.006  11.203 -1.5085  1.3863 -1.4724
  854MOL0     H15225  11.287   3.010  11.268  3.1492  1.0341  0.5836
  854MOL0     H15226  11.234   3.187  11.248 -1.2304 -3.0494 -2.9232
  854MOL0     H15227  11.474   3.094  11.398  2.3964  0.2808 -0.8307
  854MOL0     H15228  11.380   3.251  11.420 -1.1623  0.9478 -1.5754
  854MOL0     H15229  11.460   3.168  11.139  1.5810 -3.6128  1.3154
  854MOL0     H15230  11.602   3.218  11.246 -0.2798 -1.8429  1.7020
  854MOL0     H15231  11.352   3.394  11.233  0.0943 -2.1844  1.9060
  854MOL0     H15232  11.510   3.431  11.281  0.0544  0.9928 -0.8040
  854MOL0     H15233  11.572   3.352  11.035 -1.5002 -2.8211  0.0026
  854MOL0     H15234  11.400   3.379  10.998  2.2000 -1.6806 -1.4445
  854MOL0     H15235  11.611   3.564  11.114  2.8986  1.1773 -3.1957
  854MOL0     H15236  11.555   3.553  10.942 -1.8529  1.0375 -0.5740
  854MOL0     H15237  11.387   3.643  11.179 -1.4681  1.6257 -0.1122
  854MOL0     H15238  11.321   3.604  11.021 -0.2882 -2.3908 -0.1596
  854MOL0     H15239  11.503   3.831  11.113  0.8388  0.4942 -0.4191
  854MOL0     H15240  11.509   3.779  10.940  1.1666 -1.2650  0.2874
  854MOL0     H15241  11.196   3.733  10.899 -0.5154 -0.2238  0.2677
  854MOL0     H15242  10.945   3.861  10.871 -0.8762  1.0615 -1.0467
  854MOL0     H15243  10.940   4.019  10.964 -1.1714 -0.8901 -0.2628
  854MOL0     H15244  11.085   4.118  10.792  1.2142 -0.3996 -1.1557
  854MOL0     H15245  11.127   3.964  10.734  0.4269  0.8503  0.4952
  854MOL0     H15246  10.911   3.925  10.628  0.7497  0.5189 -2.9283
  854MOL0     H15247  10.984   4.080  10.581  1.6919 -0.9690 -0.3912
  854MOL0     H15248  10.750   4.134  10.616  1.4283 -0.6810 -0.6604
  854MOL0     H15249  10.855   4.210  10.732 -1.5167  1.3764 -1.5400
  854MOL0     H15250  10.646   3.974  10.571 -2.0507  0.2538 -0.6469
  854MOL0     H15251  10.447   3.836  10.536 -1.7277  0.4725  0.3439
  854MOL0     H15252  10.037   3.577  10.654 -4.3063 -1.1979 -0.4667
  854MOL0     H15253   9.889   3.409  10.712 -0.7109 -0.2073 -0.1734
  854MOL0     H15254  10.032   3.113  10.986  0.3465 -0.7480  0.0583
  854MOL0     H15255   9.900   3.152  11.096 -0.4878  0.0592 -1.1050
  854MOL0     H15256   9.878   3.013  10.836  1.6555 -1.5817 -0.0800
  854MOL0     H15257   9.876   2.920  10.993  0.6622  1.8272  2.2991
  854MOL0     H15258   9.663   3.011  11.065  0.6837 -1.5781  0.8727
  854MOL0     H15259   9.673   3.115  10.914  0.4019  1.0879  1.4118
  854MOL0     H15260   9.633   2.814  10.927 -0.6821 -0.3314 -1.5609
  854MOL0     H15261   9.609   2.910  10.781 -1.3344 -0.6993 -0.2840
  854MOL0     H15262   9.440   2.905  11.032 -2.3932  2.7002  1.0382
  854MOL0     H15263   9.396   2.859  10.864 -0.9576  0.1102  1.3152
  854MOL0     H15264   9.433   3.147  10.976 -4.1131  3.1980 -0.7254
  854MOL0     H15265   9.422   3.105  10.809 -1.1492  4.8439  0.7810
  854MOL0     H15266   9.216   2.998  11.017 -0.5641  0.1643  1.4293
  854MOL0     H15267   9.188   3.001  10.856  0.0868  0.7434  0.1861
  854MOL0     H15268   9.051   3.182  10.942 -0.3157  0.6244 -2.9227
  854MOL0     H15269   9.175   3.238  11.045  1.2948  2.1067 -1.0909
  854MOL0     H15270  10.075   3.347  11.089  3.2459  2.1410  0.5639
  854MOL0     H15271  10.212   3.537  11.047 -1.4138  1.7341  0.4702
  854MOL0     H15272  10.364   3.860  10.959  3.1460 -1.9665  2.6907
  854MOL0     H15273  10.598   3.964  10.996  2.6639  0.5446 -0.9096
  854MOL0     H15274  10.981   3.186  11.595  1.0101 -0.7462  1.1586
  854MOL0     H15275  10.740   3.141  11.572 -1.4730  1.3200 -1.1742
  854MOL0     H15276  10.431   2.905  11.342  0.6503 -0.3301  1.3188
  854MOL0     H15277  10.177   2.889  11.362  3.4779 -2.4769 -0.1050
  854MOL0     H15278   9.953   2.910  11.425 -0.0179 -0.0436  0.0820
  854MOL0     H15279   9.950   2.919  11.248  2.2207 -0.7138 -0.3226
  854MOL0     H15280   9.723   2.921  11.318  0.6145 -0.1344 -0.9539
  854MOL0     H15281   9.762   3.081  11.257  1.9898  1.7359  0.4904
  854MOL0     H15282   9.785   3.164  11.477 -0.3421  0.8280  2.9582
  854MOL0     H15283   9.781   2.997  11.547  1.8711  1.5724  1.1755
  854MOL0     H15284   9.564   2.947  11.481 -1.0342  1.4074 -1.8802
  854MOL0     H15285   9.554   3.091  11.588 -0.7170  0.6021  0.8558
  854MOL0     H15286   9.396   3.173  11.191  0.2877 -2.7763 -0.0366
  854MOL0     H15287  10.140   3.303  11.308  0.0245 -0.4312  1.0153
  854MOL0     H15288  10.493   3.392  11.289 -0.0589  2.2875 -1.1439
  854MOL0     H15289  10.371   3.413  11.168  1.2500  0.8667  0.2659
  854MOL0     H15290  10.327   3.436  11.342 -1.4496 -1.9978  0.7171
  855MOL0     O15291  10.532   9.192   7.939 -0.4522  0.6351  0.7374
  855MOL0     C15292  10.518   9.312   7.976 -1.1050 -0.8789 -0.5490
  855MOL0     O15293  10.624   9.397   7.993 -0.2392 -0.3103 -0.3476
  855MOL0     C15294  10.749   9.347   7.991 -0.1241  0.3225  0.2973
  855MOL0     C15295  10.812   9.313   7.864 -0.6454 -0.5553 -0.4983
  855MOL0     C15296  10.948   9.270   7.872  0.2448 -0.7647  0.5061
  855MOL0     C15297  11.025   9.261   7.983 -0.0443 -0.1620  0.5279
  855MOL0     O15298  11.148   9.199   7.996  0.7996 -0.2804 -0.5238
  855MOL0     C15299  11.237   9.177   7.889  0.5232  0.0996 -0.3396
  855MOL0     C15300  11.381   9.150   7.942 -0.0026  0.0214 -0.0155
  855MOL0     C15301  11.458   9.259   8.011 -0.0777 -0.3565  0.2403
  855MOL0     C15302  11.611   9.230   8.030 -0.5616 -0.3961  0.3349
  855MOL0     C15303  11.686   9.353   8.091  0.2012  0.1508 -0.1066
  855MOL0     C15304  11.833   9.337   8.118  0.1254  0.8600  0.5571
  855MOL0     C15305  11.857   9.219   8.207  1.3033 -0.3652 -0.8785
  855MOL0     C15306  12.001   9.220   8.270  0.0721 -0.1321  0.4509
  855MOL0     N15307  12.105   9.159   8.177  0.0277 -0.1375  0.4972
  855MOL0     C15308  12.136   9.024   8.180 -0.2648  0.0856  0.9144
  855MOL0     C15309  12.170   8.995   8.046  0.6515  0.9743 -0.2536
  855MOL0     C15310  12.203   8.861   7.989  0.0644  0.1390  1.1642
  855MOL0     C15311  12.347   8.838   7.995  0.9128  0.6131 -0.3731
  855MOL0     C15312  12.401   8.805   8.135 -0.2567  0.2070  0.0159
  855MOL0     C15313  12.555   8.786   8.140 -0.2745  0.2789 -0.1202
  855MOL0     O15314  12.580   8.704   8.259  0.2315 -0.3255 -0.0837
  855MOL0     C15315  12.714   8.671   8.281 -0.2955  0.0103 -0.6945
  855MOL0     C15316  12.826   8.715   8.207  0.0982  0.6160  0.1291
  855MOL0     C15317  12.957   8.666   8.241  0.2853  0.2385  1.1249
  855MOL0     C15318  12.977   8.589   8.361  0.6053 -0.9246 -0.2789
  855MOL0     C15319  13.108   8.544   8.402  0.4863  0.6270 -0.6982
  855MOL0     O15320  13.212   8.576   8.317  0.2002  0.0386  0.2086
  855MOL0     C15321  13.340   8.543   8.343  0.3264  0.5959  0.5847
  855MOL0     C15322  13.400   8.445   8.264 -0.0400  0.4240 -0.0444
  855MOL0     C15323  13.542   8.428   8.269  0.2385  0.4543 -0.3493
  855MOL0     C15324  13.623   8.500   8.357  0.2392  0.4182 -0.5543
  855MOL0     O15325  13.757   8.487   8.374 -0.7053 -0.5128 -0.3552
  855MOL0     C15326  13.805   8.357   8.346 -0.3680  0.8766  0.2246
  855MOL0     C15327  13.935   8.356   8.426  0.4044  0.7983 -0.0678
  855MOL0     C15328  14.040   8.251   8.378 -0.3961  0.4925  0.1813
  855MOL0     C15329  14.162   8.251   8.470 -0.5190 -0.1307 -0.9497
  855MOL0     C15330  14.290   8.185   8.401  0.3581 -0.3990  0.1569
  855MOL0     C15331  14.429   8.216   8.467  0.6004 -0.4451 -0.0063
  855MOL0     C15332  14.463   8.363   8.449 -0.2602 -0.1696 -0.2282
  855MOL0     C15333  14.519   8.414   8.320  0.2939  0.4222  0.6780
  855MOL0    Cl15334  14.653   8.308   8.267 -0.0016 -0.2360  0.2208
  855MOL0     C15335  13.555   8.581   8.452  0.3585  0.1626  0.7994
  855MOL0     C15336  13.424   8.612   8.430  0.6582 -0.8566  0.0468
  855MOL0     O15337  13.117   8.486   8.512  0.7589  0.1304  0.2619
  855MOL0     C15338  12.858   8.552   8.436 -0.4625 -0.3945 -0.9379
  855MOL0     C15339  12.735   8.583   8.388  0.8535 -0.8011 -0.3020
  855MOL0     N15340  12.182   9.113   7.981 -0.2102 -0.2172  0.7994
  855MOL0     N15341  12.134   9.214   8.048 -0.5216  0.0464 -0.4623
  855MOL0     C15342  10.963   9.300   8.097  0.2109 -0.7799  0.3041
  855MOL0     C15343  10.826   9.335   8.110  0.2989 -0.2566 -0.3186
  855MOL0     C15344  10.388   9.374   7.984  1.4204  0.3335 -0.6586
  855MOL0     C15345  10.361   9.480   8.080 -0.6116 -0.1226  0.1988
  855MOL0     C15346  10.237   9.527   8.102  0.3102  0.0756  0.3183
  855MOL0     C15347  10.127   9.483   8.024  0.0936 -0.8594  0.1352
  855MOL0     O15348  10.010   9.542   8.056 -0.3436  0.2487 -0.4885
  855MOL0     C15349   9.886   9.488   8.011  0.9511  0.4393 -0.5419
  855MOL0     C15350   9.785   9.483   8.138 -0.2285 -0.5993  0.3696
  855MOL0     C15351   9.850   9.398   8.261 -0.1687  0.0220 -0.4940
  855MOL0     C15352   9.845   9.245   8.223 -0.1760  0.1732 -0.9450
  855MOL0     C15353   9.720   9.180   8.223  0.4223 -1.3972  0.7767
  855MOL0     C15354   9.606   9.130   8.226 -0.0889  0.1559 -0.5001
  855MOL0     C15355  10.147   9.373   7.935  0.7641  0.0157  0.3492
  855MOL0     C15356  10.276   9.324   7.909  0.8408 -0.4876 -0.2744
  855MOL0     C15357  10.282   9.222   7.802  0.1320 -0.0570  0.4418
  855MOL0     H15358  10.769   9.331   7.766 -2.7055 -1.3510  0.2105
  855MOL0     H15359  11.001   9.249   7.780  0.0008 -1.2012  0.4619
  855MOL0     H15360  11.207   9.083   7.843 -1.0854  0.2737  0.2883
  855MOL0     H15361  11.234   9.264   7.823 -1.3658 -0.2022 -0.7062
  855MOL0     H15362  11.431   9.091   7.863 -0.6431 -2.6195  1.4198
  855MOL0     H15363  11.363   9.072   8.017  3.4219  0.4328  1.4263
  855MOL0     H15364  11.425   9.274   8.114  1.3355 -1.6569  0.9049
  855MOL0     H15365  11.445   9.349   7.950  3.2376  1.1301  1.4634
  855MOL0     H15366  11.632   9.140   8.088  1.4896  0.0477  0.3519
  855MOL0     H15367  11.661   9.217   7.934 -1.8487  0.3818 -0.4776
  855MOL0     H15368  11.672   9.439   8.026  2.8868  0.9278  0.2120
  855MOL0     H15369  11.630   9.370   8.184 -0.2397  0.7276 -0.4674
  855MOL0     H15370  11.880   9.327   8.020  1.9354  0.0564  1.4384
  855MOL0     H15371  11.884   9.428   8.153  4.3202 -0.7750 -0.6198
  855MOL0     H15372  11.833   9.131   8.147 -1.2479  0.5430 -1.3339
  855MOL0     H15373  11.793   9.221   8.296 -0.0466 -1.0817 -1.7849
  855MOL0     H15374  12.030   9.324   8.288 -4.9925  1.7615 -0.7990
  855MOL0     H15375  11.999   9.161   8.362  0.8431  1.4962  1.5569
  855MOL0     H15376  12.123   8.960   8.266 -0.9760 -0.1682  0.6327
  855MOL0     H15377  12.145   8.784   8.039 -2.5562  1.7344  0.8016
  855MOL0     H15378  12.162   8.855   7.888  0.1252  1.5538  1.0279
  855MOL0     H15379  12.374   8.757   7.927 -0.3526  0.6397 -0.9346
  855MOL0     H15380  12.388   8.927   7.946 -0.9679  1.1344 -1.1018
  855MOL0     H15381  12.348   8.713   8.164  1.6468 -1.7833 -2.3363
  855MOL0     H15382  12.379   8.879   8.212 -3.0035  1.1139 -1.5080
  855MOL0     H15383  12.611   8.879   8.155  0.5610 -0.2787  0.2986
  855MOL0     H15384  12.588   8.736   8.049 -0.0730  1.5998 -0.7992
  855MOL0     H15385  12.820   8.793   8.132  0.3119 -0.1789 -0.7338
  855MOL0     H15386  13.042   8.685   8.176 -1.1044 -0.0450 -0.8718
  855MOL0     H15387  13.338   8.400   8.186 -1.0052  1.3627  0.1582
  855MOL0     H15388  13.587   8.363   8.193 -2.6559  0.0091 -1.8460
  855MOL0     H15389  13.743   8.277   8.386 -0.7784  0.1339 -1.7924
  855MOL0     H15390  13.830   8.340   8.241 -0.5161  1.8698  0.0099
  855MOL0     H15391  13.986   8.451   8.406 -0.2506  1.4245  1.0706
  855MOL0     H15392  13.917   8.351   8.534  0.7660  2.1065  0.0763
  855MOL0     H15393  13.986   8.156   8.385  1.7024 -0.7155  1.0888
  855MOL0     H15394  14.065   8.269   8.273 -1.2867 -0.4292 -0.2000
  855MOL0     H15395  14.155   8.196   8.564  3.1780 -0.7991 -0.9016
  855MOL0     H15396  14.181   8.355   8.500  1.9451 -0.8047  0.0617
  855MOL0     H15397  14.304   8.215   8.297 -0.7331 -0.8434 -0.1373
  855MOL0     H15398  14.264   8.079   8.405  2.5264 -0.9973 -0.5834
  855MOL0     H15399  14.425   8.185   8.572 -0.4538  0.9702  0.3995
  855MOL0     H15400  14.511   8.161   8.420  2.5609  0.2695  2.3428
  855MOL0     H15401  14.549   8.377   8.515  0.8104  0.4445 -1.7039
  855MOL0     H15402  14.377   8.425   8.476 -0.4865 -0.3252 -0.5945
  855MOL0     H15403  14.435   8.404   8.251 -0.8700 -0.1865  2.1259
  855MOL0     H15404  14.561   8.515   8.321  0.9323  0.4495 -4.3264
  855MOL0     H15405  13.613   8.645   8.517  1.3229 -0.6525  0.7707
  855MOL0     H15406  13.369   8.683   8.490 -1.0606 -3.4838  1.8206
  855MOL0     H15407  12.873   8.488   8.523 -2.2734  2.5664  1.7325
  855MOL0     H15408  12.647   8.537   8.431  0.8354  0.3118  0.9350
  855MOL0     H15409  11.017   9.296   8.192  5.6609  0.8197 -2.3248
  855MOL0     H15410  10.782   9.360   8.206  0.0699  0.9978 -0.7281
  855MOL0     H15411  10.444   9.511   8.142 -1.4991 -0.4543  1.5893
  855MOL0     H15412  10.218   9.607   8.173  1.4403  0.8385 -0.2040
  855MOL0     H15413   9.886   9.388   7.967 -4.6429 -0.7540  1.3052
  855MOL0     H15414   9.844   9.558   7.939 -0.4330  1.6349  1.3365
  855MOL0     H15415   9.687   9.448   8.106 -0.0680 -0.3011 -0.4890
  855MOL0     H15416   9.760   9.584   8.171 -2.4673 -1.4091  1.3270
  855MOL0     H15417   9.791   9.404   8.353  2.3956  1.3514  1.1867
  855MOL0     H15418   9.951   9.431   8.285 -0.9440  0.9292  1.7640
  855MOL0     H15419   9.880   9.226   8.121 -0.4620  1.7282 -1.3581
  855MOL0     H15420   9.906   9.189   8.294  1.3021  2.8483  0.0427
  855MOL0     H15421   9.513   9.085   8.253  0.6416 -1.5384 -0.7166
  855MOL0     H15422  10.068   9.335   7.871  3.3488  1.0735 -3.8941
  855MOL0     H15423  10.288   9.119   7.838  0.0707  0.2317  1.2892
  855MOL0     H15424  10.201   9.236   7.730  0.8501 -1.5284 -0.7224
  855MOL0     H15425  10.378   9.241   7.752 -1.1439  1.6617 -1.5469
  856MOL0     O15426   9.060   5.259   1.340 -0.4387  0.2011 -0.5833
  856MOL0     C15427   9.039   5.317   1.232  0.1346 -0.2279  0.6632
  856MOL0     O15428   9.076   5.279   1.114  0.2009 -0.3934  0.1681
  856MOL0     C15429   9.191   5.213   1.088 -0.5351 -0.5104  0.2267
  856MOL0     C15430   9.317   5.223   1.154 -0.3372  0.1800  0.2779
  856MOL0     C15431   9.435   5.164   1.104  0.3726  0.3332  0.6188
  856MOL0     C15432   9.428   5.086   0.991  0.4109 -0.5442  1.1109
  856MOL0     O15433   9.528   5.024   0.928 -0.5162  0.1007  0.3440
  856MOL0     C15434   9.651   5.016   1.005 -0.0654 -0.2038 -0.2297
  856MOL0     C15435   9.761   4.960   0.910 -1.1714  0.2403  0.1812
  856MOL0     C15436   9.881   4.914   0.992 -0.2666  0.6248 -0.4591
  856MOL0     C15437   9.998   4.887   0.905  0.6868  0.7859 -0.1591
  856MOL0     C15438  10.082   5.015   0.890  0.3513 -1.0740  0.8852
  856MOL0     C15439  10.192   4.994   0.794  0.6312 -1.3486  0.6498
  856MOL0     C15440  10.324   4.969   0.855 -0.3108 -0.7111  0.6357
  856MOL0     C15441  10.421   4.931   0.736 -0.4957  0.2336  0.6355
  856MOL0     N15442  10.556   4.925   0.794 -0.3444 -0.2353 -0.8296
  856MOL0     C15443  10.611   4.817   0.862 -0.1673  0.6056 -0.2177
  856MOL0     C15444  10.732   4.856   0.903 -0.1825 -0.0169  0.1511
  856MOL0     C15445  10.836   4.774   0.968 -0.5347  0.1097 -0.4357
  856MOL0     C15446  10.931   4.700   0.866 -0.1587 -1.1067 -0.7839
  856MOL0     C15447  11.023   4.807   0.807 -0.6013  0.1820 -0.3108
  856MOL0     C15448  11.107   4.744   0.699 -0.2843  0.5461  0.1684
  856MOL0     O15449  11.205   4.651   0.747 -0.3340 -0.5588  0.1683
  856MOL0     C15450  11.335   4.681   0.787  0.4143 -0.1194 -0.0923
  856MOL0     C15451  11.380   4.806   0.830  0.1282 -0.1571  0.2899
  856MOL0     C15452  11.508   4.817   0.883  0.3813 -0.6391 -0.4645
  856MOL0     C15453  11.602   4.717   0.885  0.9940  0.3146 -0.0231
  856MOL0     C15454  11.740   4.741   0.933 -0.4191  0.1937  0.4275
  856MOL0     O15455  11.773   4.852   1.003  0.4225 -0.7856 -0.7305
  856MOL0     C15456  11.900   4.849   1.054  0.0032  0.3531  0.6205
  856MOL0     C15457  11.984   4.948   1.016  0.4098 -0.2411  0.8518
  856MOL0     C15458  12.124   4.942   1.047  0.7207 -0.2463 -1.0360
  856MOL0     C15459  12.172   4.837   1.113  0.3938 -0.4951  0.1289
  856MOL0     O15460  12.309   4.839   1.130  0.5088  0.0895 -0.5739
  856MOL0     C15461  12.356   4.761   1.241 -0.9127 -0.6424 -0.0777
  856MOL0     C15462  12.491   4.829   1.269 -0.2296  0.1090  0.8785
  856MOL0     C15463  12.594   4.839   1.153  0.4205 -0.3635 -0.3870
  856MOL0     C15464  12.728   4.877   1.200  0.0106 -0.3616  0.3718
  856MOL0     C15465  12.811   4.919   1.076 -0.7090 -0.0273  0.0479
  856MOL0     C15466  12.951   4.967   1.118 -0.0250 -0.8900 -0.2803
  856MOL0     C15467  13.063   4.942   1.016 -0.3076  0.8531 -0.2413
  856MOL0     C15468  13.176   5.038   1.015 -0.6426  0.2214 -0.6466
  856MOL0    Cl15469  13.112   5.197   0.965  0.1306  0.4148  0.4466
  856MOL0     C15470  12.083   4.747   1.171 -0.0767  0.7281  0.6679
  856MOL0     C15471  11.951   4.751   1.138 -0.1646  0.0640 -0.1164
  856MOL0     O15472  11.814   4.644   0.913  0.6235  0.3619 -0.0671
  856MOL0     C15473  11.557   4.585   0.846 -0.4584 -0.0621 -0.0833
  856MOL0     C15474  11.425   4.567   0.795 -0.3876 -0.7523  0.5065
  856MOL0     N15475  10.739   4.994   0.869 -0.5433  0.4822  0.1409
  856MOL0     N15476  10.637   5.036   0.810  0.4872  0.3578 -0.1616
  856MOL0     C15477   9.310   5.078   0.926 -0.0239 -0.4517  0.1623
  856MOL0     C15478   9.194   5.143   0.966 -0.0228 -0.3496 -0.2544
  856MOL0     C15479   8.967   5.447   1.243 -0.3110 -1.1847  0.0851
  856MOL0     C15480   8.852   5.449   1.315 -0.6657 -0.1244 -1.2883
  856MOL0     C15481   8.788   5.568   1.354  1.1331 -0.9105  0.9069
  856MOL0     C15482   8.829   5.688   1.295 -0.1118  0.0238 -0.9007
  856MOL0     O15483   8.750   5.798   1.313 -0.1655 -1.0591  0.6505
  856MOL0     C15484   8.802   5.935   1.302  0.1895 -0.1486  0.5145
  856MOL0     C15485   8.806   5.989   1.161  0.0529 -0.2896  1.0801
  856MOL0     C15486   8.899   6.114   1.153 -0.1034 -0.3743  1.0203
  856MOL0     C15487   8.902   6.187   1.014 -0.4536  0.5979  0.3440
  856MOL0     C15488   8.952   6.096   0.909 -0.0275 -0.4915 -0.3408
  856MOL0     C15489   8.982   6.026   0.815  0.7441  0.0769  0.5854
  856MOL0     C15490   8.949   5.696   1.217 -0.4814  0.7623 -0.6280
  856MOL0     C15491   9.019   5.566   1.187  0.3977 -0.7447  0.5662
  856MOL0     C15492   9.148   5.572   1.110  0.3397  0.0494 -0.0633
  856MOL0     H15493   9.322   5.292   1.237 -0.2489  0.9060 -0.3197
  856MOL0     H15494   9.530   5.179   1.154 -0.0882 -1.0225  1.9621
  856MOL0     H15495   9.686   5.108   1.053 -0.4698 -0.3063  0.2741
  856MOL0     H15496   9.629   4.948   1.089  0.4058 -2.4401 -1.8184
  856MOL0     H15497   9.803   5.025   0.833 -1.7343  0.1296 -0.2244
  856MOL0     H15498   9.713   4.875   0.861 -1.3213 -0.8430  2.1338
  856MOL0     H15499   9.862   4.819   1.044  3.1487  0.1175  0.0492
  856MOL0     H15500   9.901   4.989   1.068 -1.0858 -0.1336  0.5371
  856MOL0     H15501  10.058   4.809   0.952 -1.3358 -0.6670  0.1259
  856MOL0     H15502   9.958   4.857   0.808  1.3699  2.6983 -1.0865
  856MOL0     H15503  10.020   5.097   0.854 -0.6310 -1.7532  0.9937
  856MOL0     H15504  10.120   5.038   0.991 -2.7475  0.9213  1.7071
  856MOL0     H15505  10.165   4.915   0.723 -1.6901  1.0495 -1.3476
  856MOL0     H15506  10.207   5.077   0.725  1.5148 -2.9293 -1.1688
  856MOL0     H15507  10.326   4.881   0.919  2.2618 -1.5688 -0.4915
  856MOL0     H15508  10.362   5.050   0.918 -0.5680  0.5340 -0.7382
  856MOL0     H15509  10.398   4.835   0.689  0.9649 -0.4952  1.3648
  856MOL0     H15510  10.415   5.004   0.654 -1.8499 -0.1532  0.3547
  856MOL0     H15511  10.597   4.709   0.862  2.4706  0.1946  0.0750
  856MOL0     H15512  10.896   4.820   1.046  0.9550 -2.6412  0.1521
  856MOL0     H15513  10.771   4.696   1.010  0.3327  0.8108  2.3607
  856MOL0     H15514  10.995   4.631   0.921  0.3166  0.1063  0.2474
  856MOL0     H15515  10.863   4.648   0.797 -1.9762  0.9859 -0.7102
  856MOL0     H15516  11.081   4.851   0.888  0.0655 -0.2837 -0.5299
  856MOL0     H15517  10.966   4.888   0.761 -1.2369  0.8367  1.5390
  856MOL0     H15518  11.166   4.818   0.644  0.3779  0.7751  1.1511
  856MOL0     H15519  11.039   4.692   0.632  0.6727  1.1294 -1.3029
  856MOL0     H15520  11.306   4.885   0.828  0.2794  0.0366  1.6392
  856MOL0     H15521  11.532   4.914   0.925  0.4862 -1.3033  1.0616
  856MOL0     H15522  11.953   5.023   0.944  0.3123  0.4452  1.5923
  856MOL0     H15523  12.168   5.026   0.994 -2.5702  3.2116  1.1850
  856MOL0     H15524  12.300   4.770   1.334  3.2203 -1.4724  2.7845
  856MOL0     H15525  12.363   4.656   1.212 -2.6345 -1.4548  2.1691
  856MOL0     H15526  12.463   4.926   1.311 -1.5946  0.1526 -0.0547
  856MOL0     H15527  12.532   4.770   1.352 -0.6924 -1.5444 -0.0110
  856MOL0     H15528  12.605   4.744   1.099 -2.4842  0.9574 -3.6938
  856MOL0     H15529  12.554   4.903   1.074 -1.8489 -0.5647  0.5044
  856MOL0     H15530  12.770   4.806   1.271  1.2020  1.0673  1.1374
  856MOL0     H15531  12.715   4.967   1.259  0.0121  1.8488 -2.7415
  856MOL0     H15532  12.755   4.993   1.020 -1.3728 -2.0361 -2.0904
  856MOL0     H15533  12.823   4.839   1.003 -4.1807 -0.4007 -0.2559
  856MOL0     H15534  12.939   5.075   1.109 -2.4785 -1.1040 -0.2081
  856MOL0     H15535  12.993   4.938   1.214  1.8388 -1.4185 -1.1948
  856MOL0     H15536  13.021   4.932   0.915  1.7680  1.7426 -1.2366
  856MOL0     H15537  13.108   4.850   1.054 -2.1349  0.2756  0.6321
  856MOL0     H15538  13.220   5.044   1.115  1.9429 -2.6912 -1.4284
  856MOL0     H15539  13.266   5.011   0.958 -0.0336 -0.3619  0.5688
  856MOL0     H15540  12.113   4.664   1.233  1.1979 -1.7232 -2.8753
  856MOL0     H15541  11.892   4.673   1.185 -0.6340  1.3497  1.4931
  856MOL0     H15542  11.618   4.495   0.842 -1.5361 -0.8189 -0.2351
  856MOL0     H15543  11.386   4.472   0.760  0.0769 -0.8595  0.2741
  856MOL0     H15544   9.303   5.014   0.839 -1.5308 -2.3426  1.5795
  856MOL0     H15545   9.117   5.126   0.891 -0.6198 -0.1773  0.3223
  856MOL0     H15546   8.805   5.362   1.362 -1.0416  0.4764 -0.5228
  856MOL0     H15547   8.703   5.558   1.420  0.8753 -0.9221  0.5764
  856MOL0     H15548   8.893   5.941   1.362  2.1163 -0.4231 -2.2206
  856MOL0     H15549   8.733   6.001   1.355  0.9692  0.2864  1.0108
  856MOL0     H15550   8.701   6.016   1.143 -0.4669 -2.4987  0.4556
  856MOL0     H15551   8.826   5.916   1.082 -1.0468  0.7571 -0.2348
  856MOL0     H15552   9.004   6.091   1.168  0.4647  0.1497 -1.5749
  856MOL0     H15553   8.878   6.190   1.229  3.6206  0.4370  1.4116
  856MOL0     H15554   8.804   6.226   0.983 -1.2258 -3.1399 -2.6970
  856MOL0     H15555   8.978   6.264   1.026  2.4371 -1.7925 -1.4185
  856MOL0     H15556   9.009   5.985   0.720  3.2762  0.6530  0.9961
  856MOL0     H15557   8.981   5.795   1.187 -0.4645  1.1887  0.7091
  856MOL0     H15558   9.161   5.673   1.068 -1.1319  0.6821  0.9172
  856MOL0     H15559   9.237   5.547   1.168 -0.1975 -0.3635  0.5951
  856MOL0     H15560   9.144   5.501   1.027  1.5441  1.0613 -1.0281
  857MOL0     O15561   2.005   1.816   8.824  0.4022 -0.2693 -0.3834
  857MOL0     C15562   2.102   1.793   8.893  0.0443  0.2624  0.8391
  857MOL0     O15563   2.110   1.698   8.987 -0.0267 -0.0292  0.5284
  857MOL0     C15564   2.004   1.610   9.020 -0.4228 -0.4343  0.6223
  857MOL0     C15565   2.044   1.483   9.073  0.2884 -0.5634  0.8840
  857MOL0     C15566   1.958   1.391   9.134 -0.3978  0.3988  0.1174
  857MOL0     C15567   1.822   1.426   9.130 -0.2003 -0.1074 -0.0088
  857MOL0     O15568   1.731   1.320   9.149 -0.4825 -0.5634 -0.6575
  857MOL0     C15569   1.627   1.340   9.246  0.2411 -0.1637  0.6081
  857MOL0     C15570   1.504   1.255   9.196 -0.2700 -0.2229 -0.5396
  857MOL0     C15571   1.369   1.289   9.266  0.4550  0.4601  1.3563
  857MOL0     C15572   1.373   1.317   9.422  0.3060 -0.1286  1.0010
  857MOL0     C15573   1.229   1.339   9.485  0.2781  0.4468  0.1881
  857MOL0     C15574   1.127   1.429   9.421  0.8181  0.2743  0.6446
  857MOL0     C15575   1.018   1.460   9.521  0.5161 -0.1920 -1.4069
  857MOL0     C15576   0.959   1.330   9.579 -0.3428  1.0275 -0.1487
  857MOL0     N15577   0.873   1.372   9.688 -0.1450 -0.1202 -0.1284
  857MOL0     C15578   0.761   1.448   9.679 -0.7185  1.1557 -0.0520
  857MOL0     C15579   0.734   1.489   9.809  0.9134 -0.1814 -0.3659
  857MOL0     C15580   0.619   1.592   9.843 -0.3304 -0.1461  0.9770
  857MOL0     C15581   0.681   1.716   9.913 -0.5720 -0.0031 -0.5211
  857MOL0     C15582   0.796   1.784   9.829  0.3688 -0.7920 -0.9106
  857MOL0     C15583   0.842   1.914   9.894  0.1506  0.5318 -0.3050
  857MOL0     O15584   0.890   1.993   9.780  1.0081  0.4927 -0.4468
  857MOL0     C15585   1.019   2.033   9.770 -0.0279 -0.2960 -0.2262
  857MOL0     C15586   1.050   2.165   9.777  0.4661  0.1156  0.3546
  857MOL0     C15587   1.183   2.209   9.767 -1.0851 -0.6565 -0.2997
  857MOL0     C15588   1.292   2.114   9.750  0.5754 -0.2030 -0.1901
  857MOL0     C15589   1.435   2.150   9.739  0.2497  0.2676  0.4081
  857MOL0     O15590   1.524   2.043   9.720 -0.9191 -0.2205  0.0815
  857MOL0     C15591   1.647   2.090   9.704 -0.7759 -0.5388 -0.3019
  857MOL0     C15592   1.694   2.112   9.575 -0.0888  0.1732 -0.2995
  857MOL0     C15593   1.824   2.159   9.567  0.1013  0.0428  0.3165
  857MOL0     C15594   1.915   2.170   9.679 -0.4337 -1.0372 -0.2522
  857MOL0     O15595   2.046   2.207   9.655  0.1666 -0.1704 -0.0575
  857MOL0     C15596   2.131   2.095   9.665  0.2287  0.5996 -0.2163
  857MOL0     C15597   2.280   2.130   9.659  0.3812  0.5590  0.5142
  857MOL0     C15598   2.338   2.202   9.782 -0.1634 -0.0477  0.0556
  857MOL0     C15599   2.468   2.281   9.733  0.4670 -0.7378 -0.6156
  857MOL0     C15600   2.514   2.350   9.860  0.2756 -0.3066  0.2971
  857MOL0     C15601   2.652   2.396   9.858 -0.5713 -0.2023 -0.3917
  857MOL0     C15602   2.663   2.532   9.778 -0.7197 -0.1305 -0.6958
  857MOL0     C15603   2.802   2.602   9.810  0.7676  1.1231 -0.2350
  857MOL0    Cl15604   2.896   2.600   9.664  0.3992  0.2560 -0.3509
  857MOL0     C15605   1.864   2.156   9.809 -0.4281  0.1946 -0.7167
  857MOL0     C15606   1.736   2.110   9.822  0.3952 -0.7235  0.0595
  857MOL0     O15607   1.465   2.271   9.757  0.1474 -0.0350 -0.1165
  857MOL0     C15608   1.260   1.981   9.747  0.5825 -0.7822  0.2449
  857MOL0     C15609   1.122   1.941   9.762 -0.6115  0.6396 -0.2332
  857MOL0     N15610   0.822   1.435   9.898 -0.1352 -0.2973 -0.0140
  857MOL0     N15611   0.901   1.361   9.827  0.3782  0.9274 -0.6993
  857MOL0     C15612   1.782   1.546   9.078 -0.9491  0.8376 -0.4540
  857MOL0     C15613   1.868   1.643   9.031 -0.8703  0.4582  0.1997
  857MOL0     C15614   2.216   1.889   8.884  0.0435  0.0733 -1.0041
  857MOL0     C15615   2.303   1.879   8.994  0.5811 -1.1547  0.2346
  857MOL0     C15616   2.406   1.965   9.008  0.0226  0.6513 -0.7191
  857MOL0     C15617   2.433   2.064   8.915  0.6849 -0.3154 -0.0030
  857MOL0     O15618   2.544   2.150   8.937 -0.0804  0.4354  0.3062
  857MOL0     C15619   2.554   2.274   8.860  0.1140  0.7689 -0.4363
  857MOL0     C15620   2.677   2.355   8.897 -0.4554  0.2178  0.2386
  857MOL0     C15621   2.654   2.514   8.902  0.4801  0.5320  0.7651
  857MOL0     C15622   2.782   2.577   8.948  0.2667  0.0698 -0.3061
  857MOL0     C15623   2.793   2.720   8.964  0.6156  0.7724  0.1656
  857MOL0     C15624   2.800   2.843   8.965 -0.8416  0.4565  0.7875
  857MOL0     C15625   2.346   2.078   8.802  0.0564  0.4916 -0.9166
  857MOL0     C15626   2.236   1.985   8.788 -0.6952 -0.3922  0.4663
  857MOL0     C15627   2.144   2.016   8.667 -0.1045  0.9818  0.1171
  857MOL0     H15628   2.146   1.448   9.066  1.6608  3.3498 -1.8771
  857MOL0     H15629   1.992   1.291   9.161  0.8841  0.3268 -1.5705
  857MOL0     H15630   1.657   1.319   9.349  2.1776 -0.9408 -0.0661
  857MOL0     H15631   1.598   1.445   9.239 -0.8220 -0.3925  1.2686
  857MOL0     H15632   1.528   1.150   9.216  2.0657  0.1329 -1.1618
  857MOL0     H15633   1.486   1.264   9.089 -0.8752  0.9298 -0.3558
  857MOL0     H15634   1.299   1.206   9.253  1.4883 -0.2293 -0.0385
  857MOL0     H15635   1.331   1.373   9.207  1.1777 -1.0920 -1.4740
  857MOL0     H15636   1.420   1.230   9.469  1.4398  0.3713  0.8091
  857MOL0     H15637   1.431   1.408   9.436  0.4326 -0.2073  0.9910
  857MOL0     H15638   1.189   1.237   9.485 -1.8123  1.1509  3.1320
  857MOL0     H15639   1.244   1.362   9.590 -1.1272 -0.7099  0.6760
  857MOL0     H15640   1.182   1.518   9.387  1.7764 -0.3590  0.4905
  857MOL0     H15641   1.090   1.377   9.333 -0.6485  2.6021 -0.1964
  857MOL0     H15642   0.934   1.521   9.484 -0.8430 -2.4670 -2.2760
  857MOL0     H15643   1.067   1.515   9.602  0.9245 -1.7445 -0.5598
  857MOL0     H15644   0.903   1.267   9.509  0.2061  0.6492 -0.2470
  857MOL0     H15645   1.025   1.265   9.636 -0.7129  0.2428 -0.5948
  857MOL0     H15646   0.714   1.462   9.582  0.6206 -1.7534 -1.2231
  857MOL0     H15647   0.568   1.626   9.753 -1.1493  1.2630  1.9266
  857MOL0     H15648   0.545   1.554   9.914 -0.0159  0.6271  1.7289
  857MOL0     H15649   0.595   1.781   9.928 -0.0114  1.3993 -2.8343
  857MOL0     H15650   0.712   1.688  10.014 -0.2566 -0.4626 -0.7395
  857MOL0     H15651   0.756   1.818   9.734  0.9335  2.6548 -0.0352
  857MOL0     H15652   0.872   1.710   9.800 -1.6037 -1.7874 -4.0065
  857MOL0     H15653   0.921   1.898   9.968 -1.9264 -1.4979  1.6205
  857MOL0     H15654   0.756   1.968   9.934 -0.4768 -1.5621  1.3225
  857MOL0     H15655   0.967   2.235   9.777  0.4532  0.1193  1.9600
  857MOL0     H15656   1.208   2.315   9.774  1.0056 -1.1888  1.7897
  857MOL0     H15657   1.630   2.090   9.490 -0.9081 -0.4423  0.4576
  857MOL0     H15658   1.866   2.180   9.469  1.7121  3.2232  1.5469
  857MOL0     H15659   2.127   2.061   9.769 -0.8615  1.9771  0.2162
  857MOL0     H15660   2.119   2.010   9.598  3.1890  1.3894 -1.9305
  857MOL0     H15661   2.332   2.034   9.648 -0.2282  0.2193  0.5556
  857MOL0     H15662   2.295   2.198   9.576  1.6377 -1.6754 -1.2190
  857MOL0     H15663   2.259   2.271   9.813 -0.0361  0.7074 -1.2329
  857MOL0     H15664   2.363   2.136   9.865  0.7316  0.4655  0.2071
  857MOL0     H15665   2.443   2.344   9.648  0.2414 -0.8296 -0.6174
  857MOL0     H15666   2.551   2.228   9.686 -0.0516  0.5002 -3.0513
  857MOL0     H15667   2.500   2.292   9.951 -1.2497  0.4201  0.5628
  857MOL0     H15668   2.440   2.426   9.888  2.3166  0.7717  3.1795
  857MOL0     H15669   2.686   2.413   9.960  2.3542  0.8398 -1.4326
  857MOL0     H15670   2.712   2.311   9.822 -0.8016 -1.8019  2.6777
  857MOL0     H15671   2.578   2.599   9.790 -0.4096  0.0083  0.9671
  857MOL0     H15672   2.668   2.503   9.673 -1.1669  0.1760 -0.8022
  857MOL0     H15673   2.786   2.698   9.861 -0.4718 -0.3669  2.3851
  857MOL0     H15674   2.855   2.540   9.882  0.9113  0.7814 -0.6330
  857MOL0     H15675   1.934   2.174   9.890  1.3719  0.4713 -2.2499
  857MOL0     H15676   1.699   2.082   9.920 -2.3636 -1.0766 -0.9818
  857MOL0     H15677   1.334   1.902   9.740  0.6501 -0.8554  1.5513
  857MOL0     H15678   1.096   1.835   9.764  2.5309 -0.2361 -0.4450
  857MOL0     H15679   1.676   1.554   9.056 -1.3560 -1.0535  0.5436
  857MOL0     H15680   1.827   1.739   9.001 -0.5983  0.7932  0.8650
  857MOL0     H15681   2.300   1.795   9.062 -3.5501 -1.8778 -0.5946
  857MOL0     H15682   2.475   1.954   9.092  0.2596 -0.6246 -1.0565
  857MOL0     H15683   2.466   2.328   8.895  0.3971  0.4689  0.7881
  857MOL0     H15684   2.540   2.261   8.752  0.3044 -1.2833 -0.2637
  857MOL0     H15685   2.758   2.336   8.826 -1.2576 -2.3189 -0.1052
  857MOL0     H15686   2.709   2.322   8.997 -0.9043  1.1516  0.6975
  857MOL0     H15687   2.574   2.537   8.973 -0.9296  1.1609 -0.9638
  857MOL0     H15688   2.630   2.556   8.804 -0.0186  1.8849  1.4389
  857MOL0     H15689   2.805   2.537   9.047  1.6175  0.7589 -0.3154
  857MOL0     H15690   2.859   2.546   8.876 -0.0899  0.1852 -0.7433
  857MOL0     H15691   2.814   2.949   8.961  0.6528  0.2429 -1.5836
  857MOL0     H15692   2.345   2.156   8.726  0.1593  0.5464 -0.8618
  857MOL0     H15693   2.196   2.077   8.593  1.4188  2.1467  2.0311
  857MOL0     H15694   2.115   1.919   8.626 -2.1338  1.1345  1.0598
  857MOL0     H15695   2.059   2.072   8.707  0.1944  2.9558 -1.8520
  858MOL0     O15696   1.311   5.028   4.568  0.1041 -0.5416  0.2098
  858MOL0     C15697   1.219   4.949   4.570  0.4871  0.0110  0.3165
  858MOL0     O15698   1.228   4.811   4.580  0.3033 -0.5255 -0.3660
  858MOL0     C15699   1.346   4.750   4.613 -0.8471  0.8049  0.2763
  858MOL0     C15700   1.404   4.754   4.736  0.1829  0.2451  0.3455
  858MOL0     C15701   1.539   4.713   4.747 -0.8620  0.2716  0.0750
  858MOL0     C15702   1.612   4.649   4.645  0.8850 -0.1671  0.0393
  858MOL0     O15703   1.734   4.582   4.675  0.5473  0.5447 -0.4034
  858MOL0     C15704   1.736   4.435   4.643 -0.8001 -0.8812  0.8676
  858MOL0     C15705   1.880   4.401   4.644 -0.6748 -0.3934 -0.2762
  858MOL0     C15706   1.943   4.447   4.507  0.4792  0.1516  0.5852
  858MOL0     C15707   1.897   4.366   4.388  0.3178 -0.1434 -0.4450
  858MOL0     C15708   1.989   4.405   4.269 -0.0775  0.0890  0.0732
  858MOL0     C15709   1.940   4.330   4.144  0.1305 -0.6942 -1.1998
  858MOL0     C15710   2.023   4.357   4.017  0.1292 -0.6119 -0.8270
  858MOL0     C15711   2.168   4.307   4.004  0.3811 -0.0500  0.7676
  858MOL0     N15712   2.225   4.391   3.901  0.0364 -0.3180  0.2443
  858MOL0     C15713   2.256   4.530   3.910 -0.2835  0.1907 -0.6888
  858MOL0     C15714   2.291   4.558   3.789 -0.2150 -0.9439  0.3426
  858MOL0     C15715   2.336   4.687   3.744  0.0457 -1.0079 -0.3286
  858MOL0     C15716   2.482   4.694   3.727 -0.0088  0.8132 -0.2715
  858MOL0     C15717   2.524   4.839   3.707  0.4923  0.3685  0.7971
  858MOL0     C15718   2.674   4.853   3.668 -0.0194  0.5628  0.5015
  858MOL0     O15719   2.755   4.861   3.790 -0.5706  0.3072  0.1583
  858MOL0     C15720   2.887   4.906   3.774 -0.1299  1.4237  0.8189
  858MOL0     C15721   2.920   5.026   3.841  0.4302  0.7786  0.2366
  858MOL0     C15722   3.055   5.070   3.837 -0.4505  0.7550  0.4362
  858MOL0     C15723   3.158   4.999   3.769 -0.4639 -0.5823 -0.6153
  858MOL0     C15724   3.298   5.047   3.763 -0.0243  0.1107  0.4057
  858MOL0     O15725   3.374   4.992   3.664  0.2279 -0.1789 -0.1789
  858MOL0     C15726   3.503   5.039   3.642 -1.6195  0.2463 -0.5167
  858MOL0     C15727   3.532   5.140   3.549 -0.1975 -0.5618 -0.2195
  858MOL0     C15728   3.664   5.185   3.531 -0.6148  0.0029 -1.2291
  858MOL0     C15729   3.769   5.114   3.597  0.1552  0.3302  0.0888
  858MOL0     O15730   3.897   5.133   3.557  0.7555 -0.6495  0.0477
  858MOL0     C15731   4.003   5.094   3.654 -0.2970 -0.4143  0.2066
  858MOL0     C15732   4.124   5.161   3.597  0.4017  0.3842  0.6010
  858MOL0     C15733   4.248   5.138   3.686 -0.2768 -0.1826 -0.0078
  858MOL0     C15734   4.374   5.192   3.608 -0.6927  0.0117  0.8539
  858MOL0     C15735   4.491   5.214   3.704  0.2996 -0.1407  0.6122
  858MOL0     C15736   4.556   5.084   3.763 -0.5575 -1.4398  0.5201
  858MOL0     C15737   4.708   5.099   3.810 -0.3197  0.1224  0.6381
  858MOL0     C15738   4.802   5.155   3.704  0.5342  0.3948  0.5421
  858MOL0    Cl15739   4.963   5.103   3.717  0.3096  0.1266  0.0150
  858MOL0     C15740   3.736   5.015   3.695 -0.3425  0.0632  0.5638
  858MOL0     C15741   3.606   4.979   3.713  0.6611  0.8858 -0.2152
  858MOL0     O15742   3.335   5.147   3.829  0.3318 -0.6056  0.8653
  858MOL0     C15743   3.116   4.880   3.697 -0.5768 -0.5889  0.1302
  858MOL0     C15744   2.979   4.838   3.698 -0.6296 -0.0045  0.3858
  858MOL0     N15745   2.286   4.449   3.704  0.3274 -0.3763  0.1572
  858MOL0     N15746   2.237   4.349   3.774  0.2517 -0.5384  0.8314
  858MOL0     C15747   1.550   4.649   4.525 -0.0093 -0.0438 -0.2609
  858MOL0     C15748   1.421   4.699   4.502 -0.2298 -0.8342 -0.0839
  858MOL0     C15749   1.079   5.004   4.568 -1.1767 -0.0127  0.7354
  858MOL0     C15750   1.060   5.139   4.531 -0.3014  0.3729 -0.0246
  858MOL0     C15751   0.933   5.194   4.524 -0.2051 -0.4545 -0.8274
  858MOL0     C15752   0.819   5.124   4.566  0.0903  0.3134 -0.9255
  858MOL0     O15753   0.702   5.194   4.563  0.2226 -0.0360  0.6958
  858MOL0     C15754   0.608   5.140   4.654 -0.7268  0.3754  0.3958
  858MOL0     C15755   0.487   5.226   4.664 -0.0834  0.1292  0.3060
  858MOL0     C15756   0.523   5.376   4.678 -0.6145  0.1875  0.2130
  858MOL0     C15757   0.387   5.447   4.694 -0.3842  0.1730  0.4466
  858MOL0     C15758   0.404   5.581   4.755 -0.4335 -0.8736  0.1998
  858MOL0     C15759   0.412   5.682   4.823 -0.3153 -0.1546  0.4414
  858MOL0     C15760   0.831   4.989   4.611 -1.1078 -0.1318  0.0092
  858MOL0     C15761   0.963   4.925   4.608 -0.4671 -0.5570 -1.0473
  858MOL0     C15762   0.962   4.779   4.657 -0.3698  0.0503  0.1076
  858MOL0     H15763   1.356   4.799   4.821 -2.3892 -0.2807 -0.7431
  858MOL0     H15764   1.572   4.719   4.850 -3.6808  3.4150  0.9825
  858MOL0     H15765   1.677   4.372   4.710  0.1005 -3.3813 -0.5558
  858MOL0     H15766   1.687   4.416   4.547 -4.5509 -0.8112  2.5873
  858MOL0     H15767   1.893   4.292   4.644 -1.6263 -0.5721 -2.5654
  858MOL0     H15768   1.918   4.445   4.737 -2.9269  2.3666 -0.5439
  858MOL0     H15769   2.049   4.423   4.514 -0.0646 -2.2041  1.6110
  858MOL0     H15770   1.933   4.554   4.483 -1.8438  0.0506  0.8653
  858MOL0     H15771   1.904   4.257   4.394  1.8084  0.0012  1.2936
  858MOL0     H15772   1.799   4.397   4.352  1.3150  0.5903 -2.7719
  858MOL0     H15773   1.996   4.514   4.264  0.1963  0.2837  2.9897
  858MOL0     H15774   2.090   4.369   4.291  0.5562  1.7789  0.0906
  858MOL0     H15775   1.925   4.222   4.160 -1.3361 -0.3757 -0.2411
  858MOL0     H15776   1.838   4.362   4.123 -1.2341 -3.4294  0.6283
  858MOL0     H15777   2.017   4.466   4.007  0.7393 -0.4274  0.5141
  858MOL0     H15778   1.973   4.317   3.928 -0.3461  0.4351 -1.0518
  858MOL0     H15779   2.234   4.323   4.089 -0.8588  2.0822  1.4152
  858MOL0     H15780   2.166   4.204   3.967 -3.7400  0.5440 -1.3244
  858MOL0     H15781   2.260   4.596   3.996 -0.5955 -1.2138  0.4454
  858MOL0     H15782   2.295   4.712   3.645 -1.3113  3.0867  1.0339
  858MOL0     H15783   2.298   4.760   3.817  1.6513  0.8747 -1.2774
  858MOL0     H15784   2.526   4.652   3.819 -0.6589 -0.9248 -0.7265
  858MOL0     H15785   2.508   4.627   3.645 -1.5845 -0.6330  0.3620
  858MOL0     H15786   2.507   4.899   3.797  2.0652  4.1082 -1.1776
  858MOL0     H15787   2.457   4.886   3.633 -1.1448 -4.2643 -1.0320
  858MOL0     H15788   2.693   4.952   3.627  0.3455  1.1108  1.9284
  858MOL0     H15789   2.704   4.773   3.600  1.6397  0.8691  0.8270
  858MOL0     H15790   2.840   5.066   3.901 -1.5498 -0.0141 -1.7459
  858MOL0     H15791   3.070   5.164   3.889  0.4181  0.5001  0.6588
  858MOL0     H15792   3.449   5.187   3.498  0.0552 -1.1458 -1.1970
  858MOL0     H15793   3.676   5.274   3.470 -1.6992  1.5542  0.7393
  858MOL0     H15794   3.976   5.133   3.752 -2.4165 -0.8848 -0.1222
  858MOL0     H15795   4.026   4.988   3.669  1.9648  0.1133  0.8137
  858MOL0     H15796   4.135   5.119   3.497 -0.8938  2.8696 -0.6634
  858MOL0     H15797   4.108   5.267   3.576  0.0288  0.4213  1.0567
  858MOL0     H15798   4.222   5.197   3.774 -1.1104 -3.1083  1.8737
  858MOL0     H15799   4.269   5.034   3.713  2.3036  0.7333  1.9899
  858MOL0     H15800   4.365   5.285   3.551  0.7388 -1.1792 -1.5142
  858MOL0     H15801   4.411   5.119   3.535 -0.6631 -0.7427  1.6020
  858MOL0     H15802   4.464   5.278   3.789  0.5102 -1.1885  1.5017
  858MOL0     H15803   4.568   5.270   3.649 -0.7672 -0.5139 -1.3426
  858MOL0     H15804   4.490   5.052   3.844 -0.0047 -0.1263  1.5356
  858MOL0     H15805   4.561   5.012   3.681  3.2964  0.2362 -0.9712
  858MOL0     H15806   4.750   5.002   3.838  1.9843  1.1820  1.1238
  858MOL0     H15807   4.712   5.159   3.902  1.2005  0.1438  0.5866
  858MOL0     H15808   4.764   5.131   3.604  2.6466 -1.9339  0.2054
  858MOL0     H15809   4.792   5.264   3.711  0.0975  0.5195 -1.3174
  858MOL0     H15810   3.801   4.963   3.765 -0.7317  0.0141  0.8919
  858MOL0     H15811   3.576   4.898   3.779 -1.0933  0.4048 -1.5100
  858MOL0     H15812   3.190   4.823   3.642  0.0071 -1.8654  2.1406
  858MOL0     H15813   2.949   4.746   3.649  0.8538 -0.7336  0.8006
  858MOL0     H15814   1.594   4.596   4.441 -1.7622 -0.1547 -1.1521
  858MOL0     H15815   1.381   4.689   4.402 -0.8295 -3.0140  0.3449
  858MOL0     H15816   1.143   5.200   4.497  0.4185 -0.4715  0.1770
  858MOL0     H15817   0.920   5.297   4.492 -0.2081 -0.4261 -0.7352
  858MOL0     H15818   0.651   5.152   4.754 -0.7296  2.4554  0.1958
  858MOL0     H15819   0.575   5.039   4.628 -0.3960  0.5211 -0.6494
  858MOL0     H15820   0.440   5.209   4.761 -1.5979  3.5746  0.3413
  858MOL0     H15821   0.421   5.208   4.579 -0.4945 -1.1469  0.8875
  858MOL0     H15822   0.581   5.412   4.593  1.8412 -0.2716  1.6191
  858MOL0     H15823   0.577   5.384   4.773  0.8219 -1.1485 -0.4441
  858MOL0     H15824   0.344   5.469   4.596 -1.8351 -0.7004  0.8505
  858MOL0     H15825   0.315   5.383   4.746 -0.0436 -2.0719 -1.7061
  858MOL0     H15826   0.402   5.773   4.878  0.3315  0.2446 -0.0784
  858MOL0     H15827   0.744   4.929   4.635 -1.5603  1.3856  2.5570
  858MOL0     H15828   0.876   4.744   4.716 -0.8552  1.4446  0.2573
  858MOL0     H15829   0.955   4.715   4.568 -0.3263  2.1349 -1.4662
  858MOL0     H15830   1.050   4.754   4.716 -0.6342  1.8516  1.3467
  859MOL0     O15831   6.329   4.577   9.805 -0.5410  0.4278 -0.0854
  859MOL0     C15832   6.373   4.554   9.690 -1.0048 -0.9791 -0.3822
  859MOL0     O15833   6.432   4.656   9.615 -1.0044  0.1116  0.4075
  859MOL0     C15834   6.461   4.779   9.671 -0.5404 -0.5468  0.3876
  859MOL0     C15835   6.543   4.811   9.784  0.2679  0.8868 -0.8203
  859MOL0     C15836   6.555   4.942   9.817 -0.7791 -0.6140  0.8424
  859MOL0     C15837   6.500   5.052   9.753  0.1061  0.1701 -0.2586
  859MOL0     O15838   6.530   5.169   9.814  0.0859  0.6856  0.2599
  859MOL0     C15839   6.480   5.284   9.742  1.0537  0.1852  0.2765
  859MOL0     C15840   6.506   5.413   9.827 -0.2140 -0.7487  0.3166
  859MOL0     C15841   6.652   5.452   9.835  0.5410  0.4306 -0.4068
  859MOL0     C15842   6.673   5.593   9.886  0.3422 -0.4896  0.1129
  859MOL0     C15843   6.814   5.618   9.886  0.3680 -0.5239 -0.0964
  859MOL0     C15844   6.833   5.775   9.926  0.2941  0.4390 -0.2353
  859MOL0     C15845   6.973   5.817   9.942 -0.2883 -0.1464  0.5434
  859MOL0     C15846   7.075   5.779   9.829  0.5953  0.1082  0.2232
  859MOL0     N15847   7.210   5.823   9.854 -0.5703 -0.6336  0.0327
  859MOL0     C15848   7.276   5.827   9.972 -0.3978 -0.4037 -0.3749
  859MOL0     C15849   7.409   5.836   9.946 -0.1193 -1.0024 -0.0190
  859MOL0     C15850   7.524   5.842  10.043  0.9498  0.9530  0.1161
  859MOL0     C15851   7.595   5.974  10.038 -0.4125  0.2769 -1.0369
  859MOL0     C15852   7.512   6.089  10.087  0.4685 -0.6682 -0.1795
  859MOL0     C15853   7.498   6.107  10.240  0.9292 -0.1034 -1.0001
  859MOL0     O15854   7.431   5.995  10.305  0.5330  0.3908 -0.4208
  859MOL0     C15855   7.294   5.991  10.299 -0.2387  0.0292  0.1157
  859MOL0     C15856   7.199   6.083  10.240  0.3036 -0.1342 -0.2548
  859MOL0     C15857   7.057   6.058  10.234  0.9100 -0.7145  0.1707
  859MOL0     C15858   7.004   5.957  10.302  0.9181  0.7224 -0.4786
  859MOL0     C15859   6.862   5.935  10.323  0.7289 -0.1873 -0.6643
  859MOL0     O15860   6.812   5.860  10.420 -0.6617 -0.5802 -0.1879
  859MOL0     C15861   6.688   5.800  10.396  0.0315 -0.1494 -0.5083
  859MOL0     C15862   6.656   5.717  10.285 -0.1599 -0.9806  0.8793
  859MOL0     C15863   6.528   5.675  10.267  0.6366  0.3254  0.1699
  859MOL0     C15864   6.421   5.702  10.354 -0.0503 -0.2636 -0.5378
  859MOL0     O15865   6.299   5.645  10.340  0.0244  0.5918 -0.2139
  859MOL0     C15866   6.241   5.701  10.219 -0.3375  0.5662  0.3396
  859MOL0     C15867   6.136   5.606  10.166  0.0815 -0.0253  0.2174
  859MOL0     C15868   6.204   5.484  10.096  0.5567 -0.6545  0.3919
  859MOL0     C15869   6.108   5.382  10.040 -0.5262 -1.2213 -0.2392
  859MOL0     C15870   6.198   5.251  10.022  0.0093 -0.2028  0.1078
  859MOL0     C15871   6.125   5.131   9.964 -0.6262 -0.3760  1.3153
  859MOL0     C15872   6.088   5.162   9.816 -0.4753 -0.1589  0.3765
  859MOL0     C15873   6.028   5.036   9.745 -0.1097  0.1772  0.2765
  859MOL0    Cl15874   5.864   4.999   9.814 -0.4609  0.3581 -0.6266
  859MOL0     C15875   6.454   5.774  10.471  0.3911  0.0265  0.3704
  859MOL0     C15876   6.584   5.820  10.491  0.2613 -0.0767 -0.2369
  859MOL0     O15877   6.789   6.002  10.249 -0.1145 -0.0197  0.2028
  859MOL0     C15878   7.092   5.862  10.356  0.1141 -0.6085  0.2538
  859MOL0     C15879   7.232   5.876  10.348 -0.2711 -0.5621 -0.4267
  859MOL0     N15880   7.428   5.835   9.810  0.2853  0.0809  0.1796
  859MOL0     N15881   7.311   5.839   9.758 -0.0994 -0.4043  0.5537
  859MOL0     C15882   6.414   5.022   9.651 -0.5505  0.1478 -0.6657
  859MOL0     C15883   6.408   4.894   9.599 -0.3877  0.0678 -0.0865
  859MOL0     C15884   6.355   4.421   9.641 -0.1505  0.5654 -0.7245
  859MOL0     C15885   6.411   4.389   9.517  0.8042  0.1512  0.1023
  859MOL0     C15886   6.378   4.269   9.451  0.1186  0.0573 -0.3871
  859MOL0     C15887   6.292   4.179   9.506  0.0683  0.3276 -0.5135
  859MOL0     O15888   6.288   4.058   9.439 -0.2452 -0.7028 -0.8698
  859MOL0     C15889   6.206   3.947   9.487  0.1729 -0.6166  0.2575
  859MOL0     C15890   6.225   3.885   9.627 -0.0401  0.6098 -0.2518
  859MOL0     C15891   6.372   3.867   9.653  0.2260 -0.7767  0.3029
  859MOL0     C15892   6.407   3.828   9.796  0.0843  0.2301 -0.3850
  859MOL0     C15893   6.362   3.922   9.905 -1.3142 -0.5952  0.4652
  859MOL0     C15894   6.314   4.007   9.970 -0.5943  0.2725 -0.7337
  859MOL0     C15895   6.233   4.213   9.625  0.3935  0.0450  0.1331
  859MOL0     C15896   6.265   4.324   9.705 -0.1046 -0.1971  0.1349
  859MOL0     C15897   6.199   4.336   9.841  0.7556  0.0629 -0.7507
  859MOL0     H15898   6.592   4.728   9.834 -0.8330  0.6478 -0.1263
  859MOL0     H15899   6.626   4.963   9.897  1.8832  1.0018 -1.7548
  859MOL0     H15900   6.518   5.293   9.640  0.8104 -0.4444  0.1238
  859MOL0     H15901   6.370   5.285   9.737  1.0374  0.8954  0.5981
  859MOL0     H15902   6.478   5.388   9.930  0.7595  0.6030  0.9397
  859MOL0     H15903   6.447   5.499   9.793  3.0680  0.7574 -2.0654
  859MOL0     H15904   6.693   5.434   9.735 -2.4958 -3.4940 -1.1804
  859MOL0     H15905   6.712   5.393   9.904  1.8513  0.6046 -1.3605
  859MOL0     H15906   6.616   5.658   9.820 -0.3811 -0.6427  0.5742
  859MOL0     H15907   6.627   5.618   9.982  1.0999 -0.5948  0.5121
  859MOL0     H15908   6.867   5.548   9.952  2.4379  1.9131  1.0049
  859MOL0     H15909   6.857   5.594   9.789 -2.0206 -2.0053 -0.8726
  859MOL0     H15910   6.771   5.828   9.853  0.1120 -1.9757 -1.9434
  859MOL0     H15911   6.781   5.790  10.021  2.2233 -2.5983  1.4878
  859MOL0     H15912   7.011   5.779  10.037 -0.9348  0.2943  0.9887
  859MOL0     H15913   6.983   5.925   9.951  0.6470 -0.2273  0.5938
  859MOL0     H15914   7.069   5.669   9.828 -4.8177  0.1490 -1.0512
  859MOL0     H15915   7.045   5.827   9.736  1.0618  2.0899  1.0568
  859MOL0     H15916   7.230   5.806  10.069  1.2410 -1.3605  0.2508
  859MOL0     H15917   7.481   5.818  10.140  0.6059  2.3099  0.3267
  859MOL0     H15918   7.595   5.768  10.005 -0.9288 -1.4870  1.1595
  859MOL0     H15919   7.688   5.961  10.094 -1.0201 -1.3760 -0.3447
  859MOL0     H15920   7.628   5.979   9.934  1.8974  0.0771 -0.3620
  859MOL0     H15921   7.413   6.094  10.042 -1.1677 -2.3916  2.9418
  859MOL0     H15922   7.560   6.182  10.053  0.8840 -0.3521  1.2027
  859MOL0     H15923   7.453   6.203  10.264  1.2590 -0.0126 -0.7293
  859MOL0     H15924   7.598   6.103  10.285  0.2636 -2.7758  0.5010
  859MOL0     H15925   7.232   6.171  10.186  1.9033 -0.7178 -0.2901
  859MOL0     H15926   6.996   6.135  10.186 -0.0381 -0.6367  1.4548
  859MOL0     H15927   6.730   5.693  10.208  0.6785 -2.1882  2.0231
  859MOL0     H15928   6.503   5.614  10.181  0.2507  0.3077  0.2914
  859MOL0     H15929   6.199   5.802  10.227 -1.6826  0.1009 -0.6109
  859MOL0     H15930   6.314   5.715  10.138 -1.5278  2.4651 -0.4762
  859MOL0     H15931   6.066   5.576  10.245  0.1682 -0.4437  0.1395
  859MOL0     H15932   6.065   5.647  10.094  0.3978 -0.1099 -0.1419
  859MOL0     H15933   6.257   5.532  10.013  1.4169 -0.0373  1.2763
  859MOL0     H15934   6.274   5.444  10.170 -0.7651  2.1227  3.3919
  859MOL0     H15935   6.061   5.421   9.949 -0.3714  1.5095  0.7791
  859MOL0     H15936   6.035   5.344  10.112  0.7175 -0.7832  1.2962
  859MOL0     H15937   6.249   5.220  10.113  1.0756  3.4719  0.9505
  859MOL0     H15938   6.278   5.271   9.950 -1.0583 -0.5445 -1.2164
  859MOL0     H15939   6.171   5.032   9.974 -0.3466 -0.2229  1.5902
  859MOL0     H15940   6.030   5.124  10.016 -1.3817  3.4882  0.7633
  859MOL0     H15941   6.168   5.207   9.758  0.5807 -3.3250 -0.8750
  859MOL0     H15942   6.003   5.231   9.809 -1.8445 -1.7618  0.3456
  859MOL0     H15943   6.016   5.054   9.638  2.7574  1.8731  0.1205
  859MOL0     H15944   6.091   4.947   9.750  0.2887  0.5010  1.4138
  859MOL0     H15945   6.374   5.803  10.538 -2.5030  1.5961 -3.3767
  859MOL0     H15946   6.594   5.882  10.580 -3.4665 -0.7833  0.8246
  859MOL0     H15947   7.048   5.771  10.395 -2.1603 -1.3802 -3.5691
  859MOL0     H15948   7.281   5.792  10.395  1.9723 -0.6875 -2.7770
  859MOL0     H15949   6.360   5.104   9.605 -0.0824  0.1307 -1.2581
  859MOL0     H15950   6.333   4.883   9.521 -4.1659  0.5958  3.1638
  859MOL0     H15951   6.480   4.452   9.462 -3.2583  2.2245 -3.1755
  859MOL0     H15952   6.427   4.239   9.359 -2.7804  1.1728 -2.4300
  859MOL0     H15953   6.245   3.873   9.417  3.1546  2.3380 -1.4852
  859MOL0     H15954   6.101   3.969   9.465  0.2552 -1.1007 -0.6684
  859MOL0     H15955   6.189   3.782   9.622  4.6590 -1.3126  0.7577
  859MOL0     H15956   6.172   3.944   9.702 -0.7021 -1.1629  0.7347
  859MOL0     H15957   6.421   3.964   9.643  2.8001 -1.9091  1.0014
  859MOL0     H15958   6.419   3.802   9.579  0.8115  0.4756 -0.4590
  859MOL0     H15959   6.372   3.727   9.817  1.8672 -1.1906 -3.5438
  859MOL0     H15960   6.517   3.822   9.800 -0.0192 -1.2467  1.2012
  859MOL0     H15961   6.266   4.087  10.023 -1.1803  0.8565 -2.0985
  859MOL0     H15962   6.156   4.151   9.669 -1.3919  2.3366  0.4743
  859MOL0     H15963   6.128   4.254   9.853 -2.1221  2.7615  2.7754
  859MOL0     H15964   6.273   4.342   9.921  1.3100 -2.5157 -0.9715
  859MOL0     H15965   6.140   4.428   9.845 -1.3637 -1.2576 -0.0802
  860MOL0     O15966  10.826   6.558   0.160 -0.0272 -0.5780 -0.1310
  860MOL0     C15967  10.780   6.669   0.121  0.2645  0.5208  0.9202
  860MOL0     O15968  10.832   6.787   0.163  0.0778  0.0650  0.2467
  860MOL0     C15969  10.947   6.790   0.232 -0.4374 -1.0455  0.0183
  860MOL0     C15970  11.076   6.747   0.186 -0.6790  0.6001  1.0726
  860MOL0     C15971  11.196   6.804   0.235  0.2542 -0.2093  0.5394
  860MOL0     C15972  11.188   6.891   0.344 -0.0704 -0.1658  0.2425
  860MOL0     O15973  11.306   6.943   0.386 -0.1573  0.0044  0.2729
  860MOL0     C15974  11.317   7.048   0.476 -0.0759 -0.6251 -0.4149
  860MOL0     C15975  11.450   7.126   0.475 -0.5744 -1.5280 -0.0587
  860MOL0     C15976  11.444   7.235   0.580 -0.2836  0.7829 -0.5967
  860MOL0     C15977  11.555   7.334   0.538 -0.7386  0.0572  0.1345
  860MOL0     C15978  11.693   7.280   0.563  0.5264 -0.7087 -0.0376
  860MOL0     C15979  11.809   7.374   0.559 -0.7296  0.2141 -0.2058
  860MOL0     C15980  11.834   7.442   0.428  0.2153  0.0902  0.7363
  860MOL0     C15981  11.974   7.496   0.414  0.0104 -1.1882 -0.2748
  860MOL0     N15982  11.994   7.629   0.466  0.1390 -0.2037  0.2873
  860MOL0     C15983  11.966   7.751   0.411 -0.2563 -0.6179 -0.8299
  860MOL0     C15984  12.016   7.845   0.504 -0.0960  0.7755 -0.2041
  860MOL0     C15985  12.002   7.994   0.482  0.0192  0.6006  0.5861
  860MOL0     C15986  12.120   8.049   0.419  0.1833 -0.1676  0.2288
  860MOL0     C15987  12.254   8.056   0.496 -0.0893 -0.3124 -0.1353
  860MOL0     C15988  12.364   8.128   0.413 -0.0915  0.6159 -0.8287
  860MOL0     O15989  12.415   8.043   0.307  0.3643 -0.3563 -0.7094
  860MOL0     C15990  12.546   8.060   0.263  0.9624  1.3616  0.0500
  860MOL0     C15991  12.605   8.187   0.264 -0.7177 -0.4868 -0.2358
  860MOL0     C15992  12.714   8.215   0.179 -0.7333  0.1278 -1.2200
  860MOL0     C15993  12.776   8.114   0.111  0.6085 -0.0999 -0.3740
  860MOL0     C15994  12.903   8.142   0.043 -0.0731 -0.0707 -1.2736
  860MOL0     O15995  12.973   8.035  -0.010 -0.1385  0.4218  0.8093
  860MOL0     C15996  13.111   8.034  -0.044 -0.6055 -0.0212 -0.7671
  860MOL0     C15997  13.164   7.925  -0.103 -0.2394  0.8079  0.2443
  860MOL0     C15998  13.295   7.915  -0.133 -0.1895  0.6452  0.4511
  860MOL0     C15999  13.387   8.010  -0.118  0.1107  0.3168  0.1838
  860MOL0     O16000  13.522   8.016  -0.153  0.7204 -0.0692  0.2868
  860MOL0     C16001  13.606   7.914  -0.093 -0.9788  0.0659 -0.0186
  860MOL0     C16002  13.754   7.932  -0.149 -0.8085 -0.2441 -1.0073
  860MOL0     C16003  13.857   7.832  -0.099 -0.9219  0.4205  1.2738
  860MOL0     C16004  13.863   7.825   0.048  0.4837 -0.8801 -0.1942
  860MOL0     C16005  13.960   7.719   0.114 -0.3071  0.0421  0.5193
  860MOL0     C16006  13.927   7.695   0.258  0.9847  0.1231  0.3728
  860MOL0     C16007  13.994   7.795   0.353  0.1565  0.4776  0.4287
  860MOL0     C16008  13.976   7.759   0.507 -0.2789  0.3640 -0.3460
  860MOL0    Cl16009  14.096   7.614   0.550  0.1344  0.3395 -0.2800
  860MOL0     C16010  13.338   8.132  -0.060 -0.2763  0.2926  0.9017
  860MOL0     C16011  13.203   8.135  -0.018  0.3599 -0.2218  0.2388
  860MOL0     O16012  12.932   8.260   0.036 -0.5448 -0.1741  0.4633
  860MOL0     C16013  12.722   7.983   0.108 -0.6423  0.3659 -0.3488
  860MOL0     C16014  12.608   7.960   0.179 -0.2903 -0.1136  0.1926
  860MOL0     N16015  12.054   7.776   0.616 -0.1905  0.3497 -0.3690
  860MOL0     N16016  12.040   7.653   0.593  0.0991  0.2062  0.2051
  860MOL0     C16017  11.063   6.923   0.406  0.0890  0.3914  0.0664
  860MOL0     C16018  10.942   6.874   0.337 -0.5578 -0.8131 -0.2267
  860MOL0     C16019  10.653   6.667   0.035 -0.8343 -0.3238  0.1322
  860MOL0     C16020  10.569   6.782   0.031  0.4265 -0.4529  0.2671
  860MOL0     C16021  10.447   6.774  -0.041  0.0644  1.3224  0.4251
  860MOL0     C16022  10.419   6.651  -0.109 -0.3953  0.3537 -0.5457
  860MOL0     O16023  10.306   6.653  -0.190 -0.4270 -0.7744 -0.6435
  860MOL0     C16024  10.217   6.542  -0.191 -0.4653  0.0722  0.5482
  860MOL0     C16025  10.123   6.551  -0.311 -0.1071  0.1846  0.8539
  860MOL0     C16026  10.198   6.520  -0.436 -0.5126  0.1078  0.7681
  860MOL0     C16027  10.260   6.378  -0.443 -0.4687 -0.1541  0.1629
  860MOL0     C16028  10.293   6.337  -0.583  0.3801  0.4673  0.2965
  860MOL0     C16029  10.327   6.324  -0.702 -0.1415  0.0904 -0.3916
  860MOL0     C16030  10.506   6.556  -0.117 -0.5905 -0.3156 -0.0394
  860MOL0     C16031  10.631   6.558  -0.050  0.0903 -0.3403 -0.3455
  860MOL0     C16032  10.729   6.447  -0.093  0.4065  0.5643 -0.2108
  860MOL0     H16033  11.081   6.688   0.095 -0.9987 -0.3735  1.6639
  860MOL0     H16034  11.291   6.777   0.191  1.3774  3.8447  0.0398
  860MOL0     H16035  11.240   7.126   0.465  0.7085  0.0468 -1.3273
  860MOL0     H16036  11.295   7.010   0.576  2.0279 -1.6742 -0.3084
  860MOL0     H16037  11.457   7.176   0.377 -1.8672  2.4666  1.6560
  860MOL0     H16038  11.536   7.065   0.503  0.1794 -0.4307  0.0791
  860MOL0     H16039  11.468   7.202   0.681  3.8884  1.3758 -1.2260
  860MOL0     H16040  11.344   7.279   0.574 -1.9648 -2.6470  0.1190
  860MOL0     H16041  11.540   7.374   0.437  1.2955 -0.6357 -0.4656
  860MOL0     H16042  11.544   7.416   0.611 -0.7592 -0.5378  0.8097
  860MOL0     H16043  11.700   7.235   0.662  0.1690 -0.4174  0.1251
  860MOL0     H16044  11.705   7.201   0.488 -3.2945 -2.4273  0.9305
  860MOL0     H16045  11.803   7.455   0.632  0.6477 -0.1627  0.3476
  860MOL0     H16046  11.899   7.316   0.580 -2.5855 -2.2133  1.6028
  860MOL0     H16047  11.764   7.526   0.430 -0.9145 -0.8271  1.7812
  860MOL0     H16048  11.807   7.370   0.350  0.2754  0.7603  0.0880
  860MOL0     H16049  12.049   7.430   0.459 -0.1834  0.4150  2.6253
  860MOL0     H16050  11.998   7.491   0.307 -2.6360  0.8240 -1.0824
  860MOL0     H16051  11.925   7.771   0.312 -1.1006  2.5962  0.0590
  860MOL0     H16052  11.919   8.000   0.412 -1.1595 -1.3750  1.6998
  860MOL0     H16053  11.981   8.053   0.572  0.5943  1.0970  0.3983
  860MOL0     H16054  12.142   7.977   0.341  0.8392 -0.6317  0.8234
  860MOL0     H16055  12.102   8.151   0.384 -0.8699 -0.7232 -0.8723
  860MOL0     H16056  12.292   7.960   0.532  0.3329 -1.1362 -2.5480
  860MOL0     H16057  12.235   8.118   0.583  0.4444  2.0091 -1.5952
  860MOL0     H16058  12.440   8.156   0.486 -0.6305  0.7218 -0.3040
  860MOL0     H16059  12.331   8.222   0.368 -2.2080  0.8346  0.9982
  860MOL0     H16060  12.557   8.269   0.318 -0.0868  1.2210 -2.1431
  860MOL0     H16061  12.763   8.312   0.192  1.2010 -0.9590  0.1267
  860MOL0     H16062  13.093   7.845  -0.123 -2.1521  1.5974  3.2453
  860MOL0     H16063  13.325   7.818  -0.171 -1.4527  0.2772  0.3723
  860MOL0     H16064  13.594   7.920   0.015  0.0971 -0.5545  0.1480
  860MOL0     H16065  13.575   7.816  -0.132  1.6124 -0.5912 -0.6070
  860MOL0     H16066  13.757   7.919  -0.258 -0.0642 -0.2021 -0.9925
  860MOL0     H16067  13.791   8.034  -0.136 -1.3758 -0.0990 -0.4961
  860MOL0     H16068  13.845   7.737  -0.151  1.2920 -0.4095  2.1852
  860MOL0     H16069  13.956   7.867  -0.130 -0.9122  0.1343  0.9783
  860MOL0     H16070  13.767   7.796   0.092  0.5775 -0.0347  0.5987
  860MOL0     H16071  13.879   7.925   0.090 -0.4416 -1.3579  1.4011
  860MOL0     H16072  14.064   7.748   0.101 -0.0361 -0.9460  0.3745
  860MOL0     H16073  13.949   7.620   0.068 -0.6360  0.5470 -0.5338
  860MOL0     H16074  13.820   7.692   0.277  1.2268  1.5241  2.2542
  860MOL0     H16075  13.964   7.595   0.283 -0.1380 -0.3294  0.2639
  860MOL0     H16076  13.977   7.901   0.334  2.1333  0.6403 -0.7138
  860MOL0     H16077  14.101   7.779   0.335 -0.4381 -3.7760 -0.4296
  860MOL0     H16078  13.996   7.845   0.571  0.8368 -0.7300  0.8456
  860MOL0     H16079  13.874   7.731   0.536  0.0456  0.4380  0.9515
  860MOL0     H16080  13.403   8.218  -0.046  1.7072 -0.7944 -1.1032
  860MOL0     H16081  13.163   8.230   0.017 -1.0246 -0.9216  0.6644
  860MOL0     H16082  12.765   7.909   0.040  2.0910  1.8522 -0.3834
  860MOL0     H16083  12.565   7.861   0.164  0.3384 -0.3263 -0.2134
  860MOL0     H16084  11.064   6.984   0.496  0.0892 -1.1798  1.1636
  860MOL0     H16085  10.850   6.915   0.378  1.1537  3.3555 -0.0864
  860MOL0     H16086  10.586   6.869   0.094 -0.4693 -1.2802  1.6933
  860MOL0     H16087  10.365   6.844  -0.038 -0.3576  0.9113 -0.8378
  860MOL0     H16088  10.162   6.547  -0.097  0.0768 -1.0966  0.9459
  860MOL0     H16089  10.271   6.447  -0.195  0.3323  0.5339  0.0384
  860MOL0     H16090  10.081   6.652  -0.321  0.1615  0.2081 -0.1866
  860MOL0     H16091  10.046   6.475  -0.293  0.3072 -0.4074  0.2007
  860MOL0     H16092  10.275   6.597  -0.446 -0.4767 -0.0518 -0.4287
  860MOL0     H16093  10.134   6.524  -0.525  0.0419 -0.3144  0.3445
  860MOL0     H16094  10.349   6.379  -0.378  0.3665  3.1332 -0.8272
  860MOL0     H16095  10.183   6.316  -0.396 -1.6032  1.0643 -0.0406
  860MOL0     H16096  10.358   6.305  -0.803 -0.4528  2.5761 -1.0170
  860MOL0     H16097  10.482   6.474  -0.183 -2.0992  0.9671 -1.1815
  860MOL0     H16098  10.732   6.430  -0.201  0.4669  0.7448 -0.2371
  860MOL0     H16099  10.835   6.468  -0.073 -0.5714  2.3069  4.1860
  860MOL0     H16100  10.704   6.354  -0.040 -0.7319  0.6439 -0.5880
  861MOL0     O16101   6.774   5.857   1.915 -0.0346  0.7848 -0.1865
  861MOL0     C16102   6.716   5.753   1.954 -0.4381 -0.4382 -0.7295
  861MOL0     O16103   6.764   5.632   1.966 -0.0210  0.6012 -0.3903
  861MOL0     C16104   6.890   5.610   1.924  0.0911  0.2577 -0.2605
  861MOL0     C16105   6.997   5.658   2.005 -0.2024 -0.3803 -0.0130
  861MOL0     C16106   7.130   5.619   1.967 -0.0933 -0.0555 -0.5394
  861MOL0     C16107   7.150   5.547   1.848  0.0764 -1.3572 -0.4168
  861MOL0     O16108   7.276   5.517   1.800 -0.0099 -0.1560 -0.5506
  861MOL0     C16109   7.364   5.629   1.829  0.5011  0.4482  0.8197
  861MOL0     C16110   7.478   5.616   1.732 -0.7746  0.8344  0.2490
  861MOL0     C16111   7.583   5.721   1.780  0.3988 -0.3817 -0.4162
  861MOL0     C16112   7.716   5.659   1.825  0.6042 -0.4982 -0.5296
  861MOL0     C16113   7.815   5.770   1.849  0.7974 -0.3266 -0.0758
  861MOL0     C16114   7.950   5.739   1.904 -0.0662 -0.2128 -0.1812
  861MOL0     C16115   8.041   5.646   1.823 -0.6682 -0.2484 -0.3385
  861MOL0     C16116   8.081   5.685   1.683  0.1407  0.2566 -0.1943
  861MOL0     N16117   8.212   5.636   1.641 -0.0274 -0.4315 -0.1562
  861MOL0     C16118   8.253   5.507   1.641 -0.8325  0.1553  0.9367
  861MOL0     C16119   8.380   5.499   1.597  0.8802 -0.1479 -0.5346
  861MOL0     C16120   8.451   5.376   1.573 -0.6100  0.5646  0.3210
  861MOL0     C16121   8.521   5.309   1.692  0.6309 -0.3084  0.2968
  861MOL0     C16122   8.596   5.171   1.666 -0.1060  0.6919 -0.4248
  861MOL0     C16123   8.637   5.110   1.799  0.0434  0.6689 -0.3395
  861MOL0     O16124   8.693   5.208   1.878  0.7203  0.2906  0.5345
  861MOL0     C16125   8.826   5.196   1.918  0.6200 -0.2894  0.0707
  861MOL0     C16126   8.862   5.251   2.046 -0.0269 -0.5063 -0.8177
  861MOL0     C16127   8.994   5.248   2.089 -1.2178  0.1916  0.0143
  861MOL0     C16128   9.092   5.185   2.016 -0.1847 -0.2704 -0.3596
  861MOL0     C16129   9.239   5.205   2.050  0.1982  0.0709  0.6528
  861MOL0     O16130   9.335   5.163   1.960  0.2824  0.3525 -0.6043
  861MOL0     C16131   9.467   5.158   1.997  1.2867  0.2952  0.0106
  861MOL0     C16132   9.502   5.067   2.095 -0.2996  0.4768 -0.4282
  861MOL0     C16133   9.635   5.056   2.133 -0.9625  0.6032  0.7033
  861MOL0     C16134   9.737   5.141   2.079 -0.5756 -0.3124 -1.1435
  861MOL0     O16135   9.869   5.122   2.100 -0.5641  0.0284  1.0749
  861MOL0     C16136   9.917   5.025   2.195  0.0341 -0.1161  0.8907
  861MOL0     C16137  10.074   5.020   2.207  0.1430 -0.8141  0.1499
  861MOL0     C16138  10.110   4.918   2.312 -0.4086  0.2857 -0.1720
  861MOL0     C16139  10.253   4.927   2.338  0.3079  0.6096  0.6233
  861MOL0     C16140  10.310   4.822   2.434  0.1555 -0.5600  0.6220
  861MOL0     C16141  10.468   4.850   2.463 -0.1615  0.9555  0.9588
  861MOL0     C16142  10.517   4.761   2.579  0.1533  0.5873 -0.2281
  861MOL0     C16143  10.653   4.805   2.617 -0.1457 -0.2176 -0.1740
  861MOL0    Cl16144  10.735   4.686   2.716  0.1083 -0.3140 -0.0925
  861MOL0     C16145   9.702   5.236   1.979  0.7423 -0.3512 -0.7359
  861MOL0     C16146   9.568   5.239   1.940  0.3603  0.3506 -0.2422
  861MOL0     O16147   9.266   5.278   2.145 -0.4553 -0.3978  0.6435
  861MOL0     C16148   9.060   5.140   1.883  0.3153 -0.2521 -0.1572
  861MOL0     C16149   8.926   5.136   1.838  0.6357 -0.0182  0.5444
  861MOL0     N16150   8.424   5.630   1.588 -0.4621  0.2107  0.0338
  861MOL0     N16151   8.327   5.713   1.617 -0.8437  0.6883  0.0485
  861MOL0     C16152   7.033   5.505   1.771  0.6799  0.0465 -0.8897
  861MOL0     C16153   6.910   5.546   1.807  0.1698  0.3990 -0.2488
  861MOL0     C16154   6.576   5.751   2.001  0.7302 -0.2261  1.6952
  861MOL0     C16155   6.499   5.632   1.973 -0.1448 -0.1017  0.2392
  861MOL0     C16156   6.366   5.628   1.997 -0.4871 -0.0070  1.0832
  861MOL0     C16157   6.309   5.738   2.054  0.2104  0.1182  0.2524
  861MOL0     O16158   6.173   5.755   2.077  0.8582  0.6431  0.7926
  861MOL0     C16159   6.085   5.633   2.072 -0.9137 -0.0227 -0.0278
  861MOL0     C16160   5.935   5.659   2.094 -0.7126  0.3798 -0.6687
  861MOL0     C16161   5.918   5.755   2.218 -0.0840 -0.0105  0.1670
  861MOL0     C16162   5.781   5.718   2.287  0.7380  0.2144  0.1193
  861MOL0     C16163   5.667   5.776   2.218 -0.4083 -0.4056  0.9806
  861MOL0     C16164   5.577   5.819   2.154 -0.8433  0.1749  0.2907
  861MOL0     C16165   6.385   5.849   2.095 -0.7688  0.0325 -0.2965
  861MOL0     C16166   6.515   5.860   2.067 -0.1812 -0.0147  0.2596
  861MOL0     C16167   6.608   5.976   2.122  0.9829  0.2851  0.0743
  861MOL0     H16168   6.984   5.708   2.100  2.6210 -2.2486  1.4718
  861MOL0     H16169   7.214   5.648   2.028 -0.2611 -0.6907 -0.0023
  861MOL0     H16170   7.318   5.726   1.809  0.5224  0.0592 -1.3554
  861MOL0     H16171   7.392   5.632   1.934 -2.3490  1.9347  1.6646
  861MOL0     H16172   7.448   5.642   1.630  0.9405 -0.0787 -0.5271
  861MOL0     H16173   7.502   5.510   1.720 -2.2408  0.6202 -1.1583
  861MOL0     H16174   7.541   5.796   1.847 -1.4715 -2.7401  1.2441
  861MOL0     H16175   7.610   5.786   1.696  2.4810  2.0926  1.9745
  861MOL0     H16176   7.703   5.623   1.928  1.3842 -0.5794 -0.4510
  861MOL0     H16177   7.758   5.589   1.753 -1.4837 -2.1761 -0.2139
  861MOL0     H16178   7.823   5.835   1.761 -2.1577 -0.4241 -0.4958
  861MOL0     H16179   7.782   5.839   1.927 -1.2252 -1.5329  0.1943
  861MOL0     H16180   8.007   5.831   1.919 -0.9238  0.3695 -0.3982
  861MOL0     H16181   7.931   5.703   2.006 -0.0278 -2.1911 -0.8284
  861MOL0     H16182   8.000   5.544   1.817  0.9976 -1.0621  1.1804
  861MOL0     H16183   8.125   5.642   1.893 -0.4490  1.3477 -0.4790
  861MOL0     H16184   8.024   5.633   1.605  0.6680 -0.8988  0.1633
  861MOL0     H16185   8.079   5.793   1.665  0.5907  0.3460  0.2674
  861MOL0     H16186   8.190   5.425   1.674 -0.1665 -1.4983 -1.6213
  861MOL0     H16187   8.374   5.304   1.546 -1.8854  0.8887  2.7878
  861MOL0     H16188   8.517   5.379   1.486 -0.3537 -2.4248  0.3066
  861MOL0     H16189   8.589   5.383   1.735  0.1969 -1.3831  3.0384
  861MOL0     H16190   8.444   5.295   1.769  0.8055 -0.7890  0.3878
  861MOL0     H16191   8.680   5.183   1.597  0.3639  1.2849  0.2265
  861MOL0     H16192   8.527   5.103   1.615  0.1039 -0.3142  0.6019
  861MOL0     H16193   8.687   5.016   1.777 -1.5279 -0.7596  1.7593
  861MOL0     H16194   8.543   5.085   1.850 -2.1733  2.0567 -3.4301
  861MOL0     H16195   8.787   5.289   2.115  1.3689  0.1031  0.4067
  861MOL0     H16196   9.013   5.297   2.184  2.5665  1.0879 -1.0400
  861MOL0     H16197   9.436   5.004   2.153  2.5040  1.2170  4.0606
  861MOL0     H16198   9.656   4.983   2.210  1.9459 -2.1439 -2.3567
  861MOL0     H16199   9.878   5.041   2.296 -0.1078 -1.2466  1.0268
  861MOL0     H16200   9.883   4.924   2.170  0.6026  0.5035 -3.1618
  861MOL0     H16201  10.104   4.991   2.105 -1.8828  0.4424 -0.8794
  861MOL0     H16202  10.113   5.118   2.236  0.8006 -0.4036 -1.8978
  861MOL0     H16203  10.054   4.939   2.404 -0.9911  2.4997 -0.9720
  861MOL0     H16204  10.087   4.814   2.288 -0.3862  0.1298  0.4472
  861MOL0     H16205  10.260   5.030   2.373 -2.3968 -0.0641  3.6361
  861MOL0     H16206  10.302   4.907   2.242  0.2920  0.2749  0.6841
  861MOL0     H16207  10.298   4.722   2.391 -2.6635 -1.0083  2.2360
  861MOL0     H16208  10.259   4.830   2.530  0.0367 -1.1701  0.6081
  861MOL0     H16209  10.537   4.833   2.380  0.1479  1.8930  1.0108
  861MOL0     H16210  10.484   4.954   2.493 -1.4119  1.1335  1.0475
  861MOL0     H16211  10.514   4.654   2.557 -0.6138  0.1111  1.8883
  861MOL0     H16212  10.447   4.784   2.660  0.2468 -1.8127  0.6406
  861MOL0     H16213  10.712   4.826   2.527  1.3505  1.6024  1.1314
  861MOL0     H16214  10.648   4.905   2.662 -1.8816  1.1989 -3.2121
  861MOL0     H16215   9.767   5.307   1.930 -1.3830  0.0404 -3.1811
  861MOL0     H16216   9.535   5.313   1.868  1.0644 -0.4696 -1.4323
  861MOL0     H16217   9.138   5.107   1.815  0.2594  0.0267 -0.3558
  861MOL0     H16218   8.918   5.108   1.733  0.9347  0.5960  0.3488
  861MOL0     H16219   7.031   5.445   1.681 -1.0473  0.6627 -1.2884
  861MOL0     H16220   6.827   5.512   1.746  2.0198 -2.2524 -1.4912
  861MOL0     H16221   6.548   5.552   1.919  1.0835  2.6079 -3.0558
  861MOL0     H16222   6.305   5.546   1.959 -2.0957  2.4435 -2.2228
  861MOL0     H16223   6.130   5.565   2.144  0.4405 -1.5635 -2.1945
  861MOL0     H16224   6.092   5.586   1.974 -3.2031 -0.5839  0.0305
  861MOL0     H16225   5.892   5.560   2.112 -2.3053  1.0724 -0.5382
  861MOL0     H16226   5.885   5.696   2.003  0.2486 -0.4343 -1.5585
  861MOL0     H16227   5.918   5.858   2.183  1.6083  0.7337  2.1697
  861MOL0     H16228   5.990   5.734   2.297 -0.3633 -0.9301  0.1943
  861MOL0     H16229   5.776   5.609   2.284  3.2970  0.0371 -2.7127
  861MOL0     H16230   5.782   5.745   2.393 -1.2514 -0.0629  0.2399
  861MOL0     H16231   5.505   5.877   2.099  0.0582  1.7367  0.7158
  861MOL0     H16232   6.333   5.918   2.161  1.5052  1.8620 -0.2936
  861MOL0     H16233   6.710   5.945   2.147  0.5823  2.2284  5.3697
  861MOL0     H16234   6.620   6.058   2.051  1.8641 -0.4217 -0.6171
  861MOL0     H16235   6.557   6.011   2.212 -0.2177  1.0035 -0.8605
  862MOL0     O16236   6.191   8.591   4.400  0.0238 -0.0380  0.0535
  862MOL0     C16237   6.128   8.498   4.353 -0.8961  0.5227 -0.2726
  862MOL0     O16238   6.156   8.358   4.370 -0.3283  0.3033 -0.1530
  862MOL0     C16239   6.260   8.315   4.446 -1.2014 -0.0193  0.3746
  862MOL0     C16240   6.247   8.192   4.515  0.4329 -0.5408  0.4447
  862MOL0     C16241   6.362   8.135   4.582 -0.1262 -0.3031  0.0758
  862MOL0     C16242   6.485   8.200   4.588 -0.0732 -0.0326 -0.2264
  862MOL0     O16243   6.583   8.136   4.666  0.3481  0.1042  0.7188
  862MOL0     C16244   6.663   8.224   4.742 -0.4864  0.7726 -0.9636
  862MOL0     C16245   6.700   8.147   4.870 -0.5190 -0.3753 -0.2345
  862MOL0     C16246   6.735   8.246   4.988 -1.4049  0.3085 -0.3467
  862MOL0     C16247   6.816   8.373   4.954  0.3755 -0.2690 -0.8406
  862MOL0     C16248   6.947   8.341   4.890 -0.1138 -0.5030  0.3251
  862MOL0     C16249   7.031   8.243   4.983 -1.1442 -0.8972 -0.1328
  862MOL0     C16250   7.178   8.219   4.932 -0.0137  1.3000 -0.1921
  862MOL0     C16251   7.180   8.125   4.812 -0.2444 -0.6313  0.9852
  862MOL0     N16252   7.298   8.117   4.728 -0.8309  0.6269  0.0565
  862MOL0     C16253   7.329   8.214   4.644 -0.5423  0.7818 -0.1799
  862MOL0     C16254   7.446   8.168   4.586 -0.2681  0.2220  0.3107
  862MOL0     C16255   7.515   8.241   4.478  0.0630  0.0836  0.5158
  862MOL0     C16256   7.665   8.264   4.501 -0.1197  0.2459 -0.8238
  862MOL0     C16257   7.751   8.142   4.452 -0.8199  0.5068 -0.2477
  862MOL0     C16258   7.897   8.180   4.474 -0.1322 -0.4232 -0.1839
  862MOL0     O16259   7.938   8.271   4.377 -0.5960  0.4687  0.4192
  862MOL0     C16260   8.067   8.247   4.322  0.0303 -0.2751  0.4046
  862MOL0     C16261   8.170   8.166   4.372 -0.3576  1.3867 -0.0369
  862MOL0     C16262   8.294   8.157   4.306  0.2339 -0.3784 -0.2624
  862MOL0     C16263   8.325   8.226   4.191  0.5177 -0.0787 -0.5412
  862MOL0     C16264   8.464   8.229   4.146  0.2638 -0.7022 -0.5288
  862MOL0     O16265   8.562   8.172   4.226 -0.4761  0.2633 -0.1046
  862MOL0     C16266   8.690   8.181   4.185  0.2966 -0.4328  0.6850
  862MOL0     C16267   8.746   8.081   4.104 -0.4515  0.5717 -0.4254
  862MOL0     C16268   8.880   8.093   4.060 -0.8166  0.3423 -0.1731
  862MOL0     C16269   8.949   8.208   4.078 -0.2613 -0.3108  0.5929
  862MOL0     O16270   9.077   8.206   4.029  0.0611 -0.0321 -0.5123
  862MOL0     C16271   9.136   8.332   3.985 -0.0573 -0.2266  0.1471
  862MOL0     C16272   9.273   8.292   3.941  0.6592  0.3129  0.6274
  862MOL0     C16273   9.341   8.384   3.833 -0.7049  0.0202  0.4290
  862MOL0     C16274   9.473   8.318   3.805 -0.0930  0.3938 -0.6036
  862MOL0     C16275   9.556   8.380   3.696  0.5243  0.5707  1.2477
  862MOL0     C16276   9.699   8.351   3.716 -0.1774  0.1124  0.4105
  862MOL0     C16277   9.794   8.396   3.598 -0.0982  0.6850 -0.1731
  862MOL0     C16278   9.941   8.387   3.651  0.3786 -0.0676 -0.0246
  862MOL0    Cl16279  10.050   8.424   3.528 -0.2829 -0.0838 -0.6482
  862MOL0     C16280   8.893   8.309   4.159 -0.4235  0.1251  0.0099
  862MOL0     C16281   8.764   8.298   4.215 -0.8098  0.9877 -0.3352
  862MOL0     O16282   8.482   8.279   4.033  0.5143  0.3217  0.8329
  862MOL0     C16283   8.224   8.314   4.146 -0.1757  0.2158  0.9133
  862MOL0     C16284   8.096   8.318   4.202  0.1647 -0.4103 -0.1148
  862MOL0     N16285   7.475   8.049   4.647  0.2720 -0.3615 -0.1537
  862MOL0     N16286   7.388   8.018   4.739  0.5633 -0.2184  0.6106
  862MOL0     C16287   6.495   8.315   4.515  0.2793 -0.1512 -0.0987
  862MOL0     C16288   6.387   8.380   4.444  0.0229 -0.7953  0.5034
  862MOL0     C16289   6.015   8.523   4.260 -0.4161 -0.0206 -0.5822
  862MOL0     C16290   5.970   8.413   4.184  0.5064  0.6766  0.7414
  862MOL0     C16291   5.865   8.427   4.093  0.6704 -0.3324  0.3636
  862MOL0     C16292   5.807   8.554   4.079 -0.1948 -0.4623 -0.3332
  862MOL0     O16293   5.694   8.570   4.003 -1.1196  0.4606  0.2481
  862MOL0     C16294   5.570   8.588   4.078 -0.2062 -0.1529 -0.7267
  862MOL0     C16295   5.505   8.458   4.085  0.4332  0.7941 -0.2948
  862MOL0     C16296   5.362   8.468   4.140  0.1109  0.1239  0.3172
  862MOL0     C16297   5.366   8.468   4.290 -0.0414 -1.5132  1.1408
  862MOL0     C16298   5.230   8.466   4.343  0.3161 -0.1380  0.3833
  862MOL0     C16299   5.122   8.449   4.391 -0.1848  0.5882  0.5166
  862MOL0     C16300   5.856   8.664   4.147 -0.3099 -0.5754 -0.4181
  862MOL0     C16301   5.959   8.650   4.237  0.4181  0.0897 -0.5214
  862MOL0     C16302   6.006   8.780   4.306  0.1172 -0.0886 -0.1602
  862MOL0     H16303   6.155   8.135   4.524 -0.7951  1.3397  0.2619
  862MOL0     H16304   6.339   8.045   4.638 -1.0294  0.6370  1.2857
  862MOL0     H16305   6.744   8.250   4.673 -0.1223  0.6479 -0.5884
  862MOL0     H16306   6.606   8.314   4.765  1.0728  1.7128 -0.6774
  862MOL0     H16307   6.786   8.080   4.860  0.9359  1.3929 -0.1519
  862MOL0     H16308   6.606   8.099   4.898 -1.1003  1.2787  0.8089
  862MOL0     H16309   6.791   8.194   5.066 -0.5574  0.4896 -0.8255
  862MOL0     H16310   6.639   8.260   5.038 -1.1681 -5.0480  2.3363
  862MOL0     H16311   6.756   8.420   4.876  0.2504 -0.1087 -0.6478
  862MOL0     H16312   6.830   8.435   5.043  2.5292 -0.2451 -1.1535
  862MOL0     H16313   6.931   8.281   4.799 -0.2448 -1.5827  1.0419
  862MOL0     H16314   6.999   8.435   4.866  1.1838 -0.9679  1.2020
  862MOL0     H16315   7.041   8.286   5.084 -2.2567 -0.9674  0.0219
  862MOL0     H16316   6.977   8.149   5.000 -0.8432 -1.0984 -0.2973
  862MOL0     H16317   7.236   8.167   5.009  1.0246  0.6126 -1.3903
  862MOL0     H16318   7.231   8.312   4.913 -2.4033  2.4755 -1.5227
  862MOL0     H16319   7.151   8.027   4.850 -3.9725  0.0882  0.4091
  862MOL0     H16320   7.095   8.147   4.747  0.7153 -0.9847 -0.4378
  862MOL0     H16321   7.271   8.305   4.625 -1.4164 -0.0723 -1.8139
  862MOL0     H16322   7.511   8.184   4.385  2.8386 -1.5117  1.2677
  862MOL0     H16323   7.459   8.334   4.464 -0.5278 -0.7234 -3.7119
  862MOL0     H16324   7.700   8.362   4.465 -0.8212  1.8929  2.5881
  862MOL0     H16325   7.684   8.286   4.606  0.2221  0.9763 -1.0300
  862MOL0     H16326   7.731   8.105   4.351  2.4049  1.9456 -1.5530
  862MOL0     H16327   7.725   8.067   4.527  0.2999  2.1467  1.8946
  862MOL0     H16328   7.951   8.085   4.464  5.1615  2.1244  0.6800
  862MOL0     H16329   7.924   8.212   4.575  2.0256 -1.0156 -0.5190
  862MOL0     H16330   8.155   8.101   4.458 -1.9060 -0.6956 -1.7522
  862MOL0     H16331   8.357   8.083   4.355  0.3662 -2.3150 -3.1124
  862MOL0     H16332   8.688   7.990   4.087  0.2773  0.1348 -0.6295
  862MOL0     H16333   8.934   8.015   4.007 -2.7153 -0.7633 -0.5928
  862MOL0     H16334   9.082   8.370   3.897  1.9508  3.3874  0.2835
  862MOL0     H16335   9.134   8.415   4.055  0.7634 -0.1922  0.1418
  862MOL0     H16336   9.340   8.306   4.026  0.9337 -0.2848  0.5139
  862MOL0     H16337   9.277   8.189   3.906  0.0506  1.2792 -2.6663
  862MOL0     H16338   9.291   8.380   3.736  4.4422 -2.4616 -2.5005
  862MOL0     H16339   9.361   8.488   3.862 -0.4730 -0.3451  1.6350
  862MOL0     H16340   9.463   8.212   3.781  0.5110  0.0626  0.5245
  862MOL0     H16341   9.522   8.326   3.903  0.4880  1.1324 -0.9531
  862MOL0     H16342   9.540   8.488   3.703  2.8132  1.1153 -0.3974
  862MOL0     H16343   9.520   8.354   3.596  0.6320  1.2132  1.0386
  862MOL0     H16344   9.722   8.403   3.809  2.2257 -3.7626  2.2670
  862MOL0     H16345   9.709   8.243   3.734 -0.2954  0.1029  0.4151
  862MOL0     H16346   9.774   8.500   3.568 -5.8276  0.1811  0.6434
  862MOL0     H16347   9.772   8.326   3.518 -1.5694 -0.2109  0.9543
  862MOL0     H16348   9.956   8.459   3.732  0.2482 -0.5993  0.4761
  862MOL0     H16349   9.960   8.287   3.693 -2.0359  0.1241  1.7026
  862MOL0     H16350   8.959   8.394   4.177  1.8058 -1.3722 -0.6561
  862MOL0     H16351   8.732   8.365   4.294  2.0100 -0.3238  2.0853
  862MOL0     H16352   8.253   8.364   4.054  0.9696 -0.6253  0.7924
  862MOL0     H16353   8.035   8.401   4.168  0.5026 -0.6161 -1.2698
  862MOL0     H16354   6.596   8.356   4.518  1.2743 -2.4659  0.6936
  862MOL0     H16355   6.405   8.479   4.403  0.6212  0.4554  3.4857
  862MOL0     H16356   6.006   8.311   4.187 -0.2736  0.4086  1.4473
  862MOL0     H16357   5.823   8.349   4.029 -0.3760 -0.5107  1.2403
  862MOL0     H16358   5.513   8.664   4.023 -0.0979 -0.0961 -0.7613
  862MOL0     H16359   5.591   8.635   4.174  2.1068  1.5365 -1.9570
  862MOL0     H16360   5.568   8.386   4.138  0.6164 -0.2703 -1.9010
  862MOL0     H16361   5.498   8.432   3.979 -0.0152  0.8379 -0.2781
  862MOL0     H16362   5.321   8.374   4.102  3.6562  0.6664 -6.3124
  862MOL0     H16363   5.309   8.557   4.104  0.5205 -1.3090 -4.5617
  862MOL0     H16364   5.419   8.384   4.335 -1.3825 -1.7592  2.3714
  862MOL0     H16365   5.388   8.567   4.332 -0.2060 -0.8629 -0.2572
  862MOL0     H16366   5.024   8.435   4.431  1.2882 -2.0051  3.6775
  862MOL0     H16367   5.809   8.761   4.131 -0.2984 -0.3137  1.0193
  862MOL0     H16368   5.951   8.868   4.273 -2.6261 -0.9651  1.6936
  862MOL0     H16369   5.972   8.773   4.410 -1.2262 -1.1155 -0.6509
  862MOL0     H16370   6.114   8.801   4.300  0.0110  1.1946  1.5200
  863MOL0     O16371   6.255  11.225   1.986 -0.5820 -0.2027  0.6563
  863MOL0     C16372   6.279  11.332   2.046 -0.5043 -0.9201  0.3380
  863MOL0     O16373   6.190  11.441   2.056  0.5540 -0.2649 -0.4207
  863MOL0     C16374   6.062  11.430   2.012  0.2933 -0.4551  0.4270
  863MOL0     C16375   6.021  11.549   1.956 -0.5466  1.1739 -0.0568
  863MOL0     C16376   5.887  11.567   1.925 -0.5330  0.5341 -0.4189
  863MOL0     C16377   5.806  11.457   1.918  0.0855 -0.0032  0.2655
  863MOL0     O16378   5.679  11.476   1.868 -0.1301  0.3753  0.2353
  863MOL0     C16379   5.610  11.372   1.808  1.3380 -0.8262 -0.1748
  863MOL0     C16380   5.480  11.434   1.760  0.5079  0.1894  0.3070
  863MOL0     C16381   5.417  11.320   1.674  0.2713 -0.2637 -0.4158
  863MOL0     C16382   5.268  11.351   1.676  0.3169  0.2131  0.1740
  863MOL0     C16383   5.193  11.241   1.595 -0.0280 -0.6904  0.2534
  863MOL0     C16384   5.084  11.296   1.496 -0.2321 -0.3491  0.2040
  863MOL0     C16385   5.149  11.382   1.384  0.3275  0.0071 -0.7253
  863MOL0     C16386   5.058  11.413   1.262  0.1797 -0.3139  0.1832
  863MOL0     N16387   4.933  11.475   1.315 -0.3251 -0.1131  0.4701
  863MOL0     C16388   4.922  11.611   1.337 -0.0571 -0.3642  1.0075
  863MOL0     C16389   4.791  11.631   1.360 -0.5154 -0.0398  0.0178
  863MOL0     C16390   4.731  11.762   1.396  0.1892  0.6895 -0.4350
  863MOL0     C16391   4.735  11.803   1.539  0.4631 -0.3374 -0.5977
  863MOL0     C16392   4.694  11.688   1.638  0.7032  0.2233 -0.9228
  863MOL0     C16393   4.693  11.734   1.782  1.0832 -0.7473  0.6941
  863MOL0     O16394   4.569  11.810   1.800 -0.4527  0.3134 -0.1929
  863MOL0     C16395   4.607  11.940   1.823  0.7182 -0.7260  0.2701
  863MOL0     C16396   4.679  11.983   1.938 -0.3733 -0.5812  0.1494
  863MOL0     C16397   4.710  12.119   1.965 -0.0142  0.4424  0.1136
  863MOL0     C16398   4.672  12.219   1.870  0.6789 -0.6123  0.0878
  863MOL0     C16399   4.706  12.360   1.894 -0.0245  0.2564  0.1250
  863MOL0     O16400   4.697  12.444   1.789  0.4915  0.4823 -0.1111
  863MOL0     C16401   4.765  12.561   1.782 -0.0781 -0.5782 -1.0609
  863MOL0     C16402   4.845  12.577   1.673  0.3133  0.0986  0.5088
  863MOL0     C16403   4.921  12.684   1.654  0.1189 -0.2745 -0.3632
  863MOL0     C16404   4.939  12.771   1.758 -0.4841 -0.3854 -0.0822
  863MOL0     O16405   5.028  12.869   1.750 -0.2277 -0.1230 -0.3101
  863MOL0     C16406   5.167  12.832   1.759  0.4789  0.0804  0.4042
  863MOL0     C16407   5.261  12.937   1.696  0.4141  0.6287  0.1512
  863MOL0     C16408   5.264  12.903   1.545 -0.4742  0.3050  0.6212
  863MOL0     C16409   5.344  13.009   1.466 -0.1986 -0.1445 -0.4595
  863MOL0     C16410   5.380  12.965   1.325  0.3709 -0.3173 -0.0979
  863MOL0     C16411   5.459  13.072   1.250 -0.0613  0.1724  0.0983
  863MOL0     C16412   5.477  13.041   1.096 -0.4762  1.0432 -0.2299
  863MOL0     C16413   5.522  13.153   1.019  0.1433 -0.2727 -0.5775
  863MOL0    Cl16414   5.674  13.220   1.095  0.2032  0.0418  0.0494
  863MOL0     C16415   4.862  12.762   1.873 -0.1323 -0.5314  0.8682
  863MOL0     C16416   4.766  12.662   1.878  0.1389  0.4265 -0.5135
  863MOL0     O16417   4.763  12.388   2.004  0.7405 -0.5488 -0.0390
  863MOL0     C16418   4.589  12.173   1.765  0.0822 -0.0022  0.0692
  863MOL0     C16419   4.555  12.040   1.745 -0.2412  0.1008 -0.4406
  863MOL0     N16420   4.721  11.523   1.333 -0.3359 -0.8462  0.0222
  863MOL0     N16421   4.810  11.429   1.309 -0.3523  0.0179  0.7803
  863MOL0     C16422   5.856  11.330   1.952 -1.1749  0.1689  1.1173
  863MOL0     C16423   5.981  11.316   2.016 -0.5820 -0.7585  0.5815
  863MOL0     C16424   6.399  11.346   2.124 -0.0424  0.1119  0.0617
  863MOL0     C16425   6.408  11.444   2.218  0.4885 -0.0642 -0.0702
  863MOL0     C16426   6.526  11.458   2.300 -0.2496 -0.5230 -0.0086
  863MOL0     C16427   6.636  11.370   2.276 -0.5888  1.1185 -0.6995
  863MOL0     O16428   6.756  11.370   2.342  0.2158 -0.7804 -0.3324
  863MOL0     C16429   6.742  11.403   2.483 -0.1776 -0.5601 -0.2697
  863MOL0     C16430   6.876  11.402   2.553  0.5171 -0.3709  0.3456
  863MOL0     C16431   6.982  11.501   2.497 -1.1541  0.1258  0.1462
  863MOL0     C16432   7.100  11.516   2.595 -0.5527  0.0945  0.3831
  863MOL0     C16433   7.067  11.578   2.724 -0.5342 -0.7513 -0.4346
  863MOL0     C16434   7.037  11.604   2.841 -1.0168 -0.0824  0.4362
  863MOL0     C16435   6.634  11.291   2.158  0.2128 -0.6890 -0.3347
  863MOL0     C16436   6.516  11.276   2.086 -0.4337  0.3035 -0.4442
  863MOL0     C16437   6.541  11.189   1.973 -0.8039  0.1228 -0.3541
  863MOL0     H16438   6.093  11.630   1.947  1.8029 -0.8416 -0.2914
  863MOL0     H16439   5.845  11.660   1.887  1.5052  1.0614 -1.4926
  863MOL0     H16440   5.660  11.323   1.723 -1.5707  0.3518 -2.7616
  863MOL0     H16441   5.587  11.298   1.884 -0.6294 -1.6703 -1.5001
  863MOL0     H16442   5.486  11.521   1.695  0.3552  0.1670  0.2620
  863MOL0     H16443   5.406  11.450   1.839 -0.3517 -0.2346 -0.4009
  863MOL0     H16444   5.416  11.223   1.725 -2.0599 -0.5324 -0.8841
  863MOL0     H16445   5.450  11.318   1.570 -3.2776  0.3877 -1.6579
  863MOL0     H16446   5.221  11.348   1.775  0.5887 -0.4776  0.2894
  863MOL0     H16447   5.249  11.453   1.642  0.7700 -0.2085 -1.4216
  863MOL0     H16448   5.269  11.182   1.543 -1.5758 -1.4860 -1.1928
  863MOL0     H16449   5.143  11.176   1.667  1.1987 -1.0320  0.8228
  863MOL0     H16450   5.034  11.209   1.454 -1.1960  0.4951 -0.4327
  863MOL0     H16451   5.002  11.356   1.536  1.3089  2.6360 -0.8165
  863MOL0     H16452   5.227  11.315   1.347  1.0826 -0.5933  1.8041
  863MOL0     H16453   5.188  11.477   1.420 -2.8454  1.6891 -1.3102
  863MOL0     H16454   5.120  11.471   1.194  2.1856 -1.2751  1.0924
  863MOL0     H16455   5.034  11.320   1.210  2.2836  0.1756 -1.8177
  863MOL0     H16456   5.007  11.678   1.333 -0.5330  0.1737 -1.6015
  863MOL0     H16457   4.775  11.841   1.334 -0.4489  3.0764  1.9820
  863MOL0     H16458   4.626  11.764   1.365 -1.1361 -5.5554  2.0947
  863MOL0     H16459   4.831  11.852   1.556  1.5484 -2.3579 -0.5679
  863MOL0     H16460   4.656  11.879   1.536  1.9547  1.3013 -0.0848
  863MOL0     H16461   4.761  11.602   1.632  1.7632  0.8654  0.8600
  863MOL0     H16462   4.595  11.661   1.600  0.0211 -1.5383  1.8302
  863MOL0     H16463   4.782  11.791   1.809 -1.0788  2.7240  1.1868
  863MOL0     H16464   4.685  11.644   1.845 -0.3513  0.5791  2.5219
  863MOL0     H16465   4.716  11.908   2.007  1.8050  1.1491  0.9734
  863MOL0     H16466   4.781  12.136   2.044  3.3704 -2.3663 -1.9881
  863MOL0     H16467   4.828  12.505   1.594 -0.9162  1.2125 -0.3054
  863MOL0     H16468   4.967  12.707   1.558  1.7682 -0.4386  0.3570
  863MOL0     H16469   5.201  12.838   1.863  2.0500 -0.1771 -0.0621
  863MOL0     H16470   5.180  12.734   1.711 -0.8372  0.7777 -1.4527
  863MOL0     H16471   5.234  13.038   1.727  1.5813  1.1542 -0.5160
  863MOL0     H16472   5.358  12.922   1.744 -0.1218  1.8139  1.7054
  863MOL0     H16473   5.316  12.807   1.532 -1.0893 -0.2394  1.9965
  863MOL0     H16474   5.162  12.892   1.507  1.4154 -2.0442 -4.7844
  863MOL0     H16475   5.441  13.023   1.514 -0.8144  1.7067  0.3182
  863MOL0     H16476   5.292  13.105   1.464 -0.3986 -0.2393 -0.0057
  863MOL0     H16477   5.286  12.948   1.272  0.0319  1.0380  0.0171
  863MOL0     H16478   5.427  12.866   1.324  0.3024 -0.3528 -1.1954
  863MOL0     H16479   5.428  13.175   1.272  3.1361  1.2950 -0.0504
  863MOL0     H16480   5.559  13.067   1.294 -1.0314  0.6962  2.4997
  863MOL0     H16481   5.389  12.993   1.053 -0.0264  0.3380 -0.3849
  863MOL0     H16482   5.552  12.961   1.093 -1.9091 -0.3811  0.2344
  863MOL0     H16483   5.523  13.131   0.912 -1.9099 -1.3602 -0.4078
  863MOL0     H16484   5.443  13.227   1.030  0.6888  0.2805 -0.2725
  863MOL0     H16485   4.860  12.841   1.948  1.8515  0.1038  0.3332
  863MOL0     H16486   4.709  12.653   1.970  0.9726  1.5392  0.1349
  863MOL0     H16487   4.557  12.246   1.691 -1.6536  0.5745  1.3300
  863MOL0     H16488   4.487  12.022   1.662 -3.1889  3.8397  0.8832
  863MOL0     H16489   5.804  11.239   1.925  0.5492 -0.6269  0.2932
  863MOL0     H16490   6.020  11.225   2.061 -2.2299 -0.7791  2.0660
  863MOL0     H16491   6.331  11.520   2.230  0.7788  0.0110  1.5789
  863MOL0     H16492   6.528  11.541   2.370 -0.4189  0.9057 -1.6482
  863MOL0     H16493   6.672  11.337   2.534 -0.1387  0.4716  1.1958
  863MOL0     H16494   6.701  11.504   2.489 -0.4901 -0.7814  2.3663
  863MOL0     H16495   6.905  11.296   2.550  1.2645 -0.1963  1.0700
  863MOL0     H16496   6.857  11.430   2.657  1.7342 -0.2411  0.5542
  863MOL0     H16497   6.942  11.601   2.479  1.1716  0.9795 -0.5241
  863MOL0     H16498   7.010  11.458   2.401  0.6433  0.0967  0.6536
  863MOL0     H16499   7.152  11.423   2.617 -0.3660  0.9768  4.2824
  863MOL0     H16500   7.171  11.585   2.550  0.3257  0.5627  2.4044
  863MOL0     H16501   7.012  11.619   2.945  0.1989 -1.0359  0.8835
  863MOL0     H16502   6.728  11.243   2.133  0.1284 -1.1147  0.1377
  863MOL0     H16503   6.640  11.211   1.931 -0.9361  0.1853 -0.6391
  863MOL0     H16504   6.545  11.091   2.021 -1.5162 -0.4018 -1.3107
  863MOL0     H16505   6.471  11.201   1.889 -0.0393  0.7706 -0.9124
  864MOL0     O16506   6.154   6.043  10.473  0.3834 -0.4501 -0.0106
  864MOL0     C16507   6.086   6.015  10.377 -0.8426  0.5273 -0.0323
  864MOL0     O16508   6.096   6.080  10.255 -0.2103  0.2776  0.4555
  864MOL0     C16509   6.215   6.145  10.237 -0.3764 -0.4194  0.0494
  864MOL0     C16510   6.336   6.078  10.246 -0.3614 -0.1079 -0.7376
  864MOL0     C16511   6.462   6.142  10.221  0.3406  0.4618 -0.0058
  864MOL0     C16512   6.460   6.281  10.210  1.1365  0.5144 -0.0805
  864MOL0     O16513   6.585   6.329  10.180  0.0069 -0.5395  0.3380
  864MOL0     C16514   6.609   6.471  10.186 -0.2520 -0.0677 -0.8776
  864MOL0     C16515   6.750   6.475  10.121 -0.1476  0.3670  1.1226
  864MOL0     C16516   6.798   6.613  10.112 -0.3800  0.2918 -1.2754
  864MOL0     C16517   6.930   6.637  10.039  0.2856 -0.0957 -0.3905
  864MOL0     C16518   6.928   6.775   9.963 -0.2934  1.0081 -0.7720
  864MOL0     C16519   7.060   6.781   9.896 -0.5111  0.0992  0.6446
  864MOL0     C16520   7.073   6.907   9.807  0.2075  0.4542  0.4420
  864MOL0     C16521   7.131   7.023   9.879 -0.5971 -0.4964 -0.1475
  864MOL0     N16522   7.142   7.135   9.778  0.0160 -0.3073  0.4439
  864MOL0     C16523   7.034   7.216   9.729 -0.4962 -1.3782 -0.5482
  864MOL0     C16524   7.087   7.286   9.621  0.1684  0.2918 -0.0052
  864MOL0     C16525   7.020   7.374   9.520 -0.6267 -0.5421 -1.3274
  864MOL0     C16526   7.044   7.515   9.568 -1.0839 -0.1206 -0.0853
  864MOL0     C16527   7.196   7.557   9.572  0.2925 -0.1077 -0.4753
  864MOL0     C16528   7.187   7.713   9.560  0.2959 -0.7341 -0.7519
  864MOL0     O16529   7.155   7.760   9.431 -1.1330  0.3796  0.4141
  864MOL0     C16530   7.245   7.851   9.377 -0.5125  0.2142 -0.7256
  864MOL0     C16531   7.256   7.988   9.415  0.3229 -0.8425  0.3670
  864MOL0     C16532   7.343   8.077   9.351 -0.1725  0.5140  0.8208
  864MOL0     C16533   7.424   8.025   9.252 -0.3245 -0.5836  0.4069
  864MOL0     C16534   7.524   8.117   9.180 -0.3031 -0.5464 -0.9866
  864MOL0     O16535   7.594   8.071   9.062  0.1855  0.3961 -0.2615
  864MOL0     C16536   7.660   8.158   8.973 -0.0066 -0.2274 -0.9422
  864MOL0     C16537   7.759   8.252   9.010 -0.3520 -0.5994  0.7483
  864MOL0     C16538   7.843   8.310   8.911 -0.8272  0.1238 -0.0477
  864MOL0     C16539   7.831   8.277   8.781 -0.1245  0.2529  0.4798
  864MOL0     O16540   7.914   8.321   8.678  0.2683  0.1349 -0.1596
  864MOL0     C16541   8.056   8.359   8.714  0.7910 -0.1010  0.1390
  864MOL0     C16542   8.140   8.333   8.597 -0.7748  0.1629  0.4779
  864MOL0     C16543   8.287   8.372   8.631 -1.3485 -0.0879 -0.2310
  864MOL0     C16544   8.383   8.280   8.547 -0.0922  0.0401 -0.0302
  864MOL0     C16545   8.527   8.312   8.602  0.9577  0.1400  0.1621
  864MOL0     C16546   8.572   8.461   8.572 -0.0759  1.1109 -0.8199
  864MOL0     C16547   8.723   8.484   8.618  0.3579  0.8603 -0.7115
  864MOL0     C16548   8.788   8.597   8.538 -0.1245 -1.1874  0.0939
  864MOL0    Cl16549   8.809   8.523   8.378 -0.0680 -0.4103 -0.4913
  864MOL0     C16550   7.731   8.185   8.743  0.1885  0.3996 -0.6415
  864MOL0     C16551   7.643   8.135   8.842  0.0145  1.1043  0.5025
  864MOL0     O16552   7.527   8.235   9.222  0.0488  0.6115 -0.1965
  864MOL0     C16553   7.413   7.889   9.212 -0.4946 -0.4611 -0.1720
  864MOL0     C16554   7.327   7.801   9.279  0.3896  0.0187  0.4751
  864MOL0     N16555   7.217   7.234   9.584  0.2161  0.3749 -0.4349
  864MOL0     N16556   7.243   7.146   9.680  0.3992 -0.0445 -0.5771
  864MOL0     C16557   6.336   6.351  10.211  0.1866 -0.2970  0.6424
  864MOL0     C16558   6.208   6.283  10.226 -0.5434 -0.1192  0.8250
  864MOL0     C16559   5.965   5.921  10.374 -0.8519 -1.3324 -0.7159
  864MOL0     C16560   5.911   5.884  10.247  0.1287  0.6360 -0.7489
  864MOL0     C16561   5.812   5.788  10.242  1.0043 -1.0069  0.6357
  864MOL0     C16562   5.761   5.736  10.356 -0.9438  0.1159  0.9227
  864MOL0     O16563   5.657   5.655  10.374  0.2435 -0.0688 -0.3285
  864MOL0     C16564   5.569   5.608  10.273 -0.3701 -0.2523 -0.3261
  864MOL0     C16565   5.503   5.480  10.318  0.5063 -0.3282  0.4249
  864MOL0     C16566   5.482   5.383  10.198  0.3154 -0.1979  0.0947
  864MOL0     C16567   5.616   5.320  10.168 -0.4696 -0.2365 -0.4572
  864MOL0     C16568   5.623   5.255  10.034  0.2662  0.7146 -0.2667
  864MOL0     C16569   5.611   5.230   9.920 -0.8430 -0.3470 -0.4599
  864MOL0     C16570   5.821   5.760  10.476  0.3802 -0.1109  0.6163
  864MOL0     C16571   5.917   5.858  10.489  0.0072  0.5652 -0.5167
  864MOL0     C16572   5.964   5.885  10.638  0.2943  0.3928  0.1713
  864MOL0     H16573   6.313   5.973  10.232 -1.1042 -0.2231  1.1116
  864MOL0     H16574   6.553   6.085  10.204 -0.0197 -0.8459  2.0587
  864MOL0     H16575   6.526   6.514  10.129  0.8921  0.5289 -2.1561
  864MOL0     H16576   6.605   6.517  10.285 -0.4983  1.9017 -1.7459
  864MOL0     H16577   6.737   6.439  10.018  1.5546  0.4452  0.8606
  864MOL0     H16578   6.821   6.404  10.163  0.3336  0.4439  0.4573
  864MOL0     H16579   6.813   6.662  10.209  0.7447  0.0484 -1.3212
  864MOL0     H16580   6.728   6.669  10.049 -0.0967  0.4620 -1.4409
  864MOL0     H16581   7.020   6.635  10.102 -1.2413  3.1679  2.2178
  864MOL0     H16582   6.939   6.555   9.968 -2.0717 -0.1365 -0.7169
  864MOL0     H16583   6.855   6.779   9.882 -2.1391  2.7710  0.8654
  864MOL0     H16584   6.903   6.860  10.027 -2.6707  1.8241 -2.6414
  864MOL0     H16585   7.139   6.782   9.972  0.3210 -2.4885 -0.0539
  864MOL0     H16586   7.084   6.698   9.828  0.9959  0.9049  0.1478
  864MOL0     H16587   6.974   6.926   9.766 -0.8002 -4.3709  0.0713
  864MOL0     H16588   7.142   6.885   9.724 -1.1855 -0.4043 -0.5345
  864MOL0     H16589   7.065   7.042   9.964  1.4885 -3.5598  2.3629
  864MOL0     H16590   7.232   7.008   9.919  0.5480  4.8500 -0.2648
  864MOL0     H16591   6.928   7.218   9.753  0.0199  0.4336  2.0927
  864MOL0     H16592   7.071   7.356   9.425  0.3891  0.0571 -0.9062
  864MOL0     H16593   6.912   7.355   9.517 -0.8733  0.8102 -1.9319
  864MOL0     H16594   6.985   7.576   9.499 -1.4187 -1.4810 -1.0436
  864MOL0     H16595   7.001   7.538   9.666 -1.9338 -0.1135 -0.4562
  864MOL0     H16596   7.246   7.512   9.486 -1.5688  0.8765 -2.1469
  864MOL0     H16597   7.244   7.505   9.655 -2.8126 -0.7718  1.0543
  864MOL0     H16598   7.288   7.747   9.584  0.3419 -2.7789  2.6024
  864MOL0     H16599   7.108   7.749   9.626  2.7141  2.0970  0.8483
  864MOL0     H16600   7.192   8.036   9.489 -0.9011 -1.6705 -0.1122
  864MOL0     H16601   7.350   8.182   9.376  0.6682  0.4306  0.9399
  864MOL0     H16602   7.779   8.282   9.112  0.5582 -0.4681  0.5373
  864MOL0     H16603   7.917   8.375   8.957 -0.9447  1.0641 -1.1373
  864MOL0     H16604   8.047   8.465   8.741 -0.8996  0.2301 -1.4887
  864MOL0     H16605   8.103   8.311   8.800 -0.7697 -0.4745  0.8157
  864MOL0     H16606   8.127   8.225   8.585 -0.2581  0.0078  1.2780
  864MOL0     H16607   8.107   8.377   8.502  1.2589 -3.2317 -2.0544
  864MOL0     H16608   8.296   8.480   8.618  0.2193  0.0898  1.8085
  864MOL0     H16609   8.305   8.352   8.737 -4.6558  0.4309  0.5400
  864MOL0     H16610   8.389   8.302   8.440  1.0872  0.3768  0.0882
  864MOL0     H16611   8.356   8.175   8.563  1.5500 -0.0950  2.3372
  864MOL0     H16612   8.601   8.248   8.552  1.1703  0.1556  0.4536
  864MOL0     H16613   8.537   8.299   8.710  2.1206 -4.3697 -0.2680
  864MOL0     H16614   8.558   8.488   8.467 -1.9020 -0.4551 -1.0389
  864MOL0     H16615   8.509   8.533   8.624  0.8497  0.6905  0.9565
  864MOL0     H16616   8.789   8.396   8.614  1.7812  1.9294 -1.8034
  864MOL0     H16617   8.724   8.506   8.726 -1.2842 -0.8373 -0.2938
  864MOL0     H16618   8.724   8.685   8.547  0.6180 -0.1174 -3.4330
  864MOL0     H16619   8.884   8.623   8.584  1.3558 -3.7468 -1.3704
  864MOL0     H16620   7.737   8.151   8.640  0.3151 -1.7689  0.0235
  864MOL0     H16621   7.578   8.057   8.802  4.5607 -2.3339 -1.1389
  864MOL0     H16622   7.491   7.841   9.152  1.3928  0.7332  1.2296
  864MOL0     H16623   7.344   7.694   9.271 -1.7658 -0.5827  2.5836
  864MOL0     H16624   6.331   6.458  10.190  0.2403 -0.7821 -2.1939
  864MOL0     H16625   6.109   6.326  10.214  0.0435  0.6560 -2.2205
  864MOL0     H16626   5.959   5.924  10.158  2.6118  1.9122  1.0558
  864MOL0     H16627   5.776   5.746  10.149 -0.9833  0.9111  0.4601
  864MOL0     H16628   5.623   5.592  10.179  1.8399 -0.5283  0.9297
  864MOL0     H16629   5.494   5.684  10.251 -0.7582 -0.4243  0.3770
  864MOL0     H16630   5.409   5.500  10.372  0.4042 -1.5930  0.7491
  864MOL0     H16631   5.579   5.429  10.378  1.7054 -0.8143 -1.4174
  864MOL0     H16632   5.422   5.428  10.119 -0.0118 -0.8414 -0.0324
  864MOL0     H16633   5.417   5.302  10.234 -1.4868  1.9286  1.9473
  864MOL0     H16634   5.694   5.397  10.173 -0.8033  0.0313  1.6066
  864MOL0     H16635   5.639   5.253  10.251  1.4902  0.6638 -0.2305
  864MOL0     H16636   5.618   5.215   9.814  1.1159 -4.1352  0.0424
  864MOL0     H16637   5.788   5.698  10.558 -0.3443 -2.4538 -1.3352
  864MOL0     H16638   5.913   5.819  10.709  1.2598  0.6446  1.1224
  864MOL0     H16639   6.071   5.869  10.653  1.4735  2.8997 -4.0869
  864MOL0     H16640   5.931   5.988  10.657 -4.2654  0.0067 -3.7382
  865MOL0     O16641   8.653   7.983   5.814 -0.1777 -0.8075  0.0018
  865MOL0     C16642   8.593   8.077   5.865  0.1645 -0.1025 -0.4433
  865MOL0     O16643   8.649   8.177   5.943  0.3558 -0.0248 -0.2547
  865MOL0     C16644   8.778   8.199   5.944 -0.2664 -0.3094  0.0008
  865MOL0     C16645   8.866   8.110   6.002 -0.2813  0.5213  0.4842
  865MOL0     C16646   9.001   8.145   6.009  0.7185  0.0459 -0.4484
  865MOL0     C16647   9.050   8.265   5.957  0.2332  0.2234  0.5550
  865MOL0     O16648   9.183   8.285   5.959 -0.7207  0.4292  0.4505
  865MOL0     C16649   9.247   8.209   5.860  1.1151 -0.0075 -0.4623
  865MOL0     C16650   9.399   8.251   5.858  0.5036 -0.4306  0.0391
  865MOL0     C16651   9.472   8.178   5.747 -0.0077 -0.2171 -0.4834
  865MOL0     C16652   9.613   8.232   5.764  0.5701 -0.4649  0.7528
  865MOL0     C16653   9.690   8.229   5.631 -0.4145 -0.5640 -0.1156
  865MOL0     C16654   9.833   8.278   5.654  0.5348  0.3852  0.2598
  865MOL0     C16655   9.857   8.423   5.677 -0.2016  0.2661 -0.2943
  865MOL0     C16656   9.832   8.514   5.551 -0.1640 -0.5732  0.1009
  865MOL0     N16657   9.907   8.635   5.545 -0.0771 -0.4569  0.0094
  865MOL0     C16658   9.919   8.744   5.631  0.2253 -0.0898 -0.5717
  865MOL0     C16659  10.012   8.825   5.576  0.6660 -1.0221  0.6146
  865MOL0     C16660  10.055   8.961   5.618 -0.2853  0.2384  0.4717
  865MOL0     C16661   9.984   9.055   5.529 -0.1275 -0.8595 -0.4467
  865MOL0     C16662  10.044   9.192   5.547  0.7532 -0.2717 -0.2970
  865MOL0     C16663  10.179   9.213   5.473 -0.3571 -0.2645 -0.3182
  865MOL0     O16664  10.248   9.326   5.519  0.6382  0.3103  0.3199
  865MOL0     C16665  10.372   9.337   5.477 -0.7816  0.5123  0.8122
  865MOL0     C16666  10.466   9.398   5.556 -1.3909 -0.0114 -0.8863
  865MOL0     C16667  10.601   9.417   5.521  0.0319  0.4327 -0.5853
  865MOL0     C16668  10.651   9.371   5.399  0.8738 -0.3213  0.3449
  865MOL0     C16669  10.796   9.364   5.369 -0.0615 -0.8327  0.0786
  865MOL0     O16670  10.884   9.369   5.469  0.1242 -0.0622 -0.3207
  865MOL0     C16671  11.017   9.352   5.445  0.0648  0.5464 -0.0723
  865MOL0     C16672  11.101   9.461   5.457 -0.2151  0.7794 -0.7369
  865MOL0     C16673  11.243   9.446   5.444  0.3897  0.2362  0.0771
  865MOL0     C16674  11.292   9.319   5.426 -0.3319 -0.0444  0.5240
  865MOL0     O16675  11.429   9.310   5.423 -0.4741  0.3073  0.4238
  865MOL0     C16676  11.499   9.183   5.419 -0.6160  0.0010  0.3490
  865MOL0     C16677  11.647   9.210   5.436 -0.3272 -0.1050  0.5927
  865MOL0     C16678  11.708   9.275   5.309  0.2662 -0.2262 -0.6105
  865MOL0     C16679  11.844   9.333   5.352 -0.1974 -0.0632  0.6268
  865MOL0     C16680  11.944   9.229   5.372 -0.8928 -0.4945 -0.6675
  865MOL0     C16681  12.074   9.303   5.405  0.2624 -0.6624  0.4001
  865MOL0     C16682  12.189   9.223   5.350  0.1280  0.6319 -0.6945
  865MOL0     C16683  12.326   9.265   5.417 -0.4437 -0.4552 -0.6460
  865MOL0    Cl16684  12.320   9.281   5.592  0.2649 -0.1824  0.1294
  865MOL0     C16685  11.205   9.207   5.419 -0.1519  0.4817 -0.0831
  865MOL0     C16686  11.069   9.223   5.427  0.1451 -0.0701 -0.3806
  865MOL0     O16687  10.821   9.353   5.249 -0.2782 -0.9305 -0.1719
  865MOL0     C16688  10.550   9.318   5.310  0.3305 -0.4398  0.0650
  865MOL0     C16689  10.416   9.319   5.349  0.5063  0.5649  0.0461
  865MOL0     N16690  10.062   8.764   5.458  0.4495 -0.9006 -0.3320
  865MOL0     N16691   9.990   8.657   5.440  0.1650 -0.1880 -0.6462
  865MOL0     C16692   8.958   8.360   5.904 -0.3987 -0.0740 -0.0253
  865MOL0     C16693   8.826   8.327   5.902 -0.2329 -0.4018 -0.2711
  865MOL0     C16694   8.445   8.078   5.841 -0.1286 -0.4515  0.1474
  865MOL0     C16695   8.372   8.188   5.899 -0.2529  0.2479  0.6723
  865MOL0     C16696   8.240   8.226   5.860 -0.2485  0.5595  0.3403
  865MOL0     C16697   8.168   8.137   5.783 -0.3455 -0.5329  0.0966
  865MOL0     O16698   8.032   8.171   5.763 -0.2206 -0.7406  0.6536
  865MOL0     C16699   7.935   8.061   5.753 -0.0132  0.4390  0.4688
  865MOL0     C16700   7.798   8.118   5.801 -0.1751  0.2655  0.5534
  865MOL0     C16701   7.757   8.241   5.705  0.5112 -0.5208  0.1452
  865MOL0     C16702   7.628   8.301   5.767 -0.2121 -0.3022  0.2151
  865MOL0     C16703   7.513   8.210   5.781 -0.0880 -0.0978  0.0689
  865MOL0     C16704   7.421   8.129   5.803  0.2630  0.2863  0.0834
  865MOL0     C16705   8.226   8.020   5.734 -0.0780  0.3258 -0.2719
  865MOL0     C16706   8.368   7.997   5.756 -0.9575  0.4626 -0.0008
  865MOL0     C16707   8.415   7.865   5.695  0.0406  0.2502  0.0113
  865MOL0     H16708   8.835   8.021   6.056  0.2768 -0.3539 -0.6234
  865MOL0     H16709   9.067   8.076   6.063  1.2743  2.1180  1.6985
  865MOL0     H16710   9.238   8.102   5.876  0.1166 -0.4620 -3.4170
  865MOL0     H16711   9.202   8.225   5.762 -2.5869  0.0729  1.0823
  865MOL0     H16712   9.436   8.223   5.957  0.8571  0.6690  0.2231
  865MOL0     H16713   9.406   8.360   5.863  3.3998 -0.4964 -1.0285
  865MOL0     H16714   9.430   8.217   5.654 -0.0940 -0.0668 -0.3811
  865MOL0     H16715   9.459   8.069   5.754 -1.6477 -0.0510 -0.6457
  865MOL0     H16716   9.609   8.335   5.801  2.3732 -0.1823  0.2421
  865MOL0     H16717   9.662   8.164   5.834  1.8090 -0.0644  0.3041
  865MOL0     H16718   9.703   8.124   5.604  2.8591 -0.9945  2.5047
  865MOL0     H16719   9.629   8.284   5.559 -3.6648 -2.0962  1.2599
  865MOL0     H16720   9.859   8.219   5.742 -2.9132 -2.7111 -0.5314
  865MOL0     H16721   9.896   8.254   5.567 -0.9405 -1.2781 -0.4255
  865MOL0     H16722   9.959   8.436   5.714 -1.9520  2.4258  4.6840
  865MOL0     H16723   9.802   8.471   5.758  1.1661  0.8664  0.3109
  865MOL0     H16724   9.840   8.463   5.454  2.3804 -0.4618  0.1895
  865MOL0     H16725   9.729   8.547   5.567  1.1567  2.4960  3.4617
  865MOL0     H16726   9.868   8.770   5.724  0.9506  0.9348 -0.4457
  865MOL0     H16727  10.046   8.987   5.724  2.6554  1.9797  0.4072
  865MOL0     H16728  10.163   8.970   5.603 -0.5893  3.4854 -0.4934
  865MOL0     H16729  10.002   9.024   5.425 -0.2342 -3.0177  0.1203
  865MOL0     H16730   9.880   9.052   5.561  0.3696 -2.6083  1.1661
  865MOL0     H16731  10.060   9.215   5.653  2.4466  1.4516 -0.8623
  865MOL0     H16732   9.978   9.261   5.494  0.3729  1.0653  1.7866
  865MOL0     H16733  10.162   9.211   5.365  0.3957 -0.8983 -0.4348
  865MOL0     H16734  10.232   9.119   5.490 -1.5130 -1.0131 -0.7704
  865MOL0     H16735  10.438   9.444   5.650  2.3647 -2.3178  1.6487
  865MOL0     H16736  10.676   9.462   5.585  2.9344  0.9189 -4.0452
  865MOL0     H16737  11.074   9.565   5.473 -0.4953  0.5537  0.2952
  865MOL0     H16738  11.315   9.526   5.460  2.1611 -0.8683 -1.8926
  865MOL0     H16739  11.456   9.130   5.504  0.6936 -1.3874  0.1675
  865MOL0     H16740  11.485   9.119   5.331 -0.2562  0.2471  0.1079
  865MOL0     H16741  11.648   9.278   5.522  0.4328 -0.7099  1.0709
  865MOL0     H16742  11.696   9.113   5.450  1.1774  0.5550  0.0241
  865MOL0     H16743  11.723   9.196   5.235  0.6201 -2.4179  1.6575
  865MOL0     H16744  11.648   9.357   5.270  0.2936  0.6769  1.1534
  865MOL0     H16745  11.843   9.400   5.438  4.4525  1.2381 -0.0773
  865MOL0     H16746  11.872   9.400   5.271  1.4005 -1.2142  0.1866
  865MOL0     H16747  11.959   9.156   5.292 -1.1042 -1.6369  0.3238
  865MOL0     H16748  11.909   9.168   5.456 -2.4062  3.0857  1.5642
  865MOL0     H16749  12.086   9.399   5.355  0.2256 -1.2280 -0.7278
  865MOL0     H16750  12.071   9.317   5.513 -1.1863 -2.0006  0.5698
  865MOL0     H16751  12.192   9.222   5.241 -1.4862 -0.5689 -0.7705
  865MOL0     H16752  12.171   9.124   5.394  0.3562  0.5930 -0.6907
  865MOL0     H16753  12.402   9.192   5.386  1.0856  1.1130 -0.7604
  865MOL0     H16754  12.360   9.357   5.370  0.6563 -0.6752 -0.3263
  865MOL0     H16755  11.248   9.108   5.419 -2.5517 -0.6269 -0.3297
  865MOL0     H16756  11.000   9.143   5.405 -0.3074  0.4297 -0.8213
  865MOL0     H16757  10.580   9.290   5.210  0.9193  1.4275 -0.3249
  865MOL0     H16758  10.342   9.291   5.275  0.3261  2.2102 -0.4256
  865MOL0     H16759   8.990   8.449   5.851 -3.1176  1.0910  0.1070
  865MOL0     H16760   8.758   8.396   5.852 -0.6590 -1.2225 -0.8565
  865MOL0     H16761   8.425   8.257   5.964 -1.2899 -1.5675  3.6693
  865MOL0     H16762   8.191   8.314   5.901  4.2726  2.6134  1.9866
  865MOL0     H16763   7.956   7.975   5.818 -0.4771 -0.0175  0.0256
  865MOL0     H16764   7.928   8.011   5.656  2.3769 -0.9148  0.9080
  865MOL0     H16765   7.807   8.157   5.902 -3.2509  0.2936  0.9072
  865MOL0     H16766   7.715   8.047   5.808 -1.2252  1.3714 -0.3668
  865MOL0     H16767   7.743   8.198   5.606  0.4538 -1.2744  0.4732
  865MOL0     H16768   7.836   8.317   5.697 -2.7742  3.0004 -2.3791
  865MOL0     H16769   7.650   8.336   5.868 -0.3398  0.2059  0.0717
  865MOL0     H16770   7.612   8.384   5.698  0.2501 -1.3995 -1.2605
  865MOL0     H16771   7.335   8.069   5.827  0.4870  0.1951  0.6736
  865MOL0     H16772   8.168   7.955   5.669 -1.5079  2.0685 -0.8203
  865MOL0     H16773   8.483   7.807   5.758 -1.5932 -3.1306 -1.1583
  865MOL0     H16774   8.338   7.795   5.662  0.2912 -0.4648  0.8953
  865MOL0     H16775   8.474   7.896   5.608 -0.7267 -1.0553 -1.0060
  866MOL0     O16776   8.166   1.966   6.429  0.4127 -0.6588 -1.0916
  866MOL0     C16777   8.130   2.051   6.516  0.6801  0.0184  0.9329
  866MOL0     O16778   8.211   2.117   6.604 -0.1814  0.0969  0.2043
  866MOL0     C16779   8.352   2.105   6.598 -0.4491  0.6055 -0.1170
  866MOL0     C16780   8.421   2.132   6.481 -0.1042  0.1219 -0.0347
  866MOL0     C16781   8.559   2.159   6.487 -0.1084  0.1719 -1.3922
  866MOL0     C16782   8.635   2.135   6.604 -0.1574 -0.3471 -2.0163
  866MOL0     O16783   8.774   2.143   6.609  0.5945 -0.3165  0.5957
  866MOL0     C16784   8.842   2.241   6.525 -0.4805  0.5419  0.0410
  866MOL0     C16785   8.983   2.273   6.575  0.5406  0.0963  0.3353
  866MOL0     C16786   9.000   2.335   6.710  0.5809  0.1282  0.5407
  866MOL0     C16787   8.931   2.276   6.831  0.3826 -0.2069 -0.4570
  866MOL0     C16788   8.978   2.328   6.964  0.5123  0.0650 -0.8561
  866MOL0     C16789   9.087   2.243   7.021  0.6217 -0.1098 -0.3799
  866MOL0     C16790   9.148   2.314   7.142 -0.1377 -0.0251  0.4103
  866MOL0     C16791   9.263   2.228   7.200 -0.6366 -0.0077 -0.3067
  866MOL0     N16792   9.329   2.294   7.310  0.6412 -0.5701  0.8615
  866MOL0     C16793   9.297   2.266   7.443  0.6018  0.5653  0.6237
  866MOL0     C16794   9.364   2.358   7.508  0.5244  0.1929 -0.1018
  866MOL0     C16795   9.369   2.381   7.653  0.1863  0.3422 -0.1944
  866MOL0     C16796   9.427   2.266   7.739 -0.7724 -0.6080 -0.3396
  866MOL0     C16797   9.527   2.303   7.847  0.5599 -0.0789 -1.2562
  866MOL0     C16798   9.671   2.342   7.787 -0.0924 -0.6316  0.3801
  866MOL0     O16799   9.754   2.364   7.904  0.5472 -0.0720 -0.4432
  866MOL0     C16800   9.887   2.354   7.894 -0.9807 -0.1382 -0.2634
  866MOL0     C16801   9.951   2.334   7.768 -0.6327  0.0948  0.6896
  866MOL0     C16802  10.083   2.317   7.760  0.2198 -0.7717  0.2422
  866MOL0     C16803  10.163   2.316   7.880 -0.6084 -0.1529  0.7001
  866MOL0     C16804  10.317   2.282   7.876  0.4517  0.1792 -0.6252
  866MOL0     O16805  10.387   2.296   7.995  0.9476 -0.5403  0.6437
  866MOL0     C16806  10.519   2.257   7.998 -0.6492  0.8808  0.8035
  866MOL0     C16807  10.614   2.319   7.912  0.9544 -0.3453 -0.5723
  866MOL0     C16808  10.736   2.263   7.886 -0.1941  0.3334  0.0390
  866MOL0     C16809  10.781   2.157   7.956 -0.0499  0.7195 -0.8003
  866MOL0     O16810  10.908   2.104   7.938 -0.2726  0.4233 -0.1629
  866MOL0     C16811  10.982   2.132   7.817  1.0484  0.4161  1.2438
  866MOL0     C16812  11.110   2.045   7.800 -0.9098  0.3543 -0.1047
  866MOL0     C16813  11.212   2.085   7.907 -0.5664  0.1787  0.7849
  866MOL0     C16814  11.346   2.014   7.882  0.0391  0.2452  0.1280
  866MOL0     C16815  11.444   2.066   7.983 -0.2809 -0.8555 -0.4453
  866MOL0     C16816  11.592   2.053   7.934  0.8109  0.1508  0.1847
  866MOL0     C16817  11.684   2.007   8.042 -0.9286 -0.4494 -0.5450
  866MOL0     C16818  11.786   2.111   8.096  0.1378  0.4341  0.6070
  866MOL0    Cl16819  11.704   2.243   8.197  0.0522  0.3827 -0.2865
  866MOL0     C16820  10.710   2.115   8.067  0.5137  0.5588  0.7289
  866MOL0     C16821  10.572   2.154   8.078  0.0437  0.4879  0.6799
  866MOL0     O16822  10.366   2.223   7.774  0.1955 -0.0937 -0.1004
  866MOL0     C16823  10.102   2.340   8.004  0.2078 -0.0017  0.0302
  866MOL0     C16824   9.962   2.355   8.013  0.1177  1.0316 -0.5032
  866MOL0     N16825   9.436   2.435   7.421  0.2048 -0.2986  0.3206
  866MOL0     N16826   9.420   2.394   7.303 -0.0238 -1.0416  0.5899
  866MOL0     C16827   8.563   2.093   6.727 -0.6409 -0.0275  0.8482
  866MOL0     C16828   8.423   2.076   6.714 -1.1466  0.0166 -0.5881
  866MOL0     C16829   7.983   2.076   6.518  0.0709  0.4461 -1.2092
  866MOL0     C16830   7.942   2.191   6.595  0.3822 -0.2617  0.3131
  866MOL0     C16831   7.808   2.221   6.603  0.4441  0.2235 -0.6536
  866MOL0     C16832   7.708   2.153   6.544 -0.2355 -0.3638  0.7092
  866MOL0     O16833   7.581   2.205   6.563 -0.2551 -0.7482  0.5615
  866MOL0     C16834   7.477   2.141   6.496 -0.5198  0.7261  0.5603
  866MOL0     C16835   7.347   2.205   6.525  0.0908  0.4959  0.4142
  866MOL0     C16836   7.329   2.349   6.486  0.4234 -0.1984 -0.0827
  866MOL0     C16837   7.184   2.391   6.457 -0.2296  0.1559 -1.0005
  866MOL0     C16838   7.107   2.396   6.582 -1.2090 -0.0847  0.6248
  866MOL0     C16839   7.041   2.393   6.683 -0.0833 -0.5290  0.0895
  866MOL0     C16840   7.750   2.038   6.465  1.0232 -0.6065  0.7494
  866MOL0     C16841   7.884   1.997   6.457 -0.7849  0.1618  0.0078
  866MOL0     C16842   7.909   1.875   6.374  1.0870  0.4382  0.7465
  866MOL0     H16843   8.363   2.136   6.390 -0.5000 -0.1542  0.2019
  866MOL0     H16844   8.606   2.190   6.394 -0.3076  0.8847 -1.2629
  866MOL0     H16845   8.855   2.207   6.421 -1.3954  1.9141 -0.5477
  866MOL0     H16846   8.781   2.331   6.521  0.6562  1.2962 -1.9174
  866MOL0     H16847   9.023   2.347   6.505  0.0363  0.9699  0.9562
  866MOL0     H16848   9.046   2.185   6.565 -1.1813 -1.0660 -0.8280
  866MOL0     H16849   8.967   2.439   6.701  3.1871  0.8940 -1.7818
  866MOL0     H16850   9.109   2.340   6.721  0.4870 -0.4768  1.8178
  866MOL0     H16851   8.824   2.297   6.824 -0.1124 -1.4741  2.0162
  866MOL0     H16852   8.950   2.168   6.841  1.4429  0.0057  0.0321
  866MOL0     H16853   9.006   2.432   6.949 -0.0831  0.1542 -1.4010
  866MOL0     H16854   8.900   2.322   7.040 -0.6512 -0.1369 -2.0347
  866MOL0     H16855   9.054   2.142   7.047 -2.2359  1.3902  2.4661
  866MOL0     H16856   9.164   2.220   6.946  1.7846  0.3042  0.6596
  866MOL0     H16857   9.074   2.328   7.221 -1.0187 -4.2362  0.5685
  866MOL0     H16858   9.183   2.408   7.099 -1.3634 -0.4000 -1.5706
  866MOL0     H16859   9.231   2.132   7.242 -0.7511  1.2127  2.6572
  866MOL0     H16860   9.338   2.210   7.122  0.3044 -3.1024  1.1601
  866MOL0     H16861   9.232   2.194   7.491 -0.7701  2.7548  2.2863
  866MOL0     H16862   9.427   2.469   7.683  1.6956 -0.6189 -0.2014
  866MOL0     H16863   9.270   2.395   7.697  1.7756  2.2897  3.2658
  866MOL0     H16864   9.350   2.206   7.788  1.5790 -2.5822  1.2287
  866MOL0     H16865   9.476   2.199   7.667 -1.0773 -0.0097 -1.1091
  866MOL0     H16866   9.532   2.213   7.909  0.8048  1.8620  1.7937
  866MOL0     H16867   9.485   2.377   7.916 -0.5112 -2.1111  0.4127
  866MOL0     H16868   9.656   2.433   7.728  0.9584  1.2570  2.8516
  866MOL0     H16869   9.714   2.263   7.724  3.1447  4.1736 -4.3365
  866MOL0     H16870   9.892   2.353   7.679 -0.0474 -1.6795 -0.1283
  866MOL0     H16871  10.137   2.329   7.667 -3.3713  2.2681 -1.7520
  866MOL0     H16872  10.590   2.405   7.850  0.0434 -0.8425 -0.9236
  866MOL0     H16873  10.810   2.307   7.820 -2.5389 -0.3818 -3.3054
  866MOL0     H16874  10.919   2.111   7.730  2.2245  0.9657  0.2170
  866MOL0     H16875  11.017   2.236   7.820  1.0353  0.3958  3.5584
  866MOL0     H16876  11.075   1.942   7.815  0.2366 -0.2620 -1.4355
  866MOL0     H16877  11.159   2.060   7.704 -1.1980  0.3398 -0.2552
  866MOL0     H16878  11.220   2.194   7.910 -2.4199  0.3088  2.2545
  866MOL0     H16879  11.171   2.055   8.004 -2.1147  1.7770  0.6710
  866MOL0     H16880  11.372   2.043   7.780 -2.2571 -2.2873 -1.3355
  866MOL0     H16881  11.348   1.904   7.885 -0.5141  0.2271 -0.0291
  866MOL0     H16882  11.427   2.007   8.074 -0.8850 -1.3671 -0.8854
  866MOL0     H16883  11.420   2.172   8.002 -1.4639 -0.9712 -1.1991
  866MOL0     H16884  11.584   1.981   7.852 -3.8876  2.8421 -2.1827
  866MOL0     H16885  11.619   2.151   7.892 -0.2165  0.5889  0.5056
  866MOL0     H16886  11.752   1.933   7.999  0.5517  0.9024 -0.6227
  866MOL0     H16887  11.625   1.967   8.124  0.2513  0.4899  0.8096
  866MOL0     H16888  11.862   2.060   8.156 -0.7247 -0.4877  0.9560
  866MOL0     H16889  11.834   2.168   8.016 -2.7420  0.3226 -1.3599
  866MOL0     H16890  10.753   2.048   8.141 -1.8297 -1.5305  0.3290
  866MOL0     H16891  10.495   2.100   8.134 -1.1843  1.2699 -0.2103
  866MOL0     H16892  10.157   2.337   8.098  0.8709  0.5574 -0.3259
  866MOL0     H16893   9.900   2.360   8.102 -0.4250  0.6764 -0.8510
  866MOL0     H16894   8.616   2.103   6.821 -3.1007 -0.7381  2.4164
  866MOL0     H16895   8.368   2.049   6.803 -0.0145 -2.6280 -0.6238
  866MOL0     H16896   8.010   2.259   6.646  0.9474 -0.3013 -0.3843
  866MOL0     H16897   7.780   2.306   6.664  1.2452  1.3432 -1.7835
  866MOL0     H16898   7.469   2.036   6.524 -1.4472 -0.1237 -2.4856
  866MOL0     H16899   7.493   2.145   6.387 -0.5334 -0.5845  0.4934
  866MOL0     H16900   7.321   2.175   6.627  4.6470 -2.1341  1.0813
  866MOL0     H16901   7.278   2.148   6.462  0.0865  0.4740  0.4386
  866MOL0     H16902   7.393   2.365   6.399  0.7663  2.4185  0.5544
  866MOL0     H16903   7.375   2.414   6.561  2.0082 -2.2833  0.8568
  866MOL0     H16904   7.184   2.487   6.404  0.3084 -0.0922 -1.4480
  866MOL0     H16905   7.134   2.313   6.400  2.2580 -3.1025  0.9051
  866MOL0     H16906   6.993   2.388   6.779  0.8749 -1.1132  0.5479
  866MOL0     H16907   7.682   1.984   6.401  1.2528 -0.4568  0.3800
  866MOL0     H16908   7.944   1.797   6.442  0.7478  0.5814  1.0850
  866MOL0     H16909   7.823   1.840   6.318  1.5204 -0.6803  0.7623
  866MOL0     H16910   7.974   1.889   6.287 -0.7641 -4.0122 -1.6942
  867MOL0     O16911  10.254   3.861   3.335 -0.2155 -0.8709  0.6948
  867MOL0     C16912  10.186   3.794   3.253  0.2788 -0.0749 -1.5579
  867MOL0     O16913  10.243   3.699   3.176  0.1496 -0.1840 -0.0925
  867MOL0     C16914  10.377   3.667   3.204 -0.0370  0.3739  0.8797
  867MOL0     C16915  10.394   3.599   3.324 -0.3562  0.4853 -0.8613
  867MOL0     C16916  10.526   3.552   3.354 -0.3131  0.2570 -0.2247
  867MOL0     C16917  10.635   3.595   3.270  0.1187 -0.3327 -0.2470
  867MOL0     O16918  10.765   3.555   3.302  0.3182  0.3453 -0.3475
  867MOL0     C16919  10.881   3.598   3.237  0.9215  0.1251 -0.0493
  867MOL0     C16920  11.000   3.519   3.295 -0.5269 -0.4305  1.0883
  867MOL0     C16921  11.126   3.563   3.219  0.1110 -0.0297 -0.2032
  867MOL0     C16922  11.254   3.478   3.258  0.3282 -0.2438 -0.4026
  867MOL0     C16923  11.367   3.499   3.154  0.1747  0.0628  0.0141
  867MOL0     C16924  11.477   3.402   3.196  0.2551  0.2390 -0.0379
  867MOL0     C16925  11.599   3.421   3.104 -0.7616  0.5566  0.5242
  867MOL0     C16926  11.724   3.357   3.163 -0.2796 -0.1133 -0.8812
  867MOL0     N16927  11.842   3.406   3.089 -0.7085  0.0019 -0.2613
  867MOL0     C16928  11.885   3.540   3.089  0.5411 -0.4798  0.3331
  867MOL0     C16929  11.971   3.554   2.986 -0.3590 -0.3705 -0.4736
  867MOL0     C16930  12.050   3.668   2.941  0.1492  0.4398  0.4460
  867MOL0     C16931  12.194   3.676   2.999  0.4743 -0.1361 -0.8929
  867MOL0     C16932  12.285   3.772   2.916 -0.6012 -0.0038  0.8030
  867MOL0     C16933  12.412   3.811   2.992  0.4942 -0.4525 -0.4791
  867MOL0     O16934  12.473   3.918   2.913 -0.6814  0.1606  0.1209
  867MOL0     C16935  12.597   3.962   2.960  0.1241 -0.0657  0.2707
  867MOL0     C16936  12.667   4.057   2.880 -0.1907 -0.5890  0.3611
  867MOL0     C16937  12.794   4.109   2.913 -0.2792 -0.1335  0.5463
  867MOL0     C16938  12.859   4.063   3.028 -0.5837 -0.0725 -0.5244
  867MOL0     C16939  12.989   4.120   3.081  0.5305  0.7130 -0.3045
  867MOL0     O16940  13.039   4.078   3.205 -0.1569  0.0958  0.3802
  867MOL0     C16941  13.157   4.131   3.256  0.4519 -0.7027  0.7952
  867MOL0     C16942  13.168   4.267   3.278  0.6024  0.0232  0.2529
  867MOL0     C16943  13.293   4.319   3.320 -0.3809  0.0380  0.4528
  867MOL0     C16944  13.398   4.241   3.348 -0.9716  0.5869 -0.0914
  867MOL0     O16945  13.517   4.305   3.356 -0.0082  0.6545 -0.2703
  867MOL0     C16946  13.632   4.243   3.415  0.2146  0.0214 -0.0136
  867MOL0     C16947  13.731   4.193   3.313  0.5119 -0.3625 -0.0792
  867MOL0     C16948  13.876   4.184   3.368 -0.1426 -0.1689  0.5581
  867MOL0     C16949  13.976   4.271   3.276  0.5315 -0.2384  0.1091
  867MOL0     C16950  14.112   4.201   3.260 -0.9992 -0.2554  0.1527
  867MOL0     C16951  14.217   4.279   3.174  0.3009  0.6572 -0.3890
  867MOL0     C16952  14.342   4.194   3.144 -0.3645  0.3854  0.3818
  867MOL0     C16953  14.460   4.269   3.078 -0.3925 -0.0187  0.3306
  867MOL0    Cl16954  14.573   4.354   3.190 -0.0179  0.0744 -0.3364
  867MOL0     C16955  13.386   4.101   3.346 -0.3077  0.2864  0.3094
  867MOL0     C16956  13.264   4.051   3.294  0.0611  0.6465  0.3346
  867MOL0     O16957  13.046   4.201   3.005 -0.3410 -0.5372  0.1345
  867MOL0     C16958  12.785   3.970   3.108  0.3089  0.6319  1.1796
  867MOL0     C16959  12.656   3.923   3.077  0.5747  0.4647  0.7830
  867MOL0     N16960  11.981   3.431   2.922  0.0080  0.1792  0.2512
  867MOL0     N16961  11.904   3.348   2.981 -0.0436  0.5001  0.4845
  867MOL0     C16962  10.613   3.678   3.154 -0.2937  0.5339  0.5311
  867MOL0     C16963  10.482   3.706   3.121 -0.6317  1.2457 -0.1934
  867MOL0     C16964  10.042   3.820   3.226  0.4181  0.1025 -0.7037
  867MOL0     C16965   9.983   3.743   3.123  0.3940 -0.1277 -1.0318
  867MOL0     C16966   9.848   3.776   3.095 -0.1576 -0.1767  0.0005
  867MOL0     C16967   9.774   3.878   3.153 -0.1535 -0.6599 -0.6761
  867MOL0     O16968   9.645   3.900   3.101  0.5681  0.1259 -0.1420
  867MOL0     C16969   9.568   4.004   3.166  0.2835  1.1296 -0.0041
  867MOL0     C16970   9.418   4.019   3.130  0.3070  0.0266 -0.8438
  867MOL0     C16971   9.413   4.033   2.974  0.5154  0.2607  0.4338
  867MOL0     C16972   9.285   4.082   2.922  0.8960  0.1975 -0.3837
  867MOL0     C16973   9.169   3.992   2.948 -0.2703  0.8065 -0.1151
  867MOL0     C16974   9.061   3.930   2.968 -0.1777  0.4245 -1.3960
  867MOL0     C16975   9.837   3.949   3.249  0.0346 -0.7545 -0.7506
  867MOL0     C16976   9.967   3.922   3.294 -0.6466 -0.3264 -0.2449
  867MOL0     C16977  10.018   3.984   3.420  0.5627  0.2354  0.0480
  867MOL0     H16978  10.304   3.568   3.378  2.0780  0.2500  3.5530
  867MOL0     H16979  10.545   3.487   3.440  0.4567  1.8430  0.8642
  867MOL0     H16980  10.872   3.578   3.130 -4.2171  2.0441 -0.2620
  867MOL0     H16981  10.898   3.703   3.265  0.9011 -0.1335  0.9678
  867MOL0     H16982  10.991   3.411   3.275  3.0172 -0.7140  0.2957
  867MOL0     H16983  11.010   3.535   3.402 -1.9348 -1.5614  1.4313
  867MOL0     H16984  11.149   3.660   3.263 -0.3035 -1.0862  2.5695
  867MOL0     H16985  11.102   3.571   3.113  1.6365  0.4926 -0.5185
  867MOL0     H16986  11.287   3.517   3.354  1.5010 -1.5626 -0.2391
  867MOL0     H16987  11.217   3.375   3.254 -3.3695  0.9319 -1.5850
  867MOL0     H16988  11.336   3.463   3.056  0.5051  1.5865 -0.6596
  867MOL0     H16989  11.400   3.602   3.142  0.0961 -0.0400 -1.2087
  867MOL0     H16990  11.508   3.423   3.299  0.1142  2.3724 -0.3909
  867MOL0     H16991  11.437   3.300   3.201 -0.6752  0.6531  1.5383
  867MOL0     H16992  11.623   3.522   3.069  0.1291  0.2260  0.1637
  867MOL0     H16993  11.584   3.357   3.016 -0.2758  0.7064  0.3281
  867MOL0     H16994  11.736   3.375   3.270 -1.0124 -2.3656 -0.3704
  867MOL0     H16995  11.716   3.250   3.140  2.3209 -0.4484 -0.5305
  867MOL0     H16996  11.861   3.615   3.164  0.5748  0.8138 -0.9139
  867MOL0     H16997  12.060   3.670   2.832  2.1854  1.5893  0.6117
  867MOL0     H16998  11.989   3.755   2.970 -3.6658 -2.0324  0.5871
  867MOL0     H16999  12.178   3.714   3.100 -1.1593  0.2430 -1.2613
  867MOL0     H17000  12.243   3.578   3.001  3.2210  0.9755 -4.0994
  867MOL0     H17001  12.231   3.863   2.889 -3.1395 -1.7145 -0.1810
  867MOL0     H17002  12.312   3.726   2.821  2.5584  2.5673  0.2700
  867MOL0     H17003  12.473   3.721   3.004 -0.3770 -1.1624 -1.2581
  867MOL0     H17004  12.392   3.852   3.092 -1.2828 -4.1931  0.8950
  867MOL0     H17005  12.622   4.090   2.787 -0.3548  0.8702  0.9342
  867MOL0     H17006  12.838   4.194   2.862 -0.4335  0.0723  0.7577
  867MOL0     H17007  13.087   4.336   3.258  1.4913  1.3949  1.2345
  867MOL0     H17008  13.308   4.427   3.322  1.7089 -0.2035  0.2814
  867MOL0     H17009  13.676   4.320   3.480 -1.1019 -1.4304  2.7939
  867MOL0     H17010  13.605   4.159   3.480 -0.4305 -0.6607 -1.1268
  867MOL0     H17011  13.691   4.099   3.276 -1.0551  0.7923 -1.4917
  867MOL0     H17012  13.726   4.263   3.229  0.3724  0.8979  0.9404
  867MOL0     H17013  13.877   4.214   3.473 -2.2968 -2.2394  1.2597
  867MOL0     H17014  13.909   4.081   3.377  0.5735 -0.6411 -4.5507
  867MOL0     H17015  13.989   4.374   3.310 -1.8390  0.0787  0.2509
  867MOL0     H17016  13.925   4.279   3.179 -2.0819  0.7984  1.4703
  867MOL0     H17017  14.110   4.092   3.250 -2.5741 -0.4180  1.7843
  867MOL0     H17018  14.160   4.213   3.358 -1.6193  3.0671  0.1755
  867MOL0     H17019  14.174   4.302   3.076  0.0721 -3.2591 -1.3631
  867MOL0     H17020  14.243   4.373   3.224 -0.8236  0.1245  1.3124
  867MOL0     H17021  14.321   4.106   3.084  3.5197 -1.3716  1.2953
  867MOL0     H17022  14.383   4.154   3.237  2.7367  1.0029 -0.5935
  867MOL0     H17023  14.519   4.187   3.034  0.5219  0.9334 -0.2752
  867MOL0     H17024  14.426   4.340   3.002  1.6988 -0.1048 -0.7709
  867MOL0     H17025  13.469   4.045   3.388 -2.0737 -1.0760  2.1308
  867MOL0     H17026  13.262   3.943   3.289  1.4574  0.6712 -1.8024
  867MOL0     H17027  12.833   3.920   3.192 -1.6351 -1.9771  0.9012
  867MOL0     H17028  12.616   3.846   3.142 -2.2224  1.4270  0.3156
  867MOL0     H17029  10.688   3.709   3.082 -2.1246  0.8400 -1.3361
  867MOL0     H17030  10.468   3.771   3.035 -0.1008  0.3631 -0.9727
  867MOL0     H17031  10.029   3.657   3.076  2.3831  0.4841 -0.3127
  867MOL0     H17032   9.785   3.732   3.019  0.0230  0.1729 -0.3531
  867MOL0     H17033   9.607   4.103   3.142 -2.9474  2.9552  1.6304
  867MOL0     H17034   9.575   3.989   3.274  0.3350 -2.6303 -0.3913
  867MOL0     H17035   9.383   4.106   3.187  3.1236  1.4305 -1.0495
  867MOL0     H17036   9.365   3.928   3.157  1.7342 -0.8685 -0.9421
  867MOL0     H17037   9.429   3.936   2.927 -2.3624  0.9251 -2.2472
  867MOL0     H17038   9.497   4.097   2.943  0.9401  1.8403  4.2561
  867MOL0     H17039   9.254   4.183   2.951  0.9404  0.4554 -1.1974
  867MOL0     H17040   9.300   4.094   2.814 -0.1583  2.1615 -0.3562
  867MOL0     H17041   8.966   3.881   2.981 -0.6240  1.5615 -0.0053
  867MOL0     H17042   9.793   4.033   3.301  1.5392 -1.5547  1.9905
  867MOL0     H17043  10.101   4.053   3.403  1.1763 -0.9940 -2.4140
  867MOL0     H17044   9.932   4.027   3.472 -1.8149 -1.1053 -2.5076
  867MOL0     H17045  10.055   3.901   3.481 -0.2363 -0.0249  0.1938
  868MOL0     O17046   7.034   7.888   1.761 -0.6244 -0.4499 -0.8068
  868MOL0     C17047   6.963   7.812   1.695  1.0210 -0.2974  0.6116
  868MOL0     O17048   6.986   7.682   1.667 -0.3850  0.2869  1.0587
  868MOL0     C17049   7.086   7.618   1.739  0.7305  0.5853 -0.0175
  868MOL0     C17050   7.060   7.513   1.826 -0.1939  0.6039  0.4642
  868MOL0     C17051   7.167   7.438   1.884 -0.4403 -0.1720 -1.2297
  868MOL0     C17052   7.301   7.470   1.859  0.0896  0.7580 -0.8314
  868MOL0     O17053   7.410   7.398   1.916 -0.0947 -0.5648 -0.5316
  868MOL0     C17054   7.398   7.253   1.934  0.7227 -0.2715  0.0603
  868MOL0     C17055   7.526   7.168   1.911 -1.0861 -0.0510  0.4474
  868MOL0     C17056   7.616   7.151   2.042  0.0956  0.0053 -0.0514
  868MOL0     C17057   7.641   7.281   2.106 -1.0559 -0.1595 -0.2389
  868MOL0     C17058   7.725   7.280   2.233  0.2871  0.1407  0.5764
  868MOL0     C17059   7.875   7.264   2.211 -0.3619  0.2786  0.0018
  868MOL0     C17060   7.954   7.172   2.320  0.2868  0.4534 -0.0669
  868MOL0     C17061   7.963   7.241   2.450 -0.3364 -0.1198 -0.4590
  868MOL0     N17062   8.050   7.163   2.540 -0.4586 -0.1897  0.3722
  868MOL0     C17063   8.027   7.055   2.626 -0.2278 -0.0761  0.3411
  868MOL0     C17064   8.146   7.037   2.685  0.8265  0.0918  0.0975
  868MOL0     C17065   8.157   6.929   2.794 -0.3157  0.4991  0.1009
  868MOL0     C17066   8.226   6.974   2.932 -1.4239 -0.0496  0.1483
  868MOL0     C17067   8.378   6.962   2.906  1.1097 -0.6491 -0.4150
  868MOL0     C17068   8.440   6.981   3.041 -0.0945 -0.0323  0.6150
  868MOL0     O17069   8.584   6.983   3.052  0.5486 -0.4583 -0.3514
  868MOL0     C17070   8.654   6.873   3.026 -0.0173 -0.1403  0.4162
  868MOL0     C17071   8.795   6.890   3.012  0.3847 -1.5854 -0.1050
  868MOL0     C17072   8.879   6.779   2.996  0.2294  0.1701 -0.0831
  868MOL0     C17073   8.822   6.651   3.002 -0.0899 -0.2274  0.4136
  868MOL0     C17074   8.918   6.533   2.997  0.8591 -0.6674  0.6106
  868MOL0     O17075   9.049   6.562   2.974  0.4115  0.3067  0.2810
  868MOL0     C17076   9.144   6.461   2.977  0.1377 -0.5023  0.5677
  868MOL0     C17077   9.240   6.468   2.873  0.4438  0.7404  0.6503
  868MOL0     C17078   9.346   6.379   2.866  1.2951 -0.4500 -0.7633
  868MOL0     C17079   9.358   6.273   2.965  0.4247 -0.4739 -0.4573
  868MOL0     O17080   9.458   6.185   2.966 -0.2992  0.2704  0.2592
  868MOL0     C17081   9.563   6.191   2.868 -0.2321  0.2515  0.3800
  868MOL0     C17082   9.661   6.076   2.882  1.0142  1.0061 -0.4618
  868MOL0     C17083   9.752   6.068   2.756  0.3760 -0.3643 -0.3674
  868MOL0     C17084   9.860   5.966   2.768 -0.0267  0.3403 -0.3172
  868MOL0     C17085   9.876   5.881   2.644 -0.8676  0.1182  0.8586
  868MOL0     C17086   9.983   5.769   2.676  0.4378 -0.2741  0.6449
  868MOL0     C17087   9.994   5.664   2.566 -0.0599  0.3887 -0.3421
  868MOL0     C17088  10.109   5.564   2.602 -0.0657  1.1477 -0.1947
  868MOL0    Cl17089  10.104   5.480   2.764 -0.3051 -0.0754 -0.1754
  868MOL0     C17090   9.262   6.269   3.072 -1.0796 -1.0799 -0.0800
  868MOL0     C17091   9.161   6.362   3.071  0.1743 -0.6829  0.1033
  868MOL0     O17092   8.870   6.421   2.991  0.4019 -0.1281  0.6255
  868MOL0     C17093   8.682   6.633   3.009 -0.0983  0.1307 -0.0553
  868MOL0     C17094   8.604   6.746   3.015 -0.2934  0.0958  0.1673
  868MOL0     N17095   8.233   7.123   2.641 -0.8332 -0.5664 -0.3689
  868MOL0     N17096   8.184   7.209   2.559 -0.5075  0.8383  0.0392
  868MOL0     C17097   7.327   7.579   1.770  0.4532 -0.6701  0.5141
  868MOL0     C17098   7.218   7.640   1.701 -0.5165  0.3856 -0.2046
  868MOL0     C17099   6.827   7.868   1.656  0.1135 -0.2141  0.9147
  868MOL0     C17100   6.816   8.014   1.664 -0.1196  0.1640  0.0963
  868MOL0     C17101   6.700   8.080   1.623  0.3066  0.5234 -0.9251
  868MOL0     C17102   6.585   8.004   1.582 -0.3157  0.2604  0.1084
  868MOL0     O17103   6.476   8.074   1.548  0.2738  0.4171  0.0671
  868MOL0     C17104   6.348   8.013   1.535  0.9947 -0.8850  0.4394
  868MOL0     C17105   6.250   8.120   1.594 -0.0637  0.3779  0.6363
  868MOL0     C17106   6.288   8.178   1.726 -0.5031 -0.3365  0.6524
  868MOL0     C17107   6.192   8.297   1.756  0.6022 -0.7510  0.1696
  868MOL0     C17108   6.056   8.250   1.789 -0.3476 -0.2159  0.7831
  868MOL0     C17109   5.944   8.206   1.835 -0.9193  0.2508  0.1735
  868MOL0     C17110   6.597   7.865   1.571 -0.6992  0.5056 -0.3466
  868MOL0     C17111   6.716   7.791   1.610  0.9615 -0.8876  0.3146
  868MOL0     C17112   6.718   7.639   1.601  0.2358 -0.5161 -0.3771
  868MOL0     H17113   6.956   7.489   1.845 -0.7716  2.3737 -0.2402
  868MOL0     H17114   7.142   7.357   1.952 -0.9094 -0.3851 -1.6490
  868MOL0     H17115   7.352   7.234   2.032  0.0487  1.3991  0.1119
  868MOL0     H17116   7.326   7.213   1.861 -1.2461 -1.3516  2.4290
  868MOL0     H17117   7.587   7.212   1.833  3.0601 -1.5902  2.5239
  868MOL0     H17118   7.507   7.067   1.873 -0.5017 -0.2560  0.6845
  868MOL0     H17119   7.712   7.106   2.018 -0.6704 -2.2189  0.7674
  868MOL0     H17120   7.570   7.084   2.115  0.7162 -1.4423 -0.9447
  868MOL0     H17121   7.686   7.351   2.035 -1.2180 -1.4350 -1.6748
  868MOL0     H17122   7.544   7.326   2.125 -1.8028 -0.9582 -1.9205
  868MOL0     H17123   7.708   7.371   2.291  0.8170 -1.4641  3.4342
  868MOL0     H17124   7.688   7.201   2.300 -1.1096 -1.4499 -1.9085
  868MOL0     H17125   7.882   7.213   2.115 -3.4704 -0.8876  0.2889
  868MOL0     H17126   7.919   7.363   2.198 -0.1701 -0.0726 -2.6358
  868MOL0     H17127   8.052   7.136   2.287 -0.0601  0.6806 -1.4018
  868MOL0     H17128   7.886   7.088   2.338 -1.8179  2.1317  0.1583
  868MOL0     H17129   7.996   7.345   2.439 -0.2111 -0.1959 -0.8046
  868MOL0     H17130   7.868   7.237   2.505  0.9417 -0.1551  1.8355
  868MOL0     H17131   7.944   6.987   2.642 -0.2449 -0.9558 -2.8167
  868MOL0     H17132   8.057   6.890   2.816  0.7337 -2.9851 -0.5488
  868MOL0     H17133   8.202   6.838   2.752 -0.6221  0.2008  0.4184
  868MOL0     H17134   8.203   7.073   2.970  0.9077 -0.4231  2.7997
  868MOL0     H17135   8.205   6.902   3.011 -1.5450  4.1076  4.3075
  868MOL0     H17136   8.409   7.036   2.831 -0.5422  0.8223  0.2886
  868MOL0     H17137   8.404   6.866   2.860 -0.9089 -0.9058 -1.0931
  868MOL0     H17138   8.413   6.892   3.098  0.6083 -2.6449 -2.8018
  868MOL0     H17139   8.402   7.069   3.094 -3.5403 -2.2343  2.1504
  868MOL0     H17140   8.848   6.984   3.004  1.9021 -2.3468  0.6927
  868MOL0     H17141   8.983   6.801   2.972  0.2642 -0.3522 -0.4196
  868MOL0     H17142   9.250   6.543   2.795  2.4362  0.3138  0.4368
  868MOL0     H17143   9.415   6.393   2.784  1.5080 -1.0550 -0.6948
  868MOL0     H17144   9.519   6.197   2.768  1.1700  0.9886 -0.2164
  868MOL0     H17145   9.617   6.285   2.861  1.8275 -0.9236 -0.4956
  868MOL0     H17146   9.723   6.085   2.972  1.6542  1.1772 -0.9157
  868MOL0     H17147   9.613   5.978   2.891 -1.8155  2.4878  2.5961
  868MOL0     H17148   9.689   6.040   2.671 -1.5076  0.7144  0.6127
  868MOL0     H17149   9.801   6.165   2.741  5.2979 -2.5883 -0.5151
  868MOL0     H17150   9.842   5.897   2.851  2.0723 -1.3573 -1.1503
  868MOL0     H17151   9.958   6.011   2.788  0.6974 -1.8272  1.4923
  868MOL0     H17152   9.894   5.942   2.554  2.0379 -0.1161  1.1775
  868MOL0     H17153   9.780   5.837   2.615 -1.1286 -0.8735  3.0542
  868MOL0     H17154  10.081   5.818   2.670 -0.0032  0.5049 -4.9516
  868MOL0     H17155   9.955   5.725   2.773  0.9433 -1.1497  0.4053
  868MOL0     H17156  10.021   5.713   2.472 -0.8855  0.1394 -0.7188
  868MOL0     H17157   9.896   5.614   2.565  0.1690 -0.2313  1.8764
  868MOL0     H17158  10.122   5.495   2.518  0.3520 -0.5035  1.1781
  868MOL0     H17159  10.202   5.621   2.591  1.3615 -0.6824  1.5959
  868MOL0     H17160   9.271   6.185   3.139 -0.7146 -1.3765 -0.4925
  868MOL0     H17161   9.086   6.356   3.148 -0.4591  1.6977 -0.2351
  868MOL0     H17162   8.645   6.531   3.007  1.3076 -0.4371 -3.2304
  868MOL0     H17163   8.500   6.719   3.029 -0.7111  1.5686  0.0999
  868MOL0     H17164   7.429   7.604   1.745 -0.5812  1.2065 -2.3880
  868MOL0     H17165   7.247   7.721   1.634  0.2377  0.6202  0.3900
  868MOL0     H17166   6.902   8.072   1.695  0.9409 -2.0785  1.6930
  868MOL0     H17167   6.680   8.186   1.636 -2.5264 -0.1721  1.4236
  868MOL0     H17168   6.328   7.925   1.596 -0.9572 -0.2198  0.8552
  868MOL0     H17169   6.318   7.985   1.433  2.6745  2.0773 -0.9921
  868MOL0     H17170   6.148   8.083   1.595  0.2025 -0.4148 -0.5471
  868MOL0     H17171   6.245   8.201   1.521  0.0189 -1.4351 -1.4780
  868MOL0     H17172   6.388   8.221   1.724 -0.7715  0.2566 -0.1550
  868MOL0     H17173   6.295   8.100   1.804  1.0627 -0.4839  0.3839
  868MOL0     H17174   6.230   8.344   1.848 -0.0364 -3.0317  1.6930
  868MOL0     H17175   6.188   8.380   1.685  1.3833 -1.5120 -0.7754
  868MOL0     H17176   5.851   8.176   1.878 -1.5393 -0.1375 -1.3758
  868MOL0     H17177   6.514   7.805   1.533 -0.2524  1.3985 -2.8843
  868MOL0     H17178   6.792   7.594   1.533  2.1504  0.3680  1.0584
  868MOL0     H17179   6.745   7.600   1.699  0.7879  0.7582 -0.0096
  868MOL0     H17180   6.622   7.597   1.570 -1.9932  0.8174  4.0030
  869MOL0     O17181   3.234  10.362   3.279  0.3417 -1.0751  0.0218
  869MOL0     C17182   3.192  10.393   3.389  0.7492  0.4905  0.3858
  869MOL0     O17183   3.266  10.473   3.476  0.2866  0.9310 -0.3859
  869MOL0     C17184   3.394  10.493   3.447  0.7696 -0.7793 -0.7980
  869MOL0     C17185   3.483  10.406   3.500 -0.6666 -0.3732 -0.5013
  869MOL0     C17186   3.619  10.426   3.484  0.0636  0.6073  0.1505
  869MOL0     C17187   3.663  10.548   3.422  0.4947  0.1540  0.0466
  869MOL0     O17188   3.797  10.596   3.421 -0.9278 -0.4609  0.0061
  869MOL0     C17189   3.895  10.512   3.486 -0.1416 -0.5109  0.4066
  869MOL0     C17190   4.029  10.569   3.449 -0.6981 -0.3088  0.6904
  869MOL0     C17191   4.146  10.476   3.497  0.1304  0.5446 -0.0220
  869MOL0     C17192   4.282  10.547   3.503 -0.2837 -0.4574 -0.0767
  869MOL0     C17193   4.335  10.553   3.650 -0.1645  0.5315 -0.8177
  869MOL0     C17194   4.456  10.653   3.666 -0.7969 -0.4353 -0.1095
  869MOL0     C17195   4.526  10.631   3.801  0.3836 -0.2674 -0.5685
  869MOL0     C17196   4.569  10.490   3.825 -0.2548  0.2362  0.4824
  869MOL0     N17197   4.701  10.491   3.899 -0.5156  0.5018  0.3120
  869MOL0     C17198   4.827  10.524   3.840 -0.4520  0.4606 -0.1274
  869MOL0     C17199   4.920  10.503   3.943  0.2403 -0.2167  0.6345
  869MOL0     C17200   5.067  10.539   3.942 -0.7665  0.4232 -0.5238
  869MOL0     C17201   5.141  10.431   4.017  0.2625  0.9981  0.1099
  869MOL0     C17202   5.134  10.451   4.170 -1.3088 -0.6714  0.0687
  869MOL0     C17203   5.219  10.347   4.245  0.0781 -0.1045 -0.4578
  869MOL0     O17204   5.325  10.409   4.309  0.2548  0.4998  0.8216
  869MOL0     C17205   5.429  10.323   4.355 -0.3507  0.1110  0.0488
  869MOL0     C17206   5.538  10.392   4.398 -0.5972  0.0206  0.7099
  869MOL0     C17207   5.655  10.333   4.455 -0.0245 -0.6171  0.4261
  869MOL0     C17208   5.666  10.201   4.463 -0.1306 -0.3324 -0.1630
  869MOL0     C17209   5.772  10.129   4.529  0.2581 -0.1778  0.7112
  869MOL0     O17210   5.857  10.199   4.610  1.1126  0.2203  0.0230
  869MOL0     C17211   5.955  10.122   4.675 -0.1334  0.4628  0.0207
  869MOL0     C17212   6.082  10.101   4.622 -0.3817  0.4623 -0.6119
  869MOL0     C17213   6.176  10.024   4.689 -0.2148  0.3015  0.4845
  869MOL0     C17214   6.164   9.976   4.813  0.4500 -1.1018  0.2788
  869MOL0     O17215   6.269   9.908   4.854 -0.2367  0.9853  0.3515
  869MOL0     C17216   6.246   9.832   4.974  0.0515 -0.2014  0.5505
  869MOL0     C17217   6.370   9.740   4.996 -0.3189 -0.1033 -0.3254
  869MOL0     C17218   6.364   9.659   5.132  1.3262 -0.7107 -0.7487
  869MOL0     C17219   6.480   9.565   5.157 -0.2954  0.5003 -0.5360
  869MOL0     C17220   6.538   9.538   5.302  0.2069  0.5283 -0.1900
  869MOL0     C17221   6.459   9.426   5.374 -0.6139 -1.1499  0.2893
  869MOL0     C17222   6.484   9.436   5.537 -0.3241  0.3070  0.8585
  869MOL0     C17223   6.414   9.332   5.626  0.7219 -0.3001  0.2464
  869MOL0    Cl17224   6.244   9.368   5.639 -0.3770  0.6483  0.2209
  869MOL0     C17225   6.042  10.011   4.880  0.0450 -1.1322  0.3763
  869MOL0     C17226   5.935  10.081   4.811 -0.2111  0.1844  0.3726
  869MOL0     O17227   5.795  10.011   4.484  0.4063  0.2858 -0.6807
  869MOL0     C17228   5.557  10.127   4.413  0.0947  0.6457 -0.2440
  869MOL0     C17229   5.441  10.183   4.359  0.0272 -0.1478 -0.0784
  869MOL0     N17230   4.849  10.438   4.045 -0.0489 -0.2002 -0.3112
  869MOL0     N17231   4.730  10.427   4.018 -0.7114 -0.1670  0.2878
  869MOL0     C17232   3.572  10.635   3.369 -0.2314  0.0515  0.0553
  869MOL0     C17233   3.439  10.610   3.383  0.6995 -0.5192  0.3223
  869MOL0     C17234   3.046  10.363   3.425 -1.2585  0.6122 -0.1371
  869MOL0     C17235   3.011  10.387   3.556  0.8997 -0.0125 -0.0754
  869MOL0     C17236   2.887  10.356   3.606  0.4206 -0.1777 -0.4229
  869MOL0     C17237   2.790  10.299   3.526  0.6047  0.2645 -0.8186
  869MOL0     O17238   2.661  10.265   3.566 -0.3542  0.2106 -0.4365
  869MOL0     C17239   2.547  10.358   3.532 -0.6923  0.9634 -0.5373
  869MOL0     C17240   2.459  10.326   3.407 -0.2234  0.2636 -0.2642
  869MOL0     C17241   2.449  10.176   3.383 -0.6070 -0.2264  0.1813
  869MOL0     C17242   2.362  10.100   3.480 -0.8325 -0.2191 -0.3492
  869MOL0     C17243   2.226  10.147   3.463  0.8872  0.0554 -0.2293
  869MOL0     C17244   2.109  10.177   3.454  0.8638  0.2601 -0.2256
  869MOL0     C17245   2.818  10.269   3.393 -0.0287  0.0407  0.1699
  869MOL0     C17246   2.949  10.297   3.339  0.0289  0.0649  1.0702
  869MOL0     C17247   2.990  10.262   3.195 -0.3759  0.0024 -0.2579
  869MOL0     H17248   3.448  10.314   3.547 -1.2263 -0.9624 -2.0085
  869MOL0     H17249   3.693  10.374   3.544 -2.2308  0.5981  3.1609
  869MOL0     H17250   3.874  10.508   3.593  0.9188 -0.5238  0.6254
  869MOL0     H17251   3.888  10.410   3.449  2.4864  0.1908 -2.4127
  869MOL0     H17252   4.035  10.671   3.487  0.6126 -0.7501  1.7563
  869MOL0     H17253   4.026  10.575   3.340  3.0042  2.1514  0.5500
  869MOL0     H17254   4.143  10.392   3.428 -2.3082  0.1979  0.4352
  869MOL0     H17255   4.125  10.442   3.598  2.7443  2.0364  1.1444
  869MOL0     H17256   4.354  10.495   3.439  0.2571 -0.2774  0.3753
  869MOL0     H17257   4.276  10.647   3.460  2.3796 -0.1931  0.0172
  869MOL0     H17258   4.259  10.579   3.724  1.4350  0.4266  0.9509
  869MOL0     H17259   4.377  10.452   3.662  0.4250  0.7860 -0.7476
  869MOL0     H17260   4.528  10.626   3.589 -1.2408 -0.7553 -0.4215
  869MOL0     H17261   4.425  10.757   3.653 -1.1262 -0.7793 -2.4088
  869MOL0     H17262   4.478  10.663   3.894  1.9980 -1.8555  0.8944
  869MOL0     H17263   4.611  10.699   3.804  0.4200 -0.3518  1.6407
  869MOL0     H17264   4.495  10.438   3.887 -0.4078  0.7998  0.7771
  869MOL0     H17265   4.580  10.430   3.734  1.8986 -0.4009  1.0996
  869MOL0     H17266   4.840  10.579   3.747  0.1075  0.2945 -0.1524
  869MOL0     H17267   5.110  10.543   3.842  1.9656  0.3902  0.5636
  869MOL0     H17268   5.069  10.639   3.987 -4.3992  0.0239  0.8652
  869MOL0     H17269   5.105  10.330   3.996 -1.9890  1.8632 -0.4824
  869MOL0     H17270   5.247  10.439   3.994  0.6181  2.1935  1.9676
  869MOL0     H17271   5.035  10.444   4.216 -0.7977  1.7354  1.7386
  869MOL0     H17272   5.178  10.550   4.188  1.6619 -2.0669  1.1843
  869MOL0     H17273   5.257  10.278   4.169 -2.5607 -1.2528 -0.8252
  869MOL0     H17274   5.155  10.288   4.311  1.6034  1.3492  2.5775
  869MOL0     H17275   5.522  10.498   4.414 -2.7437 -0.6146  3.7409
  869MOL0     H17276   5.722  10.384   4.523  0.3275 -3.3676  2.3018
  869MOL0     H17277   6.111  10.137   4.524  5.0866  1.5537  1.0503
  869MOL0     H17278   6.262   9.995   4.629  1.0194 -1.1811  2.8350
  869MOL0     H17279   6.227   9.899   5.059 -0.1311  0.1288  0.2512
  869MOL0     H17280   6.160   9.764   4.977 -0.1594  0.0853  2.0302
  869MOL0     H17281   6.373   9.669   4.912 -0.1585  0.5876 -0.9137
  869MOL0     H17282   6.466   9.791   4.994 -0.8342  1.0177  1.2077
  869MOL0     H17283   6.375   9.738   5.208 -2.0311  0.4384 -1.2628
  869MOL0     H17284   6.264   9.620   5.150  1.4302 -0.1624  1.2840
  869MOL0     H17285   6.566   9.606   5.103 -0.6217  1.5916 -0.2662
  869MOL0     H17286   6.438   9.472   5.118 -1.3296  0.6662  0.1505
  869MOL0     H17287   6.527   9.627   5.366 -0.8948  0.5765 -0.4188
  869MOL0     H17288   6.643   9.509   5.304 -0.7807 -3.6181  0.6704
  869MOL0     H17289   6.351   9.444   5.368 -0.4048  0.2910  0.3334
  869MOL0     H17290   6.488   9.331   5.329 -1.7487 -0.6199 -1.7046
  869MOL0     H17291   6.459   9.534   5.578  0.9572 -0.0526  2.6384
  869MOL0     H17292   6.590   9.417   5.560  0.2669 -1.1532 -2.4746
  869MOL0     H17293   6.427   9.235   5.576 -0.8427 -0.6426  0.4327
  869MOL0     H17294   6.461   9.332   5.725  1.1078 -0.5780  0.0671
  869MOL0     H17295   6.021   9.989   4.984 -0.1961  2.3426  1.1751
  869MOL0     H17296   5.835  10.086   4.852 -1.1217  1.5674 -1.8347
  869MOL0     H17297   5.548  10.019   4.424  3.3599  0.4433  1.7604
  869MOL0     H17298   5.375  10.117   4.304 -0.5128  1.9290 -2.1254
  869MOL0     H17299   3.613  10.726   3.325 -0.0206 -0.1497 -0.1651
  869MOL0     H17300   3.375  10.679   3.330  5.1217  4.9081  1.0924
  869MOL0     H17301   3.071  10.445   3.626  1.8747  1.0746 -1.7368
  869MOL0     H17302   2.860  10.372   3.710 -1.7691  1.8845 -1.2065
  869MOL0     H17303   2.572  10.465   3.525 -3.2961  1.5653 -1.9703
  869MOL0     H17304   2.475  10.356   3.614  0.5596  1.6471  0.6105
  869MOL0     H17305   2.485  10.375   3.312 -5.3304  0.9779 -1.5578
  869MOL0     H17306   2.362  10.373   3.421 -1.0318 -1.3341 -0.3184
  869MOL0     H17307   2.549  10.132   3.387  0.6560  1.7473 -4.3704
  869MOL0     H17308   2.432  10.151   3.278 -1.3753 -0.9663  0.4650
  869MOL0     H17309   2.381   9.994   3.466  2.5224  0.1036  0.7392
  869MOL0     H17310   2.391  10.124   3.583  2.3242  1.3496 -1.4470
  869MOL0     H17311   2.004  10.197   3.440  0.7327  2.0761  2.5447
  869MOL0     H17312   2.737  10.222   3.338  0.8881 -1.2504 -0.1396
  869MOL0     H17313   3.017  10.354   3.143  3.8754 -1.4056 -0.8989
  869MOL0     H17314   3.081  10.202   3.195 -1.0487 -1.0583  0.6711
  869MOL0     H17315   2.917  10.203   3.138  1.1407 -2.5007  0.2709
  870MOL0     O17316   8.029   1.361   9.792 -1.3038 -0.4371 -0.3260
  870MOL0     C17317   7.963   1.383   9.689 -0.6863 -0.0216 -0.6412
  870MOL0     O17318   7.953   1.289   9.589 -0.2508 -0.4767  0.7956
  870MOL0     C17319   7.992   1.163   9.604 -0.3074  0.1296  0.2350
  870MOL0     C17320   7.999   1.088   9.723  0.6515  0.0290 -0.9594
  870MOL0     C17321   8.055   0.966   9.728  0.0228  0.0085  0.8360
  870MOL0     C17322   8.100   0.901   9.614  0.1635 -0.4661  0.0124
  870MOL0     O17323   8.150   0.769   9.604 -0.1036 -0.9689 -0.4131
  870MOL0     C17324   8.185   0.704   9.721  0.3724  0.8826 -0.5226
  870MOL0     C17325   8.236   0.564   9.687 -0.2040 -0.1533 -0.0205
  870MOL0     C17326   8.360   0.570   9.596 -0.0107  0.2185 -0.1314
  870MOL0     C17327   8.433   0.445   9.591  0.5306  0.0813  0.0390
  870MOL0     C17328   8.519   0.441   9.464 -0.0079 -0.3681 -0.2948
  870MOL0     C17329   8.596   0.311   9.460  0.9124 -0.5896  0.9886
  870MOL0     C17330   8.693   0.316   9.347  0.8940 -0.5624  0.4583
  870MOL0     C17331   8.638   0.332   9.212  0.2100  0.2434  0.3603
  870MOL0     N17332   8.749   0.326   9.107  0.4371 -0.5073 -0.8227
  870MOL0     C17333   8.884   0.350   9.126 -0.0987 -0.2692  0.0837
  870MOL0     C17334   8.947   0.332   9.001  0.6036  0.6841 -0.2382
  870MOL0     C17335   9.093   0.348   8.976  0.2956  0.4193  1.1023
  870MOL0     C17336   9.127   0.330   8.829  0.0115  0.9598 -0.8616
  870MOL0     C17337   9.263   0.384   8.795 -0.4780  0.3189 -0.7343
  870MOL0     C17338   9.374   0.285   8.835 -0.1565  0.6263  0.5794
  870MOL0     O17339   9.482   0.306   8.745  0.5997  0.5676 -0.6226
  870MOL0     C17340   9.586   0.219   8.743  0.2778  0.1662 -0.0201
  870MOL0     C17341   9.695   0.242   8.660 -0.1933 -0.0347  0.4808
  870MOL0     C17342   9.802   0.147   8.652 -0.1482  0.1520  0.0446
  870MOL0     C17343   9.802   0.028   8.729  0.7851 -0.6251  0.8907
  870MOL0     C17344   9.897  -0.081   8.716  0.7043 -0.0396 -0.4521
  870MOL0     O17345  10.005  -0.055   8.643  0.5745  0.1160 -0.1510
  870MOL0     C17346  10.082  -0.158   8.600 -0.4001 -0.5272 -0.4159
  870MOL0     C17347  10.191  -0.203   8.674 -0.6830  0.2828  0.0829
  870MOL0     C17348  10.268  -0.305   8.635 -0.5789  0.7857  0.2833
  870MOL0     C17349  10.241  -0.374   8.517 -0.2467 -0.0138  0.1420
  870MOL0     O17350  10.326  -0.487   8.492 -0.0881  0.0167  0.4980
  870MOL0     C17351  10.332  -0.534   8.360 -0.2195 -0.0015  0.9543
  870MOL0     C17352  10.450  -0.631   8.341  0.7054 -0.6707 -0.1417
  870MOL0     C17353  10.587  -0.582   8.382 -0.1897 -0.2513  0.2427
  870MOL0     C17354  10.664  -0.545   8.255  0.5009 -0.5763  0.0791
  870MOL0     C17355  10.786  -0.458   8.295 -1.1910  0.2185  0.3115
  870MOL0     C17356  10.896  -0.529   8.379  0.5046  0.1915 -0.3866
  870MOL0     C17357  11.019  -0.434   8.391  0.2996  0.3437 -0.2281
  870MOL0     C17358  11.136  -0.450   8.285 -0.5754 -1.0359  0.7523
  870MOL0    Cl17359  11.197  -0.610   8.292  0.2594  0.1178  0.2122
  870MOL0     C17360  10.136  -0.329   8.434  0.0331 -0.5000  1.0171
  870MOL0     C17361  10.054  -0.220   8.475  0.9370 -0.3112 -0.9944
  870MOL0     O17362   9.877  -0.183   8.772 -0.6935 -0.3035 -0.0279
  870MOL0     C17363   9.694   0.008   8.816 -0.8687 -0.5766  0.3559
  870MOL0     C17364   9.587   0.100   8.823 -0.0804 -0.1891  0.4766
  870MOL0     N17365   8.835   0.314   8.915  0.0465  0.0930  0.5491
  870MOL0     N17366   8.724   0.302   8.977 -0.3920  0.2831 -0.6230
  870MOL0     C17367   8.065   0.960   9.489  0.5464 -0.4137 -0.5818
  870MOL0     C17368   8.014   1.091   9.486  0.2293 -0.2808  0.2455
  870MOL0     C17369   7.909   1.520   9.675  0.5631  0.0879 -0.0193
  870MOL0     C17370   7.866   1.565   9.548 -1.1384  0.2823  0.1277
  870MOL0     C17371   7.819   1.695   9.529  0.7084  0.3279  0.2540
  870MOL0     C17372   7.797   1.782   9.633  0.1496 -0.2082 -0.6052
  870MOL0     O17373   7.748   1.914   9.609  0.8471 -0.3138 -0.4494
  870MOL0     C17374   7.637   1.930   9.529  0.4593  0.3951 -0.0694
  870MOL0     C17375   7.569   2.060   9.542 -0.1199 -0.0116  0.2664
  870MOL0     C17376   7.625   2.166   9.451  0.1972 -0.2933  0.0644
  870MOL0     C17377   7.530   2.282   9.445  0.1720  0.3977 -0.1510
  870MOL0     C17378   7.463   2.268   9.318 -0.6626 -0.7226 -0.1306
  870MOL0     C17379   7.402   2.259   9.205  0.3014 -0.5337  0.0785
  870MOL0     C17380   7.838   1.739   9.758  0.7562  0.0857  0.3572
  870MOL0     C17381   7.888   1.614   9.785 -0.8791 -0.4024  0.5324
  870MOL0     C17382   7.914   1.585   9.930 -0.4434 -0.0893 -0.5430
  870MOL0     H17383   7.964   1.138   9.813 -0.3249  0.9020 -1.8015
  870MOL0     H17384   8.081   0.920   9.823  2.9952  0.4927  0.3523
  870MOL0     H17385   8.261   0.759   9.778  2.6840 -2.1710 -0.4023
  870MOL0     H17386   8.103   0.706   9.794  2.1772 -0.2421  1.6832
  870MOL0     H17387   8.151   0.512   9.640 -0.1554  1.0846 -1.5466
  870MOL0     H17388   8.264   0.515   9.781  0.0671  0.4742  0.2261
  870MOL0     H17389   8.438   0.641   9.624  1.3614 -1.5294  0.6869
  870MOL0     H17390   8.318   0.599   9.499 -0.4899 -2.1452 -0.6985
  870MOL0     H17391   8.506   0.458   9.672 -0.4173  4.0543  0.4647
  870MOL0     H17392   8.386   0.347   9.600  2.8468 -1.0212  1.3132
  870MOL0     H17393   8.448   0.441   9.380  0.2613 -1.5459 -0.5419
  870MOL0     H17394   8.584   0.528   9.454 -2.0483  1.2786  0.0732
  870MOL0     H17395   8.641   0.285   9.557  1.0306 -1.6153  0.6718
  870MOL0     H17396   8.520   0.237   9.435  0.6965 -0.8056  2.2000
  870MOL0     H17397   8.746   0.220   9.341  0.0053 -1.0045 -0.6394
  870MOL0     H17398   8.762   0.397   9.375 -0.8225  0.8987  0.6150
  870MOL0     H17399   8.586   0.241   9.183  0.9994  0.3329 -1.4824
  870MOL0     H17400   8.572   0.419   9.203 -1.4581 -1.0395 -0.2001
  870MOL0     H17401   8.945   0.366   9.215 -0.0515 -1.5717  0.3008
  870MOL0     H17402   9.128   0.443   9.017  1.2083  1.1812 -1.2546
  870MOL0     H17403   9.139   0.262   9.026 -1.7962 -1.3375  0.1970
  870MOL0     H17404   9.125   0.222   8.814  3.9625  0.4810  1.0604
  870MOL0     H17405   9.051   0.381   8.768 -0.0543  1.3498 -0.4618
  870MOL0     H17406   9.285   0.485   8.830 -0.4295  0.0509  0.0309
  870MOL0     H17407   9.268   0.403   8.687 -0.2523  0.0585 -0.7701
  870MOL0     H17408   9.327   0.187   8.825 -1.5951  0.9801  3.1639
  870MOL0     H17409   9.403   0.292   8.940 -1.1711 -2.9672  1.2370
  870MOL0     H17410   9.706   0.335   8.605 -0.0385 -0.6781 -0.5860
  870MOL0     H17411   9.892   0.173   8.597  1.3606 -1.7460  1.4813
  870MOL0     H17412  10.217  -0.164   8.772 -3.0524  0.7525  0.5730
  870MOL0     H17413  10.340  -0.345   8.706  0.5569  0.2711 -1.1049
  870MOL0     H17414  10.243  -0.592   8.336  0.9127 -1.4951  0.1701
  870MOL0     H17415  10.338  -0.448   8.293  2.7045 -1.0009 -0.2151
  870MOL0     H17416  10.437  -0.720   8.404  1.0086 -2.0743 -1.9981
  870MOL0     H17417  10.451  -0.679   8.243  1.4898 -2.1085  0.5390
  870MOL0     H17418  10.587  -0.505   8.460  0.0980 -1.1003  1.0913
  870MOL0     H17419  10.647  -0.668   8.413  2.4288  1.2800 -0.2296
  870MOL0     H17420  10.599  -0.481   8.193 -2.9018 -3.8121 -0.0354
  870MOL0     H17421  10.682  -0.636   8.197  0.3081 -0.4464 -0.1934
  870MOL0     H17422  10.747  -0.368   8.343  0.0540  2.0109 -1.8505
  870MOL0     H17423  10.838  -0.425   8.205 -1.8858  0.0756 -0.1559
  870MOL0     H17424  10.849  -0.545   8.476  0.3317 -1.2753 -0.6994
  870MOL0     H17425  10.933  -0.622   8.336  2.9816  1.0069 -0.1634
  870MOL0     H17426  11.048  -0.460   8.493 -1.7942 -0.3140  0.2663
  870MOL0     H17427  10.986  -0.330   8.394 -0.8278  0.0789 -2.0209
  870MOL0     H17428  11.104  -0.417   8.186 -0.5613  0.1015  1.1010
  870MOL0     H17429  11.218  -0.385   8.319 -3.3811  0.7166  4.9599
  870MOL0     H17430  10.108  -0.391   8.350  1.6619 -4.0376  2.8797
  870MOL0     H17431   9.972  -0.186   8.413  1.0413  2.3773  0.1995
  870MOL0     H17432   9.684  -0.079   8.880  0.8947 -0.5718  0.6959
  870MOL0     H17433   9.500   0.084   8.884 -2.1941 -0.0156 -2.2843
  870MOL0     H17434   8.080   0.898   9.401 -1.4871 -0.9873 -0.5660
  870MOL0     H17435   7.995   1.131   9.387 -0.5726 -1.3013 -0.0350
  870MOL0     H17436   7.888   1.500   9.463 -0.3784  1.1620 -0.3707
  870MOL0     H17437   7.778   1.707   9.429 -3.1570 -1.7306  1.3901
  870MOL0     H17438   7.562   1.854   9.554  1.1189 -0.8608 -1.7102
  870MOL0     H17439   7.668   1.932   9.424  1.3455  2.7131  0.1873
  870MOL0     H17440   7.580   2.092   9.646 -1.0024 -2.5942  1.2251
  870MOL0     H17441   7.462   2.049   9.522 -0.5086 -0.9493  2.5568
  870MOL0     H17442   7.663   2.130   9.355 -1.2901  1.2057 -1.1575
  870MOL0     H17443   7.713   2.191   9.511 -0.1489 -1.7292  1.2032
  870MOL0     H17444   7.452   2.285   9.522  0.7401  0.5903  0.4283
  870MOL0     H17445   7.588   2.375   9.445  2.0390 -0.7186 -0.1047
  870MOL0     H17446   7.349   2.247   9.113  0.5103  1.1042 -0.2892
  870MOL0     H17447   7.830   1.815   9.835  2.6688  1.6373 -0.8804
  870MOL0     H17448   8.018   1.560   9.951 -1.4514 -3.6752  0.9425
  870MOL0     H17449   7.874   1.655  10.003  1.1013  0.0674  0.1870
  870MOL0     H17450   7.854   1.495   9.949  1.1528 -0.6502  2.4072
  871MOL0     O17451  10.965   2.298   2.027  0.0242  0.2069 -0.2727
  871MOL0     C17452  10.877   2.348   2.100 -0.1071  0.5292  0.7837
  871MOL0     O17453  10.879   2.366   2.235 -0.7196  1.0386  0.6339
  871MOL0     C17454  10.986   2.322   2.311  0.0449  0.2959  0.3363
  871MOL0     C17455  11.028   2.398   2.418 -0.2944 -0.8518 -0.2392
  871MOL0     C17456  11.118   2.351   2.519  0.0873  0.4417  0.2797
  871MOL0     C17457  11.169   2.223   2.513  0.2734  1.0165  0.5502
  871MOL0     O17458  11.252   2.161   2.604  0.0848 -0.4949 -0.2475
  871MOL0     C17459  11.237   2.219   2.737 -0.3420  1.7364  0.2040
  871MOL0     C17460  11.297   2.132   2.838 -0.4813  0.0690 -0.2413
  871MOL0     C17461  11.326   2.202   2.966 -0.9471 -0.3940 -0.9161
  871MOL0     C17462  11.381   2.114   3.075  0.4414  0.8759  1.1231
  871MOL0     C17463  11.538   2.094   3.050  0.2203 -0.1169 -0.9511
  871MOL0     C17464  11.629   2.211   3.084  0.5627 -0.3642  0.7051
  871MOL0     C17465  11.779   2.196   3.063  0.7655  0.4213  0.7980
  871MOL0     C17466  11.857   2.324   3.037  0.1686 -0.2110  0.8262
  871MOL0     N17467  12.001   2.300   3.043  0.3262 -0.1225  0.0182
  871MOL0     C17468  12.077   2.194   2.992  0.0204  0.5873 -0.1452
  871MOL0     C17469  12.207   2.225   3.014 -0.1103 -0.6015  1.1683
  871MOL0     C17470  12.336   2.152   2.990  0.3064 -0.7873 -0.6455
  871MOL0     C17471  12.349   2.014   3.052  0.0870  0.0995 -0.5407
  871MOL0     C17472  12.483   1.955   2.983 -0.2254 -0.3793  0.5597
  871MOL0     C17473  12.609   2.002   3.044 -0.9307  0.0082 -0.5677
  871MOL0     O17474  12.721   1.982   2.957  0.1615 -0.6557 -0.1961
  871MOL0     C17475  12.846   2.008   3.004  0.7231 -0.4346  0.2025
  871MOL0     C17476  12.950   2.006   2.910  0.9444  0.1816 -0.3817
  871MOL0     C17477  13.075   2.039   2.950 -1.0885 -0.4269  0.3365
  871MOL0     C17478  13.108   2.064   3.085 -0.6351 -0.3130  0.7678
  871MOL0     C17479  13.250   2.086   3.121  0.4733 -0.2087  1.2499
  871MOL0     O17480  13.335   2.144   3.038  0.9755 -0.0526 -0.3193
  871MOL0     C17481  13.469   2.127   3.049 -0.0909 -0.4666  0.7452
  871MOL0     C17482  13.548   2.056   2.957 -0.4371 -0.3899 -0.2186
  871MOL0     C17483  13.686   2.038   2.972 -0.6560 -1.2507  0.0817
  871MOL0     C17484  13.751   2.103   3.079 -0.2982 -0.5344 -1.2214
  871MOL0     O17485  13.892   2.098   3.095  0.1238 -0.2109  0.2977
  871MOL0     C17486  13.992   2.042   3.005 -1.0244 -0.0631  0.3083
  871MOL0     C17487  14.060   2.142   2.924  0.5509  0.3743  0.0765
  871MOL0     C17488  14.157   2.226   3.010  0.2002 -0.2435  0.3993
  871MOL0     C17489  14.228   2.325   2.921  0.3022 -0.3982 -0.2198
  871MOL0     C17490  14.344   2.384   3.000 -0.0886 -0.0822  0.0062
  871MOL0     C17491  14.407   2.484   2.910 -0.3045  0.8896 -0.2244
  871MOL0     C17492  14.547   2.537   2.953  1.0530  0.1926 -1.5122
  871MOL0     C17493  14.527   2.627   3.074 -1.0652 -0.3711  0.1458
  871MOL0    Cl17494  14.695   2.669   3.133 -0.0381 -0.6815 -0.7261
  871MOL0     C17495  13.675   2.179   3.169 -0.7698 -0.4029  0.3521
  871MOL0     C17496  13.541   2.181   3.160  0.6254  0.0249 -0.0028
  871MOL0     O17497  13.279   2.060   3.236 -0.6381  0.1295  0.0682
  871MOL0     C17498  13.002   2.064   3.176  0.6985  0.1334 -0.4818
  871MOL0     C17499  12.876   2.039   3.137 -0.1262 -0.7818 -0.2193
  871MOL0     N17500  12.208   2.351   3.072  0.1411  0.7158  0.1346
  871MOL0     N17501  12.088   2.388   3.102  0.3569 -0.3073  0.5551
  871MOL0     C17502  11.131   2.140   2.404  0.1771 -0.1844 -0.3710
  871MOL0     C17503  11.040   2.187   2.308  0.7512  0.1999 -0.1653
  871MOL0     C17504  10.751   2.389   2.028 -0.3170  0.6372  0.2347
  871MOL0     C17505  10.717   2.320   1.904  0.2593 -0.6061 -0.6687
  871MOL0     C17506  10.605   2.362   1.824 -0.1604  0.4548 -1.0598
  871MOL0     C17507  10.524   2.457   1.861  1.0901  0.2575  0.1219
  871MOL0     O17508  10.416   2.469   1.776 -0.2686 -0.4757  0.2992
  871MOL0     C17509  10.303   2.557   1.807 -0.6443  0.2556  0.1884
  871MOL0     C17510  10.329   2.691   1.751 -0.1920 -0.0400  0.0946
  871MOL0     C17511  10.228   2.792   1.804  0.2286 -0.3241 -0.6224
  871MOL0     C17512  10.232   2.919   1.730 -0.2403  0.8243  0.4088
  871MOL0     C17513  10.191   2.911   1.589 -0.3988 -0.8431 -0.6215
  871MOL0     C17514  10.151   2.894   1.477  0.5076 -0.2220  0.6170
  871MOL0     C17515  10.552   2.522   1.980 -0.2500  0.0646  0.2254
  871MOL0     C17516  10.662   2.495   2.059 -0.1097 -0.0931  0.1289
  871MOL0     C17517  10.680   2.582   2.184 -0.4383  0.3816  0.2616
  871MOL0     H17518  10.990   2.500   2.416  3.9900  0.9314 -1.5069
  871MOL0     H17519  11.136   2.403   2.613 -4.1271 -2.4950  3.0814
  871MOL0     H17520  11.280   2.319   2.737 -3.1368  3.1364 -2.6231
  871MOL0     H17521  11.132   2.236   2.762 -1.3095  0.0983 -2.3098
  871MOL0     H17522  11.394   2.113   2.791 -0.5841 -1.4743  0.1343
  871MOL0     H17523  11.247   2.039   2.865 -2.7314  2.1885  3.8210
  871MOL0     H17524  11.239   2.249   3.014 -0.3192 -0.4931  0.3558
  871MOL0     H17525  11.388   2.290   2.946 -0.6330 -0.2892  0.3988
  871MOL0     H17526  11.363   2.143   3.179  0.3735 -1.6568  1.8935
  871MOL0     H17527  11.339   2.013   3.069  2.6172 -0.1696  2.4046
  871MOL0     H17528  11.569   2.015   3.119  0.4625  0.8210  0.0377
  871MOL0     H17529  11.568   2.063   2.950  1.7114  2.3022 -1.3437
  871MOL0     H17530  11.579   2.287   3.023 -0.2528  0.8612  2.7749
  871MOL0     H17531  11.611   2.250   3.185 -0.8651  1.5794 -0.2375
  871MOL0     H17532  11.796   2.136   2.973  0.5170  1.4269  0.0657
  871MOL0     H17533  11.822   2.143   3.149 -0.5721 -1.0313  0.6277
  871MOL0     H17534  11.832   2.357   2.935 -1.0590  0.0742  1.2061
  871MOL0     H17535  11.825   2.398   3.111 -2.1541  1.2153 -1.4143
  871MOL0     H17536  12.042   2.101   2.947  3.5739 -1.8869  1.7094
  871MOL0     H17537  12.355   2.156   2.882  2.3191 -1.4993 -0.3602
  871MOL0     H17538  12.406   2.224   3.034 -2.3904  0.4771  1.9408
  871MOL0     H17539  12.348   2.004   3.161  0.1194  0.1359 -0.5373
  871MOL0     H17540  12.266   1.959   3.007 -1.9254  0.8628  2.0055
  871MOL0     H17541  12.484   1.981   2.877 -0.4209 -3.4367 -0.3066
  871MOL0     H17542  12.484   1.845   2.989  1.3915 -0.3076  3.6319
  871MOL0     H17543  12.614   1.939   3.133 -3.1566 -0.4055 -0.6705
  871MOL0     H17544  12.594   2.107   3.070  0.3566 -0.4432  2.2919
  871MOL0     H17545  12.939   1.984   2.804  1.8689  0.2206 -0.4979
  871MOL0     H17546  13.155   2.034   2.878 -0.7320  0.6880  0.6359
  871MOL0     H17547  13.489   2.013   2.877 -2.1827 -0.2166  0.9273
  871MOL0     H17548  13.749   1.981   2.904 -1.1984  0.4284 -1.9405
  871MOL0     H17549  14.057   1.970   3.056 -2.7291 -0.1418  2.5549
  871MOL0     H17550  13.952   1.978   2.926 -2.5057  1.4236 -0.2079
  871MOL0     H17551  14.117   2.098   2.841  0.5461 -1.0302  0.7916
  871MOL0     H17552  13.988   2.214   2.885  1.1677  1.5631  1.0739
  871MOL0     H17553  14.105   2.274   3.093  2.1494  0.4368  1.2615
  871MOL0     H17554  14.227   2.159   3.060 -0.3326  0.8166  2.7082
  871MOL0     H17555  14.158   2.403   2.892  0.0621 -0.1727  0.9193
  871MOL0     H17556  14.268   2.273   2.833 -0.6004  1.3039 -1.7064
  871MOL0     H17557  14.419   2.312   3.035 -2.0981 -1.5210  1.6419
  871MOL0     H17558  14.305   2.429   3.092 -1.7870  2.1698 -1.7124
  871MOL0     H17559  14.418   2.453   2.806 -0.1860 -1.6235  0.4859
  871MOL0     H17560  14.337   2.568   2.918 -1.9626 -0.5857  1.8476
  871MOL0     H17561  14.592   2.597   2.874  0.9299  3.9937  1.0090
  871MOL0     H17562  14.612   2.458   2.991  0.2391  0.7126  1.1780
  871MOL0     H17563  14.486   2.715   3.025  2.8478  1.0462 -0.9328
  871MOL0     H17564  14.473   2.584   3.159 -0.2959 -2.4624 -0.3549
  871MOL0     H17565  13.723   2.219   3.258  0.7601  0.9752 -1.0280
  871MOL0     H17566  13.485   2.244   3.228  0.1886 -1.4130  1.0175
  871MOL0     H17567  13.026   2.089   3.279  3.2246  3.3601 -1.6768
  871MOL0     H17568  12.802   2.051   3.216  0.3192  0.2106  0.0672
  871MOL0     H17569  11.173   2.040   2.404 -1.4612 -0.8947 -0.4638
  871MOL0     H17570  11.016   2.129   2.220  2.2000  2.3661 -2.1383
  871MOL0     H17571  10.784   2.251   1.856  1.4094  1.5450 -2.3274
  871MOL0     H17572  10.595   2.302   1.734  2.1120 -0.9197 -0.4666
  871MOL0     H17573  10.292   2.583   1.913 -1.6151  1.6001 -0.2092
  871MOL0     H17574  10.209   2.509   1.778 -1.4150  0.2154  2.4949
  871MOL0     H17575  10.316   2.680   1.643 -0.8740  0.1836  0.1437
  871MOL0     H17576  10.429   2.729   1.771 -0.0839  0.0426 -0.5772
  871MOL0     H17577  10.239   2.812   1.911 -0.3431  2.0266 -0.9548
  871MOL0     H17578  10.128   2.751   1.793 -1.1888  2.3482  1.3534
  871MOL0     H17579  10.159   2.991   1.767 -2.1540  0.2984 -2.0969
  871MOL0     H17580  10.334   2.959   1.724  1.4284 -2.9891  0.2966
  871MOL0     H17581  10.108   2.875   1.380 -2.1129 -0.8518  1.8042
  871MOL0     H17582  10.480   2.596   2.012 -1.8962 -1.0634 -0.7130
  871MOL0     H17583  10.614   2.669   2.181  1.3708  1.8140 -0.2547
  871MOL0     H17584  10.667   2.514   2.268 -0.3073  1.9368  1.5811
  871MOL0     H17585  10.780   2.623   2.200  0.1353 -1.0137  0.3148
  872MOL0     O17586   8.891   2.941   9.907 -0.1018 -0.5310 -0.5681
  872MOL0     C17587   8.824   2.975   9.809 -0.5988 -0.0105 -0.2168
  872MOL0     O17588   8.872   3.034   9.696 -0.8031 -1.3393  0.4522
  872MOL0     C17589   9.006   3.024   9.688  0.1000 -0.2140  0.1964
  872MOL0     C17590   9.052   2.922   9.606 -0.8975  1.0514  0.6775
  872MOL0     C17591   9.182   2.897   9.573 -0.1875  0.0191 -0.1971
  872MOL0     C17592   9.278   2.981   9.633  0.1299 -0.3198 -0.0703
  872MOL0     O17593   9.416   2.960   9.603  0.2782 -0.4810 -0.6638
  872MOL0     C17594   9.505   3.062   9.646 -0.1862 -0.4143 -0.3830
  872MOL0     C17595   9.647   3.016   9.620 -0.2310  0.4567 -0.1002
  872MOL0     C17596   9.744   3.118   9.654  0.2356 -0.7390 -0.1681
  872MOL0     C17597   9.892   3.071   9.634  0.0148  0.3442 -0.0945
  872MOL0     C17598   9.995   3.190   9.645  0.4803  0.0208 -0.0382
  872MOL0     C17599  10.141   3.152   9.613 -0.1222  0.8043 -0.0345
  872MOL0     C17600  10.231   3.271   9.573  0.3570 -0.4676  0.4740
  872MOL0     C17601  10.370   3.221   9.525  0.0951  0.3465 -0.6299
  872MOL0     N17602  10.423   3.125   9.623 -0.4096  0.4074  0.0674
  872MOL0     C17603  10.442   3.152   9.756 -0.7456 -0.0886 -0.0189
  872MOL0     C17604  10.502   3.040   9.803  0.5628  0.7950  0.1876
  872MOL0     C17605  10.536   3.041   9.943 -0.6868 -0.4641  0.3298
  872MOL0     C17606  10.645   3.146   9.984 -0.7895 -0.0584  0.5562
  872MOL0     C17607  10.623   3.204  10.126  0.2054  0.2164 -0.2074
  872MOL0     C17608  10.738   3.195  10.223 -0.0350  0.1967 -0.2431
  872MOL0     O17609  10.797   3.060  10.214 -0.2887  0.0132 -0.0494
  872MOL0     C17610  10.931   3.061  10.229  0.5137 -0.4143 -0.3722
  872MOL0     C17611  10.994   3.142  10.326  0.2983  0.5020  0.0902
  872MOL0     C17612  11.129   3.139  10.329  0.0001 -0.2568 -0.1184
  872MOL0     C17613  11.208   3.050  10.253 -0.8070  0.1300  0.8383
  872MOL0     C17614  11.355   3.041  10.266  0.1996 -0.0742  0.5813
  872MOL0     O17615  11.408   3.131  10.355 -0.9297  0.0266  0.1384
  872MOL0     C17616  11.543   3.157  10.340  0.2660 -0.5788 -0.4737
  872MOL0     C17617  11.586   3.291  10.326 -0.4060  0.2544 -0.1074
  872MOL0     C17618  11.721   3.320  10.315 -0.1568 -0.3266 -0.1642
  872MOL0     C17619  11.822   3.228  10.335  0.0146  0.4662  0.8375
  872MOL0     O17620  11.958   3.259  10.340  0.6573 -0.0774  0.3392
  872MOL0     C17621  11.995   3.396  10.289 -0.4693 -0.2555  0.1879
  872MOL0     C17622  12.143   3.429  10.303 -0.3810 -0.6527 -0.5587
  872MOL0     C17623  12.204   3.350  10.195  0.0060 -1.3135 -0.4511
  872MOL0     C17624  12.353   3.370  10.217  0.9325  0.6560 -0.4083
  872MOL0     C17625  12.426   3.330  10.094 -0.3682 -0.4230 -1.6960
  872MOL0     C17626  12.578   3.361  10.118  0.0600 -0.4475 -0.8554
  872MOL0     C17627  12.646   3.391   9.986  0.1295 -0.0517  0.7380
  872MOL0     C17628  12.792   3.423  10.013  0.5155  0.1195 -0.1685
  872MOL0    Cl17629  12.857   3.556   9.912 -0.0126  0.4181 -0.3589
  872MOL0     C17630  11.780   3.101  10.374 -0.0659 -0.1945  0.0380
  872MOL0     C17631  11.646   3.061  10.373  0.0328 -0.2289 -0.0258
  872MOL0     O17632  11.419   2.960  10.200  0.0418 -0.3931  0.1989
  872MOL0     C17633  11.143   2.963  10.170 -0.3775 -0.2192 -0.5469
  872MOL0     C17634  11.005   2.979  10.154 -0.0746 -0.0085 -0.3300
  872MOL0     N17635  10.517   2.949   9.702 -0.1199 -0.2556 -0.0813
  872MOL0     N17636  10.463   2.997   9.598  0.1891 -0.1738 -0.0247
  872MOL0     C17637   9.234   3.076   9.732  0.2138  0.3848  0.2386
  872MOL0     C17638   9.098   3.105   9.747  0.7536  0.0480  0.4690
  872MOL0     C17639   8.674   2.954   9.809 -0.2728  0.2799  0.6690
  872MOL0     C17640   8.611   2.948   9.683  0.2289  1.0663  0.8181
  872MOL0     C17641   8.474   2.922   9.681 -0.2075 -0.2501  0.0916
  872MOL0     C17642   8.398   2.890   9.793  0.6605  0.1530 -0.5374
  872MOL0     O17643   8.258   2.861   9.776 -0.2000 -0.1748  0.2581
  872MOL0     C17644   8.183   2.843   9.891  1.0166 -0.2232 -0.7578
  872MOL0     C17645   8.046   2.801   9.846  0.2135 -0.6848  0.2722
  872MOL0     C17646   7.955   2.759   9.960  0.7360 -0.3503  0.3171
  872MOL0     C17647   7.871   2.639   9.930  0.0886  0.0303 -0.1657
  872MOL0     C17648   7.791   2.598  10.040 -0.3579  0.6955 -0.1260
  872MOL0     C17649   7.721   2.562  10.145 -1.4614 -0.5460  0.8963
  872MOL0     C17650   8.466   2.887   9.911  0.0113  0.0300 -0.9673
  872MOL0     C17651   8.604   2.914   9.927 -0.0426 -0.1260 -0.8520
  872MOL0     C17652   8.660   2.924  10.065 -0.5812 -0.5780  0.0757
  872MOL0     H17653   8.983   2.868   9.543  0.6492 -0.4214  0.1780
  872MOL0     H17654   9.189   2.818   9.499 -3.6369  0.3097 -0.9917
  872MOL0     H17655   9.482   3.154   9.591  0.1140 -0.2037 -0.1601
  872MOL0     H17656   9.488   3.098   9.748 -0.9558  2.4446 -1.4366
  872MOL0     H17657   9.653   3.013   9.511  2.8048 -0.2314  0.0127
  872MOL0     H17658   9.681   2.920   9.660  0.5089  1.1305  0.9471
  872MOL0     H17659   9.723   3.137   9.759  0.7431 -0.7645 -0.0594
  872MOL0     H17660   9.727   3.207   9.593  0.6884  0.2174  1.0834
  872MOL0     H17661   9.913   2.995   9.709 -2.0617 -1.6233 -1.3902
  872MOL0     H17662   9.906   3.032   9.534  1.2678  0.1591  0.1452
  872MOL0     H17663   9.964   3.264   9.571 -0.0948 -1.1457 -0.9919
  872MOL0     H17664   9.995   3.252   9.735  0.5592  1.1426 -0.7804
  872MOL0     H17665  10.188   3.101   9.697 -1.9518 -1.0904 -0.0636
  872MOL0     H17666  10.129   3.086   9.527 -1.9886 -1.7512  2.0033
  872MOL0     H17667  10.236   3.343   9.655 -0.0978 -1.2254  1.1931
  872MOL0     H17668  10.189   3.323   9.486  0.8073 -0.7750  0.0712
  872MOL0     H17669  10.352   3.167   9.431 -2.3374  1.4899 -0.8915
  872MOL0     H17670  10.444   3.301   9.514  3.4793 -2.2010  1.5373
  872MOL0     H17671  10.417   3.244   9.807 -4.7033  0.7095 -2.9549
  872MOL0     H17672  10.439   3.073   9.982 -0.7938  2.9216 -2.2475
  872MOL0     H17673  10.559   2.941   9.982 -2.4111 -0.9099  0.2979
  872MOL0     H17674  10.744   3.104   9.970 -0.5975  1.3698 -3.9341
  872MOL0     H17675  10.643   3.227   9.910  0.8159 -0.9671 -0.5266
  872MOL0     H17676  10.533   3.152  10.161 -0.7530  1.1578 -1.1748
  872MOL0     H17677  10.592   3.309  10.114 -1.8871 -0.4212 -0.8652
  872MOL0     H17678  10.718   3.219  10.328 -1.2992  3.4517 -1.0940
  872MOL0     H17679  10.812   3.266  10.184  0.4273 -1.0117 -1.6117
  872MOL0     H17680  10.937   3.198  10.400  0.1195 -0.9066  1.0666
  872MOL0     H17681  11.182   3.218  10.381  0.8477  0.7497 -2.3586
  872MOL0     H17682  11.515   3.373  10.320  2.1196  2.7146  1.3127
  872MOL0     H17683  11.722   3.427  10.294 -3.7269  0.0743  0.9237
  872MOL0     H17684  11.951   3.415  10.191 -0.9184 -4.0333 -0.4807
  872MOL0     H17685  11.950   3.468  10.359  3.1676  2.4018  0.0625
  872MOL0     H17686  12.160   3.534  10.280  2.8539 -1.1047 -0.6287
  872MOL0     H17687  12.180   3.396  10.400  2.3949 -0.9834 -1.6302
  872MOL0     H17688  12.175   3.246  10.208 -1.2583 -0.7023  2.6691
  872MOL0     H17689  12.166   3.387  10.099  1.7075 -3.5320 -2.0782
  872MOL0     H17690  12.374   3.306  10.303  1.4839 -1.0450 -1.7501
  872MOL0     H17691  12.370   3.477  10.230 -0.7036  0.6392  2.8586
  872MOL0     H17692  12.397   3.386  10.004  1.0928 -0.8845 -2.4978
  872MOL0     H17693  12.409   3.229  10.055  0.3069 -1.2216 -0.0008
  872MOL0     H17694  12.598   3.435  10.196  0.0439 -2.8877  1.6127
  872MOL0     H17695  12.623   3.272  10.162  1.5253  0.6519 -0.0807
  872MOL0     H17696  12.597   3.481   9.947 -2.2024 -1.5166  0.0942
  872MOL0     H17697  12.636   3.320   9.903 -0.0499  0.0077  0.7093
  872MOL0     H17698  12.802   3.450  10.118  0.4062 -1.5484  0.2927
  872MOL0     H17699  12.852   3.332  10.007 -3.9347 -3.0558 -1.6215
  872MOL0     H17700  11.859   3.034  10.408  0.3024  0.5007  0.5849
  872MOL0     H17701  11.607   2.961  10.387  1.6122 -0.7837  0.5519
  872MOL0     H17702  11.193   2.887  10.110 -2.2334 -1.6550 -0.3583
  872MOL0     H17703  10.947   2.919  10.084 -1.5537  2.5106 -1.3676
  872MOL0     H17704   9.291   3.155   9.780 -1.0808  0.9476  0.8877
  872MOL0     H17705   9.066   3.187   9.810 -3.4450 -0.1486 -1.0715
  872MOL0     H17706   8.661   2.974   9.591  0.9448  1.8885  1.4180
  872MOL0     H17707   8.427   2.934   9.584  0.1445 -0.3688 -0.0982
  872MOL0     H17708   8.165   2.933   9.950 -0.3357  0.2635 -1.8671
  872MOL0     H17709   8.228   2.762   9.949 -0.9117 -1.3386 -0.7549
  872MOL0     H17710   8.065   2.718   9.778 -0.1306  0.2965 -1.0573
  872MOL0     H17711   8.002   2.880   9.785 -0.4326 -0.9691  0.3659
  872MOL0     H17712   7.879   2.837   9.963  1.0824  0.0880 -1.4174
  872MOL0     H17713   8.003   2.756  10.059 -0.7454  1.2179  1.1437
  872MOL0     H17714   7.812   2.666   9.842 -1.1224  0.5767  0.7884
  872MOL0     H17715   7.935   2.555   9.902  0.3434  0.6444 -1.5209
  872MOL0     H17716   7.669   2.550  10.238 -2.4283  1.4835  0.6777
  872MOL0     H17717   8.404   2.877  10.000  0.4723 -1.4156 -0.7833
  872MOL0     H17718   8.696   3.025  10.086 -2.5285  0.1570  0.0486
  872MOL0     H17719   8.581   2.907  10.139  0.3757 -1.4172  0.9479
  872MOL0     H17720   8.736   2.845  10.072  0.6330  0.4035 -1.4647
  873MOL0     O17721   5.752   7.619   1.789  0.8566  0.0006  0.2408
  873MOL0     C17722   5.851   7.655   1.734  0.0124  0.1721 -0.8026
  873MOL0     O17723   5.865   7.766   1.650 -0.1012  0.9837  0.4228
  873MOL0     C17724   5.757   7.854   1.621 -0.5785  0.2478  0.0688
  873MOL0     C17725   5.813   7.959   1.546  0.4857 -0.4886  0.1275
  873MOL0     C17726   5.736   8.062   1.503  0.2999 -0.9867 -0.5338
  873MOL0     C17727   5.601   8.077   1.552  0.1691  0.0292 -0.1645
  873MOL0     O17728   5.525   8.188   1.518  0.2183  0.2962  0.2578
  873MOL0     C17729   5.462   8.257   1.626  1.4339 -0.5650 -0.0001
  873MOL0     C17730   5.565   8.335   1.717 -0.2664 -0.3597  0.8285
  873MOL0     C17731   5.629   8.449   1.631  0.2268 -0.2739  0.2296
  873MOL0     C17732   5.745   8.518   1.712 -0.0304  0.8545  0.6070
  873MOL0     C17733   5.764   8.654   1.666  0.2164  0.4479  0.2148
  873MOL0     C17734   5.866   8.724   1.747  0.2772  0.4670  0.2052
  873MOL0     C17735   6.013   8.679   1.736 -0.1171 -0.6204  0.0414
  873MOL0     C17736   6.071   8.695   1.592  0.1123 -1.3749  0.0620
  873MOL0     N17737   6.212   8.665   1.592 -0.6387  1.1989 -1.1372
  873MOL0     C17738   6.275   8.587   1.502 -0.0650 -0.8612  1.1775
  873MOL0     C17739   6.406   8.612   1.511  0.6864 -0.4605  0.1941
  873MOL0     C17740   6.524   8.543   1.443  0.1707 -0.4559  0.2998
  873MOL0     C17741   6.587   8.431   1.537 -0.0460  0.0102 -0.5564
  873MOL0     C17742   6.624   8.478   1.681  0.1099 -0.5507  0.3158
  873MOL0     C17743   6.716   8.608   1.680 -0.4615 -0.0686 -0.6599
  873MOL0     O17744   6.829   8.599   1.584 -0.6478  0.2226 -0.3202
  873MOL0     C17745   6.956   8.554   1.628 -0.6960 -0.8503  0.4802
  873MOL0     C17746   6.981   8.489   1.751  0.4416  0.5056 -0.9816
  873MOL0     C17747   7.108   8.458   1.795  0.1117  0.4372 -0.2599
  873MOL0     C17748   7.222   8.496   1.723 -0.6825  0.2842 -0.1419
  873MOL0     C17749   7.354   8.460   1.776 -0.4607 -0.2463  0.8367
  873MOL0     O17750   7.364   8.341   1.854 -0.3344 -0.6259  0.2844
  873MOL0     C17751   7.487   8.325   1.908 -0.2855  0.1598  0.3800
  873MOL0     C17752   7.612   8.328   1.836 -0.5652 -0.4716  1.1603
  873MOL0     C17753   7.730   8.325   1.911  0.0826  0.1606  0.5297
  873MOL0     C17754   7.732   8.334   2.051 -0.1313  0.0466  0.0040
  873MOL0     O17755   7.841   8.349   2.137  0.0842 -0.3481 -0.4726
  873MOL0     C17756   7.967   8.304   2.087 -1.2096  0.5272  0.5997
  873MOL0     C17757   8.091   8.401   2.079  0.2697 -0.7399  0.0557
  873MOL0     C17758   8.141   8.417   2.220  0.9331 -0.4745 -0.1721
  873MOL0     C17759   8.254   8.529   2.232  0.5128 -0.1337  0.2770
  873MOL0     C17760   8.315   8.511   2.368 -0.6302  0.0183  0.6246
  873MOL0     C17761   8.445   8.594   2.387  1.1052  0.3877  0.1376
  873MOL0     C17762   8.486   8.564   2.533 -0.1505 -0.9741  0.3600
  873MOL0     C17763   8.624   8.629   2.566  0.6338  0.1021 -0.5313
  873MOL0    Cl17764   8.751   8.585   2.454  0.2470  0.1435 -0.1563
  873MOL0     C17765   7.616   8.327   2.110 -0.2093  0.2342  0.2299
  873MOL0     C17766   7.490   8.313   2.047 -0.0188 -0.0472  0.4880
  873MOL0     O17767   7.444   8.539   1.748  0.1957 -0.3092  0.5684
  873MOL0     C17768   7.198   8.568   1.601  0.5855 -0.9569 -0.0285
  873MOL0     C17769   7.069   8.595   1.553  0.1735  0.3111 -0.0007
  873MOL0     N17770   6.418   8.711   1.604  0.4677 -0.2826  0.1732
  873MOL0     N17771   6.307   8.733   1.660 -0.3560 -0.2308 -0.7428
  873MOL0     C17772   5.543   7.967   1.626 -0.0586 -0.1694  0.0255
  873MOL0     C17773   5.622   7.857   1.665 -0.2932 -0.5135  0.5113
  873MOL0     C17774   5.976   7.576   1.768 -0.2873 -0.0593  0.1149
  873MOL0     C17775   6.092   7.647   1.752 -0.2057  0.1049  0.0767
  873MOL0     C17776   6.221   7.584   1.774  0.9474  0.3552 -0.2820
  873MOL0     C17777   6.224   7.452   1.818  1.2729 -0.4977 -0.9813
  873MOL0     O17778   6.345   7.407   1.852  0.2326  0.0967 -0.4693
  873MOL0     C17779   6.345   7.318   1.960 -0.2976 -0.2474  0.0501
  873MOL0     C17780   6.489   7.278   1.995  0.7687 -0.2249  0.6517
  873MOL0     C17781   6.573   7.399   2.047  0.5464 -0.3545  0.0738
  873MOL0     C17782   6.711   7.351   2.089  0.3014 -0.0487 -0.6590
  873MOL0     C17783   6.788   7.284   1.991  0.3853 -0.1195 -0.1658
  873MOL0     C17784   6.853   7.219   1.908 -0.0922 -0.1021 -0.2493
  873MOL0     C17785   6.107   7.390   1.841  0.0827 -0.5601 -0.5608
  873MOL0     C17786   5.984   7.443   1.811  0.2377  0.5509  0.0295
  873MOL0     C17787   5.859   7.354   1.828 -0.6802  0.3009  0.1083
  873MOL0     H17788   5.920   7.961   1.528  0.2423 -0.6533 -1.4539
  873MOL0     H17789   5.789   8.148   1.463 -0.2663 -0.8740 -1.0510
  873MOL0     H17790   5.394   8.327   1.577  0.8516 -0.7905  0.4716
  873MOL0     H17791   5.401   8.189   1.687 -0.2877  0.9206  0.0193
  873MOL0     H17792   5.633   8.259   1.758 -2.2155 -0.5992  3.9333
  873MOL0     H17793   5.514   8.387   1.799  0.8909  0.2823  1.1707
  873MOL0     H17794   5.550   8.518   1.601 -0.9643 -3.0692 -3.7298
  873MOL0     H17795   5.672   8.426   1.534  0.3845 -0.2786  0.2989
  873MOL0     H17796   5.714   8.514   1.816 -0.6127  1.3846  0.4604
  873MOL0     H17797   5.840   8.464   1.704  0.8264  2.5706 -3.0674
  873MOL0     H17798   5.779   8.666   1.558 -0.5078 -2.3337 -0.2648
  873MOL0     H17799   5.673   8.710   1.687  0.8087  1.3644  0.3883
  873MOL0     H17800   5.858   8.828   1.715 -1.7088  0.1826 -0.3818
  873MOL0     H17801   5.826   8.713   1.848 -2.8048 -1.8830 -1.0757
  873MOL0     H17802   6.026   8.574   1.764  2.0360 -1.0467 -2.2047
  873MOL0     H17803   6.071   8.737   1.809  0.6667 -0.8412 -0.3954
  873MOL0     H17804   6.013   8.630   1.526 -1.5207 -0.5856  0.6737
  873MOL0     H17805   6.070   8.799   1.558  0.4987 -1.1479  0.7268
  873MOL0     H17806   6.221   8.531   1.427 -1.0693  1.3708  0.1383
  873MOL0     H17807   6.494   8.503   1.346 -2.2923  1.3615  0.2214
  873MOL0     H17808   6.600   8.617   1.416  0.4422 -1.0665 -0.6397
  873MOL0     H17809   6.520   8.344   1.541  0.5461 -0.3907  0.9361
  873MOL0     H17810   6.685   8.399   1.501  1.4744  2.6867  0.9214
  873MOL0     H17811   6.678   8.398   1.733  0.5467 -1.1459 -1.0078
  873MOL0     H17812   6.532   8.500   1.737  0.9079 -2.2768  2.4522
  873MOL0     H17813   6.753   8.617   1.782 -0.9186 -2.6643 -0.1942
  873MOL0     H17814   6.643   8.689   1.666  0.0107  0.4291 -0.2488
  873MOL0     H17815   6.899   8.450   1.811  2.0138 -2.0948 -0.3579
  873MOL0     H17816   7.131   8.394   1.879  1.5057 -2.3374 -2.5584
  873MOL0     H17817   7.619   8.318   1.728  0.3425 -2.4121  1.3522
  873MOL0     H17818   7.817   8.346   1.850 -0.7354  2.8279  0.1190
  873MOL0     H17819   7.996   8.220   2.151  2.0039 -0.0322 -1.3490
  873MOL0     H17820   7.955   8.261   1.987 -0.0409 -1.1542  1.1252
  873MOL0     H17821   8.172   8.363   2.016 -0.0315 -1.2447 -0.0381
  873MOL0     H17822   8.062   8.501   2.045 -1.1494 -0.8544  0.8292
  873MOL0     H17823   8.057   8.456   2.277 -0.1614 -1.4638 -1.0451
  873MOL0     H17824   8.180   8.323   2.260  1.9273  0.6772  1.7011
  873MOL0     H17825   8.214   8.630   2.217 -0.5303 -0.7838 -1.6444
  873MOL0     H17826   8.334   8.502   2.162  0.6857  0.2138  0.3388
  873MOL0     H17827   8.339   8.404   2.370 -0.6093  0.0257  0.7794
  873MOL0     H17828   8.240   8.534   2.445 -1.8563 -0.9228 -0.2376
  873MOL0     H17829   8.514   8.567   2.308  0.0450 -0.0047 -0.6786
  873MOL0     H17830   8.414   8.699   2.378 -1.6553 -0.4353 -1.0434
  873MOL0     H17831   8.475   8.459   2.564 -1.3516 -0.9788 -0.0524
  873MOL0     H17832   8.411   8.619   2.591 -0.7111  0.5395 -1.6894
  873MOL0     H17833   8.603   8.736   2.567 -1.4513 -0.2700 -0.2028
  873MOL0     H17834   8.654   8.594   2.665 -0.6948 -0.0638 -0.1636
  873MOL0     H17835   7.631   8.341   2.217  3.1769  0.4376 -0.1636
  873MOL0     H17836   7.404   8.312   2.114 -1.3742  0.4767 -1.1923
  873MOL0     H17837   7.272   8.595   1.526  0.7649 -2.2115 -0.3216
  873MOL0     H17838   7.054   8.662   1.469  1.3702  0.7231  0.0931
  873MOL0     H17839   5.438   7.965   1.655 -0.4222 -1.7494 -1.2322
  873MOL0     H17840   5.569   7.773   1.709 -2.6710  0.0235 -1.1773
  873MOL0     H17841   6.101   7.752   1.723  1.0956 -0.7804 -3.1119
  873MOL0     H17842   6.317   7.633   1.762 -0.1893  2.8588  0.2698
  873MOL0     H17843   6.290   7.225   1.943  0.2164 -0.1438 -2.4320
  873MOL0     H17844   6.298   7.366   2.047  1.9398 -1.4173  2.0034
  873MOL0     H17845   6.538   7.235   1.907  1.0328  2.0049 -0.3565
  873MOL0     H17846   6.476   7.203   2.074  1.4855 -2.1251 -0.9510
  873MOL0     H17847   6.515   7.449   2.125 -0.3992 -1.1123 -0.1222
  873MOL0     H17848   6.589   7.468   1.964  1.9915 -0.1864  0.4690
  873MOL0     H17849   6.763   7.445   2.112 -1.0539 -0.0022  2.7518
  873MOL0     H17850   6.705   7.297   2.184  0.5133  2.9625  1.1968
  873MOL0     H17851   6.906   7.164   1.833 -2.5830 -3.2690  0.1223
  873MOL0     H17852   6.103   7.287   1.874  0.4416 -0.2502  0.4871
  873MOL0     H17853   5.885   7.251   1.854 -0.0603 -0.3247 -2.7095
  873MOL0     H17854   5.798   7.394   1.910 -2.8345  0.9021 -1.7038
  873MOL0     H17855   5.798   7.350   1.738 -2.9602 -0.5217  1.5893
  874MOL0     O17856   5.837   8.653   4.854 -0.6631 -0.4525 -0.8115
  874MOL0     C17857   5.742   8.629   4.923  0.3407  0.3419 -0.2352
  874MOL0     O17858   5.751   8.596   5.053  0.4220 -0.1946  0.8261
  874MOL0     C17859   5.869   8.613   5.122  0.4581 -0.0351 -1.0061
  874MOL0     C17860   5.938   8.729   5.140  0.4816 -0.4778 -0.0664
  874MOL0     C17861   6.066   8.736   5.200  0.2166 -0.2097  0.5701
  874MOL0     C17862   6.123   8.623   5.250 -0.1458 -0.2071 -0.3904
  874MOL0     O17863   6.248   8.650   5.302  0.2909 -0.0333  0.7454
  874MOL0     C17864   6.303   8.575   5.406  0.2732  0.5344 -0.5402
  874MOL0     C17865   6.219   8.594   5.542 -0.7195 -0.6305  0.4069
  874MOL0     C17866   6.238   8.722   5.617 -0.5966 -0.4213  0.0020
  874MOL0     C17867   6.171   8.702   5.762 -0.4100  0.2931  0.6154
  874MOL0     C17868   6.085   8.817   5.810  0.9944 -0.1347  0.1522
  874MOL0     C17869   6.164   8.955   5.772  0.7878 -0.0206 -0.8801
  874MOL0     C17870   6.107   9.081   5.838  0.6597  0.5196  0.2810
  874MOL0     C17871   6.131   9.092   5.991  0.3429 -0.1260 -0.3949
  874MOL0     N17872   6.086   9.227   6.026  0.5836  0.6894 -0.1682
  874MOL0     C17873   6.166   9.341   6.027  0.2053 -0.7769 -0.5024
  874MOL0     C17874   6.084   9.431   6.087 -0.0803 -0.4928 -0.2237
  874MOL0     C17875   6.111   9.577   6.123 -0.4327 -0.2325  0.5265
  874MOL0     C17876   6.130   9.659   5.995 -0.1172  0.0416 -0.0986
  874MOL0     C17877   6.121   9.805   6.023  0.5732  0.0127  0.2530
  874MOL0     C17878   6.113   9.884   5.893  0.0878  0.1129 -0.6528
  874MOL0     O17879   6.133  10.031   5.917 -0.0882 -0.1670 -0.0368
  874MOL0     C17880   6.262  10.080   5.943 -0.2142  0.0368  0.1887
  874MOL0     C17881   6.275  10.222   5.963 -0.2006  0.1945 -0.3626
  874MOL0     C17882   6.392  10.281   6.018 -0.9452 -0.0478  0.1935
  874MOL0     C17883   6.509  10.196   6.032  0.5647  0.3361  0.1036
  874MOL0     C17884   6.634  10.265   6.072 -0.7043  0.3739 -0.1546
  874MOL0     O17885   6.749  10.222   6.011  0.5124 -0.1035 -1.1407
  874MOL0     C17886   6.865  10.293   6.031  0.3946  0.9548 -0.4726
  874MOL0     C17887   6.944  10.250   6.137  1.1130  0.3139 -0.7220
  874MOL0     C17888   7.065  10.318   6.166  0.0951  0.8772 -0.1482
  874MOL0     C17889   7.106  10.425   6.094  0.1794  0.6151  0.4571
  874MOL0     O17890   7.222  10.481   6.128 -0.3346  0.0141 -0.5092
  874MOL0     C17891   7.300  10.556   6.041 -0.7853  0.2274  0.4234
  874MOL0     C17892   7.394  10.647   6.115  0.2375 -1.2135 -0.3763
  874MOL0     C17893   7.515  10.683   6.032  0.1320 -0.1992 -0.5967
  874MOL0     C17894   7.602  10.786   6.102 -1.0374 -0.2326  0.2920
  874MOL0     C17895   7.705  10.835   5.995  0.2978  0.2963  0.6095
  874MOL0     C17896   7.777  10.970   6.026  0.0691  0.5020 -0.5469
  874MOL0     C17897   7.818  10.998   6.164  0.4148  0.3257 -0.4088
  874MOL0     C17898   7.922  11.117   6.167  0.3226  0.8849 -0.5831
  874MOL0    Cl17899   8.071  11.072   6.087  0.4326  0.3982  0.4442
  874MOL0     C17900   7.040  10.452   5.976  1.3478  0.1371  0.1966
  874MOL0     C17901   6.914  10.392   5.947 -0.0694 -0.6292  1.1519
  874MOL0     O17902   6.632  10.359   6.149  0.0418 -0.1255 -0.2402
  874MOL0     C17903   6.503  10.057   5.992 -0.3800  0.0509  0.5858
  874MOL0     C17904   6.377  10.002   5.954 -0.3387  1.1768 -0.5180
  874MOL0     N17905   5.967   9.374   6.116  0.6245  0.0861 -0.2063
  874MOL0     N17906   5.970   9.243   6.085 -0.3838 -1.3204 -0.1063
  874MOL0     C17907   6.054   8.498   5.243 -0.2931  0.2109  0.1046
  874MOL0     C17908   5.931   8.496   5.173  0.7448  0.8236  0.7498
  874MOL0     C17909   5.603   8.641   4.873 -0.7800 -0.3343  0.9285
  874MOL0     C17910   5.494   8.589   4.948 -1.1560 -0.4642 -0.0791
  874MOL0     C17911   5.366   8.592   4.906  0.7667  0.6890  0.4026
  874MOL0     C17912   5.337   8.635   4.773  0.8119  0.7313 -0.2206
  874MOL0     O17913   5.208   8.641   4.724  0.7218  0.5635  0.9981
  874MOL0     C17914   5.101   8.588   4.799  0.1122  0.3278  0.3777
  874MOL0     C17915   4.973   8.592   4.715 -0.1068 -0.4450 -0.3045
  874MOL0     C17916   4.945   8.746   4.690 -0.6495 -0.5033 -0.5385
  874MOL0     C17917   4.818   8.777   4.627  0.4545  0.5335 -0.0172
  874MOL0     C17918   4.701   8.701   4.680 -0.9275 -0.5626 -0.3882
  874MOL0     C17919   4.615   8.629   4.721  0.8080 -0.9017  0.9199
  874MOL0     C17920   5.440   8.683   4.698 -0.9523  0.0109 -0.3055
  874MOL0     C17921   5.576   8.698   4.744 -0.7367  0.6849 -0.9394
  874MOL0     C17922   5.671   8.764   4.658  0.4210  0.3157 -0.2199
  874MOL0     H17923   5.891   8.815   5.094  0.9918 -0.1734 -0.0247
  874MOL0     H17924   6.113   8.832   5.223  0.5748  0.2734 -1.9309
  874MOL0     H17925   6.311   8.472   5.373  4.0089  0.4332  0.2102
  874MOL0     H17926   6.408   8.602   5.421  0.7974 -1.1525 -1.0558
  874MOL0     H17927   6.272   8.513   5.593  4.9430  0.7952 -2.3193
  874MOL0     H17928   6.117   8.558   5.532 -0.5422 -1.0222 -0.0530
  874MOL0     H17929   6.196   8.809   5.565  0.8506  0.3690  0.0956
  874MOL0     H17930   6.345   8.726   5.642 -0.2294  1.5256 -1.6200
  874MOL0     H17931   6.096   8.622   5.767 -2.8997  2.2804 -1.6350
  874MOL0     H17932   6.251   8.673   5.830  1.1113 -1.6634 -1.8347
  874MOL0     H17933   5.985   8.817   5.767  0.5139 -1.6132  1.2013
  874MOL0     H17934   6.071   8.806   5.918  0.2837 -0.4942  0.0289
  874MOL0     H17935   6.272   8.951   5.783  0.8747  1.0894 -1.2044
  874MOL0     H17936   6.132   8.962   5.667 -3.3709 -3.1389 -0.1006
  874MOL0     H17937   6.001   9.093   5.814  0.3489  2.3261  2.2245
  874MOL0     H17938   6.157   9.166   5.790 -0.9267  0.0219 -2.4505
  874MOL0     H17939   6.080   9.018   6.054  3.3215  0.4090  3.0268
  874MOL0     H17940   6.236   9.072   6.015  0.7464  0.1581 -1.8289
  874MOL0     H17941   6.265   9.363   5.990  0.4058 -1.2553 -0.2568
  874MOL0     H17942   6.035   9.626   6.185  1.0378  1.1433  1.3240
  874MOL0     H17943   6.202   9.594   6.181 -0.7008  0.6217  0.7002
  874MOL0     H17944   6.220   9.632   5.940  0.2428  2.5043 -0.8619
  874MOL0     H17945   6.048   9.643   5.925 -0.7597  2.5369 -0.0325
  874MOL0     H17946   6.199   9.846   6.088 -0.6454  3.4097 -0.2078
  874MOL0     H17947   6.026   9.832   6.070  0.0337 -2.5886  0.8206
  874MOL0     H17948   6.020   9.874   5.836 -0.3400 -1.3104  0.2197
  874MOL0     H17949   6.184   9.841   5.822  0.7240  2.6696 -1.6489
  874MOL0     H17950   6.194  10.293   5.951 -0.0491  0.4533  0.1144
  874MOL0     H17951   6.399  10.383   6.055  1.4506  0.0109 -0.2550
  874MOL0     H17952   6.921  10.170   6.206 -1.6459  1.6238  0.0341
  874MOL0     H17953   7.130  10.292   6.249 -0.2982  0.1803 -0.0534
  874MOL0     H17954   7.351  10.475   5.988 -4.6383 -1.3406 -1.2444
  874MOL0     H17955   7.241  10.620   5.974 -0.6192  1.8123  1.7403
  874MOL0     H17956   7.336  10.738   6.128  0.8123 -0.9635  0.5168
  874MOL0     H17957   7.430  10.602   6.208 -1.8635  1.4319  1.8753
  874MOL0     H17958   7.566  10.589   6.009 -2.6947 -1.7394 -1.1087
  874MOL0     H17959   7.475  10.726   5.939 -0.4462  0.4717 -0.0481
  874MOL0     H17960   7.667  10.743   6.179  0.9222  2.9831  0.5791
  874MOL0     H17961   7.544  10.873   6.134  0.7412  1.0873  0.0784
  874MOL0     H17962   7.652  10.850   5.900  0.7397 -2.0038 -0.0643
  874MOL0     H17963   7.779  10.755   5.985  1.5583  1.2448  1.8820
  874MOL0     H17964   7.864  10.977   5.960  1.9742  1.3068  1.8865
  874MOL0     H17965   7.705  11.048   5.999 -0.0958  0.5714  0.0754
  874MOL0     H17966   7.854  10.912   6.221  2.0408  2.3985  1.9079
  874MOL0     H17967   7.725  11.037   6.207 -0.3998  1.3576 -2.9223
  874MOL0     H17968   7.879  11.197   6.105  2.2466  3.3042  1.0350
  874MOL0     H17969   7.933  11.156   6.268  2.0795 -0.2392 -0.3111
  874MOL0     H17970   7.064  10.532   5.908 -2.4461  0.0199 -1.4974
  874MOL0     H17971   6.861  10.411   5.854  1.9243 -3.3695 -0.7029
  874MOL0     H17972   6.591   9.994   5.986  0.2831  1.0881 -3.1231
  874MOL0     H17973   6.359   9.896   5.947 -2.5878  1.4782  0.0284
  874MOL0     H17974   6.093   8.403   5.278 -1.8916 -0.0607  1.2547
  874MOL0     H17975   5.886   8.400   5.152 -1.2947  1.8214  0.3204
  874MOL0     H17976   5.502   8.570   5.054 -1.6428 -0.2922 -0.0067
  874MOL0     H17977   5.285   8.564   4.972 -1.1078  3.5106 -0.5559
  874MOL0     H17978   5.094   8.653   4.888 -2.9774  1.5725 -0.6377
  874MOL0     H17979   5.116   8.487   4.837 -1.0199  1.0010  2.8649
  874MOL0     H17980   4.888   8.536   4.756 -1.0803 -3.1530 -5.2964
  874MOL0     H17981   4.994   8.552   4.616  0.3240 -0.5827 -0.1574
  874MOL0     H17982   5.017   8.782   4.616 -0.9936 -1.5068 -1.3822
  874MOL0     H17983   4.959   8.808   4.779  0.6068  1.1167 -1.8157
  874MOL0     H17984   4.790   8.883   4.632  1.4515  0.8883 -1.3885
  874MOL0     H17985   4.832   8.757   4.521  3.0087  1.2710  0.1149
  874MOL0     H17986   4.544   8.556   4.753 -1.1477  0.3971 -0.2575
  874MOL0     H17987   5.425   8.733   4.602  0.3187  0.6957 -0.1618
  874MOL0     H17988   5.710   8.853   4.709  0.4870  0.7508 -1.0052
  874MOL0     H17989   5.743   8.690   4.623  0.2134  0.0347 -0.0509
  874MOL0     H17990   5.619   8.816   4.577 -4.2205 -2.5367  0.5738
  875MOL0     O17991   7.465   4.516   4.741  0.6511  0.4164 -1.0086
  875MOL0     C17992   7.393   4.442   4.669  0.0929 -0.5774 -0.2283
  875MOL0     O17993   7.422   4.320   4.630  0.2680  0.6728  0.8261
  875MOL0     C17994   7.550   4.286   4.658  0.3631 -0.7378  0.1846
  875MOL0     C17995   7.578   4.223   4.783  0.5076 -0.6222  0.4229
  875MOL0     C17996   7.706   4.175   4.822 -0.3494  0.3376 -0.4273
  875MOL0     C17997   7.809   4.181   4.729 -0.0377 -0.3648 -0.1210
  875MOL0     O17998   7.937   4.140   4.761 -0.3364  0.3614  0.3898
  875MOL0     C17999   8.050   4.227   4.735  0.4291 -0.1068 -0.0363
  875MOL0     C18000   8.175   4.149   4.730  0.1216 -0.4841 -0.0973
  875MOL0     C18001   8.286   4.252   4.716 -0.6951 -0.6877 -0.5485
  875MOL0     C18002   8.410   4.187   4.776  0.8045  0.4018 -0.3151
  875MOL0     C18003   8.526   4.277   4.799  0.2549  0.1737  0.2874
  875MOL0     C18004   8.651   4.197   4.844 -0.5033 -0.7434 -0.4515
  875MOL0     C18005   8.757   4.286   4.921 -0.3294 -0.0811 -0.1729
  875MOL0     C18006   8.828   4.381   4.822 -0.0908  0.3349 -0.0127
  875MOL0     N18007   8.956   4.435   4.880 -0.2365  0.5087  0.5346
  875MOL0     C18008   8.976   4.511   4.986 -0.3076  0.9165 -0.1590
  875MOL0     C18009   9.108   4.522   5.014  0.4429 -0.3042 -0.2665
  875MOL0     C18010   9.158   4.598   5.135 -0.1143  0.7240 -0.8046
  875MOL0     C18011   9.279   4.688   5.095 -0.0986 -0.2205  0.3730
  875MOL0     C18012   9.415   4.611   5.079  0.3325 -0.1573 -0.0370
  875MOL0     C18013   9.525   4.708   5.044  0.5053  0.8022  0.7754
  875MOL0     O18014   9.644   4.646   5.086  0.0212 -0.1240 -0.1420
  875MOL0     C18015   9.756   4.721   5.122  0.5278 -0.0213  0.3225
  875MOL0     C18016   9.775   4.858   5.089  0.0263  0.0108 -0.4512
  875MOL0     C18017   9.904   4.908   5.114 -0.5117 -0.7460 -0.6518
  875MOL0     C18018  10.010   4.838   5.185  0.7825  0.3444  0.5997
  875MOL0     C18019  10.153   4.880   5.191  0.3160 -0.7755 -0.7342
  875MOL0     O18020  10.238   4.796   5.265 -0.1035  0.5445 -0.8018
  875MOL0     C18021  10.376   4.811   5.259  0.1563 -0.4184  0.5382
  875MOL0     C18022  10.461   4.917   5.219 -0.5801  0.1925 -0.2870
  875MOL0     C18023  10.597   4.905   5.191  0.1759 -0.1726  0.5912
  875MOL0     C18024  10.660   4.789   5.229 -0.0174  0.1587  0.2344
  875MOL0     O18025  10.794   4.792   5.200 -0.3732  0.2451  0.1519
  875MOL0     C18026  10.862   4.669   5.227  0.0854 -0.0416 -0.3590
  875MOL0     C18027  11.009   4.677   5.176  0.5097  0.2127 -0.6921
  875MOL0     C18028  11.101   4.558   5.228 -0.4545  0.1410  0.0843
  875MOL0     C18029  11.250   4.593   5.194  0.4317  0.4809  0.8379
  875MOL0     C18030  11.352   4.539   5.289 -0.6970 -0.0199 -0.5093
  875MOL0     C18031  11.495   4.580   5.239  0.7357 -0.1114 -0.9640
  875MOL0     C18032  11.587   4.550   5.352 -0.4113  0.8745  0.0768
  875MOL0     C18033  11.737   4.570   5.320 -0.3144  0.2633  0.5088
  875MOL0    Cl18034  11.784   4.740   5.320 -0.1038 -0.2520  0.1365
  875MOL0     C18035  10.575   4.686   5.282 -0.9062  0.5982  0.2552
  875MOL0     C18036  10.441   4.698   5.307  0.1596  0.3015  1.3001
  875MOL0     O18037  10.182   4.987   5.143 -0.8681 -0.1035 -0.5046
  875MOL0     C18038   9.980   4.703   5.210 -0.9629 -0.0235 -1.0104
  875MOL0     C18039   9.862   4.644   5.178 -0.0142 -0.2339 -0.0996
  875MOL0     N18040   9.174   4.441   4.923  0.3190 -0.4233 -0.4718
  875MOL0     N18041   9.078   4.385   4.858  0.8183 -0.0529 -0.2381
  875MOL0     C18042   7.781   4.236   4.602 -0.0606 -0.2472 -0.6457
  875MOL0     C18043   7.655   4.282   4.563 -0.8078  0.1674  0.1266
  875MOL0     C18044   7.270   4.497   4.619 -0.1745  0.1158 -0.6694
  875MOL0     C18045   7.189   4.565   4.716  1.1330 -0.5846  0.6822
  875MOL0     C18046   7.059   4.609   4.675 -0.3851  0.2671 -0.4062
  875MOL0     C18047   7.009   4.580   4.546 -0.2858  0.6355 -0.0587
  875MOL0     O18048   6.881   4.598   4.509 -0.2476 -0.2791  0.1408
  875MOL0     C18049   6.785   4.635   4.605 -0.1319  0.4200 -0.3889
  875MOL0     C18050   6.651   4.617   4.537 -0.3849  0.3259  0.8604
  875MOL0     C18051   6.538   4.664   4.632 -0.1792  1.1123 -0.2499
  875MOL0     C18052   6.411   4.653   4.553 -0.6082 -0.8658 -0.4956
  875MOL0     C18053   6.388   4.521   4.501 -0.7805  0.4266 -0.1884
  875MOL0     C18054   6.357   4.413   4.457  0.3877 -0.6518 -0.1413
  875MOL0     C18055   7.093   4.510   4.459  0.6983 -0.4171  0.5975
  875MOL0     C18056   7.230   4.473   4.489 -0.5687 -0.3782 -0.3885
  875MOL0     C18057   7.312   4.407   4.374 -0.3705 -0.1770  0.8338
  875MOL0     H18058   7.495   4.245   4.850  0.1075 -0.1053 -0.2355
  875MOL0     H18059   7.729   4.125   4.915  2.6039  2.4315  0.1287
  875MOL0     H18060   8.040   4.283   4.641 -0.4594 -0.3396 -0.0843
  875MOL0     H18061   8.052   4.302   4.814  4.7716  0.9296 -0.8530
  875MOL0     H18062   8.168   4.080   4.646 -2.3249 -0.8350  0.3372
  875MOL0     H18063   8.175   4.082   4.816  2.5939 -1.7642 -0.9971
  875MOL0     H18064   8.268   4.340   4.779 -1.4227 -0.7233 -0.7012
  875MOL0     H18065   8.318   4.284   4.616  0.4225 -1.0014 -0.3054
  875MOL0     H18066   8.379   4.141   4.870  0.7038 -1.8123 -1.3575
  875MOL0     H18067   8.444   4.106   4.711  4.5896  1.8668 -0.4311
  875MOL0     H18068   8.556   4.332   4.709  3.1474 -2.0556 -0.2475
  875MOL0     H18069   8.485   4.343   4.876 -2.9229 -1.3345  0.0685
  875MOL0     H18070   8.628   4.115   4.912 -1.4393 -1.3853 -1.5025
  875MOL0     H18071   8.688   4.147   4.754  1.8306  0.4541 -0.2376
  875MOL0     H18072   8.835   4.223   4.966  0.1887  0.4136 -0.3658
  875MOL0     H18073   8.703   4.345   4.995 -1.3524 -0.5546 -0.5235
  875MOL0     H18074   8.852   4.322   4.733  0.1148 -0.2102  0.4057
  875MOL0     H18075   8.760   4.465   4.803 -0.6104 -0.1693 -0.4219
  875MOL0     H18076   8.895   4.551   5.046  0.5374  1.1736  0.8449
  875MOL0     H18077   9.077   4.656   5.180  1.0019  3.1959 -1.8120
  875MOL0     H18078   9.191   4.520   5.205 -0.9083  0.5736 -0.5906
  875MOL0     H18079   9.272   4.739   4.998  5.0461  1.2091  0.4602
  875MOL0     H18080   9.292   4.767   5.170 -0.0443  0.0364  0.0979
  875MOL0     H18081   9.417   4.540   4.995  1.1180 -0.0686 -0.1040
  875MOL0     H18082   9.437   4.553   5.169  1.2903  0.1429 -0.0579
  875MOL0     H18083   9.512   4.804   5.094 -1.5583 -0.0412  1.9990
  875MOL0     H18084   9.534   4.736   4.938  0.9312  2.7738  1.3032
  875MOL0     H18085   9.696   4.915   5.041 -1.9086 -1.6682  0.5780
  875MOL0     H18086   9.923   5.012   5.091  1.0342 -1.1823 -1.4388
  875MOL0     H18087  10.409   5.006   5.185  0.5658  0.4084 -1.5364
  875MOL0     H18088  10.643   4.996   5.155 -0.5810  1.4743  3.4560
  875MOL0     H18089  10.868   4.657   5.336 -0.6505 -2.2129 -0.5015
  875MOL0     H18090  10.802   4.584   5.192 -0.7517 -0.3477  1.6626
  875MOL0     H18091  10.999   4.668   5.067 -2.4774  2.2876 -0.7010
  875MOL0     H18092  11.045   4.777   5.201 -2.5725  1.0854  0.8027
  875MOL0     H18093  11.084   4.526   5.331  3.2172  0.4680  0.9386
  875MOL0     H18094  11.079   4.469   5.169  0.3696 -0.1169  0.1428
  875MOL0     H18095  11.264   4.702   5.191  2.1333  0.2802 -1.2048
  875MOL0     H18096  11.274   4.543   5.100 -2.5615  1.5573 -0.5901
  875MOL0     H18097  11.343   4.433   5.311  2.8304 -0.7027 -1.7518
  875MOL0     H18098  11.334   4.594   5.382  3.8568  1.1994 -0.1135
  875MOL0     H18099  11.514   4.524   5.147  0.5470  0.0354 -1.0927
  875MOL0     H18100  11.502   4.685   5.211  0.6914  0.6110  1.4941
  875MOL0     H18101  11.570   4.446   5.377 -2.7385  1.0826 -0.3854
  875MOL0     H18102  11.565   4.605   5.444 -0.0982  2.4203 -0.7201
  875MOL0     H18103  11.777   4.519   5.408 -3.2613  0.1906  1.9676
  875MOL0     H18104  11.767   4.525   5.225  0.9219  1.7230  0.1689
  875MOL0     H18105  10.623   4.593   5.313 -0.4688  0.1265 -1.6508
  875MOL0     H18106  10.382   4.616   5.345 -1.9614  1.1104 -0.0638
  875MOL0     H18107  10.054   4.633   5.247  1.7663  2.1324 -2.0407
  875MOL0     H18108   9.839   4.542   5.206  0.9281  0.1182  2.1772
  875MOL0     H18109   7.863   4.244   4.531  1.7693  3.1045  1.5700
  875MOL0     H18110   7.635   4.312   4.461  0.2951  1.9210  0.3804
  875MOL0     H18111   7.222   4.580   4.818  0.3917 -0.8364  0.9614
  875MOL0     H18112   7.008   4.673   4.747 -1.1146  0.1898 -0.8487
  875MOL0     H18113   6.799   4.740   4.634  2.6948  0.2750 -0.9026
  875MOL0     H18114   6.795   4.569   4.692 -3.5625  1.1072  0.6495
  875MOL0     H18115   6.638   4.509   4.520 -0.5625  0.4893 -0.0881
  875MOL0     H18116   6.645   4.665   4.439 -1.3573  3.3554  2.2740
  875MOL0     H18117   6.546   4.765   4.673 -0.8058  1.0561  0.0315
  875MOL0     H18118   6.531   4.595   4.717 -1.1005  0.2553 -1.0011
  875MOL0     H18119   6.332   4.671   4.628  0.3370 -1.6274  0.7238
  875MOL0     H18120   6.420   4.724   4.470 -0.2238 -1.0794 -0.6365
  875MOL0     H18121   6.324   4.321   4.414 -0.4948 -0.1951 -0.4552
  875MOL0     H18122   7.048   4.481   4.365  4.4484 -0.7259 -1.2643
  875MOL0     H18123   7.412   4.452   4.371  0.0009 -1.0271 -0.0835
  875MOL0     H18124   7.324   4.299   4.372  0.0849 -0.1451 -1.0185
  875MOL0     H18125   7.277   4.441   4.276  0.3025 -3.2081 -0.5625
  876MOL0     O18126   7.077   8.518   1.147  0.3528 -0.6994  0.2099
  876MOL0     C18127   7.073   8.418   1.080 -0.3150 -1.0066 -0.5194
  876MOL0     O18128   7.190   8.343   1.062 -0.0769 -0.2891 -0.2300
  876MOL0     C18129   7.304   8.368   1.138  0.2076 -0.0046  0.6453
  876MOL0     C18130   7.310   8.386   1.278  0.5266 -0.6689  0.2408
  876MOL0     C18131   7.436   8.399   1.342  0.0765  0.2083  0.8336
  876MOL0     C18132   7.556   8.400   1.270  0.2626 -0.1015  0.2885
  876MOL0     O18133   7.676   8.399   1.326  0.3822 -0.1818 -0.7505
  876MOL0     C18134   7.698   8.405   1.466 -0.0120 -0.2320 -0.2444
  876MOL0     C18135   7.839   8.379   1.514  0.5118  0.6341  0.3940
  876MOL0     C18136   7.942   8.485   1.465  0.9579  0.5187 -0.3944
  876MOL0     C18137   8.078   8.434   1.493 -0.8314 -0.1844  0.1673
  876MOL0     C18138   8.168   8.546   1.446  0.1733 -0.2471  0.0252
  876MOL0     C18139   8.306   8.484   1.437  0.5871 -0.3318 -0.0094
  876MOL0     C18140   8.409   8.587   1.398 -0.9891  0.8617  0.0642
  876MOL0     C18141   8.418   8.602   1.245 -0.1196 -0.0346  0.6585
  876MOL0     N18142   8.543   8.671   1.199  0.4438  0.5853  0.5579
  876MOL0     C18143   8.574   8.802   1.215 -0.0878 -0.0224  0.1478
  876MOL0     C18144   8.667   8.840   1.125  0.1845  0.0300  0.3385
  876MOL0     C18145   8.702   8.984   1.086 -0.7268  0.1660  0.5689
  876MOL0     C18146   8.789   9.045   1.197 -0.4280  0.1867  0.3249
  876MOL0     C18147   8.869   9.154   1.140  0.8297  0.2118 -0.1669
  876MOL0     C18148   8.997   9.089   1.093  0.2616  0.2557 -0.5224
  876MOL0     O18149   9.072   9.194   1.046 -0.7264 -0.1367  0.1174
  876MOL0     C18150   9.062   9.256   0.921  0.0753  0.3982 -0.3355
  876MOL0     C18151   9.136   9.375   0.900  0.3964 -1.0207 -0.5001
  876MOL0     C18152   9.129   9.437   0.772  0.0048 -0.4235 -0.2135
  876MOL0     C18153   9.075   9.367   0.663  0.6619  0.2366  0.7044
  876MOL0     C18154   9.080   9.436   0.533  0.5308  0.3159 -0.0489
  876MOL0     O18155   9.115   9.352   0.431 -0.3424  0.1243  0.2446
  876MOL0     C18156   9.108   9.401   0.305  0.6227  0.7245 -0.5053
  876MOL0     C18157   9.225   9.435   0.242  0.2017 -0.7572  0.3274
  876MOL0     C18158   9.223   9.478   0.113  0.3264  0.3130  0.1171
  876MOL0     C18159   9.111   9.478   0.039 -0.5398 -0.3297 -0.5684
  876MOL0     O18160   9.124   9.536  -0.083  0.1343 -0.9185 -0.0282
  876MOL0     C18161   9.051   9.669  -0.085 -0.1894  0.0236 -0.7021
  876MOL0     C18162   9.132   9.783  -0.163 -0.1581 -0.2904  0.2601
  876MOL0     C18163   9.270   9.779  -0.127 -0.5443  0.7531 -0.4386
  876MOL0     C18164   9.359   9.898  -0.170  0.4794  0.7885 -0.7240
  876MOL0     C18165   9.500   9.885  -0.125 -0.0723 -0.1368  0.8346
  876MOL0     C18166   9.563  10.010  -0.180  0.0420 -0.1549  0.1673
  876MOL0     C18167   9.711  10.025  -0.132 -0.3320  1.0211  0.5077
  876MOL0     C18168   9.769  10.155  -0.167  0.0050 -1.2917 -0.2472
  876MOL0    Cl18169   9.742  10.262  -0.043  0.1317 -0.2320 -0.5478
  876MOL0     C18170   8.993   9.435   0.101  0.0988  0.1761  0.2713
  876MOL0     C18171   8.990   9.399   0.234  0.7773 -0.0379  0.3431
  876MOL0     O18172   9.069   9.554   0.523  0.0294 -0.7258 -0.6143
  876MOL0     C18173   9.000   9.247   0.681 -0.1416  0.7827 -0.4893
  876MOL0     C18174   9.004   9.192   0.804  0.5227  0.2545 -0.2622
  876MOL0     N18175   8.699   8.722   1.059  0.3321  0.6560  0.6681
  876MOL0     N18176   8.623   8.623   1.096 -0.1931  0.6780 -0.4374
  876MOL0     C18177   7.544   8.384   1.132 -0.6817 -0.4622 -0.5599
  876MOL0     C18178   7.427   8.367   1.065 -0.1147 -0.6662  0.0465
  876MOL0     C18179   6.944   8.370   1.026  0.4213 -0.0126  0.1618
  876MOL0     C18180   6.935   8.227   0.994  0.7575  0.3377  0.1727
  876MOL0     C18181   6.830   8.181   0.915  0.7003 -0.1016 -0.2874
  876MOL0     C18182   6.722   8.259   0.892  0.2264  0.0085  0.4559
  876MOL0     O18183   6.619   8.228   0.809  0.3795  0.2299  0.3790
  876MOL0     C18184   6.608   8.104   0.738 -1.5503 -0.1598  0.0508
  876MOL0     C18185   6.505   8.114   0.628 -0.3467  1.2718 -1.0678
  876MOL0     C18186   6.526   8.251   0.554  0.0652  0.0050 -0.8639
  876MOL0     C18187   6.456   8.258   0.424  0.4679 -0.3422 -0.2533
  876MOL0     C18188   6.321   8.186   0.422 -0.6628  0.1855  0.6190
  876MOL0     C18189   6.214   8.131   0.408 -0.8347  0.3160 -0.0491
  876MOL0     C18190   6.716   8.392   0.942 -0.0863  0.1673  0.2238
  876MOL0     C18191   6.830   8.452   1.009  0.5715  0.5761 -0.6216
  876MOL0     C18192   6.821   8.593   1.055 -0.7342  0.4182 -0.4494
  876MOL0     H18193   7.220   8.372   1.335  1.1372 -1.4673  1.0312
  876MOL0     H18194   7.429   8.400   1.450  0.0068 -2.8673  0.9566
  876MOL0     H18195   7.661   8.501   1.503  0.2633  0.9000 -2.6648
  876MOL0     H18196   7.638   8.325   1.509 -1.4376  1.5134  1.1293
  876MOL0     H18197   7.858   8.281   1.469 -1.8004  0.3999 -0.2067
  876MOL0     H18198   7.851   8.367   1.622 -2.1350  0.4441  0.7299
  876MOL0     H18199   7.918   8.575   1.524  2.5625  0.7232 -0.0206
  876MOL0     H18200   7.931   8.515   1.360 -1.3962 -0.5031 -0.4988
  876MOL0     H18201   8.090   8.406   1.598  1.3194  0.7052  0.1974
  876MOL0     H18202   8.101   8.344   1.434 -0.1837  1.6307 -2.5111
  876MOL0     H18203   8.138   8.581   1.347  0.7197  1.4568  0.4321
  876MOL0     H18204   8.163   8.630   1.516 -2.1359 -1.5865  1.6171
  876MOL0     H18205   8.333   8.449   1.537  1.0432 -2.1085 -0.7245
  876MOL0     H18206   8.300   8.397   1.372 -0.8451  0.1887 -0.6177
  876MOL0     H18207   8.506   8.558   1.439 -1.9080 -1.4415  0.7618
  876MOL0     H18208   8.384   8.689   1.428 -0.5643  2.6504 -4.7655
  876MOL0     H18209   8.411   8.502   1.201  1.7307 -0.6869  1.7344
  876MOL0     H18210   8.334   8.666   1.218  0.5867  0.4716 -0.4163
  876MOL0     H18211   8.527   8.880   1.275 -1.9922 -0.0807 -1.1895
  876MOL0     H18212   8.757   8.988   0.992 -1.7745  2.4612 -0.0197
  876MOL0     H18213   8.613   9.047   1.074 -0.4564  0.2310 -1.3453
  876MOL0     H18214   8.719   9.081   1.273  0.8396  2.0280  0.6883
  876MOL0     H18215   8.850   8.969   1.246  0.3420  1.7978  2.0011
  876MOL0     H18216   8.893   9.237   1.207  3.2379  0.1680 -0.8721
  876MOL0     H18217   8.818   9.216   1.065  4.2492  3.3122 -0.2334
  876MOL0     H18218   8.992   9.009   1.019 -0.7211 -1.5663  1.3910
  876MOL0     H18219   9.039   9.051   1.187 -2.1068  0.9470  0.9089
  876MOL0     H18220   9.164   9.425   0.992 -2.0168 -0.5536  0.0348
  876MOL0     H18221   9.173   9.534   0.751 -0.2990 -0.4772 -1.1529
  876MOL0     H18222   9.316   9.421   0.299 -0.5579 -1.8409  1.3138
  876MOL0     H18223   9.308   9.493   0.048 -0.3146 -1.4340 -1.2057
  876MOL0     H18224   8.951   9.660  -0.129 -0.1743 -0.0222 -0.7265
  876MOL0     H18225   9.031   9.694   0.019 -1.8670 -1.4485 -0.6396
  876MOL0     H18226   9.121   9.768  -0.271  1.2997  0.3974 -0.0076
  876MOL0     H18227   9.076   9.874  -0.137 -1.3971 -1.9668  4.2474
  876MOL0     H18228   9.274   9.788  -0.018  0.4025 -0.1019 -0.3897
  876MOL0     H18229   9.321   9.689  -0.164 -0.4231  0.7331 -0.2282
  876MOL0     H18230   9.316   9.993  -0.136  0.2476  0.5016 -0.2026
  876MOL0     H18231   9.352   9.897  -0.279 -1.0325 -1.7474 -0.6689
  876MOL0     H18232   9.556   9.797  -0.160 -1.3425 -0.3271 -0.8367
  876MOL0     H18233   9.498   9.895  -0.016  1.7287 -0.3464  0.9167
  876MOL0     H18234   9.558  10.010  -0.289  1.1545  1.6010  0.0836
  876MOL0     H18235   9.515  10.098  -0.137 -2.6100 -2.2961  1.9327
  876MOL0     H18236   9.769   9.946  -0.181  0.1156  1.2176  0.7145
  876MOL0     H18237   9.710  10.001  -0.025  2.3283 -0.5994  0.2592
  876MOL0     H18238   9.878  10.146  -0.166  0.5075  2.6323  1.7968
  876MOL0     H18239   9.742  10.185  -0.269 -4.0529 -0.6738  0.8307
  876MOL0     H18240   8.911   9.428   0.031  1.2460 -1.4048 -1.0092
  876MOL0     H18241   8.897   9.369   0.282  1.3344 -1.0325  0.8134
  876MOL0     H18242   8.944   9.213   0.594 -2.1501  0.6583  0.7872
  876MOL0     H18243   8.954   9.097   0.816  1.5064 -0.4488 -1.3993
  876MOL0     H18244   7.636   8.351   1.084 -2.0010 -2.1912 -2.0519
  876MOL0     H18245   7.430   8.348   0.958 -1.8068  4.8117 -1.3357
  876MOL0     H18246   7.030   8.178   1.013  2.7820  3.9090  0.3156
  876MOL0     H18247   6.834   8.075   0.891 -1.6929 -1.0247  2.6330
  876MOL0     H18248   6.590   8.016   0.801 -2.5393 -0.3060 -0.4141
  876MOL0     H18249   6.707   8.081   0.697 -1.2517  1.0817  0.0309
  876MOL0     H18250   6.400   8.101   0.656 -0.1709 -1.6432 -1.5053
  876MOL0     H18251   6.527   8.028   0.564 -0.2614  0.0926  0.4816
  876MOL0     H18252   6.634   8.268   0.540 -0.1488  1.8747 -0.5050
  876MOL0     H18253   6.483   8.337   0.606  1.1221  1.7753 -2.7732
  876MOL0     H18254   6.440   8.365   0.412 -1.8503 -0.7393 -1.2238
  876MOL0     H18255   6.522   8.228   0.342  1.6521  0.7101  0.3024
  876MOL0     H18256   6.118   8.084   0.400 -1.2635  1.0700  0.4890
  876MOL0     H18257   6.627   8.450   0.920  0.6517  1.6138  0.9559
  876MOL0     H18258   6.724   8.639   1.039 -0.1191  1.1927 -2.1573
  876MOL0     H18259   6.843   8.601   1.162  1.1138  2.8011 -0.9020
  876MOL0     H18260   6.890   8.657   0.999 -0.8642  1.1404  0.1988
  877MOL0     O18261   0.087   9.632   4.594 -0.2532 -0.6486  0.6611
  877MOL0     C18262   0.063   9.555   4.682  0.4710  0.3411 -0.2739
  877MOL0     O18263   0.124   9.549   4.811 -0.2386  0.6413  0.0037
  877MOL0     C18264   0.231   9.636   4.848  0.6302  0.1856  0.0798
  877MOL0     C18265   0.299   9.721   4.766  0.4144 -0.4621  0.1579
  877MOL0     C18266   0.402   9.803   4.810 -0.0896 -0.9636 -1.2022
  877MOL0     C18267   0.445   9.796   4.943 -0.4162  0.7421 -0.5747
  877MOL0     O18268   0.554   9.868   4.996 -0.2551  0.0794 -0.0768
  877MOL0     C18269   0.631   9.948   4.906 -0.4138  0.1002  0.9300
  877MOL0     C18270   0.743  10.013   4.977  0.2430  1.0128  1.0565
  877MOL0     C18271   0.856   9.920   5.009 -0.5549  0.6730 -0.1159
  877MOL0     C18272   0.967  10.010   5.048  0.3000 -0.0423  0.3901
  877MOL0     C18273   1.088   9.935   5.080 -0.1474 -0.0196 -0.3544
  877MOL0     C18274   1.181  10.041   5.132 -0.0029  0.9792  0.3810
  877MOL0     C18275   1.323   9.987   5.162  1.1885  0.3436 -1.2019
  877MOL0     C18276   1.426  10.098   5.160  0.0202 -0.0822  0.0658
  877MOL0     N18277   1.555  10.042   5.124  0.4722  1.0607 -0.6122
  877MOL0     C18278   1.590  10.027   4.993  0.4606 -0.5939 -0.7186
  877MOL0     C18279   1.714   9.965   5.003  1.0490 -0.8109 -0.6077
  877MOL0     C18280   1.796   9.912   4.897 -0.9749  0.5416  0.3204
  877MOL0     C18281   1.778   9.978   4.760  0.5284  0.4211 -0.4450
  877MOL0     C18282   1.847   9.895   4.654  0.0390 -0.2970 -0.1690
  877MOL0     C18283   1.866   9.960   4.519 -0.8590 -0.3962 -0.1958
  877MOL0     O18284   1.940  10.079   4.541 -0.4819 -0.5840  0.0028
  877MOL0     C18285   2.077  10.070   4.559  0.3010  0.1951 -0.1378
  877MOL0     C18286   2.135  10.189   4.581  0.1109  0.1544  0.0941
  877MOL0     C18287   2.268  10.201   4.602  0.7356  0.4419  0.3070
  877MOL0     C18288   2.353  10.092   4.584 -0.3969  0.2463 -0.2706
  877MOL0     C18289   2.501  10.103   4.599  0.0343 -0.9653  0.0424
  877MOL0     O18290   2.572   9.990   4.574 -0.8014  0.2318  0.7965
  877MOL0     C18291   2.704   9.984   4.585  0.0942 -0.4874 -0.6062
  877MOL0     C18292   2.781   9.940   4.476  0.5773 -1.1151  0.7087
  877MOL0     C18293   2.916   9.924   4.491 -0.1141  0.2457 -0.6526
  877MOL0     C18294   2.979   9.964   4.604  0.6961 -0.6501 -0.9845
  877MOL0     O18295   3.113   9.947   4.606 -0.2575 -0.1784 -0.3864
  877MOL0     C18296   3.170   9.912   4.734 -0.3204 -0.3705  0.4721
  877MOL0     C18297   3.319   9.955   4.729  0.7539  0.0731 -0.3673
  877MOL0     C18298   3.392   9.889   4.621 -0.4689  0.0869 -0.2389
  877MOL0     C18299   3.550   9.920   4.627  0.8903  0.4691  0.6692
  877MOL0     C18300   3.625   9.834   4.521 -0.0148  0.4918  0.2174
  877MOL0     C18301   3.772   9.853   4.542  0.9363  0.3060  0.1653
  877MOL0     C18302   3.868   9.779   4.453  0.1364  0.0415  0.4373
  877MOL0     C18303   3.895   9.858   4.329 -0.3113  0.0593  0.3814
  877MOL0    Cl18304   3.997   9.992   4.362  0.4239 -0.0173 -0.3042
  877MOL0     C18305   2.905  10.020   4.710  0.0306  0.5014  0.8069
  877MOL0     C18306   2.768  10.013   4.705  0.4845  0.2259  0.7998
  877MOL0     O18307   2.548  10.211   4.646 -0.8111  0.9335  0.3188
  877MOL0     C18308   2.295   9.968   4.549 -0.6190  0.2356 -0.6549
  877MOL0     C18309   2.159   9.965   4.526 -0.7957  0.7607 -0.6533
  877MOL0     N18310   1.746   9.944   5.131  0.7054 -0.5522  0.2167
  877MOL0     N18311   1.655  10.003   5.211 -0.1840 -0.5993 -0.3310
  877MOL0     C18312   0.379   9.704   5.025 -0.4002 -0.6375 -0.6810
  877MOL0     C18313   0.271   9.621   4.977 -0.2998  0.0437 -0.3483
  877MOL0     C18314  -0.054   9.462   4.668  0.2104 -0.0867 -0.3328
  877MOL0     C18315  -0.055   9.340   4.734  0.4121 -0.0351 -0.4117
  877MOL0     C18316  -0.173   9.258   4.721  0.0950 -0.0896  0.4911
  877MOL0     C18317  -0.282   9.298   4.652  1.0451 -0.0069  0.5088
  877MOL0     O18318  -0.398   9.229   4.649 -0.1060 -0.7660 -0.2433
  877MOL0     C18319  -0.402   9.093   4.689 -0.0170 -0.4232  0.4513
  877MOL0     C18320  -0.541   9.030   4.654 -0.3509 -0.0150  0.8035
  877MOL0     C18321  -0.550   8.877   4.660  1.0763  0.0940 -0.1021
  877MOL0     C18322  -0.553   8.826   4.805  0.1497  0.0792 -0.3297
  877MOL0     C18323  -0.556   8.679   4.811 -0.0101  0.1139  1.1829
  877MOL0     C18324  -0.566   8.559   4.791  0.2829  0.2177 -0.4572
  877MOL0     C18325  -0.277   9.422   4.590 -0.8022 -0.3706  0.2591
  877MOL0     C18326  -0.170   9.504   4.606  1.1431 -0.9364  0.1146
  877MOL0     C18327  -0.180   9.644   4.531 -0.2190  0.3776 -0.0058
  877MOL0     H18328   0.281   9.736   4.660 -2.3925 -0.5882  0.5412
  877MOL0     H18329   0.451   9.877   4.748  2.1892 -0.8910  0.5379
  877MOL0     H18330   0.668   9.880   4.829  0.7228  1.2435  0.4140
  877MOL0     H18331   0.564  10.021   4.861  1.7759  1.8769  0.3587
  877MOL0     H18332   0.702  10.064   5.065  0.6816 -0.8224  2.4032
  877MOL0     H18333   0.771  10.083   4.898  0.5895 -0.2080  0.0641
  877MOL0     H18334   0.880   9.867   4.916 -0.3696  2.4700 -1.1461
  877MOL0     H18335   0.836   9.853   5.092  1.0983  1.0756  0.6610
  877MOL0     H18336   0.988  10.081   4.967  3.0102 -0.7623  0.3645
  877MOL0     H18337   0.929  10.074   5.128 -0.5726 -0.2332  0.1403
  877MOL0     H18338   1.074   9.857   5.155  0.9718  1.0461  1.0088
  877MOL0     H18339   1.139   9.901   4.989  1.8565  0.4782  0.5253
  877MOL0     H18340   1.201  10.114   5.052 -1.3529  1.1082  0.1439
  877MOL0     H18341   1.141  10.090   5.221  3.0606 -1.9794  3.7293
  877MOL0     H18342   1.348   9.913   5.087  2.7313 -1.0038  0.5463
  877MOL0     H18343   1.323   9.934   5.258 -0.3153  2.3754  0.0044
  877MOL0     H18344   1.406  10.177   5.087  1.1610 -1.6928 -2.1025
  877MOL0     H18345   1.443  10.134   5.263  0.3544 -1.7225  0.6081
  877MOL0     H18346   1.533  10.063   4.907 -0.7209  4.3407  1.7589
  877MOL0     H18347   1.896   9.927   4.938 -0.2186  0.6238 -1.4712
  877MOL0     H18348   1.774   9.806   4.879  2.6547  0.2163 -3.6157
  877MOL0     H18349   1.672   9.992   4.735  0.6083 -0.0439 -1.0559
  877MOL0     H18350   1.828  10.075   4.770  0.4351  0.4067  0.2300
  877MOL0     H18351   1.775   9.818   4.626  0.0836  0.1512 -1.6100
  877MOL0     H18352   1.939   9.850   4.692 -0.1602 -1.6680 -1.2155
  877MOL0     H18353   1.762   9.978   4.492 -0.4538  2.1524 -0.3208
  877MOL0     H18354   1.914   9.894   4.447  1.2883  2.5053 -1.6595
  877MOL0     H18355   2.081  10.283   4.593  2.6470  1.6764  0.2078
  877MOL0     H18356   2.313  10.299   4.611  0.4451  0.5292  0.8593
  877MOL0     H18357   2.740   9.924   4.377 -3.1314  1.1810  1.6820
  877MOL0     H18358   2.973   9.883   4.408 -0.1573  1.9120 -1.5628
  877MOL0     H18359   3.135   9.958   4.827  0.4986 -0.3095  0.7583
  877MOL0     H18360   3.161   9.804   4.745 -1.0591 -0.1719  2.2898
  877MOL0     H18361   3.329  10.063   4.716  1.8437  0.0596  0.2686
  877MOL0     H18362   3.354   9.921   4.827 -0.6944  2.2530  1.0116
  877MOL0     H18363   3.372   9.781   4.618 -1.2548  0.2302 -0.6019
  877MOL0     H18364   3.362   9.934   4.526  0.9440  2.6272  0.4310
  877MOL0     H18365   3.589   9.887   4.724  0.6713 -3.4594 -0.3876
  877MOL0     H18366   3.568  10.027   4.612  1.2239  0.3720  0.3366
  877MOL0     H18367   3.597   9.862   4.420  2.6157  2.4775 -0.0543
  877MOL0     H18368   3.606   9.727   4.537  2.2919 -0.2703 -1.6342
  877MOL0     H18369   3.792   9.960   4.536  0.6049  0.3188 -1.0375
  877MOL0     H18370   3.808   9.828   4.642 -2.3038 -0.7032  1.2381
  877MOL0     H18371   3.820   9.686   4.422 -0.5801  0.1736  1.1382
  877MOL0     H18372   3.966   9.762   4.500 -0.3192  1.6604  2.0618
  877MOL0     H18373   3.942   9.794   4.253  1.5124 -2.6537  3.5604
  877MOL0     H18374   3.803   9.882   4.275 -0.2627  1.1011  0.7383
  877MOL0     H18375   2.939  10.054   4.808  0.1142  0.8328  0.6655
  877MOL0     H18376   2.703  10.033   4.789 -1.4475  2.1024 -1.0098
  877MOL0     H18377   2.349   9.875   4.538  0.5520  0.8200  0.0416
  877MOL0     H18378   2.125   9.863   4.510  0.5446 -0.1994  1.9984
  877MOL0     H18379   0.420   9.687   5.124 -3.2006 -1.7881  0.3698
  877MOL0     H18380   0.212   9.560   5.044  1.0598  0.5424  1.3748
  877MOL0     H18381   0.031   9.298   4.784 -0.8175 -3.0077 -0.5731
  877MOL0     H18382  -0.170   9.164   4.777  1.4234 -0.5665 -0.3423
  877MOL0     H18383  -0.370   9.081   4.792  2.1141 -1.6747 -0.2944
  877MOL0     H18384  -0.340   9.028   4.627 -3.6250 -3.5934 -0.2493
  877MOL0     H18385  -0.555   9.064   4.551  1.1996 -1.5788  0.0063
  877MOL0     H18386  -0.613   9.077   4.721  0.0094  1.3069  0.2864
  877MOL0     H18387  -0.463   8.836   4.609 -0.1790  0.5639 -2.8359
  877MOL0     H18388  -0.641   8.844   4.608  1.4866  1.8676 -2.0703
  877MOL0     H18389  -0.467   8.866   4.860 -0.1355 -1.3441  1.2394
  877MOL0     H18390  -0.640   8.871   4.855 -0.4999  0.1889 -1.5159
  877MOL0     H18391  -0.582   8.453   4.779 -0.7953  0.5915 -2.8121
  877MOL0     H18392  -0.370   9.460   4.548 -1.1123 -1.4810 -0.0876
  877MOL0     H18393  -0.278   9.647   4.482 -0.2489  0.0317  0.0345
  877MOL0     H18394  -0.182   9.726   4.604  0.6448  0.0664  0.3776
  877MOL0     H18395  -0.095   9.662   4.464  1.3792 -1.6599  1.3550
  878MOL0     O18396   5.400   2.924   6.799  0.2172  0.6486  0.4086
  878MOL0     C18397   5.375   2.810   6.767  0.9085 -0.2379  0.0854
  878MOL0     O18398   5.353   2.701   6.854  0.7601 -0.6935 -1.2336
  878MOL0     C18399   5.360   2.705   6.992  0.6522 -1.0967  0.8274
  878MOL0     C18400   5.360   2.823   7.066 -0.0880 -0.5476 -0.8335
  878MOL0     C18401   5.391   2.821   7.206  0.0657 -0.2046  0.5005
  878MOL0     C18402   5.439   2.705   7.263  0.1169  0.4178  0.3493
  878MOL0     O18403   5.453   2.692   7.395 -0.8293  0.6642  0.1973
  878MOL0     C18404   5.581   2.652   7.449  0.2559  0.0849 -0.4163
  878MOL0     C18405   5.705   2.716   7.373  0.4320 -0.2180  0.3895
  878MOL0     C18406   5.834   2.678   7.448  0.6433 -0.5793  0.0298
  878MOL0     C18407   5.953   2.744   7.379 -0.8816 -0.1883  0.5149
  878MOL0     C18408   6.092   2.685   7.419 -0.2654  1.1164  0.5719
  878MOL0     C18409   6.211   2.776   7.389 -0.7379  0.3321  1.0271
  878MOL0     C18410   6.342   2.738   7.455  0.1700 -0.2745  0.2005
  878MOL0     C18411   6.444   2.843   7.411 -0.1872  1.3306 -1.0259
  878MOL0     N18412   6.495   2.795   7.285 -0.1653  1.0264  1.3318
  878MOL0     C18413   6.593   2.693   7.265  0.2119  0.2045  0.4457
  878MOL0     C18414   6.640   2.714   7.131 -0.4394 -0.0647 -0.0431
  878MOL0     C18415   6.775   2.666   7.067 -0.0213  1.0297 -0.3705
  878MOL0     C18416   6.897   2.738   7.134 -0.1968 -0.4197  0.0375
  878MOL0     C18417   6.939   2.690   7.270  0.1277 -0.4672 -0.3621
  878MOL0     C18418   7.079   2.624   7.273  0.9975 -0.2008 -0.6857
  878MOL0     O18419   7.085   2.510   7.184 -0.2142  0.5062 -0.4481
  878MOL0     C18420   7.207   2.462   7.141 -0.1816  0.5357 -0.2109
  878MOL0     C18421   7.235   2.429   7.005  0.6728 -0.1436  0.0558
  878MOL0     C18422   7.369   2.400   6.965  1.3216 -0.2672 -0.0205
  878MOL0     C18423   7.477   2.385   7.049  0.0619 -0.1432  0.0585
  878MOL0     C18424   7.608   2.353   6.999  0.1068  0.8842 -0.6190
  878MOL0     O18425   7.708   2.335   7.093 -0.2707  0.2632  0.1431
  878MOL0     C18426   7.835   2.312   7.042  0.1829 -0.3645  0.1657
  878MOL0     C18427   7.880   2.178   7.028  0.3647 -0.0791  0.1097
  878MOL0     C18428   8.013   2.151   6.995  0.2286 -0.1126 -0.5636
  878MOL0     C18429   8.102   2.258   6.979  0.1459  0.3294 -0.1007
  878MOL0     O18430   8.227   2.213   6.963 -0.6033 -0.5140 -0.3225
  878MOL0     C18431   8.322   2.306   7.004  0.0055 -0.4718 -1.2437
  878MOL0     C18432   8.334   2.326   7.162  0.1626  0.9542 -0.6841
  878MOL0     C18433   8.481   2.370   7.202 -0.1331  0.3923  0.0976
  878MOL0     C18434   8.492   2.347   7.353 -0.4087  0.8121  0.9669
  878MOL0     C18435   8.633   2.386   7.395 -0.1935 -0.1892  0.3245
  878MOL0     C18436   8.656   2.386   7.539 -0.6170 -0.7013 -0.1989
  878MOL0     C18437   8.801   2.409   7.570 -0.7219  0.2258  0.4859
  878MOL0     C18438   8.838   2.389   7.715  0.4843  0.7940  0.4531
  878MOL0    Cl18439   8.810   2.545   7.797 -0.2627 -0.1562  0.0478
  878MOL0     C18440   8.053   2.380   6.979  0.1829 -0.1956 -0.6363
  878MOL0     C18441   7.917   2.410   6.999 -0.4267  0.0880  0.1123
  878MOL0     O18442   7.623   2.344   6.876 -0.6429 -0.6845 -0.3202
  878MOL0     C18443   7.447   2.414   7.181 -0.5651 -0.2157 -0.3538
  878MOL0     C18444   7.321   2.459   7.222  0.0044  0.7278 -0.3122
  878MOL0     N18445   6.558   2.801   7.075 -0.0431 -0.1369 -0.0921
  878MOL0     N18446   6.474   2.842   7.161  1.1362 -0.3216  0.2792
  878MOL0     C18447   5.433   2.590   7.190  0.2863  0.1577  0.2000
  878MOL0     C18448   5.392   2.591   7.056 -0.3909  0.0992 -0.0430
  878MOL0     C18449   5.377   2.773   6.631  0.2995  0.9768  0.2438
  878MOL0     C18450   5.373   2.636   6.596  1.1558 -0.0127  0.2082
  878MOL0     C18451   5.379   2.587   6.469  0.6371 -0.2122 -0.2029
  878MOL0     C18452   5.381   2.670   6.358  0.1058  0.3746  0.1177
  878MOL0     O18453   5.369   2.625   6.227 -0.1719  0.4468  0.7654
  878MOL0     C18454   5.358   2.482   6.199  0.2824  0.0026 -0.6959
  878MOL0     C18455   5.213   2.420   6.223  0.1549  0.0871 -0.0330
  878MOL0     C18456   5.181   2.323   6.111  0.7557  0.1057 -0.5127
  878MOL0     C18457   5.047   2.245   6.140 -0.3439  0.3024  0.0341
  878MOL0     C18458   4.937   2.325   6.159  0.7104 -1.1935  0.1746
  878MOL0     C18459   4.835   2.389   6.156  0.7093 -0.2777  0.0829
  878MOL0     C18460   5.375   2.808   6.382 -0.4062 -0.0452  0.3754
  878MOL0     C18461   5.374   2.853   6.516  0.4338 -1.1404 -0.7320
  878MOL0     C18462   5.360   3.005   6.541  0.2958  0.5317  0.3561
  878MOL0     H18463   5.344   2.923   7.028 -1.3367 -0.4741 -0.1652
  878MOL0     H18464   5.390   2.901   7.280 -0.5752  0.9012 -0.6643
  878MOL0     H18465   5.587   2.664   7.558 -0.1847 -1.3117 -0.2239
  878MOL0     H18466   5.586   2.543   7.444  0.1527  0.1176 -1.5285
  878MOL0     H18467   5.699   2.824   7.363 -0.9609 -0.0764  2.0980
  878MOL0     H18468   5.712   2.670   7.274  0.8352 -1.8888  1.1580
  878MOL0     H18469   5.844   2.569   7.447 -3.8000 -1.1517  0.0856
  878MOL0     H18470   5.823   2.718   7.550 -2.4035 -1.2725  0.0594
  878MOL0     H18471   5.939   2.756   7.271 -0.3517 -0.1018  0.4550
  878MOL0     H18472   5.951   2.851   7.402 -3.0999 -0.2314  0.7636
  878MOL0     H18473   6.094   2.667   7.527 -2.2189  0.5355  0.5558
  878MOL0     H18474   6.101   2.588   7.368  0.2488  1.8897 -0.8503
  878MOL0     H18475   6.228   2.778   7.281 -2.1892  0.0239  0.7597
  878MOL0     H18476   6.199   2.881   7.417  1.1228  1.5685 -2.2868
  878MOL0     H18477   6.368   2.633   7.435  1.2166 -0.0721  0.4196
  878MOL0     H18478   6.326   2.754   7.562  0.8509 -0.1316  0.2839
  878MOL0     H18479   6.393   2.938   7.397 -4.5530 -0.5347  0.3451
  878MOL0     H18480   6.525   2.836   7.485  0.3471 -5.4424 -1.5978
  878MOL0     H18481   6.641   2.621   7.329  1.9663  0.3253 -0.6658
  878MOL0     H18482   6.771   2.557   7.079 -4.0301  0.8404 -1.9314
  878MOL0     H18483   6.771   2.677   6.959 -0.7344  0.4552 -0.4086
  878MOL0     H18484   6.974   2.739   7.056 -1.1554  0.5116 -0.9407
  878MOL0     H18485   6.869   2.844   7.144 -0.8985 -0.5075 -0.7845
  878MOL0     H18486   6.869   2.622   7.320 -0.7446 -0.3278 -1.3684
  878MOL0     H18487   6.937   2.776   7.337  0.7817 -0.5657 -0.2090
  878MOL0     H18488   7.099   2.588   7.375 -1.1817  2.2491  0.7189
  878MOL0     H18489   7.151   2.701   7.244  0.0207  1.3941  0.9314
  878MOL0     H18490   7.148   2.438   6.940  1.5103  1.3365 -0.9197
  878MOL0     H18491   7.376   2.388   6.857 -2.3358  0.2609 -0.4636
  878MOL0     H18492   7.808   2.097   7.033  1.7099 -1.5360 -2.4310
  878MOL0     H18493   8.048   2.048   6.996 -0.5009 -0.3911 -1.5767
  878MOL0     H18494   8.423   2.284   6.968  0.6247  0.5260 -0.1686
  878MOL0     H18495   8.308   2.398   6.946  1.3425  0.5778  0.0177
  878MOL0     H18496   8.267   2.403   7.203  1.7113  1.6792  0.6377
  878MOL0     H18497   8.309   2.231   7.211  1.6123  0.7208 -0.3383
  878MOL0     H18498   8.556   2.308   7.152 -2.0057 -2.2870  0.3605
  878MOL0     H18499   8.496   2.473   7.169  0.7676  0.2977  0.1998
  878MOL0     H18500   8.484   2.241   7.380  2.6468  0.2965  0.1481
  878MOL0     H18501   8.417   2.398   7.415 -1.2205 -1.0843  1.6169
  878MOL0     H18502   8.635   2.491   7.363 -1.3292 -0.5503 -1.0038
  878MOL0     H18503   8.708   2.327   7.341 -3.4773 -2.6804 -1.9038
  878MOL0     H18504   8.601   2.470   7.582 -1.4859 -0.7420 -1.1707
  878MOL0     H18505   8.630   2.295   7.593  0.4546 -0.3917  0.8641
  878MOL0     H18506   8.833   2.502   7.522  5.3984 -1.5261  0.3848
  878MOL0     H18507   8.857   2.334   7.515 -0.9839 -0.8190  1.5992
  878MOL0     H18508   8.783   2.309   7.764 -1.1717  0.9614 -1.0539
  878MOL0     H18509   8.945   2.364   7.715  1.8347  5.0339 -3.6447
  878MOL0     H18510   8.123   2.461   6.966  0.6071 -0.1489  1.5458
  878MOL0     H18511   7.883   2.510   6.978 -0.8584  0.6222  2.9363
  878MOL0     H18512   7.522   2.414   7.259  1.5331 -0.2332 -2.2514
  878MOL0     H18513   7.313   2.480   7.328 -2.4832  0.0762 -0.3151
  878MOL0     H18514   5.443   2.491   7.235 -0.8889 -1.9936 -3.7934
  878MOL0     H18515   5.390   2.497   7.001 -0.9339  1.5954 -2.7899
  878MOL0     H18516   5.382   2.564   6.677  0.9915 -1.8872 -1.3485
  878MOL0     H18517   5.373   2.481   6.451 -2.1641  0.1257 -1.8057
  878MOL0     H18518   5.422   2.422   6.265  0.4851  0.1538 -0.7537
  878MOL0     H18519   5.393   2.459   6.099 -2.5384 -0.4643 -1.6768
  878MOL0     H18520   5.138   2.500   6.220  0.7829  0.6956  0.2555
  878MOL0     H18521   5.207   2.370   6.320 -0.2144 -0.5016 -0.3526
  878MOL0     H18522   5.261   2.249   6.113  0.6065 -0.1712  3.1321
  878MOL0     H18523   5.184   2.370   6.012  0.7600 -0.3695 -0.7389
  878MOL0     H18524   5.023   2.189   6.049  1.4184  0.9864 -0.9206
  878MOL0     H18525   5.052   2.173   6.222  1.5959 -0.5237 -0.7532
  878MOL0     H18526   4.744   2.445   6.146 -0.2714 -1.8245 -0.0237
  878MOL0     H18527   5.368   2.883   6.304  0.6309 -1.5925 -1.2874
  878MOL0     H18528   5.371   3.054   6.444  0.9129  0.9593  0.6366
  878MOL0     H18529   5.268   3.034   6.594 -1.6214 -3.4823 -0.4097
  878MOL0     H18530   5.449   3.044   6.591 -0.5669  1.9724  0.8555
  879MOL0     O18531   9.533   1.991   0.235 -0.0175 -0.0832 -0.2266
  879MOL0     C18532   9.485   1.915   0.323 -0.6409 -0.8636  0.3112
  879MOL0     O18533   9.544   1.892   0.440 -0.1302  0.4926 -0.6153
  879MOL0     C18534   9.678   1.926   0.462  0.1320  0.0204  0.2632
  879MOL0     C18535   9.712   1.977   0.593 -0.4322 -0.7888  1.5882
  879MOL0     C18536   9.842   2.002   0.623  0.6446 -0.3519  0.7600
  879MOL0     C18537   9.949   1.990   0.532 -0.2588  0.4086  0.9890
  879MOL0     O18538  10.075   2.033   0.573  0.1620  0.1846  0.1416
  879MOL0     C18539  10.188   1.992   0.490 -0.3302 -0.2749 -0.1436
  879MOL0     C18540  10.313   2.015   0.577 -0.1077  0.2609  0.3715
  879MOL0     C18541  10.435   1.981   0.485 -0.3149 -0.6943  0.2840
  879MOL0     C18542  10.565   1.970   0.565 -0.7397  0.0622 -0.2832
  879MOL0     C18543  10.684   1.920   0.479 -0.3482 -0.1144  0.0283
  879MOL0     C18544  10.736   2.024   0.382  0.3019 -0.3668  1.0949
  879MOL0     C18545  10.834   1.952   0.293  0.8101  0.1755 -0.0434
  879MOL0     C18546  10.917   2.043   0.208  0.8278 -0.1699  0.1570
  879MOL0     N18547  11.017   2.117   0.282 -0.2491  1.0859 -0.2875
  879MOL0     C18548  11.113   2.053   0.360  0.1248 -0.1994 -0.1699
  879MOL0     C18549  11.158   2.154   0.444 -0.1217 -0.7036  0.2735
  879MOL0     C18550  11.278   2.131   0.530  0.5478 -0.1139 -0.0167
  879MOL0     C18551  11.413   2.120   0.456 -0.8570 -0.0909 -0.0571
  879MOL0     C18552  11.472   2.261   0.452  0.1027 -0.1343  0.5932
  879MOL0     C18553  11.603   2.260   0.366  0.2161  0.6550 -1.0910
  879MOL0     O18554  11.708   2.216   0.462 -0.5743 -0.9314  0.2420
  879MOL0     C18555  11.830   2.212   0.413 -0.2639 -0.4891 -0.6007
  879MOL0     C18556  11.926   2.190   0.505 -0.2008 -0.0198  0.4030
  879MOL0     C18557  12.059   2.169   0.472 -0.2643  0.3064  0.8788
  879MOL0     C18558  12.100   2.158   0.333  0.1239 -0.1020 -1.5324
  879MOL0     C18559  12.242   2.119   0.308 -0.0639  0.1537 -1.1154
  879MOL0     O18560  12.326   2.152   0.404 -0.1802  0.6200 -0.2171
  879MOL0     C18561  12.456   2.160   0.394  0.2740 -1.0631  0.5619
  879MOL0     C18562  12.537   2.139   0.506  0.4862  0.1235 -0.5988
  879MOL0     C18563  12.677   2.138   0.505  0.1404 -0.1406  0.1335
  879MOL0     C18564  12.746   2.166   0.392  0.3325 -0.5135  0.7756
  879MOL0     O18565  12.880   2.164   0.382 -0.1838  0.2298 -0.4301
  879MOL0     C18566  12.955   2.087   0.482 -0.3107 -0.5957  0.5012
  879MOL0     C18567  13.097   2.048   0.447  0.0508 -0.7138  0.1788
  879MOL0     C18568  13.188   2.167   0.472 -0.0774 -0.0418 -0.2211
  879MOL0     C18569  13.338   2.130   0.477 -0.1104 -0.3802 -0.0642
  879MOL0     C18570  13.417   2.257   0.452 -0.0261  0.4725 -0.0591
  879MOL0     C18571  13.569   2.226   0.451 -0.2408 -0.9153 -0.3504
  879MOL0     C18572  13.606   2.173   0.312  0.2620  0.2878 -0.7175
  879MOL0     C18573  13.747   2.130   0.308  0.0909  1.2354  0.0239
  879MOL0    Cl18574  13.789   2.076   0.146 -0.1539  0.1434 -0.0041
  879MOL0     C18575  12.666   2.203   0.280 -0.5052  0.5127  0.0086
  879MOL0     C18576  12.525   2.191   0.284  0.4696  1.0491  0.4375
  879MOL0     O18577  12.268   2.073   0.194 -0.1946  0.4948 -0.0131
  879MOL0     C18578  12.005   2.172   0.233  0.3009  0.2766 -0.4659
  879MOL0     C18579  11.873   2.207   0.277  0.1549 -0.0364 -0.1466
  879MOL0     N18580  11.088   2.271   0.419 -0.1062  0.2293 -0.8262
  879MOL0     N18581  11.006   2.248   0.323 -0.3272  0.2169  0.6409
  879MOL0     C18582   9.916   1.937   0.403  0.5365  0.1245 -0.0085
  879MOL0     C18583   9.784   1.895   0.374 -0.1270  0.1165  0.0050
  879MOL0     C18584   9.350   1.869   0.307 -0.3387  0.3720 -0.1340
  879MOL0     C18585   9.301   1.880   0.172 -0.9325  0.6253 -0.0780
  879MOL0     C18586   9.179   1.818   0.139 -0.7299 -0.2086 -0.2395
  879MOL0     C18587   9.109   1.735   0.223  0.9467 -0.7748  0.6144
  879MOL0     O18588   8.986   1.686   0.193  0.3797 -0.2551  1.0603
  879MOL0     C18589   8.922   1.726   0.066 -0.2254  0.4533 -0.9172
  879MOL0     C18590   8.786   1.654   0.057  0.0192  0.1306 -0.0420
  879MOL0     C18591   8.682   1.728   0.143 -1.0224  0.1517 -0.1814
  879MOL0     C18592   8.539   1.699   0.092  0.2470  0.0414  0.0922
  879MOL0     C18593   8.455   1.781   0.169 -0.1711 -0.6102 -0.2708
  879MOL0     C18594   8.416   1.878   0.230  0.9986 -0.2363 -0.7897
  879MOL0     C18595   9.161   1.708   0.346  0.0422 -0.1248 -0.0567
  879MOL0     C18596   9.282   1.779   0.394 -0.0817  0.3380 -0.4619
  879MOL0     C18597   9.324   1.741   0.532 -0.0369 -0.3248  0.6170
  879MOL0     H18598   9.642   1.994   0.674 -1.1349  1.4786  0.5922
  879MOL0     H18599   9.856   2.040   0.724  2.0322  2.2528 -0.3177
  879MOL0     H18600  10.198   1.887   0.464  3.3519  0.2364 -1.4072
  879MOL0     H18601  10.192   2.053   0.399  0.5891  0.9341  0.6702
  879MOL0     H18602  10.309   1.952   0.666  1.7691  0.5716  0.7222
  879MOL0     H18603  10.330   2.114   0.619  1.3913  0.8645 -1.5258
  879MOL0     H18604  10.446   2.047   0.398 -2.6968 -0.3266  0.2067
  879MOL0     H18605  10.431   1.881   0.440  1.8821 -1.0963  0.8206
  879MOL0     H18606  10.594   2.067   0.607 -2.3380  0.2018  0.5895
  879MOL0     H18607  10.551   1.900   0.647  0.8498  0.8310  0.6812
  879MOL0     H18608  10.761   1.896   0.552  0.8688  0.8783 -0.8950
  879MOL0     H18609  10.658   1.826   0.430 -0.7827 -1.0575  1.9423
  879MOL0     H18610  10.661   2.064   0.313  0.1153  0.7125  1.8975
  879MOL0     H18611  10.788   2.103   0.436  1.5356  1.1544 -2.0715
  879MOL0     H18612  10.784   1.878   0.229  1.5523 -1.2046  0.9093
  879MOL0     H18613  10.894   1.879   0.348 -1.7385 -1.2993  0.9484
  879MOL0     H18614  10.982   1.985   0.141  0.8152 -0.3140  0.2690
  879MOL0     H18615  10.851   2.108   0.149 -1.3061 -2.6020 -0.3393
  879MOL0     H18616  11.148   1.951   0.359  1.3556  0.2066 -1.2607
  879MOL0     H18617  11.280   2.212   0.604  2.2612  1.4762 -1.6998
  879MOL0     H18618  11.256   2.035   0.578 -0.4215  0.9655  1.8294
  879MOL0     H18619  11.493   2.066   0.508  0.9676  1.0103 -1.6013
  879MOL0     H18620  11.399   2.095   0.351 -2.4148 -2.3194  0.6115
  879MOL0     H18621  11.488   2.305   0.551  1.1093  0.0176  0.3723
  879MOL0     H18622  11.395   2.319   0.399 -1.4136 -1.8213  0.8343
  879MOL0     H18623  11.625   2.360   0.329 -0.7297  1.3314  0.0739
  879MOL0     H18624  11.597   2.190   0.282 -0.0235 -0.5905 -0.0782
  879MOL0     H18625  11.890   2.196   0.607 -1.9470 -1.0488 -0.1069
  879MOL0     H18626  12.131   2.144   0.549 -1.3294 -0.5574  1.6432
  879MOL0     H18627  12.486   2.102   0.594  0.8696  1.4963  0.2288
  879MOL0     H18628  12.719   2.107   0.601 -1.1564  0.0211  0.7801
  879MOL0     H18629  12.959   2.144   0.576 -3.6259 -2.4267  1.9197
  879MOL0     H18630  12.897   1.998   0.508  1.0376 -1.9567 -0.9944
  879MOL0     H18631  13.124   1.967   0.515 -0.2527 -1.8904 -1.0676
  879MOL0     H18632  13.105   2.005   0.347 -1.4689 -1.0967  0.2016
  879MOL0     H18633  13.161   2.247   0.402  0.2999 -0.7012 -1.1359
  879MOL0     H18634  13.181   2.196   0.577  3.0367  0.1214  0.0489
  879MOL0     H18635  13.353   2.062   0.392  0.0932  0.3019 -0.5847
  879MOL0     H18636  13.371   2.086   0.572  4.2181 -0.2679 -1.2839
  879MOL0     H18637  13.383   2.320   0.535 -2.0391 -1.6420  0.8369
  879MOL0     H18638  13.396   2.301   0.354  1.4313  0.4417 -0.4139
  879MOL0     H18639  13.627   2.315   0.479  0.9070 -1.8328  0.2794
  879MOL0     H18640  13.602   2.148   0.520 -1.4368 -2.5006 -1.5048
  879MOL0     H18641  13.598   2.249   0.235 -1.5078  0.7179 -0.1389
  879MOL0     H18642  13.542   2.089   0.285 -0.5239  1.0482 -1.2567
  879MOL0     H18643  13.821   2.205   0.336 -1.4161  2.0022  2.2070
  879MOL0     H18644  13.760   2.038   0.365  0.6630  0.5821 -1.1205
  879MOL0     H18645  12.730   2.228   0.197  0.8665  0.6903  1.0917
  879MOL0     H18646  12.478   2.206   0.187 -0.1610  3.1609  1.0180
  879MOL0     H18647  12.026   2.149   0.129 -1.7811 -2.3896 -0.3948
  879MOL0     H18648  11.797   2.213   0.200 -1.7305  2.1667  1.7020
  879MOL0     H18649   9.997   1.922   0.332 -0.5771 -1.5389 -0.9913
  879MOL0     H18650   9.776   1.851   0.275  1.2742  0.6676 -0.3882
  879MOL0     H18651   9.337   1.943   0.092 -1.5882  1.6450  0.3969
  879MOL0     H18652   9.142   1.827   0.037 -1.3369 -3.2556 -0.3853
  879MOL0     H18653   8.979   1.691  -0.020  1.0930  1.7300 -0.5878
  879MOL0     H18654   8.915   1.832   0.041 -1.0176  0.5811 -0.2065
  879MOL0     H18655   8.798   1.547   0.073 -1.1379  0.3508  2.8383
  879MOL0     H18656   8.758   1.663  -0.049 -0.4707 -1.8102 -0.1106
  879MOL0     H18657   8.700   1.836   0.151  0.6889  0.0237 -1.6178
  879MOL0     H18658   8.700   1.682   0.241 -1.7336  1.0753  0.4046
  879MOL0     H18659   8.521   1.720  -0.014  3.3916  0.8985 -0.3683
  879MOL0     H18660   8.505   1.598   0.115 -0.9621  0.2220 -0.8034
  879MOL0     H18661   8.388   1.972   0.274  1.0628 -0.9351  0.7949
  879MOL0     H18662   9.122   1.623   0.401  1.7469 -1.2282 -0.4819
  879MOL0     H18663   9.407   1.671   0.528  0.0975 -0.1659  0.6202
  879MOL0     H18664   9.347   1.829   0.593  0.2037 -0.4069  0.6450
  879MOL0     H18665   9.244   1.682   0.578  0.3154 -1.5681 -0.3208
  880MOL0     O18666   6.669  10.204   9.677 -0.5228  0.2046 -0.5853
  880MOL0     C18667   6.593  10.261   9.594 -0.2106 -0.0642 -0.4473
  880MOL0     O18668   6.629  10.357   9.515  0.0222 -0.8114 -0.3036
  880MOL0     C18669   6.758  10.361   9.470  1.0328  0.5020  0.2068
  880MOL0     C18670   6.819  10.262   9.392  0.0350  0.1469  0.1589
  880MOL0     C18671   6.957  10.277   9.367  0.5476 -0.1086  0.9747
  880MOL0     C18672   7.033  10.397   9.394 -0.9673 -0.7065  1.0192
  880MOL0     O18673   7.170  10.412   9.357 -0.0210 -0.3101 -0.3165
  880MOL0     C18674   7.240  10.295   9.317  0.7814  0.1955  0.6866
  880MOL0     C18675   7.388  10.325   9.320  0.5047  0.4312  0.6106
  880MOL0     C18676   7.425  10.433   9.209  0.5692 -0.3902  0.2283
  880MOL0     C18677   7.569  10.488   9.217  0.3202 -0.3887  0.8087
  880MOL0     C18678   7.635  10.578   9.105 -1.3303  0.7118 -0.6921
  880MOL0     C18679   7.711  10.482   9.009 -0.2439 -0.0345  0.0975
  880MOL0     C18680   7.741  10.563   8.877 -0.7780  0.2414 -0.1074
  880MOL0     C18681   7.858  10.666   8.895  0.7901  0.4609 -0.4356
  880MOL0     N18682   7.896  10.725   8.770  0.2828  0.0873  0.1581
  880MOL0     C18683   7.941  10.653   8.660 -0.0418  1.0674 -0.0743
  880MOL0     C18684   7.953  10.741   8.565 -0.6587 -0.2050  0.4291
  880MOL0     C18685   8.009  10.714   8.431  1.1238 -0.9236  0.5628
  880MOL0     C18686   8.156  10.756   8.416  0.2293  0.0918 -0.2530
  880MOL0     C18687   8.177  10.909   8.390  0.5454  0.5136  0.4977
  880MOL0     C18688   8.320  10.955   8.388  0.0600 -0.6218 -0.0243
  880MOL0     O18689   8.409  10.859   8.330  0.0451  0.0233  0.4674
  880MOL0     C18690   8.545  10.879   8.332  0.4474 -0.4567 -0.5493
  880MOL0     C18691   8.623  10.761   8.328 -0.3912 -0.5714 -0.7035
  880MOL0     C18692   8.769  10.782   8.320  0.3991  0.4007  0.1719
  880MOL0     C18693   8.823  10.909   8.314 -0.2585 -0.5094  0.2606
  880MOL0     C18694   8.971  10.926   8.296  0.2497 -0.7939  0.4578
  880MOL0     O18695   9.046  10.818   8.304 -0.0380  0.6077  0.0951
  880MOL0     C18696   9.180  10.825   8.279  0.5093 -0.2591 -0.0276
  880MOL0     C18697   9.228  10.753   8.175  0.3556  0.1310 -0.2041
  880MOL0     C18698   9.363  10.737   8.149  0.2188 -0.9482  0.1843
  880MOL0     C18699   9.456  10.795   8.240  0.0683  0.5859  0.1904
  880MOL0     O18700   9.591  10.776   8.222  0.5742  0.3086  0.0591
  880MOL0     C18701   9.677  10.893   8.241 -0.1873  0.5335 -0.2123
  880MOL0     C18702   9.681  10.960   8.107 -0.3566 -0.4443  0.1728
  880MOL0     C18703   9.771  11.081   8.101 -0.1325 -0.2663  0.5677
  880MOL0     C18704   9.737  11.198   8.186 -0.3987 -0.4748  0.4086
  880MOL0     C18705   9.849  11.304   8.166  0.0714 -0.1696 -0.1828
  880MOL0     C18706   9.824  11.429   8.251  0.5934  0.4663 -0.0022
  880MOL0     C18707   9.933  11.539   8.220 -0.1402 -0.6042 -0.4229
  880MOL0     C18708   9.947  11.567   8.074 -0.1587  0.2400  0.6160
  880MOL0    Cl18709   9.808  11.610   7.971 -0.1924  0.0643 -0.1613
  880MOL0     C18710   9.408  10.867   8.350  0.8156  1.1750  0.1548
  880MOL0     C18711   9.273  10.883   8.367  0.0778  0.6769  0.6316
  880MOL0     O18712   9.012  11.042   8.288  0.1980 -0.2953  0.1032
  880MOL0     C18713   8.736  11.024   8.309 -0.5721 -0.6113  0.1895
  880MOL0     C18714   8.601  11.011   8.326 -0.2245  0.7352 -0.1321
  880MOL0     N18715   7.903  10.861   8.617 -1.3111  0.7950  0.8529
  880MOL0     N18716   7.882  10.857   8.743 -0.7671  0.0132 -0.1941
  880MOL0     C18717   6.962  10.494   9.463  0.4212 -0.2089 -0.3393
  880MOL0     C18718   6.830  10.472   9.503  0.0460  0.2482  0.0875
  880MOL0     C18719   6.438  10.246   9.614 -0.3309 -0.6893  0.0279
  880MOL0     C18720   6.386  10.209   9.742  0.5044  1.2001 -0.8435
  880MOL0     C18721   6.248  10.201   9.771 -0.0616  0.1262  0.3638
  880MOL0     C18722   6.161  10.236   9.667 -0.5665  0.5112  0.3648
  880MOL0     O18723   6.029  10.231   9.679  0.2477  0.2019  0.2647
  880MOL0     C18724   5.976  10.119   9.766  1.1308  0.1030  0.3401
  880MOL0     C18725   5.827  10.085   9.739 -0.3040 -0.5150 -0.9440
  880MOL0     C18726   5.788  10.046   9.595 -0.3239 -0.0890 -0.2987
  880MOL0     C18727   5.635  10.043   9.586 -0.4175 -0.2826 -0.1509
  880MOL0     C18728   5.599   9.985   9.457  0.5936 -0.5255  0.2689
  880MOL0     C18729   5.580   9.937   9.342  0.4008 -1.4398 -0.0983
  880MOL0     C18730   6.211  10.282   9.542 -0.1567 -0.4677 -0.1110
  880MOL0     C18731   6.344  10.292   9.519  0.4545  0.9169  1.1871
  880MOL0     C18732   6.381  10.352   9.386  0.6851  0.2362 -0.1820
  880MOL0     H18733   6.771  10.167   9.372  0.5735 -0.1990  0.5030
  880MOL0     H18734   7.004  10.190   9.323  2.9940  2.1904 -1.3643
  880MOL0     H18735   7.225  10.216   9.391 -0.6331 -1.3310 -1.1148
  880MOL0     H18736   7.212  10.252   9.220  1.5557  1.0631  0.0646
  880MOL0     H18737   7.438  10.229   9.304  0.3988  0.5796 -0.8138
  880MOL0     H18738   7.414  10.350   9.423  0.3064  1.6040  0.3866
  880MOL0     H18739   7.354  10.516   9.216 -0.0799 -0.7550 -1.5060
  880MOL0     H18740   7.413  10.383   9.113  2.4059  0.0263 -0.2615
  880MOL0     H18741   7.569  10.553   9.305 -1.8803  0.9129 -0.0821
  880MOL0     H18742   7.638  10.405   9.239 -1.0913 -2.0227 -0.6978
  880MOL0     H18743   7.558  10.626   9.043  0.0797  1.6752 -1.7528
  880MOL0     H18744   7.699  10.650   9.156 -0.4668 -1.1450  0.9668
  880MOL0     H18745   7.800  10.440   9.057  0.7700  1.0199 -0.8031
  880MOL0     H18746   7.646  10.400   8.978 -1.5380  1.3484 -0.9910
  880MOL0     H18747   7.649  10.612   8.843 -1.9710 -1.0684  1.1290
  880MOL0     H18748   7.784  10.495   8.803 -2.5339 -1.7592  0.6358
  880MOL0     H18749   7.824  10.742   8.966 -1.2892 -1.4334  0.7268
  880MOL0     H18750   7.946  10.613   8.933  0.2137 -0.6142 -0.5458
  880MOL0     H18751   7.961  10.547   8.653 -0.4755  0.5384  4.1305
  880MOL0     H18752   8.007  10.608   8.401  1.1348 -0.9644  0.7024
  880MOL0     H18753   7.944  10.767   8.361  1.2220 -1.6270 -0.0684
  880MOL0     H18754   8.214  10.726   8.503  4.5781  0.4320 -2.7263
  880MOL0     H18755   8.201  10.705   8.331  2.6909 -1.3148  1.7693
  880MOL0     H18756   8.118  10.962   8.465 -2.1337 -2.2142  0.5092
  880MOL0     H18757   8.126  10.939   8.298  0.7435 -0.0708  0.1952
  880MOL0     H18758   8.347  10.963   8.494  0.9803 -0.8214 -0.2343
  880MOL0     H18759   8.334  11.050   8.337  1.6424 -0.5309  0.5215
  880MOL0     H18760   8.589  10.658   8.325  0.1245 -0.7611 -0.3016
  880MOL0     H18761   8.834  10.694   8.322  0.9360  0.7788  2.1861
  880MOL0     H18762   9.155  10.697   8.118  1.2310  1.6593 -3.0132
  880MOL0     H18763   9.376  10.666   8.068  0.5170 -1.0885  0.3536
  880MOL0     H18764   9.645  10.957   8.323 -0.5162 -0.3589  0.3789
  880MOL0     H18765   9.779  10.856   8.259  0.0145 -0.0479 -2.2319
  880MOL0     H18766   9.712  10.887   8.032 -3.7937 -1.5038 -0.4187
  880MOL0     H18767   9.581  10.994   8.078  0.0394 -0.8630 -1.8840
  880MOL0     H18768   9.868  11.046   8.138 -0.6780 -1.3055  1.0616
  880MOL0     H18769   9.780  11.122   8.000 -0.2232  1.3807  1.1888
  880MOL0     H18770   9.717  11.172   8.290 -0.7505 -0.7395  0.2805
  880MOL0     H18771   9.646  11.248   8.151  0.1314  0.5887  0.5227
  880MOL0     H18772   9.849  11.327   8.059 -0.9254  2.2011  0.2729
  880MOL0     H18773   9.947  11.264   8.194  0.3840  1.8803  1.8491
  880MOL0     H18774   9.723  11.470   8.245  0.0817 -0.6512  0.5832
  880MOL0     H18775   9.824  11.400   8.357  0.5785  2.5596  0.6059
  880MOL0     H18776  10.030  11.503   8.255 -0.4996  0.0873  1.3776
  880MOL0     H18777   9.909  11.632   8.270 -2.2753 -0.3658 -1.7752
  880MOL0     H18778  10.021  11.647   8.059  0.6035  0.0517  2.9955
  880MOL0     H18779   9.983  11.482   8.016  1.1710  1.7851 -0.9472
  880MOL0     H18780   9.475  10.893   8.431  1.2677 -2.0226  0.9719
  880MOL0     H18781   9.240  10.940   8.454 -0.0424  0.0910  0.9817
  880MOL0     H18782   8.766  11.129   8.310 -1.1880 -0.4327  0.4259
  880MOL0     H18783   8.544  11.103   8.321 -0.7542  0.5428  1.6616
  880MOL0     H18784   7.014  10.586   9.486 -3.0592  2.3889 -1.7996
  880MOL0     H18785   6.776  10.550   9.555  0.2979  1.8555 -1.9719
  880MOL0     H18786   6.448  10.166   9.820 -0.8355 -2.4491 -1.6124
  880MOL0     H18787   6.208  10.166   9.865  0.4019 -2.3773 -0.2754
  880MOL0     H18788   5.989  10.139   9.873  2.9362  1.6700 -0.1042
  880MOL0     H18789   6.029  10.025   9.750  1.8833  0.3969  1.0517
  880MOL0     H18790   5.773  10.180   9.748 -1.9038 -1.4087 -0.8158
  880MOL0     H18791   5.789  10.007   9.806 -1.1679  1.7299  1.3568
  880MOL0     H18792   5.838   9.952   9.569 -1.1425 -0.3863 -0.8145
  880MOL0     H18793   5.824  10.118   9.521 -1.4438  1.3636  0.5363
  880MOL0     H18794   5.602   9.984   9.672 -2.6645 -1.5045 -1.7389
  880MOL0     H18795   5.580  10.138   9.576 -2.9846 -1.7329 -0.8634
  880MOL0     H18796   5.573   9.886   9.248 -1.0175 -1.0733 -0.2152
  880MOL0     H18797   6.136  10.303   9.466 -1.4737 -1.8055  0.7583
  880MOL0     H18798   6.438  10.445   9.381  1.0860 -0.0637 -2.1658
  880MOL0     H18799   6.442  10.277   9.335  0.0909 -1.1100  1.0206
  880MOL0     H18800   6.297  10.355   9.316  0.8621  0.9425 -0.3688
  881MOL0     O18801   5.383   7.210   6.682  0.2128 -0.2714  0.0015
  881MOL0     C18802   5.361   7.094   6.656  0.6654 -0.3244 -0.0284
  881MOL0     O18803   5.446   7.001   6.607 -0.3124 -0.6381  0.2637
  881MOL0     C18804   5.578   7.020   6.578 -0.1802 -0.1463  0.0866
  881MOL0     C18805   5.668   7.089   6.656 -0.8867  0.4277  0.5773
  881MOL0     C18806   5.804   7.083   6.617 -1.0253  0.5068 -0.9394
  881MOL0     C18807   5.854   7.030   6.492  0.5575 -0.5660  0.6012
  881MOL0     O18808   5.988   7.045   6.470 -1.1536 -0.4594  0.0751
  881MOL0     C18809   6.022   7.066   6.331  0.0781  0.4578  0.3291
  881MOL0     C18810   6.157   7.135   6.315 -0.4822  0.4240 -0.1896
  881MOL0     C18811   6.273   7.043   6.348 -0.2860  0.5805  0.2204
  881MOL0     C18812   6.409   7.110   6.319 -0.5037  0.5329  0.8530
  881MOL0     C18813   6.525   7.005   6.351  1.2382  0.9346 -0.6710
  881MOL0     C18814   6.654   7.036   6.294 -0.3538  0.0404  0.1248
  881MOL0     C18815   6.719   7.154   6.359 -0.4986  0.7453  0.7284
  881MOL0     C18816   6.848   7.189   6.272  0.5944 -0.1743 -1.2038
  881MOL0     N18817   6.965   7.104   6.286 -0.5670 -0.6973 -0.0583
  881MOL0     C18818   7.043   7.091   6.399  0.1234 -0.4399 -0.5970
  881MOL0     C18819   7.130   6.999   6.372 -0.8416  0.6821  1.5061
  881MOL0     C18820   7.240   6.934   6.457 -0.9719 -1.0216 -0.4513
  881MOL0     C18821   7.378   6.926   6.386 -0.2626  0.2174  0.1051
  881MOL0     C18822   7.412   6.826   6.271 -0.2676 -0.1569  0.3415
  881MOL0     C18823   7.560   6.812   6.230  0.4481 -0.5371 -0.3811
  881MOL0     O18824   7.624   6.750   6.331 -0.3290  0.0076 -0.5063
  881MOL0     C18825   7.764   6.755   6.331 -0.5442  0.6247 -0.4135
  881MOL0     C18826   7.840   6.842   6.246  0.3141  0.0121  0.2568
  881MOL0     C18827   7.980   6.857   6.267 -0.2991 -0.9537 -0.3677
  881MOL0     C18828   8.047   6.784   6.365 -0.1602 -0.2145  0.9671
  881MOL0     C18829   8.180   6.820   6.404  1.1351 -0.3291 -0.1504
  881MOL0     O18830   8.239   6.737   6.499 -0.0146  0.1891  0.8692
  881MOL0     C18831   8.359   6.756   6.564  0.4167  0.5687  0.4662
  881MOL0     C18832   8.439   6.871   6.557  0.7006 -0.2471  0.4711
  881MOL0     C18833   8.552   6.876   6.634  0.7349 -0.1581 -0.1542
  881MOL0     C18834   8.604   6.757   6.696  1.2060 -0.0437 -0.7791
  881MOL0     O18835   8.713   6.754   6.772 -0.3383 -0.0776 -0.0073
  881MOL0     C18836   8.822   6.703   6.707  0.3669 -0.0830  0.0369
  881MOL0     C18837   8.947   6.750   6.787  0.2151  0.8481 -0.7557
  881MOL0     C18838   8.940   6.714   6.932  0.4651 -0.6823 -0.0041
  881MOL0     C18839   9.044   6.782   7.014 -0.4462 -0.5176 -0.2356
  881MOL0     C18840   9.181   6.723   6.981 -0.0547 -0.4975 -0.5582
  881MOL0     C18841   9.276   6.766   7.087 -0.4779  0.3084 -0.0353
  881MOL0     C18842   9.336   6.907   7.090  1.1258  0.0499 -0.0211
  881MOL0     C18843   9.460   6.925   7.166  0.0084 -0.0512  0.7324
  881MOL0    Cl18844   9.513   7.096   7.167  0.0158  0.5543 -0.3163
  881MOL0     C18845   8.525   6.643   6.698  0.2153  0.3301  0.3897
  881MOL0     C18846   8.406   6.636   6.625 -0.3529 -0.7063  0.0586
  881MOL0     O18847   8.230   6.916   6.357 -0.6142  0.3485 -0.4934
  881MOL0     C18848   7.967   6.694   6.442  0.3783  0.0881 -0.3408
  881MOL0     C18849   7.830   6.688   6.432  0.2828 -0.3756  0.1238
  881MOL0     N18850   7.105   6.953   6.245  0.3849 -0.0260  0.1209
  881MOL0     N18851   7.007   7.012   6.201 -0.2156  0.2501 -1.2529
  881MOL0     C18852   5.756   6.965   6.415  0.3404  0.2727  0.0262
  881MOL0     C18853   5.623   6.948   6.461 -0.5851  0.6983 -1.2232
  881MOL0     C18854   5.218   7.051   6.681  1.3612 -0.5804 -0.5216
  881MOL0     C18855   5.108   7.142   6.655  0.0494  0.2863  0.1280
  881MOL0     C18856   4.978   7.100   6.666  0.3844  0.0735  0.1071
  881MOL0     C18857   4.941   6.982   6.713 -0.9110 -0.1632 -0.2915
  881MOL0     O18858   4.810   6.948   6.727 -0.8977 -0.1602  0.0734
  881MOL0     C18859   4.780   6.906   6.856  1.0212  0.7471 -0.8535
  881MOL0     C18860   4.625   6.901   6.851 -0.4265  0.1811  0.4130
  881MOL0     C18861   4.567   6.828   6.965 -0.0677 -0.3951 -0.9103
  881MOL0     C18862   4.614   6.889   7.105 -0.4473  0.3867  0.3827
  881MOL0     C18863   4.518   6.862   7.209  0.5676  0.3741 -0.9346
  881MOL0     C18864   4.418   6.844   7.278 -0.2381  1.2721 -1.6369
  881MOL0     C18865   5.040   6.893   6.749 -0.5534 -0.2308  0.0765
  881MOL0     C18866   5.176   6.928   6.736 -0.3691  1.0097  0.0635
  881MOL0     C18867   5.265   6.822   6.778  0.6397  0.0117  0.2998
  881MOL0     H18868   5.646   7.144   6.748 -1.5316  0.8226  0.1919
  881MOL0     H18869   5.879   7.136   6.675 -0.5073  0.3541 -1.4570
  881MOL0     H18870   6.012   6.975   6.271  1.2393  2.0026 -2.3769
  881MOL0     H18871   5.955   7.141   6.287  3.7829  3.0711 -1.4863
  881MOL0     H18872   6.165   7.213   6.392  1.7511 -0.6107  0.7161
  881MOL0     H18873   6.162   7.177   6.215 -4.5959 -0.8115 -1.0870
  881MOL0     H18874   6.249   6.949   6.296 -2.7165  0.4620  1.3933
  881MOL0     H18875   6.277   7.026   6.456 -0.9125  2.2974  0.5440
  881MOL0     H18876   6.420   7.135   6.213 -2.7247 -0.7142  0.2827
  881MOL0     H18877   6.435   7.200   6.375  0.4519 -0.6899  2.4757
  881MOL0     H18878   6.530   7.016   6.460 -1.8566  1.3273 -0.4676
  881MOL0     H18879   6.489   6.905   6.323 -0.2134  1.4745 -0.8451
  881MOL0     H18880   6.719   6.951   6.317  0.4746  1.2514  2.6301
  881MOL0     H18881   6.656   7.049   6.185  3.1422 -2.4866 -0.3139
  881MOL0     H18882   6.741   7.122   6.462 -2.3110 -2.8533  0.1519
  881MOL0     H18883   6.663   7.248   6.367  0.1662  1.3948 -1.4866
  881MOL0     H18884   6.823   7.186   6.166  2.3301 -0.3878 -1.6301
  881MOL0     H18885   6.869   7.290   6.307 -2.2972 -0.9127  3.6251
  881MOL0     H18886   7.027   7.147   6.491 -0.7010  0.5861 -1.3356
  881MOL0     H18887   7.252   6.997   6.546 -2.0650  1.0675 -1.7102
  881MOL0     H18888   7.227   6.827   6.476  2.8419 -1.7649 -1.1778
  881MOL0     H18889   7.412   7.027   6.359 -1.0217  0.0453 -1.6356
  881MOL0     H18890   7.440   6.908   6.474 -2.3428  0.7084  1.7566
  881MOL0     H18891   7.352   6.861   6.187 -2.6538  1.0927  2.4198
  881MOL0     H18892   7.366   6.732   6.303  1.0751 -1.6545 -1.8219
  881MOL0     H18893   7.603   6.910   6.210 -2.1897  0.5604 -1.1018
  881MOL0     H18894   7.557   6.747   6.142 -1.0848  0.4485 -1.1010
  881MOL0     H18895   7.797   6.895   6.160  2.1084 -1.4623 -1.6486
  881MOL0     H18896   8.035   6.932   6.211  0.3350 -0.5334  0.7810
  881MOL0     H18897   8.406   6.957   6.498 -3.1093 -3.6690 -3.0456
  881MOL0     H18898   8.601   6.973   6.638 -1.8446  1.1968  0.5143
  881MOL0     H18899   8.827   6.595   6.693  1.9669  0.2037 -2.1094
  881MOL0     H18900   8.826   6.743   6.605  1.9727  2.7889  1.0982
  881MOL0     H18901   9.039   6.716   6.739  1.6419  0.3515  2.1332
  881MOL0     H18902   8.939   6.859   6.791 -2.7053  0.7032  0.0554
  881MOL0     H18903   8.846   6.761   6.965  1.6916  0.6244  1.8214
  881MOL0     H18904   8.946   6.606   6.947  2.9360 -0.8517 -1.6193
  881MOL0     H18905   9.022   6.751   7.116 -1.0524  1.4480  0.2729
  881MOL0     H18906   9.053   6.891   7.018  0.5765 -0.6276  2.4074
  881MOL0     H18907   9.204   6.752   6.878 -3.1718  1.1454 -0.9310
  881MOL0     H18908   9.175   6.614   6.989 -0.0850 -0.5993 -1.8300
  881MOL0     H18909   9.235   6.744   7.186  0.2297 -0.4066  0.1142
  881MOL0     H18910   9.366   6.704   7.081  0.0237  1.0188 -0.0196
  881MOL0     H18911   9.257   6.967   7.137  1.7172  0.4500  0.4743
  881MOL0     H18912   9.350   6.947   6.989 -4.1241  0.2799 -0.9367
  881MOL0     H18913   9.433   6.887   7.265  0.6522 -2.3061  0.1091
  881MOL0     H18914   9.537   6.853   7.135  0.9163 -0.0360  2.7853
  881MOL0     H18915   8.542   6.554   6.756  1.4387  0.2220 -0.1068
  881MOL0     H18916   8.348   6.545   6.635  1.3780 -2.0965 -1.6804
  881MOL0     H18917   8.010   6.648   6.530  2.5538  1.5370 -0.5600
  881MOL0     H18918   7.772   6.611   6.483 -2.9854  0.8889 -1.3954
  881MOL0     H18919   5.798   6.915   6.329 -1.4581  0.1323 -0.8151
  881MOL0     H18920   5.545   6.896   6.407 -0.4331 -1.9983  0.9493
  881MOL0     H18921   5.132   7.230   6.596 -1.8325 -0.0579 -1.2368
  881MOL0     H18922   4.902   7.168   6.630 -0.7893 -1.2139  0.0676
  881MOL0     H18923   4.814   6.971   6.937 -1.5255  3.5766 -1.8590
  881MOL0     H18924   4.818   6.805   6.875 -0.8757 -0.5883 -3.4926
  881MOL0     H18925   4.599   6.855   6.755  0.0131  1.5925 -0.4242
  881MOL0     H18926   4.585   7.003   6.843 -1.4754 -0.3348 -1.4565
  881MOL0     H18927   4.598   6.724   6.958  1.2878 -0.0895  0.1318
  881MOL0     H18928   4.460   6.844   6.948 -0.1364  0.0631 -0.0959
  881MOL0     H18929   4.714   6.845   7.112  0.7110  1.9901 -3.4040
  881MOL0     H18930   4.634   6.997   7.098 -1.8960  0.7505  1.4697
  881MOL0     H18931   4.337   6.819   7.345  1.3051  0.1635 -0.0743
  881MOL0     H18932   5.009   6.796   6.787 -0.0444 -0.4738 -0.1235
  881MOL0     H18933   5.237   6.788   6.878 -2.0748 -0.1510 -0.4380
  881MOL0     H18934   5.244   6.740   6.708 -0.5249  1.6716 -1.3927
  881MOL0     H18935   5.372   6.841   6.782  1.3556 -3.0739 -1.1745
  882MOL0     O18936  11.058   2.858   2.056  0.0996  0.6241 -0.7721
  882MOL0     C18937  10.966   2.844   2.139 -0.4144  0.0307 -0.3243
  882MOL0     O18938  10.987   2.784   2.262  0.4722  0.1616  0.0328
  882MOL0     C18939  11.099   2.710   2.290 -0.5477 -1.4352 -0.1751
  882MOL0     C18940  11.163   2.732   2.413 -1.1391 -0.4092 -0.7929
  882MOL0     C18941  11.277   2.664   2.439 -0.3649 -0.6258  0.0801
  882MOL0     C18942  11.338   2.578   2.347 -0.7624  0.6493 -0.6446
  882MOL0     O18943  11.446   2.501   2.386  0.0428 -0.6280  0.2180
  882MOL0     C18944  11.509   2.507   2.511 -0.2096  1.0197 -0.6479
  882MOL0     C18945  11.607   2.620   2.527 -0.1968 -0.4839 -0.2050
  882MOL0     C18946  11.734   2.601   2.440  1.6582  0.3270 -0.5276
  882MOL0     C18947  11.846   2.711   2.464  0.0209  0.4771  0.0057
  882MOL0     C18948  11.968   2.691   2.373  0.3965  0.3371 -0.1353
  882MOL0     C18949  12.090   2.758   2.425 -0.3880  0.5549  0.0211
  882MOL0     C18950  12.209   2.702   2.342  0.3515  0.0885 -0.0889
  882MOL0     C18951  12.340   2.751   2.407 -0.7795  0.2288  0.7340
  882MOL0     N18952  12.425   2.836   2.323 -0.2913  0.2746 -0.0524
  882MOL0     C18953  12.469   2.794   2.199 -0.4304 -0.3505  0.3697
  882MOL0     C18954  12.547   2.894   2.153 -0.3845 -1.2623 -0.5616
  882MOL0     C18955  12.601   2.905   2.011 -0.5360 -0.0227 -0.1086
  882MOL0     C18956  12.749   2.899   2.004 -0.2466 -0.5357 -0.1108
  882MOL0     C18957  12.815   2.991   2.113  1.2047 -1.0894  0.0917
  882MOL0     C18958  12.945   3.049   2.073 -0.0291  1.2486  0.1270
  882MOL0     O18959  13.039   2.938   2.052  0.4581 -0.5034  0.3001
  882MOL0     C18960  13.169   2.975   2.018  0.9413  0.1988  0.6433
  882MOL0     C18961  13.231   3.102   2.020 -0.5201  0.8449  0.0228
  882MOL0     C18962  13.370   3.118   1.984  0.8277 -1.0610 -0.7161
  882MOL0     C18963  13.441   3.013   1.930 -0.6189  0.1701  0.9731
  882MOL0     C18964  13.581   3.038   1.883 -0.2371 -0.1631 -0.5736
  882MOL0     O18965  13.638   2.935   1.804 -0.1001 -0.2698  0.1420
  882MOL0     C18966  13.758   2.952   1.739 -1.2550 -0.1734 -0.5144
  882MOL0     C18967  13.788   2.838   1.668  0.8688 -0.0798  0.4834
  882MOL0     C18968  13.910   2.818   1.617  0.5389 -0.7340 -0.3074
  882MOL0     C18969  14.015   2.918   1.618 -0.4741 -0.4049  0.3159
  882MOL0     O18970  14.141   2.883   1.577 -0.4470  0.2314  0.6577
  882MOL0     C18971  14.238   2.993   1.544 -0.1171 -0.1458  0.6410
  882MOL0     C18972  14.350   2.937   1.464 -0.1451  0.1228  0.3657
  882MOL0     C18973  14.449   3.046   1.419  0.3752 -0.2447 -0.1805
  882MOL0     C18974  14.566   2.988   1.350  0.0687  0.1257  0.0402
  882MOL0     C18975  14.687   3.089   1.337  0.3360  0.0225 -0.4433
  882MOL0     C18976  14.812   3.035   1.261  0.6083 -0.5985  0.5121
  882MOL0     C18977  14.894   2.946   1.342 -0.3216 -0.0967 -0.0630
  882MOL0     C18978  15.047   2.964   1.334 -0.3285 -0.4374  0.3702
  882MOL0    Cl18979  15.107   2.992   1.166  0.0205  0.3240  0.2861
  882MOL0     C18980  13.980   3.041   1.677 -0.4534  0.4664 -0.0027
  882MOL0     C18981  13.859   3.052   1.741  0.3761  0.4718  0.0675
  882MOL0     O18982  13.629   3.148   1.922 -0.1485 -0.1441  0.4405
  882MOL0     C18983  13.380   2.890   1.923 -0.3311 -0.2252  0.5325
  882MOL0     C18984  13.244   2.874   1.964  0.1659  0.4830 -0.5491
  882MOL0     N18985  12.553   2.991   2.248  0.3907 -0.1386 -0.5073
  882MOL0     N18986  12.469   2.962   2.341 -0.3144 -0.1419 -0.4654
  882MOL0     C18987  11.273   2.554   2.223 -0.2492 -0.1265  0.5116
  882MOL0     C18988  11.149   2.620   2.199  0.4054 -0.1959  0.2607
  882MOL0     C18989  10.834   2.901   2.112  0.8756 -0.1691 -0.1053
  882MOL0     C18990  10.797   2.916   1.977  0.1343 -0.2520 -0.1521
  882MOL0     C18991  10.672   2.970   1.947 -0.4399  0.3100  0.7986
  882MOL0     C18992  10.574   3.005   2.037  0.1176 -0.0894 -0.3839
  882MOL0     O18993  10.447   3.041   1.993  0.8540  0.3430 -0.5082
  882MOL0     C18994  10.337   3.067   2.081  1.0920  0.5177  0.2105
  882MOL0     C18995  10.246   3.174   2.031  0.5764  0.2267  0.5450
  882MOL0     C18996  10.134   3.222   2.122 -0.4819 -0.0260  0.6934
  882MOL0     C18997  10.036   3.317   2.052  0.0211 -0.0294 -0.1598
  882MOL0     C18998   9.944   3.251   1.953 -0.1515  1.4908 -1.4339
  882MOL0     C18999   9.884   3.215   1.853  0.3535  1.0421 -0.6734
  882MOL0     C19000  10.620   2.983   2.171  0.6879  0.2016  0.2128
  882MOL0     C19001  10.739   2.937   2.211 -0.0911 -0.3433 -0.7938
  882MOL0     C19002  10.772   2.937   2.354 -0.8136 -1.1876 -0.0132
  882MOL0     H19003  11.128   2.804   2.487  4.7575  1.9588  0.2395
  882MOL0     H19004  11.324   2.686   2.534  1.5143  3.0105 -1.4944
  882MOL0     H19005  11.431   2.520   2.586 -1.0008 -0.1715 -1.2349
  882MOL0     H19006  11.546   2.406   2.528 -1.5103  0.6648  0.1684
  882MOL0     H19007  11.635   2.625   2.632 -1.0435  0.1461 -0.0014
  882MOL0     H19008  11.567   2.721   2.518 -0.6439 -0.7077 -0.8087
  882MOL0     H19009  11.703   2.616   2.336 -0.2510 -1.0926 -0.2206
  882MOL0     H19010  11.770   2.497   2.443  0.9098  0.0497 -0.8915
  882MOL0     H19011  11.803   2.808   2.440 -0.6160 -0.5277 -3.4018
  882MOL0     H19012  11.878   2.712   2.569  1.8137  1.8752 -0.5217
  882MOL0     H19013  11.985   2.583   2.370  1.8066  0.4956  1.0575
  882MOL0     H19014  11.944   2.724   2.272  1.3646  3.0352  0.4259
  882MOL0     H19015  12.083   2.867   2.413 -1.2445  0.4052 -1.0642
  882MOL0     H19016  12.095   2.735   2.531 -1.7224 -2.3803 -0.4351
  882MOL0     H19017  12.191   2.736   2.240 -2.8234 -0.9444  0.0202
  882MOL0     H19018  12.217   2.593   2.338  2.7091  0.1854  0.2329
  882MOL0     H19019  12.329   2.797   2.505  0.2942 -0.4008  1.1684
  882MOL0     H19020  12.401   2.660   2.412  1.2803  1.6171  2.7621
  882MOL0     H19021  12.431   2.716   2.134  0.8395 -1.0218  0.3837
  882MOL0     H19022  12.560   2.836   1.936  1.5207 -0.7313 -0.6482
  882MOL0     H19023  12.570   3.007   1.987  1.3590  0.6947  0.3367
  882MOL0     H19024  12.781   2.795   2.016 -0.5663 -0.8091 -1.4877
  882MOL0     H19025  12.786   2.929   1.906 -0.5168  0.1752 -0.0033
  882MOL0     H19026  12.829   2.933   2.205 -2.2016 -1.0357  0.7798
  882MOL0     H19027  12.746   3.075   2.122  2.1389 -0.3132  0.0590
  882MOL0     H19028  12.994   3.119   2.141  1.0695  3.7525 -2.9503
  882MOL0     H19029  12.947   3.104   1.978 -0.4380 -1.8931 -1.8345
  882MOL0     H19030  13.183   3.187   2.066  0.7407  2.0419 -0.7962
  882MOL0     H19031  13.407   3.219   1.994 -3.0195  0.4013  0.4322
  882MOL0     H19032  13.714   2.759   1.678 -0.0095 -0.0531 -3.8499
  882MOL0     H19033  13.937   2.720   1.578  1.9230 -0.7207  0.5274
  882MOL0     H19034  14.193   3.065   1.475 -0.1520 -0.8463 -0.0832
  882MOL0     H19035  14.279   3.050   1.628  4.5409  0.6937 -1.8282
  882MOL0     H19036  14.402   2.863   1.527  2.3445  1.6140  0.2176
  882MOL0     H19037  14.304   2.890   1.377  1.0333  1.1649 -0.8683
  882MOL0     H19038  14.407   3.112   1.343  1.0956 -2.7596 -2.9131
  882MOL0     H19039  14.476   3.107   1.506 -2.5761  0.3904  0.3913
  882MOL0     H19040  14.540   2.953   1.250 -1.9170 -0.4280  0.7112
  882MOL0     H19041  14.612   2.909   1.410  1.7160  1.9320  1.2898
  882MOL0     H19042  14.724   3.119   1.435  0.5121 -1.4291 -0.0569
  882MOL0     H19043  14.658   3.175   1.276 -0.2028  0.9786  1.1025
  882MOL0     H19044  14.770   2.979   1.177 -0.5480  2.4833 -1.1299
  882MOL0     H19045  14.868   3.118   1.216 -1.1332  0.2965 -0.1042
  882MOL0     H19046  14.876   2.841   1.316 -1.4652 -0.2485  1.2484
  882MOL0     H19047  14.866   2.950   1.447 -0.6118  0.0235 -0.1432
  882MOL0     H19048  15.082   3.053   1.386 -1.7184  0.2205  0.2268
  882MOL0     H19049  15.093   2.876   1.380  2.2106  0.5275 -0.1921
  882MOL0     H19050  14.049   3.125   1.681  0.7623 -0.2168 -3.4860
  882MOL0     H19051  13.839   3.138   1.804 -0.6478 -1.4693  2.5711
  882MOL0     H19052  13.436   2.814   1.869 -0.2109  1.3227 -1.6440
  882MOL0     H19053  13.193   2.779   1.955 -0.9131  1.0261 -0.3102
  882MOL0     H19054  11.319   2.484   2.155  1.3365  2.6702 -1.5449
  882MOL0     H19055  11.090   2.620   2.108 -1.4324 -0.0882  1.4047
  882MOL0     H19056  10.868   2.892   1.898  0.8771 -1.7876  0.9400
  882MOL0     H19057  10.654   2.976   1.840  1.6101 -2.3041  0.1927
  882MOL0     H19058  10.370   3.089   2.182 -0.9083 -1.4688  1.3958
  882MOL0     H19059  10.274   2.978   2.090  1.9965 -0.4890 -2.3292
  882MOL0     H19060  10.207   3.132   1.938  1.5806  2.5745 -1.0497
  882MOL0     H19061  10.309   3.263   2.019 -2.2710  2.7092  2.5000
  882MOL0     H19062  10.175   3.275   2.208  1.4620 -0.6182  0.1849
  882MOL0     H19063  10.079   3.131   2.148  0.4150 -0.5443  0.7942
  882MOL0     H19064   9.971   3.363   2.127 -0.6795  0.2794 -0.9412
  882MOL0     H19065  10.090   3.394   1.995  0.6931 -0.6261 -0.3461
  882MOL0     H19066   9.829   3.199   1.763 -0.4839 -0.2886  0.0328
  882MOL0     H19067  10.549   3.016   2.247 -0.8854 -0.8812 -0.7131
  882MOL0     H19068  10.878   2.958   2.371 -1.4728  4.4572 -0.8495
  882MOL0     H19069  10.722   3.027   2.392  0.9712 -0.1118 -0.1056
  882MOL0     H19070  10.724   2.847   2.394 -2.2794 -0.9596 -1.1573
  883MOL0     O19071   9.345   9.183   7.176 -0.0449  0.3030 -0.0881
  883MOL0     C19072   9.224   9.219   7.189 -0.1611 -0.5658  0.0686
  883MOL0     O19073   9.187   9.349   7.218  0.3332 -0.0926  0.1029
  883MOL0     C19074   9.288   9.432   7.261 -0.4893 -1.4727  0.3613
  883MOL0     C19075   9.391   9.471   7.176 -0.1510 -0.3577 -0.8279
  883MOL0     C19076   9.489   9.564   7.219  0.7282  0.4540  0.3230
  883MOL0     C19077   9.475   9.615   7.355  0.5842  0.3946  1.1533
  883MOL0     O19078   9.573   9.696   7.394  0.0863  0.0787  0.7511
  883MOL0     C19079   9.593   9.712   7.529 -0.2864 -0.6287  0.4088
  883MOL0     C19080   9.730   9.780   7.542  0.7422 -0.2073  1.0769
  883MOL0     C19081   9.848   9.727   7.451  0.1709  0.3828 -0.1537
  883MOL0     C19082   9.978   9.721   7.531  0.1946 -0.6677 -0.3826
  883MOL0     C19083  10.105   9.704   7.451 -0.0657  0.6771  0.7277
  883MOL0     C19084  10.170   9.837   7.420 -0.1796 -0.1234  0.3041
  883MOL0     C19085  10.311   9.834   7.345 -0.1902  0.0429 -0.1194
  883MOL0     C19086  10.315   9.957   7.259 -0.0863 -0.5252  0.0225
  883MOL0     N19087  10.466   9.968   7.228 -0.1642  0.0116 -0.5743
  883MOL0     C19088  10.520   9.956   7.095 -0.0616 -0.0906 -0.9599
  883MOL0     C19089  10.652   9.969   7.116 -0.8234 -0.4319 -0.2487
  883MOL0     C19090  10.752   9.989   7.009  0.0954  0.1726  1.0682
  883MOL0     C19091  10.870   9.898   7.039  0.9175  0.1811  0.1961
  883MOL0     C19092  10.973   9.903   6.931  0.6673 -0.2849  0.4512
  883MOL0     C19093  11.081   9.797   6.962 -0.6878  0.2078 -0.1663
  883MOL0     O19094  11.185   9.814   6.863 -0.0347 -0.6696 -0.3292
  883MOL0     C19095  11.302   9.738   6.861  0.4503 -0.1788 -0.7135
  883MOL0     C19096  11.380   9.745   6.747 -0.6804  0.3311 -0.3068
  883MOL0     C19097  11.501   9.676   6.742  0.0400  1.0117 -0.1208
  883MOL0     C19098  11.542   9.607   6.857 -0.1709 -0.1486  0.0183
  883MOL0     C19099  11.662   9.532   6.854 -0.6594  1.0756  0.2813
  883MOL0     O19100  11.725   9.537   6.740  0.2733 -0.2243 -0.2801
  883MOL0     C19101  11.858   9.544   6.732 -0.7241 -0.4664  0.3041
  883MOL0     C19102  11.942   9.585   6.839 -0.2304  0.0756 -0.5681
  883MOL0     C19103  12.079   9.588   6.817  1.2707 -0.5348 -0.3148
  883MOL0     C19104  12.137   9.542   6.702 -0.3080 -0.0576  1.1380
  883MOL0     O19105  12.272   9.553   6.674  0.1773 -0.4672 -0.8985
  883MOL0     C19106  12.360   9.535   6.790  0.0377  0.7438  0.5447
  883MOL0     C19107  12.354   9.392   6.838  0.0874 -1.0416 -0.2580
  883MOL0     C19108  12.450   9.365   6.947  0.0172  0.4992  0.2562
  883MOL0     C19109  12.419   9.431   7.078 -1.0053 -0.4614 -0.0311
  883MOL0     C19110  12.473   9.335   7.192  0.6121  0.1701  0.3541
  883MOL0     C19111  12.492   9.400   7.326 -0.6056  0.5236  0.3992
  883MOL0     C19112  12.534   9.300   7.432  0.7152  1.1838 -0.2904
  883MOL0     C19113  12.573   9.359   7.571 -0.2541 -0.6682 -0.0739
  883MOL0    Cl19114  12.745   9.402   7.553  0.1222  0.3800  0.1375
  883MOL0     C19115  12.058   9.503   6.592  0.0551  0.1269 -0.8305
  883MOL0     C19116  11.917   9.501   6.608 -0.7832 -0.4291  0.1662
  883MOL0     O19117  11.705   9.471   6.951 -0.2477 -0.5379 -0.2475
  883MOL0     C19118  11.461   9.596   6.970  0.3054  0.0133 -0.6783
  883MOL0     C19119  11.340   9.660   6.980  0.2729 -0.6448  0.9471
  883MOL0     N19120  10.679   9.966   7.256 -0.2995 -0.0304 -0.0781
  883MOL0     N19121  10.567   9.965   7.320 -0.5075  0.0653  0.3409
  883MOL0     C19122   9.370   9.563   7.436 -0.0749  0.2389 -0.7247
  883MOL0     C19123   9.272   9.484   7.391  0.8267  0.1583  0.7427
  883MOL0     C19124   9.118   9.112   7.182 -0.3760  0.5211 -0.3456
  883MOL0     C19125   9.164   8.982   7.141  0.1193 -0.8070 -0.2881
  883MOL0     C19126   9.078   8.876   7.119 -1.0280 -0.0752  0.8291
  883MOL0     C19127   8.935   8.895   7.137  0.0518  0.0921  0.3857
  883MOL0     O19128   8.842   8.791   7.124 -1.4196 -0.2791  0.9272
  883MOL0     C19129   8.894   8.661   7.077  0.6018 -0.4476 -0.8048
  883MOL0     C19130   8.780   8.575   7.051 -0.1033 -0.0062 -0.2553
  883MOL0     C19131   8.703   8.627   6.932  0.3231  0.7357 -0.6418
  883MOL0     C19132   8.570   8.538   6.901  0.7388 -0.5280 -0.5012
  883MOL0     C19133   8.599   8.398   6.867 -1.2734  0.2416  0.1479
  883MOL0     C19134   8.624   8.284   6.850 -0.1964  0.5215  0.5095
  883MOL0     C19135   8.891   9.018   7.178  0.2827 -0.0951  0.0898
  883MOL0     C19136   8.978   9.129   7.199  0.3722 -0.2548 -0.5899
  883MOL0     C19137   8.923   9.268   7.217  0.0875 -0.0669 -0.0228
  883MOL0     H19138   9.397   9.428   7.076 -1.7590 -3.1186  0.1415
  883MOL0     H19139   9.564   9.597   7.148 -0.5489 -0.1330 -1.3476
  883MOL0     H19140   9.507   9.769   7.567 -1.2050 -0.7825 -1.3308
  883MOL0     H19141   9.597   9.614   7.577  0.8489 -1.4667 -1.2999
  883MOL0     H19142   9.763   9.740   7.638 -0.8265  1.5291  2.3853
  883MOL0     H19143   9.722   9.888   7.548  3.1123 -0.0497  2.7409
  883MOL0     H19144   9.853   9.807   7.376  0.7438 -0.6848 -1.2790
  883MOL0     H19145   9.820   9.631   7.407  2.7327 -0.6325  0.2665
  883MOL0     H19146   9.980   9.812   7.591 -2.9861 -1.7689  1.6507
  883MOL0     H19147   9.966   9.637   7.601 -1.7489 -1.3254 -1.4248
  883MOL0     H19148  10.184   9.653   7.508 -0.4067  1.1958  1.6848
  883MOL0     H19149  10.086   9.657   7.354 -4.4610  0.9207  1.2576
  883MOL0     H19150  10.095   9.878   7.352 -1.9920 -2.7268  0.5847
  883MOL0     H19151  10.174   9.899   7.510 -2.5725  1.8479 -0.8101
  883MOL0     H19152  10.324   9.741   7.289 -1.9409  0.1117 -0.6978
  883MOL0     H19153  10.396   9.837   7.414 -0.3365  2.1513  0.0227
  883MOL0     H19154  10.268   9.936   7.163 -1.7112  1.3295  0.3384
  883MOL0     H19155  10.274  10.050   7.302 -2.6274  0.0989 -3.2989
  883MOL0     H19156  10.465   9.953   7.002 -1.3710  0.5342 -0.2348
  883MOL0     H19157  10.710   9.968   6.910 -0.0613 -1.7204  1.5065
  883MOL0     H19158  10.781  10.094   7.024 -2.5529  1.0624  0.4719
  883MOL0     H19159  10.915   9.919   7.137  2.5271 -0.8763 -0.2775
  883MOL0     H19160  10.825   9.798   7.037  1.7157 -0.2389  1.7697
  883MOL0     H19161  11.022  10.001   6.925  2.8419 -1.3783 -1.8119
  883MOL0     H19162  10.926   9.874   6.836 -0.6377 -2.6115  1.7338
  883MOL0     H19163  11.043   9.694   6.969 -1.7514  0.6980  1.8355
  883MOL0     H19164  11.114   9.825   7.062 -2.0910  3.0880 -0.4040
  883MOL0     H19165  11.341   9.792   6.657  1.6073  0.4099 -1.3494
  883MOL0     H19166  11.556   9.688   6.650 -1.9972  0.9751 -1.4074
  883MOL0     H19167  11.901   9.627   6.929 -0.4950  0.9932 -1.1042
  883MOL0     H19168  12.126   9.636   6.902 -2.2378  1.7466  0.5575
  883MOL0     H19169  12.463   9.546   6.754  0.7002 -1.1544  1.7192
  883MOL0     H19170  12.340   9.612   6.865  3.8165  2.5861 -0.0997
  883MOL0     H19171  12.250   9.373   6.866 -1.6123  1.6494 -3.7824
  883MOL0     H19172  12.389   9.325   6.759  1.2713 -3.2984  2.0836
  883MOL0     H19173  12.462   9.257   6.963  0.8232  0.4947 -0.3199
  883MOL0     H19174  12.541   9.408   6.905  1.8701 -0.9420  2.5138
  883MOL0     H19175  12.311   9.446   7.091 -0.7506  0.3957  1.2131
  883MOL0     H19176  12.463   9.531   7.074 -0.2442 -0.8122 -0.4168
  883MOL0     H19177  12.562   9.285   7.155  0.8753  1.4260 -0.7604
  883MOL0     H19178  12.399   9.254   7.196 -1.5698  2.0508  0.0789
  883MOL0     H19179  12.565   9.482   7.316 -1.0619  0.6156 -3.3569
  883MOL0     H19180  12.402   9.453   7.358  0.2899  1.2431  1.8931
  883MOL0     H19181  12.623   9.252   7.389  0.1949 -1.1669  1.0505
  883MOL0     H19182  12.449   9.232   7.447 -0.3825  1.8464 -3.0139
  883MOL0     H19183  12.520   9.453   7.590 -1.9545 -1.1855 -1.8778
  883MOL0     H19184  12.554   9.292   7.655 -1.5550 -0.6406 -0.3209
  883MOL0     H19185  12.097   9.456   6.502  1.2804 -0.9765  0.2422
  883MOL0     H19186  11.842   9.480   6.533 -1.3561 -0.0560  0.6267
  883MOL0     H19187  11.493   9.530   7.050 -5.9977 -0.8787  1.7154
  883MOL0     H19188  11.276   9.647   7.066 -0.1047  2.4893  1.2656
  883MOL0     H19189   9.356   9.601   7.537 -1.4236 -0.0473 -0.7813
  883MOL0     H19190   9.190   9.459   7.457  1.0326  1.2036  1.4251
  883MOL0     H19191   9.270   8.972   7.120  0.0583  0.1392 -1.1445
  883MOL0     H19192   9.129   8.785   7.088 -0.6655  1.2012 -2.9004
  883MOL0     H19193   8.958   8.622   7.157 -0.1266  0.9903  0.5433
  883MOL0     H19194   8.951   8.673   6.985  1.0922  1.7165 -0.2897
  883MOL0     H19195   8.717   8.563   7.140  1.3087  0.6306  0.8763
  883MOL0     H19196   8.823   8.475   7.039  1.3580  0.2565  2.0841
  883MOL0     H19197   8.765   8.641   6.843 -1.5308  1.1305 -1.9316
  883MOL0     H19198   8.654   8.722   6.957 -0.8625 -0.3678  1.4648
  883MOL0     H19199   8.507   8.531   6.990  2.2820  0.6016  0.7517
  883MOL0     H19200   8.509   8.582   6.822 -0.8372 -3.8595 -1.3233
  883MOL0     H19201   8.634   8.177   6.844 -1.9965  0.2258  2.1092
  883MOL0     H19202   8.783   9.023   7.178  0.2064  0.3303 -3.0029
  883MOL0     H19203   8.815   9.261   7.230  0.3577 -3.2429  1.3559
  883MOL0     H19204   8.973   9.318   7.301  2.8966  1.7810 -2.5834
  883MOL0     H19205   8.942   9.332   7.130  2.0624 -1.2323 -0.5221
  884MOL0     O19206   4.274   8.951  10.200  0.4473 -0.3276  0.5646
  884MOL0     C19207   4.218   8.848  10.241 -0.0851 -0.0273 -0.8838
  884MOL0     O19208   4.293   8.738  10.283 -0.1218  0.7287 -0.2914
  884MOL0     C19209   4.409   8.691  10.224 -0.8769 -0.3564  0.5598
  884MOL0     C19210   4.444   8.731  10.093 -0.3274 -0.2912  0.1886
  884MOL0     C19211   4.552   8.679  10.031 -0.2864  0.2820 -0.2181
  884MOL0     C19212   4.629   8.582  10.093  0.1219 -0.8006  0.3316
  884MOL0     O19213   4.746   8.522  10.052  0.2551  1.0660  0.2965
  884MOL0     C19214   4.818   8.583   9.953 -0.5893  0.0063 -0.1364
  884MOL0     C19215   4.962   8.551   9.957  0.4052  0.2015  0.8234
  884MOL0     C19216   4.987   8.406   9.910  0.5239 -1.3355 -0.1345
  884MOL0     C19217   5.142   8.383   9.911 -0.4170  0.1834  0.5708
  884MOL0     C19218   5.198   8.241   9.909 -0.3636 -0.1528  0.8990
  884MOL0     C19219   5.353   8.261   9.892  0.2109 -0.7425 -0.4628
  884MOL0     C19220   5.428   8.126   9.903 -0.3147  0.4386 -0.4654
  884MOL0     C19221   5.577   8.135   9.952  0.1777 -0.1034 -0.7731
  884MOL0     N19222   5.656   8.212   9.866  0.2446 -0.3855  0.9718
  884MOL0     C19223   5.693   8.176   9.738 -0.8690  0.0746 -0.4251
  884MOL0     C19224   5.770   8.287   9.695  0.4934  0.5648 -0.6772
  884MOL0     C19225   5.842   8.299   9.562 -0.3476  0.3239  0.2464
  884MOL0     C19226   5.972   8.383   9.573  1.2492  0.3034  0.2381
  884MOL0     C19227   6.048   8.369   9.444 -0.2600  1.1200  0.4156
  884MOL0     C19228   6.168   8.455   9.454  0.3167 -0.4602  0.4453
  884MOL0     O19229   6.259   8.411   9.353  0.8759 -0.6913  0.8876
  884MOL0     C19230   6.379   8.478   9.352  0.4531 -0.2947  0.4301
  884MOL0     C19231   6.475   8.408   9.274  0.2879  0.1638 -0.8848
  884MOL0     C19232   6.609   8.452   9.272  0.7339 -0.9049  0.1854
  884MOL0     C19233   6.646   8.569   9.337 -0.1888  0.1069 -0.1629
  884MOL0     C19234   6.775   8.632   9.323  0.6299 -0.1071  0.1571
  884MOL0     O19235   6.839   8.609   9.202 -0.1267  0.6220  0.5039
  884MOL0     C19236   6.967   8.663   9.192 -0.0999  0.1468  0.0405
  884MOL0     C19237   6.984   8.757   9.087 -0.7368  0.7239  0.0934
  884MOL0     C19238   7.115   8.814   9.073 -0.1997 -0.5844 -0.8089
  884MOL0     C19239   7.220   8.790   9.161  0.0968  0.4372  0.4147
  884MOL0     O19240   7.340   8.839   9.128  0.0124  0.1299  0.3419
  884MOL0     C19241   7.400   8.909   9.234  0.4263  0.4663 -0.3920
  884MOL0     C19242   7.530   8.994   9.197  0.0500 -0.9261 -0.0454
  884MOL0     C19243   7.647   8.912   9.156 -0.1194  0.4887 -0.0356
  884MOL0     C19244   7.790   8.978   9.144 -0.1333  0.0461  0.2786
  884MOL0     C19245   7.843   9.012   9.279  0.4592  1.2670 -0.8678
  884MOL0     C19246   7.988   9.041   9.279  0.2402 -0.1791  0.7615
  884MOL0     C19247   8.049   9.054   9.413  0.2908 -0.4918  0.0207
  884MOL0     C19248   8.166   8.950   9.443  0.1623 -0.2943 -0.0454
  884MOL0    Cl19249   8.125   8.768   9.425  0.1534  0.3561 -0.3801
  884MOL0     C19250   7.201   8.703   9.263  0.2898  0.6825  0.4086
  884MOL0     C19251   7.079   8.640   9.283  0.4954 -0.8833  0.8270
  884MOL0     O19252   6.825   8.677   9.429 -0.2270  0.3941  0.3865
  884MOL0     C19253   6.541   8.628   9.416  0.0744  0.3816  0.4789
  884MOL0     C19254   6.413   8.585   9.432 -0.3205 -0.1474 -0.3048
  884MOL0     N19255   5.767   8.384   9.792 -0.5538 -0.8853  0.2317
  884MOL0     N19256   5.702   8.333   9.893  0.3636 -0.0649  0.2986
  884MOL0     C19257   4.587   8.534  10.213  0.0111 -0.1311  0.1987
  884MOL0     C19258   4.485   8.597  10.277 -0.4426 -0.0184  0.6295
  884MOL0     C19259   4.072   8.838  10.242 -0.2591 -0.1565 -0.1406
  884MOL0     C19260   3.996   8.963  10.228 -0.0522 -0.4738  0.1127
  884MOL0     C19261   3.852   8.959  10.215  0.2836  0.0122 -0.3516
  884MOL0     C19262   3.788   8.840  10.235  0.2660  0.0863  0.1824
  884MOL0     O19263   3.655   8.826  10.213  0.7348 -0.0361 -0.3490
  884MOL0     C19264   3.568   8.916  10.283  0.3411  0.1133  0.7120
  884MOL0     C19265   3.450   8.848  10.353 -0.6993  0.0432  0.0538
  884MOL0     C19266   3.372   8.934  10.448 -0.0697  0.4018 -0.4325
  884MOL0     C19267   3.244   8.864  10.494  0.2635 -0.3286  0.2772
  884MOL0     C19268   3.276   8.744  10.571  0.1246 -0.0104  0.9932
  884MOL0     C19269   3.292   8.633  10.615 -1.0679 -0.0905  0.5655
  884MOL0     C19270   3.865   8.720  10.255  1.8492 -1.1934  0.6924
  884MOL0     C19271   4.001   8.716  10.250 -0.4166 -0.0124 -0.3158
  884MOL0     C19272   4.066   8.574  10.222 -0.3034 -0.7214  0.2427
  884MOL0     H19273   4.390   8.797  10.026 -0.9816 -2.3740 -1.4272
  884MOL0     H19274   4.579   8.708   9.930 -0.8189 -1.0198 -0.7428
  884MOL0     H19275   4.766   8.569   9.858 -0.3947  1.5639 -0.4958
  884MOL0     H19276   4.811   8.692   9.959 -1.2657  0.0162 -0.9053
  884MOL0     H19277   5.009   8.566  10.054  0.2899 -0.5582  1.0013
  884MOL0     H19278   5.010   8.616   9.883 -0.8726  0.5112  0.2336
  884MOL0     H19279   4.958   8.398   9.805 -0.6669 -1.0176  0.1510
  884MOL0     H19280   4.926   8.339   9.972  0.1183 -4.0657 -3.2414
  884MOL0     H19281   5.188   8.436   9.827  2.1994  2.9239  3.4131
  884MOL0     H19282   5.175   8.432  10.003 -3.2501  1.1312  1.1768
  884MOL0     H19283   5.176   8.188  10.003  0.5089 -1.1841  0.5334
  884MOL0     H19284   5.149   8.181   9.832  1.9491 -0.5788 -0.3320
  884MOL0     H19285   5.370   8.311   9.795 -0.8636  1.3998  0.3654
  884MOL0     H19286   5.390   8.319   9.977 -1.7249  0.5785 -0.4360
  884MOL0     H19287   5.425   8.072   9.807  0.3803 -0.7122  0.1362
  884MOL0     H19288   5.370   8.053   9.960 -0.0438 -2.8175 -3.9287
  884MOL0     H19289   5.566   8.177  10.053  2.8056  2.3037 -1.3468
  884MOL0     H19290   5.623   8.036   9.961  1.6271  0.7294  3.7385
  884MOL0     H19291   5.679   8.078   9.692  3.1059 -0.0422 -1.7801
  884MOL0     H19292   5.862   8.196   9.530  1.9338  1.5313 -2.6222
  884MOL0     H19293   5.771   8.340   9.489  0.8970  1.4305 -0.3862
  884MOL0     H19294   5.939   8.488   9.580 -0.9412 -0.3878  1.0377
  884MOL0     H19295   6.032   8.364   9.662  1.6965  2.5764  0.5012
  884MOL0     H19296   5.988   8.384   9.353  1.4872  2.3664 -0.5995
  884MOL0     H19297   6.086   8.266   9.446  0.8435  1.2998 -3.1429
  884MOL0     H19298   6.206   8.429   9.553 -0.3237  0.4948  0.9521
  884MOL0     H19299   6.148   8.561   9.439 -3.9108 -0.7425  2.6694
  884MOL0     H19300   6.439   8.329   9.208 -0.9107  0.5692 -0.7364
  884MOL0     H19301   6.670   8.379   9.220 -1.0854 -0.7621 -2.2958
  884MOL0     H19302   6.893   8.785   9.035 -3.2848 -0.7550  3.3769
  884MOL0     H19303   7.131   8.896   9.003 -0.9060 -0.1080 -0.4310
  884MOL0     H19304   7.324   8.978   9.269  0.1562 -0.6519  1.3445
  884MOL0     H19305   7.421   8.846   9.321 -4.3224 -0.4114  0.3685
  884MOL0     H19306   7.494   9.057   9.115 -1.7763 -1.9578 -0.0874
  884MOL0     H19307   7.556   9.058   9.282 -0.0798  0.7922 -1.2501
  884MOL0     H19308   7.652   8.824   9.220 -0.7313 -0.2392 -0.9503
  884MOL0     H19309   7.635   8.868   9.056  0.7706 -0.8463  0.4157
  884MOL0     H19310   7.789   9.074   9.092  1.7970  1.5240  2.7033
  884MOL0     H19311   7.862   8.917   9.089  0.8168  0.1032  1.4132
  884MOL0     H19312   7.832   8.916   9.330  2.1944  0.6657 -1.5467
  884MOL0     H19313   7.783   9.093   9.321 -0.5275  0.1833 -0.1373
  884MOL0     H19314   8.041   8.966   9.220  0.4842 -0.0923  0.8696
  884MOL0     H19315   7.995   9.138   9.229  0.4834  0.0166  1.1747
  884MOL0     H19316   7.984   9.052   9.501 -0.6163  0.5853 -0.5986
  884MOL0     H19317   8.091   9.154   9.410 -0.7644 -0.0288 -3.2602
  884MOL0     H19318   8.245   8.972   9.371  0.5066 -1.0185  0.1027
  884MOL0     H19319   8.199   8.981   9.543  1.3586  1.2517 -0.8668
  884MOL0     H19320   7.285   8.668   9.322  0.4377  2.0706  1.0600
  884MOL0     H19321   7.061   8.558   9.353 -1.2209 -0.2165  1.2170
  884MOL0     H19322   6.577   8.716   9.468 -0.2715  1.3793 -0.9235
  884MOL0     H19323   6.359   8.638   9.510  2.5254 -0.8534  2.3756
  884MOL0     H19324   4.645   8.451  10.254  0.5526 -0.2049 -0.6948
  884MOL0     H19325   4.455   8.559  10.374  0.2669 -0.6525  0.6088
  884MOL0     H19326   4.045   9.060  10.218 -1.0078 -0.0889 -1.0531
  884MOL0     H19327   3.795   9.042  10.176 -1.1656 -1.1454 -0.7841
  884MOL0     H19328   3.533   8.993  10.213  2.0520  0.7283  0.4680
  884MOL0     H19329   3.626   8.974  10.355  1.3270  0.5668 -0.4059
  884MOL0     H19330   3.487   8.760  10.405 -3.2419  0.2461  2.4229
  884MOL0     H19331   3.386   8.818  10.270 -2.2339 -3.9148  2.4109
  884MOL0     H19332   3.332   9.022  10.398 -0.4438 -0.9250 -2.5679
  884MOL0     H19333   3.443   8.957  10.529  1.9052 -2.4386 -1.1913
  884MOL0     H19334   3.192   8.934  10.559 -2.2456 -1.5783 -0.2472
  884MOL0     H19335   3.190   8.823  10.407 -0.3756  1.2420 -0.1009
  884MOL0     H19336   3.314   8.539  10.662  1.9017  0.1429 -0.1491
  884MOL0     H19337   3.808   8.628  10.262  0.1616 -0.1301  1.9657
  884MOL0     H19338   4.110   8.536  10.315  2.0432  0.6566 -0.2215
  884MOL0     H19339   4.001   8.494  10.184  0.1189 -0.9323 -0.0394
  884MOL0     H19340   4.148   8.584  10.151 -0.7787 -1.8651 -0.4947
  885MOL0     O19341   9.567  11.282   6.467 -0.0868  0.5604  0.2386
  885MOL0     C19342   9.555  11.228   6.575  0.1371 -0.9828 -0.2353
  885MOL0     O19343   9.653  11.225   6.674  0.3007 -0.4690  0.3838
  885MOL0     C19344   9.774  11.288   6.664  0.1322  0.0926 -0.2501
  885MOL0     C19345   9.819  11.388   6.576  0.8302  0.6009 -0.0803
  885MOL0     C19346   9.949  11.446   6.581  0.2804  0.5421  0.7735
  885MOL0     C19347  10.044  11.395   6.670  0.3794 -0.6996 -0.5224
  885MOL0     O19348  10.171  11.421   6.682  0.3849 -0.3851  0.1236
  885MOL0     C19349  10.221  11.557   6.673 -0.2984  0.9093  0.5451
  885MOL0     C19350  10.266  11.581   6.529 -0.1477 -0.5253 -0.2081
  885MOL0     C19351  10.401  11.511   6.500 -0.2297 -1.2678  0.5686
  885MOL0     C19352  10.376  11.388   6.406 -0.6404  0.0222 -0.0071
  885MOL0     C19353  10.499  11.297   6.374 -0.2002 -0.0689 -0.1409
  885MOL0     C19354  10.566  11.230   6.492  0.1006 -0.4151 -0.0899
  885MOL0     C19355  10.467  11.140   6.579  0.4861  0.6559  1.0282
  885MOL0     C19356  10.517  11.120   6.717 -0.2575  0.4781  0.3635
  885MOL0     N19357  10.504  11.239   6.808 -0.2313  0.6438  0.2747
  885MOL0     C19358  10.388  11.268   6.865  0.6998 -0.0038 -0.9345
  885MOL0     C19359  10.404  11.374   6.955 -0.3464  0.3233  0.0600
  885MOL0     C19360  10.305  11.437   7.049  0.2123  0.6276  0.6589
  885MOL0     C19361  10.342  11.413   7.203 -0.1138 -0.1214  0.6428
  885MOL0     C19362  10.465  11.479   7.265  0.5692  0.6649 -0.3332
  885MOL0     C19363  10.482  11.616   7.207  0.2298  0.0600 -0.1934
  885MOL0     O19364  10.576  11.702   7.273 -0.3301  0.1320  0.8306
  885MOL0     C19365  10.709  11.679   7.268  0.4523  0.8509 -0.1810
  885MOL0     C19366  10.789  11.776   7.323 -0.5531  0.2629 -0.6114
  885MOL0     C19367  10.926  11.764   7.311  0.7506 -0.6751 -0.7070
  885MOL0     C19368  10.997  11.657   7.247  0.0596 -0.0917 -0.8777
  885MOL0     C19369  11.142  11.642   7.244 -0.6902  0.2518 -0.0393
  885MOL0     O19370  11.219  11.756   7.244  0.3805 -0.0150  0.2820
  885MOL0     C19371  11.360  11.756   7.250  0.7647 -0.8936 -0.5271
  885MOL0     C19372  11.425  11.863   7.317  0.1266  1.0848 -0.0102
  885MOL0     C19373  11.566  11.863   7.328  0.3605  0.0492 -0.1234
  885MOL0     C19374  11.646  11.765   7.268 -0.8924  0.2015  0.3045
  885MOL0     O19375  11.784  11.787   7.247  0.9768 -0.4589  0.1915
  885MOL0     C19376  11.872  11.703   7.328  0.3192 -0.3322 -0.6346
  885MOL0     C19377  12.014  11.721   7.273 -0.5341  0.9989 -0.5775
  885MOL0     C19378  12.086  11.846   7.248  0.7874  0.0583 -0.9181
  885MOL0     C19379  12.065  11.964   7.355 -0.7557  0.0251  0.1442
  885MOL0     C19380  12.120  11.935   7.498  0.7034  0.5668  0.2866
  885MOL0     C19381  12.274  11.948   7.502  0.3098  0.8234 -0.0561
  885MOL0     C19382  12.349  11.865   7.606  0.0566  0.1812  0.6250
  885MOL0     C19383  12.475  11.933   7.641  0.2564  0.2971 -0.2955
  885MOL0    Cl19384  12.579  11.936   7.491  0.4892  0.2910 -0.2288
  885MOL0     C19385  11.581  11.668   7.195  0.0846 -0.0382 -0.0856
  885MOL0     C19386  11.439  11.660   7.191 -0.2547 -0.4163 -0.4616
  885MOL0     O19387  11.180  11.532   7.219  0.4283  0.1401 -0.0856
  885MOL0     C19388  10.918  11.554   7.196 -0.3874  0.5435  0.0567
  885MOL0     C19389  10.776  11.568   7.206 -0.0882  0.2462 -0.3907
  885MOL0     N19390  10.539  11.406   6.937 -0.5913  0.7874 -1.0707
  885MOL0     N19391  10.591  11.330   6.846 -0.6384 -0.6581  0.4836
  885MOL0     C19392  10.001  11.290   6.764 -0.7424  0.3657  0.7671
  885MOL0     C19393   9.869  11.250   6.764  0.3352 -0.2887 -0.0881
  885MOL0     C19394   9.417  11.180   6.607 -0.5511  0.1740  0.7069
  885MOL0     C19395   9.316  11.189   6.505 -0.2634  0.1217  0.2624
  885MOL0     C19396   9.188  11.134   6.526  0.3812  0.1361 -0.2569
  885MOL0     C19397   9.151  11.078   6.644  0.5737  0.2537 -0.7705
  885MOL0     O19398   9.026  11.027   6.677  0.8885 -0.2842  0.1243
  885MOL0     C19399   8.916  11.025   6.582 -0.1565  0.2769  0.4069
  885MOL0     C19400   8.783  10.999   6.650  0.4251  0.1621 -0.6503
  885MOL0     C19401   8.673  10.947   6.553  0.5890  0.1432 -0.9851
  885MOL0     C19402   8.541  10.912   6.627 -0.7006 -0.1263 -0.0163
  885MOL0     C19403   8.461  11.025   6.649 -0.1959 -0.4640  0.5178
  885MOL0     C19404   8.392  11.122   6.639  0.1997 -0.0751  0.0932
  885MOL0     C19405   9.234  11.077   6.750 -0.8552  0.2384  0.2005
  885MOL0     C19406   9.365  11.128   6.735 -0.5307  0.0373 -1.2190
  885MOL0     C19407   9.447  11.132   6.861  0.3484  0.2477  0.0753
  885MOL0     H19408   9.756  11.430   6.498 -3.3042 -2.1943  1.4015
  885MOL0     H19409   9.972  11.524   6.509  0.8817  0.6665  1.1014
  885MOL0     H19410  10.141  11.627   6.700 -1.2072 -0.1844  0.7666
  885MOL0     H19411  10.298  11.571   6.749  2.7740 -1.8013 -1.8175
  885MOL0     H19412  10.284  11.686   6.505  1.8548 -0.8640 -0.3676
  885MOL0     H19413  10.194  11.534   6.461 -1.0928 -1.0503  1.1106
  885MOL0     H19414  10.437  11.479   6.599  0.0103 -0.1760  0.8595
  885MOL0     H19415  10.477  11.577   6.456 -0.1305 -1.0924  0.9943
  885MOL0     H19416  10.295  11.334   6.456 -0.2776  0.3702  0.9963
  885MOL0     H19417  10.337  11.426   6.311 -2.1358 -2.0771 -0.3096
  885MOL0     H19418  10.452  11.219   6.314 -0.0370 -2.0380  2.1120
  885MOL0     H19419  10.584  11.343   6.323  0.2106 -0.4148  0.2293
  885MOL0     H19420  10.648  11.168   6.454  1.3253  1.1585 -0.1305
  885MOL0     H19421  10.602  11.312   6.554  0.8399 -0.5840 -0.2840
  885MOL0     H19422  10.468  11.044   6.526 -0.6363  0.6056  1.0889
  885MOL0     H19423  10.371  11.191   6.578  0.3792  0.4841 -0.5667
  885MOL0     H19424  10.469  11.034   6.766  0.4271 -0.1034  0.0212
  885MOL0     H19425  10.623  11.097   6.715 -0.3860 -0.0781 -0.5886
  885MOL0     H19426  10.290  11.222   6.865  0.2589  0.7837  1.4258
  885MOL0     H19427  10.294  11.544   7.030 -1.8942  0.1798 -1.0113
  885MOL0     H19428  10.211  11.384   7.031  0.6520  0.0021  0.1123
  885MOL0     H19429  10.261  11.459   7.260 -0.7255  0.2608 -0.5022
  885MOL0     H19430  10.337  11.309   7.235  1.4579  0.5466  3.4574
  885MOL0     H19431  10.547  11.408   7.250  1.2774  0.9556  1.8330
  885MOL0     H19432  10.452  11.488   7.373 -1.1546 -0.5839 -0.3763
  885MOL0     H19433  10.386  11.668   7.208 -0.7247 -1.5569 -1.6211
  885MOL0     H19434  10.508  11.617   7.101  1.6953  2.5496  0.1015
  885MOL0     H19435  10.740  11.865   7.362  0.4652  0.0309  1.3123
  885MOL0     H19436  10.978  11.851   7.347  0.8399 -0.9911 -0.0555
  885MOL0     H19437  11.392  11.954   7.365 -2.9174  0.6662 -1.1204
  885MOL0     H19438  11.616  11.944   7.379  0.1290  2.8753 -3.8936
  885MOL0     H19439  11.862  11.740   7.430 -0.8977 -1.5188 -0.2915
  885MOL0     H19440  11.842  11.598   7.324  2.2928 -1.0274  1.3184
  885MOL0     H19441  12.078  11.661   7.338 -1.6054  2.6028  2.1457
  885MOL0     H19442  12.010  11.678   7.173 -1.0619 -1.1260  0.3153
  885MOL0     H19443  12.189  11.809   7.240  0.2357 -1.6827 -0.3711
  885MOL0     H19444  12.058  11.895   7.154 -0.0267 -1.3786 -1.4505
  885MOL0     H19445  11.957  11.978   7.363 -0.9757 -0.4150 -1.7680
  885MOL0     H19446  12.104  12.050   7.301 -1.0282  0.7036  1.0113
  885MOL0     H19447  12.082  11.838   7.530  2.9860  0.5941  3.5065
  885MOL0     H19448  12.088  12.004   7.576 -2.3240  1.9879 -1.9975
  885MOL0     H19449  12.312  11.924   7.402  2.0178  1.2850  0.4523
  885MOL0     H19450  12.293  12.056   7.505  1.6958  0.8945 -4.4333
  885MOL0     H19451  12.374  11.769   7.560  1.4477  0.2244  1.2298
  885MOL0     H19452  12.287  11.857   7.696 -0.5181  0.6850  0.2768
  885MOL0     H19453  12.466  12.029   7.693 -1.3645  0.4485 -0.8071
  885MOL0     H19454  12.531  11.871   7.712  0.2211 -0.0647 -0.5757
  885MOL0     H19455  11.643  11.606   7.131 -0.6705  0.5771 -1.4642
  885MOL0     H19456  11.378  11.594   7.130 -0.3850 -1.3282  0.6243
  885MOL0     H19457  10.952  11.456   7.164 -0.2066  0.7173 -0.2811
  885MOL0     H19458  10.707  11.495   7.165 -2.4557  1.0639  1.8925
  885MOL0     H19459  10.046  11.255   6.856 -1.5625 -0.7761  0.7547
  885MOL0     H19460   9.834  11.186   6.844  2.5628  0.0014  1.1869
  885MOL0     H19461   9.342  11.245   6.415 -0.2468  1.2562  0.9608
  885MOL0     H19462   9.116  11.145   6.446  0.4126 -2.5575 -0.7475
  885MOL0     H19463   8.932  10.943   6.511 -3.0712 -0.1273  0.0705
  885MOL0     H19464   8.907  11.117   6.524  1.4257  0.3279  0.1942
  885MOL0     H19465   8.762  11.096   6.697  1.5186  1.4599 -2.6716
  885MOL0     H19466   8.803  10.922   6.724 -0.1842 -0.0274 -0.6738
  885MOL0     H19467   8.707  10.848   6.523 -0.0789 -1.0813  1.9359
  885MOL0     H19468   8.663  11.014   6.467  0.1667 -2.1312 -2.8171
  885MOL0     H19469   8.481  10.842   6.568 -0.3212  0.5991 -1.3200
  885MOL0     H19470   8.574  10.862   6.718  0.8318 -1.5008 -1.2817
  885MOL0     H19471   8.315  11.191   6.613  0.1674 -0.9320 -2.2981
  885MOL0     H19472   9.196  11.038   6.844 -0.3295 -0.0133  0.3104
  885MOL0     H19473   9.386  11.118   6.951  1.6265  0.4801  1.0148
  885MOL0     H19474   9.526  11.056   6.855  0.3761 -0.0946  3.0840
  885MOL0     H19475   9.486  11.233   6.872  0.0582  0.5970 -1.8417
  886MOL0     O19476   3.073   9.103   3.750  0.4313 -0.0650 -0.0388
  886MOL0     C19477   3.009   9.023   3.690 -0.0041 -0.0223  0.2763
  886MOL0     O19478   3.074   8.933   3.603 -0.1179  0.2254  0.1230
  886MOL0     C19479   3.197   8.977   3.557  0.4972  0.4979 -0.3257
  886MOL0     C19480   3.201   9.069   3.449 -0.4676  0.6758 -0.8159
  886MOL0     C19481   3.324   9.109   3.393 -0.7187  0.1922 -0.1307
  886MOL0     C19482   3.448   9.070   3.443 -0.1738  0.0978  1.4194
  886MOL0     O19483   3.560   9.104   3.370 -0.0106  0.4913  0.3363
  886MOL0     C19484   3.660   9.165   3.444  0.4758  1.0356  0.0370
  886MOL0     C19485   3.745   9.265   3.375  0.0568  0.0534  0.1514
  886MOL0     C19486   3.872   9.278   3.468  0.8043 -0.2858  0.1470
  886MOL0     C19487   3.967   9.383   3.412 -0.6061 -0.3656  0.4468
  886MOL0     C19488   4.066   9.434   3.521  0.7417  0.5614  0.1754
  886MOL0     C19489   4.186   9.508   3.461  1.2873  0.3192 -0.2705
  886MOL0     C19490   4.235   9.605   3.565  0.3879  0.0851 -1.2445
  886MOL0     C19491   4.301   9.716   3.500  1.1752 -1.4270 -0.3318
  886MOL0     N19492   4.406   9.687   3.402 -0.7043 -0.1278  0.4246
  886MOL0     C19493   4.396   9.709   3.265  0.1062  0.0125 -0.7718
  886MOL0     C19494   4.509   9.663   3.207  0.3429  0.6020  1.6298
  886MOL0     C19495   4.550   9.688   3.059  0.4901 -0.5411  0.0858
  886MOL0     C19496   4.694   9.727   3.034 -0.1724 -0.1929  0.7076
  886MOL0     C19497   4.723   9.755   2.888  0.0112  0.1282  0.1890
  886MOL0     C19498   4.867   9.774   2.846 -0.1231 -0.6807  1.1680
  886MOL0     O19499   4.961   9.668   2.888 -0.7266 -0.4303 -0.6477
  886MOL0     C19500   5.091   9.679   2.858 -0.1968 -0.7386  0.2983
  886MOL0     C19501   5.143   9.775   2.771 -0.4262  0.4232 -0.3485
  886MOL0     C19502   5.280   9.777   2.740 -0.5279 -0.6347 -0.6889
  886MOL0     C19503   5.360   9.679   2.789 -0.1894  0.9960  0.3140
  886MOL0     C19504   5.504   9.679   2.762  0.2763 -0.1671 -0.0347
  886MOL0     O19505   5.586   9.620   2.845  0.5463  0.3433 -0.2270
  886MOL0     C19506   5.717   9.614   2.828  0.3530  0.0952  0.6293
  886MOL0     C19507   5.767   9.480   2.820 -0.2128 -1.0367  0.1729
  886MOL0     C19508   5.904   9.467   2.805 -0.0794 -0.4189  0.2711
  886MOL0     C19509   5.999   9.576   2.804  0.4335 -0.5288 -0.3587
  886MOL0     O19510   6.131   9.574   2.798 -0.2828  0.4528 -0.3656
  886MOL0     C19511   6.198   9.445   2.793 -0.1506 -0.1708 -0.0067
  886MOL0     C19512   6.350   9.464   2.755  1.0381 -0.0824 -0.1107
  886MOL0     C19513   6.428   9.344   2.798 -0.1534  0.4204  0.3059
  886MOL0     C19514   6.412   9.230   2.694 -0.0929  0.1163  0.0925
  886MOL0     C19515   6.457   9.102   2.751 -0.4500 -0.2330 -0.3491
  886MOL0     C19516   6.604   9.096   2.806  0.2716 -0.5312 -0.3700
  886MOL0     C19517   6.605   9.010   2.942 -0.2712  0.1090 -0.0857
  886MOL0     C19518   6.743   8.986   3.000  0.1725 -0.1959  0.7801
  886MOL0    Cl19519   6.839   9.133   3.014  0.0873  0.0064  0.2917
  886MOL0     C19520   5.941   9.705   2.810  0.4438 -0.4229  0.6740
  886MOL0     C19521   5.804   9.723   2.826  0.2474  1.3322  1.0794
  886MOL0     O19522   5.538   9.749   2.674 -0.2627  0.2474 -1.2878
  886MOL0     C19523   5.309   9.586   2.875 -0.4057  0.2822  0.1189
  886MOL0     C19524   5.172   9.588   2.914 -0.2666 -0.7080 -0.5077
  886MOL0     N19525   4.581   9.608   3.311 -0.5585  0.2444 -0.0264
  886MOL0     N19526   4.525   9.621   3.429 -0.0564 -0.1652  0.5858
  886MOL0     C19527   3.441   8.972   3.546  0.6398 -1.2038 -0.0461
  886MOL0     C19528   3.321   8.919   3.597  0.1395 -0.3770 -0.2432
  886MOL0     C19529   2.866   9.009   3.710 -0.3571  0.3080 -0.0036
  886MOL0     C19530   2.807   8.887   3.681  0.6151  0.7132  0.3019
  886MOL0     C19531   2.672   8.858   3.702  0.1277  0.2804  0.6902
  886MOL0     C19532   2.588   8.957   3.757 -0.4133  0.0525 -0.5185
  886MOL0     O19533   2.456   8.946   3.774 -0.0980  0.3238  0.7654
  886MOL0     C19534   2.374   8.838   3.718  0.6864  0.3104 -0.2197
  886MOL0     C19535   2.228   8.884   3.696 -0.6649  0.0811 -0.2297
  886MOL0     C19536   2.158   8.929   3.822 -0.5460  0.1438  0.1887
  886MOL0     C19537   2.022   8.992   3.785 -0.2622 -0.7124  0.0445
  886MOL0     C19538   1.921   8.890   3.778  0.3045  1.0838  0.2715
  886MOL0     C19539   1.828   8.811   3.786 -0.5454  0.6759 -0.1515
  886MOL0     C19540   2.646   9.082   3.781  0.0453  0.1255  0.7484
  886MOL0     C19541   2.784   9.108   3.758  0.4133 -0.3537 -1.3538
  886MOL0     C19542   2.827   9.249   3.788 -0.3575 -0.2081  0.0657
  886MOL0     H19543   3.105   9.112   3.421 -0.4278  2.5698  1.6538
  886MOL0     H19544   3.328   9.185   3.316  1.8825  0.6210  0.3053
  886MOL0     H19545   3.611   9.202   3.535 -1.5468 -0.2478 -0.4761
  886MOL0     H19546   3.713   9.073   3.473 -1.8135 -0.7938 -1.2869
  886MOL0     H19547   3.690   9.360   3.368 -0.3692 -0.1165  1.0216
  886MOL0     H19548   3.757   9.241   3.270 -2.1020 -3.0656  0.4882
  886MOL0     H19549   3.917   9.179   3.476 -2.6331 -1.8563  2.8957
  886MOL0     H19550   3.838   9.313   3.567 -0.2616  2.8197 -1.1855
  886MOL0     H19551   4.024   9.337   3.330 -2.6307 -0.1725 -1.1614
  886MOL0     H19552   3.913   9.470   3.373 -2.4948 -1.3934  0.6610
  886MOL0     H19553   4.020   9.507   3.588 -0.0195  0.4910 -0.2702
  886MOL0     H19554   4.097   9.343   3.573 -0.1102  0.7108  0.9637
  886MOL0     H19555   4.260   9.432   3.432  1.0190  0.0424 -0.2338
  886MOL0     H19556   4.154   9.569   3.376 -0.1619  2.1684  1.4993
  886MOL0     H19557   4.305   9.547   3.625 -0.0688  2.0996  1.4452
  886MOL0     H19558   4.166   9.655   3.635  1.3780  0.2521 -0.3729
  886MOL0     H19559   4.222   9.775   3.455 -0.5787 -3.1040  0.4109
  886MOL0     H19560   4.356   9.778   3.571  2.2040 -0.3776 -1.9997
  886MOL0     H19561   4.324   9.766   3.207 -3.0414 -1.9003  0.9441
  886MOL0     H19562   4.524   9.606   2.992 -2.7138 -2.3718  3.2244
  886MOL0     H19563   4.497   9.778   3.026  0.4953 -0.4115  0.4255
  886MOL0     H19564   4.721   9.818   3.087 -2.6589  0.8000  0.3972
  886MOL0     H19565   4.759   9.645   3.066 -2.9538 -5.1896 -4.4437
  886MOL0     H19566   4.667   9.844   2.856  0.4448 -0.6699 -3.2379
  886MOL0     H19567   4.674   9.679   2.826 -2.7763 -0.9946  3.4319
  886MOL0     H19568   4.909   9.871   2.875  1.3589 -0.0037 -2.5973
  886MOL0     H19569   4.875   9.786   2.737  3.2110  0.4879  1.4229
  886MOL0     H19570   5.072   9.854   2.754  0.7495  0.8382 -4.1943
  886MOL0     H19571   5.315   9.862   2.682 -2.0323 -0.0468 -0.7870
  886MOL0     H19572   5.700   9.394   2.819 -4.4435  1.9029 -0.5895
  886MOL0     H19573   5.945   9.370   2.780  1.3784  0.2337  0.0164
  886MOL0     H19574   6.163   9.399   2.886  0.3447  0.5482  0.5462
  886MOL0     H19575   6.168   9.375   2.715  4.6518 -0.3144 -2.0680
  886MOL0     H19576   6.348   9.495   2.649 -1.3881  0.6163  0.0740
  886MOL0     H19577   6.393   9.552   2.804  1.9908  0.4983 -1.8835
  886MOL0     H19578   6.531   9.380   2.787 -0.0039 -0.7571 -4.2113
  886MOL0     H19579   6.402   9.302   2.895 -0.0412  0.4656  0.3553
  886MOL0     H19580   6.482   9.242   2.611 -1.5909 -2.1520 -1.6141
  886MOL0     H19581   6.313   9.224   2.648 -0.0601 -1.1299  0.1643
  886MOL0     H19582   6.440   9.024   2.677 -0.2073 -3.6657  2.9237
  886MOL0     H19583   6.386   9.072   2.829 -0.7361  0.6144 -0.2733
  886MOL0     H19584   6.661   9.049   2.726 -0.2494  2.9241 -3.0153
  886MOL0     H19585   6.656   9.190   2.825  2.8583 -2.2453  1.6999
  886MOL0     H19586   6.559   8.913   2.925  0.4271 -0.0773 -0.9511
  886MOL0     H19587   6.534   9.046   3.018 -1.3782  1.2352 -1.6023
  886MOL0     H19588   6.742   8.942   3.100 -2.7638  0.4156  1.1249
  886MOL0     H19589   6.801   8.925   2.931  0.6428  1.7316 -0.6269
  886MOL0     H19590   6.012   9.787   2.801  0.9790 -0.9595 -0.0847
  886MOL0     H19591   5.761   9.823   2.836 -4.9971 -0.4117 -0.7314
  886MOL0     H19592   5.387   9.525   2.920  1.3878  1.6502 -1.0035
  886MOL0     H19593   5.115   9.519   2.975  0.2210  0.6568  1.5991
  886MOL0     H19594   3.533   8.921   3.574  1.9533 -0.9081 -3.3710
  886MOL0     H19595   3.303   8.847   3.676 -2.3710  1.1368  0.6917
  886MOL0     H19596   2.864   8.801   3.648  0.1989 -0.4803  2.5323
  886MOL0     H19597   2.642   8.759   3.668  2.4382 -0.5526  0.8904
  886MOL0     H19598   2.375   8.747   3.779  0.7594 -0.2561 -1.0480
  886MOL0     H19599   2.412   8.810   3.620  0.4717 -0.8688  0.0215
  886MOL0     H19600   2.168   8.807   3.646 -1.9577  2.6773 -2.9935
  886MOL0     H19601   2.237   8.964   3.622 -0.9338 -0.7851 -1.2284
  886MOL0     H19602   2.211   8.998   3.888 -2.0893 -0.6666  2.3944
  886MOL0     H19603   2.147   8.839   3.883  4.4275 -1.0983 -0.3011
  886MOL0     H19604   2.008   9.063   3.866  1.2039 -0.1713 -0.1319
  886MOL0     H19605   2.009   9.042   3.688 -1.0876 -3.6893 -1.5002
  886MOL0     H19606   1.759   8.729   3.787  0.9833 -0.6624 -0.5152
  886MOL0     H19607   2.579   9.159   3.818 -0.5384 -0.1227  0.2177
  886MOL0     H19608   2.741   9.315   3.803 -0.7566 -0.8250  0.5008
  886MOL0     H19609   2.882   9.258   3.882 -2.5764 -0.7833  1.4958
  886MOL0     H19610   2.881   9.282   3.699 -1.5091  0.9246 -0.2491
  887MOL0     O19611   1.186   7.024   2.032  0.1151 -0.9514 -0.2229
  887MOL0     C19612   1.161   6.982   2.146 -0.3847 -0.0115 -1.4412
  887MOL0     O19613   1.099   7.054   2.243  0.4916  0.1757 -0.2431
  887MOL0     C19614   1.043   7.177   2.216 -0.6187 -0.0371 -0.5152
  887MOL0     C19615   1.121   7.287   2.176 -0.7626 -0.3859  0.0453
  887MOL0     C19616   1.054   7.408   2.141 -0.5749  0.0519 -1.2680
  887MOL0     C19617   0.910   7.420   2.153 -0.1028  0.2510 -0.2576
  887MOL0     O19618   0.854   7.546   2.115  0.0572  0.1418 -0.1126
  887MOL0     C19619   0.712   7.558   2.114  0.4800  0.1552 -0.0555
  887MOL0     C19620   0.680   7.708   2.124 -0.6475 -0.3465  0.3716
  887MOL0     C19621   0.741   7.777   2.249 -0.5697  1.1546 -0.2796
  887MOL0     C19622   0.722   7.924   2.254  0.0174  0.1446 -0.8900
  887MOL0     C19623   0.750   7.971   2.408  0.8558  0.5477 -0.4315
  887MOL0     C19624   0.726   8.126   2.413  0.0089 -0.1423 -0.3529
  887MOL0     C19625   0.821   8.204   2.316  0.1567 -0.1467  0.5318
  887MOL0     C19626   0.832   8.346   2.377  0.8009 -0.5437  0.2968
  887MOL0     N19627   0.909   8.431   2.284  0.5860 -0.0977  1.0272
  887MOL0     C19628   0.898   8.443   2.149 -0.2484  0.0942  0.9289
  887MOL0     C19629   0.983   8.550   2.115  0.9825  0.3298 -0.0755
  887MOL0     C19630   1.011   8.566   1.965  0.0587 -1.0154 -0.5064
  887MOL0     C19631   0.889   8.633   1.898 -0.1678  0.1733  0.2870
  887MOL0     C19632   0.863   8.569   1.753  0.2692 -0.3668  0.2558
  887MOL0     C19633   0.968   8.611   1.649  0.2316 -0.3012 -0.7078
  887MOL0     O19634   1.091   8.533   1.650 -0.7454 -0.4378  0.3786
  887MOL0     C19635   1.211   8.594   1.619  0.3814 -0.4970  0.5979
  887MOL0     C19636   1.210   8.714   1.546 -0.1976 -0.3531 -0.0532
  887MOL0     C19637   1.331   8.768   1.503  0.1929  0.3127  0.6204
  887MOL0     C19638   1.459   8.711   1.549 -0.3862  0.9829 -0.3640
  887MOL0     C19639   1.583   8.782   1.518 -0.0967  0.1053 -0.2683
  887MOL0     O19640   1.699   8.726   1.559 -0.2824  0.3654  0.0203
  887MOL0     C19641   1.827   8.778   1.558  0.1428 -0.3001  0.8608
  887MOL0     C19642   1.867   8.907   1.549 -0.0379 -0.5056 -0.0375
  887MOL0     C19643   1.999   8.951   1.556 -0.1212  0.3893  1.0938
  887MOL0     C19644   2.101   8.855   1.567  0.1997 -0.6281 -0.7056
  887MOL0     O19645   2.237   8.881   1.564 -0.2640  0.3445  0.2858
  887MOL0     C19646   2.279   8.928   1.438  0.0137  0.1797 -0.0593
  887MOL0     C19647   2.432   8.927   1.431 -0.4921 -0.3033 -0.0091
  887MOL0     C19648   2.473   8.980   1.297 -0.3247  0.0578  0.6827
  887MOL0     C19649   2.616   9.013   1.284 -0.2962  0.0554  0.1187
  887MOL0     C19650   2.660   9.043   1.150  0.7126 -0.9715  0.1704
  887MOL0     C19651   2.815   9.055   1.146 -0.3629  0.1235 -0.6931
  887MOL0     C19652   2.873   9.115   1.028  0.3938 -0.1804  0.7808
  887MOL0     C19653   3.028   9.139   1.028  0.0296  0.8421  0.5286
  887MOL0    Cl19654   3.070   9.222   0.878  0.2347  0.0782  0.1900
  887MOL0     C19655   2.068   8.721   1.565 -0.1285 -0.1830  0.2180
  887MOL0     C19656   1.931   8.684   1.556 -0.0581  0.5544 -0.5849
  887MOL0     O19657   1.570   8.883   1.450  0.7188  0.1900  0.0643
  887MOL0     C19658   1.453   8.600   1.639  0.0710 -0.6797  0.0213
  887MOL0     C19659   1.333   8.533   1.662  0.1131 -0.8450 -0.1819
  887MOL0     N19660   1.036   8.609   2.232 -1.6950  0.6302 -0.1016
  887MOL0     N19661   0.987   8.535   2.328  0.0270  0.2762  0.1462
  887MOL0     C19662   0.846   7.320   2.221 -0.3302  0.0392  0.6246
  887MOL0     C19663   0.912   7.198   2.244  0.1338 -0.2939 -0.4771
  887MOL0     C19664   1.202   6.840   2.179  0.1589  0.3152  0.7344
  887MOL0     C19665   1.290   6.765   2.095 -0.3524 -0.3317 -0.1077
  887MOL0     C19666   1.336   6.634   2.117  0.3112  0.3688 -0.6548
  887MOL0     C19667   1.279   6.559   2.218  0.4565 -0.0981  0.2845
  887MOL0     O19668   1.313   6.427   2.219  0.2353 -0.4340 -0.0434
  887MOL0     C19669   1.302   6.348   2.337 -0.8995  0.0358  0.1837
  887MOL0     C19670   1.425   6.382   2.435  1.3793  0.1842 -0.0715
  887MOL0     C19671   1.563   6.353   2.379 -0.0715  0.1147  0.3511
  887MOL0     C19672   1.664   6.359   2.489  0.6927  1.0343 -0.0600
  887MOL0     C19673   1.793   6.331   2.441 -0.0355 -1.0478  0.2890
  887MOL0     C19674   1.907   6.321   2.404 -0.2421  0.7659 -0.3487
  887MOL0     C19675   1.197   6.634   2.306 -0.2558  0.0311  0.0234
  887MOL0     C19676   1.160   6.771   2.294  0.2428 -0.5030  0.4840
  887MOL0     C19677   1.075   6.819   2.394  1.0165 -0.4729 -0.3889
  887MOL0     H19678   1.228   7.288   2.161 -0.9875  1.6110 -1.9573
  887MOL0     H19679   1.112   7.492   2.105  0.0665  0.4715  0.6374
  887MOL0     H19680   0.679   7.514   2.019  0.3252 -2.0937  0.9882
  887MOL0     H19681   0.661   7.508   2.196 -1.9762  1.5559 -0.6306
  887MOL0     H19682   0.571   7.715   2.114 -0.7020 -2.1184 -0.6083
  887MOL0     H19683   0.716   7.760   2.034 -0.9478  2.8153  1.9408
  887MOL0     H19684   0.848   7.754   2.256 -1.2635 -2.5281  0.3280
  887MOL0     H19685   0.695   7.729   2.336  1.1265  0.1389  0.1085
  887MOL0     H19686   0.777   7.972   2.172 -1.2518 -2.4437 -3.4095
  887MOL0     H19687   0.617   7.935   2.226  0.3074 -0.2512 -2.2132
  887MOL0     H19688   0.692   7.912   2.479  0.9819  0.4765 -0.3863
  887MOL0     H19689   0.849   7.939   2.444  0.1607  0.1183  1.2181
  887MOL0     H19690   0.626   8.141   2.372  0.3802 -1.5558 -1.8913
  887MOL0     H19691   0.743   8.157   2.516  1.4049 -0.7160 -0.3836
  887MOL0     H19692   0.775   8.209   2.218  2.0918  2.1727 -0.3748
  887MOL0     H19693   0.918   8.153   2.316 -0.4373 -1.2915 -0.0300
  887MOL0     H19694   0.731   8.388   2.382  0.1123 -2.0204 -0.5998
  887MOL0     H19695   0.864   8.361   2.481 -1.9481  1.2519  0.9991
  887MOL0     H19696   0.832   8.390   2.082 -1.2396  1.4940  0.7367
  887MOL0     H19697   1.096   8.634   1.952 -0.8072  0.2376  0.2785
  887MOL0     H19698   1.031   8.465   1.927  1.8256 -1.7631  2.1587
  887MOL0     H19699   0.809   8.628   1.973 -0.2177  1.4108  0.3355
  887MOL0     H19700   0.902   8.737   1.869  0.9484 -0.2986 -0.9974
  887MOL0     H19701   0.762   8.590   1.717 -1.3653 -1.4965  3.7307
  887MOL0     H19702   0.854   8.461   1.764  2.2064 -0.4771  1.3500
  887MOL0     H19703   0.992   8.715   1.675 -0.9758 -0.4095  0.9934
  887MOL0     H19704   0.923   8.607   1.549 -3.3867  1.3678  0.6797
  887MOL0     H19705   1.121   8.759   1.502 -0.1371  0.6109  0.7818
  887MOL0     H19706   1.334   8.854   1.437  1.7915  1.6908  2.3848
  887MOL0     H19707   1.794   8.988   1.540 -0.0626 -0.6273 -0.9965
  887MOL0     H19708   2.023   9.056   1.565 -0.3477  0.8420 -2.2511
  887MOL0     H19709   2.234   8.876   1.353  1.4439  2.5819 -2.4466
  887MOL0     H19710   2.247   9.033   1.438  1.6508  0.7307  1.4952
  887MOL0     H19711   2.468   8.995   1.509  2.2939 -2.4200  0.6927
  887MOL0     H19712   2.469   8.827   1.452 -1.0184 -0.8111 -1.3531
  887MOL0     H19713   2.448   8.906   1.220  1.3223  1.2650 -1.1229
  887MOL0     H19714   2.420   9.072   1.269  0.8374  0.5008 -0.2168
  887MOL0     H19715   2.668   8.922   1.316 -1.5586 -0.1223  1.8094
  887MOL0     H19716   2.639   9.098   1.349 -2.2583  3.2093 -2.9618
  887MOL0     H19717   2.620   9.142   1.126  1.7034 -0.8166 -0.8998
  887MOL0     H19718   2.619   8.972   1.077  0.5321 -1.6432  0.9061
  887MOL0     H19719   2.851   9.105   1.237  0.2423 -1.4382 -0.0435
  887MOL0     H19720   2.860   8.956   1.158 -0.5359  0.0243 -0.8476
  887MOL0     H19721   2.827   9.212   1.005  2.7935  0.5370 -1.5968
  887MOL0     H19722   2.845   9.047   0.947 -0.3673  1.2359 -0.2075
  887MOL0     H19723   3.050   9.204   1.113  3.5599  1.3024 -0.5714
  887MOL0     H19724   3.090   9.049   1.037 -1.1294 -0.4510 -2.7789
  887MOL0     H19725   2.147   8.647   1.570 -1.4435 -1.9075 -2.4028
  887MOL0     H19726   1.904   8.579   1.548 -0.5909  0.5860  0.6739
  887MOL0     H19727   1.548   8.553   1.663  0.3140 -0.3139 -0.2118
  887MOL0     H19728   1.334   8.441   1.719  0.6163 -0.6192  0.1764
  887MOL0     H19729   0.737   7.325   2.226 -0.3454 -1.1962  2.2706
  887MOL0     H19730   0.867   7.119   2.303  1.8592 -0.8079  0.2124
  887MOL0     H19731   1.338   6.812   2.011  1.7980 -0.2219  1.1197
  887MOL0     H19732   1.404   6.590   2.045 -0.1338 -1.8804  0.2012
  887MOL0     H19733   1.299   6.240   2.322  1.5762 -0.2075  1.0635
  887MOL0     H19734   1.203   6.377   2.374 -0.3294  2.3367  0.0950
  887MOL0     H19735   1.403   6.316   2.519 -1.7181 -0.2935 -1.1205
  887MOL0     H19736   1.423   6.484   2.474  3.3327 -0.6402  2.4495
  887MOL0     H19737   1.581   6.434   2.307 -1.6112  0.5657  0.4272
  887MOL0     H19738   1.570   6.253   2.336 -2.0247 -0.8390  2.0444
  887MOL0     H19739   1.665   6.459   2.532 -3.6616  1.6103 -0.8562
  887MOL0     H19740   1.637   6.284   2.564  0.6433  1.9157  0.8192
  887MOL0     H19741   2.009   6.312   2.375 -1.0625 -0.5540 -3.2540
  887MOL0     H19742   1.157   6.582   2.392 -1.4811  0.4641 -0.2587
  887MOL0     H19743   1.099   6.915   2.441  0.7325 -0.1074 -0.9794
  887MOL0     H19744   0.975   6.830   2.352 -0.0877 -0.3164  2.1167
  887MOL0     H19745   1.074   6.753   2.481  0.0653 -1.6434 -1.2549
  888MOL0     O19746   3.099   8.515   7.846  1.0324  0.0096 -0.7772
  888MOL0     C19747   3.053   8.407   7.809  1.1253 -0.2815 -0.1081
  888MOL0     O19748   3.116   8.290   7.790 -0.3698  0.0888 -0.4437
  888MOL0     C19749   3.255   8.290   7.779 -0.0013 -0.4742 -0.0580
  888MOL0     C19750   3.322   8.320   7.658 -0.2546 -0.1907  0.7936
  888MOL0     C19751   3.460   8.322   7.651  0.1084  0.1407 -0.2493
  888MOL0     C19752   3.537   8.308   7.768  0.7262  0.8457  0.5708
  888MOL0     O19753   3.672   8.320   7.746 -0.3019  0.8217  0.3039
  888MOL0     C19754   3.760   8.359   7.857  0.1884 -0.4827  0.7985
  888MOL0     C19755   3.909   8.328   7.822  0.1393  0.3462  0.1673
  888MOL0     C19756   3.996   8.385   7.708 -0.6857 -0.4633 -0.4695
  888MOL0     C19757   4.049   8.525   7.744  0.7867  0.2171  0.0652
  888MOL0     C19758   4.070   8.620   7.623  0.4085 -0.1604 -0.3170
  888MOL0     C19759   4.184   8.598   7.523 -0.1196  0.5707 -0.2523
  888MOL0     C19760   4.329   8.634   7.578  0.2202  0.2611  0.7220
  888MOL0     C19761   4.429   8.640   7.472 -0.4827  0.2523 -0.3297
  888MOL0     N19762   4.556   8.689   7.529 -0.9204  0.2881  0.5657
  888MOL0     C19763   4.646   8.606   7.597  0.2639  0.5050 -0.0738
  888MOL0     C19764   4.747   8.688   7.641 -0.0116 -0.1940  0.0706
  888MOL0     C19765   4.861   8.645   7.733 -0.3605 -0.0265 -0.1283
  888MOL0     C19766   4.996   8.714   7.696  0.7646  0.1337  0.2622
  888MOL0     C19767   5.097   8.627   7.624 -1.1223 -0.1868  0.0502
  888MOL0     C19768   5.227   8.696   7.579 -0.3029 -0.5446  0.0699
  888MOL0     O19769   5.319   8.711   7.697  1.2369 -0.4305 -0.3595
  888MOL0     C19770   5.442   8.750   7.679 -0.2983 -0.8591  0.2741
  888MOL0     C19771   5.472   8.886   7.695  0.3423  0.6763  0.3606
  888MOL0     C19772   5.604   8.931   7.695  0.5311 -0.1838  0.6815
  888MOL0     C19773   5.706   8.837   7.670  0.3008 -0.1178 -0.3133
  888MOL0     C19774   5.848   8.887   7.676  0.1386  1.2721 -0.0683
  888MOL0     O19775   5.939   8.785   7.670 -0.4763 -0.1409  0.2443
  888MOL0     C19776   6.066   8.824   7.677 -0.0686 -0.3284 -0.4824
  888MOL0     C19777   6.140   8.842   7.563  0.1097  0.2232  0.5993
  888MOL0     C19778   6.278   8.876   7.565 -0.0957 -0.2051 -0.4793
  888MOL0     C19779   6.346   8.917   7.683  0.4318 -0.5320  0.2707
  888MOL0     O19780   6.469   8.964   7.704 -0.2675 -0.0624 -0.1362
  888MOL0     C19781   6.563   8.977   7.591 -1.3367  0.4617 -0.0693
  888MOL0     C19782   6.624   8.852   7.534 -0.5556 -0.0882 -0.6284
  888MOL0     C19783   6.715   8.777   7.635  0.1115  0.5454  0.0473
  888MOL0     C19784   6.642   8.655   7.698  0.0017  0.1605 -0.0401
  888MOL0     C19785   6.736   8.580   7.788 -0.0226 -0.7422 -0.2596
  888MOL0     C19786   6.760   8.653   7.931  0.2955  0.8151 -0.8309
  888MOL0     C19787   6.850   8.566   8.020 -0.2635  0.8844  0.3590
  888MOL0     C19788   6.919   8.629   8.152  0.1762  0.4110 -0.1907
  888MOL0    Cl19789   6.781   8.697   8.265  0.0438  0.2688  0.3115
  888MOL0     C19790   6.274   8.894   7.805  0.6521 -0.2870  0.4774
  888MOL0     C19791   6.135   8.852   7.794 -0.8130 -0.3799  0.1516
  888MOL0     O19792   5.868   8.999   7.715 -0.1452 -0.3607 -0.2242
  888MOL0     C19793   5.671   8.708   7.638 -0.0020  0.1571 -0.3014
  888MOL0     C19794   5.538   8.659   7.647  0.1088  0.0569 -0.6631
  888MOL0     N19795   4.722   8.815   7.599 -0.9570  0.5198 -0.5446
  888MOL0     N19796   4.616   8.813   7.523 -0.3373 -0.3198  0.1479
  888MOL0     C19797   3.465   8.290   7.896  0.3092  0.0338  0.6574
  888MOL0     C19798   3.328   8.276   7.897 -0.0564 -0.3425 -0.2746
  888MOL0     C19799   2.905   8.404   7.794 -0.3985  0.9685  0.1413
  888MOL0     C19800   2.845   8.455   7.679  0.4613  0.0639  0.0701
  888MOL0     C19801   2.709   8.441   7.656 -0.4487  0.0994 -0.6247
  888MOL0     C19802   2.633   8.369   7.748  1.0364 -0.5210 -0.2449
  888MOL0     O19803   2.491   8.345   7.738  0.1952 -0.4614  0.0014
  888MOL0     C19804   2.411   8.377   7.627  0.4078 -0.2483 -0.6353
  888MOL0     C19805   2.343   8.510   7.641  0.0679  0.2047 -0.2017
  888MOL0     C19806   2.215   8.535   7.565 -0.1265  0.5430 -0.4631
  888MOL0     C19807   2.160   8.675   7.580  0.4480  0.4425 -0.4065
  888MOL0     C19808   2.038   8.670   7.502  0.1939  0.3740  0.4524
  888MOL0     C19809   1.936   8.663   7.437  0.2675  0.6719  0.0460
  888MOL0     C19810   2.690   8.317   7.863  0.2899 -0.6086  0.0634
  888MOL0     C19811   2.826   8.338   7.891 -0.4171  1.4165 -0.6181
  888MOL0     C19812   2.879   8.280   8.017  0.6114 -0.1198 -1.2343
  888MOL0     H19813   3.270   8.328   7.563  2.1670 -2.9625 -0.9648
  888MOL0     H19814   3.516   8.335   7.558 -0.8394  1.2573 -0.6848
  888MOL0     H19815   3.758   8.463   7.889  1.3258 -0.6991  1.6350
  888MOL0     H19816   3.730   8.309   7.949 -1.5495 -1.7901 -0.4009
  888MOL0     H19817   3.906   8.220   7.805 -0.6320  0.4511 -0.4432
  888MOL0     H19818   3.960   8.332   7.918  0.2019 -0.4608  0.1734
  888MOL0     H19819   3.934   8.385   7.618 -1.9761  4.9040  0.0628
  888MOL0     H19820   4.085   8.322   7.698  0.5782  1.5048 -2.8565
  888MOL0     H19821   3.994   8.578   7.822 -0.0862  0.9810 -1.0477
  888MOL0     H19822   4.152   8.502   7.775  0.9488  0.2050 -0.4740
  888MOL0     H19823   3.981   8.632   7.561  0.0198 -1.8868 -0.1264
  888MOL0     H19824   4.092   8.715   7.672 -1.9527 -0.7565  2.1018
  888MOL0     H19825   4.181   8.493   7.493 -2.6441  0.9133 -1.4044
  888MOL0     H19826   4.149   8.660   7.440  0.1956  1.6233  0.3813
  888MOL0     H19827   4.364   8.570   7.659  1.1241 -2.4536 -1.6708
  888MOL0     H19828   4.331   8.737   7.617 -2.6720 -0.1689  2.3184
  888MOL0     H19829   4.454   8.542   7.431  0.4927  0.1060  0.5590
  888MOL0     H19830   4.386   8.712   7.402 -2.8201 -0.0454  0.6958
  888MOL0     H19831   4.632   8.501   7.618 -1.5639  1.0372  1.7513
  888MOL0     H19832   4.832   8.671   7.835 -0.6329 -0.8938  0.0215
  888MOL0     H19833   4.883   8.540   7.711  1.6711  0.4249 -0.4862
  888MOL0     H19834   4.976   8.802   7.634 -3.3745 -1.5965 -1.1920
  888MOL0     H19835   5.038   8.748   7.791  1.6940  0.1793 -0.1602
  888MOL0     H19836   5.049   8.603   7.529  1.2468 -0.6647 -1.0927
  888MOL0     H19837   5.111   8.534   7.681  0.0613 -0.7091 -1.0483
  888MOL0     H19838   5.203   8.790   7.530  0.2263  0.4631  1.6492
  888MOL0     H19839   5.268   8.628   7.504  2.3038 -1.0477  1.8296
  888MOL0     H19840   5.393   8.961   7.698  0.8437  1.2188  0.3065
  888MOL0     H19841   5.629   9.034   7.720 -1.3852 -0.1481  2.7577
  888MOL0     H19842   6.089   8.817   7.471 -0.2142 -1.6201  1.2310
  888MOL0     H19843   6.330   8.867   7.470  1.4040  1.6620  0.1147
  888MOL0     H19844   6.507   9.017   7.506 -0.7402  0.0601 -0.6583
  888MOL0     H19845   6.641   9.051   7.611 -2.8006  1.4620  2.4881
  888MOL0     H19846   6.545   8.783   7.503 -1.0579 -0.2720  1.0144
  888MOL0     H19847   6.676   8.886   7.443  0.7658 -0.5025 -0.0572
  888MOL0     H19848   6.792   8.735   7.569  0.7146  2.5068 -0.5643
  888MOL0     H19849   6.747   8.847   7.712  0.2210  0.8051 -0.2302
  888MOL0     H19850   6.612   8.593   7.613 -1.9809  0.4871  0.3871
  888MOL0     H19851   6.548   8.690   7.740 -0.5777  1.6894 -2.4577
  888MOL0     H19852   6.832   8.571   7.736 -0.7891  0.6250 -2.0043
  888MOL0     H19853   6.691   8.481   7.806 -1.1665 -0.1089  0.4671
  888MOL0     H19854   6.824   8.741   7.919  2.3798  0.2347  3.9528
  888MOL0     H19855   6.660   8.681   7.966 -0.3461  1.4684 -2.9893
  888MOL0     H19856   6.922   8.530   7.946  0.3816 -0.7512  1.7069
  888MOL0     H19857   6.795   8.476   8.048  0.9439  0.4618  1.4697
  888MOL0     H19858   6.982   8.566   8.215 -0.5764 -0.1965 -0.0225
  888MOL0     H19859   6.982   8.714   8.123  1.3037 -0.2223  0.3523
  888MOL0     H19860   6.321   8.928   7.897  1.2354 -0.2449  0.1676
  888MOL0     H19861   6.075   8.835   7.883 -1.3982 -2.1806 -0.5383
  888MOL0     H19862   5.745   8.634   7.613  1.8793  1.3160  1.5112
  888MOL0     H19863   5.521   8.556   7.616  0.2669 -0.0600 -0.3636
  888MOL0     H19864   3.530   8.290   7.983  0.7662  4.1036  0.4916
  888MOL0     H19865   3.274   8.279   7.991  0.1773  3.3266 -0.1260
  888MOL0     H19866   2.916   8.471   7.599  1.0865  0.4352  0.6921
  888MOL0     H19867   2.671   8.469   7.558 -0.3177 -1.5919 -1.1928
  888MOL0     H19868   2.333   8.300   7.635 -2.3725  2.3900 -0.0599
  888MOL0     H19869   2.468   8.371   7.534 -0.5548 -2.5535 -1.1433
  888MOL0     H19870   2.415   8.584   7.603  1.3798 -0.7739  0.2768
  888MOL0     H19871   2.324   8.511   7.749  3.1159 -0.7780  0.4460
  888MOL0     H19872   2.141   8.473   7.617 -2.2623  3.0684 -0.2600
  888MOL0     H19873   2.223   8.498   7.462 -0.3731 -1.5825  0.2305
  888MOL0     H19874   2.135   8.696   7.685  0.5647  0.5465 -0.4010
  888MOL0     H19875   2.219   8.756   7.537 -1.5022  0.6139 -3.0111
  888MOL0     H19876   1.847   8.653   7.379  0.3453 -1.4007  0.2205
  888MOL0     H19877   2.635   8.257   7.935  1.1886  0.5870  1.8497
  888MOL0     H19878   2.802   8.212   8.053  1.5571  0.3176  1.9734
  888MOL0     H19879   2.979   8.236   8.013  0.9677  0.6817 -1.2927
  888MOL0     H19880   2.878   8.361   8.091  2.8279  0.4876 -1.7962
  889MOL0     O19881   2.150   3.681   7.755 -0.5218  0.2306 -0.6207
  889MOL0     C19882   2.067   3.761   7.801  0.4097  0.3895  0.2763
  889MOL0     O19883   2.079   3.897   7.807 -0.4990  0.0386  0.6189
  889MOL0     C19884   2.207   3.934   7.789 -0.1744 -0.3512 -1.5496
  889MOL0     C19885   2.293   3.950   7.902 -0.0034 -0.6608 -0.5496
  889MOL0     C19886   2.407   4.018   7.880  0.1777 -1.0194 -0.7504
  889MOL0     C19887   2.439   4.083   7.762 -0.5365  0.1322  0.6571
  889MOL0     O19888   2.555   4.153   7.740  0.0073 -0.1953  0.1718
  889MOL0     C19889   2.653   4.171   7.844  0.0110 -0.3427  0.2853
  889MOL0     C19890   2.783   4.199   7.774 -0.0050 -0.4223 -0.5668
  889MOL0     C19891   2.906   4.211   7.864  0.7201 -0.0957  0.0203
  889MOL0     C19892   3.041   4.216   7.785 -0.7634  0.7304 -0.1966
  889MOL0     C19893   3.166   4.263   7.865  0.5825  0.2301  0.6610
  889MOL0     C19894   3.269   4.333   7.782 -0.1227 -0.2618  0.4595
  889MOL0     C19895   3.345   4.233   7.686 -0.1834  0.3283 -0.0128
  889MOL0     C19896   3.429   4.146   7.770 -0.5924 -0.2360  0.0442
  889MOL0     N19897   3.525   4.225   7.848  0.1456  0.1617  0.6153
  889MOL0     C19898   3.646   4.252   7.803 -0.0248 -0.2180  0.1676
  889MOL0     C19899   3.713   4.309   7.906  0.6356  0.2852 -0.8420
  889MOL0     C19900   3.848   4.352   7.927 -0.6161 -0.1224 -0.6064
  889MOL0     C19901   3.865   4.493   7.886 -0.6270  0.5985 -0.2787
  889MOL0     C19902   3.986   4.555   7.950 -0.7884  0.5020  0.2999
  889MOL0     C19903   4.014   4.691   7.892  0.3603  0.2421 -0.0960
  889MOL0     O19904   4.101   4.678   7.773  0.0252 -0.6001  0.3184
  889MOL0     C19905   4.234   4.652   7.793 -0.4243 -0.4358  0.6627
  889MOL0     C19906   4.298   4.662   7.918 -0.1921  0.3935  0.1256
  889MOL0     C19907   4.438   4.653   7.927  0.0990  0.2288 -0.4409
  889MOL0     C19908   4.511   4.613   7.811  0.0072 -0.1398 -0.9542
  889MOL0     C19909   4.659   4.589   7.821  0.4773  0.5239 -0.2374
  889MOL0     O19910   4.724   4.531   7.714 -0.2170  0.4347  0.1880
  889MOL0     C19911   4.856   4.557   7.687  0.3704 -0.0377  0.1019
  889MOL0     C19912   4.936   4.663   7.735  0.0876 -0.5427 -0.0597
  889MOL0     C19913   5.066   4.671   7.704 -0.7951  1.2864  0.6992
  889MOL0     C19914   5.123   4.576   7.609  0.5808  0.1517 -0.4290
  889MOL0     O19915   5.246   4.595   7.569  0.0569  0.2142  0.8147
  889MOL0     C19916   5.347   4.617   7.667 -0.2970  0.0362 -0.6837
  889MOL0     C19917   5.489   4.612   7.611  0.3765 -0.1701  0.4620
  889MOL0     C19918   5.585   4.658   7.714 -0.7081  0.0587 -0.1815
  889MOL0     C19919   5.727   4.638   7.669 -0.4111  0.0467 -0.1815
  889MOL0     C19920   5.835   4.691   7.765 -0.3872  0.4051  0.8360
  889MOL0     C19921   5.975   4.667   7.699  0.4097 -0.4228  0.3185
  889MOL0     C19922   6.090   4.715   7.784 -0.7845  0.1692 -0.6599
  889MOL0     C19923   6.143   4.857   7.768  0.0021 -1.3762 -0.4143
  889MOL0    Cl19924   6.177   4.891   7.587  0.1466  0.3559  0.2433
  889MOL0     C19925   5.050   4.474   7.552  0.8854  0.1776 -0.3686
  889MOL0     C19926   4.913   4.465   7.597  0.0979  0.2346 -0.3226
  889MOL0     O19927   4.709   4.614   7.930 -0.3321 -0.7546 -0.2307
  889MOL0     C19928   4.442   4.601   7.691 -0.1532 -0.5983  0.9206
  889MOL0     C19929   4.307   4.623   7.680 -0.6500  0.3909  0.4395
  889MOL0     N19930   3.623   4.310   8.010 -0.5261  0.8583 -0.5092
  889MOL0     N19931   3.514   4.256   7.980 -0.6421 -0.6423  0.7294
  889MOL0     C19932   2.348   4.065   7.655  0.0403 -0.3466 -0.2098
  889MOL0     C19933   2.245   3.975   7.666  0.6564  0.4447  0.5314
  889MOL0     C19934   1.936   3.706   7.838 -0.2152 -0.8037 -0.4295
  889MOL0     C19935   1.818   3.765   7.778 -0.9569 -0.8383  0.4591
  889MOL0     C19936   1.692   3.715   7.798  0.5993 -0.9650 -0.9203
  889MOL0     C19937   1.678   3.602   7.879 -0.0092 -0.1038 -0.0741
  889MOL0     O19938   1.561   3.546   7.915  0.4580  0.4937 -0.0305
  889MOL0     C19939   1.433   3.587   7.854 -0.5191  0.1213 -0.2401
  889MOL0     C19940   1.377   3.715   7.921 -0.9858  0.0285 -0.0396
  889MOL0     C19941   1.244   3.769   7.855 -1.6206 -0.0168  1.0528
  889MOL0     C19942   1.270   3.850   7.729  0.5036 -0.0100 -0.0204
  889MOL0     C19943   1.163   3.857   7.630 -0.4431 -0.2717 -0.2944
  889MOL0     C19944   1.087   3.833   7.540  0.3606  0.7645 -0.4429
  889MOL0     C19945   1.788   3.554   7.946 -0.6183  0.2890 -0.8288
  889MOL0     C19946   1.921   3.597   7.920  0.0077  0.6097 -0.3166
  889MOL0     C19947   2.033   3.520   7.980 -0.3472  0.8081  0.0033
  889MOL0     H19948   2.266   3.916   8.001 -3.2645 -1.1212 -1.4662
  889MOL0     H19949   2.469   4.038   7.967 -3.5846  0.1643  1.9146
  889MOL0     H19950   2.629   4.259   7.905 -0.2991  0.7847 -1.4178
  889MOL0     H19951   2.670   4.089   7.915  2.8751  0.9668  1.2760
  889MOL0     H19952   2.765   4.302   7.741 -1.4839  1.4095  4.7666
  889MOL0     H19953   2.803   4.129   7.693 -1.2039 -1.0794 -0.3187
  889MOL0     H19954   2.916   4.118   7.921 -3.5099  0.0583  1.3502
  889MOL0     H19955   2.898   4.296   7.932  0.4170 -1.0180  1.1861
  889MOL0     H19956   3.062   4.113   7.754 -0.5012  0.9390 -0.7228
  889MOL0     H19957   3.031   4.275   7.693 -1.6041 -0.4309 -0.8796
  889MOL0     H19958   3.128   4.333   7.941  0.6749 -2.0493  2.9634
  889MOL0     H19959   3.215   4.181   7.918 -0.9599 -0.5043  1.0119
  889MOL0     H19960   3.230   4.414   7.720  0.3662 -0.1368  0.3102
  889MOL0     H19961   3.336   4.383   7.852  1.1556 -0.8624 -0.3061
  889MOL0     H19962   3.408   4.296   7.622  0.4444  0.7841  1.0363
  889MOL0     H19963   3.285   4.167   7.622  1.2533 -0.2488 -0.8157
  889MOL0     H19964   3.374   4.072   7.829 -0.4014 -1.4195 -1.1954
  889MOL0     H19965   3.483   4.080   7.701 -1.6824 -0.1639 -0.8975
  889MOL0     H19966   3.693   4.227   7.708  0.3913  0.5488  0.1709
  889MOL0     H19967   3.876   4.345   8.033  1.9547 -0.9620 -1.2844
  889MOL0     H19968   3.905   4.275   7.874 -2.2712 -1.2641 -0.8318
  889MOL0     H19969   3.884   4.489   7.778 -2.1747 -0.4130 -0.5464
  889MOL0     H19970   3.778   4.555   7.908  0.2607  3.5073 -3.8644
  889MOL0     H19971   4.071   4.486   7.938  0.0216  1.4193  0.6647
  889MOL0     H19972   3.967   4.564   8.058  1.0199  0.8214  0.6266
  889MOL0     H19973   4.054   4.763   7.965 -1.6074  1.3056  0.0091
  889MOL0     H19974   3.922   4.741   7.862  0.5765  0.9254  0.3556
  889MOL0     H19975   4.239   4.695   8.003 -0.1310 -2.3113  1.2952
  889MOL0     H19976   4.488   4.674   8.022 -1.0910 -0.1253  0.2884
  889MOL0     H19977   4.903   4.744   7.801  1.6170  0.7058 -0.7509
  889MOL0     H19978   5.129   4.751   7.742 -0.1737  0.6202  1.1170
  889MOL0     H19979   5.322   4.715   7.708 -1.2651  0.1315 -1.4479
  889MOL0     H19980   5.350   4.530   7.732  2.8692  0.4254 -0.1543
  889MOL0     H19981   5.518   4.511   7.581 -0.6254 -0.9379  1.9706
  889MOL0     H19982   5.485   4.674   7.521 -1.3335 -0.3296  0.4003
  889MOL0     H19983   5.556   4.762   7.736 -1.3066 -0.0151 -0.5857
  889MOL0     H19984   5.572   4.610   7.811  1.1661  1.6179  0.9041
  889MOL0     H19985   5.743   4.689   7.574  1.2956  0.7202  0.4161
  889MOL0     H19986   5.746   4.534   7.643  3.1648  0.2249  1.1436
  889MOL0     H19987   5.838   4.630   7.856 -1.4427 -2.9010 -1.1749
  889MOL0     H19988   5.811   4.796   7.782 -2.3727  0.6953 -2.7169
  889MOL0     H19989   5.991   4.559   7.690 -0.5959 -0.6393  0.9533
  889MOL0     H19990   5.975   4.721   7.604  1.7610  0.3143  0.7129
  889MOL0     H19991   6.176   4.651   7.766 -0.1208 -0.1232  2.8892
  889MOL0     H19992   6.056   4.690   7.885 -0.1902 -0.5796 -0.6377
  889MOL0     H19993   6.071   4.925   7.815  1.7863  0.0638  0.3717
  889MOL0     H19994   6.238   4.870   7.821 -0.0553  2.2387 -0.9808
  889MOL0     H19995   5.097   4.408   7.481  3.3329 -0.0100  1.3164
  889MOL0     H19996   4.850   4.381   7.568 -0.3709  0.9103 -1.2923
  889MOL0     H19997   4.496   4.580   7.599 -1.9635  3.9011 -1.4739
  889MOL0     H19998   4.253   4.626   7.586  1.4174  1.3679 -0.7791
  889MOL0     H19999   2.373   4.114   7.562  0.5707 -0.6947 -0.2592
  889MOL0     H20000   2.173   3.969   7.586  1.4652  2.4272 -0.3977
  889MOL0     H20001   1.833   3.860   7.727  1.0585 -0.2215  2.0472
  889MOL0     H20002   1.605   3.768   7.760  0.1896  0.4606  1.8260
  889MOL0     H20003   1.362   3.506   7.873 -0.2388 -1.1799 -3.8849
  889MOL0     H20004   1.432   3.597   7.745  0.1540  1.9632 -0.1117
  889MOL0     H20005   1.451   3.795   7.916 -0.1576 -0.7591 -0.6045
  889MOL0     H20006   1.357   3.687   8.025 -1.6686 -1.5232 -0.5706
  889MOL0     H20007   1.186   3.830   7.924 -0.8973  0.9685  0.8093
  889MOL0     H20008   1.186   3.681   7.825 -0.7637 -1.3218  3.0037
  889MOL0     H20009   1.304   3.952   7.753 -0.3409  0.1560  0.4937
  889MOL0     H20010   1.361   3.808   7.686  1.2320  0.7100  0.7719
  889MOL0     H20011   1.014   3.815   7.463  1.7010  0.2123 -1.6174
  889MOL0     H20012   1.785   3.472   8.018 -0.2723 -0.3124 -1.4881
  889MOL0     H20013   2.117   3.581   8.013  2.2602 -1.2188 -2.3907
  889MOL0     H20014   1.990   3.456   8.058  0.0887  0.9143  0.3299
  889MOL0     H20015   2.074   3.457   7.901  1.9379  1.2984  0.7306
  890MOL0     O20016   6.117   9.030   3.570  0.0822  0.0749  0.1570
  890MOL0     C20017   6.085   9.149   3.581  0.4277 -0.2575 -0.2597
  890MOL0     O20018   6.159   9.244   3.648  0.7148  0.1363  0.4912
  890MOL0     C20019   6.290   9.235   3.700  0.4556 -0.3650 -0.4365
  890MOL0     C20020   6.383   9.132   3.677 -0.6979  0.5614  0.4549
  890MOL0     C20021   6.517   9.149   3.734  1.2110 -0.1284  0.2983
  890MOL0     C20022   6.548   9.258   3.809  0.0511  0.3869 -0.1233
  890MOL0     O20023   6.679   9.271   3.855 -0.1949 -0.2715 -0.3360
  890MOL0     C20024   6.715   9.406   3.895  0.3950  0.1403  0.8998
  890MOL0     C20025   6.865   9.427   3.928  1.0954 -0.2744 -0.6514
  890MOL0     C20026   6.943   9.342   4.028  0.5708  0.7387  1.0098
  890MOL0     C20027   6.914   9.398   4.163  0.3616  0.5337 -0.0443
  890MOL0     C20028   6.966   9.310   4.273  0.4999 -0.4293 -1.0681
  890MOL0     C20029   6.861   9.207   4.332 -0.6639 -0.6575 -0.2609
  890MOL0     C20030   6.936   9.115   4.444  0.2718  0.3201 -0.0291
  890MOL0     C20031   7.008   9.191   4.544 -0.4169 -0.4679 -0.5875
  890MOL0     N20032   7.055   9.112   4.654 -0.2563  0.5317 -0.1174
  890MOL0     C20033   7.155   9.016   4.652  0.0102 -0.6823  0.0275
  890MOL0     C20034   7.196   8.998   4.779  0.7944 -0.3856 -0.1958
  890MOL0     C20035   7.302   8.906   4.834  0.3038 -0.1439  0.4237
  890MOL0     C20036   7.446   8.976   4.829  0.7048 -0.0834  0.0098
  890MOL0     C20037   7.494   8.960   4.683  0.4256 -0.0874  0.8049
  890MOL0     C20038   7.635   9.009   4.666  0.2663  0.3659 -0.4037
  890MOL0     O20039   7.727   8.907   4.707 -0.5459 -0.1723 -1.5750
  890MOL0     C20040   7.857   8.955   4.716  0.7464 -0.4419 -0.1883
  890MOL0     C20041   7.916   9.017   4.605  0.2840 -0.9289 -0.1608
  890MOL0     C20042   8.050   9.039   4.596 -0.0279  0.2976  0.0527
  890MOL0     C20043   8.133   8.989   4.700 -0.3661 -0.6288  0.2425
  890MOL0     C20044   8.286   8.990   4.694 -0.2373  0.0070 -0.1951
  890MOL0     O20045   8.340   9.047   4.584  0.5837 -0.5326  0.0062
  890MOL0     C20046   8.471   9.063   4.555 -0.3039  0.3234  0.3795
  890MOL0     C20047   8.499   9.026   4.423 -0.1148 -0.0271 -1.4114
  890MOL0     C20048   8.632   9.035   4.375  0.8579  0.4759 -0.3630
  890MOL0     C20049   8.741   9.061   4.462 -0.2559  0.1142  0.3418
  890MOL0     O20050   8.870   9.082   4.411  0.9824 -0.0809  0.2277
  890MOL0     C20051   8.882   9.087   4.266  0.4636 -0.4219 -0.3313
  890MOL0     C20052   9.033   9.118   4.248 -0.1193 -0.6719  0.2038
  890MOL0     C20053   9.074   9.155   4.110 -0.8228  0.6010  1.5071
  890MOL0     C20054   9.230   9.145   4.102 -0.0917  0.2960 -0.7877
  890MOL0     C20055   9.295   9.186   3.970 -0.5107  0.1131  0.4432
  890MOL0     C20056   9.440   9.200   3.978 -0.6847  1.1026  0.5963
  890MOL0     C20057   9.510   9.239   3.843  0.6320 -0.0888  0.0222
  890MOL0     C20058   9.643   9.308   3.863 -0.3322  0.0542  0.6205
  890MOL0    Cl20059   9.766   9.220   3.953 -0.0323 -0.4283 -0.0686
  890MOL0     C20060   8.708   9.086   4.596 -0.0768  0.4087 -1.7841
  890MOL0     C20061   8.570   9.093   4.649  0.1650  0.0243 -0.0483
  890MOL0     O20062   8.343   8.935   4.792 -0.1665 -0.2855  0.4091
  890MOL0     C20063   8.075   8.929   4.813  0.3514  0.1077  0.1275
  890MOL0     C20064   7.939   8.915   4.812  0.1950 -0.4544 -0.5312
  890MOL0     N20065   7.123   9.090   4.858  0.3276 -0.0860 -0.4882
  890MOL0     N20066   7.050   9.164   4.781 -0.9665 -0.5528  0.2127
  890MOL0     C20067   6.449   9.357   3.826  0.0870 -0.4036  0.0319
  890MOL0     C20068   6.321   9.345   3.775 -0.4820 -0.8964  0.5703
  890MOL0     C20069   5.964   9.192   3.499  0.3932  0.0147 -0.1789
  890MOL0     C20070   5.849   9.113   3.513  0.6121 -0.2108  0.1242
  890MOL0     C20071   5.727   9.146   3.466  0.9015 -0.4975  0.7215
  890MOL0     C20072   5.706   9.266   3.407  0.4745  0.7352 -0.2616
  890MOL0     O20073   5.591   9.332   3.365 -0.2420  0.0769  0.0693
  890MOL0     C20074   5.463   9.275   3.381  0.1269  0.3324  0.0563
  890MOL0     C20075   5.367   9.385   3.319 -0.3175 -0.1054  0.0452
  890MOL0     C20076   5.222   9.361   3.361  0.6194  0.0132 -0.1800
  890MOL0     C20077   5.169   9.227   3.319  0.7810 -0.4943 -0.1015
  890MOL0     C20078   5.021   9.228   3.313 -0.2139 -0.4594 -0.1663
  890MOL0     C20079   4.902   9.217   3.318  1.0099  0.6250 -0.3122
  890MOL0     C20080   5.819   9.336   3.376  0.6388 -0.1773  0.1092
  890MOL0     C20081   5.943   9.314   3.439  0.2998 -0.2214 -0.5104
  890MOL0     C20082   6.054   9.411   3.414 -0.3491 -0.4748  0.2616
  890MOL0     H20083   6.367   9.047   3.611 -1.0119 -0.4400  1.7711
  890MOL0     H20084   6.585   9.066   3.719 -3.3702 -3.9881 -1.5432
  890MOL0     H20085   6.686   9.473   3.814  0.6181  0.7571  1.3219
  890MOL0     H20086   6.656   9.414   3.987  1.1716 -0.5398  1.4711
  890MOL0     H20087   6.886   9.533   3.943  2.2179 -0.6062  0.2606
  890MOL0     H20088   6.912   9.415   3.829  3.0651 -2.4597  0.4488
  890MOL0     H20089   7.045   9.327   3.993 -0.6267 -1.9667 -1.7067
  890MOL0     H20090   6.907   9.240   4.017 -0.6128  1.0603  1.6957
  890MOL0     H20091   6.963   9.496   4.172  0.5202  0.3315  1.4110
  890MOL0     H20092   6.810   9.427   4.180  0.5468  1.2436 -0.0613
  890MOL0     H20093   7.058   9.260   4.240  1.2525  0.1843  0.0431
  890MOL0     H20094   7.010   9.376   4.348  1.0983  0.0176 -1.7933
  890MOL0     H20095   6.783   9.263   4.384  0.7899  0.5955  0.6832
  890MOL0     H20096   6.820   9.145   4.252  1.5821 -0.5182 -1.6332
  890MOL0     H20097   6.998   9.044   4.389 -0.6417  0.8304 -1.8291
  890MOL0     H20098   6.851   9.076   4.501 -0.6514  1.6399 -0.4557
  890MOL0     H20099   7.088   9.254   4.503 -2.3889  0.9883 -2.3987
  890MOL0     H20100   6.933   9.259   4.586 -0.8894  0.7107 -3.1424
  890MOL0     H20101   7.197   8.960   4.568  0.4855  0.7046 -0.6865
  890MOL0     H20102   7.268   8.886   4.936 -1.1242 -2.7484 -0.4910
  890MOL0     H20103   7.295   8.804   4.797  0.0921  1.5291 -5.0425
  890MOL0     H20104   7.437   9.084   4.847 -2.0492  0.4435 -3.3297
  890MOL0     H20105   7.519   8.920   4.888  3.2526 -1.3519 -3.9572
  890MOL0     H20106   7.424   9.015   4.618 -1.0910 -1.1936  1.4620
  890MOL0     H20107   7.485   8.854   4.657  1.1004  0.3584 -1.5531
  890MOL0     H20108   7.645   9.107   4.713 -2.7918  0.9722 -0.7901
  890MOL0     H20109   7.661   9.015   4.560  1.4185  0.4380 -0.1309
  890MOL0     H20110   7.856   9.042   4.518  0.8291 -0.2639 -0.3514
  890MOL0     H20111   8.091   9.098   4.515  0.6998  0.3006  0.4147
  890MOL0     H20112   8.424   9.001   4.348 -0.7642  0.1459 -0.8344
  890MOL0     H20113   8.648   9.009   4.271 -2.2484 -1.6096 -0.4703
  890MOL0     H20114   8.846   8.999   4.213 -1.5563  1.1943 -1.8046
  890MOL0     H20115   8.815   9.166   4.231  3.0744  1.8698 -0.5129
  890MOL0     H20116   9.061   9.198   4.318 -2.4127  1.5795 -1.2678
  890MOL0     H20117   9.072   9.021   4.279 -3.6046 -2.0764  0.6433
  890MOL0     H20118   9.037   9.083   4.036 -0.8163 -0.2656  2.3184
  890MOL0     H20119   9.040   9.255   4.084  0.4726  0.4928 -0.8344
  890MOL0     H20120   9.269   9.052   4.146 -1.5242 -0.0902 -0.2812
  890MOL0     H20121   9.264   9.212   4.182 -2.0191  0.4984 -0.0920
  890MOL0     H20122   9.253   9.273   3.919 -1.4638 -0.3208  0.4696
  890MOL0     H20123   9.279   9.100   3.904 -1.1925 -0.6791  1.6259
  890MOL0     H20124   9.477   9.279   4.045  2.2611 -0.6235  1.1720
  890MOL0     H20125   9.480   9.102   4.006 -0.8442 -0.0920 -2.8793
  890MOL0     H20126   9.445   9.303   3.782  0.4788 -0.6096 -0.3737
  890MOL0     H20127   9.534   9.153   3.779 -2.8912  0.5550 -2.4323
  890MOL0     H20128   9.678   9.325   3.761 -0.0520  1.2961  0.9069
  890MOL0     H20129   9.635   9.404   3.915 -0.0062  0.0447  0.6903
  890MOL0     H20130   8.785   9.102   4.671 -0.4555  2.2019 -1.7243
  890MOL0     H20131   8.553   9.112   4.754  4.6056  0.3127  0.8079
  890MOL0     H20132   8.129   8.888   4.898  2.5880  0.4275 -1.0833
  890MOL0     H20133   7.889   8.862   4.893 -2.2903  2.3280 -0.0554
  890MOL0     H20134   6.469   9.443   3.889  1.3067 -0.9108  0.3678
  890MOL0     H20135   6.243   9.419   3.788  0.2863  0.4344 -1.7768
  890MOL0     H20136   5.858   9.013   3.554 -2.5700 -0.5543  0.2370
  890MOL0     H20137   5.645   9.075   3.475 -0.6849  0.9122 -1.4454
  890MOL0     H20138   5.446   9.256   3.487  1.5736  0.4673  0.3293
  890MOL0     H20139   5.456   9.178   3.329 -1.6019  0.0340  0.7694
  890MOL0     H20140   5.381   9.380   3.211  2.3197 -2.1173  0.3695
  890MOL0     H20141   5.395   9.486   3.349 -3.6289  0.7743  0.5668
  890MOL0     H20142   5.172   9.449   3.320  3.5434  3.2247  2.4354
  890MOL0     H20143   5.215   9.368   3.470  2.9298 -0.7745  0.0779
  890MOL0     H20144   5.206   9.191   3.222 -0.7369 -2.4991 -0.0072
  890MOL0     H20145   5.203   9.155   3.394 -0.8874 -0.2844  0.9036
  890MOL0     H20146   4.797   9.203   3.334  0.9916  1.7262  0.6663
  890MOL0     H20147   5.807   9.432   3.327  1.8793 -0.2835 -0.4330
  890MOL0     H20148   6.140   9.357   3.375 -1.0527 -2.8458  1.7736
  890MOL0     H20149   6.034   9.509   3.369  1.1338  0.6861  2.0110
  890MOL0     H20150   6.095   9.441   3.511 -0.2271 -2.5855  0.9115
  891MOL0     O20151  10.588   0.869   2.427  0.0720 -0.1701  0.0513
  891MOL0     C20152  10.508   0.925   2.506 -0.7806  0.3931  0.4322
  891MOL0     O20153  10.546   1.024   2.594 -0.4062 -0.6195 -0.3357
  891MOL0     C20154  10.660   1.103   2.569 -0.0882 -0.0264  0.3389
  891MOL0     C20155  10.724   1.130   2.686 -0.0583  0.3040  0.0163
  891MOL0     C20156  10.845   1.205   2.676 -0.2432 -0.5438 -0.4759
  891MOL0     C20157  10.904   1.245   2.550 -0.6433  0.8152 -0.6171
  891MOL0     O20158  11.022   1.313   2.538 -0.7109 -0.0849  0.3155
  891MOL0     C20159  11.138   1.231   2.574 -0.7199 -0.7345  0.0418
  891MOL0     C20160  11.271   1.302   2.549 -0.1117 -0.8040 -0.1652
  891MOL0     C20161  11.299   1.309   2.405  0.3738  0.9210 -0.4178
  891MOL0     C20162  11.438   1.366   2.380  0.6994 -0.1093 -0.6604
  891MOL0     C20163  11.451   1.425   2.231  0.4783  0.2849  0.0356
  891MOL0     C20164  11.582   1.513   2.217 -0.0083 -0.7374  0.1297
  891MOL0     C20165  11.562   1.604   2.090  0.7028 -0.1719 -0.3179
  891MOL0     C20166  11.441   1.704   2.110  0.7984  0.1196 -0.1641
  891MOL0     N20167  11.467   1.785   2.229 -0.5600 -0.6565 -0.2856
  891MOL0     C20168  11.562   1.888   2.239 -0.6003 -0.6504  0.3469
  891MOL0     C20169  11.535   1.950   2.358  0.4686  0.5417  0.3223
  891MOL0     C20170  11.612   2.063   2.428 -0.0661 -0.3935 -0.0787
  891MOL0     C20171  11.620   2.062   2.578 -0.9200  0.0068 -0.6447
  891MOL0     C20172  11.753   2.084   2.640 -0.2520  0.0467 -0.1773
  891MOL0     C20173  11.813   2.227   2.620  0.6764 -0.6986  0.4469
  891MOL0     O20174  11.949   2.240   2.656  0.5385  0.2693 -0.1848
  891MOL0     C20175  12.045   2.183   2.575  0.5957  0.4920 -0.1814
  891MOL0     C20176  12.167   2.139   2.638 -0.1145  0.4886 -0.0497
  891MOL0     C20177  12.268   2.062   2.567 -0.2500 -0.7644 -0.9291
  891MOL0     C20178  12.251   2.041   2.430 -0.4744  0.2189 -1.0025
  891MOL0     C20179  12.351   1.970   2.344  0.4569  0.2722 -0.5292
  891MOL0     O20180  12.327   1.964   2.209 -0.7141  0.1270 -0.1123
  891MOL0     C20181  12.425   1.920   2.123 -0.7461 -0.4053  0.2572
  891MOL0     C20182  12.438   1.966   1.993  0.3976  0.0748 -0.5747
  891MOL0     C20183  12.527   1.911   1.906  0.1491 -0.8419 -0.0994
  891MOL0     C20184  12.610   1.804   1.937  0.2379  0.2854 -0.4174
  891MOL0     O20185  12.701   1.752   1.851  0.3234 -0.2967  0.5507
  891MOL0     C20186  12.648   1.702   1.732  0.4718  0.6829  0.1182
  891MOL0     C20187  12.759   1.679   1.632  0.1510  0.4368 -0.0237
  891MOL0     C20188  12.894   1.615   1.680 -0.4339 -0.6172  0.1155
  891MOL0     C20189  13.017   1.655   1.606 -0.6788 -0.5387 -0.6211
  891MOL0     C20190  13.152   1.601   1.663  0.2978 -0.0610  0.1515
  891MOL0     C20191  13.274   1.651   1.580 -0.7106 -0.3636  0.3311
  891MOL0     C20192  13.397   1.596   1.637 -0.1775 -0.1818 -0.0706
  891MOL0     C20193  13.439   1.670   1.771 -0.1825 -0.0431 -0.0303
  891MOL0    Cl20194  13.584   1.577   1.839  0.2283 -0.0131 -0.0635
  891MOL0     C20195  12.600   1.749   2.065  0.2776  0.1568 -0.6939
  891MOL0     C20196  12.506   1.803   2.154 -0.0034 -0.3289  0.5432
  891MOL0     O20197  12.443   1.919   2.410  0.4538  0.0335 -0.0162
  891MOL0     C20198  12.125   2.078   2.374 -0.1288  0.3723  0.1301
  891MOL0     C20199  12.025   2.150   2.442  0.5110 -1.8509  0.5285
  891MOL0     N20200  11.439   1.867   2.421  0.2153 -0.5043 -0.3942
  891MOL0     N20201  11.396   1.776   2.344  0.0374  0.4492 -0.3603
  891MOL0     C20202  10.835   1.207   2.438  0.0925 -0.8152 -0.6703
  891MOL0     C20203  10.706   1.136   2.442 -0.2584 -0.8631  0.5822
  891MOL0     C20204  10.367   0.889   2.507 -0.0606  0.0470 -0.6070
  891MOL0     C20205  10.270   0.995   2.547 -0.5207  0.9136 -0.2975
  891MOL0     C20206  10.135   0.970   2.545  0.7513 -0.5375 -0.2276
  891MOL0     C20207  10.083   0.844   2.504  0.2719 -0.6166  0.4439
  891MOL0     O20208   9.945   0.822   2.480 -0.2810 -0.4075 -0.1244
  891MOL0     C20209   9.845   0.912   2.527  0.6751 -1.7106 -0.6130
  891MOL0     C20210   9.770   0.875   2.652 -0.0461  0.2991  0.0181
  891MOL0     C20211   9.733   0.724   2.671  0.4014 -0.5107  0.1085
  891MOL0     C20212   9.663   0.647   2.563 -0.5395  0.5867 -0.0623
  891MOL0     C20213   9.538   0.705   2.532 -0.6166  1.1852 -0.7018
  891MOL0     C20214   9.428   0.739   2.512  0.9622  0.7979 -0.5607
  891MOL0     C20215  10.168   0.744   2.461 -0.6013 -0.5311  0.5550
  891MOL0     C20216  10.308   0.759   2.458 -0.4388 -1.0963 -0.2536
  891MOL0     C20217  10.398   0.650   2.402 -0.5097 -0.5186  0.7181
  891MOL0     H20218  10.681   1.102   2.781 -0.0173 -0.7794 -0.2756
  891MOL0     H20219  10.870   1.224   2.780 -4.7451  0.1831  0.6656
  891MOL0     H20220  11.146   1.212   2.682  0.2964 -1.3256 -0.1229
  891MOL0     H20221  11.145   1.132   2.527  4.7702 -0.2007 -0.9869
  891MOL0     H20222  11.350   1.244   2.598  1.9271  2.3794  0.5985
  891MOL0     H20223  11.273   1.401   2.596  1.5587 -0.3341 -1.1606
  891MOL0     H20224  11.215   1.360   2.356  0.6784  1.7249 -0.1314
  891MOL0     H20225  11.287   1.207   2.367  0.3074  0.7592  0.0285
  891MOL0     H20226  11.465   1.448   2.447  1.3486 -3.2408  3.2753
  891MOL0     H20227  11.514   1.288   2.398  0.3323  0.2800  3.4856
  891MOL0     H20228  11.434   1.348   2.155 -1.7522  0.4138  0.3283
  891MOL0     H20229  11.366   1.493   2.218 -0.3041 -0.8429 -0.9768
  891MOL0     H20230  11.598   1.576   2.305 -1.4278  1.3512 -1.0251
  891MOL0     H20231  11.668   1.451   2.191  1.3805  0.9045  0.6267
  891MOL0     H20232  11.531   1.538   2.008 -1.8072 -1.2117  1.3188
  891MOL0     H20233  11.649   1.657   2.051  0.2063 -1.1644 -3.0030
  891MOL0     H20234  11.444   1.777   2.028  2.1820  0.3537  0.0732
  891MOL0     H20235  11.339   1.665   2.117  0.3106  1.5365  1.0930
  891MOL0     H20236  11.638   1.911   2.165  0.8207 -1.9977  1.3214
  891MOL0     H20237  11.709   2.049   2.381 -0.3316 -0.9699 -0.4640
  891MOL0     H20238  11.584   2.165   2.397  0.2212 -0.0624  0.7200
  891MOL0     H20239  11.553   2.143   2.608  0.5782  1.3492 -0.7661
  891MOL0     H20240  11.583   1.967   2.618  1.6551  0.2811  2.9405
  891MOL0     H20241  11.827   2.015   2.599 -0.5879 -0.2086 -0.3530
  891MOL0     H20242  11.738   2.061   2.746 -0.3354  0.5919 -0.0639
  891MOL0     H20243  11.755   2.289   2.689  2.8823  0.9769  0.8974
  891MOL0     H20244  11.794   2.256   2.517  0.2787 -1.4860  0.2901
  891MOL0     H20245  12.199   2.158   2.740  1.5302  1.5792 -0.7306
  891MOL0     H20246  12.353   2.032   2.629 -0.2267  1.0031 -0.0336
  891MOL0     H20247  12.376   2.047   1.954 -1.6277  0.8183  3.6248
  891MOL0     H20248  12.507   1.951   1.807 -3.5223  0.0314  0.8625
  891MOL0     H20249  12.579   1.617   1.744  0.3099  1.0919  2.7986
  891MOL0     H20250  12.598   1.780   1.674  0.5371  0.8708  0.3107
  891MOL0     H20251  12.715   1.624   1.549  0.0536 -3.0163  2.1258
  891MOL0     H20252  12.776   1.783   1.603 -1.6130  0.4851 -1.0689
  891MOL0     H20253  12.903   1.643   1.785 -4.3767  1.4340  0.1089
  891MOL0     H20254  12.891   1.506   1.683  2.3777 -0.7268  1.4998
  891MOL0     H20255  13.017   1.764   1.600 -3.1532 -0.2323  2.3055
  891MOL0     H20256  13.012   1.615   1.504  1.1891  1.3567 -1.5320
  891MOL0     H20257  13.145   1.493   1.654 -1.8998 -0.1269  1.8697
  891MOL0     H20258  13.160   1.633   1.767  2.8742  0.6520 -0.1956
  891MOL0     H20259  13.252   1.613   1.480  0.8128 -0.6665  0.0786
  891MOL0     H20260  13.268   1.760   1.585  0.0851 -0.2454 -0.7558
  891MOL0     H20261  13.485   1.601   1.573  2.0567 -3.7536  2.4107
  891MOL0     H20262  13.402   1.488   1.653 -0.0556  0.0162  1.3995
  891MOL0     H20263  13.470   1.774   1.760 -1.0939  0.2805  0.2854
  891MOL0     H20264  13.356   1.669   1.842 -0.5096 -0.2749 -0.4098
  891MOL0     H20265  12.656   1.664   2.105 -0.9400  0.2186  1.2715
  891MOL0     H20266  12.502   1.740   2.242  1.6202 -2.6488 -0.9093
  891MOL0     H20267  12.108   2.064   2.268  0.4441 -1.2739  0.2272
  891MOL0     H20268  11.932   2.175   2.393  0.6514 -1.9531  0.2049
  891MOL0     H20269  10.886   1.239   2.348  2.1591 -0.3886  0.5871
  891MOL0     H20270  10.651   1.112   2.351 -2.4991 -2.1877  2.2040
  891MOL0     H20271  10.297   1.087   2.598 -2.9570  1.8069 -0.4818
  891MOL0     H20272  10.076   1.052   2.584  0.5371 -1.2250  0.9734
  891MOL0     H20273   9.772   0.903   2.445 -0.9086  1.0109  0.3475
  891MOL0     H20274   9.885   1.013   2.517  0.0990 -1.5601 -1.5837
  891MOL0     H20275   9.677   0.932   2.655 -1.0359 -1.2108 -0.6234
  891MOL0     H20276   9.832   0.897   2.739  0.8409 -1.2378 -0.1911
  891MOL0     H20277   9.677   0.709   2.764 -0.7306  0.7762 -0.3348
  891MOL0     H20278   9.832   0.683   2.695  0.6494 -0.3992 -0.7080
  891MOL0     H20279   9.724   0.641   2.473 -4.0404  0.5010 -2.6325
  891MOL0     H20280   9.644   0.541   2.583  0.1675  0.6859  1.2308
  891MOL0     H20281   9.330   0.770   2.484  0.6091  0.5615  0.3825
  891MOL0     H20282  10.127   0.653   2.418 -2.1944  1.1999 -1.8313
  891MOL0     H20283  10.333   0.561   2.399 -0.9974 -0.2545  2.4855
  891MOL0     H20284  10.418   0.680   2.299 -1.1717 -4.2124 -0.6671
  891MOL0     H20285  10.491   0.636   2.458  1.4935  4.7628 -0.7460
  892MOL0     O20286   9.115   0.537   9.282  0.3048  0.3647  0.2188
  892MOL0     C20287   9.224   0.483   9.311 -0.5505  0.1121 -0.3376
  892MOL0     O20288   9.245   0.374   9.392 -0.3280 -0.2224  0.4573
  892MOL0     C20289   9.137   0.305   9.453 -0.8322  0.5312 -0.0464
  892MOL0     C20290   9.036   0.368   9.515  0.6947  0.4414  0.2450
  892MOL0     C20291   8.936   0.295   9.577 -0.1860  0.6008  0.4914
  892MOL0     C20292   8.929   0.155   9.577  0.1073 -0.2612  0.1776
  892MOL0     O20293   8.824   0.089   9.649 -0.2427  0.2584 -0.0759
  892MOL0     C20294   8.841  -0.052   9.659 -0.4987  0.5098  0.2666
  892MOL0     C20295   8.726  -0.125   9.731  0.3564  0.8458  0.0460
  892MOL0     C20296   8.694  -0.069   9.873  0.2859  0.2971 -0.6299
  892MOL0     C20297   8.639  -0.180   9.966  0.6424  0.5094 -0.9969
  892MOL0     C20298   8.653  -0.136  10.114 -0.5311 -0.0241 -1.2148
  892MOL0     C20299   8.784  -0.182  10.181 -0.4412 -0.8605  0.9936
  892MOL0     C20300   8.795  -0.157  10.327  0.0054  0.2935 -0.3300
  892MOL0     C20301   8.932  -0.182  10.385 -0.3659 -0.1905 -0.2438
  892MOL0     N20302   9.035  -0.085  10.328  0.7108  0.2770  0.0574
  892MOL0     C20303   9.063   0.043  10.358 -0.1112  0.5000 -0.1499
  892MOL0     C20304   9.159   0.096  10.282 -1.1189 -0.0070 -0.3400
  892MOL0     C20305   9.242   0.218  10.305  0.4334 -0.6030  0.4952
  892MOL0     C20306   9.391   0.201  10.249 -0.4526 -0.1311  0.0117
  892MOL0     C20307   9.482   0.109  10.339 -0.1787 -0.4010  0.2236
  892MOL0     C20308   9.506   0.173  10.474 -0.0228 -0.1579  0.2178
  892MOL0     O20309   9.580   0.296  10.453  0.0497  0.1209 -0.3524
  892MOL0     C20310   9.712   0.313  10.437  0.0105 -0.9384 -0.3756
  892MOL0     C20311   9.799   0.204  10.410  0.1875 -0.9353 -0.2875
  892MOL0     C20312   9.939   0.217  10.426 -0.3796  0.4197 -0.3033
  892MOL0     C20313   9.989   0.346  10.460 -0.3162  0.7470  0.4427
  892MOL0     C20314  10.142   0.371  10.448 -0.5767 -1.0793  0.6976
  892MOL0     O20315  10.218   0.262  10.436 -0.5469 -0.6546  0.5285
  892MOL0     C20316  10.354   0.285  10.415  0.0894 -1.1867  0.6297
  892MOL0     C20317  10.447   0.292  10.518 -0.8441 -0.3027  0.4873
  892MOL0     C20318  10.583   0.295  10.478  0.5604  0.0459 -0.1883
  892MOL0     C20319  10.631   0.308  10.350 -0.0372 -0.3506 -0.0812
  892MOL0     O20320  10.770   0.324  10.343  0.3184 -0.1863  0.4457
  892MOL0     C20321  10.835   0.328  10.218 -0.7748  0.5526 -0.0588
  892MOL0     C20322  10.987   0.331  10.244  0.2646  0.5336  0.9890
  892MOL0     C20323  11.024   0.440  10.350  0.2710  0.1993  1.2783
  892MOL0     C20324  11.172   0.429  10.401  0.6544  0.2001 -0.0508
  892MOL0     C20325  11.277   0.468  10.305 -0.3567  0.1128 -0.5386
  892MOL0     C20326  11.279   0.623  10.278 -0.4389  0.7232  0.6138
  892MOL0     C20327  11.402   0.680  10.213  0.6535  0.2975  0.2081
  892MOL0     C20328  11.530   0.680  10.293 -0.7672  0.4216 -0.9022
  892MOL0    Cl20329  11.669   0.722  10.179  0.2574 -0.0984  0.1705
  892MOL0     C20330  10.535   0.317  10.249  0.2258 -1.1856 -0.3009
  892MOL0     C20331  10.397   0.296  10.282 -0.4009  0.1455  0.0927
  892MOL0     O20332  10.178   0.493  10.448  0.2552 -0.3835  0.3269
  892MOL0     C20333   9.897   0.448  10.504  0.0120  0.1261  0.6243
  892MOL0     C20334   9.765   0.435  10.484  0.8623  0.0026 -0.1747
  892MOL0     N20335   9.192  -0.006  10.199  1.2940  0.3014 -0.3869
  892MOL0     N20336   9.111  -0.102  10.216 -0.0212  0.3735  0.4921
  892MOL0     C20337   9.037   0.090   9.503  0.0720  0.2640  0.0797
  892MOL0     C20338   9.142   0.162   9.448  0.0109  0.2559  0.4701
  892MOL0     C20339   9.345   0.535   9.235 -0.6106 -0.5770 -0.0400
  892MOL0     C20340   9.344   0.674   9.204  0.2652 -0.0412 -0.1165
  892MOL0     C20341   9.463   0.734   9.160  0.1285 -0.0930 -0.2314
  892MOL0     C20342   9.577   0.659   9.137 -0.1107 -0.0863 -0.0989
  892MOL0     O20343   9.692   0.727   9.093 -0.6850 -0.0508  0.4921
  892MOL0     C20344   9.725   0.852   9.152 -0.5566  0.3582 -0.5479
  892MOL0     C20345   9.858   0.901   9.101 -0.2657 -0.4624  0.5839
  892MOL0     C20346   9.990   0.842   9.156  0.1408 -0.2656 -0.3591
  892MOL0     C20347  10.122   0.898   9.096  0.6797 -0.1096 -0.0711
  892MOL0     C20348  10.150   0.871   8.951  0.3217  0.7939  0.2981
  892MOL0     C20349  10.169   0.831   8.840  0.4496 -0.8982 -0.7524
  892MOL0     C20350   9.570   0.527   9.156  0.0472 -0.1676  0.1005
  892MOL0     C20351   9.464   0.459   9.214 -0.9080  0.3971  0.3056
  892MOL0     C20352   9.476   0.316   9.231  0.2541 -0.1310 -0.1605
  892MOL0     H20353   9.032   0.475   9.530 -3.7767  0.3574  1.1377
  892MOL0     H20354   8.868   0.361   9.630 -1.5695  1.8020 -2.5149
  892MOL0     H20355   8.863  -0.100   9.563 -1.6485  2.6154 -1.1366
  892MOL0     H20356   8.924  -0.074   9.726 -0.7305  0.5552  0.5726
  892MOL0     H20357   8.746  -0.233   9.731  3.4872  1.2506 -2.8376
  892MOL0     H20358   8.634  -0.105   9.676 -0.2535 -0.3430  0.6132
  892MOL0     H20359   8.629   0.019   9.870  1.3550  1.1268 -0.2048
  892MOL0     H20360   8.783  -0.020   9.913  0.6016 -0.9061  0.1943
  892MOL0     H20361   8.535  -0.203   9.946 -0.1520  1.2615  1.7547
  892MOL0     H20362   8.695  -0.273   9.952  2.1183  1.1180  0.4334
  892MOL0     H20363   8.638  -0.028  10.124 -3.7394 -0.3634 -1.3212
  892MOL0     H20364   8.574  -0.176  10.178  0.1690 -1.9240 -1.4970
  892MOL0     H20365   8.810  -0.288  10.173  4.2455  0.1036  0.7193
  892MOL0     H20366   8.862  -0.137  10.119 -1.1038  1.2680  1.6124
  892MOL0     H20367   8.723  -0.219  10.381 -0.9368 -0.6664 -2.5461
  892MOL0     H20368   8.785  -0.051  10.353  1.3410  0.0615  1.3204
  892MOL0     H20369   8.931  -0.183  10.494  1.0019  0.9865 -0.1840
  892MOL0     H20370   8.953  -0.284  10.351  0.3116 -0.3758  0.6919
  892MOL0     H20371   9.020   0.097  10.441 -1.4809  1.2588 -1.3048
  892MOL0     H20372   9.193   0.307  10.264  4.0308  1.8124  0.9272
  892MOL0     H20373   9.237   0.248  10.410 -0.5128 -0.5072  0.4311
  892MOL0     H20374   9.388   0.158  10.148  0.6588 -0.0141 -0.0810
  892MOL0     H20375   9.442   0.296  10.236 -0.8282  0.0342 -0.2860
  892MOL0     H20376   9.573   0.082  10.285 -1.3126 -0.0181 -2.0089
  892MOL0     H20377   9.427   0.016  10.353 -1.1458  0.2755  1.1857
  892MOL0     H20378   9.573   0.106  10.529  3.5543  0.3916 -3.0368
  892MOL0     H20379   9.418   0.186  10.538  1.4833  1.2411  2.1291
  892MOL0     H20380   9.757   0.111  10.374 -0.8380 -1.1896  1.4704
  892MOL0     H20381  10.010   0.142  10.392  3.1183  3.5414 -0.6026
  892MOL0     H20382  10.412   0.293  10.621  2.4286  1.2217  1.7310
  892MOL0     H20383  10.648   0.301  10.565 -3.1395  2.5952  2.7172
  892MOL0     H20384  10.815   0.236  10.164 -0.4600  0.4116  0.0613
  892MOL0     H20385  10.802   0.416  10.163 -2.7560 -0.3720 -0.4065
  892MOL0     H20386  11.009   0.229  10.276 -0.0983  0.0319 -0.3300
  892MOL0     H20387  11.041   0.352  10.151 -0.4817  1.3665  0.7278
  892MOL0     H20388  11.009   0.537  10.300 -0.9737 -0.8239 -0.4275
  892MOL0     H20389  10.957   0.437  10.436 -1.6105  0.9092 -0.1039
  892MOL0     H20390  11.179   0.322  10.422 -0.0488  0.3113  0.7925
  892MOL0     H20391  11.186   0.484  10.495 -0.4139 -1.1876  0.9721
  892MOL0     H20392  11.258   0.424  10.207  1.3655  0.9950 -1.3145
  892MOL0     H20393  11.374   0.437  10.345 -1.7899  0.3095  3.6508
  892MOL0     H20394  11.198   0.633  10.205  1.7665 -1.9108 -2.5011
  892MOL0     H20395  11.256   0.678  10.369 -1.2527 -0.8863  1.4243
  892MOL0     H20396  11.386   0.784  10.183  2.7623  0.1484 -1.7314
  892MOL0     H20397  11.416   0.627  10.118 -0.0121  2.7481 -1.3610
  892MOL0     H20398  11.534   0.760  10.367 -1.9503  0.5061 -0.9070
  892MOL0     H20399  11.541   0.581  10.340 -0.6917  0.7729 -0.1623
  892MOL0     H20400  10.564   0.335  10.146  1.1735 -0.5320  0.0711
  892MOL0     H20401  10.332   0.297  10.195  1.1464 -0.0916 -1.1024
  892MOL0     H20402   9.944   0.529  10.559  0.8844  0.0164  0.0698
  892MOL0     H20403   9.694   0.512  10.512  1.5051 -0.2915  2.5971
  892MOL0     H20404   9.038  -0.018   9.498 -1.1346  0.2181  0.5556
  892MOL0     H20405   9.220   0.110   9.395 -0.8800  0.2837 -0.9124
  892MOL0     H20406   9.251   0.729   9.217 -0.1926 -1.3250  2.8466
  892MOL0     H20407   9.472   0.842   9.155  2.3103 -0.1422  1.1670
  892MOL0     H20408   9.725   0.844   9.262  1.1212 -0.7845 -0.5878
  892MOL0     H20409   9.648   0.926   9.128 -0.1253  1.0187  0.0607
  892MOL0     H20410   9.874   1.008   9.116  1.4892 -0.4642 -0.9142
  892MOL0     H20411   9.853   0.883   8.993  1.1636 -0.0319  0.4311
  892MOL0     H20412   9.987   0.733   9.151 -1.1233 -0.1813 -2.5161
  892MOL0     H20413   9.988   0.871   9.262  1.0478 -1.2262 -0.0686
  892MOL0     H20414  10.114   1.006   9.111 -0.3025  0.1953 -2.3551
  892MOL0     H20415  10.213   0.873   9.151  1.1339  1.4378 -0.0669
  892MOL0     H20416  10.192   0.806   8.739  0.3265  1.9188 -1.5718
  892MOL0     H20417   9.661   0.470   9.141 -0.2381 -0.7141  0.4237
  892MOL0     H20418   9.494   0.285   9.334  2.7005  0.7479 -0.2443
  892MOL0     H20419   9.390   0.265   9.188  0.0035  0.3604 -0.2511
  892MOL0     H20420   9.562   0.274   9.178  1.4928  2.4560 -0.4040
  893MOL0     O20421   4.076   5.870   4.299 -0.1156 -1.2384 -0.5415
  893MOL0     C20422   4.089   5.942   4.202 -0.0803 -0.2362  0.3629
  893MOL0     O20423   3.981   5.983   4.120 -0.4731 -0.0489 -0.6210
  893MOL0     C20424   3.867   5.911   4.130  0.2378  0.5858 -0.2347
  893MOL0     C20425   3.755   5.955   4.201 -0.1308  0.4292 -0.8862
  893MOL0     C20426   3.635   5.877   4.199 -0.0211  0.7993 -0.1901
  893MOL0     C20427   3.636   5.754   4.142  0.4933 -0.0045  0.3385
  893MOL0     O20428   3.522   5.685   4.155  0.4287  1.0379 -0.0671
  893MOL0     C20429   3.511   5.543   4.109  0.6809 -0.3761 -0.0543
  893MOL0     C20430   3.591   5.447   4.197  0.2496 -0.2358 -0.7749
  893MOL0     C20431   3.546   5.306   4.173 -0.6916  0.0884  0.2224
  893MOL0     C20432   3.616   5.220   4.280  0.7250  0.2286  0.0462
  893MOL0     C20433   3.561   5.075   4.301 -0.6050 -0.0804 -0.1844
  893MOL0     C20434   3.590   4.978   4.187  0.4427 -0.9673  0.2446
  893MOL0     C20435   3.738   4.977   4.148  0.0269 -0.3279 -0.7089
  893MOL0     C20436   3.790   4.845   4.083 -0.7603 -0.3052 -0.8753
  893MOL0     N20437   3.933   4.858   4.041  0.5885  0.7088 -0.5044
  893MOL0     C20438   4.044   4.812   4.111  0.5618 -0.6173 -0.1884
  893MOL0     C20439   4.156   4.854   4.053  0.0981 -0.2789 -0.1326
  893MOL0     C20440   4.291   4.811   4.111  0.0161 -0.1479  0.4384
  893MOL0     C20441   4.377   4.754   3.999 -0.0287 -0.0655  0.2164
  893MOL0     C20442   4.518   4.710   4.038  0.3586  0.3666  0.8224
  893MOL0     C20443   4.588   4.655   3.928 -0.3884  1.4243  0.1301
  893MOL0     O20444   4.548   4.523   3.892  0.1950 -0.2531 -0.0758
  893MOL0     C20445   4.641   4.422   3.863  0.2328 -0.6471 -0.8391
  893MOL0     C20446   4.617   4.299   3.919 -0.0149 -0.3423 -0.0078
  893MOL0     C20447   4.703   4.195   3.887 -0.8864  0.5717  0.7219
  893MOL0     C20448   4.804   4.202   3.781 -1.0322  0.1590 -0.2224
  893MOL0     C20449   4.883   4.086   3.738  0.4869  0.8419 -1.2862
  893MOL0     O20450   4.954   4.092   3.621 -0.8285  0.4373 -0.0274
  893MOL0     C20451   5.017   3.975   3.563  0.8014  0.4121  0.1733
  893MOL0     C20452   5.140   3.988   3.495  0.6998 -1.1568  0.4572
  893MOL0     C20453   5.212   3.882   3.442  0.1839 -0.1416  1.1065
  893MOL0     C20454   5.156   3.756   3.444  0.0376 -0.6290 -0.1532
  893MOL0     O20455   5.233   3.647   3.411  0.3862  0.3788 -0.1945
  893MOL0     C20456   5.229   3.548   3.516 -1.0270 -0.4183  0.0512
  893MOL0     C20457   5.373   3.495   3.503  0.3239  0.6419  0.0124
  893MOL0     C20458   5.488   3.586   3.506 -0.1508  0.0880 -1.0516
  893MOL0     C20459   5.598   3.530   3.604  0.3119  0.8977  0.8735
  893MOL0     C20460   5.727   3.619   3.605  1.0031  0.2879 -0.7874
  893MOL0     C20461   5.829   3.583   3.506 -0.0906 -0.1165 -0.9904
  893MOL0     C20462   5.953   3.671   3.509 -0.1502  0.0877 -0.1566
  893MOL0     C20463   6.049   3.627   3.403 -0.8670 -0.0826  0.0239
  893MOL0    Cl20464   6.009   3.673   3.230 -0.1329 -0.3261  0.0043
  893MOL0     C20465   5.026   3.741   3.508  0.0595  0.2334  0.8070
  893MOL0     C20466   4.950   3.852   3.560  0.3425  0.2828  0.2343
  893MOL0     O20467   4.891   3.993   3.821 -0.9375 -0.3713  0.9678
  893MOL0     C20468   4.825   4.330   3.722  0.0244 -0.0528 -0.2639
  893MOL0     C20469   4.744   4.438   3.760  0.0645  0.7491 -0.5229
  893MOL0     N20470   4.115   4.931   3.935  0.8861  0.5951 -1.1401
  893MOL0     N20471   3.982   4.922   3.934 -0.3834 -0.5219  0.3115
  893MOL0     C20472   3.752   5.710   4.068  0.3861 -0.3427  0.2082
  893MOL0     C20473   3.866   5.789   4.062 -0.3529 -0.0561 -0.4366
  893MOL0     C20474   4.224   5.983   4.157 -0.6412  1.0640 -0.3148
  893MOL0     C20475   4.249   6.117   4.124  0.1275 -0.1414  0.4923
  893MOL0     C20476   4.374   6.155   4.070 -0.1346  0.0186  0.3052
  893MOL0     C20477   4.481   6.067   4.054 -0.1487  0.6724  0.5813
  893MOL0     O20478   4.604   6.095   4.002 -0.4187 -0.0215  0.8784
  893MOL0     C20479   4.658   6.234   4.010  0.2728  0.3873  0.2786
  893MOL0     C20480   4.672   6.280   4.153  0.2952  0.7620  0.3172
  893MOL0     C20481   4.748   6.176   4.229 -0.2823 -0.0756 -0.1237
  893MOL0     C20482   4.762   6.189   4.379 -0.0232  0.4120 -0.6147
  893MOL0     C20483   4.859   6.290   4.425 -0.6505  0.3983  0.5939
  893MOL0     C20484   4.936   6.364   4.476  0.1610 -0.4668 -0.3640
  893MOL0     C20485   4.447   5.935   4.085 -0.3846 -0.5422  0.6764
  893MOL0     C20486   4.329   5.889   4.142 -0.5184  0.4858 -0.3251
  893MOL0     C20487   4.314   5.742   4.176  0.1959  0.1176 -0.5056
  893MOL0     H20488   3.771   6.049   4.253  1.8238 -0.9245  1.0873
  893MOL0     H20489   3.543   5.908   4.248  0.1228 -0.0181  0.6089
  893MOL0     H20490   3.406   5.512   4.109  1.3605 -2.8852 -0.4656
  893MOL0     H20491   3.538   5.528   4.004  1.9337  2.6645 -0.2624
  893MOL0     H20492   3.577   5.472   4.303 -2.8688  3.0928 -1.7539
  893MOL0     H20493   3.697   5.445   4.172 -0.0552 -3.4365 -2.2633
  893MOL0     H20494   3.565   5.284   4.068  0.9144  0.9817  0.2902
  893MOL0     H20495   3.438   5.291   4.185 -0.3328 -1.9870  1.2950
  893MOL0     H20496   3.723   5.214   4.254  0.6178 -1.7321 -0.1276
  893MOL0     H20497   3.623   5.260   4.381 -0.9120  1.7236 -0.3952
  893MOL0     H20498   3.602   5.033   4.394  1.0163 -1.0875 -1.3072
  893MOL0     H20499   3.451   5.073   4.298 -0.5789 -0.4410 -2.0411
  893MOL0     H20500   3.542   4.883   4.209 -3.6501  0.6055 -0.9013
  893MOL0     H20501   3.538   5.010   4.096 -2.9739 -2.3106  1.5550
  893MOL0     H20502   3.794   4.995   4.240  0.0966  2.2536 -1.1632
  893MOL0     H20503   3.761   5.065   4.086 -0.8415  1.1989  1.0577
  893MOL0     H20504   3.781   4.759   4.150 -0.5067  1.4841  1.6160
  893MOL0     H20505   3.728   4.837   3.994 -0.5380 -0.6920 -0.9992
  893MOL0     H20506   4.041   4.742   4.193 -1.6782  0.9642  1.1837
  893MOL0     H20507   4.337   4.902   4.150 -0.7907  2.4581 -3.9834
  893MOL0     H20508   4.273   4.738   4.191 -3.0754  1.0566  0.9848
  893MOL0     H20509   4.332   4.671   3.945 -0.7750  0.9258 -0.7145
  893MOL0     H20510   4.381   4.839   3.930 -0.1388  2.1370  2.7378
  893MOL0     H20511   4.505   4.636   4.118 -3.0316 -0.5370 -0.4160
  893MOL0     H20512   4.570   4.802   4.069  0.1914  1.0829 -0.9235
  893MOL0     H20513   4.695   4.656   3.949 -0.0054 -0.6274 -1.3975
  893MOL0     H20514   4.555   4.714   3.842  0.5918  1.1339 -0.4545
  893MOL0     H20515   4.540   4.303   3.996  0.3049 -0.3657  0.3187
  893MOL0     H20516   4.682   4.110   3.950 -2.9724 -0.9484 -1.8121
  893MOL0     H20517   5.188   4.085   3.490 -0.2332 -0.7240 -1.5526
  893MOL0     H20518   5.311   3.891   3.398 -1.3861  2.5055 -2.4877
  893MOL0     H20519   5.216   3.584   3.619  0.3131 -0.3109  0.2048
  893MOL0     H20520   5.154   3.471   3.501  0.5864 -2.0653  0.1551
  893MOL0     H20521   5.382   3.418   3.579 -0.4783  0.2882 -0.2474
  893MOL0     H20522   5.391   3.445   3.407  0.3826 -0.5474  0.6244
  893MOL0     H20523   5.535   3.604   3.409 -0.2765  2.2208 -0.7514
  893MOL0     H20524   5.468   3.686   3.546  1.7945 -0.3635  1.2809
  893MOL0     H20525   5.627   3.430   3.569 -0.6045  1.0086 -0.2535
  893MOL0     H20526   5.558   3.506   3.703 -1.2051  0.0070  0.0876
  893MOL0     H20527   5.768   3.641   3.704 -1.2630 -0.4839  0.3905
  893MOL0     H20528   5.698   3.724   3.590 -0.4589 -0.1233 -0.9857
  893MOL0     H20529   5.871   3.484   3.526  3.9111  1.7171  0.8186
  893MOL0     H20530   5.789   3.578   3.404 -0.8933 -0.6946 -0.6603
  893MOL0     H20531   5.989   3.687   3.611 -0.7084  3.1048 -0.3400
  893MOL0     H20532   5.919   3.769   3.474 -0.8309 -0.2437 -0.4457
  893MOL0     H20533   6.137   3.682   3.437 -0.7510 -0.1450 -0.1736
  893MOL0     H20534   6.072   3.520   3.402 -1.4804 -0.2184 -1.0450
  893MOL0     H20535   4.986   3.642   3.525  0.8980 -0.1358  0.6841
  893MOL0     H20536   4.855   3.831   3.610 -1.7657  3.7395 -1.9048
  893MOL0     H20537   4.910   4.341   3.655  0.6701  1.0056  0.6956
  893MOL0     H20538   4.749   4.540   3.723  2.5771  0.8856  0.0288
  893MOL0     H20539   3.749   5.608   4.033 -1.2780  0.7321 -3.2270
  893MOL0     H20540   3.961   5.765   4.017  0.7974  0.9124  1.3635
  893MOL0     H20541   4.180   6.200   4.138  1.1954  1.3356 -2.2092
  893MOL0     H20542   4.383   6.253   4.024  0.0184 -0.4603 -0.7286
  893MOL0     H20543   4.589   6.305   3.961  0.4569 -0.4473 -1.2576
  893MOL0     H20544   4.756   6.241   3.963  0.3250 -1.0679  0.1388
  893MOL0     H20545   4.577   6.292   4.205 -1.1486 -0.3618 -1.9361
  893MOL0     H20546   4.733   6.371   4.146  2.8304 -0.7862  0.6482
  893MOL0     H20547   4.849   6.162   4.191 -0.1283  2.7938 -1.0258
  893MOL0     H20548   4.693   6.082   4.220  1.4401 -1.4015  2.1464
  893MOL0     H20549   4.664   6.217   4.419 -1.0105  0.1049 -2.6637
  893MOL0     H20550   4.795   6.095   4.424  0.1402  0.8113  0.0980
  893MOL0     H20551   4.989   6.440   4.530 -1.1656  0.0237  0.2895
  893MOL0     H20552   4.525   5.862   4.063  1.0548  1.7251 -2.5496
  893MOL0     H20553   4.308   5.723   4.284  2.4856  1.8336 -0.0071
  893MOL0     H20554   4.226   5.706   4.121 -0.2233  2.7545 -1.7113
  893MOL0     H20555   4.403   5.686   4.148  0.3044 -1.8244  3.1507
  894MOL0     O20556   0.299   7.746   3.572 -0.1216  0.1997 -0.0068
  894MOL0     C20557   0.292   7.796   3.689 -0.3680 -0.4002 -0.5277
  894MOL0     O20558   0.400   7.862   3.757 -0.2335 -0.1646  0.2715
  894MOL0     C20559   0.512   7.893   3.681 -0.0307  0.2745  0.1918
  894MOL0     C20560   0.504   7.967   3.560  0.0861 -0.2386  0.1516
  894MOL0     C20561   0.615   7.986   3.479 -0.0921  0.2517 -0.1940
  894MOL0     C20562   0.741   7.944   3.523 -0.6998 -0.1802 -0.3186
  894MOL0     O20563   0.846   7.974   3.439 -0.5203  0.3956 -0.3273
  894MOL0     C20564   0.959   8.033   3.510 -0.3317  0.5713 -0.7961
  894MOL0     C20565   1.071   8.061   3.417  0.1491 -0.3208 -0.4069
  894MOL0     C20566   1.144   7.938   3.362  0.4465  0.2319  0.0164
  894MOL0     C20567   1.292   7.960   3.319  0.7298 -0.2958  0.8859
  894MOL0     C20568   1.342   7.837   3.233 -0.3093 -0.0275  0.4868
  894MOL0     C20569   1.489   7.862   3.189 -0.1235 -0.7122 -0.4784
  894MOL0     C20570   1.542   7.740   3.120 -0.4965  0.4596 -0.3027
  894MOL0     C20571   1.679   7.766   3.058 -0.2264  0.7411  0.4686
  894MOL0     N20572   1.782   7.804   3.150 -0.2058 -0.3772  0.0532
  894MOL0     C20573   1.867   7.910   3.134 -0.4457  0.5676 -0.4843
  894MOL0     C20574   1.946   7.903   3.250 -0.0206  0.7760  1.1554
  894MOL0     C20575   2.080   7.978   3.266  0.5848  0.4371  0.4607
  894MOL0     C20576   2.080   8.102   3.353 -0.8184 -0.1318 -0.8396
  894MOL0     C20577   2.019   8.086   3.496  0.2178 -0.1182 -0.1704
  894MOL0     C20578   2.115   8.020   3.592  0.1640  0.5151 -0.5543
  894MOL0     O20579   2.216   8.123   3.619 -0.0658 -0.0871 -0.1367
  894MOL0     C20580   2.347   8.084   3.616 -0.2826 -0.1875 -0.2929
  894MOL0     C20581   2.435   8.131   3.513  0.2074 -0.3810 -0.7489
  894MOL0     C20582   2.579   8.110   3.516 -0.1097  0.3675  0.6964
  894MOL0     C20583   2.633   8.036   3.621  0.1062 -0.4959 -1.4958
  894MOL0     C20584   2.784   8.015   3.617 -0.0820  1.3442  0.8329
  894MOL0     O20585   2.857   8.091   3.539  0.2373  0.0930  0.2799
  894MOL0     C20586   2.991   8.083   3.523 -0.3699  0.3521  0.2761
  894MOL0     C20587   3.048   8.077   3.392 -0.4510 -0.1718 -0.1501
  894MOL0     C20588   3.189   8.069   3.367  0.2163  0.0017 -0.8402
  894MOL0     C20589   3.270   8.058   3.479  0.4059  0.8701 -0.3032
  894MOL0     O20590   3.402   8.031   3.460 -0.3287 -0.3611 -0.5574
  894MOL0     C20591   3.482   8.140   3.398  0.1552  0.3752  0.5044
  894MOL0     C20592   3.620   8.093   3.403  0.1970  0.5309  0.5368
  894MOL0     C20593   3.699   8.111   3.535  0.7363  0.3602  0.3934
  894MOL0     C20594   3.843   8.064   3.537 -0.2042  0.3832  0.0677
  894MOL0     C20595   3.916   8.074   3.667  0.5390 -0.0363 -0.8688
  894MOL0     C20596   3.858   7.967   3.763  0.0804 -0.7243 -0.2521
  894MOL0     C20597   3.815   8.028   3.896  0.5848 -0.6317 -0.4977
  894MOL0     C20598   3.678   8.104   3.896  0.0904  0.0470 -0.2233
  894MOL0    Cl20599   3.533   8.010   3.859  0.1575  0.3559 -0.7575
  894MOL0     C20600   3.214   8.052   3.606  0.1070  0.1554 -0.0494
  894MOL0     C20601   3.077   8.061   3.634 -0.8006 -0.1663  0.7935
  894MOL0     O20602   2.831   7.916   3.681 -0.6413  0.5779 -0.4899
  894MOL0     C20603   2.547   7.980   3.718 -0.2162  0.3174  0.9991
  894MOL0     C20604   2.403   8.004   3.718 -0.5234  0.0705  0.1334
  894MOL0     N20605   1.896   7.807   3.334  0.0448 -0.0733  0.9063
  894MOL0     N20606   1.800   7.743   3.275 -0.2590  1.2703  1.0378
  894MOL0     C20607   0.756   7.888   3.654  0.1073 -0.1592  0.3011
  894MOL0     C20608   0.642   7.855   3.727 -0.1137 -0.0442  0.4327
  894MOL0     C20609   0.164   7.776   3.763  0.5072 -0.8988 -0.5833
  894MOL0     C20610   0.179   7.762   3.903  0.0837 -0.6938  0.0751
  894MOL0     C20611   0.066   7.743   3.982 -1.1571  0.5793  0.2048
  894MOL0     C20612  -0.061   7.745   3.939 -0.0933  0.1471  0.0227
  894MOL0     O20613  -0.155   7.716   4.033  0.3486 -0.1496  0.2434
  894MOL0     C20614  -0.293   7.718   3.980 -0.3009 -0.3646 -0.1971
  894MOL0     C20615  -0.401   7.698   4.079 -0.2031 -0.3481  0.0603
  894MOL0     C20616  -0.394   7.570   4.152 -1.3004 -0.2498  0.0177
  894MOL0     C20617  -0.524   7.548   4.224  0.4008  0.3310 -0.6786
  894MOL0     C20618  -0.567   7.666   4.314 -0.4134 -0.3117 -0.1377
  894MOL0     C20619  -0.573   7.751   4.393 -0.7172 -0.3394  0.1679
  894MOL0     C20620  -0.078   7.771   3.801 -0.5291  0.6996  0.0365
  894MOL0     C20621   0.032   7.792   3.715  0.4732 -0.3702  0.6701
  894MOL0     C20622  -0.006   7.817   3.573  0.0167  0.2285  0.5141
  894MOL0     H20623   0.406   8.000   3.529  0.5577  1.6338  0.5251
  894MOL0     H20624   0.604   8.035   3.383 -2.0763 -3.9396 -2.3795
  894MOL0     H20625   0.927   8.128   3.554 -0.6139  0.3540 -0.5270
  894MOL0     H20626   1.000   7.981   3.597  0.2337  0.7231 -0.9670
  894MOL0     H20627   1.145   8.118   3.473 -0.9663  0.1998  0.5782
  894MOL0     H20628   1.040   8.131   3.339  1.2886 -0.6533 -1.1734
  894MOL0     H20629   1.094   7.911   3.268  1.7485 -3.1477  0.1413
  894MOL0     H20630   1.137   7.856   3.434  3.2533  0.9134  1.2019
  894MOL0     H20631   1.299   8.051   3.260  0.5847 -1.7260 -1.4350
  894MOL0     H20632   1.356   7.970   3.408  1.5510 -1.9410  0.5268
  894MOL0     H20633   1.329   7.748   3.294  0.3412 -0.1616  0.4317
  894MOL0     H20634   1.278   7.821   3.146 -1.6038 -1.7290  1.6942
  894MOL0     H20635   1.506   7.953   3.131 -1.6863  0.9531  1.5497
  894MOL0     H20636   1.547   7.891   3.276 -1.1205  2.8992 -0.8541
  894MOL0     H20637   1.465   7.714   3.047 -0.5800  2.0343 -0.8043
  894MOL0     H20638   1.554   7.654   3.187  0.1126 -1.0957 -2.3106
  894MOL0     H20639   1.706   7.670   3.014  0.2706 -1.4379  4.9270
  894MOL0     H20640   1.668   7.849   2.987  0.2974  1.7639  1.5451
  894MOL0     H20641   1.883   7.965   3.041  1.1363  0.2840 -0.4134
  894MOL0     H20642   2.157   7.910   3.303  0.9828  0.6408  0.0216
  894MOL0     H20643   2.113   8.020   3.171  2.9296  5.2351  3.0014
  894MOL0     H20644   2.176   8.152   3.362 -0.3043 -0.6616 -2.8452
  894MOL0     H20645   2.019   8.176   3.301  1.3792  1.0630 -1.8548
  894MOL0     H20646   1.923   8.034   3.488 -0.0192  0.0908  1.1150
  894MOL0     H20647   1.999   8.186   3.535  0.4443 -0.3127  0.4702
  894MOL0     H20648   2.152   7.926   3.550 -3.5422 -1.6735  0.5991
  894MOL0     H20649   2.061   7.999   3.684 -1.7703  3.5091 -0.8540
  894MOL0     H20650   2.395   8.178   3.423  0.9795  0.1536 -0.8284
  894MOL0     H20651   2.647   8.154   3.445 -0.7413  1.9819  1.0384
  894MOL0     H20652   2.981   8.076   3.306 -0.4895 -0.2268 -0.1195
  894MOL0     H20653   3.239   8.064   3.271 -0.1555 -0.7816 -0.9950
  894MOL0     H20654   3.444   8.164   3.298  1.7131 -1.7984 -0.6907
  894MOL0     H20655   3.477   8.229   3.461  1.0973  0.8556 -0.0927
  894MOL0     H20656   3.613   7.984   3.400 -1.6108  0.6257  0.1671
  894MOL0     H20657   3.670   8.137   3.316 -0.7815  1.5850  0.4881
  894MOL0     H20658   3.698   8.218   3.559 -2.0723  1.5767 -4.0364
  894MOL0     H20659   3.659   8.061   3.624  0.6035 -0.5226 -0.1540
  894MOL0     H20660   3.902   8.127   3.470 -1.1789  0.8064 -0.3975
  894MOL0     H20661   3.851   7.966   3.489 -0.7415  0.4669 -0.1936
  894MOL0     H20662   3.915   8.180   3.694  3.0379 -0.0570 -0.4238
  894MOL0     H20663   4.019   8.040   3.651 -0.2459 -3.2874  0.1888
  894MOL0     H20664   3.779   7.912   3.710  1.1424 -1.4938 -1.0893
  894MOL0     H20665   3.938   7.895   3.784 -0.0283 -0.5969  0.6328
  894MOL0     H20666   3.887   8.093   3.947 -0.6920  0.5238 -0.0932
  894MOL0     H20667   3.810   7.940   3.961  0.4711 -0.6453 -0.5259
  894MOL0     H20668   3.660   8.135   4.000 -0.4508  0.8098 -0.5268
  894MOL0     H20669   3.686   8.189   3.827  1.2060  0.4055  0.3231
  894MOL0     H20670   3.276   8.031   3.693  0.3582 -0.9093 -0.4677
  894MOL0     H20671   3.037   8.040   3.733 -2.3650 -0.2381  0.1866
  894MOL0     H20672   2.585   7.921   3.800  1.4348 -0.2762 -0.1228
  894MOL0     H20673   2.342   7.964   3.799  1.6768  2.4640  3.1757
  894MOL0     H20674   0.850   7.857   3.699 -0.2345 -0.6302  0.7107
  894MOL0     H20675   0.643   7.803   3.822 -2.3793 -2.2756 -0.6401
  894MOL0     H20676   0.277   7.760   3.950  0.3964  1.3660 -0.3476
  894MOL0     H20677   0.087   7.722   4.087 -0.4892  1.8891  0.3563
  894MOL0     H20678  -0.303   7.643   3.901  2.7809 -0.5529 -0.5031
  894MOL0     H20679  -0.315   7.818   3.941  2.4764  0.2233 -0.4265
  894MOL0     H20680  -0.495   7.711   4.024  0.1934  0.4704 -0.4352
  894MOL0     H20681  -0.397   7.781   4.150  0.6640 -2.2117  2.3080
  894MOL0     H20682  -0.309   7.560   4.221  0.1195 -2.4022 -1.8948
  894MOL0     H20683  -0.367   7.492   4.081  1.1407  0.4225  0.1091
  894MOL0     H20684  -0.609   7.520   4.160 -0.0817 -0.8204  0.4245
  894MOL0     H20685  -0.507   7.461   4.287  0.8328 -0.1201 -1.4035
  894MOL0     H20686  -0.568   7.825   4.471  1.7832 -2.2594  2.0047
  894MOL0     H20687  -0.178   7.777   3.759 -1.2936 -0.8296  1.5073
  894MOL0     H20688   0.073   7.849   3.505 -0.9020  0.2282 -0.5879
  894MOL0     H20689  -0.045   7.728   3.523  1.4212  1.1307 -2.4298
  894MOL0     H20690  -0.082   7.896   3.567  0.8731  1.2968  2.5408
  895MOL0     O20691   7.786   0.046   1.296  0.2603 -0.0052  0.3696
  895MOL0     C20692   7.744  -0.053   1.239  0.1043  1.0696 -0.1298
  895MOL0     O20693   7.823  -0.141   1.169  0.1586 -0.2949  0.3831
  895MOL0     C20694   7.959  -0.134   1.169  0.0795 -0.5025  0.1992
  895MOL0     C20695   8.032  -0.238   1.226  0.2922 -0.2851 -0.3119
  895MOL0     C20696   8.174  -0.217   1.223 -0.2941  0.7472  0.1455
  895MOL0     C20697   8.234  -0.097   1.187  0.1128  0.8124 -0.0360
  895MOL0     O20698   8.364  -0.062   1.205  0.0880  0.2765 -0.0966
  895MOL0     C20699   8.455  -0.166   1.253  1.1026 -0.7127  0.3310
  895MOL0     C20700   8.439  -0.186   1.407  0.4712 -0.0449 -0.5780
  895MOL0     C20701   8.515  -0.067   1.476 -0.5355  0.0794 -0.6545
  895MOL0     C20702   8.664  -0.072   1.469  0.1459  0.2892  0.3262
  895MOL0     C20703   8.720  -0.177   1.565  0.8899  0.7362  0.1986
  895MOL0     C20704   8.869  -0.158   1.589  0.0174 -0.7213  0.6679
  895MOL0     C20705   8.951  -0.280   1.645 -0.2362 -0.4773 -0.2560
  895MOL0     C20706   8.967  -0.400   1.554 -0.7051 -0.1853  0.3888
  895MOL0     N20707   9.072  -0.482   1.613  0.1902  0.4106 -0.1972
  895MOL0     C20708   9.049  -0.573   1.708  0.2285  0.0482  0.3558
  895MOL0     C20709   9.168  -0.612   1.750 -0.2676  0.2851  0.0938
  895MOL0     C20710   9.176  -0.725   1.846  0.0479  0.2209 -0.7747
  895MOL0     C20711   9.137  -0.674   1.983  0.7616  0.7146  0.2101
  895MOL0     C20712   9.205  -0.745   2.097 -0.0763  0.6483  0.4487
  895MOL0     C20713   9.354  -0.703   2.112 -0.2069 -1.3659 -0.2844
  895MOL0     O20714   9.413  -0.747   2.238 -0.0106 -0.2051 -0.0872
  895MOL0     C20715   9.554  -0.758   2.249  0.0231  0.0930 -0.0829
  895MOL0     C20716   9.616  -0.826   2.352 -0.3424 -0.3650 -1.0797
  895MOL0     C20717   9.751  -0.842   2.382 -0.9435 -0.6397  0.8299
  895MOL0     C20718   9.840  -0.762   2.309  0.6411  0.6196 -0.5067
  895MOL0     C20719   9.982  -0.798   2.328 -0.3547  0.4518  0.3858
  895MOL0     O20720  10.019  -0.815   2.468  0.5044 -0.2662  0.9109
  895MOL0     C20721  10.152  -0.799   2.517  0.2785  0.0366  0.1005
  895MOL0     C20722  10.186  -0.843   2.639 -0.1212 -0.1360  0.2664
  895MOL0     C20723  10.303  -0.801   2.706  0.0529  0.2216 -0.3315
  895MOL0     C20724  10.399  -0.714   2.648 -0.5957  0.0760 -0.7386
  895MOL0     O20725  10.518  -0.679   2.702 -0.6190 -0.4412  0.1275
  895MOL0     C20726  10.540  -0.712   2.842 -0.3808 -1.0271 -0.4335
  895MOL0     C20727  10.613  -0.839   2.838  0.6229  0.6881 -0.1742
  895MOL0     C20728  10.768  -0.816   2.845  0.4809 -0.1235  0.0044
  895MOL0     C20729  10.850  -0.926   2.767 -0.7914  0.0907  0.0630
  895MOL0     C20730  10.993  -0.918   2.781 -0.2196 -0.2167 -0.1093
  895MOL0     C20731  11.061  -1.016   2.691 -0.0131 -0.7568  0.1119
  895MOL0     C20732  11.216  -0.994   2.703 -0.0074 -0.0407  0.7643
  895MOL0     C20733  11.300  -1.107   2.642 -0.4473  1.0233 -0.9456
  895MOL0    Cl20734  11.265  -1.261   2.724 -0.0611 -0.2974  0.1494
  895MOL0     C20735  10.363  -0.672   2.518 -0.0273  0.6993  0.5508
  895MOL0     C20736  10.242  -0.712   2.456 -0.3596  0.1293 -0.6639
  895MOL0     O20737  10.055  -0.792   2.226 -0.6510 -0.0641  0.6526
  895MOL0     C20738   9.788  -0.676   2.202  0.9994  0.2458  0.2899
  895MOL0     C20739   9.648  -0.686   2.176 -0.8826  0.2877  0.3334
  895MOL0     N20740   9.262  -0.547   1.674  0.3566 -0.4145 -0.7047
  895MOL0     N20741   9.203  -0.475   1.580 -0.8682 -0.0910 -0.0949
  895MOL0     C20742   8.155  -0.004   1.124  0.4653  0.1216  0.6432
  895MOL0     C20743   8.021  -0.028   1.105  0.1098  0.2260 -0.4917
  895MOL0     C20744   7.600  -0.079   1.269  0.5632 -0.2499  0.7739
  895MOL0     C20745   7.500   0.013   1.227  0.1785 -0.2007 -0.5312
  895MOL0     C20746   7.358  -0.015   1.256 -0.2159 -0.2135  0.4418
  895MOL0     C20747   7.324  -0.139   1.322  0.1471 -0.8187 -0.0611
  895MOL0     O20748   7.193  -0.174   1.330 -0.2680 -0.2741 -0.3209
  895MOL0     C20749   7.148  -0.174   1.470  0.7246 -1.3365  0.3921
  895MOL0     C20750   7.008  -0.223   1.483 -0.5651  0.1441  0.8908
  895MOL0     C20751   6.902  -0.144   1.410  0.3309 -0.4220  0.8032
  895MOL0     C20752   6.816  -0.050   1.501 -0.8058 -0.0495 -1.0720
  895MOL0     C20753   6.889   0.037   1.602 -0.8854 -0.0361 -0.5538
  895MOL0     C20754   6.959   0.114   1.668 -0.4287  0.6247 -0.1408
  895MOL0     C20755   7.428  -0.225   1.363 -0.5709 -0.8743  0.7981
  895MOL0     C20756   7.559  -0.196   1.336 -0.7804  0.2680  0.1476
  895MOL0     C20757   7.663  -0.297   1.387  0.2643 -0.5397  0.3054
  895MOL0     H20758   7.977  -0.324   1.262 -1.5385  1.7647  2.0737
  895MOL0     H20759   8.247  -0.291   1.255  2.6900  3.7584  0.8123
  895MOL0     H20760   8.447  -0.262   1.202  0.5599  0.5129 -2.0256
  895MOL0     H20761   8.551  -0.123   1.222  1.0920  0.6804  2.0655
  895MOL0     H20762   8.474  -0.280   1.450 -0.1044  1.6316  4.1345
  895MOL0     H20763   8.336  -0.178   1.443  0.1242 -0.2581 -1.5087
  895MOL0     H20764   8.479  -0.059   1.579 -0.5092  3.7669 -0.8149
  895MOL0     H20765   8.486   0.030   1.434  3.7263  1.4661 -0.8692
  895MOL0     H20766   8.697  -0.105   1.370 -1.1477  0.0046 -0.0364
  895MOL0     H20767   8.693   0.030   1.493 -0.8916  0.4697  0.8694
  895MOL0     H20768   8.665  -0.194   1.658 -1.3823  0.1511 -1.1569
  895MOL0     H20769   8.700  -0.274   1.518 -1.0782 -0.2941  2.9267
  895MOL0     H20770   8.911  -0.123   1.495 -2.2562  3.1709  0.8918
  895MOL0     H20771   8.871  -0.070   1.653 -0.7901  0.2806 -0.6440
  895MOL0     H20772   8.891  -0.314   1.730  1.0288 -2.0584  0.0467
  895MOL0     H20773   9.048  -0.236   1.669  0.0984 -1.1634 -0.3409
  895MOL0     H20774   8.875  -0.459   1.554 -1.5409  1.0725  1.3065
  895MOL0     H20775   9.001  -0.364   1.456 -2.9857  0.4023 -0.2583
  895MOL0     H20776   8.957  -0.609   1.754  0.3762 -0.2808  0.3994
  895MOL0     H20777   9.109  -0.805   1.813  0.0649  0.5195 -1.5526
  895MOL0     H20778   9.276  -0.767   1.855  1.5032  3.4602 -0.5426
  895MOL0     H20779   9.169  -0.570   1.988  1.3503  0.5165  0.7832
  895MOL0     H20780   9.029  -0.684   1.994  0.8682 -1.7274 -0.4172
  895MOL0     H20781   9.217  -0.852   2.080  1.2056  0.5432  1.7925
  895MOL0     H20782   9.156  -0.738   2.194 -0.0412  0.7347  0.4604
  895MOL0     H20783   9.370  -0.596   2.098 -1.0058 -0.7585  2.7672
  895MOL0     H20784   9.407  -0.748   2.027  0.9016 -0.8758  0.1367
  895MOL0     H20785   9.542  -0.878   2.412  2.0758 -3.6627 -0.6488
  895MOL0     H20786   9.780  -0.920   2.452  0.9139 -0.3740  0.4033
  895MOL0     H20787  10.112  -0.896   2.699 -1.6317  2.5337  0.9756
  895MOL0     H20788  10.318  -0.838   2.808  0.0678 -0.3536 -0.5370
  895MOL0     H20789  10.604  -0.638   2.892  0.4330 -1.3764 -0.9491
  895MOL0     H20790  10.453  -0.716   2.909  0.7857  2.5632  1.5698
  895MOL0     H20791  10.587  -0.889   2.932  3.0252 -0.7762 -0.2071
  895MOL0     H20792  10.591  -0.908   2.757  2.0319 -1.6377  1.2996
  895MOL0     H20793  10.794  -0.716   2.809 -0.1350  0.3462  0.8333
  895MOL0     H20794  10.805  -0.822   2.948  0.9940  0.7689 -0.1155
  895MOL0     H20795  10.825  -0.915   2.662  1.7192  0.2152 -0.5812
  895MOL0     H20796  10.824  -1.030   2.788 -2.5904  0.0889 -1.8768
  895MOL0     H20797  11.024  -0.930   2.885 -2.2956 -0.7706  0.4944
  895MOL0     H20798  11.027  -0.820   2.746  2.3777 -0.8004  0.5884
  895MOL0     H20799  11.043  -1.120   2.721  0.8354 -0.8604  0.2964
  895MOL0     H20800  11.021  -1.002   2.590  1.6565  1.4314 -0.3226
  895MOL0     H20801  11.249  -0.988   2.807 -0.5223 -0.8749  0.9904
  895MOL0     H20802  11.250  -0.906   2.648 -2.1385 -0.1695 -0.9178
  895MOL0     H20803  11.276  -1.117   2.536 -0.9734  2.7523 -1.0120
  895MOL0     H20804  11.404  -1.085   2.666 -0.7930  2.3842 -0.6007
  895MOL0     H20805  10.438  -0.607   2.475 -2.0666  1.2487 -2.4871
  895MOL0     H20806  10.210  -0.658   2.367 -1.8538 -1.0942 -0.9035
  895MOL0     H20807   9.864  -0.624   2.146  2.9020 -0.4544  2.0732
  895MOL0     H20808   9.616  -0.622   2.095 -0.2315  1.0126  0.6281
  895MOL0     H20809   8.191   0.092   1.087 -2.9749  1.0036 -0.7624
  895MOL0     H20810   7.962   0.046   1.053 -0.3228 -0.1898 -0.5912
  895MOL0     H20811   7.534   0.101   1.174 -0.8931  1.5391  1.5201
  895MOL0     H20812   7.287   0.053   1.209 -2.0581 -2.9836 -1.0819
  895MOL0     H20813   7.152  -0.078   1.523 -4.3370 -1.5124  1.6461
  895MOL0     H20814   7.207  -0.246   1.528  3.0604 -1.1596 -1.5876
  895MOL0     H20815   6.983  -0.223   1.590 -0.8981 -0.5681  0.8173
  895MOL0     H20816   7.013  -0.324   1.443  0.6828  0.1252  1.0526
  895MOL0     H20817   6.833  -0.209   1.355 -2.2176  2.9877 -0.4319
  895MOL0     H20818   6.958  -0.085   1.336 -0.0021  1.2402  1.8165
  895MOL0     H20819   6.775   0.029   1.437  3.6477  4.0650  0.5251
  895MOL0     H20820   6.746  -0.108   1.561 -0.0421 -2.3997 -2.3501
  895MOL0     H20821   7.010   0.197   1.714  0.5805 -0.1252  0.1320
  895MOL0     H20822   7.399  -0.321   1.405 -0.8449 -1.3265 -0.4017
  895MOL0     H20823   7.737  -0.247   1.450 -0.6122  1.7821 -0.4429
  895MOL0     H20824   7.614  -0.372   1.450  0.0749  0.8466  1.8534
  895MOL0     H20825   7.710  -0.345   1.300 -0.2425  0.2331 -0.4063
  896MOL0     O20826   2.697   5.578  11.116 -0.3096 -0.0218 -0.2595
  896MOL0     C20827   2.624   5.610  11.206 -0.0452  0.1805 -0.9546
  896MOL0     O20828   2.652   5.617  11.343  0.1035  0.7715  0.1456
  896MOL0     C20829   2.778   5.626  11.383 -1.1957 -0.3067 -0.1142
  896MOL0     C20830   2.855   5.510  11.388 -0.0905 -0.7117  0.4478
  896MOL0     C20831   2.988   5.510  11.422 -0.2310  0.3558  0.0636
  896MOL0     C20832   3.042   5.633  11.461  0.2061  0.1304 -0.2936
  896MOL0     O20833   3.168   5.660  11.507 -0.9862  0.3927  0.7932
  896MOL0     C20834   3.231   5.558  11.580  0.4244 -0.3181 -0.3390
  896MOL0     C20835   3.341   5.612  11.676 -0.6129  0.4063 -0.1220
  896MOL0     C20836   3.439   5.705  11.597  0.1251 -0.5853 -0.1545
  896MOL0     C20837   3.584   5.700  11.657 -0.6689 -0.3717  0.5778
  896MOL0     C20838   3.658   5.569  11.616 -0.3081  0.4754 -0.2774
  896MOL0     C20839   3.798   5.540  11.669  0.1201 -0.4267  0.7909
  896MOL0     C20840   3.817   5.571  11.821  0.1375  0.0809 -0.2356
  896MOL0     C20841   3.932   5.500  11.883  0.5493 -0.1541 -0.8909
  896MOL0     N20842   4.051   5.585  11.878  0.0135  0.7185  0.5375
  896MOL0     C20843   4.128   5.602  11.761  0.5946 -1.2236 -0.1746
  896MOL0     C20844   4.215   5.700  11.793  0.3523  0.8737 -0.4527
  896MOL0     C20845   4.323   5.743  11.703 -0.2317 -0.2275  0.0094
  896MOL0     C20846   4.443   5.642  11.705  0.0012 -0.3146 -0.6595
  896MOL0     C20847   4.435   5.564  11.572  0.3505  1.0186  0.1720
  896MOL0     C20848   4.573   5.484  11.557 -0.1034  0.3467  0.2610
  896MOL0     O20849   4.588   5.457  11.417 -0.1288 -0.0465  0.2222
  896MOL0     C20850   4.709   5.419  11.357  0.6451 -0.8078 -0.9230
  896MOL0     C20851   4.708   5.380  11.220  0.5892 -0.0337 -0.9846
  896MOL0     C20852   4.824   5.334  11.161  0.5359  0.2109 -0.3931
  896MOL0     C20853   4.943   5.323  11.234 -0.3549  0.3616 -0.5147
  896MOL0     C20854   5.063   5.270  11.170  0.1046  0.5893 -0.2308
  896MOL0     O20855   5.160   5.221  11.250  0.0931  0.7635 -0.7562
  896MOL0     C20856   5.265   5.157  11.187  0.7014 -0.1622  0.0720
  896MOL0     C20857   5.268   5.025  11.138 -0.2909  0.1274 -0.5493
  896MOL0     C20858   5.377   4.989  11.059 -0.7688  0.3765 -0.6626
  896MOL0     C20859   5.495   5.066  11.040 -0.4209  0.6888  0.0693
  896MOL0     O20860   5.608   5.028  10.978  0.2515 -0.0926 -0.5290
  896MOL0     C20861   5.667   4.902  11.018 -1.2601  0.6246 -0.0067
  896MOL0     C20862   5.806   4.939  11.068 -0.6031  0.0820  0.4310
  896MOL0     C20863   5.882   4.824  11.129 -0.1265 -0.6359 -0.1559
  896MOL0     C20864   5.866   4.683  11.056  0.2709  0.4635 -0.5556
  896MOL0     C20865   5.924   4.568  11.139  0.2861 -0.4093 -0.0303
  896MOL0     C20866   6.086   4.569  11.133 -0.4580 -0.1681 -0.6369
  896MOL0     C20867   6.136   4.491  11.266  0.6504  0.0579  0.0109
  896MOL0     C20868   6.134   4.586  11.386 -0.5489 -0.4886 -1.0951
  896MOL0    Cl20869   6.214   4.505  11.536  0.1956 -0.0196  0.4699
  896MOL0     C20870   5.494   5.193  11.095 -0.0434  0.6126  0.5561
  896MOL0     C20871   5.377   5.237  11.157 -0.0722  0.4872  0.3894
  896MOL0     O20872   5.058   5.260  11.045 -1.1268 -0.0212 -0.7775
  896MOL0     C20873   4.948   5.359  11.368  0.7803 -0.5616  1.0800
  896MOL0     C20874   4.829   5.413  11.431  0.0245  0.1238  0.8255
  896MOL0     N20875   4.191   5.740  11.927  0.5873 -0.5912 -0.0884
  896MOL0     N20876   4.085   5.676  11.970  0.1376  0.4798  0.0612
  896MOL0     C20877   2.966   5.753  11.459  0.1202  0.1649  0.0644
  896MOL0     C20878   2.832   5.749  11.417 -0.6426 -0.1462 -0.7263
  896MOL0     C20879   2.472   5.601  11.176  0.0530 -0.5958 -0.0048
  896MOL0     C20880   2.425   5.680  11.078  0.0079  0.3176  0.0695
  896MOL0     C20881   2.289   5.675  11.039 -0.3295 -0.1514 -0.5506
  896MOL0     C20882   2.196   5.592  11.102 -0.1545  0.6380 -1.8230
  896MOL0     O20883   2.060   5.598  11.084 -0.4619 -0.0896 -0.1564
  896MOL0     C20884   2.001   5.645  10.967  0.6127  0.8046  0.5999
  896MOL0     C20885   2.049   5.571  10.842 -0.3063  0.1544  0.5171
  896MOL0     C20886   2.022   5.418  10.847  0.0617  0.6061 -0.2332
  896MOL0     C20887   2.136   5.333  10.906  0.1661  0.3784 -0.2634
  896MOL0     C20888   2.269   5.367  10.866 -0.6080 -0.3063 -0.3182
  896MOL0     C20889   2.371   5.426  10.838 -0.4598 -0.7635  0.2204
  896MOL0     C20890   2.249   5.514  11.208  0.0423 -0.4180  0.6235
  896MOL0     C20891   2.384   5.517  11.247 -0.1694 -0.3648  0.0500
  896MOL0     C20892   2.423   5.437  11.368 -0.2397  0.2265 -0.0535
  896MOL0     H20893   2.816   5.414  11.357 -1.6616 -0.0014  0.1041
  896MOL0     H20894   3.044   5.417  11.426  0.4890  0.6202 -2.5163
  896MOL0     H20895   3.151   5.508  11.635  0.1868  1.7433  1.3240
  896MOL0     H20896   3.289   5.490  11.517  2.0658  2.0352 -1.4902
  896MOL0     H20897   3.392   5.532  11.730 -0.7326 -0.0078 -0.6179
  896MOL0     H20898   3.299   5.667  11.760  0.3983  1.5348 -0.3314
  896MOL0     H20899   3.386   5.801  11.604 -0.1184 -0.8107  1.3648
  896MOL0     H20900   3.450   5.668  11.495  1.9058 -0.5652  0.0015
  896MOL0     H20901   3.642   5.785  11.620 -2.2216 -0.1478 -1.5036
  896MOL0     H20902   3.577   5.711  11.766 -0.3715 -1.5619  0.7348
  896MOL0     H20903   3.586   5.498  11.656 -2.3583  2.4438 -0.2863
  896MOL0     H20904   3.663   5.559  11.507  1.2982  1.1462 -0.2911
  896MOL0     H20905   3.822   5.434  11.663  1.2538 -0.2400  1.6974
  896MOL0     H20906   3.869   5.589  11.602 -1.8091  1.3382 -0.1002
  896MOL0     H20907   3.725   5.531  11.865 -1.3017  1.7694 -1.5454
  896MOL0     H20908   3.805   5.678  11.839  1.0306  0.2097 -0.3814
  896MOL0     H20909   3.917   5.482  11.990  1.3000 -0.5300 -0.8411
  896MOL0     H20910   3.930   5.397  11.845 -1.0768  0.3539 -2.3120
  896MOL0     H20911   4.106   5.543  11.673  0.1820 -0.9733 -0.2443
  896MOL0     H20912   4.283   5.762  11.603  0.2882 -0.0733 -0.1727
  896MOL0     H20913   4.368   5.838  11.733  3.3157 -1.8535  0.3228
  896MOL0     H20914   4.535   5.701  11.714  0.6446 -1.6439  3.8220
  896MOL0     H20915   4.453   5.578  11.794 -2.9851 -1.9976 -1.4065
  896MOL0     H20916   4.422   5.627  11.484 -2.9366  0.3236  0.0117
  896MOL0     H20917   4.342   5.506  11.578 -0.0192  1.6811  1.0017
  896MOL0     H20918   4.564   5.396  11.621 -1.7153  0.4203  0.1857
  896MOL0     H20919   4.651   5.553  11.590  1.8795 -1.2556 -0.8098
  896MOL0     H20920   4.615   5.388  11.164 -0.3887  0.9846  0.7150
  896MOL0     H20921   4.812   5.310  11.056 -0.0765  0.7639 -0.4546
  896MOL0     H20922   5.188   4.955  11.164 -0.1419  0.5023  1.0219
  896MOL0     H20923   5.366   4.895  11.005  0.8293 -0.4633  0.3904
  896MOL0     H20924   5.603   4.869  11.101  0.5584 -1.3878  0.6826
  896MOL0     H20925   5.661   4.829  10.938  1.0281  0.4169 -0.0671
  896MOL0     H20926   5.862   4.978  10.983  2.0986  1.6915  2.7775
  896MOL0     H20927   5.797   5.023  11.138 -1.1221 -3.0150  4.4794
  896MOL0     H20928   5.989   4.842  11.141  0.0413 -0.0933 -2.0395
  896MOL0     H20929   5.856   4.817  11.235 -1.7011  3.2660 -0.1574
  896MOL0     H20930   5.902   4.685  10.952 -1.2707  0.1098 -1.1354
  896MOL0     H20931   5.760   4.663  11.035  0.1544 -0.3058  0.6878
  896MOL0     H20932   5.891   4.471  11.099  2.5538 -0.7579 -1.2510
  896MOL0     H20933   5.897   4.572  11.245  3.0727 -1.7033  0.8140
  896MOL0     H20934   6.135   4.517  11.051  2.4221  0.5977  0.4449
  896MOL0     H20935   6.119   4.673  11.137  1.1652 -0.5757 -2.2983
  896MOL0     H20936   6.237   4.454  11.248  0.9942  0.9758  0.0205
  896MOL0     H20937   6.063   4.411  11.286  2.7562 -1.6329  1.3367
  896MOL0     H20938   6.187   4.680  11.368  1.5483 -1.1896  0.9142
  896MOL0     H20939   6.031   4.620  11.400 -0.3807  0.5965 -2.2846
  896MOL0     H20940   5.579   5.259  11.092  0.1762  0.3441  0.7990
  896MOL0     H20941   5.371   5.344  11.176  0.2474  0.8830 -1.5247
  896MOL0     H20942   5.033   5.353  11.434  0.5701  1.5843  1.6023
  896MOL0     H20943   4.833   5.412  11.540  1.3354 -1.3541  0.7912
  896MOL0     H20944   3.007   5.847  11.495 -0.9729  0.0439  1.7621
  896MOL0     H20945   2.769   5.836  11.428 -1.2820 -0.5365 -1.2223
  896MOL0     H20946   2.492   5.749  11.028  1.7969 -1.7607 -0.5564
  896MOL0     H20947   2.250   5.749  10.968 -0.3579  1.8957  1.4748
  896MOL0     H20948   2.027   5.748  10.942  1.3510  0.6692  0.7974
  896MOL0     H20949   1.892   5.647  10.976  0.2095 -4.4043  0.2704
  896MOL0     H20950   2.154   5.593  10.821  0.1457 -1.1380  1.2582
  896MOL0     H20951   1.986   5.607  10.760 -0.5526 -1.2534  0.0480
  896MOL0     H20952   2.020   5.395  10.740  1.7694  1.2043 -0.4244
  896MOL0     H20953   1.928   5.378  10.886  0.1915  0.3958 -0.1348
  896MOL0     H20954   2.116   5.331  11.014  0.1477  2.3900 -0.2007
  896MOL0     H20955   2.128   5.230  10.869  1.0007 -0.0421  0.6551
  896MOL0     H20956   2.459   5.483  10.819 -0.2060 -0.6458  1.6455
  896MOL0     H20957   2.178   5.462  11.272  0.3073 -0.6473  0.7313
  896MOL0     H20958   2.497   5.374  11.320 -0.2107  0.0949  0.1618
  896MOL0     H20959   2.450   5.501  11.453 -2.5498  0.6207  0.4578
  896MOL0     H20960   2.351   5.368  11.411  0.5251 -0.2274  0.5272
  897MOL0     O20961   9.612   9.853   5.091  0.3252  0.7058 -0.0534
  897MOL0     C20962   9.625   9.878   4.974  0.9176 -0.3735 -0.7278
  897MOL0     O20963   9.521   9.878   4.895  0.4973  0.3284 -0.0202
  897MOL0     C20964   9.398   9.841   4.944  0.8154  0.5338 -0.5126
  897MOL0     C20965   9.338   9.716   4.921 -0.4868 -0.9966  0.4664
  897MOL0     C20966   9.209   9.688   4.982  0.0205  0.6783  0.8029
  897MOL0     C20967   9.147   9.775   5.062 -0.3672  0.2913 -0.7484
  897MOL0     O20968   9.031   9.747   5.134 -0.1634 -0.1168  0.1881
  897MOL0     C20969   9.051   9.630   5.227 -0.3990  0.3216 -0.1271
  897MOL0     C20970   9.130   9.674   5.349  0.5210 -0.3411 -0.7109
  897MOL0     C20971   9.090   9.589   5.471  0.1165  0.7600 -0.5213
  897MOL0     C20972   9.179   9.610   5.595 -0.0018 -0.4981  0.8329
  897MOL0     C20973   9.114   9.548   5.716 -0.4977 -0.1165  0.2504
  897MOL0     C20974   9.200   9.589   5.842 -0.3712  0.5287 -0.8127
  897MOL0     C20975   9.327   9.507   5.876  0.6813 -0.3909  0.1381
  897MOL0     C20976   9.309   9.368   5.947  0.3821  0.0209  0.6031
  897MOL0     N20977   9.240   9.281   5.845 -0.1063  0.7039 -0.5940
  897MOL0     C20978   9.299   9.237   5.736  0.3047 -0.6201  0.1157
  897MOL0     C20979   9.213   9.149   5.683  0.0633  0.3732  0.0704
  897MOL0     C20980   9.231   9.104   5.546  0.2814 -0.0370  0.5857
  897MOL0     C20981   9.204   9.216   5.442  0.4273  0.0807 -0.5783
  897MOL0     C20982   9.246   9.180   5.301 -0.5257  0.4039  0.5098
  897MOL0     C20983   9.186   9.263   5.186 -0.1732 -0.6899 -0.2662
  897MOL0     O20984   9.286   9.372   5.155 -0.1743  0.2607 -0.1692
  897MOL0     C20985   9.395   9.344   5.072 -0.2232 -0.1299  0.4384
  897MOL0     C20986   9.486   9.446   5.064  0.0913 -0.1409  0.4421
  897MOL0     C20987   9.607   9.426   4.992  0.2441  0.5272  0.1285
  897MOL0     C20988   9.633   9.296   4.933  0.3482 -0.1928  0.3237
  897MOL0     C20989   9.764   9.266   4.877  0.3396 -0.2028  0.5144
  897MOL0     O20990   9.868   9.345   4.923 -0.1215  0.1773  0.2763
  897MOL0     C20991  10.001   9.333   4.885 -0.3111 -0.0921 -1.0065
  897MOL0     C20992  10.062   9.230   4.805 -0.2338 -0.5154  0.2721
  897MOL0     C20993  10.199   9.233   4.789  0.6374 -0.1216  0.6681
  897MOL0     C20994  10.280   9.336   4.840 -1.1118  0.8533  0.2385
  897MOL0     O20995  10.407   9.334   4.800 -0.4075  0.1423  0.4413
  897MOL0     C20996  10.503   9.401   4.882 -0.3203 -0.4286 -0.3341
  897MOL0     C20997  10.644   9.366   4.821 -0.2841 -0.0841  0.5676
  897MOL0     C20998  10.762   9.416   4.905 -0.5284 -1.3355  0.3042
  897MOL0     C20999  10.797   9.568   4.881  1.0885 -0.1619  0.7583
  897MOL0     C21000  10.867   9.641   4.996 -0.3917  0.1108 -0.1769
  897MOL0     C21001  11.010   9.608   5.004  0.2670  0.3092  1.0616
  897MOL0     C21002  11.078   9.690   5.113 -0.7387 -0.2228  0.7580
  897MOL0     C21003  11.234   9.672   5.094 -0.6256 -1.0432 -0.4034
  897MOL0    Cl21004  11.316   9.718   5.243  0.0248 -0.0562 -0.0754
  897MOL0     C21005  10.217   9.439   4.906  0.6170 -0.1856  0.6033
  897MOL0     C21006  10.082   9.437   4.933  0.2802  0.1829 -0.0318
  897MOL0     O21007   9.772   9.185   4.789 -0.0245  0.3477 -0.1885
  897MOL0     C21008   9.535   9.204   4.937  0.4798  0.6989  0.2969
  897MOL0     C21009   9.412   9.228   5.007  0.1370 -0.8835  0.4192
  897MOL0     N21010   9.102   9.129   5.763  0.0486 -0.3175 -0.5157
  897MOL0     N21011   9.130   9.207   5.866  0.6347 -0.0798  0.0907
  897MOL0     C21012   9.207   9.901   5.086 -0.0622  0.8067  1.4679
  897MOL0     C21013   9.332   9.931   5.035 -0.8280 -0.8226  0.1065
  897MOL0     C21014   9.753   9.908   4.906 -0.0131  0.1172  0.1938
  897MOL0     C21015   9.864   9.832   4.949 -0.4447  0.8404 -0.0424
  897MOL0     C21016   9.994   9.867   4.912 -0.2492 -0.4827 -0.1315
  897MOL0     C21017  10.021   9.954   4.805 -0.1898 -0.1786  0.1096
  897MOL0     O21018  10.151   9.975   4.776  0.1551 -0.2604 -0.2649
  897MOL0     C21019  10.182  10.092   4.689  0.1609 -0.1223 -1.0429
  897MOL0     C21020  10.324  10.059   4.633  0.8091  0.5086 -0.4237
  897MOL0     C21021  10.446  10.078   4.720  0.0999 -0.9570  0.5449
  897MOL0     C21022  10.439   9.983   4.836 -0.1633 -0.0501 -0.8844
  897MOL0     C21023  10.452   9.840   4.798 -0.9557 -0.5919  0.1884
  897MOL0     C21024  10.491   9.733   4.750 -0.8089 -0.0909  0.6934
  897MOL0     C21025   9.905  10.019   4.743 -1.0377  0.1598 -0.3768
  897MOL0     C21026   9.776  10.000   4.800 -0.0671  0.1277 -0.1686
  897MOL0     C21027   9.672  10.083   4.735  0.2491  0.2982  0.4015
  897MOL0     H21028   9.391   9.644   4.860 -1.4768 -0.4134 -1.1270
  897MOL0     H21029   9.172   9.588   4.961 -3.5606  2.1990 -1.1425
  897MOL0     H21030   8.959   9.579   5.257  2.2608 -4.0800  1.3881
  897MOL0     H21031   9.104   9.545   5.183 -0.9936  0.2420 -0.7265
  897MOL0     H21032   9.100   9.776   5.375  0.1471  0.1778 -3.0193
  897MOL0     H21033   9.237   9.680   5.330  0.7271 -0.9108  0.2039
  897MOL0     H21034   9.104   9.485   5.440 -2.1594  0.0086  0.7113
  897MOL0     H21035   8.981   9.591   5.484 -0.2783 -2.9816 -1.9011
  897MOL0     H21036   9.280   9.577   5.569 -1.2099 -2.5316 -1.7092
  897MOL0     H21037   9.194   9.716   5.619  4.0358 -0.7246  0.0083
  897MOL0     H21038   9.011   9.580   5.731  0.1104  1.7575  0.6919
  897MOL0     H21039   9.129   9.442   5.691 -0.5045  0.0712 -0.5602
  897MOL0     H21040   9.225   9.696   5.841  3.5047 -0.2224  0.1853
  897MOL0     H21041   9.131   9.571   5.926 -0.1998  0.2769 -0.7267
  897MOL0     H21042   9.384   9.579   5.936 -0.6939  0.3802  0.5498
  897MOL0     H21043   9.383   9.496   5.782 -0.6118  0.5993 -0.7955
  897MOL0     H21044   9.406   9.332   5.982  0.7663  0.3522 -0.1051
  897MOL0     H21045   9.240   9.381   6.031 -1.0546  0.0483 -0.5565
  897MOL0     H21046   9.394   9.271   5.694 -0.5529 -1.2884 -2.5265
  897MOL0     H21047   9.336   9.078   5.529 -0.6343 -2.0164 -3.0015
  897MOL0     H21048   9.161   9.023   5.523  0.3989 -0.2513  0.9807
  897MOL0     H21049   9.096   9.229   5.446  0.1469 -1.9728 -0.3752
  897MOL0     H21050   9.248   9.314   5.465 -1.7003  0.3958  2.9122
  897MOL0     H21051   9.195   9.084   5.290 -2.6375  1.3265  1.6617
  897MOL0     H21052   9.355   9.171   5.295 -0.5185 -2.0161  2.7612
  897MOL0     H21053   9.095   9.319   5.210  0.8797  0.1023  2.1465
  897MOL0     H21054   9.163   9.205   5.096 -0.1509  1.4448 -1.7291
  897MOL0     H21055   9.470   9.541   5.113 -1.0498  0.3103 -0.7486
  897MOL0     H21056   9.679   9.506   5.008  2.3184 -1.4534  1.2408
  897MOL0     H21057  10.015   9.142   4.763  2.2659 -1.0278 -1.6828
  897MOL0     H21058  10.233   9.154   4.723 -0.8808 -0.4640  0.2559
  897MOL0     H21059  10.492   9.509   4.897 -0.5509 -0.5172  0.1231
  897MOL0     H21060  10.511   9.350   4.978 -1.7125 -0.8562 -0.4296
  897MOL0     H21061  10.645   9.257   4.815 -3.3458 -0.2517  1.2966
  897MOL0     H21062  10.660   9.417   4.725 -1.1320 -0.7499  0.0566
  897MOL0     H21063  10.734   9.413   5.010  3.1914 -0.5440  1.4741
  897MOL0     H21064  10.846   9.347   4.892 -1.9115 -2.4840 -4.3041
  897MOL0     H21065  10.707   9.629   4.867  0.3990 -1.7127 -2.3940
  897MOL0     H21066  10.846   9.564   4.783  0.0613  0.4140  0.2064
  897MOL0     H21067  10.819   9.605   5.087 -1.4189 -2.0422 -1.4801
  897MOL0     H21068  10.865   9.749   4.983 -0.6610  0.3918  1.9549
  897MOL0     H21069  11.023   9.503   5.031  3.8975  0.1777 -0.6344
  897MOL0     H21070  11.069   9.628   4.914  1.9471  0.1824  2.0948
  897MOL0     H21071  11.049   9.666   5.215  1.3229 -0.3467  1.3480
  897MOL0     H21072  11.054   9.795   5.095 -2.2863 -0.8880 -1.5862
  897MOL0     H21073  11.270   9.573   5.064 -1.2485 -1.0538 -1.1423
  897MOL0     H21074  11.255   9.750   5.021  1.9263  1.4634  2.6923
  897MOL0     H21075  10.277   9.527   4.932 -0.6836  0.2550  2.2641
  897MOL0     H21076  10.044   9.524   4.986  0.7781  1.4194 -1.6229
  897MOL0     H21077   9.549   9.106   4.893  0.6545  0.4458  0.9069
  897MOL0     H21078   9.343   9.144   5.010 -0.9348  0.0041  1.4637
  897MOL0     H21079   9.149   9.976   5.137 -0.3076  0.0698  2.2935
  897MOL0     H21080   9.382  10.023   5.062  0.8476 -0.9095 -2.3672
  897MOL0     H21081   9.849   9.760   5.030  2.7758 -0.5104 -0.5159
  897MOL0     H21082  10.084   9.830   4.961 -0.9043 -2.8375 -0.6126
  897MOL0     H21083  10.193  10.184   4.746  0.6354 -0.9017  0.1711
  897MOL0     H21084  10.115  10.100   4.603 -2.5378  0.0826  0.9375
  897MOL0     H21085  10.338  10.136   4.556 -2.1381  1.6787  0.0787
  897MOL0     H21086  10.313   9.956   4.597 -0.2746  0.3990  0.2112
  897MOL0     H21087  10.454  10.182   4.752  1.3513 -0.7690 -0.3458
  897MOL0     H21088  10.535  10.060   4.660  0.3358  0.9644  0.2675
  897MOL0     H21089  10.512  10.014   4.911  0.0481  1.3098 -1.6328
  897MOL0     H21090  10.352   9.995   4.901  1.7357  4.6603  1.2161
  897MOL0     H21091  10.515   9.643   4.696  2.2610  0.6549  0.6295
  897MOL0     H21092   9.915  10.097   4.668 -2.8728  0.5845 -0.2147
  897MOL0     H21093   9.711  10.149   4.656  1.5380 -0.6936  0.1680
  897MOL0     H21094   9.594  10.019   4.694 -2.1214  1.6601  2.5105
  897MOL0     H21095   9.615  10.136   4.811 -0.9030 -0.6155  0.1974
  898MOL0     O21096   4.274   3.530   0.767  0.1724 -0.0729 -0.1790
  898MOL0     C21097   4.233   3.466   0.861  0.4536  0.4506 -0.6666
  898MOL0     O21098   4.298   3.426   0.972  0.0827 -0.0778 -0.4759
  898MOL0     C21099   4.435   3.454   0.983 -0.5898  0.7873  0.0541
  898MOL0     C21100   4.514   3.347   1.023  1.1219  0.3485  0.3133
  898MOL0     C21101   4.654   3.367   1.045 -0.5333  0.3562  1.7731
  898MOL0     C21102   4.717   3.486   1.024 -0.2192  0.1839 -1.1564
  898MOL0     O21103   4.860   3.501   1.033 -0.1061  0.0373  0.5683
  898MOL0     C21104   4.954   3.420   0.973 -0.4011  1.0023 -0.1666
  898MOL0     C21105   5.038   3.517   0.885 -0.5829  0.2271 -0.1422
  898MOL0     C21106   5.175   3.433   0.845  0.7627 -0.3248 -0.5075
  898MOL0     C21107   5.166   3.344   0.726  0.9004  0.4225  0.5614
  898MOL0     C21108   5.289   3.264   0.728  0.0458 -0.2127  0.2147
  898MOL0     C21109   5.340   3.217   0.591  0.8290  0.6619 -0.5803
  898MOL0     C21110   5.251   3.099   0.539 -0.3832 -0.1658 -0.7355
  898MOL0     C21111   5.292   2.962   0.591  0.1195 -0.5515  0.3591
  898MOL0     N21112   5.432   2.938   0.570 -1.1933 -0.0667  1.0790
  898MOL0     C21113   5.512   2.929   0.461  0.5240  0.4907 -0.3159
  898MOL0     C21114   5.637   2.909   0.511  0.1312  0.6385  0.3306
  898MOL0     C21115   5.760   2.878   0.419  1.0278 -0.1683  0.2107
  898MOL0     C21116   5.878   2.876   0.514 -0.5722 -0.5632  0.0703
  898MOL0     C21117   5.999   2.846   0.429  0.1263  0.2229  0.0402
  898MOL0     C21118   6.123   2.849   0.524 -0.0423 -0.5348  0.4970
  898MOL0     O21119   6.166   2.982   0.549  0.7955 -0.1543 -1.0661
  898MOL0     C21120   6.266   3.000   0.637 -0.9779 -0.0177 -0.2034
  898MOL0     C21121   6.312   2.904   0.737  0.7475 -0.4709  0.2899
  898MOL0     C21122   6.401   2.942   0.831 -0.5613  0.0438  0.0900
  898MOL0     C21123   6.456   3.070   0.832  0.4094  0.4339  0.6206
  898MOL0     C21124   6.546   3.107   0.942 -0.3058  0.3599 -0.4866
  898MOL0     O21125   6.618   3.003   0.999  0.0178 -0.3714  0.5344
  898MOL0     C21126   6.718   3.045   1.084  0.5583 -0.1264  0.3969
  898MOL0     C21127   6.689   3.097   1.215  0.5526  0.2509 -0.1319
  898MOL0     C21128   6.789   3.123   1.311  0.2719  0.2783 -0.6883
  898MOL0     C21129   6.918   3.087   1.300  0.6448  0.1622  0.4218
  898MOL0     O21130   7.012   3.113   1.389 -0.6345 -0.2919 -0.1256
  898MOL0     C21131   7.151   3.101   1.369 -0.7292  0.2138  0.6679
  898MOL0     C21132   7.207   3.243   1.341  0.0321 -0.0514 -0.0341
  898MOL0     C21133   7.355   3.246   1.302 -0.2328  0.0965 -1.1607
  898MOL0     C21134   7.421   3.373   1.353 -0.2368  0.6225  0.0831
  898MOL0     C21135   7.550   3.406   1.272 -0.4602  0.5490  0.0949
  898MOL0     C21136   7.581   3.557   1.292 -0.9244 -0.0884  0.1342
  898MOL0     C21137   7.703   3.601   1.215  0.1485 -0.5297 -0.1195
  898MOL0     C21138   7.680   3.741   1.153  1.2156  0.0100 -0.2042
  898MOL0    Cl21139   7.579   3.738   1.007 -0.1128 -0.0302  0.1059
  898MOL0     C21140   6.952   3.044   1.168 -0.0210  0.1794 -0.4068
  898MOL0     C21141   6.849   3.016   1.061 -1.4247  0.5945 -0.1484
  898MOL0     O21142   6.572   3.230   0.962  0.9871 -0.2411  0.2550
  898MOL0     C21143   6.411   3.164   0.739  0.4028 -0.7548  0.4939
  898MOL0     C21144   6.320   3.132   0.643 -0.3909 -0.5537 -1.1020
  898MOL0     N21145   5.632   2.900   0.652 -0.3316 -0.3559  0.7046
  898MOL0     N21146   5.507   2.912   0.685 -0.3559 -0.5515  0.5308
  898MOL0     C21147   4.642   3.587   0.961  0.2528 -0.2195 -0.2854
  898MOL0     C21148   4.503   3.569   0.942 -0.5653 -0.9737 -0.2229
  898MOL0     C21149   4.083   3.438   0.880 -0.3220  0.0119  0.2267
  898MOL0     C21150   4.046   3.318   0.944  0.2892  0.7012  0.4356
  898MOL0     C21151   3.919   3.279   0.953 -0.2289 -0.2390  0.2348
  898MOL0     C21152   3.812   3.351   0.906 -0.5494  0.9183 -0.0039
  898MOL0     O21153   3.686   3.285   0.917  0.3938  0.1623 -0.6996
  898MOL0     C21154   3.590   3.335   0.830 -0.1514 -0.2335  0.5443
  898MOL0     C21155   3.501   3.224   0.793  0.9033  0.0304 -0.2050
  898MOL0     C21156   3.401   3.208   0.902  0.0006 -0.3878  0.3208
  898MOL0     C21157   3.312   3.085   0.900  0.1271  0.3089 -0.3156
  898MOL0     C21158   3.259   3.037   0.768  0.0580 -0.1300 -0.3224
  898MOL0     C21159   3.246   2.999   0.652 -0.9588 -0.5114 -0.2752
  898MOL0     C21160   3.852   3.473   0.840  0.2325 -0.5300  0.0396
  898MOL0     C21161   3.981   3.513   0.816 -0.8182 -0.2343  0.2541
  898MOL0     C21162   3.999   3.628   0.726 -0.4328 -0.1161 -0.0753
  898MOL0     H21163   4.478   3.248   1.051  1.7597 -0.2616 -0.9694
  898MOL0     H21164   4.716   3.286   1.082  0.6904 -0.7280 -2.2065
  898MOL0     H21165   5.014   3.383   1.056 -3.2928 -0.4216  1.4800
  898MOL0     H21166   4.902   3.343   0.914 -0.8978  1.5566 -0.4615
  898MOL0     H21167   5.073   3.606   0.938  1.5422 -1.8474  2.2975
  898MOL0     H21168   4.976   3.556   0.805  0.0425 -1.2750 -1.4198
  898MOL0     H21169   5.220   3.385   0.933  0.5218  0.9936  0.3655
  898MOL0     H21170   5.245   3.507   0.808 -1.3457  0.0590 -4.1939
  898MOL0     H21171   5.077   3.281   0.715  0.4760  0.6925  2.2315
  898MOL0     H21172   5.175   3.414   0.642 -1.0485 -0.5179 -0.5190
  898MOL0     H21173   5.378   3.316   0.766  0.6543  0.2731 -1.7833
  898MOL0     H21174   5.267   3.183   0.799  0.1238 -0.5790 -0.1740
  898MOL0     H21175   5.320   3.285   0.508  0.3730 -0.1725 -1.1663
  898MOL0     H21176   5.443   3.182   0.598 -0.2562 -2.6285  1.2444
  898MOL0     H21177   5.252   3.088   0.430 -3.1171 -2.3478 -0.6433
  898MOL0     H21178   5.147   3.104   0.574 -0.2805 -1.1636 -0.2427
  898MOL0     H21179   5.270   2.962   0.699 -2.9541  2.3254 -0.1092
  898MOL0     H21180   5.230   2.887   0.541  0.2980 -0.4260 -0.0474
  898MOL0     H21181   5.486   2.934   0.356  2.0950 -0.9085 -0.8225
  898MOL0     H21182   5.742   2.783   0.367  1.5041  0.9803 -2.2189
  898MOL0     H21183   5.779   2.946   0.335 -0.2461 -0.6012 -0.4604
  898MOL0     H21184   5.897   2.966   0.574  1.6142 -1.9735  1.6866
  898MOL0     H21185   5.848   2.790   0.575 -0.1740 -0.2003  0.7936
  898MOL0     H21186   6.011   2.927   0.356  4.0058  0.1277  0.3915
  898MOL0     H21187   5.988   2.747   0.385  1.8230 -0.2410  0.5815
  898MOL0     H21188   6.202   2.796   0.470  1.5818  2.4943 -0.3498
  898MOL0     H21189   6.108   2.794   0.617 -0.9053 -0.6061  0.3165
  898MOL0     H21190   6.284   2.799   0.739  0.0608 -0.3053  2.3996
  898MOL0     H21191   6.423   2.861   0.899  0.2943 -0.9313 -1.2915
  898MOL0     H21192   6.585   3.111   1.245  0.5753 -1.7615  1.0022
  898MOL0     H21193   6.764   3.171   1.406  3.3654  2.1563 -0.7137
  898MOL0     H21194   7.202   3.068   1.460 -0.4146  0.1513  0.4696
  898MOL0     H21195   7.189   3.032   1.293 -1.8448  0.6080 -0.2776
  898MOL0     H21196   7.155   3.281   1.253  0.7210 -2.1023 -1.3939
  898MOL0     H21197   7.194   3.305   1.431  0.7966  0.8343 -0.5199
  898MOL0     H21198   7.408   3.156   1.335 -1.3143 -0.0538  0.2410
  898MOL0     H21199   7.349   3.252   1.193 -1.2669  2.7362 -1.0224
  898MOL0     H21200   7.455   3.375   1.457  1.0644  1.1051 -0.3278
  898MOL0     H21201   7.349   3.454   1.342  0.9475  1.7838  0.5913
  898MOL0     H21202   7.526   3.382   1.168 -2.9705  0.1658  0.7057
  898MOL0     H21203   7.633   3.343   1.306 -1.1900  0.2918  1.4558
  898MOL0     H21204   7.500   3.627   1.272  0.7845  2.0873  0.4270
  898MOL0     H21205   7.603   3.562   1.399 -1.8812 -4.4755  0.7153
  898MOL0     H21206   7.712   3.519   1.142 -0.7903 -1.4651  0.7822
  898MOL0     H21207   7.798   3.612   1.268  0.9132 -2.2105 -1.0436
  898MOL0     H21208   7.629   3.811   1.220  1.2919  2.2638 -2.3506
  898MOL0     H21209   7.779   3.783   1.134  0.6059  0.7307 -1.9910
  898MOL0     H21210   7.056   3.026   1.143  0.3837  2.9641 -1.0957
  898MOL0     H21211   6.883   2.967   0.971  1.6707  4.1840 -1.1862
  898MOL0     H21212   6.441   3.268   0.745  1.2126 -1.0340  1.6078
  898MOL0     H21213   6.287   3.210   0.575  0.5728  1.0052  0.1458
  898MOL0     H21214   4.687   3.680   0.928 -0.7236 -0.2550 -1.8438
  898MOL0     H21215   4.466   3.658   0.892 -1.0624 -0.6545  0.6864
  898MOL0     H21216   4.125   3.265   0.996  0.3957  1.6056  1.2331
  898MOL0     H21217   3.889   3.193   1.011 -1.6440  0.5998  0.8178
  898MOL0     H21218   3.634   3.361   0.734 -0.1142 -2.7051 -0.1769
  898MOL0     H21219   3.532   3.418   0.872  0.3162 -1.1866  3.2854
  898MOL0     H21220   3.558   3.134   0.768 -2.9158 -2.8034  0.4431
  898MOL0     H21221   3.444   3.249   0.703  1.2472  1.4770 -0.0399
  898MOL0     H21222   3.335   3.296   0.894  0.8618  0.2294 -0.1242
  898MOL0     H21223   3.446   3.210   1.001  0.1522  3.1552  0.3022
  898MOL0     H21224   3.379   3.007   0.938  1.3387  0.8882 -1.2151
  898MOL0     H21225   3.238   3.087   0.981  1.7760  1.7673  1.2303
  898MOL0     H21226   3.234   2.975   0.548 -1.0468  1.0893 -0.6468
  898MOL0     H21227   3.771   3.533   0.801 -0.6982 -0.8969  1.3321
  898MOL0     H21228   3.917   3.691   0.690 -0.3551 -0.5264 -1.0146
  898MOL0     H21229   4.072   3.698   0.769 -0.9540  1.1702 -1.2031
  898MOL0     H21230   4.049   3.579   0.641  0.1526  1.8112 -0.9128
  899MOL0     O21231   2.619   1.319   6.117  0.0516 -0.3444  0.0457
  899MOL0     C21232   2.561   1.260   6.206  0.0138  1.0030 -0.3907
  899MOL0     O21233   2.620   1.201   6.316  0.2668 -0.4048  0.4517
  899MOL0     C21234   2.747   1.205   6.364 -0.2395 -0.4399 -0.5803
  899MOL0     C21235   2.843   1.303   6.333  0.1263  0.0595  0.0416
  899MOL0     C21236   2.970   1.301   6.393  0.3767  0.4503  1.0305
  899MOL0     C21237   3.009   1.209   6.487 -0.2358 -0.1443  0.0205
  899MOL0     O21238   3.138   1.202   6.541  0.4806  0.2337 -0.1152
  899MOL0     C21239   3.210   1.326   6.553  0.4408 -0.3745 -0.1941
  899MOL0     C21240   3.341   1.302   6.625  0.1356  0.1085  1.1760
  899MOL0     C21241   3.432   1.207   6.538 -0.7903 -0.2860  0.2252
  899MOL0     C21242   3.578   1.246   6.548  0.6331  0.1914 -0.4983
  899MOL0     C21243   3.659   1.174   6.427 -0.3978  0.5113  0.3586
  899MOL0     C21244   3.815   1.174   6.440 -0.1292  0.3069 -1.2291
  899MOL0     C21245   3.885   1.079   6.346 -0.6756 -0.3437 -0.3371
  899MOL0     C21246   4.035   1.084   6.368 -0.1361 -0.3238  0.3745
  899MOL0     N21247   4.104   1.000   6.271 -0.5130  0.8452 -0.2510
  899MOL0     C21248   4.152   0.870   6.299  0.7600  0.2456  0.0066
  899MOL0     C21249   4.217   0.826   6.188 -0.3969  0.3674  0.8952
  899MOL0     C21250   4.284   0.690   6.175 -1.0913 -0.1796 -0.4543
  899MOL0     C21251   4.200   0.580   6.106  0.3948 -0.3932  0.2045
  899MOL0     C21252   4.259   0.445   6.095 -0.0492  0.4888 -0.5628
  899MOL0     C21253   4.224   0.346   6.209 -0.2461  0.2011  0.9095
  899MOL0     O21254   4.292   0.373   6.338 -0.2184 -0.6704  0.5953
  899MOL0     C21255   4.430   0.361   6.351  0.0001 -1.0746  0.1989
  899MOL0     C21256   4.486   0.429   6.455 -0.7675  0.2714 -0.2078
  899MOL0     C21257   4.629   0.438   6.473 -0.1193  0.1527 -0.4113
  899MOL0     C21258   4.717   0.372   6.383  0.8217  0.5374 -0.2021
  899MOL0     C21259   4.856   0.365   6.407 -0.9925  0.0914 -0.5333
  899MOL0     O21260   4.911   0.417   6.524  0.1224 -0.2240  0.1913
  899MOL0     C21261   5.043   0.381   6.552 -0.2176  0.4683 -0.4150
  899MOL0     C21262   5.115   0.475   6.627 -0.4165 -0.3907 -0.4843
  899MOL0     C21263   5.251   0.455   6.662 -0.8939  0.1708 -0.1611
  899MOL0     C21264   5.314   0.329   6.623  0.7007  0.1706  0.6350
  899MOL0     O21265   5.434   0.283   6.670  0.5810 -0.3313 -0.1843
  899MOL0     C21266   5.519   0.368   6.753  0.5141  0.7127 -0.3047
  899MOL0     C21267   5.660   0.300   6.769  0.4386  1.0754  1.1206
  899MOL0     C21268   5.755   0.406   6.803  0.7238  0.2360  0.1173
  899MOL0     C21269   5.898   0.354   6.826  0.5433 -0.1712  0.2298
  899MOL0     C21270   5.979   0.461   6.895 -0.3063 -0.3715  0.1656
  899MOL0     C21271   6.115   0.413   6.911  0.0935  0.0147 -0.5344
  899MOL0     C21272   6.192   0.518   7.000 -0.4312 -0.0833 -0.0108
  899MOL0     C21273   6.336   0.468   7.015 -0.1962  0.1611 -0.6699
  899MOL0    Cl21274   6.410   0.471   6.847 -0.1330  0.2877  0.6608
  899MOL0     C21275   5.240   0.237   6.551  0.1772  0.3664 -0.2091
  899MOL0     C21276   5.103   0.258   6.521 -0.0251  0.0069  0.0724
  899MOL0     O21277   4.921   0.329   6.312  0.3778 -0.3397 -0.2557
  899MOL0     C21278   4.658   0.299   6.275 -0.0232  0.3818 -0.3161
  899MOL0     C21279   4.515   0.298   6.263 -0.3588 -0.5209  0.2146
  899MOL0     N21280   4.222   0.937   6.094  0.3570  0.3043 -0.7236
  899MOL0     N21281   4.164   1.032   6.154 -0.2404 -0.9692  0.6630
  899MOL0     C21282   2.915   1.114   6.520  0.1103  0.0731  0.7296
  899MOL0     C21283   2.783   1.110   6.469  0.6851 -0.3672  0.4022
  899MOL0     C21284   2.418   1.223   6.174 -0.6725  0.4426  0.5533
  899MOL0     C21285   2.377   1.209   6.039  0.1782 -0.2100  0.4103
  899MOL0     C21286   2.254   1.160   6.001 -0.3997 -1.0383 -0.1364
  899MOL0     C21287   2.165   1.131   6.102  0.5385  0.5612  0.6104
  899MOL0     O21288   2.025   1.096   6.073  0.2409 -1.6473 -0.3990
  899MOL0     C21289   1.996   0.992   5.980 -0.7330  0.3772  0.1057
  899MOL0     C21290   2.019   0.856   6.047  0.0810 -0.2498  1.3535
  899MOL0     C21291   2.015   0.748   5.936 -0.2110  0.2296  0.1063
  899MOL0     C21292   2.025   0.616   6.003 -0.0912 -0.4485 -0.6650
  899MOL0     C21293   2.000   0.509   5.908 -0.1064  0.8250 -0.1994
  899MOL0     C21294   1.972   0.431   5.819  0.1305  1.0298  0.5930
  899MOL0     C21295   2.190   1.153   6.243  0.1196 -0.1263  0.5348
  899MOL0     C21296   2.324   1.194   6.281  0.2531  0.5318  0.5072
  899MOL0     C21297   2.349   1.222   6.427 -0.1698  0.6412 -0.0371
  899MOL0     H21298   2.819   1.385   6.266  3.8369  4.0724  3.0520
  899MOL0     H21299   3.050   1.362   6.354  1.8671 -0.9726  1.7421
  899MOL0     H21300   3.221   1.368   6.453 -0.4564  0.7090  0.1344
  899MOL0     H21301   3.147   1.402   6.600 -2.3533 -0.9394 -2.7050
  899MOL0     H21302   3.313   1.246   6.715 -2.0241 -3.3287 -1.3945
  899MOL0     H21303   3.378   1.404   6.637 -0.0522  0.8171 -2.7994
  899MOL0     H21304   3.401   1.203   6.433 -2.2100  2.0364  0.4655
  899MOL0     H21305   3.416   1.107   6.579  1.4573 -1.7054 -2.0454
  899MOL0     H21306   3.588   1.354   6.534 -1.3878  0.4078 -0.6528
  899MOL0     H21307   3.625   1.234   6.646  3.3407  1.7693 -1.5078
  899MOL0     H21308   3.628   1.069   6.434 -1.5969  0.8228  0.0897
  899MOL0     H21309   3.628   1.211   6.329  0.7721 -0.3959 -0.3815
  899MOL0     H21310   3.839   1.278   6.416  1.6011 -0.1969 -1.8169
  899MOL0     H21311   3.831   1.156   6.546 -1.6714  3.3050 -0.3669
  899MOL0     H21312   3.853   1.092   6.243 -2.0898  1.7266  0.2917
  899MOL0     H21313   3.860   0.979   6.385 -0.4231 -0.2491  0.0756
  899MOL0     H21314   4.080   1.184   6.365  0.0967 -0.3763  1.6874
  899MOL0     H21315   4.066   1.051   6.468  2.5990 -1.0132 -0.5972
  899MOL0     H21316   4.142   0.806   6.387 -0.3003  1.6276  0.9366
  899MOL0     H21317   4.384   0.703   6.134 -1.3853 -0.7592 -1.3768
  899MOL0     H21318   4.290   0.655   6.279  0.4476  2.9410  0.6152
  899MOL0     H21319   4.103   0.573   6.155 -2.4344  8.3261 -2.3292
  899MOL0     H21320   4.175   0.629   6.011 -2.0890 -0.1004  0.9481
  899MOL0     H21321   4.367   0.463   6.094 -0.3172  2.7513  1.5168
  899MOL0     H21322   4.227   0.404   5.999 -2.0923  3.8881 -1.5058
  899MOL0     H21323   4.237   0.243   6.176  0.3926  0.8045 -0.9012
  899MOL0     H21324   4.117   0.360   6.227 -0.4312  0.1270 -0.0570
  899MOL0     H21325   4.424   0.486   6.523 -1.4758 -2.0220  1.2081
  899MOL0     H21326   4.666   0.494   6.558 -2.1929  0.0811  0.6062
  899MOL0     H21327   5.064   0.569   6.644  2.6006  0.9896  1.7475
  899MOL0     H21328   5.305   0.534   6.712  0.5050 -2.1219  2.2462
  899MOL0     H21329   5.539   0.464   6.706  0.8724  0.8827  0.1884
  899MOL0     H21330   5.473   0.382   6.851 -1.0392  0.2453 -0.9301
  899MOL0     H21331   5.658   0.224   6.848  0.1548  0.1108  0.1999
  899MOL0     H21332   5.687   0.256   6.673 -3.5477 -1.5617  0.9679
  899MOL0     H21333   5.765   0.487   6.731  1.4139 -0.0686 -0.1326
  899MOL0     H21334   5.732   0.437   6.906  4.0185 -2.6714  1.9434
  899MOL0     H21335   5.946   0.339   6.729  0.5447 -2.1955  0.5138
  899MOL0     H21336   5.904   0.263   6.885  2.1737  1.4035  2.7053
  899MOL0     H21337   5.945   0.483   6.996 -0.1019  0.3046  0.0888
  899MOL0     H21338   5.983   0.548   6.829  3.9653  0.8686  1.7248
  899MOL0     H21339   6.108   0.327   6.978 -3.1053  0.1085 -0.5860
  899MOL0     H21340   6.163   0.397   6.815  0.3050  0.3021 -0.4792
  899MOL0     H21341   6.145   0.519   7.099  0.3032  0.6800  0.3449
  899MOL0     H21342   6.192   0.624   6.972 -2.2174  0.5665  2.1078
  899MOL0     H21343   6.389   0.526   7.090 -0.6908 -2.1000  1.5774
  899MOL0     H21344   6.333   0.368   7.059  2.6667  0.6605  0.8537
  899MOL0     H21345   5.277   0.140   6.519 -0.9845 -0.2810  0.3168
  899MOL0     H21346   5.044   0.181   6.474 -0.0413 -2.8110  4.1426
  899MOL0     H21347   4.721   0.251   6.201  1.6294  1.9463  0.0050
  899MOL0     H21348   4.472   0.246   6.178 -0.1242  0.1110 -0.3028
  899MOL0     H21349   2.942   1.038   6.593 -0.9144  2.0258  3.2957
  899MOL0     H21350   2.703   1.048   6.506 -3.0655  4.1903  0.8758
  899MOL0     H21351   2.436   1.240   5.953  0.1524  3.2753  1.5229
  899MOL0     H21352   2.221   1.162   5.897 -0.9831  0.8556  0.0592
  899MOL0     H21353   2.035   0.994   5.877 -0.0612  0.9842  0.3609
  899MOL0     H21354   1.888   1.002   5.963 -0.6257 -0.0924 -0.9844
  899MOL0     H21355   1.935   0.831   6.112  1.3915 -0.3982  3.0965
  899MOL0     H21356   2.119   0.846   6.092  1.5016 -0.5598 -1.6405
  899MOL0     H21357   2.092   0.755   5.859  0.0854  0.9014  0.4605
  899MOL0     H21358   1.915   0.752   5.892 -0.8701 -1.4318  1.3557
  899MOL0     H21359   2.116   0.598   6.063 -0.5785 -1.4622 -0.1942
  899MOL0     H21360   1.955   0.608   6.087  0.4331 -0.6128 -0.2309
  899MOL0     H21361   1.945   0.380   5.729 -1.0360  2.2717  0.2037
  899MOL0     H21362   2.110   1.131   6.313  1.8951 -4.1456  1.5871
  899MOL0     H21363   2.388   1.322   6.446  0.3905  0.2415  0.9679
  899MOL0     H21364   2.256   1.209   6.482  0.5169  2.7425  1.7625
  899MOL0     H21365   2.416   1.147   6.471 -0.7717 -1.2799 -2.1985
  900MOL0     O21366   3.003   0.019   0.906  0.2646 -0.2219 -0.2521
  900MOL0     C21367   2.923   0.032   1.000  0.5827  0.0526  0.4202
  900MOL0     O21368   2.950   0.052   1.133 -0.6432 -0.4624 -0.2123
  900MOL0     C21369   3.081   0.094   1.189 -0.4096  0.4984  0.9338
  900MOL0     C21370   3.080   0.130   1.323 -0.0211 -0.0296  0.1032
  900MOL0     C21371   3.198   0.184   1.389 -0.2107  0.0740  0.4752
  900MOL0     C21372   3.316   0.198   1.311  0.5076 -0.5785 -0.6710
  900MOL0     O21373   3.419   0.259   1.379  0.6416 -0.4185 -0.2833
  900MOL0     C21374   3.439   0.396   1.336  0.1391  0.8690  0.6043
  900MOL0     C21375   3.585   0.429   1.358 -0.2303 -0.6728  0.4600
  900MOL0     C21376   3.669   0.359   1.252  0.6075  0.7101 -0.1886
  900MOL0     C21377   3.782   0.446   1.199 -0.6994 -0.1094 -0.0569
  900MOL0     C21378   3.868   0.386   1.082  0.4824 -0.1518 -0.1701
  900MOL0     C21379   3.977   0.491   1.040  0.1385 -0.0301  0.1310
  900MOL0     C21380   4.008   0.489   0.888  0.2133 -0.3768 -1.1061
  900MOL0     C21381   4.116   0.586   0.839  0.8599  0.1193  0.5526
  900MOL0     N21382   4.246   0.551   0.899  0.5041  0.1581 -0.2021
  900MOL0     C21383   4.312   0.429   0.891  0.2207 -0.4275  0.0531
  900MOL0     C21384   4.438   0.450   0.943  0.7552 -0.7003 -0.3637
  900MOL0     C21385   4.537   0.334   0.967  0.0211 -0.3159 -0.8537
  900MOL0     C21386   4.683   0.387   0.970  0.3789  0.6038  0.2413
  900MOL0     C21387   4.719   0.440   0.826  1.0482 -0.2380  0.1383
  900MOL0     C21388   4.863   0.467   0.816 -0.0165  0.4998 -0.0328
  900MOL0     O21389   4.931   0.350   0.809  0.5062  0.6232 -0.2285
  900MOL0     C21390   5.054   0.349   0.865  0.1006  0.8568 -0.2201
  900MOL0     C21391   5.171   0.319   0.780  0.3402  0.2735  0.7154
  900MOL0     C21392   5.294   0.324   0.832 -0.5973  0.9498 -0.1447
  900MOL0     C21393   5.323   0.363   0.963 -0.6117  0.3432 -0.4855
  900MOL0     C21394   5.463   0.373   1.013  0.0233  0.7788 -0.7174
  900MOL0     O21395   5.559   0.314   0.939 -0.6987  0.0218  0.1047
  900MOL0     C21396   5.695   0.316   0.972 -0.9753 -1.2616  0.8214
  900MOL0     C21397   5.760   0.429   1.022 -0.3125 -0.4526  0.1012
  900MOL0     C21398   5.895   0.430   1.057  0.0349  0.6397  0.4821
  900MOL0     C21399   5.976   0.324   1.021 -0.3665  0.0473 -0.1266
  900MOL0     O21400   6.104   0.318   1.075 -0.2315 -0.4679 -1.0207
  900MOL0     C21401   6.140   0.205   1.158 -0.3138 -0.3670  0.2246
  900MOL0     C21402   6.227   0.113   1.076 -0.5116 -0.6963 -0.3108
  900MOL0     C21403   6.349   0.182   1.009 -0.1556  0.7914 -0.2632
  900MOL0     C21404   6.447   0.219   1.124 -0.3793 -0.7165 -0.3639
  900MOL0     C21405   6.600   0.228   1.084  0.6986  0.4874 -1.4112
  900MOL0     C21406   6.692   0.241   1.207  0.7893 -0.0040 -0.1474
  900MOL0     C21407   6.830   0.291   1.162 -0.3229 -0.4673 -0.7062
  900MOL0     C21408   6.935   0.320   1.280  0.2984 -1.2665  0.1679
  900MOL0    Cl21409   7.042   0.190   1.332  0.0700  0.0566  0.1103
  900MOL0     C21410   5.915   0.214   0.957 -0.7808 -1.2171 -0.1368
  900MOL0     C21411   5.781   0.212   0.938  0.6929  0.7923 -0.3388
  900MOL0     O21412   5.482   0.421   1.128  0.6834 -0.1702 -0.0312
  900MOL0     C21413   5.216   0.387   1.051  0.0678  0.7582 -0.4592
  900MOL0     C21414   5.086   0.371   1.004 -0.2693 -0.5432  0.2273
  900MOL0     N21415   4.443   0.581   0.986  0.1622  0.0225 -0.3765
  900MOL0     N21416   4.332   0.642   0.958  0.8566 -0.7125  1.0855
  900MOL0     C21417   3.315   0.152   1.175 -0.3161  0.6644  0.2513
  900MOL0     C21418   3.204   0.101   1.116 -0.8755  0.5476 -0.4166
  900MOL0     C21419   2.781   0.009   0.970 -0.4574  0.7397  0.8639
  900MOL0     C21420   2.742  -0.099   0.880 -0.2513  0.6076  0.1248
  900MOL0     C21421   2.606  -0.123   0.853 -0.3376  0.5656 -0.4837
  900MOL0     C21422   2.512  -0.044   0.913 -0.4861  0.5913  0.2455
  900MOL0     O21423   2.383  -0.063   0.867 -0.2246 -0.1620 -0.4698
  900MOL0     C21424   2.320  -0.172   0.932  0.3959 -0.8171 -0.2348
  900MOL0     C21425   2.195  -0.117   1.000 -0.1967  0.1709  0.4275
  900MOL0     C21426   2.063  -0.172   0.935 -0.8344  0.9218 -0.9351
  900MOL0     C21427   1.934  -0.129   1.004  0.1861 -0.2798  0.0397
  900MOL0     C21428   1.918   0.023   1.026  0.1344 -1.6401 -0.2254
  900MOL0     C21429   1.918   0.148   1.044  0.1405  0.5802 -0.1079
  900MOL0     C21430   2.541   0.062   0.999 -0.0350 -0.0903 -0.5605
  900MOL0     C21431   2.675   0.088   1.028 -0.0732 -0.1210 -0.4867
  900MOL0     C21432   2.693   0.210   1.112 -0.5622  0.2629  0.3511
  900MOL0     H21433   2.985   0.123   1.376 -1.7704 -0.7015 -2.8762
  900MOL0     H21434   3.201   0.218   1.492 -0.7636 -0.6001  0.7265
  900MOL0     H21435   3.405   0.406   1.233  0.1688  0.1563  0.5205
  900MOL0     H21436   3.392   0.458   1.412  1.3555  1.0758  1.2110
  900MOL0     H21437   3.610   0.396   1.459  1.0225  2.8669  1.4603
  900MOL0     H21438   3.606   0.536   1.360 -1.9463 -0.3264  2.1983
  900MOL0     H21439   3.615   0.344   1.159  0.7331 -2.7471  0.1979
  900MOL0     H21440   3.705   0.262   1.287 -3.0635 -0.8153 -0.2554
  900MOL0     H21441   3.759   0.551   1.175  0.6917  0.9688  2.7825
  900MOL0     H21442   3.851   0.460   1.283 -3.6584  2.5585  2.2083
  900MOL0     H21443   3.916   0.294   1.114  2.1904  0.6904 -0.1894
  900MOL0     H21444   3.800   0.364   0.999 -2.1944  1.6728  1.3944
  900MOL0     H21445   3.921   0.583   1.061 -0.1226  0.0163 -0.7249
  900MOL0     H21446   4.065   0.483   1.104 -0.2239  1.2603  0.8287
  900MOL0     H21447   3.912   0.511   0.840 -0.8323 -1.4593  0.3719
  900MOL0     H21448   4.037   0.388   0.860 -4.0398 -1.5220 -2.1812
  900MOL0     H21449   4.120   0.580   0.730  0.8647 -1.3067  0.6153
  900MOL0     H21450   4.088   0.688   0.869  0.5789  0.3010 -0.3167
  900MOL0     H21451   4.263   0.339   0.854 -0.6381  0.1618 -0.2866
  900MOL0     H21452   4.511   0.291   1.064 -1.1883  1.6212 -0.2718
  900MOL0     H21453   4.523   0.261   0.886 -0.0271 -2.0289  0.6434
  900MOL0     H21454   4.681   0.469   1.042  0.2147 -1.4905  2.7753
  900MOL0     H21455   4.746   0.302   0.998  0.8416  1.0673  0.6196
  900MOL0     H21456   4.668   0.536   0.818  2.6977  0.6001 -1.0076
  900MOL0     H21457   4.689   0.380   0.740  3.0764  0.5577 -1.2016
  900MOL0     H21458   4.898   0.537   0.892 -1.0166  3.3293 -1.9999
  900MOL0     H21459   4.884   0.515   0.720 -0.1560  0.8283  0.1001
  900MOL0     H21460   5.156   0.296   0.675  3.5644 -0.5175  0.2994
  900MOL0     H21461   5.374   0.301   0.762 -2.3409  0.9548 -2.2631
  900MOL0     H21462   5.704   0.519   1.045 -1.3011 -0.9544 -0.3154
  900MOL0     H21463   5.943   0.517   1.101  0.3064  1.4668 -1.3514
  900MOL0     H21464   6.182   0.239   1.253  2.1129  1.4708 -1.3818
  900MOL0     H21465   6.053   0.150   1.194  0.9677 -2.0194  0.9507
  900MOL0     H21466   6.272   0.032   1.133  2.0886  0.6199 -0.3209
  900MOL0     H21467   6.159   0.080   0.997 -1.3795 -0.2628  0.2428
  900MOL0     H21468   6.404   0.116   0.942 -0.3569 -0.3189  0.6366
  900MOL0     H21469   6.323   0.275   0.956  0.1248  0.7436 -0.4842
  900MOL0     H21470   6.447   0.146   1.205 -1.2268 -0.3866 -0.0465
  900MOL0     H21471   6.418   0.316   1.166  0.6344  0.1004 -1.4893
  900MOL0     H21472   6.616   0.312   1.016  0.1433 -1.3160 -3.8933
  900MOL0     H21473   6.632   0.143   1.024 -0.9173 -2.9713  2.1222
  900MOL0     H21474   6.642   0.299   1.285 -0.7605  0.4258 -1.4035
  900MOL0     H21475   6.701   0.136   1.236  1.5218 -0.1856 -0.9905
  900MOL0     H21476   6.818   0.384   1.106 -0.0801 -0.1088 -0.1770
  900MOL0     H21477   6.874   0.217   1.093 -1.1269 -1.8945  0.2563
  900MOL0     H21478   7.004   0.402   1.256 -0.6975  0.4666  2.7861
  900MOL0     H21479   6.876   0.361   1.362 -0.7942 -0.5873 -0.9168
  900MOL0     H21480   5.977   0.136   0.913  0.1678 -0.4397 -0.2168
  900MOL0     H21481   5.735   0.132   0.881  4.7610  0.4234 -3.5561
  900MOL0     H21482   5.234   0.410   1.155  0.2078  1.4610 -0.6354
  900MOL0     H21483   5.009   0.366   1.080 -2.0338  0.6961 -1.3817
  900MOL0     H21484   3.407   0.174   1.121 -0.5264 -1.2199 -0.9500
  900MOL0     H21485   3.195   0.057   1.017 -0.5250 -0.5479  0.0284
  900MOL0     H21486   2.822  -0.158   0.836 -0.9944 -1.7452  1.7733
  900MOL0     H21487   2.582  -0.207   0.788 -2.6251 -1.3854  2.6225
  900MOL0     H21488   2.380  -0.224   1.007 -1.8516 -1.5320  1.1560
  900MOL0     H21489   2.304  -0.247   0.854  3.5418 -1.7166 -0.1644
  900MOL0     H21490   2.202  -0.008   0.991 -0.9720  0.0431 -3.1930
  900MOL0     H21491   2.214  -0.139   1.106  1.1636  1.8129  0.5656
  900MOL0     H21492   2.056  -0.281   0.934  1.4259  0.7431 -0.9572
  900MOL0     H21493   2.062  -0.140   0.831 -2.9744  1.1503 -0.9073
  900MOL0     H21494   1.846  -0.154   0.944  0.1445 -1.4293  0.5493
  900MOL0     H21495   1.918  -0.176   1.102 -3.0598 -0.8262 -0.6112
  900MOL0     H21496   1.909   0.253   1.060 -5.3312  0.1326  1.8548
  900MOL0     H21497   2.461   0.124   1.038 -0.2983 -0.8785  0.1728
  900MOL0     H21498   2.754   0.188   1.200  0.4961  1.5432 -0.0274
  900MOL0     H21499   2.742   0.285   1.049  0.1484  1.3022  2.0748
  900MOL0     H21500   2.597   0.256   1.138  0.1854  1.7859  0.5709
  901MOL0     O21501   4.780   5.166  10.032  0.5008  0.1452 -0.0201
  901MOL0     C21502   4.761   5.235   9.940  0.7038 -0.8247  0.0832
  901MOL0     O21503   4.793   5.367   9.935  0.4725  1.1033  0.5857
  901MOL0     C21504   4.878   5.425  10.027 -0.2314  0.2888  0.0660
  901MOL0     C21505   4.982   5.369  10.106  0.3274 -0.0350  0.3824
  901MOL0     C21506   5.055   5.446  10.195  0.5736  0.5093 -0.3161
  901MOL0     C21507   5.015   5.583  10.214 -0.0399 -0.2645  0.4919
  901MOL0     O21508   5.082   5.663  10.310 -0.4132  0.2333  0.5470
  901MOL0     C21509   5.098   5.610  10.439  0.1177  0.3474 -0.1473
  901MOL0     C21510   5.127   5.731  10.534 -0.8187  0.4101  0.6827
  901MOL0     C21511   5.277   5.770  10.523  0.1037 -0.2525  0.8596
  901MOL0     C21512   5.308   5.906  10.577  0.0787 -0.4833 -0.6886
  901MOL0     C21513   5.455   5.921  10.609 -0.0661 -0.6673 -0.3982
  901MOL0     C21514   5.482   6.007  10.736  0.4695 -0.0555  0.7526
  901MOL0     C21515   5.637   6.005  10.770  0.6045  1.0017 -0.3652
  901MOL0     C21516   5.659   6.057  10.911  0.3972  0.2849  0.5351
  901MOL0     N21517   5.798   6.029  10.944 -0.5025 -0.2508  0.0627
  901MOL0     C21518   5.895   6.126  10.918 -0.2180  0.5408  0.4912
  901MOL0     C21519   6.002   6.081  10.972 -0.7748 -1.1837 -0.2038
  901MOL0     C21520   6.137   6.141  10.945  0.3178 -0.0225 -0.1924
  901MOL0     C21521   6.225   6.085  10.825 -0.4855 -0.1714 -0.6874
  901MOL0     C21522   6.361   6.149  10.843 -0.5228  0.8333 -0.2624
  901MOL0     C21523   6.467   6.061  10.765  0.3493 -0.6853  0.0779
  901MOL0     O21524   6.600   6.100  10.797 -0.4651 -0.2463  0.4175
  901MOL0     C21525   6.699   6.145  10.707  0.2846 -0.1103  0.0462
  901MOL0     C21526   6.831   6.155  10.740 -0.1638  0.3443  0.1177
  901MOL0     C21527   6.930   6.217  10.649  0.0434  0.9198 -0.5858
  901MOL0     C21528   6.897   6.255  10.520 -0.6034 -0.2064  0.2083
  901MOL0     C21529   7.007   6.316  10.440 -0.4291  0.2139 -0.0167
  901MOL0     O21530   7.133   6.327  10.487 -0.2549  0.4413  0.2664
  901MOL0     C21531   7.240   6.382  10.432  0.5447  0.2871  0.7621
  901MOL0     C21532   7.241   6.460  10.308 -1.0432  0.4072 -0.3044
  901MOL0     C21533   7.363   6.530  10.272  0.6089  0.4705 -0.3822
  901MOL0     C21534   7.477   6.510  10.342 -0.4764  0.0120  0.2022
  901MOL0     O21535   7.597   6.579  10.319  0.3180  0.0360 -0.0763
  901MOL0     C21536   7.727   6.509  10.317  0.3551  0.4908 -0.2577
  901MOL0     C21537   7.766   6.450  10.184  0.2345 -0.1112  0.9597
  901MOL0     C21538   7.916   6.419  10.189  0.5921  0.4634 -0.3620
  901MOL0     C21539   7.963   6.368  10.051  0.8074 -0.7161 -0.9172
  901MOL0     C21540   8.114   6.351  10.052  0.4180  1.1932 -1.2572
  901MOL0     C21541   8.169   6.286   9.924  0.6240 -1.2164  0.1139
  901MOL0     C21542   8.106   6.149   9.893  0.4202  0.0383  0.5052
  901MOL0     C21543   8.199   6.054   9.803 -0.2272 -0.4279 -0.0805
  901MOL0    Cl21544   8.372   6.054   9.850  0.1425 -0.0399 -0.0775
  901MOL0     C21545   7.473   6.422  10.454 -0.0378 -0.4973  1.1615
  901MOL0     C21546   7.362   6.355  10.488 -0.0437  0.7362  0.1176
  901MOL0     O21547   6.973   6.362  10.332  1.0299 -0.2056 -0.0388
  901MOL0     C21548   6.768   6.240  10.480  1.0179 -0.7813 -0.8923
  901MOL0     C21549   6.671   6.183  10.566  0.1427 -0.2394 -0.7804
  901MOL0     N21550   5.974   5.954  11.026 -0.2520  0.2244  0.0018
  901MOL0     N21551   5.844   5.921  11.011 -0.1179  0.2688 -0.0269
  901MOL0     C21552   4.914   5.639  10.131 -0.7242 -0.0505 -0.7414
  901MOL0     C21553   4.849   5.560  10.042  2.2329 -0.7944  0.1566
  901MOL0     C21554   4.688   5.178   9.826  0.7005  0.1558 -0.4887
  901MOL0     C21555   4.585   5.087   9.857  0.7414  0.1914  1.0712
  901MOL0     C21556   4.509   5.023   9.757  1.0669  0.4458  0.1350
  901MOL0     C21557   4.539   5.059   9.619  0.9019  0.6390 -0.2558
  901MOL0     O21558   4.453   4.991   9.531  0.0979 -0.6265  0.4784
  901MOL0     C21559   4.466   5.027   9.394  0.0194  0.0149 -0.2980
  901MOL0     C21560   4.341   4.980   9.320 -0.2767 -0.4023 -0.0973
  901MOL0     C21561   4.214   5.038   9.389 -0.3820 -0.5233  0.7206
  901MOL0     C21562   4.081   5.018   9.314 -0.4457  0.3850 -0.7839
  901MOL0     C21563   4.075   5.063   9.180  0.1546 -0.2970  0.5758
  901MOL0     C21564   4.084   5.107   9.067  0.8020 -1.2263 -0.2405
  901MOL0     C21565   4.649   5.131   9.588  0.0283  0.2980  0.1562
  901MOL0     C21566   4.728   5.189   9.693 -0.0069  0.2120  0.5980
  901MOL0     C21567   4.851   5.271   9.653 -0.5755  0.1673  0.8060
  901MOL0     H21568   5.011   5.265  10.097 -0.6791 -0.2894 -0.0239
  901MOL0     H21569   5.142   5.406  10.245  0.3880  1.0430  0.4533
  901MOL0     H21570   5.000   5.566  10.459 -0.5725  1.3576 -1.1657
  901MOL0     H21571   5.170   5.528  10.445  2.6964  2.4468 -0.5374
  901MOL0     H21572   5.086   5.708  10.633  2.3217  1.2089  2.3026
  901MOL0     H21573   5.058   5.813  10.512 -3.3965 -1.8580 -0.2113
  901MOL0     H21574   5.305   5.762  10.417 -1.5090  0.0019  0.3909
  901MOL0     H21575   5.327   5.696  10.586  0.7077  1.0345  1.9387
  901MOL0     H21576   5.280   5.983  10.505  0.9058  1.4821  0.9856
  901MOL0     H21577   5.250   5.931  10.666 -1.1231  2.2803 -2.1283
  901MOL0     H21578   5.490   5.818  10.623  1.2476  0.0770  2.4456
  901MOL0     H21579   5.518   5.961  10.529  2.6196  0.1668  1.9821
  901MOL0     H21580   5.459   6.114  10.736  1.2057  0.1150  0.0317
  901MOL0     H21581   5.427   5.964  10.820  2.5461 -2.9628  0.7915
  901MOL0     H21582   5.692   6.059  10.693 -2.4781  1.9530 -2.0704
  901MOL0     H21583   5.658   5.897  10.769 -1.0630  0.5819  1.7974
  901MOL0     H21584   5.631   6.162  10.915 -1.6857 -0.1628 -0.6291
  901MOL0     H21585   5.599   5.988  10.972  0.1315  0.8730  0.9424
  901MOL0     H21586   5.889   6.203  10.841 -2.7061 -0.5218 -0.4842
  901MOL0     H21587   6.127   6.249  10.929 -0.7105  0.1024  1.1097
  901MOL0     H21588   6.195   6.126  11.037  1.6931  1.5212 -0.7483
  901MOL0     H21589   6.241   5.978  10.835  1.2945 -0.1780 -2.8279
  901MOL0     H21590   6.175   6.104  10.729 -0.7616  0.6308 -0.3928
  901MOL0     H21591   6.396   6.152  10.946 -1.1509  2.3120 -0.0652
  901MOL0     H21592   6.359   6.252  10.806  1.0744 -0.0640 -3.2348
  901MOL0     H21593   6.443   6.078  10.660 -1.0930 -1.4771  0.2572
  901MOL0     H21594   6.462   5.954  10.783  3.8964 -1.0942 -0.6829
  901MOL0     H21595   6.859   6.131  10.842 -2.7028  3.1139  1.6402
  901MOL0     H21596   7.028   6.225  10.695  0.1550 -0.1206 -0.6036
  901MOL0     H21597   7.148   6.476  10.254 -1.7176  0.7522  0.9124
  901MOL0     H21598   7.370   6.600  10.190 -2.3870 -0.8911 -1.9446
  901MOL0     H21599   7.794   6.592  10.343 -2.8582  1.8148  5.6524
  901MOL0     H21600   7.738   6.444  10.405 -1.8096  1.1718  0.5771
  901MOL0     H21601   7.701   6.363  10.167 -1.8805  1.5731  0.0374
  901MOL0     H21602   7.755   6.516  10.098  1.5111 -1.8237 -0.6159
  901MOL0     H21603   7.970   6.511  10.211 -0.9822  1.7918 -1.8596
  901MOL0     H21604   7.943   6.344  10.265  4.4512  2.2034  0.2396
  901MOL0     H21605   7.934   6.436   9.971 -0.6507 -1.0212 -0.6639
  901MOL0     H21606   7.902   6.280  10.027 -0.1553 -0.5265  0.7063
  901MOL0     H21607   8.119   6.276  10.132  1.1424  0.2735 -2.1320
  901MOL0     H21608   8.166   6.441  10.085 -1.0161  1.0915  1.5511
  901MOL0     H21609   8.145   6.354   9.842 -1.8807  1.4187  2.7965
  901MOL0     H21610   8.278   6.273   9.928  0.9738  1.4372  1.6116
  901MOL0     H21611   8.014   6.164   9.837  1.4484 -0.5205 -1.4115
  901MOL0     H21612   8.085   6.095   9.986 -0.1268  1.4083  1.2104
  901MOL0     H21613   8.167   5.950   9.815  0.9421 -0.7766  0.2037
  901MOL0     H21614   8.199   6.085   9.698  1.9558 -0.7824 -0.2472
  901MOL0     H21615   7.563   6.420  10.514  3.3080  3.8642 -2.9155
  901MOL0     H21616   7.369   6.307  10.585  4.4043 -0.4150 -0.5389
  901MOL0     H21617   6.731   6.270  10.383 -0.3205 -2.6805 -1.0250
  901MOL0     H21618   6.571   6.174  10.525 -0.3693 -1.0438  0.5523
  901MOL0     H21619   4.878   5.740  10.151  0.7439  0.6418 -1.4779
  901MOL0     H21620   4.765   5.604   9.989  1.9761 -0.3587  0.9122
  901MOL0     H21621   4.557   5.072   9.961 -3.6841  0.4531  0.1003
  901MOL0     H21622   4.429   4.954   9.781  1.8433 -0.2930  0.6247
  901MOL0     H21623   4.557   4.990   9.348  0.7659  0.5616  0.6960
  901MOL0     H21624   4.478   5.136   9.390  2.5482 -0.0779  1.9627
  901MOL0     H21625   4.332   4.871   9.316  1.4339 -0.5580 -0.6094
  901MOL0     H21626   4.348   5.012   9.216  1.1450  0.5432  0.2643
  901MOL0     H21627   4.229   5.146   9.401 -0.9404 -0.5114  1.3218
  901MOL0     H21628   4.214   5.001   9.492  1.5664 -2.4718  0.0947
  901MOL0     H21629   4.080   4.909   9.308 -0.0285  0.3869 -0.8497
  901MOL0     H21630   4.011   5.062   9.387  1.8399  1.0643  1.1213
  901MOL0     H21631   4.092   5.140   8.965 -1.8708  1.0320  0.1473
  901MOL0     H21632   4.667   5.163   9.485 -0.8370  2.4615  0.6190
  901MOL0     H21633   4.833   5.373   9.689  0.4867  1.0358 -0.9641
  901MOL0     H21634   4.943   5.220   9.684  1.2432  0.5863 -3.2796
  901MOL0     H21635   4.841   5.280   9.544 -4.0964  1.4027  1.1022
  902MOL0     O21636   9.953   5.808   9.897  0.1506 -0.4299  0.4852
  902MOL0     C21637   9.932   5.706   9.964 -0.6253 -0.4042  0.4538
  902MOL0     O21638  10.020   5.663  10.050 -0.1874 -0.3339  0.3873
  902MOL0     C21639  10.155   5.695  10.020  0.2897  0.5620 -0.2110
  902MOL0     C21640  10.221   5.658   9.906 -0.8400 -0.8401 -0.1926
  902MOL0     C21641  10.352   5.704   9.875 -0.1609 -0.0756  0.3530
  902MOL0     C21642  10.422   5.783   9.966  0.1282 -0.1010  0.1804
  902MOL0     O21643  10.545   5.837   9.946 -0.5989 -0.3203 -0.5671
  902MOL0     C21644  10.645   5.745   9.976  0.2757 -0.5843  0.0587
  902MOL0     C21645  10.766   5.800   9.909 -0.1739 -1.0989 -0.2950
  902MOL0     C21646  10.791   5.956   9.931 -0.3482 -0.3383  0.9239
  902MOL0     C21647  10.932   5.991   9.956  0.7456  0.1935  0.1468
  902MOL0     C21648  10.973   6.141   9.955  0.0752  0.4622 -0.8094
  902MOL0     C21649  10.919   6.230  10.070  0.6757 -1.1710  0.7664
  902MOL0     C21650  10.937   6.152  10.202  1.0553  0.2496 -0.2809
  902MOL0     C21651  10.935   6.241  10.325 -0.4773  0.7826 -0.4258
  902MOL0     N21652  11.007   6.175  10.436 -0.2340  0.0766  0.4782
  902MOL0     C21653  11.144   6.158  10.429 -0.3897 -0.1315 -0.7409
  902MOL0     C21654  11.184   6.078  10.535  0.0163 -0.8136 -0.6487
  902MOL0     C21655  11.321   6.019  10.578  0.3850 -0.4704 -0.1401
  902MOL0     C21656  11.376   6.073  10.715 -0.7263  0.4551  0.2479
  902MOL0     C21657  11.461   6.202  10.691  0.6896 -0.2361  0.0395
  902MOL0     C21658  11.511   6.278  10.816 -0.7785  0.5680  0.4260
  902MOL0     O21659  11.600   6.180  10.875 -0.5954 -0.2691 -1.2105
  902MOL0     C21660  11.694   6.226  10.965  1.3903  0.8314  1.0510
  902MOL0     C21661  11.665   6.321  11.063 -0.6403  0.2576 -0.3426
  902MOL0     C21662  11.763   6.370  11.150  0.5039  0.1381 -0.4551
  902MOL0     C21663  11.894   6.308  11.146  0.9085 -0.3432 -0.4656
  902MOL0     C21664  11.998   6.355  11.243 -1.1695  0.3261  0.4918
  902MOL0     O21665  12.128   6.301  11.227 -0.3761  0.5078  0.2298
  902MOL0     C21666  12.203   6.302  11.341 -0.3004 -0.2004  0.3519
  902MOL0     C21667  12.336   6.353  11.331  0.2888 -0.5196 -0.5888
  902MOL0     C21668  12.424   6.345  11.433 -0.1478  0.3199 -0.0117
  902MOL0     C21669  12.396   6.279  11.558 -0.3177 -0.4080 -0.6995
  902MOL0     O21670  12.505   6.268  11.643  0.1451  0.1037  0.3879
  902MOL0     C21671  12.481   6.232  11.783 -0.8949 -0.1492 -0.0265
  902MOL0     C21672  12.617   6.232  11.861  0.0793 -0.2859  0.2119
  902MOL0     C21673  12.690   6.368  11.859  0.5306  0.4569 -0.5334
  902MOL0     C21674  12.764   6.409  11.734 -0.0621 -0.4201  0.1968
  902MOL0     C21675  12.854   6.528  11.756  0.0801  0.2502  0.1437
  902MOL0     C21676  12.787   6.653  11.697 -0.5971  0.3609  0.2385
  902MOL0     C21677  12.853   6.780  11.756  0.4814 -0.2012 -0.1103
  902MOL0     C21678  12.788   6.905  11.706  0.6055 -0.0196  0.5065
  902MOL0    Cl21679  12.603   6.906  11.722  0.5167  0.5247  0.0777
  902MOL0     C21680  12.263   6.228  11.571 -0.1452 -0.5552  0.2959
  902MOL0     C21681  12.172   6.233  11.464  0.0398 -0.6722 -1.0991
  902MOL0     O21682  11.966   6.432  11.328  0.2389  0.1574 -0.1236
  902MOL0     C21683  11.912   6.204  11.060 -0.6429 -0.1887  0.3767
  902MOL0     C21684  11.813   6.159  10.974 -0.6302  0.1187 -0.1961
  902MOL0     N21685  11.064   6.041  10.591  0.6206  0.3313  0.4738
  902MOL0     N21686  10.957   6.095  10.539  0.3485  0.2651  0.7441
  902MOL0     C21687  10.356   5.812  10.085  0.4130  0.9822 -0.0083
  902MOL0     C21688  10.223   5.768  10.115  0.0422  0.7691  0.1292
  902MOL0     C21689   9.799   5.628   9.958  0.3247 -0.1835 -0.0782
  902MOL0     C21690   9.718   5.655   9.846  0.1926  0.3632 -0.0436
  902MOL0     C21691   9.589   5.605   9.833 -0.2508  0.0489  0.1299
  902MOL0     C21692   9.544   5.502   9.920 -0.0287 -0.4104  0.5896
  902MOL0     O21693   9.429   5.425   9.894 -0.2829 -0.3944 -0.3972
  902MOL0     C21694   9.359   5.434   9.773  0.2066 -1.2612  0.7652
  902MOL0     C21695   9.284   5.307   9.739 -0.5211  0.6393  0.4228
  902MOL0     C21696   9.205   5.258   9.864 -0.0575 -0.9180  0.8541
  902MOL0     C21697   9.119   5.133   9.823  0.3799 -0.5362  0.4676
  902MOL0     C21698   9.212   5.022   9.805 -0.6061 -0.3346 -0.6164
  902MOL0     C21699   9.278   4.927   9.779  0.6998  0.3980 -0.4251
  902MOL0     C21700   9.634   5.458  10.016  0.5848  0.2078 -0.3593
  902MOL0     C21701   9.759   5.518  10.045 -0.1991 -0.4009  0.1239
  902MOL0     C21702   9.850   5.458  10.150 -0.1881 -0.7701  0.5663
  902MOL0     H21703  10.166   5.587   9.844 -1.8009  1.4647 -2.1209
  902MOL0     H21704  10.402   5.673   9.784  0.0029 -0.4042  0.5502
  902MOL0     H21705  10.661   5.742  10.084 -3.1652 -2.7115  0.6440
  902MOL0     H21706  10.615   5.647   9.940 -2.9006 -0.1992  1.3808
  902MOL0     H21707  10.754   5.786   9.801 -1.4679  2.9521 -0.8466
  902MOL0     H21708  10.855   5.751   9.950 -0.9567 -1.9396  0.4621
  902MOL0     H21709  10.743   6.008  10.014  1.2540  4.8626 -0.9894
  902MOL0     H21710  10.744   6.010   9.849 -0.3036 -1.0589  0.4193
  902MOL0     H21711  10.958   5.945  10.051  1.6516 -1.0128 -0.6568
  902MOL0     H21712  10.998   5.950   9.879  2.2818 -0.9206  1.9848
  902MOL0     H21713  11.082   6.143   9.965  0.1096 -1.7715 -0.1073
  902MOL0     H21714  10.935   6.182   9.861  1.0617  1.2737 -0.8671
  902MOL0     H21715  10.970   6.326  10.071  0.1259 -0.8798  1.0959
  902MOL0     H21716  10.817   6.259  10.042  1.5534  2.2453  0.7155
  902MOL0     H21717  11.037   6.109  10.198  0.6165 -0.8010 -0.1854
  902MOL0     H21718  10.854   6.083  10.221  0.8846  0.6572  0.5016
  902MOL0     H21719  10.980   6.339  10.307 -1.5619  1.5336  0.7673
  902MOL0     H21720  10.830   6.254  10.355  0.2691  1.0623  2.3964
  902MOL0     H21721  11.215   6.182  10.350 -2.6415  1.8851 -2.3060
  902MOL0     H21722  11.297   5.912  10.586 -1.3132 -0.0527  0.7500
  902MOL0     H21723  11.397   6.024  10.500 -0.0399  1.3632 -0.4687
  902MOL0     H21724  11.291   6.090  10.782 -0.8071  0.8141  0.0564
  902MOL0     H21725  11.442   6.005  10.771 -1.2796 -0.2714  0.0228
  902MOL0     H21726  11.395   6.278  10.648  2.9460  2.0428  0.3468
  902MOL0     H21727  11.553   6.182  10.635  2.5782  2.6849  1.7875
  902MOL0     H21728  11.423   6.304  10.876 -0.8528 -3.5320  2.4335
  902MOL0     H21729  11.572   6.360  10.777 -1.5195  0.4180 -1.1004
  902MOL0     H21730  11.568   6.370  11.055 -1.6259 -1.7281 -1.1095
  902MOL0     H21731  11.737   6.448  11.221 -0.4230  0.5967 -1.2775
  902MOL0     H21732  12.363   6.408  11.241 -1.2185  3.2122  1.0351
  902MOL0     H21733  12.516   6.398  11.414  0.5336 -0.6508  0.5144
  902MOL0     H21734  12.406   6.293  11.834  1.2480  1.6040  1.1845
  902MOL0     H21735  12.441   6.130  11.784  0.7098 -0.8221 -0.1951
  902MOL0     H21736  12.594   6.205  11.964 -0.5673  0.7754  0.3641
  902MOL0     H21737  12.686   6.158  11.818  0.4515  0.5428 -0.6525
  902MOL0     H21738  12.612   6.444  11.869  0.1936 -0.0738  1.3507
  902MOL0     H21739  12.766   6.369  11.938 -0.5327 -1.7417  0.6315
  902MOL0     H21740  12.692   6.425  11.653 -0.4954  0.6691  0.7780
  902MOL0     H21741  12.832   6.327  11.707 -0.8732 -0.2899 -2.4741
  902MOL0     H21742  12.955   6.510  11.716 -0.6336 -1.0306 -1.2271
  902MOL0     H21743  12.868   6.530  11.864 -0.3766 -1.6877  0.2755
  902MOL0     H21744  12.793   6.650  11.588 -2.2696  0.7954  0.0967
  902MOL0     H21745  12.679   6.653  11.717 -1.1842  1.2993 -2.4941
  902MOL0     H21746  12.960   6.779  11.734  0.6770 -2.1285  0.6685
  902MOL0     H21747  12.836   6.785  11.864  0.5791 -1.4269 -0.0173
  902MOL0     H21748  12.835   6.998  11.740 -2.8424  2.8679 -1.8682
  902MOL0     H21749  12.800   6.895  11.598  2.3372  1.8513  0.4486
  902MOL0     H21750  12.224   6.185  11.663 -1.9926  1.0484  0.3314
  902MOL0     H21751  12.072   6.204  11.496  0.5564  1.9543  3.8670
  902MOL0     H21752  12.000   6.143  11.044 -2.1218 -2.3266 -0.1916
  902MOL0     H21753  11.828   6.082  10.898 -0.6486  1.3999 -1.5420
  902MOL0     H21754  10.414   5.868  10.158  0.6545  1.9751 -0.9278
  902MOL0     H21755  10.181   5.781  10.214  1.4402 -2.2014  1.2328
  902MOL0     H21756   9.760   5.727   9.777 -0.1099  0.9406  0.3751
  902MOL0     H21757   9.525   5.636   9.750 -2.0367 -0.6188  1.1829
  902MOL0     H21758   9.421   5.446   9.683  1.8972 -1.4273  1.8570
  902MOL0     H21759   9.287   5.516   9.771 -1.6191 -2.7740 -1.6145
  902MOL0     H21760   9.364   5.234   9.719  0.2557  1.3220  0.9330
  902MOL0     H21761   9.212   5.324   9.659  1.3584  0.1427 -1.4833
  902MOL0     H21762   9.149   5.347   9.893  2.7192 -0.0147  4.2018
  902MOL0     H21763   9.272   5.234   9.947  1.0058  2.0189  0.9271
  902MOL0     H21764   9.048   5.100   9.899 -1.0858  2.1764  0.4062
  902MOL0     H21765   9.054   5.149   9.737  1.2607 -1.4638 -0.3926
  902MOL0     H21766   9.344   4.845   9.761  0.2665  0.2857 -1.6152
  902MOL0     H21767   9.603   5.380  10.084  0.1261  2.0941  1.7174
  902MOL0     H21768   9.798   5.374  10.196  0.5565 -0.8831  1.2124
  902MOL0     H21769   9.945   5.418  10.112  0.1267 -0.7799  1.3482
  902MOL0     H21770   9.877   5.534  10.223  0.6348 -1.5927  1.1434
  903MOL0     O21771   6.589   1.510   6.102  0.0627  0.1505 -0.5529
  903MOL0     C21772   6.509   1.438   6.168 -0.3739  0.1854  0.6191
  903MOL0     O21773   6.540   1.371   6.284 -0.1206 -0.4693  0.7544
  903MOL0     C21774   6.646   1.414   6.357 -0.6545 -0.2594 -0.4212
  903MOL0     C21775   6.626   1.445   6.492  0.3938  2.1275  0.7258
  903MOL0     C21776   6.733   1.491   6.571  0.0970 -0.8695  0.7802
  903MOL0     C21777   6.863   1.509   6.520 -0.1696  0.4678 -0.4954
  903MOL0     O21778   6.973   1.552   6.592  0.6918 -1.2368 -0.2019
  903MOL0     C21779   6.989   1.533   6.733  0.5224  0.1958 -0.6136
  903MOL0     C21780   6.931   1.654   6.802 -0.3975 -0.6014 -0.2214
  903MOL0     C21781   6.950   1.661   6.951 -0.0193  0.7520  0.2847
  903MOL0     C21782   6.873   1.777   7.007 -1.0089  0.1205  0.4811
  903MOL0     C21783   6.926   1.818   7.146 -0.0099  0.1513  0.1634
  903MOL0     C21784   7.054   1.903   7.120 -0.5568 -0.1989 -0.0252
  903MOL0     C21785   7.089   1.996   7.246  0.3088  0.5576  0.2186
  903MOL0     C21786   7.173   2.127   7.209  0.3793  0.2214 -0.3354
  903MOL0     N21787   7.300   2.089   7.153  0.8629  0.4862  0.3098
  903MOL0     C21788   7.331   2.080   7.019 -0.0305  0.3824  0.4193
  903MOL0     C21789   7.452   2.034   7.021  0.0035  0.6390  1.0777
  903MOL0     C21790   7.519   1.989   6.893 -0.2917  0.4282  0.2928
  903MOL0     C21791   7.611   1.865   6.910 -0.1728 -0.5529 -0.1854
  903MOL0     C21792   7.688   1.836   6.781  0.6090 -0.7424 -0.1656
  903MOL0     C21793   7.835   1.879   6.802  0.0238  0.1328  0.6026
  903MOL0     O21794   7.917   1.763   6.775  0.3010  0.2493 -0.2729
  903MOL0     C21795   8.030   1.743   6.838  0.2385  0.4045  0.3951
  903MOL0     C21796   8.064   1.615   6.871  0.3486  0.7816 -0.1798
  903MOL0     C21797   8.174   1.586   6.948 -0.1871  0.3662  0.4267
  903MOL0     C21798   8.267   1.686   6.989  0.5817  0.0558  0.1445
  903MOL0     C21799   8.386   1.656   7.070  0.9354 -1.1487 -0.7473
  903MOL0     O21800   8.492   1.748   7.066 -0.5655  0.4394 -0.1369
  903MOL0     C21801   8.614   1.716   7.128  0.0389 -0.7052  0.1821
  903MOL0     C21802   8.726   1.765   7.071  0.7553 -0.5813  0.8792
  903MOL0     C21803   8.856   1.770   7.127 -0.6545  0.3661  0.4781
  903MOL0     C21804   8.878   1.710   7.252 -0.0108  0.5785 -0.2438
  903MOL0     O21805   9.003   1.700   7.311 -0.0003  0.4482  0.2094
  903MOL0     C21806   9.112   1.754   7.230  0.3043 -1.0233  0.1977
  903MOL0     C21807   9.235   1.722   7.316  0.2363  0.6729  0.4146
  903MOL0     C21808   9.280   1.573   7.296  0.0376  0.5010 -0.6729
  903MOL0     C21809   9.433   1.543   7.313  0.6782 -0.1938  0.5164
  903MOL0     C21810   9.495   1.617   7.433  0.0427 -0.1185  0.2195
  903MOL0     C21811   9.615   1.543   7.505  0.3328 -0.2070 -0.0663
  903MOL0     C21812   9.723   1.510   7.405  0.1259 -0.5147  0.7462
  903MOL0     C21813   9.839   1.439   7.466 -0.6881 -0.2155  0.4862
  903MOL0    Cl21814   9.898   1.540   7.592  0.4224 -0.0534 -0.4765
  903MOL0     C21815   8.764   1.673   7.318  0.2440  0.6175  0.1067
  903MOL0     C21816   8.640   1.668   7.251  0.5499  0.6993 -0.2319
  903MOL0     O21817   8.376   1.548   7.122 -1.2662 -0.5111 -0.1576
  903MOL0     C21818   8.235   1.811   6.947  0.3443  0.6704 -0.3281
  903MOL0     C21819   8.128   1.839   6.862  0.1635 -0.4133 -0.4967
  903MOL0     N21820   7.497   2.026   7.149 -0.0878 -0.2383  0.6553
  903MOL0     N21821   7.407   2.055   7.227 -0.3528  0.3729  0.3582
  903MOL0     C21822   6.878   1.483   6.385  0.5308 -0.1964 -0.2310
  903MOL0     C21823   6.771   1.435   6.302 -0.5292 -0.1635  0.1738
  903MOL0     C21824   6.373   1.421   6.116 -0.4078 -0.7173  0.0085
  903MOL0     C21825   6.299   1.311   6.152 -0.3139 -0.2281  0.5577
  903MOL0     C21826   6.173   1.288   6.104  0.2042  0.5040  0.1261
  903MOL0     C21827   6.107   1.374   6.017 -0.5030  0.6706  1.1446
  903MOL0     O21828   5.985   1.346   5.963 -0.1768  0.9607  0.6539
  903MOL0     C21829   5.937   1.209   5.970 -0.1672  1.3226 -0.1763
  903MOL0     C21830   5.784   1.215   5.955 -0.2573 -0.3669  0.0303
  903MOL0     C21831   5.731   1.286   6.077 -0.0446  0.5963 -0.3437
  903MOL0     C21832   5.574   1.274   6.070  0.4755 -0.3602  0.4195
  903MOL0     C21833   5.524   1.417   6.070  0.0694  0.1697 -0.8672
  903MOL0     C21834   5.482   1.533   6.063 -0.5224  0.9529  0.6221
  903MOL0     C21835   6.176   1.487   5.985 -0.3342 -0.4810 -0.8693
  903MOL0     C21836   6.307   1.515   6.033 -0.3613 -0.0106 -0.0736
  903MOL0     C21837   6.353   1.659   6.013 -0.1574 -0.3527  0.0916
  903MOL0     H21838   6.525   1.425   6.526 -0.8219 -0.6415 -3.6881
  903MOL0     H21839   6.699   1.511   6.672  0.6745  0.9332  0.6542
  903MOL0     H21840   6.938   1.441   6.761  1.2306 -1.2542 -3.6477
  903MOL0     H21841   7.093   1.527   6.765  0.2455  0.5932  0.4170
  903MOL0     H21842   6.826   1.662   6.774 -0.4757 -0.7718  0.0194
  903MOL0     H21843   6.988   1.736   6.758 -0.2241  0.5140  1.9159
  903MOL0     H21844   7.058   1.659   6.967 -0.1781 -1.7547  1.5427
  903MOL0     H21845   6.927   1.562   6.991  1.1995 -0.2332 -1.3298
  903MOL0     H21846   6.880   1.857   6.933  0.5242 -1.4798 -1.1914
  903MOL0     H21847   6.768   1.750   7.022 -1.3092  0.5785 -0.7061
  903MOL0     H21848   6.854   1.876   7.204 -0.9862  0.3847 -1.2320
  903MOL0     H21849   6.961   1.727   7.197  4.1861  1.6360  0.3341
  903MOL0     H21850   7.140   1.836   7.106  1.8422  2.1386  2.3486
  903MOL0     H21851   7.038   1.968   7.034 -0.7850  0.0410  0.1967
  903MOL0     H21852   7.141   1.940   7.324  0.6767  0.2036 -0.2712
  903MOL0     H21853   6.992   2.014   7.293  0.1978 -2.5393  1.4108
  903MOL0     H21854   7.111   2.191   7.145 -3.0991  0.3833  2.8309
  903MOL0     H21855   7.197   2.183   7.300  1.9335  0.0208 -0.5803
  903MOL0     H21856   7.269   2.094   6.931  0.4171 -3.9270 -0.7841
  903MOL0     H21857   7.437   1.955   6.829  1.6655 -0.0705 -2.1207
  903MOL0     H21858   7.571   2.069   6.839  2.7328 -1.8046 -0.3952
  903MOL0     H21859   7.671   1.876   7.001  1.3493  1.0433 -1.3095
  903MOL0     H21860   7.540   1.782   6.919  0.1715 -1.2616 -2.9920
  903MOL0     H21861   7.644   1.894   6.699 -0.0258 -2.5416 -1.1375
  903MOL0     H21862   7.677   1.730   6.758 -1.0991 -0.3307 -1.4480
  903MOL0     H21863   7.850   1.902   6.908  2.5165 -2.2517  0.8780
  903MOL0     H21864   7.857   1.968   6.742  0.0320  0.2351  0.7582
  903MOL0     H21865   8.009   1.535   6.821  2.0387  0.0330 -0.9351
  903MOL0     H21866   8.191   1.481   6.967  1.8470  0.5646 -0.0516
  903MOL0     H21867   8.714   1.809   6.973  0.6838 -1.1531  0.6291
  903MOL0     H21868   8.937   1.809   7.067  0.6897  0.4668  2.2579
  903MOL0     H21869   9.119   1.712   7.129 -2.7367 -1.7952  0.2209
  903MOL0     H21870   9.101   1.863   7.232 -1.5691 -1.1846  1.5121
  903MOL0     H21871   9.309   1.798   7.288 -1.7686  1.4947 -3.3880
  903MOL0     H21872   9.208   1.743   7.420  0.2260  4.3535 -0.1923
  903MOL0     H21873   9.229   1.510   7.368  0.8766 -1.9390 -2.1024
  903MOL0     H21874   9.257   1.538   7.195  1.3702 -0.0571 -0.8062
  903MOL0     H21875   9.490   1.567   7.223  4.8305 -0.8504  2.7293
  903MOL0     H21876   9.441   1.434   7.323  2.3121 -0.3000 -1.2428
  903MOL0     H21877   9.417   1.636   7.508 -1.9364  0.4781 -1.8460
  903MOL0     H21878   9.530   1.713   7.393 -2.4555  0.7268 -0.1519
  903MOL0     H21879   9.656   1.615   7.577 -0.0429 -1.0369  1.0086
  903MOL0     H21880   9.577   1.456   7.559 -2.6498  1.1919  0.3234
  903MOL0     H21881   9.754   1.603   7.355 -1.9044 -0.8545 -1.3023
  903MOL0     H21882   9.683   1.441   7.330  1.9523 -1.5008  0.6247
  903MOL0     H21883   9.808   1.339   7.498 -0.2359 -1.1706 -1.8209
  903MOL0     H21884   9.914   1.433   7.387  1.1211  1.9895  1.9138
  903MOL0     H21885   8.775   1.637   7.420 -2.6866 -1.1317 -0.0682
  903MOL0     H21886   8.557   1.636   7.314  0.2780  1.0251 -0.4246
  903MOL0     H21887   8.308   1.891   6.959  1.3584 -0.3589  0.5039
  903MOL0     H21888   8.111   1.935   6.813  0.4907 -0.0854  0.0320
  903MOL0     H21889   6.977   1.507   6.346 -0.5893  2.3539 -1.7607
  903MOL0     H21890   6.792   1.432   6.196  3.1572  0.6283  0.7116
  903MOL0     H21891   6.347   1.236   6.214  2.2440 -0.5884 -1.6879
  903MOL0     H21892   6.130   1.194   6.138  1.6264 -0.3453 -0.3030
  903MOL0     H21893   5.954   1.162   6.067  0.5262  2.1724  0.1313
  903MOL0     H21894   5.981   1.154   5.886  0.8701  1.3372  0.3335
  903MOL0     H21895   5.743   1.114   5.947  2.0335 -1.3120 -0.4758
  903MOL0     H21896   5.754   1.277   5.869 -0.1215 -0.2611  0.0595
  903MOL0     H21897   5.776   1.386   6.074  1.1151  0.0722 -1.1454
  903MOL0     H21898   5.772   1.231   6.162  1.3665  2.7332  0.4245
  903MOL0     H21899   5.544   1.217   5.982  0.9340  0.8686 -0.5630
  903MOL0     H21900   5.542   1.222   6.160  1.7512  1.9377  2.3341
  903MOL0     H21901   5.455   1.632   6.032  0.0063  0.7554 -0.5075
  903MOL0     H21902   6.128   1.571   5.935  1.5411  2.5546  1.9957
  903MOL0     H21903   6.346   1.706   6.112 -1.4021  1.4481 -0.8002
  903MOL0     H21904   6.457   1.669   5.981  0.4461 -2.0485  1.3922
  903MOL0     H21905   6.288   1.719   5.949 -1.0950 -1.7021 -0.2666
  904MOL0     O21906   0.146   8.171   0.442  0.1838 -0.5031  0.3186
  904MOL0     C21907   0.101   8.250   0.363  0.3017 -0.5431 -0.0806
  904MOL0     O21908   0.168   8.354   0.304  0.5098 -1.1460  0.2135
  904MOL0     C21909   0.306   8.370   0.319  0.2969  0.8320  0.2278
  904MOL0     C21910   0.347   8.475   0.403  0.2042  0.9746 -0.1314
  904MOL0     C21911   0.487   8.507   0.412 -0.0691  0.1371 -0.1595
  904MOL0     C21912   0.579   8.432   0.349  0.1984  0.6948 -0.2326
  904MOL0     O21913   0.715   8.455   0.356  0.6663  0.4083  0.0550
  904MOL0     C21914   0.767   8.578   0.307 -0.3111 -0.2585  0.4455
  904MOL0     C21915   0.916   8.589   0.315  0.0880 -0.3585  0.0612
  904MOL0     C21916   0.976   8.726   0.273  0.2607  0.1402 -0.6871
  904MOL0     C21917   1.128   8.735   0.279  0.4860 -0.5245  0.2341
  904MOL0     C21918   1.167   8.850   0.185 -1.3805 -0.2856 -0.1189
  904MOL0     C21919   1.320   8.868   0.206 -0.4956  0.3391  0.2188
  904MOL0     C21920   1.366   8.995   0.128  0.9923  0.2008 -0.7241
  904MOL0     C21921   1.508   9.028   0.152 -0.3529 -0.2078 -1.2531
  904MOL0     N21922   1.566   9.136   0.067 -0.2552  0.0600  0.0190
  904MOL0     C21923   1.570   9.145  -0.071  0.1647 -0.8904  0.2759
  904MOL0     C21924   1.654   9.248  -0.094 -0.9184  0.4336  0.3305
  904MOL0     C21925   1.668   9.310  -0.227 -0.0246 -0.4905  0.3646
  904MOL0     C21926   1.596   9.447  -0.238  0.2201 -0.7932  0.4089
  904MOL0     C21927   1.441   9.445  -0.214 -0.2524 -0.1850  0.5314
  904MOL0     C21928   1.389   9.461  -0.074 -0.0653 -0.1896  0.0899
  904MOL0     O21929   1.245   9.450  -0.064 -0.4410  0.0297 -0.0491
  904MOL0     C21930   1.171   9.333  -0.062 -0.2456  0.5721  0.0896
  904MOL0     C21931   1.038   9.345  -0.008 -0.6301 -0.3432  0.2056
  904MOL0     C21932   0.953   9.242   0.009  0.4689  0.7424  0.2705
  904MOL0     C21933   0.997   9.118  -0.020  0.3545 -0.1801  0.6180
  904MOL0     C21934   0.899   9.002  -0.015 -0.1709  0.6016  0.6346
  904MOL0     O21935   0.778   9.024   0.043 -0.7390  0.1020 -0.2329
  904MOL0     C21936   0.666   8.952   0.024  0.5482 -0.4423 -0.5024
  904MOL0     C21937   0.641   8.846   0.116  0.2297  0.6334  0.2185
  904MOL0     C21938   0.519   8.781   0.098 -0.2581  0.2057  0.2017
  904MOL0     C21939   0.423   8.808  -0.004 -0.6179  0.3448  0.3326
  904MOL0     O21940   0.306   8.740  -0.031 -0.9188  0.1295  0.1560
  904MOL0     C21941   0.260   8.640   0.055  0.2040  0.8983  0.5540
  904MOL0     C21942   0.113   8.624   0.030  0.5510 -0.1953  0.5225
  904MOL0     C21943   0.083   8.572  -0.110 -0.8922  0.5118  1.0611
  904MOL0     C21944  -0.054   8.513  -0.123 -0.6423  0.0837  0.4742
  904MOL0     C21945  -0.085   8.483  -0.270  0.0215  1.0941 -0.8209
  904MOL0     C21946  -0.222   8.418  -0.281 -0.4398 -0.2908  0.7910
  904MOL0     C21947  -0.248   8.387  -0.432 -0.5591 -0.0908 -0.0339
  904MOL0     C21948  -0.379   8.324  -0.471  0.3110  0.9724 -0.5278
  904MOL0    Cl21949  -0.519   8.425  -0.428 -0.1102 -0.0625 -0.1649
  904MOL0     C21950   0.457   8.913  -0.092 -0.1830  0.2479 -0.0749
  904MOL0     C21951   0.573   8.983  -0.082  0.4222 -0.2964 -0.2552
  904MOL0     O21952   0.931   8.897  -0.074 -0.2939 -0.1748 -0.9135
  904MOL0     C21953   1.126   9.105  -0.082 -0.3344  0.5821 -0.1321
  904MOL0     C21954   1.218   9.206  -0.097  0.5514 -0.1374  0.1682
  904MOL0     N21955   1.699   9.301   0.022 -0.9629 -0.2571  0.7423
  904MOL0     N21956   1.658   9.222   0.117 -0.7169  0.6119 -0.1465
  904MOL0     C21957   0.539   8.321   0.272  0.7777  0.3820  0.5767
  904MOL0     C21958   0.402   8.291   0.244  0.8254 -0.2683  0.3976
  904MOL0     C21959  -0.051   8.245   0.351  0.2971  0.6115 -0.4004
  904MOL0     C21960  -0.106   8.346   0.263 -0.6415  0.7616 -0.1552
  904MOL0     C21961  -0.239   8.348   0.243  0.2193  0.1790 -0.0741
  904MOL0     C21962  -0.330   8.257   0.305 -0.6316  0.3971  0.5566
  904MOL0     O21963  -0.461   8.273   0.264 -0.5341  0.0919  0.8688
  904MOL0     C21964  -0.546   8.191   0.343 -0.0174 -0.2668  0.1766
  904MOL0     C21965  -0.686   8.217   0.294  0.8352 -0.0766 -0.0789
  904MOL0     C21966  -0.695   8.171   0.144 -0.0833  0.2322  1.1262
  904MOL0     C21967  -0.836   8.197   0.077  0.2125  0.5413  0.5312
  904MOL0     C21968  -0.949   8.144   0.143  0.5933  0.4300 -0.1403
  904MOL0     C21969  -1.054   8.111   0.193  0.1445  0.0894 -0.6711
  904MOL0     C21970  -0.276   8.153   0.386 -0.4608  0.7935 -0.1229
  904MOL0     C21971  -0.133   8.145   0.416 -0.0112 -0.7630 -0.0090
  904MOL0     C21972  -0.096   8.023   0.490 -0.2651 -0.8062 -0.1067
  904MOL0     H21973   0.274   8.535   0.456 -0.8130 -0.0330 -0.3582
  904MOL0     H21974   0.523   8.589   0.473  4.4554 -0.7860 -1.1663
  904MOL0     H21975   0.734   8.589   0.203  0.8107  3.1379  0.3421
  904MOL0     H21976   0.728   8.659   0.368 -3.8220 -2.9392  2.1588
  904MOL0     H21977   0.966   8.520   0.247  0.3107 -1.5927  1.4265
  904MOL0     H21978   0.946   8.569   0.418 -0.8274  0.2650  0.4652
  904MOL0     H21979   0.928   8.805   0.330  0.1398 -0.2394 -0.2536
  904MOL0     H21980   0.944   8.743   0.170  1.7419  0.4912 -1.1093
  904MOL0     H21981   1.163   8.749   0.382  1.7609 -2.7200  0.1620
  904MOL0     H21982   1.171   8.647   0.230  0.7154  1.3185 -3.2415
  904MOL0     H21983   1.150   8.835   0.078  3.1225  1.4265 -1.2786
  904MOL0     H21984   1.110   8.941   0.205 -0.9019  0.5517 -2.3105
  904MOL0     H21985   1.338   8.872   0.314 -0.2272  1.7179  0.1321
  904MOL0     H21986   1.383   8.781   0.186  0.8492  1.3660 -0.1707
  904MOL0     H21987   1.299   9.067   0.176 -0.6100 -1.1296 -0.8686
  904MOL0     H21988   1.344   8.985   0.022  0.4195 -0.2623 -0.5634
  904MOL0     H21989   1.538   9.039   0.257 -0.0833 -0.4241 -1.3067
  904MOL0     H21990   1.562   8.937   0.124  1.7765  0.8567 -0.8514
  904MOL0     H21991   1.514   9.088  -0.144 -2.0482  0.2750  0.9973
  904MOL0     H21992   1.776   9.322  -0.242 -0.0983 -2.3169 -2.4594
  904MOL0     H21993   1.636   9.243  -0.308  0.0393 -2.1410  1.6469
  904MOL0     H21994   1.627   9.516  -0.159 -2.0685 -0.9269  1.5067
  904MOL0     H21995   1.619   9.499  -0.331  2.0599 -1.0275  0.6918
  904MOL0     H21996   1.388   9.358  -0.254  0.0628 -0.5278  0.8491
  904MOL0     H21997   1.404   9.524  -0.280  1.7109 -0.2256 -0.6915
  904MOL0     H21998   1.421   9.560  -0.040  1.5746 -0.3054 -0.9596
  904MOL0     H21999   1.434   9.377  -0.021  0.8024 -0.5579 -1.1694
  904MOL0     H22000   1.001   9.442   0.021 -1.7271 -1.6842  3.7825
  904MOL0     H22001   0.853   9.258   0.048  0.6442  1.4301  0.4522
  904MOL0     H22002   0.714   8.810   0.188 -1.0930 -1.0208  0.8012
  904MOL0     H22003   0.497   8.692   0.157  0.4431 -2.1964 -2.8732
  904MOL0     H22004   0.321   8.550   0.052  0.1307  0.8508  0.4644
  904MOL0     H22005   0.272   8.678   0.157 -1.6004  1.5135  0.5898
  904MOL0     H22006   0.072   8.562   0.110  2.8638 -0.6268  1.4340
  904MOL0     H22007   0.070   8.723   0.048  1.7605  0.8249 -1.7536
  904MOL0     H22008   0.108   8.655  -0.176 -1.0403  0.2031  0.6108
  904MOL0     H22009   0.155   8.494  -0.137 -0.8334  1.2856 -1.2203
  904MOL0     H22010  -0.125   8.590  -0.092  1.9310  3.5100 -1.3809
  904MOL0     H22011  -0.059   8.422  -0.063  1.5291  0.3154  1.0658
  904MOL0     H22012  -0.016   8.405  -0.306 -0.6516 -0.5158  1.1520
  904MOL0     H22013  -0.081   8.581  -0.318  2.4250  3.0915  2.9581
  904MOL0     H22014  -0.217   8.322  -0.228  3.4671 -0.8719 -0.3638
  904MOL0     H22015  -0.306   8.483  -0.250 -3.1067 -1.8430 -2.5703
  904MOL0     H22016  -0.164   8.324  -0.464  2.2380  2.7021  1.2222
  904MOL0     H22017  -0.250   8.479  -0.492 -2.4727  0.4973  0.8777
  904MOL0     H22018  -0.374   8.306  -0.579 -0.6117  1.3736 -0.6462
  904MOL0     H22019  -0.386   8.231  -0.413  1.1970  2.5521  2.3234
  904MOL0     H22020   0.386   8.940  -0.169  0.9822  1.8947 -0.6183
  904MOL0     H22021   0.602   9.053  -0.159  2.0925  1.4204  1.8235
  904MOL0     H22022   1.157   9.014  -0.133  1.7434 -0.5848  2.9028
  904MOL0     H22023   1.313   9.193  -0.148 -0.3406 -0.6772 -1.4152
  904MOL0     H22024   0.613   8.250   0.237 -0.0643 -0.8375  1.1932
  904MOL0     H22025   0.369   8.200   0.194  0.7585 -0.4723  0.8078
  904MOL0     H22026  -0.045   8.428   0.226 -0.0653 -0.0010 -0.9541
  904MOL0     H22027  -0.285   8.436   0.198  1.3501  1.7725  1.7053
  904MOL0     H22028  -0.543   8.198   0.452 -3.7386  1.1508  0.3394
  904MOL0     H22029  -0.522   8.086   0.325  0.6255 -0.2821  1.0628
  904MOL0     H22030  -0.717   8.320   0.315 -0.2379 -0.0850 -1.4543
  904MOL0     H22031  -0.742   8.147   0.357  2.4193  1.0039  2.7150
  904MOL0     H22032  -0.683   8.063   0.135  0.0267  0.4013 -1.3204
  904MOL0     H22033  -0.615   8.213   0.083  0.9422 -0.5140  1.9461
  904MOL0     H22034  -0.840   8.305   0.061  2.1241  0.5219 -0.3721
  904MOL0     H22035  -0.833   8.154  -0.024  2.0124  1.4929  0.1253
  904MOL0     H22036  -1.157   8.091   0.213  0.2840  1.4548  1.8403
  904MOL0     H22037  -0.331   8.066   0.421  1.2227  0.0788  0.8615
  904MOL0     H22038   0.006   8.017   0.531 -1.1944 -3.2114  2.1103
  904MOL0     H22039  -0.161   8.015   0.578 -2.6584 -0.3151 -1.7492
  904MOL0     H22040  -0.101   7.931   0.432 -0.3172 -1.0376  0.2591
  905MOL0     O22041   6.816  10.280   5.621 -1.0100  0.2108 -0.5748
  905MOL0     C22042   6.801  10.167   5.648  0.2839 -0.3262 -0.6738
  905MOL0     O22043   6.892  10.072   5.687  0.0869 -0.1908 -0.3686
  905MOL0     C22044   7.015  10.121   5.710 -0.5229  1.2234  0.0818
  905MOL0     C22045   7.092  10.173   5.614 -0.9712 -0.1674 -0.1110
  905MOL0     C22046   7.230  10.204   5.640  0.3106 -0.2072 -0.8304
  905MOL0     C22047   7.289  10.189   5.771 -0.3160  0.7123  1.3851
  905MOL0     O22048   7.416  10.243   5.804  0.6108  0.2816  0.3057
  905MOL0     C22049   7.468  10.202   5.934  0.2210  0.4392  0.0856
  905MOL0     C22050   7.606  10.276   5.938  0.7079  0.1353 -0.1037
  905MOL0     C22051   7.692  10.236   5.821  0.3382  0.7439  0.0967
  905MOL0     C22052   7.842  10.286   5.823 -0.5846  0.4800  0.1534
  905MOL0     C22053   7.921  10.210   5.924  0.3836 -0.3048 -0.9621
  905MOL0     C22054   8.072  10.259   5.930 -0.5553 -0.6655 -0.0727
  905MOL0     C22055   8.149  10.181   6.048  0.2120 -0.4972  0.0809
  905MOL0     C22056   8.301  10.213   6.045 -0.2340  0.1575 -0.3144
  905MOL0     N22057   8.334  10.360   6.028  0.2715  0.1584 -0.8862
  905MOL0     C22058   8.301  10.449   6.125 -0.7287 -0.4427  0.0916
  905MOL0     C22059   8.313  10.572   6.065 -0.2503  0.1009  0.1573
  905MOL0     C22060   8.292  10.715   6.123  0.5693  0.1224  0.2587
  905MOL0     C22061   8.429  10.787   6.121 -0.3042 -0.8132  0.5104
  905MOL0     C22062   8.414  10.908   6.215  0.5128  0.1347 -1.2028
  905MOL0     C22063   8.537  11.002   6.203 -0.4853 -0.1228 -0.6944
  905MOL0     O22064   8.661  10.927   6.198  0.3931 -0.3771  0.4017
  905MOL0     C22065   8.768  11.008   6.177 -0.0637  0.7609 -0.4833
  905MOL0     C22066   8.775  11.153   6.144  0.2590  0.0838 -0.6495
  905MOL0     C22067   8.898  11.217   6.137 -0.4419 -0.5336  0.0224
  905MOL0     C22068   9.025  11.147   6.135  0.6851  0.5192 -0.0180
  905MOL0     C22069   9.153  11.212   6.106  0.2028  0.6028 -0.4755
  905MOL0     O22070   9.264  11.130   6.095 -0.0277  0.0801  0.3664
  905MOL0     C22071   9.374  11.175   6.030 -0.3505  0.3045  0.2026
  905MOL0     C22072   9.376  11.232   5.905 -0.1830  0.2096  0.4694
  905MOL0     C22073   9.490  11.263   5.833 -0.5136 -0.0799 -0.4625
  905MOL0     C22074   9.613  11.248   5.904  0.1563  0.3034  0.0242
  905MOL0     O22075   9.742  11.267   5.863  0.0631  0.5063  0.3358
  905MOL0     C22076   9.760  11.277   5.720 -0.3386  0.4431 -0.9653
  905MOL0     C22077   9.912  11.277   5.703  0.1046  0.2669  0.1906
  905MOL0     C22078   9.968  11.136   5.705  0.2559  0.2935 -0.3225
  905MOL0     C22079  10.121  11.142   5.672  0.6422  0.2010  0.5763
  905MOL0     C22080  10.186  11.011   5.710 -0.3233 -0.2569 -0.0516
  905MOL0     C22081  10.338  11.020   5.693 -0.5247  0.8081  0.1578
  905MOL0     C22082  10.385  10.879   5.664 -0.4055 -0.2262  0.8720
  905MOL0     C22083  10.533  10.851   5.646  0.0377 -0.2842 -0.3637
  905MOL0    Cl22084  10.627  10.932   5.783 -0.3831  0.1805 -0.1120
  905MOL0     C22085   9.614  11.191   6.028  0.5713 -0.3071  0.1259
  905MOL0     C22086   9.498  11.148   6.091 -0.0405  0.4130 -0.2067
  905MOL0     O22087   9.149  11.330   6.081 -0.2505 -0.3174  0.1379
  905MOL0     C22088   9.008  11.008   6.154  0.5112  0.2151 -0.1814
  905MOL0     C22089   8.884  10.939   6.186 -0.2630 -1.2450  0.1480
  905MOL0     N22090   8.356  10.554   5.934 -0.7920  0.8063  0.0548
  905MOL0     N22091   8.353  10.426   5.911  0.6182 -0.1105 -0.1667
  905MOL0     C22092   7.207  10.128   5.863  0.1477  0.1485  0.6428
  905MOL0     C22093   7.081  10.102   5.841  0.4458  0.2216  0.5637
  905MOL0     C22094   6.657  10.103   5.636  0.2027 -0.6985  0.0863
  905MOL0     C22095   6.650   9.961   5.620  0.5772  0.5403 -0.6906
  905MOL0     C22096   6.523   9.906   5.613 -0.2596  0.4327 -0.2905
  905MOL0     C22097   6.405   9.982   5.613 -0.2223  0.3982  0.3965
  905MOL0     O22098   6.286   9.914   5.598 -0.1149  0.1687 -0.1021
  905MOL0     C22099   6.204   9.968   5.494 -0.4898  0.2598  0.1042
  905MOL0     C22100   6.078   9.878   5.479  0.4513  0.1841 -0.6603
  905MOL0     C22101   6.108   9.760   5.393 -0.6967 -0.5755 -0.3267
  905MOL0     C22102   5.989   9.668   5.373 -0.3895 -0.5069 -0.6541
  905MOL0     C22103   5.909   9.727   5.261  0.4117  0.8580  0.2505
  905MOL0     C22104   5.828   9.777   5.185  0.8827 -0.1481 -0.5495
  905MOL0     C22105   6.412  10.115   5.628 -0.6645 -0.1506  0.5143
  905MOL0     C22106   6.537  10.178   5.634 -0.1157  0.1281 -0.6050
  905MOL0     C22107   6.544  10.320   5.661  0.5517  0.3667 -0.6521
  905MOL0     H22108   7.051  10.171   5.513 -1.5112 -3.1554  0.0648
  905MOL0     H22109   7.293  10.259   5.571  0.8204  0.7150  0.3381
  905MOL0     H22110   7.417  10.240   6.023  2.5360 -1.9824  2.6269
  905MOL0     H22111   7.482  10.094   5.941 -0.4396  0.1596 -2.1619
  905MOL0     H22112   7.663  10.237   6.022  2.4079 -1.2410 -1.8088
  905MOL0     H22113   7.590  10.384   5.931 -2.8023 -0.3446 -1.3656
  905MOL0     H22114   7.644  10.269   5.728 -0.8232 -0.0148  0.4145
  905MOL0     H22115   7.693  10.127   5.816  2.5585  0.7606 -1.7585
  905MOL0     H22116   7.889  10.275   5.725 -1.9298  2.5167 -0.8010
  905MOL0     H22117   7.840  10.391   5.853  1.0099 -0.4764  4.1973
  905MOL0     H22118   7.877  10.231   6.022  0.0759 -1.0866 -0.9301
  905MOL0     H22119   7.922  10.102   5.908  5.3495 -1.0608  2.3168
  905MOL0     H22120   8.123  10.239   5.836 -0.4252  1.5536 -0.5157
  905MOL0     H22121   8.090  10.365   5.947 -0.6095 -0.2931 -2.1233
  905MOL0     H22122   8.144  10.073   6.033 -0.8836 -0.7341  1.8566
  905MOL0     H22123   8.106  10.212   6.143 -0.3391  1.6055 -0.8037
  905MOL0     H22124   8.351  10.161   6.127  0.3041 -0.9567 -1.3243
  905MOL0     H22125   8.345  10.165   5.957  1.2339 -1.1823  1.0842
  905MOL0     H22126   8.279  10.430   6.229 -0.9767  0.5935  0.2445
  905MOL0     H22127   8.216  10.763   6.060  1.6718  0.4440 -0.8847
  905MOL0     H22128   8.261  10.698   6.226 -1.4476 -0.6254 -0.4309
  905MOL0     H22129   8.507  10.728   6.170  2.1856  3.8680  2.8665
  905MOL0     H22130   8.466  10.825   6.025  1.0840 -3.1362  0.0205
  905MOL0     H22131   8.406  10.866   6.316 -1.0257  0.6354 -1.1016
  905MOL0     H22132   8.320  10.961   6.203 -0.9458 -1.3513  2.2283
  905MOL0     H22133   8.542  11.081   6.280 -0.7736  1.6457 -2.4086
  905MOL0     H22134   8.520  11.051   6.107 -0.1315 -0.5947 -0.9955
  905MOL0     H22135   8.691  11.219   6.128  0.3923  0.6643  0.9569
  905MOL0     H22136   8.893  11.324   6.116 -0.7165 -0.9736 -2.4874
  905MOL0     H22137   9.281  11.228   5.855  0.8450 -2.7975 -1.4881
  905MOL0     H22138   9.481  11.313   5.737  0.2852  0.5211 -0.2298
  905MOL0     H22139   9.717  11.193   5.664 -1.2163  1.5483 -2.0067
  905MOL0     H22140   9.721  11.372   5.683  2.4041  0.8360 -3.0875
  905MOL0     H22141   9.936  11.324   5.608 -0.0944 -3.1711 -1.7058
  905MOL0     H22142   9.960  11.332   5.785 -0.5814  1.4900 -0.2105
  905MOL0     H22143   9.953  11.086   5.801  0.3254  0.6608 -0.1178
  905MOL0     H22144   9.922  11.079   5.623 -1.9373  2.5205 -0.7791
  905MOL0     H22145  10.174  11.225   5.718  1.4368  2.1331 -3.3829
  905MOL0     H22146  10.135  11.166   5.566  0.5489  1.4781  0.8401
  905MOL0     H22147  10.140  10.927   5.658  0.6837 -0.7870 -0.0959
  905MOL0     H22148  10.176  10.988   5.817  1.9471 -2.1496 -0.1696
  905MOL0     H22149  10.366  11.090   5.614 -0.9016 -0.2730 -0.9753
  905MOL0     H22150  10.380  11.043   5.791 -0.0979 -1.2809  0.5216
  905MOL0     H22151  10.349  10.845   5.567  0.1407 -1.7328  1.1679
  905MOL0     H22152  10.360  10.809   5.744  0.1957 -0.6362  0.7095
  905MOL0     H22153  10.544  10.742   5.648  0.5425 -0.2323 -0.1244
  905MOL0     H22154  10.573  10.898   5.556 -1.5136  1.3279 -0.2862
  905MOL0     H22155   9.701  11.155   6.082 -0.6542 -1.6984  1.2709
  905MOL0     H22156   9.501  11.090   6.182  0.5697  1.4005  0.4258
  905MOL0     H22157   9.104  10.958   6.156  0.6653  0.5203  0.8540
  905MOL0     H22158   8.892  10.833   6.208  1.4230 -0.7752  2.2026
  905MOL0     H22159   7.231  10.111   5.968  1.5110  1.6134  0.5865
  905MOL0     H22160   7.019  10.060   5.920  0.2471 -0.7755 -0.0967
  905MOL0     H22161   6.730   9.888   5.625  0.3361  0.2292  4.4823
  905MOL0     H22162   6.502   9.799   5.619  0.6740  0.3004  3.5213
  905MOL0     H22163   6.261   9.987   5.403 -1.4879  1.1567 -0.3690
  905MOL0     H22164   6.163  10.066   5.520  1.0735  0.8925  0.2498
  905MOL0     H22165   5.991   9.933   5.443  1.8538  1.5195 -2.1286
  905MOL0     H22166   6.053   9.846   5.581 -0.4676  3.5488  0.2930
  905MOL0     H22167   6.185   9.702   5.444  1.9110  0.3372 -2.9594
  905MOL0     H22168   6.142   9.797   5.296  1.1554 -1.7708 -0.1852
  905MOL0     H22169   6.021   9.564   5.361  2.1482 -0.0884  1.4918
  905MOL0     H22170   5.926   9.666   5.462 -1.0572 -0.3728 -1.1163
  905MOL0     H22171   5.746   9.808   5.124 -1.3384 -1.9069  1.3472
  905MOL0     H22172   6.316  10.165   5.621 -1.6640 -2.1639 -1.2729
  905MOL0     H22173   6.449  10.358   5.700  0.7840  1.2917 -0.9526
  905MOL0     H22174   6.619  10.339   5.738  0.4372  0.0297 -0.4563
  905MOL0     H22175   6.567  10.373   5.568 -1.6646 -0.1254 -1.5592
  906MOL0     O22176  10.736   4.489   8.860  0.5932  0.7133 -0.7673
  906MOL0     C22177  10.685   4.380   8.870  0.4572  0.1652  0.2497
  906MOL0     O22178  10.754   4.258   8.875 -0.5456  0.4180 -0.2976
  906MOL0     C22179  10.892   4.259   8.858  0.1115  0.1076  0.1007
  906MOL0     C22180  10.954   4.181   8.948 -1.7547 -0.5126  0.4817
  906MOL0     C22181  11.095   4.174   8.945 -0.7815  0.2402  0.1206
  906MOL0     C22182  11.174   4.250   8.852 -0.3222  0.3741  0.0149
  906MOL0     O22183  11.306   4.227   8.830 -0.3183 -0.0391 -0.0041
  906MOL0     C22184  11.340   4.093   8.786  0.0537 -0.6681 -0.3204
  906MOL0     C22185  11.492   4.091   8.763 -0.1903  0.3411 -0.0394
  906MOL0     C22186  11.528   3.978   8.669  0.5199  0.8800 -0.3039
  906MOL0     C22187  11.677   3.974   8.629 -0.1888 -0.4328  0.2301
  906MOL0     C22188  11.755   3.936   8.750 -1.1717  0.0322 -1.5010
  906MOL0     C22189  11.849   4.048   8.795 -0.2202  0.8703  0.0065
  906MOL0     C22190  11.949   3.988   8.886  0.9487 -0.4387  0.4567
  906MOL0     C22191  12.020   4.096   8.959 -0.5729  0.7342 -0.5136
  906MOL0     N22192  12.168   4.071   8.952  0.4376 -0.5585 -0.1455
  906MOL0     C22193  12.248   4.063   8.842  0.0902 -0.2286  0.2129
  906MOL0     C22194  12.376   4.059   8.894  0.1240 -0.2881  0.8242
  906MOL0     C22195  12.503   4.062   8.814 -0.4282  0.7089  0.0388
  906MOL0     C22196  12.600   3.941   8.826 -0.9048 -0.0649  0.2791
  906MOL0     C22197  12.694   3.955   8.946 -0.8768  0.5059  0.3932
  906MOL0     C22198  12.788   3.832   8.972 -0.0569 -0.1601  0.3632
  906MOL0     O22199  12.861   3.796   8.859 -0.8482 -0.4086  0.9239
  906MOL0     C22200  12.994   3.814   8.860 -0.6605 -0.7201 -0.2842
  906MOL0     C22201  13.051   3.937   8.905  0.5851 -0.4297 -0.8754
  906MOL0     C22202  13.190   3.951   8.901  0.1383  1.3235  0.3110
  906MOL0     C22203  13.269   3.835   8.894  0.5877  0.9883  0.1812
  906MOL0     C22204  13.414   3.843   8.908  0.4601  0.0243  0.6674
  906MOL0     O22205  13.484   3.735   8.877 -0.1783  0.3017 -0.0058
  906MOL0     C22206  13.608   3.761   8.823 -0.2484 -0.3929 -0.3062
  906MOL0     C22207  13.653   3.877   8.750  0.5295  0.1197 -0.6862
  906MOL0     C22208  13.776   3.884   8.701  0.7102  0.4413  0.5548
  906MOL0     C22209  13.867   3.780   8.726  0.4177  0.1394 -0.0428
  906MOL0     O22210  14.001   3.778   8.695  0.5523  1.0601 -0.6731
  906MOL0     C22211  14.060   3.900   8.668 -0.4233 -1.1153 -0.3482
  906MOL0     C22212  14.208   3.888   8.624 -0.6917 -0.0440 -0.3787
  906MOL0     C22213  14.308   3.859   8.735  0.2590  0.4335  0.1004
  906MOL0     C22214  14.459   3.876   8.693  1.2380 -0.3657  0.5277
  906MOL0     C22215  14.510   3.742   8.650  0.3921  0.7923 -0.0024
  906MOL0     C22216  14.657   3.756   8.623 -0.8777 -0.8080 -0.0734
  906MOL0     C22217  14.725   3.637   8.564 -0.6350  0.1185  0.4008
  906MOL0     C22218  14.740   3.535   8.684 -0.5738 -0.0098 -0.6345
  906MOL0    Cl22219  14.824   3.392   8.614 -0.2958 -0.0197 -0.0399
  906MOL0     C22220  13.832   3.677   8.797 -0.2655 -0.2446 -0.8380
  906MOL0     C22221  13.704   3.666   8.848 -0.2182 -0.1323  0.0707
  906MOL0     O22222  13.462   3.950   8.957  0.8024 -0.0894 -0.4244
  906MOL0     C22223  13.211   3.710   8.847 -0.0980  0.3386 -0.7233
  906MOL0     C22224  13.071   3.699   8.826  0.1559  0.1694 -0.3582
  906MOL0     N22225  12.367   4.067   9.032  0.0695  0.1174  0.5590
  906MOL0     N22226  12.241   4.076   9.071  0.0713 -0.0446  0.0042
  906MOL0     C22227  11.101   4.330   8.757  0.5229  0.0838 -0.2360
  906MOL0     C22228  10.964   4.330   8.759  0.7196  0.9251 -0.0331
  906MOL0     C22229  10.532   4.366   8.883 -0.2532 -0.6464 -0.3804
  906MOL0     C22230  10.486   4.247   8.938  0.0488 -0.0331  0.5717
  906MOL0     C22231  10.347   4.220   8.936 -0.3305 -0.1900 -0.2577
  906MOL0     C22232  10.258   4.323   8.908 -0.2428  0.0970 -0.1405
  906MOL0     O22233  10.129   4.300   8.920 -0.1880  0.1105  0.8331
  906MOL0     C22234  10.027   4.400   8.907 -0.1790  0.1604  0.0437
  906MOL0     C22235   9.881   4.345   8.926  0.2548  0.5671  0.0116
  906MOL0     C22236   9.822   4.355   9.076  0.2028  0.1551  0.2111
  906MOL0     C22237   9.880   4.463   9.168  0.9886 -0.1235 -0.5305
  906MOL0     C22238   9.844   4.592   9.122 -0.2179  0.4179 -0.0861
  906MOL0     C22239   9.809   4.707   9.088 -0.0881  0.4690 -0.0392
  906MOL0     C22240  10.306   4.447   8.868 -0.3757 -0.4069 -1.1159
  906MOL0     C22241  10.444   4.470   8.845 -0.6743  0.1402 -0.8618
  906MOL0     C22242  10.484   4.605   8.786 -0.6430 -0.1104 -0.0737
  906MOL0     H22243  10.895   4.130   9.024 -2.4347 -0.5628 -0.0729
  906MOL0     H22244  11.144   4.114   9.020  2.5360  2.1579 -0.3326
  906MOL0     H22245  11.321   4.013   8.858  2.0602 -2.5681 -1.7588
  906MOL0     H22246  11.279   4.074   8.698 -1.2671 -0.4716  0.5254
  906MOL0     H22247  11.542   4.089   8.860 -3.0187  3.3679  1.6940
  906MOL0     H22248  11.528   4.182   8.713  0.4656 -0.7325 -1.5993
  906MOL0     H22249  11.471   3.989   8.576  0.4048  0.4409 -0.2846
  906MOL0     H22250  11.492   3.885   8.714  0.0232  1.5266  0.6898
  906MOL0     H22251  11.691   3.895   8.554  1.0191  1.1489 -1.2773
  906MOL0     H22252  11.706   4.069   8.584  0.4464 -1.1093 -0.8297
  906MOL0     H22253  11.693   3.913   8.837  0.0819 -1.2627 -0.9014
  906MOL0     H22254  11.801   3.841   8.721 -0.4898 -0.1428  0.0564
  906MOL0     H22255  11.902   4.086   8.708  0.1175  1.7044  0.5672
  906MOL0     H22256  11.793   4.126   8.847  0.3113  0.5210  1.1428
  906MOL0     H22257  12.021   3.923   8.836  0.8603  0.7757 -1.3376
  906MOL0     H22258  11.891   3.924   8.954  1.1621 -2.1562 -0.9000
  906MOL0     H22259  12.011   4.198   8.918  0.5037  1.3522  0.7330
  906MOL0     H22260  11.996   4.106   9.065  1.3178 -3.3667  0.4775
  906MOL0     H22261  12.226   4.057   8.736  0.9274  1.9213 -0.1394
  906MOL0     H22262  12.466   4.071   8.712  0.9060  0.9207 -0.4526
  906MOL0     H22263  12.562   4.152   8.832  2.2829 -0.4149 -2.3476
  906MOL0     H22264  12.545   3.852   8.860 -1.2861  0.0508 -0.0303
  906MOL0     H22265  12.650   3.928   8.730 -0.3295  0.9002  0.4357
  906MOL0     H22266  12.628   3.982   9.028  0.0397  2.2693  0.5860
  906MOL0     H22267  12.761   4.039   8.929 -0.4972  0.2913  0.8269
  906MOL0     H22268  12.726   3.746   9.000 -1.9866  1.8474  2.7960
  906MOL0     H22269  12.848   3.848   9.062 -2.0668  1.3054  1.5295
  906MOL0     H22270  12.987   4.016   8.942 -1.9953 -2.5286 -0.5511
  906MOL0     H22271  13.245   4.041   8.926  0.7934  1.4182 -1.3466
  906MOL0     H22272  13.586   3.960   8.732 -0.6743 -0.3207  1.4452
  906MOL0     H22273  13.809   3.952   8.624  0.3748 -0.4262 -0.3835
  906MOL0     H22274  14.009   3.947   8.584 -0.0810 -1.7443 -0.9240
  906MOL0     H22275  14.056   3.973   8.748  2.4622 -2.2593  1.0057
  906MOL0     H22276  14.210   3.807   8.551  1.4844 -0.1071 -0.3187
  906MOL0     H22277  14.234   3.976   8.564  0.0743 -0.5881 -0.8629
  906MOL0     H22278  14.292   3.931   8.815 -0.7576  0.7280 -0.3435
  906MOL0     H22279  14.291   3.760   8.779 -0.5632  0.2831 -0.5245
  906MOL0     H22280  14.523   3.915   8.773 -1.5104  0.1167  2.6693
  906MOL0     H22281  14.458   3.947   8.610 -1.9133  0.2360  0.9358
  906MOL0     H22282  14.463   3.695   8.564  3.4633 -2.4155 -0.1745
  906MOL0     H22283  14.480   3.678   8.734  2.4786  0.6384  0.6985
  906MOL0     H22284  14.666   3.841   8.553 -0.3026 -0.4818  0.3860
  906MOL0     H22285  14.724   3.787   8.704  2.9303 -1.2004 -2.8203
  906MOL0     H22286  14.820   3.664   8.516 -0.0941 -4.3434 -1.4841
  906MOL0     H22287  14.662   3.593   8.486  1.5057  0.9769 -1.9353
  906MOL0     H22288  14.795   3.574   8.771  0.7664 -2.8501 -0.0777
  906MOL0     H22289  14.638   3.511   8.715 -0.0687 -2.0111 -0.3402
  906MOL0     H22290  13.903   3.597   8.816 -0.8088  0.2392  4.6386
  906MOL0     H22291  13.674   3.575   8.899 -0.4287  0.2248  0.5947
  906MOL0     H22292  13.282   3.629   8.836  0.4480  0.8060 -0.6731
  906MOL0     H22293  13.021   3.607   8.800 -4.4747  2.7056 -1.6094
  906MOL0     H22294  11.154   4.394   8.687  2.1060 -1.2281 -0.2844
  906MOL0     H22295  10.914   4.402   8.694  0.2310  1.1681  0.5979
  906MOL0     H22296  10.553   4.168   8.972  0.5998  0.4799  0.6980
  906MOL0     H22297  10.308   4.123   8.964 -1.2785 -0.1137 -1.2738
  906MOL0     H22298  10.030   4.430   8.802 -2.2710 -2.4126 -0.8719
  906MOL0     H22299  10.050   4.485   8.972  0.4042 -0.2637  0.3971
  906MOL0     H22300   9.864   4.247   8.879 -1.2696 -0.2882  2.1561
  906MOL0     H22301   9.821   4.414   8.868 -0.2807 -0.5807 -0.8433
  906MOL0     H22302   9.843   4.258   9.122  2.6298  1.1047  1.3431
  906MOL0     H22303   9.714   4.365   9.064  0.0994 -1.0592  0.0607
  906MOL0     H22304   9.847   4.445   9.271  2.1579  0.4532 -0.0324
  906MOL0     H22305   9.989   4.466   9.161  1.0374 -2.2049 -1.4409
  906MOL0     H22306   9.782   4.809   9.068 -2.4513  0.1813  1.2830
  906MOL0     H22307  10.238   4.520   8.824 -1.0956 -1.1059 -1.1861
  906MOL0     H22308  10.392   4.657   8.759 -0.6694  1.3938  2.5780
  906MOL0     H22309  10.524   4.664   8.869  4.0452 -0.8021 -1.5536
  906MOL0     H22310  10.563   4.591   8.712 -0.3960 -0.5419  0.2612
  907MOL0     O22311   1.046   6.352   9.308 -0.2106 -0.4947  0.1266
  907MOL0     C22312   1.156   6.354   9.360 -0.8956 -0.1440 -0.5166
  907MOL0     O22313   1.202   6.438   9.458  0.5039  0.3322  0.4147
  907MOL0     C22314   1.137   6.555   9.499  0.2843  1.1272  0.4087
  907MOL0     C22315   1.091   6.643   9.404  0.7293 -0.7064  0.7332
  907MOL0     C22316   1.021   6.759   9.439  0.3508  0.8095 -0.1715
  907MOL0     C22317   1.002   6.796   9.574 -1.0501 -0.0815 -0.5410
  907MOL0     O22318   0.942   6.908   9.620  0.4522 -0.1905  0.4840
  907MOL0     C22319   0.933   7.027   9.537 -0.3719  0.0537  0.0010
  907MOL0     C22320   1.067   7.099   9.529  0.0680 -0.0644  0.0986
  907MOL0     C22321   1.109   7.145   9.661 -0.3922 -0.0605 -0.8361
  907MOL0     C22322   1.258   7.194   9.669  0.0031  0.4600 -0.0941
  907MOL0     C22323   1.362   7.086   9.661  0.7761  0.0181 -0.5274
  907MOL0     C22324   1.499   7.124   9.721 -0.2580 -0.5241  0.2149
  907MOL0     C22325   1.600   7.000   9.742  0.1665 -0.5382 -0.0957
  907MOL0     C22326   1.708   7.024   9.852  1.0765  0.3533  0.0785
  907MOL0     N22327   1.805   6.912   9.858  0.1546  0.7216  0.8031
  907MOL0     C22328   1.930   6.914   9.806 -0.0947  0.0027 -0.7878
  907MOL0     C22329   1.981   6.797   9.837  0.5398  0.9926 -0.0295
  907MOL0     C22330   2.115   6.737   9.806 -0.2813 -0.8628 -0.0049
  907MOL0     C22331   2.225   6.847   9.802 -0.6965  0.2146 -0.3165
  907MOL0     C22332   2.362   6.775   9.785 -0.2479 -0.5448  0.0634
  907MOL0     C22333   2.481   6.860   9.799 -0.1013  0.0817 -0.6507
  907MOL0     O22334   2.483   6.960   9.695 -0.4318 -0.3420 -1.0294
  907MOL0     C22335   2.597   7.020   9.650 -0.4928 -0.5850 -0.1302
  907MOL0     C22336   2.580   7.132   9.574 -0.8931 -0.9469  0.0093
  907MOL0     C22337   2.689   7.206   9.533 -0.6936 -0.4600  0.0704
  907MOL0     C22338   2.822   7.166   9.580  0.7793 -0.2043 -0.1139
  907MOL0     C22339   2.938   7.245   9.540 -0.7582 -0.4793  0.1625
  907MOL0     O22340   3.058   7.184   9.577  0.4920  0.0111  0.6636
  907MOL0     C22341   3.178   7.224   9.515  0.9374 -0.3716 -1.0016
  907MOL0     C22342   3.188   7.255   9.377  0.2575 -0.0197  0.2718
  907MOL0     C22343   3.310   7.301   9.324  0.6985  0.7108  0.3749
  907MOL0     C22344   3.415   7.313   9.413  0.7530  0.3018  0.3225
  907MOL0     O22345   3.528   7.376   9.377 -0.8909 -0.3126 -0.5182
  907MOL0     C22346   3.546   7.441   9.251  0.3615 -0.0028  0.6603
  907MOL0     C22347   3.686   7.505   9.248 -0.0361  0.1412  0.1389
  907MOL0     C22348   3.800   7.400   9.252  0.3507  0.3442  0.8063
  907MOL0     C22349   3.943   7.464   9.232 -0.5596 -1.1085 -0.1171
  907MOL0     C22350   4.046   7.351   9.239 -0.8098  0.8872 -0.1491
  907MOL0     C22351   4.195   7.383   9.217 -0.0566  0.1674  0.3272
  907MOL0     C22352   4.281   7.254   9.231 -1.0313  0.1303  0.7649
  907MOL0     C22353   4.272   7.172   9.109 -0.4215 -0.1257 -0.5902
  907MOL0    Cl22354   4.363   7.252   8.976 -0.1654  0.3761 -0.0621
  907MOL0     C22355   3.410   7.280   9.547  0.0411 -0.0987  0.3834
  907MOL0     C22356   3.286   7.242   9.601  0.9936 -0.3229 -0.2476
  907MOL0     O22357   2.928   7.350   9.479 -0.6815 -0.5435 -0.6009
  907MOL0     C22358   2.843   7.048   9.655  0.1198  0.1680 -0.0168
  907MOL0     C22359   2.727   6.982   9.688 -0.0161  0.8964  0.7226
  907MOL0     N22360   1.889   6.728   9.915  0.2317 -0.6972  0.4289
  907MOL0     N22361   1.773   6.796   9.926 -0.4168 -0.1522 -0.7945
  907MOL0     C22362   1.061   6.710   9.674 -0.5210 -0.1611  0.4355
  907MOL0     C22363   1.128   6.590   9.631  0.8086  0.9984 -0.6950
  907MOL0     C22364   1.262   6.257   9.319  0.1127  0.6413  0.2870
  907MOL0     C22365   1.370   6.235   9.413 -0.4714 -0.5583 -0.1160
  907MOL0     C22366   1.474   6.154   9.385 -0.2477  0.1021 -0.3680
  907MOL0     C22367   1.484   6.075   9.272 -0.5161  0.9538  0.2798
  907MOL0     O22368   1.588   5.983   9.259 -0.0070  0.3198 -0.3851
  907MOL0     C22369   1.565   5.860   9.201 -0.7963  0.2363  0.3017
  907MOL0     C22370   1.706   5.806   9.199 -0.0058 -0.2211  0.3218
  907MOL0     C22371   1.698   5.650   9.165 -0.0938  0.0024 -0.4307
  907MOL0     C22372   1.662   5.624   9.017  0.1953  0.4328  0.3483
  907MOL0     C22373   1.517   5.637   9.006  0.3109 -0.2939  0.0911
  907MOL0     C22374   1.397   5.640   8.997  0.5659  0.3190 -0.4967
  907MOL0     C22375   1.375   6.081   9.185  0.9761 -0.3416  0.1709
  907MOL0     C22376   1.267   6.173   9.200  0.5291 -1.0488 -0.4259
  907MOL0     C22377   1.170   6.196   9.089 -0.0720 -0.7413  0.1569
  907MOL0     H22378   1.102   6.628   9.297  3.2214  1.9622  0.4858
  907MOL0     H22379   0.986   6.831   9.364  1.5926  0.7462 -0.8418
  907MOL0     H22380   0.900   6.997   9.437 -2.5991 -3.0243  1.4955
  907MOL0     H22381   0.853   7.091   9.574  0.1961 -0.1087  1.6120
  907MOL0     H22382   1.052   7.187   9.466 -1.7617  0.3432  1.0425
  907MOL0     H22383   1.138   7.029   9.484  0.3510  0.4337 -0.2373
  907MOL0     H22384   1.096   7.080   9.747 -3.3966  1.9397  0.4049
  907MOL0     H22385   1.050   7.233   9.689 -1.7774 -1.2151 -0.0190
  907MOL0     H22386   1.273   7.254   9.579 -0.6994 -3.8533 -3.3615
  907MOL0     H22387   1.285   7.257   9.755  2.0229 -0.0852 -0.2708
  907MOL0     H22388   1.324   7.003   9.722 -0.0019 -0.2986 -1.4267
  907MOL0     H22389   1.370   7.055   9.557 -0.1396 -0.1326 -0.5627
  907MOL0     H22390   1.552   7.191   9.652  1.0274 -0.3302  1.3585
  907MOL0     H22391   1.483   7.171   9.819 -0.3626 -0.3122  0.0989
  907MOL0     H22392   1.652   6.985   9.647  1.0173  1.8726 -0.0813
  907MOL0     H22393   1.540   6.910   9.756  0.1600 -0.3632  1.0609
  907MOL0     H22394   1.757   7.121   9.841  4.1144 -1.2861 -1.9521
  907MOL0     H22395   1.656   7.028   9.949  1.3582 -0.0772  0.2487
  907MOL0     H22396   1.979   6.987   9.743 -0.1158  0.2341 -0.5400
  907MOL0     H22397   2.134   6.663   9.885 -1.8701 -1.0755  0.2085
  907MOL0     H22398   2.110   6.692   9.706  0.6004  0.7182 -0.7927
  907MOL0     H22399   2.210   6.916   9.718 -1.2721 -1.8133 -1.9366
  907MOL0     H22400   2.237   6.899   9.898 -0.0782 -3.1255  1.5503
  907MOL0     H22401   2.365   6.723   9.689  0.7706 -2.0242  0.8670
  907MOL0     H22402   2.366   6.691   9.855  0.0829 -0.7226 -0.1692
  907MOL0     H22403   2.558   6.782   9.789 -0.4283 -0.3420  0.0365
  907MOL0     H22404   2.476   6.897   9.902 -2.9954 -0.4679 -0.5209
  907MOL0     H22405   2.479   7.165   9.552 -0.9419 -0.8122  0.4317
  907MOL0     H22406   2.681   7.305   9.488  3.8375 -0.0273 -0.3214
  907MOL0     H22407   3.108   7.245   9.305  1.9073 -1.1680 -1.4944
  907MOL0     H22408   3.322   7.330   9.220 -1.4072  1.3360  0.2600
  907MOL0     H22409   3.537   7.377   9.162 -2.0923  0.5937  0.4000
  907MOL0     H22410   3.462   7.510   9.242  0.4628  0.2986  1.8609
  907MOL0     H22411   3.701   7.561   9.155  0.0174 -1.3658 -0.8033
  907MOL0     H22412   3.699   7.571   9.334 -1.3198  1.4817 -0.6392
  907MOL0     H22413   3.802   7.364   9.356 -0.0885  0.7422  0.9584
  907MOL0     H22414   3.779   7.316   9.186  1.3570  1.7173 -1.3500
  907MOL0     H22415   3.973   7.530   9.314 -1.9428  1.1460 -1.3371
  907MOL0     H22416   3.937   7.518   9.137 -0.8445  1.1622  1.1189
  907MOL0     H22417   4.010   7.278   9.167  0.2357 -0.9405  1.1120
  907MOL0     H22418   4.041   7.302   9.337  2.3181  1.0492  0.1759
  907MOL0     H22419   4.208   7.427   9.118  0.1580  1.8941  1.0905
  907MOL0     H22420   4.228   7.459   9.288  1.2011 -1.4880  1.6068
  907MOL0     H22421   4.249   7.193   9.316  1.0552 -0.8685  0.8714
  907MOL0     H22422   4.383   7.286   9.254 -0.0809 -1.3471 -1.0884
  907MOL0     H22423   4.318   7.076   9.134  1.3360  0.6357 -0.7715
  907MOL0     H22424   4.165   7.164   9.088 -0.6594  1.3956 -0.1130
  907MOL0     H22425   3.496   7.291   9.611 -0.7998  0.9706  1.3771
  907MOL0     H22426   3.267   7.219   9.705 -1.5594  2.4333  0.0202
  907MOL0     H22427   2.941   7.022   9.695 -0.1463 -2.1810 -0.7423
  907MOL0     H22428   2.749   6.911   9.767  1.1892  1.2435  0.7169
  907MOL0     H22429   1.047   6.728   9.780  0.2927  1.1193  0.3502
  907MOL0     H22430   1.172   6.527   9.708 -1.3892  0.4213  0.1747
  907MOL0     H22431   1.370   6.273   9.515  1.6734 -2.1635  0.5581
  907MOL0     H22432   1.546   6.149   9.466 -0.2336  1.0406 -0.3079
  907MOL0     H22433   1.542   5.877   9.095  1.2721  1.4511 -0.0127
  907MOL0     H22434   1.480   5.804   9.240 -1.2026  0.1691 -0.6621
  907MOL0     H22435   1.756   5.809   9.296 -0.0970 -1.0635  0.4080
  907MOL0     H22436   1.779   5.857   9.136 -0.4903  1.5504  1.1416
  907MOL0     H22437   1.628   5.600   9.232 -1.5565 -0.3410 -2.1182
  907MOL0     H22438   1.791   5.599   9.190 -1.6588 -2.5070  0.6514
  907MOL0     H22439   1.711   5.692   8.946  0.2449  0.4107  0.3605
  907MOL0     H22440   1.679   5.525   8.973 -1.8508 -1.1408  2.8511
  907MOL0     H22441   1.290   5.654   8.995  0.9019  3.5205 -1.1753
  907MOL0     H22442   1.386   6.018   9.097  1.2835  0.4972 -0.3924
  907MOL0     H22443   1.195   6.142   8.998  1.9266 -0.2680  0.3825
  907MOL0     H22444   1.072   6.160   9.124 -0.2186  1.3956  2.2654
  907MOL0     H22445   1.157   6.302   9.064  1.8228 -0.9575 -1.9941
  908MOL0     O22446  10.009   7.298   2.571 -1.0741 -0.5438  0.1554
  908MOL0     C22447  10.066   7.288   2.461  0.4438  0.1686 -0.4447
  908MOL0     O22448  10.199   7.266   2.448 -0.8154 -0.3585 -0.0678
  908MOL0     C22449  10.297   7.246   2.556 -0.6957 -0.6787  0.5645
  908MOL0     C22450  10.305   7.312   2.677  0.6449 -1.3023  0.0478
  908MOL0     C22451  10.410   7.291   2.766  0.0978 -0.4448 -0.3684
  908MOL0     C22452  10.515   7.201   2.742  0.7705 -0.0588  0.9824
  908MOL0     O22453  10.622   7.178   2.822  0.4608 -0.0172  1.4473
  908MOL0     C22454  10.629   7.243   2.950  0.8325 -0.0685 -0.1789
  908MOL0     C22455  10.743   7.181   3.024 -0.9815  0.0726 -0.2541
  908MOL0     C22456  10.743   7.232   3.168  0.7534  0.7596  0.2567
  908MOL0     C22457  10.829   7.127   3.246 -0.6261 -0.4080  0.1878
  908MOL0     C22458  10.854   7.172   3.390 -0.0098 -0.2485  0.2250
  908MOL0     C22459  10.979   7.266   3.408 -0.1263  0.4369 -0.9149
  908MOL0     C22460  11.107   7.193   3.391 -0.4397  0.6200 -0.4090
  908MOL0     C22461  11.160   7.147   3.536 -0.2345 -0.0418  0.2003
  908MOL0     N22462  11.288   7.072   3.533  0.4081  0.3326  0.2678
  908MOL0     C22463  11.319   6.982   3.635 -0.3236  0.1625 -0.2349
  908MOL0     C22464  11.451   6.992   3.648  0.5920  0.1589  0.2340
  908MOL0     C22465  11.523   6.898   3.743  1.1136 -0.7207  0.5505
  908MOL0     C22466  11.475   6.903   3.891 -0.3386  0.3728 -0.2709
  908MOL0     C22467  11.577   6.836   3.985 -0.4957  0.3179  0.1194
  908MOL0     C22468  11.585   6.692   3.940  0.1966 -1.0295 -0.0930
  908MOL0     O22469  11.640   6.607   4.041 -0.0269 -0.5237 -0.0271
  908MOL0     C22470  11.771   6.614   4.061 -0.1568 -0.4194 -1.2572
  908MOL0     C22471  11.817   6.528   4.163  0.3583 -0.1804 -0.4855
  908MOL0     C22472  11.949   6.528   4.215 -0.0774  0.3836  0.1068
  908MOL0     C22473  12.041   6.608   4.153  0.3581  0.7681 -0.2845
  908MOL0     C22474  12.181   6.623   4.195  1.4297  0.2222  0.4259
  908MOL0     O22475  12.280   6.679   4.113 -0.3086  0.7464 -0.3564
  908MOL0     C22476  12.413   6.683   4.155  0.8575  0.6614  0.3513
  908MOL0     C22477  12.456   6.792   4.225  0.0094 -0.5010 -0.4144
  908MOL0     C22478  12.588   6.801   4.272 -0.0500  0.3259  0.0341
  908MOL0     C22479  12.677   6.696   4.236  0.3269 -0.0634 -0.1944
  908MOL0     O22480  12.807   6.701   4.284  0.6633 -0.4790 -0.5795
  908MOL0     C22481  12.911   6.659   4.203  1.0614  0.0693 -0.2978
  908MOL0     C22482  13.038   6.713   4.268 -0.3315 -0.0401 -0.0324
  908MOL0     C22483  13.155   6.718   4.171 -0.7710 -0.7484 -0.9857
  908MOL0     C22484  13.282   6.770   4.247  0.2286  0.6478 -0.2238
  908MOL0     C22485  13.397   6.717   4.170  0.0333  0.8264 -0.3519
  908MOL0     C22486  13.521   6.783   4.239  0.7936  0.1034  0.2310
  908MOL0     C22487  13.646   6.725   4.173  0.7513  0.7764  0.1054
  908MOL0     C22488  13.771   6.794   4.219  0.3285 -0.4610 -0.2636
  908MOL0    Cl22489  13.823   6.747   4.383 -0.0138 -0.0795 -0.2361
  908MOL0     C22490  12.633   6.587   4.161 -0.2964  0.6340 -0.2342
  908MOL0     C22491  12.501   6.582   4.118  0.6052  0.5720 -0.7464
  908MOL0     O22492  12.199   6.587   4.307 -0.1750 -0.0723  0.0282
  908MOL0     C22493  11.991   6.682   4.043  0.3448  0.2701 -0.0948
  908MOL0     C22494  11.857   6.700   3.998  0.5451  0.9445 -0.0931
  908MOL0     N22495  11.505   7.073   3.546 -0.0257 -0.2258 -0.8553
  908MOL0     N22496  11.402   7.124   3.489 -0.6159 -0.3149  0.5454
  908MOL0     C22497  10.506   7.131   2.624  0.5034 -0.4095  0.1670
  908MOL0     C22498  10.403   7.152   2.535  0.4586 -1.2133  0.2683
  908MOL0     C22499   9.966   7.287   2.344  0.0220  0.0359  0.7955
  908MOL0     C22500   9.859   7.376   2.339 -0.0684 -0.3001 -0.7008
  908MOL0     C22501   9.786   7.392   2.227 -0.8568  0.2470 -0.2055
  908MOL0     C22502   9.788   7.301   2.122  0.9731 -0.4500  0.6379
  908MOL0     O22503   9.701   7.305   2.014  0.0475  0.0099 -0.3137
  908MOL0     C22504   9.570   7.371   2.027  0.7673  0.4475  0.9062
  908MOL0     C22505   9.565   7.508   1.973  0.2785 -1.0300  0.7715
  908MOL0     C22506   9.421   7.541   1.929 -0.2797 -0.1705  0.1440
  908MOL0     C22507   9.417   7.663   1.844 -0.2761  0.0007  0.1822
  908MOL0     C22508   9.281   7.695   1.819  0.3412  0.5368  0.3798
  908MOL0     C22509   9.167   7.730   1.780  0.1129 -0.8003 -0.7994
  908MOL0     C22510   9.889   7.198   2.125  0.0770 -0.9425  0.1125
  908MOL0     C22511   9.976   7.195   2.231  0.2002 -0.8643  0.3056
  908MOL0     C22512  10.091   7.093   2.225  0.2643  0.4454  0.0889
  908MOL0     H22513  10.230   7.391   2.682  1.6708 -0.2331 -0.6074
  908MOL0     H22514  10.413   7.370   2.840  0.2539  0.0030 -0.8516
  908MOL0     H22515  10.648   7.350   2.940  1.0999 -0.1431 -0.4493
  908MOL0     H22516  10.536   7.222   3.005  0.8517  3.3769  1.4096
  908MOL0     H22517  10.839   7.209   2.978 -0.4363  3.6814  2.6544
  908MOL0     H22518  10.735   7.072   3.025 -0.8310  0.0598  0.7464
  908MOL0     H22519  10.641   7.239   3.208  1.9089  1.1693  3.4509
  908MOL0     H22520  10.776   7.335   3.187 -0.3408  0.8925  1.5939
  908MOL0     H22521  10.779   7.030   3.248  0.1008 -0.7878  1.4532
  908MOL0     H22522  10.928   7.121   3.200 -0.4464  2.1069  0.1285
  908MOL0     H22523  10.765   7.225   3.424  0.2942  1.5379 -1.6407
  908MOL0     H22524  10.877   7.081   3.446 -0.9933 -1.7396 -1.6592
  908MOL0     H22525  10.980   7.350   3.338  1.5961  1.4816  0.2779
  908MOL0     H22526  10.974   7.310   3.508  1.5475  1.3929 -1.2198
  908MOL0     H22527  11.182   7.252   3.337 -0.2396  0.1436 -0.6573
  908MOL0     H22528  11.089   7.102   3.333 -0.0118  1.2451 -1.5674
  908MOL0     H22529  11.178   7.238   3.595  0.0643  0.3835 -0.5349
  908MOL0     H22530  11.086   7.087   3.590  0.7630 -0.1655  1.4745
  908MOL0     H22531  11.254   6.932   3.706 -0.0889  0.6371  0.3182
  908MOL0     H22532  11.491   6.798   3.713 -1.3811 -0.9646  3.5835
  908MOL0     H22533  11.630   6.919   3.732  1.4266 -0.4113  3.4038
  908MOL0     H22534  11.471   7.003   3.937 -0.1077 -0.3909  1.4703
  908MOL0     H22535  11.372   6.869   3.907 -0.9655  1.8180 -0.9970
  908MOL0     H22536  11.546   6.836   4.090  2.1056 -1.1376  0.9707
  908MOL0     H22537  11.669   6.894   3.978 -0.7097  0.6421 -0.0842
  908MOL0     H22538  11.647   6.692   3.851 -1.5119  2.0164 -1.4217
  908MOL0     H22539  11.484   6.656   3.917 -0.0678  1.0609 -2.6739
  908MOL0     H22540  11.738   6.466   4.205 -1.7524  1.6248 -1.5317
  908MOL0     H22541  11.978   6.473   4.303 -0.4086  0.3658  0.2091
  908MOL0     H22542  12.392   6.874   4.255  1.9119  1.1813 -0.7661
  908MOL0     H22543  12.634   6.886   4.322  0.4009  0.5166 -0.6915
  908MOL0     H22544  12.912   6.550   4.200 -2.0471 -0.0536 -0.4755
  908MOL0     H22545  12.899   6.705   4.104  1.4078  0.8774  0.0242
  908MOL0     H22546  13.017   6.816   4.299 -1.4569  0.3406 -1.8471
  908MOL0     H22547  13.068   6.643   4.346  2.7599 -1.7680 -2.5147
  908MOL0     H22548  13.175   6.613   4.146  3.8555  0.3832 -3.0900
  908MOL0     H22549  13.141   6.773   4.077 -1.4389 -0.7729 -0.9065
  908MOL0     H22550  13.285   6.723   4.345  1.2421 -1.8799 -1.3987
  908MOL0     H22551  13.269   6.879   4.249 -1.1727  0.4973 -0.0144
  908MOL0     H22552  13.384   6.750   4.067  0.6930 -1.3954 -1.1931
  908MOL0     H22553  13.396   6.608   4.176  0.0835  0.5824 -3.2723
  908MOL0     H22554  13.517   6.892   4.249  1.0893  0.5162 -3.0454
  908MOL0     H22555  13.522   6.738   4.339 -0.8158  1.6128  0.9867
  908MOL0     H22556  13.633   6.731   4.065 -1.4434  1.7813  0.3817
  908MOL0     H22557  13.644   6.619   4.201 -2.7275  0.5904 -0.5150
  908MOL0     H22558  13.852   6.772   4.148 -0.1758  3.8750 -2.5109
  908MOL0     H22559  13.759   6.902   4.224  0.1331 -0.4739 -0.4244
  908MOL0     H22560  12.692   6.500   4.131  0.6761  0.7617  1.2248
  908MOL0     H22561  12.459   6.502   4.057  0.4807  0.4658 -0.5223
  908MOL0     H22562  12.050   6.760   3.997  1.2802 -0.3369  0.0570
  908MOL0     H22563  11.821   6.760   3.915 -0.8749 -0.8464 -0.8381
  908MOL0     H22564  10.586   7.058   2.610  1.8503  0.9874  0.3038
  908MOL0     H22565  10.395   7.100   2.440  2.7111  1.4022 -1.5138
  908MOL0     H22566   9.838   7.444   2.421 -0.2054 -0.1395 -0.8693
  908MOL0     H22567   9.711   7.471   2.229  0.3161  1.3975 -0.2147
  908MOL0     H22568   9.541   7.374   2.132  3.7459 -1.3256  1.9219
  908MOL0     H22569   9.502   7.304   1.974  1.1430 -0.3108  1.3641
  908MOL0     H22570   9.629   7.518   1.885 -0.7857 -0.5751  0.0279
  908MOL0     H22571   9.606   7.583   2.040  1.2774  3.2831 -4.0697
  908MOL0     H22572   9.354   7.548   2.016  1.0801  1.5566  1.1064
  908MOL0     H22573   9.379   7.462   1.866  0.6142 -0.3761 -0.2027
  908MOL0     H22574   9.457   7.749   1.899  0.0500  0.8012 -1.2736
  908MOL0     H22575   9.471   7.649   1.751 -0.2806  1.5848 -0.0831
  908MOL0     H22576   9.066   7.755   1.754 -1.2820 -2.5552  2.3824
  908MOL0     H22577   9.894   7.121   2.048 -2.9757 -2.0306  0.8649
  908MOL0     H22578  10.044   6.996   2.208  2.2096 -0.4930 -0.1398
  908MOL0     H22579  10.149   7.119   2.136 -1.1681  0.2734 -0.9203
  908MOL0     H22580  10.154   7.090   2.315  1.3450 -0.5142 -0.6771
  909MOL0     O22581   8.070   8.543   3.275 -0.4286  0.4627 -0.1437
  909MOL0     C22582   8.038   8.636   3.352  0.5676 -0.2909  0.6651
  909MOL0     O22583   8.116   8.740   3.404  0.0037  0.2887 -0.6583
  909MOL0     C22584   8.251   8.740   3.410 -0.3240  0.1256  0.2139
  909MOL0     C22585   8.314   8.814   3.516  0.6534 -0.0144  1.1039
  909MOL0     C22586   8.451   8.827   3.518  0.7387 -0.6055  0.0723
  909MOL0     C22587   8.531   8.758   3.423 -1.0106 -0.4705 -0.1261
  909MOL0     O22588   8.665   8.782   3.444 -0.5397  0.1389 -0.4061
  909MOL0     C22589   8.762   8.690   3.386 -1.0349 -0.3969 -0.7511
  909MOL0     C22590   8.890   8.742   3.432  0.7477 -0.4205  0.3042
  909MOL0     C22591   8.998   8.641   3.403 -0.8790 -0.7357 -0.1440
  909MOL0     C22592   9.132   8.690   3.442 -0.0449  0.0002  0.1458
  909MOL0     C22593   9.237   8.578   3.435  0.3383 -0.2232 -0.5035
  909MOL0     C22594   9.288   8.577   3.289  0.4853  0.3978  0.1617
  909MOL0     C22595   9.400   8.474   3.268 -0.7519 -0.1781  0.2227
  909MOL0     C22596   9.429   8.455   3.120 -0.0582 -0.0496  0.3186
  909MOL0     N22597   9.540   8.363   3.098 -0.1178 -0.2556 -0.0734
  909MOL0     C22598   9.662   8.409   3.053 -0.7822 -0.1329  0.0699
  909MOL0     C22599   9.738   8.294   3.055 -1.2218 -0.4120  0.2071
  909MOL0     C22600   9.885   8.293   3.030  0.3606  0.5564 -0.5506
  909MOL0     C22601   9.952   8.373   3.149 -0.0976  0.1292  0.6644
  909MOL0     C22602  10.092   8.311   3.174  1.1181  0.1665  0.0173
  909MOL0     C22603  10.100   8.170   3.252  0.8137  0.6584  0.4781
  909MOL0     O22604  10.205   8.081   3.218 -0.1138  0.3618 -0.0253
  909MOL0     C22605  10.330   8.091   3.276  0.3934  0.0842 -0.2933
  909MOL0     C22606  10.352   8.197   3.362 -0.1073  0.0807  0.2840
  909MOL0     C22607  10.478   8.198   3.424 -0.6111  0.4273  0.4246
  909MOL0     C22608  10.569   8.094   3.417  0.8590  0.8285  0.1420
  909MOL0     C22609  10.701   8.094   3.488 -0.6855 -0.3238 -0.8316
  909MOL0     O22610  10.741   8.207   3.561 -0.2734 -0.3063 -0.1216
  909MOL0     C22611  10.871   8.221   3.601 -0.2131 -0.6611 -0.1754
  909MOL0     C22612  10.945   8.121   3.679  0.1295  0.4110  0.0953
  909MOL0     C22613  11.081   8.138   3.717  0.1013 -0.5605 -1.0725
  909MOL0     C22614  11.155   8.250   3.666  0.0044  0.5315  0.0011
  909MOL0     O22615  11.284   8.275   3.706  0.1850  0.7306  0.1751
  909MOL0     C22616  11.379   8.169   3.684  0.1276 -0.2639  0.5822
  909MOL0     C22617  11.498   8.186   3.771  0.4618 -0.3391 -0.5803
  909MOL0     C22618  11.461   8.164   3.919 -0.7403 -0.7373 -0.0279
  909MOL0     C22619  11.568   8.077   3.992 -0.2661 -0.8431 -0.5926
  909MOL0     C22620  11.693   8.149   4.046  0.0103  0.6771  1.4533
  909MOL0     C22621  11.774   8.050   4.134  0.6486 -0.1139  0.5451
  909MOL0     C22622  11.809   8.106   4.270 -0.2163  0.6434 -0.0666
  909MOL0     C22623  11.889   8.003   4.339 -0.5479  0.1864  0.8628
  909MOL0    Cl22624  11.984   8.079   4.476 -0.0096 -0.2159 -0.1175
  909MOL0     C22625  11.090   8.345   3.583 -0.2777 -0.3117 -0.7064
  909MOL0     C22626  10.945   8.329   3.559 -0.6769 -0.0963 -0.1133
  909MOL0     O22627  10.783   8.007   3.448  0.0934 -0.4243 -0.5685
  909MOL0     C22628  10.539   7.992   3.325 -0.7733 -0.6761 -0.2049
  909MOL0     C22629  10.427   7.995   3.250  0.3188 -0.9142 -0.3377
  909MOL0     N22630   9.673   8.186   3.108 -0.1983  0.2060  0.1401
  909MOL0     N22631   9.556   8.230   3.139  0.4124 -0.5232  0.3364
  909MOL0     C22632   8.475   8.690   3.320 -0.3117 -0.5269 -0.9520
  909MOL0     C22633   8.338   8.683   3.306 -0.7792  0.9778 -0.6730
  909MOL0     C22634   7.891   8.642   3.391 -0.5354 -0.1017  0.1206
  909MOL0     C22635   7.827   8.766   3.403  0.2067 -0.1826  0.6517
  909MOL0     C22636   7.690   8.774   3.433  0.3690  0.7102 -0.2779
  909MOL0     C22637   7.618   8.666   3.475  0.2562 -1.1381  0.6611
  909MOL0     O22638   7.493   8.699   3.524 -0.1791  0.0563  0.2615
  909MOL0     C22639   7.414   8.602   3.590  0.0024  0.1623  0.4184
  909MOL0     C22640   7.334   8.513   3.485  0.2756  0.1933  0.4864
  909MOL0     C22641   7.198   8.573   3.439 -0.0182  0.0371 -0.3817
  909MOL0     C22642   7.225   8.669   3.319  0.1543  0.0206  0.6896
  909MOL0     C22643   7.131   8.780   3.314  0.4540 -0.6084 -0.0229
  909MOL0     C22644   7.043   8.860   3.301 -0.2019  0.5465 -0.5256
  909MOL0     C22645   7.674   8.544   3.460  0.2738 -0.1137 -0.3407
  909MOL0     C22646   7.809   8.531   3.417 -0.9141  0.1546  0.0961
  909MOL0     C22647   7.867   8.389   3.430 -0.1210  0.0517  0.6104
  909MOL0     H22648   8.256   8.860   3.594 -0.9926 -0.4129  0.1601
  909MOL0     H22649   8.501   8.873   3.603  1.1098  0.1438 -0.5369
  909MOL0     H22650   8.750   8.585   3.416 -1.2514 -0.5509 -1.3727
  909MOL0     H22651   8.765   8.700   3.278 -0.2017  0.7435 -0.6382
  909MOL0     H22652   8.890   8.768   3.538 -0.8473 -1.9217  0.7104
  909MOL0     H22653   8.905   8.835   3.377  0.8166 -0.2735  0.5710
  909MOL0     H22654   8.989   8.641   3.294 -0.7708  5.0913 -0.4306
  909MOL0     H22655   8.974   8.543   3.445  0.3909 -1.7309 -1.6355
  909MOL0     H22656   9.156   8.772   3.374  1.0473 -0.7544 -0.4115
  909MOL0     H22657   9.117   8.736   3.541 -3.2534  3.6334 -1.7403
  909MOL0     H22658   9.318   8.604   3.504  1.8773  3.3925 -3.2925
  909MOL0     H22659   9.195   8.485   3.474  2.4423 -0.0611  2.5500
  909MOL0     H22660   9.202   8.574   3.221  0.3386  0.0833  0.3581
  909MOL0     H22661   9.332   8.674   3.264  1.1285  0.5305  1.6636
  909MOL0     H22662   9.358   8.377   3.296 -0.4559  0.2994  2.4299
  909MOL0     H22663   9.493   8.491   3.323 -1.1871  0.9728  0.6466
  909MOL0     H22664   9.346   8.403   3.072  0.4094 -3.9666  3.1698
  909MOL0     H22665   9.438   8.556   3.080  0.1559  0.6179  1.9682
  909MOL0     H22666   9.691   8.509   3.022 -3.4842  0.9645  0.7560
  909MOL0     H22667   9.917   8.188   3.027  1.2951  0.8481 -2.3151
  909MOL0     H22668   9.915   8.331   2.932  1.5254  0.9448 -0.0678
  909MOL0     H22669   9.950   8.477   3.115  0.0009  0.1565  0.7411
  909MOL0     H22670   9.897   8.365   3.243 -2.0593 -3.2932 -0.5910
  909MOL0     H22671  10.156   8.389   3.215 -0.1017  2.4616 -2.1702
  909MOL0     H22672  10.130   8.299   3.072  0.5302 -0.6829 -0.1176
  909MOL0     H22673  10.012   8.109   3.231  1.9558 -1.6310  1.8862
  909MOL0     H22674  10.089   8.182   3.361 -3.3376 -0.2363  0.3120
  909MOL0     H22675  10.293   8.287   3.375  0.4795  0.6959 -1.1416
  909MOL0     H22676  10.504   8.283   3.487 -0.3527  1.5506 -1.1571
  909MOL0     H22677  10.889   8.035   3.714  1.6370  0.0484  1.7909
  909MOL0     H22678  11.129   8.067   3.784 -0.7454  0.9200  1.2012
  909MOL0     H22679  11.324   8.076   3.704  2.9386 -2.8018 -2.2913
  909MOL0     H22680  11.400   8.156   3.578  1.0807 -0.9799  0.8493
  909MOL0     H22681  11.583   8.122   3.745 -1.5971 -2.9100 -1.3481
  909MOL0     H22682  11.542   8.287   3.766 -1.0696  0.4035  0.1911
  909MOL0     H22683  11.458   8.259   3.974  1.2174 -0.1117 -0.9121
  909MOL0     H22684  11.364   8.116   3.932 -0.5524 -0.6783  1.7922
  909MOL0     H22685  11.606   7.999   3.926  0.3367  0.5798 -1.9909
  909MOL0     H22686  11.525   8.032   4.082  0.0914  1.0352  0.5879
  909MOL0     H22687  11.665   8.233   4.110 -2.3544  2.4209 -1.5930
  909MOL0     H22688  11.742   8.195   3.960 -0.6020  1.2377  1.3993
  909MOL0     H22689  11.727   7.951   4.133  2.7883 -1.2120 -1.2610
  909MOL0     H22690  11.868   8.030   4.081  0.7047  0.1201  0.5565
  909MOL0     H22691  11.719   8.120   4.330 -0.2201 -2.4946  0.8170
  909MOL0     H22692  11.847   8.208   4.263 -1.3701  1.1694  0.9967
  909MOL0     H22693  11.818   7.924   4.366  0.4408 -0.9797  0.1901
  909MOL0     H22694  11.958   7.959   4.266 -0.1144  1.3201  0.5612
  909MOL0     H22695  11.147   8.430   3.548 -1.3656  2.6039  3.6995
  909MOL0     H22696  10.890   8.394   3.492 -0.1271  1.8055  1.1809
  909MOL0     H22697  10.609   7.909   3.321 -0.9106 -0.8972  1.2591
  909MOL0     H22698  10.404   7.914   3.182 -1.2364 -0.1115 -0.8275
  909MOL0     H22699   8.535   8.636   3.247 -0.7338 -0.5090 -1.3181
  909MOL0     H22700   8.293   8.630   3.222  1.1500 -2.6430  0.3701
  909MOL0     H22701   7.884   8.858   3.394  1.5030 -0.2977  5.2674
  909MOL0     H22702   7.639   8.870   3.436 -2.7021 -0.7530 -0.9297
  909MOL0     H22703   7.346   8.659   3.654 -1.2258  0.6956 -1.2628
  909MOL0     H22704   7.480   8.542   3.652  1.8256  0.4538 -1.1501
  909MOL0     H22705   7.321   8.417   3.536 -1.5501 -1.4138 -2.6986
  909MOL0     H22706   7.397   8.500   3.397 -0.7616  1.0011 -0.4130
  909MOL0     H22707   7.156   8.625   3.525 -2.5023 -1.6420 -0.4662
  909MOL0     H22708   7.124   8.500   3.406 -1.3369  1.2961 -0.2992
  909MOL0     H22709   7.323   8.712   3.338  0.2381 -0.0700  0.4652
  909MOL0     H22710   7.225   8.608   3.228  0.2052  1.1763 -0.0967
  909MOL0     H22711   6.962   8.928   3.285  0.1670  0.9629 -0.6577
  909MOL0     H22712   7.611   8.455   3.471  0.0041  0.3354  2.9661
  909MOL0     H22713   7.922   8.376   3.524  0.7146 -2.4787 -0.1481
  909MOL0     H22714   7.790   8.312   3.418 -2.1719  2.2339 -1.0293
  909MOL0     H22715   7.943   8.359   3.358 -0.7581 -2.9542  1.0253
  910MOL0     O22716   6.239   7.064   4.410  0.7903  0.1130  1.6523
  910MOL0     C22717   6.227   6.941   4.406 -0.2774 -0.3626  0.0326
  910MOL0     O22718   6.326   6.848   4.388 -0.0817 -0.8140 -0.3349
  910MOL0     C22719   6.446   6.899   4.368 -0.6413 -0.2653 -1.1117
  910MOL0     C22720   6.552   6.842   4.434 -0.8036 -0.2211  0.1742
  910MOL0     C22721   6.693   6.864   4.406  0.4693 -0.8434 -0.1514
  910MOL0     C22722   6.729   6.970   4.319  0.3224 -0.1895  0.0673
  910MOL0     O22723   6.864   7.012   4.302  0.2229 -0.8062  0.0722
  910MOL0     C22724   6.898   7.129   4.229 -0.3220 -0.1598  0.5528
  910MOL0     C22725   7.037   7.124   4.190  0.1814 -0.3089 -0.5168
  910MOL0     C22726   7.136   7.129   4.311  0.3389  0.4978  0.7626
  910MOL0     C22727   7.119   7.251   4.392  0.7722 -0.2186  0.0984
  910MOL0     C22728   7.224   7.280   4.495  0.4165  0.4046 -0.1033
  910MOL0     C22729   7.363   7.311   4.421 -0.5950 -0.0108 -0.9521
  910MOL0     C22730   7.480   7.377   4.500 -0.6078  0.1404 -0.5199
  910MOL0     C22731   7.599   7.418   4.415  0.0953 -0.3821 -0.4634
  910MOL0     N22732   7.699   7.318   4.428 -0.7650  0.3424  0.8099
  910MOL0     C22733   7.817   7.324   4.495 -0.0502  0.6640 -1.4207
  910MOL0     C22734   7.873   7.199   4.476  0.3491  0.5870  0.0901
  910MOL0     C22735   8.003   7.140   4.534  0.2051  0.1435  0.0262
  910MOL0     C22736   8.121   7.129   4.427 -0.5729  0.5569  0.8219
  910MOL0     C22737   8.255   7.138   4.505 -0.3422 -0.4674 -0.2885
  910MOL0     C22738   8.365   7.088   4.416 -0.8181  0.1046 -0.0172
  910MOL0     O22739   8.408   7.188   4.319 -0.7495 -0.4959 -0.3998
  910MOL0     C22740   8.540   7.233   4.322 -0.1009 -0.3880 -0.0661
  910MOL0     C22741   8.613   7.213   4.203  0.1098  0.4756  0.8146
  910MOL0     C22742   8.751   7.253   4.189 -0.3035  0.0414 -0.4578
  910MOL0     C22743   8.816   7.315   4.294 -0.6736  0.9746  0.0851
  910MOL0     C22744   8.958   7.351   4.297 -0.2164 -0.5968  0.0231
  910MOL0     O22745   9.015   7.421   4.409  0.2372  0.8728  0.0417
  910MOL0     C22746   9.147   7.455   4.411  0.5373  0.0738 -0.4545
  910MOL0     C22747   9.242   7.410   4.500  0.0590  0.2080  0.4777
  910MOL0     C22748   9.373   7.465   4.504  1.0248 -0.7398  0.0178
  910MOL0     C22749   9.402   7.567   4.423  0.7959 -0.0138  0.0280
  910MOL0     O22750   9.521   7.627   4.446  0.1529 -0.1463 -0.5600
  910MOL0     C22751   9.519   7.770   4.421 -0.0790  0.6733 -0.2532
  910MOL0     C22752   9.658   7.822   4.463 -0.8672  0.5044 -1.2985
  910MOL0     C22753   9.649   7.967   4.500  0.0576 -0.4241  0.1984
  910MOL0     C22754   9.778   8.041   4.540  0.0520  0.1246 -0.4976
  910MOL0     C22755   9.745   8.184   4.579  0.6916 -0.8482  0.2619
  910MOL0     C22756   9.846   8.266   4.645 -0.6853  0.2042  0.6220
  910MOL0     C22757   9.858   8.242   4.794  0.4159  0.8831 -0.8835
  910MOL0     C22758   9.948   8.344   4.867 -1.0724  1.0639 -0.0034
  910MOL0    Cl22759  10.118   8.337   4.807 -0.3154  0.1722 -0.2852
  910MOL0     C22760   9.315   7.604   4.324  0.5324  0.3152 -0.8854
  910MOL0     C22761   9.189   7.544   4.310 -0.1382 -0.4252  0.5187
  910MOL0     O22762   9.024   7.323   4.193  0.5134  1.1732  0.1101
  910MOL0     C22763   8.736   7.331   4.410 -0.0054  0.4915  0.0533
  910MOL0     C22764   8.602   7.298   4.427  0.5407 -0.9702  0.0560
  910MOL0     N22765   7.808   7.135   4.371  0.2518 -0.9411 -0.1432
  910MOL0     N22766   7.704   7.210   4.350  0.7819 -0.1658 -0.2231
  910MOL0     C22767   6.620   7.024   4.249 -0.3045 -0.3057 -0.3267
  910MOL0     C22768   6.483   6.992   4.272 -0.3988  0.3193  0.0426
  910MOL0     C22769   6.093   6.864   4.417 -0.3158 -0.9824  0.2312
  910MOL0     C22770   6.092   6.736   4.359  0.1454 -0.4659 -0.3789
  910MOL0     C22771   5.974   6.665   4.357 -0.5791 -0.2233  0.1438
  910MOL0     C22772   5.859   6.718   4.408  0.5306 -0.6823  0.1309
  910MOL0     O22773   5.743   6.639   4.393  0.0871 -0.3172  0.1286
  910MOL0     C22774   5.619   6.688   4.443 -0.1766  0.2092 -0.4650
  910MOL0     C22775   5.517   6.576   4.450 -0.2648 -0.6996  0.3372
  910MOL0     C22776   5.386   6.617   4.512 -1.3212 -0.2427  0.6163
  910MOL0     C22777   5.289   6.502   4.512 -0.9018 -1.0087 -0.2047
  910MOL0     C22778   5.243   6.467   4.380 -0.1018  0.1178 -0.5668
  910MOL0     C22779   5.193   6.435   4.275  0.5685  0.4326  0.0210
  910MOL0     C22780   5.855   6.852   4.469  0.2965  0.9180  0.0754
  910MOL0     C22781   5.971   6.924   4.467  0.5923 -0.7883  0.3825
  910MOL0     C22782   5.954   7.063   4.509 -0.6640  0.2197 -0.3073
  910MOL0     H22783   6.519   6.771   4.510  0.9806 -3.1086 -1.5349
  910MOL0     H22784   6.770   6.820   4.468  1.2322  3.7911  2.6659
  910MOL0     H22785   6.841   7.124   4.136  3.4114 -1.2789 -1.8833
  910MOL0     H22786   6.869   7.212   4.293 -0.5463 -2.0416  3.0714
  910MOL0     H22787   7.052   7.219   4.137  2.2492  1.1912  2.4487
  910MOL0     H22788   7.051   7.029   4.139 -0.0774 -1.0607  0.7573
  910MOL0     H22789   7.233   7.091   4.281 -0.5957 -1.2243 -0.2087
  910MOL0     H22790   7.100   7.050   4.378 -1.3933  0.4958 -0.1122
  910MOL0     H22791   7.103   7.343   4.335 -2.1022  0.3201  1.5984
  910MOL0     H22792   7.025   7.236   4.446  0.7722  3.2023  1.2977
  910MOL0     H22793   7.189   7.359   4.562 -1.7957 -0.4164 -0.2114
  910MOL0     H22794   7.232   7.194   4.562  0.5310 -1.0854 -1.9598
  910MOL0     H22795   7.403   7.210   4.406 -1.1565 -0.1051 -1.9052
  910MOL0     H22796   7.342   7.370   4.331  0.4025  0.0341 -1.1719
  910MOL0     H22797   7.497   7.312   4.587 -1.8389  2.4103  1.5350
  910MOL0     H22798   7.459   7.475   4.543 -0.4451 -0.0576  0.0275
  910MOL0     H22799   7.568   7.424   4.311  1.6485  0.4738 -0.9144
  910MOL0     H22800   7.644   7.508   4.457 -2.4228  0.9371 -0.4411
  910MOL0     H22801   7.849   7.387   4.578  0.3983 -2.6482  1.1556
  910MOL0     H22802   8.035   7.201   4.619  0.5933  1.1609 -0.8200
  910MOL0     H22803   7.997   7.037   4.571  2.4741  0.2130  0.7662
  910MOL0     H22804   8.114   7.037   4.369  2.2739  1.3747 -0.9976
  910MOL0     H22805   8.116   7.209   4.353  3.6961 -2.0476 -2.7890
  910MOL0     H22806   8.248   7.075   4.595  0.4816  0.7355  0.6586
  910MOL0     H22807   8.274   7.238   4.546  3.0668 -0.3022 -1.9011
  910MOL0     H22808   8.328   7.004   4.357 -0.5703  1.2410 -1.8909
  910MOL0     H22809   8.447   7.049   4.477  0.7473 -1.0686 -2.6930
  910MOL0     H22810   8.554   7.157   4.131 -2.1773 -0.2391  3.0896
  910MOL0     H22811   8.800   7.229   4.096 -1.7242  0.2201 -1.2824
  910MOL0     H22812   9.209   7.335   4.570  0.1819 -0.2873  0.0095
  910MOL0     H22813   9.435   7.425   4.583  0.2155 -0.0135  1.0372
  910MOL0     H22814   9.511   7.787   4.313  2.1195  1.6475 -0.3115
  910MOL0     H22815   9.447   7.820   4.486  1.3528  1.1969  0.9928
  910MOL0     H22816   9.698   7.764   4.547 -0.3782  3.3604  0.5916
  910MOL0     H22817   9.730   7.829   4.382  1.7624  1.7104  0.9809
  910MOL0     H22818   9.597   8.023   4.422 -0.0554  1.0172  1.2506
  910MOL0     H22819   9.587   7.973   4.590  1.3852  0.7437  1.0812
  910MOL0     H22820   9.860   8.042   4.468  1.6221  0.7624  1.2248
  910MOL0     H22821   9.824   7.986   4.622  1.4480  0.0226 -1.3221
  910MOL0     H22822   9.652   8.196   4.635  0.9138 -0.4617  0.5595
  910MOL0     H22823   9.724   8.236   4.485  1.6627 -1.8454 -0.5309
  910MOL0     H22824   9.942   8.254   4.595 -0.0468  0.2351  1.8048
  910MOL0     H22825   9.817   8.371   4.634 -2.3245 -0.3618 -0.8914
  910MOL0     H22826   9.890   8.139   4.815  0.5031  0.9675 -0.5934
  910MOL0     H22827   9.758   8.243   4.839  1.2620 -1.6379  1.2914
  910MOL0     H22828   9.903   8.444   4.864 -1.3761  1.0154  1.7720
  910MOL0     H22829   9.947   8.317   4.973 -0.5714 -2.4545 -0.7873
  910MOL0     H22830   9.345   7.671   4.244  1.6198 -0.2191 -0.9498
  910MOL0     H22831   9.120   7.565   4.228 -1.8726  1.7015  2.3814
  910MOL0     H22832   8.782   7.392   4.486  2.9891  0.5178 -1.6140
  910MOL0     H22833   8.554   7.300   4.524  0.3979 -0.6526 -0.0185
  910MOL0     H22834   6.630   7.092   4.165  0.5430  0.0011  0.0100
  910MOL0     H22835   6.420   7.050   4.205  0.3687  1.6865  0.4531
  910MOL0     H22836   6.182   6.683   4.329  0.0130 -0.1750 -1.3300
  910MOL0     H22837   5.979   6.575   4.297  1.2323  2.3791 -4.0612
  910MOL0     H22838   5.586   6.782   4.398  0.0134  1.0377  1.0383
  910MOL0     H22839   5.635   6.701   4.551 -0.8160  0.0961 -0.3538
  910MOL0     H22840   5.557   6.489   4.503 -0.4002  0.2774  2.1021
  910MOL0     H22841   5.498   6.544   4.347 -0.8485  0.2716  0.1239
  910MOL0     H22842   5.357   6.714   4.471  0.2490 -1.0744 -2.7963
  910MOL0     H22843   5.407   6.628   4.619  0.0409 -0.2842  0.3691
  910MOL0     H22844   5.348   6.419   4.551  0.9831  0.3175 -0.1418
  910MOL0     H22845   5.206   6.520   4.581 -1.1693  0.5397 -0.8747
  910MOL0     H22846   5.132   6.411   4.191 -1.2406  1.1058  1.0951
  910MOL0     H22847   5.765   6.888   4.516  0.3887  0.1269  0.8764
  910MOL0     H22848   6.028   7.097   4.582 -1.9491  0.9379  0.7079
  910MOL0     H22849   5.969   7.125   4.420 -2.9814  0.8368 -0.3362
  910MOL0     H22850   5.853   7.081   4.546 -1.2062  0.0707 -1.6702
  911MOL0     O22851   2.416   3.539   3.254 -0.5289 -0.3947 -0.6648
  911MOL0     C22852   2.377   3.520   3.135  0.1804 -0.5349 -0.8451
  911MOL0     O22853   2.444   3.471   3.027 -0.1237 -0.2994 -0.4474
  911MOL0     C22854   2.569   3.451   3.054  0.1241 -0.3947  0.0356
  911MOL0     C22855   2.597   3.340   3.136 -0.1892 -0.2081 -0.8793
  911MOL0     C22856   2.729   3.326   3.192  0.0535  0.1918  0.0550
  911MOL0     C22857   2.824   3.411   3.146 -0.1301  0.3394 -0.2182
  911MOL0     O22858   2.947   3.388   3.198 -0.2890 -0.2230 -0.1692
  911MOL0     C22859   3.067   3.460   3.163 -0.1190 -0.2579  0.2968
  911MOL0     C22860   3.180   3.407   3.245 -0.3725  0.2113 -0.5276
  911MOL0     C22861   3.321   3.477   3.232 -0.8414 -0.3684  0.8460
  911MOL0     C22862   3.434   3.415   3.316 -0.1001  0.1430 -0.5491
  911MOL0     C22863   3.546   3.519   3.328  0.7444 -0.2304  0.6993
  911MOL0     C22864   3.646   3.498   3.209  0.8706 -0.8794 -0.3485
  911MOL0     C22865   3.754   3.611   3.208 -0.1797  1.1557 -0.0508
  911MOL0     C22866   3.847   3.600   3.090 -0.3747  0.1945 -0.0348
  911MOL0     N22867   3.941   3.709   3.089 -0.3075 -0.3933  0.3472
  911MOL0     C22868   4.080   3.702   3.099  0.3921  0.4223  0.1696
  911MOL0     C22869   4.120   3.831   3.082  0.1867 -0.4573  0.3528
  911MOL0     C22870   4.258   3.882   3.061  0.6164  0.2079  0.0280
  911MOL0     C22871   4.296   3.886   2.918  0.6497 -0.0963 -0.3889
  911MOL0     C22872   4.296   3.742   2.850  0.2021 -0.1782 -0.1387
  911MOL0     C22873   4.390   3.649   2.918 -0.4698 -0.4737  0.4038
  911MOL0     O22874   4.526   3.686   2.926  0.3686  0.6542  0.6758
  911MOL0     C22875   4.619   3.634   2.832 -0.4458 -0.3280 -0.7112
  911MOL0     C22876   4.759   3.656   2.858 -0.7581 -0.3181  0.2338
  911MOL0     C22877   4.858   3.622   2.769 -0.0532 -0.2863 -0.2626
  911MOL0     C22878   4.826   3.543   2.659  0.4948 -0.0404 -0.4143
  911MOL0     C22879   4.929   3.497   2.559 -0.5863 -0.8464 -1.1558
  911MOL0     O22880   5.061   3.531   2.596 -0.0687  0.4397  0.4880
  911MOL0     C22881   5.159   3.526   2.497  1.1340 -0.3483  0.6480
  911MOL0     C22882   5.276   3.460   2.517 -0.7814  0.2156  0.9577
  911MOL0     C22883   5.354   3.427   2.410  0.9714 -0.6876  0.4232
  911MOL0     C22884   5.318   3.474   2.283  0.4743  0.0302  0.8324
  911MOL0     O22885   5.405   3.441   2.184  0.6915  0.0070 -0.0223
  911MOL0     C22886   5.408   3.533   2.079  0.0065  0.9735  0.2018
  911MOL0     C22887   5.542   3.515   2.002  0.6767 -0.5650  0.0222
  911MOL0     C22888   5.669   3.542   2.065  1.0353 -0.2424  0.5925
  911MOL0     C22889   5.773   3.560   1.948  0.7325 -0.0649  0.1643
  911MOL0     C22890   5.906   3.560   2.014 -0.5258  1.4101 -0.9408
  911MOL0     C22891   6.024   3.598   1.926  0.2524  0.5895  0.2893
  911MOL0     C22892   6.018   3.506   1.799 -0.7896 -0.4269 -0.5290
  911MOL0     C22893   6.154   3.492   1.724 -0.6140 -0.3081  0.0652
  911MOL0    Cl22894   6.220   3.648   1.679 -0.1324 -0.0003 -0.1218
  911MOL0     C22895   5.208   3.549   2.270 -0.8509  0.0426  0.9139
  911MOL0     C22896   5.126   3.578   2.374 -1.0621  1.0526  0.1800
  911MOL0     O22897   4.891   3.428   2.467  0.0066 -0.0925  0.1954
  911MOL0     C22898   4.691   3.523   2.622 -0.7300 -0.5595  0.5413
  911MOL0     C22899   4.589   3.573   2.706  0.5170 -0.2486  0.3639
  911MOL0     N22900   3.999   3.911   3.090  0.0859  0.2322 -0.6305
  911MOL0     N22901   3.899   3.835   3.091 -0.2026  0.5958 -0.2212
  911MOL0     C22902   2.798   3.522   3.070  0.0811  0.6433  0.3307
  911MOL0     C22903   2.670   3.543   3.025  0.0204  0.2808  1.0051
  911MOL0     C22904   2.228   3.526   3.113  0.3382 -0.7387  0.1597
  911MOL0     C22905   2.166   3.423   3.046 -0.6844  0.0119  1.0062
  911MOL0     C22906   2.031   3.408   3.034 -0.5443  1.1383  1.1392
  911MOL0     C22907   1.943   3.500   3.098 -0.4822 -0.4404  0.3034
  911MOL0     O22908   1.809   3.493   3.112  0.2844 -0.3412 -0.3634
  911MOL0     C22909   1.733   3.381   3.072  0.1544  0.0980  0.6896
  911MOL0     C22910   1.740   3.275   3.188 -0.6499 -1.1051  0.7038
  911MOL0     C22911   1.667   3.328   3.306 -0.2159 -0.1194  0.8288
  911MOL0     C22912   1.650   3.209   3.402 -0.6336 -0.4543 -0.1149
  911MOL0     C22913   1.548   3.226   3.502 -0.3248 -1.3062 -0.2191
  911MOL0     C22914   1.460   3.253   3.581  0.2275 -0.2791  0.6798
  911MOL0     C22915   2.006   3.613   3.161 -0.3992  0.1472  0.4165
  911MOL0     C22916   2.147   3.623   3.178  0.6700  0.4723  0.0053
  911MOL0     C22917   2.192   3.739   3.263 -0.2055 -0.5939 -0.4868
  911MOL0     H22918   2.521   3.274   3.176  1.2049  0.4127  3.2441
  911MOL0     H22919   2.757   3.247   3.262  3.7810  2.4847  1.4806
  911MOL0     H22920   3.084   3.449   3.056 -2.4548  0.1317 -0.1538
  911MOL0     H22921   3.059   3.567   3.187 -0.7324 -0.8133  2.8750
  911MOL0     H22922   3.189   3.305   3.207 -1.9218  0.7291 -2.4986
  911MOL0     H22923   3.154   3.405   3.351 -0.2303  0.9568 -0.4739
  911MOL0     H22924   3.305   3.574   3.280 -0.9816 -0.5996  1.2681
  911MOL0     H22925   3.347   3.490   3.126 -1.4095  0.8221  0.8293
  911MOL0     H22926   3.382   3.411   3.412 -1.7207  2.4475 -1.2278
  911MOL0     H22927   3.470   3.315   3.290 -0.7579 -1.8032  4.7940
  911MOL0     H22928   3.509   3.621   3.321  2.7290  0.4111 -1.8354
  911MOL0     H22929   3.591   3.508   3.428  0.5447 -3.4903  0.5361
  911MOL0     H22930   3.702   3.405   3.217  0.0606 -1.3379  0.0924
  911MOL0     H22931   3.591   3.492   3.114  0.7790  0.1538 -0.3718
  911MOL0     H22932   3.823   3.594   3.291 -0.2884  0.0530 -0.1669
  911MOL0     H22933   3.709   3.710   3.220  1.1524  1.5466  2.2232
  911MOL0     H22934   3.910   3.511   3.091 -1.3501 -0.5923  3.1867
  911MOL0     H22935   3.789   3.599   2.997 -0.8868  1.1076  0.2627
  911MOL0     H22936   4.142   3.614   3.105 -0.8373 -0.5995 -1.2669
  911MOL0     H22937   4.260   3.984   3.101  1.7639 -1.1298  3.8943
  911MOL0     H22938   4.327   3.819   3.118  0.6773 -0.1115 -0.3967
  911MOL0     H22939   4.223   3.950   2.867 -0.3182 -0.0178  1.0443
  911MOL0     H22940   4.397   3.928   2.910  0.5343  0.6731  1.5610
  911MOL0     H22941   4.318   3.756   2.744 -3.3016 -0.6873 -1.0411
  911MOL0     H22942   4.195   3.700   2.853  0.8619 -1.8116  1.9565
  911MOL0     H22943   4.380   3.551   2.871  0.7627 -0.1809 -0.5414
  911MOL0     H22944   4.357   3.646   3.022 -0.4961 -0.4530  0.3958
  911MOL0     H22945   4.773   3.713   2.949 -0.0841 -2.9153  1.8834
  911MOL0     H22946   4.965   3.634   2.781  0.8113 -4.8330 -1.5568
  911MOL0     H22947   5.330   3.433   2.607  3.6954  1.0761 -1.1709
  911MOL0     H22948   5.442   3.364   2.418  0.3377 -1.9164 -1.4626
  911MOL0     H22949   5.324   3.511   2.013  0.0921  1.4241 -0.0572
  911MOL0     H22950   5.396   3.637   2.113 -1.7926  1.2814 -1.2148
  911MOL0     H22951   5.546   3.418   1.952  1.7748 -0.8104  0.5735
  911MOL0     H22952   5.526   3.583   1.917  0.2453 -0.1200  0.4498
  911MOL0     H22953   5.654   3.629   2.131 -0.1338  1.1589 -1.4200
  911MOL0     H22954   5.699   3.463   2.134  1.0250 -1.4094 -0.6965
  911MOL0     H22955   5.765   3.654   1.894 -1.1070  0.0521  0.5758
  911MOL0     H22956   5.764   3.485   1.870  1.6169 -0.6108  0.5707
  911MOL0     H22957   5.914   3.459   2.057 -0.4102  1.3433 -1.1206
  911MOL0     H22958   5.911   3.631   2.097 -2.0643  2.2882 -1.5539
  911MOL0     H22959   6.022   3.701   1.891 -2.2689  0.5416  0.1105
  911MOL0     H22960   6.117   3.584   1.982  1.6880  0.3189 -2.0165
  911MOL0     H22961   5.948   3.537   1.721  0.9059  0.7970 -1.6351
  911MOL0     H22962   5.995   3.406   1.837  3.0273 -0.9435  0.8644
  911MOL0     H22963   6.233   3.445   1.783 -1.1704  0.1006  1.1706
  911MOL0     H22964   6.141   3.424   1.640  0.0051 -0.5416  0.1531
  911MOL0     H22965   5.176   3.601   2.180 -0.2625 -0.6089  0.3254
  911MOL0     H22966   5.039   3.640   2.355 -0.9635  0.7638 -1.3127
  911MOL0     H22967   4.668   3.457   2.539 -0.5785  0.1683 -0.0923
  911MOL0     H22968   4.481   3.571   2.694 -0.3186  6.5275  2.1828
  911MOL0     H22969   2.882   3.584   3.041  2.3062 -1.4765  1.8562
  911MOL0     H22970   2.653   3.628   2.961 -2.5839 -1.0785 -0.2445
  911MOL0     H22971   2.221   3.351   2.986  1.1595  0.1262  2.4471
  911MOL0     H22972   2.002   3.316   2.984 -0.6161  0.5191  2.3095
  911MOL0     H22973   1.769   3.337   2.979 -0.7606 -2.9474  1.6323
  911MOL0     H22974   1.629   3.397   3.042  0.7853 -0.8022 -2.2517
  911MOL0     H22975   1.847   3.267   3.211  0.2919 -0.7486 -2.9752
  911MOL0     H22976   1.699   3.181   3.150 -5.1295  0.1215  1.9573
  911MOL0     H22977   1.568   3.372   3.287  0.2219  1.0958  1.2515
  911MOL0     H22978   1.739   3.399   3.347  2.2127 -1.9010 -0.1384
  911MOL0     H22979   1.624   3.120   3.343  0.7616  0.5351 -2.3640
  911MOL0     H22980   1.743   3.184   3.452 -0.0496 -1.7153 -1.7262
  911MOL0     H22981   1.381   3.300   3.636  1.6828 -0.3661  2.9904
  911MOL0     H22982   1.945   3.691   3.206  0.8146  0.9515  0.7172
  911MOL0     H22983   2.274   3.711   3.330 -1.2895 -1.4027  0.5511
  911MOL0     H22984   2.216   3.834   3.216  2.4268 -1.1213 -0.3903
  911MOL0     H22985   2.112   3.756   3.336 -0.1582  4.1489 -1.2669
  912MOL0     O22986   2.894   5.454   4.247 -0.3528  0.7387 -0.2134
  912MOL0     C22987   3.003   5.398   4.256 -0.5171 -0.0743  1.0605
  912MOL0     O22988   3.124   5.462   4.269 -0.1726  0.0133  0.0540
  912MOL0     C22989   3.123   5.579   4.340  0.2912 -0.1730  0.3193
  912MOL0     C22990   3.074   5.592   4.469  0.9467  0.4164 -0.2669
  912MOL0     C22991   3.077   5.719   4.530 -0.4159  0.0751 -0.0320
  912MOL0     C22992   3.140   5.825   4.479 -0.1419  0.2540  0.2116
  912MOL0     O22993   3.142   5.951   4.534  0.0347 -0.1691 -0.1346
  912MOL0     C22994   3.011   5.998   4.547  0.0955 -0.9623 -0.3906
  912MOL0     C22995   2.958   6.090   4.429 -0.9154  0.4295 -0.6797
  912MOL0     C22996   2.888   6.024   4.308  0.0868  0.3144  0.7010
  912MOL0     C22997   2.762   5.946   4.351  0.0951 -0.5812  0.0908
  912MOL0     C22998   2.694   5.888   4.228 -0.2019  0.6478 -0.1792
  912MOL0     C22999   2.777   5.797   4.141 -0.3010  0.4284  0.0613
  912MOL0     C23000   2.700   5.741   4.014  0.0104 -0.1397  0.1148
  912MOL0     C23001   2.728   5.609   3.968 -0.4757 -0.4616 -0.6033
  912MOL0     N23002   2.844   5.598   3.882 -0.1177 -0.4277 -0.2359
  912MOL0     C23003   2.975   5.565   3.918 -0.3721 -0.4947  0.4261
  912MOL0     C23004   3.036   5.525   3.803  0.4898 -0.2124  0.4366
  912MOL0     C23005   3.168   5.460   3.783 -0.3436 -0.1629  0.1330
  912MOL0     C23006   3.290   5.554   3.759  0.1031 -0.6478 -0.1497
  912MOL0     C23007   3.420   5.476   3.727 -0.1154 -0.1327  0.2194
  912MOL0     C23008   3.541   5.562   3.713 -0.0784 -0.1468  0.3425
  912MOL0     O23009   3.643   5.472   3.664  0.0129  0.1859 -0.0428
  912MOL0     C23010   3.744   5.450   3.755 -0.3069 -0.4263  0.0664
  912MOL0     C23011   3.860   5.528   3.760  0.0696  0.6040  0.3029
  912MOL0     C23012   3.964   5.503   3.850 -0.8723 -0.4573  0.1503
  912MOL0     C23013   3.937   5.402   3.950  1.8084  0.8034 -0.2320
  912MOL0     C23014   4.039   5.364   4.046  0.0972  0.9374 -1.4476
  912MOL0     O23015   4.150   5.438   4.055  0.0910 -0.2576 -0.0650
  912MOL0     C23016   4.241   5.411   4.154  0.0458 -0.3279 -0.0930
  912MOL0     C23017   4.368   5.368   4.110  0.3726  0.0931 -0.4199
  912MOL0     C23018   4.468   5.340   4.205 -0.1103 -0.1222 -0.6332
  912MOL0     C23019   4.449   5.365   4.341  0.2868  0.8292 -1.1190
  912MOL0     O23020   4.555   5.325   4.431 -0.4879 -0.1399 -0.0038
  912MOL0     C23021   4.560   5.380   4.564 -0.3024  0.0087  0.3402
  912MOL0     C23022   4.671   5.291   4.639  0.2572  0.3357  0.0597
  912MOL0     C23023   4.800   5.295   4.567 -0.5447 -0.2013  0.4261
  912MOL0     C23024   4.892   5.181   4.603 -0.0833 -0.2589 -0.0862
  912MOL0     C23025   5.007   5.171   4.499  0.0019  0.0707  0.5689
  912MOL0     C23026   5.086   5.043   4.541  0.8759  0.2820  1.4179
  912MOL0     C23027   5.194   5.019   4.431 -0.0099  0.6229  0.1188
  912MOL0     C23028   5.301   5.121   4.407 -0.7077 -0.6349 -0.5863
  912MOL0    Cl23029   5.400   5.140   4.549 -0.2433 -0.0367  0.1088
  912MOL0     C23030   4.322   5.411   4.376  1.1039 -0.8066  0.4485
  912MOL0     C23031   4.217   5.431   4.290 -0.0904  0.3586  0.2469
  912MOL0     O23032   4.012   5.261   4.112 -0.6791 -0.5595 -0.3179
  912MOL0     C23033   3.825   5.309   3.930  0.0758 -0.1342 -0.5032
  912MOL0     C23034   3.735   5.335   3.830  0.6146  0.0482 -0.7240
  912MOL0     N23035   2.947   5.551   3.703 -0.1773 -0.0621 -0.2534
  912MOL0     N23036   2.832   5.594   3.745 -0.6752  0.1598  0.2350
  912MOL0     C23037   3.208   5.808   4.350  0.6190  0.0204  0.2691
  912MOL0     C23038   3.193   5.687   4.282  0.2952  0.0233 -0.0057
  912MOL0     C23039   3.013   5.248   4.216 -0.0638 -0.7692 -1.0448
  912MOL0     C23040   3.145   5.187   4.225 -0.0427  0.0321 -0.3179
  912MOL0     C23041   3.146   5.047   4.203 -0.3755  0.4557 -0.2773
  912MOL0     C23042   3.028   4.974   4.178 -0.8803  0.8339  0.1816
  912MOL0     O23043   3.056   4.838   4.152  0.0376  0.5814 -0.0954
  912MOL0     C23044   2.943   4.755   4.110 -0.0439 -0.4059  0.1557
  912MOL0     C23045   2.993   4.610   4.074  0.3369 -0.6608 -0.0355
  912MOL0     C23046   2.886   4.507   4.019  0.3549  0.0228  0.0908
  912MOL0     C23047   2.855   4.542   3.880 -0.5460  0.0398  0.0109
  912MOL0     C23048   2.768   4.460   3.801  1.1204  0.1055  0.0936
  912MOL0     C23049   2.697   4.380   3.740 -0.4136 -0.5606  0.3031
  912MOL0     C23050   2.903   5.035   4.177  0.5867 -0.8054  0.9166
  912MOL0     C23051   2.895   5.171   4.194  1.1197  0.2650 -0.3305
  912MOL0     C23052   2.748   5.226   4.190 -0.1959 -0.2255 -0.5356
  912MOL0     H23053   3.010   5.515   4.511  0.4095  0.3688 -1.1403
  912MOL0     H23054   3.023   5.727   4.624 -3.0776 -2.8219 -1.1391
  912MOL0     H23055   2.945   5.916   4.578  2.5821 -2.1889  2.0526
  912MOL0     H23056   2.988   6.062   4.633  0.9553 -0.1135 -0.7862
  912MOL0     H23057   3.045   6.144   4.390 -0.9189  0.3688 -0.7739
  912MOL0     H23058   2.908   6.177   4.470  0.2534  1.3048 -1.0355
  912MOL0     H23059   2.960   5.965   4.250 -0.7298 -0.8333  0.8187
  912MOL0     H23060   2.845   6.101   4.243 -1.2798 -0.1082  1.0761
  912MOL0     H23061   2.776   5.874   4.432 -0.0301 -1.0605 -0.3070
  912MOL0     H23062   2.688   6.020   4.382  1.1741  0.5554  0.0225
  912MOL0     H23063   2.607   5.828   4.254  1.6870 -2.0672  0.3611
  912MOL0     H23064   2.660   5.974   4.170 -1.6357  0.5745  0.5060
  912MOL0     H23065   2.867   5.845   4.102 -0.7907 -1.1232 -3.3293
  912MOL0     H23066   2.799   5.707   4.199  0.6900  0.4018 -0.3397
  912MOL0     H23067   2.725   5.802   3.926  2.4336 -0.7201  0.3270
  912MOL0     H23068   2.591   5.747   4.027 -0.0784  1.3019 -1.0262
  912MOL0     H23069   2.747   5.546   4.055 -2.3652  0.6294  0.6654
  912MOL0     H23070   2.640   5.568   3.917 -0.1070 -1.3332 -0.5414
  912MOL0     H23071   3.012   5.562   4.020 -2.7471 -0.5788  1.3664
  912MOL0     H23072   3.190   5.397   3.869 -1.5299  1.0386  1.3593
  912MOL0     H23073   3.173   5.402   3.690 -1.1412 -1.4965  0.8834
  912MOL0     H23074   3.273   5.630   3.683 -1.8383 -0.8281  0.0609
  912MOL0     H23075   3.299   5.608   3.854 -0.8565 -1.0983  0.2066
  912MOL0     H23076   3.403   5.418   3.636 -3.3018 -0.7660  1.0946
  912MOL0     H23077   3.441   5.412   3.813 -2.4635 -1.2841  0.0102
  912MOL0     H23078   3.564   5.605   3.810 -3.1155 -1.1959  1.6476
  912MOL0     H23079   3.532   5.642   3.639  2.0007 -2.1925 -2.3399
  912MOL0     H23080   3.866   5.609   3.688 -1.2459 -0.5586 -1.1772
  912MOL0     H23081   4.052   5.566   3.858 -0.1217 -0.6929 -4.0407
  912MOL0     H23082   4.398   5.361   4.006  5.0639  1.9603  0.5389
  912MOL0     H23083   4.563   5.296   4.178 -1.5211 -2.1947 -2.6147
  912MOL0     H23084   4.597   5.483   4.559  1.8705 -0.7348  0.0557
  912MOL0     H23085   4.465   5.380   4.618  0.7881  0.9777  2.3870
  912MOL0     H23086   4.676   5.337   4.739  3.3982  0.2516  0.0287
  912MOL0     H23087   4.636   5.189   4.658 -2.5339  1.2228  0.2209
  912MOL0     H23088   4.791   5.316   4.460 -1.0455  0.5131  0.6080
  912MOL0     H23089   4.842   5.390   4.601  1.4242 -1.0421  0.4673
  912MOL0     H23090   4.834   5.089   4.593 -1.0975  0.6004 -3.0961
  912MOL0     H23091   4.936   5.187   4.703 -3.2302 -0.5180  1.4571
  912MOL0     H23092   5.067   5.263   4.503  0.0268  0.0502  0.6629
  912MOL0     H23093   4.962   5.164   4.400  1.0416 -0.9994  0.1672
  912MOL0     H23094   5.138   5.058   4.636  3.7174 -2.5578  0.5063
  912MOL0     H23095   5.023   4.954   4.541  0.5849  0.4856  1.2731
  912MOL0     H23096   5.133   5.000   4.342 -0.4446  0.3455  0.4663
  912MOL0     H23097   5.244   4.923   4.443  3.1967  2.0451 -0.7425
  912MOL0     H23098   5.373   5.087   4.332 -0.4396  0.6428 -0.9442
  912MOL0     H23099   5.262   5.220   4.383 -0.2919  0.3604  2.4693
  912MOL0     H23100   4.289   5.449   4.472 -1.2543  2.5683 -1.4987
  912MOL0     H23101   4.120   5.467   4.325  0.1197  2.8783 -1.4550
  912MOL0     H23102   3.813   5.223   3.994  0.6656 -0.8229 -1.2928
  912MOL0     H23103   3.652   5.268   3.814 -0.2692  0.7523  0.7248
  912MOL0     H23104   3.254   5.895   4.304  1.2813 -1.0913 -1.2473
  912MOL0     H23105   3.239   5.680   4.185  3.5706  2.1002  1.2360
  912MOL0     H23106   3.234   5.246   4.247  1.4449 -1.8053 -1.1350
  912MOL0     H23107   3.241   4.996   4.201 -0.7656 -0.5859  2.5060
  912MOL0     H23108   2.908   4.793   4.014  1.7049  0.0201 -0.3535
  912MOL0     H23109   2.863   4.771   4.183  2.2367 -0.0027  2.7366
  912MOL0     H23110   3.018   4.562   4.169 -1.1508  1.5030  1.5427
  912MOL0     H23111   3.083   4.616   4.013  1.3425 -1.2700  1.3610
  912MOL0     H23112   2.799   4.514   4.085 -1.0728 -1.3489 -1.5330
  912MOL0     H23113   2.930   4.407   4.014  0.1683 -0.0078 -1.6086
  912MOL0     H23114   2.810   4.640   3.893 -2.2210 -0.7980  0.8673
  912MOL0     H23115   2.947   4.550   3.822 -0.8597  0.0465 -0.4989
  912MOL0     H23116   2.651   4.324   3.661  3.5545  0.4725 -3.1168
  912MOL0     H23117   2.814   4.975   4.160 -0.4532  0.8555  0.1986
  912MOL0     H23118   2.667   5.163   4.150  0.6360 -1.3009 -0.5914
  912MOL0     H23119   2.716   5.251   4.291 -1.4773  0.1916 -1.0235
  912MOL0     H23120   2.738   5.313   4.125 -1.1140  0.1078  0.0462
  913MOL0     O23121   0.700   3.713   1.605  0.2847 -0.1334 -0.1401
  913MOL0     C23122   0.598   3.726   1.677  0.8548 -0.6883  0.0025
  913MOL0     O23123   0.548   3.848   1.707 -0.1635  0.1591 -0.2985
  913MOL0     C23124   0.603   3.966   1.644 -0.0274  0.2131 -0.4913
  913MOL0     C23125   0.743   3.987   1.629 -0.3758 -0.0755  0.1134
  913MOL0     C23126   0.776   4.094   1.547 -0.2163 -0.0278  0.6293
  913MOL0     C23127   0.677   4.183   1.488  0.0861  0.3446 -0.4255
  913MOL0     O23128   0.722   4.303   1.433  0.2513 -0.2438  0.0492
  913MOL0     C23129   0.658   4.422   1.482  0.4590 -0.9146 -0.6057
  913MOL0     C23130   0.681   4.455   1.627 -1.5788 -0.2965 -0.9889
  913MOL0     C23131   0.832   4.461   1.650  0.3917  0.3495 -0.1991
  913MOL0     C23132   0.896   4.590   1.592  0.7409 -0.3139 -0.7484
  913MOL0     C23133   1.044   4.594   1.637 -0.2668 -0.2658  1.0800
  913MOL0     C23134   1.125   4.488   1.547  0.2981 -0.4170 -0.3673
  913MOL0     C23135   1.270   4.517   1.535  0.2268 -0.8293  0.2179
  913MOL0     C23136   1.343   4.430   1.436  0.1839 -0.2774 -0.2414
  913MOL0     N23137   1.491   4.427   1.445  0.4051  0.5376 -0.3030
  913MOL0     C23138   1.567   4.317   1.432 -0.1911  0.2722 -0.2604
  913MOL0     C23139   1.691   4.362   1.460 -0.8314  0.3737 -0.5513
  913MOL0     C23140   1.815   4.268   1.474 -0.9580  0.1010  0.2357
  913MOL0     C23141   1.879   4.223   1.340  0.2704 -0.5018 -0.1530
  913MOL0     C23142   1.951   4.319   1.251  0.4044 -0.0655 -0.9846
  913MOL0     C23143   2.040   4.417   1.333 -0.0163 -0.1562  0.6748
  913MOL0     O23144   2.125   4.337   1.419  0.6477 -0.2709 -0.1265
  913MOL0     C23145   2.257   4.321   1.384  0.3264  1.1033  0.4314
  913MOL0     C23146   2.305   4.341   1.251 -1.0653  0.2434 -0.1911
  913MOL0     C23147   2.445   4.330   1.219 -0.1587  0.2707  0.3837
  913MOL0     C23148   2.530   4.275   1.316 -0.8437 -0.1605  0.6429
  913MOL0     C23149   2.676   4.262   1.294  0.5285 -0.5243 -0.0168
  913MOL0     O23150   2.759   4.291   1.406 -0.0830 -0.5304  0.1866
  913MOL0     C23151   2.889   4.331   1.378 -0.2139  0.1985  0.3014
  913MOL0     C23152   3.003   4.252   1.420 -0.2242  1.0413  0.2541
  913MOL0     C23153   3.134   4.305   1.402 -0.4256 -0.0007  0.8600
  913MOL0     C23154   3.158   4.423   1.332 -0.0947  0.6797  0.3554
  913MOL0     O23155   3.285   4.475   1.344 -0.0942 -0.0096  0.0933
  913MOL0     C23156   3.400   4.403   1.407  0.5664 -0.1593 -0.5181
  913MOL0     C23157   3.450   4.300   1.306  0.0064  0.6912  0.8915
  913MOL0     C23158   3.590   4.235   1.348 -0.3800  1.3459  0.6200
  913MOL0     C23159   3.711   4.316   1.332 -0.7265 -0.3208 -0.1789
  913MOL0     C23160   3.838   4.234   1.368  0.7383 -0.1185 -0.3713
  913MOL0     C23161   3.975   4.304   1.392 -0.4127 -0.3612 -1.0154
  913MOL0     C23162   4.009   4.389   1.278 -0.6264  0.6673 -0.2011
  913MOL0     C23163   4.127   4.485   1.309  0.8104 -0.1638 -0.5001
  913MOL0    Cl23164   4.274   4.397   1.366  0.2113  0.3957  0.2985
  913MOL0     C23165   3.044   4.489   1.287 -0.3742 -0.2411 -0.1335
  913MOL0     C23166   2.916   4.448   1.304 -0.0717  0.2744 -0.3045
  913MOL0     O23167   2.710   4.235   1.177 -0.5828  0.0135 -0.1234
  913MOL0     C23168   2.475   4.242   1.441 -0.1645  1.0873 -0.0338
  913MOL0     C23169   2.347   4.261   1.475  0.3430 -0.2787  0.4065
  913MOL0     N23170   1.694   4.499   1.471  0.2290  0.1715 -0.5193
  913MOL0     N23171   1.574   4.540   1.444  0.3547  0.0795 -0.1802
  913MOL0     C23172   0.546   4.149   1.499 -0.3134  0.9158  0.7521
  913MOL0     C23173   0.508   4.040   1.573 -0.3307 -0.2796 -0.2596
  913MOL0     C23174   0.535   3.601   1.731 -0.1729  0.5142 -0.2260
  913MOL0     C23175   0.607   3.481   1.715 -0.0411  0.0747  0.2143
  913MOL0     C23176   0.557   3.351   1.747 -0.2961 -0.3455 -0.5189
  913MOL0     C23177   0.438   3.338   1.804 -0.4219  0.4905  0.0232
  913MOL0     O23178   0.394   3.207   1.828  0.5052  0.3277 -0.1003
  913MOL0     C23179   0.267   3.204   1.901 -0.0285  0.2344  0.0773
  913MOL0     C23180   0.282   3.216   2.050 -0.3072  0.0232 -0.3659
  913MOL0     C23181   0.385   3.122   2.105 -0.0030  0.5029 -0.5759
  913MOL0     C23182   0.369   3.080   2.251  0.0180 -0.0203  0.0863
  913MOL0     C23183   0.232   3.047   2.280 -0.0779  0.0391 -0.2220
  913MOL0     C23184   0.119   3.020   2.299  0.0787 -0.1761 -1.0153
  913MOL0     C23185   0.363   3.456   1.831  0.5103  0.1525  0.6078
  913MOL0     C23186   0.404   3.586   1.788  0.4781  0.6119 -0.4890
  913MOL0     C23187   0.302   3.691   1.790 -0.4257 -0.2912  0.3419
  913MOL0     H23188   0.820   3.924   1.672 -1.0562 -2.1012 -1.4871
  913MOL0     H23189   0.882   4.117   1.539 -0.7466  2.0232 -1.2854
  913MOL0     H23190   0.693   4.506   1.422  0.0942  0.6898  1.3043
  913MOL0     H23191   0.549   4.426   1.470  0.0721 -2.7000  1.6274
  913MOL0     H23192   0.642   4.376   1.691  0.7941  0.2630  1.2921
  913MOL0     H23193   0.637   4.551   1.657  1.0106  0.1170  1.9732
  913MOL0     H23194   0.874   4.368   1.610 -0.2704 -0.4507  0.8851
  913MOL0     H23195   0.859   4.449   1.755  3.2744 -1.3936 -1.0093
  913MOL0     H23196   0.897   4.593   1.482  3.7513  0.0651 -0.7836
  913MOL0     H23197   0.842   4.675   1.634  1.5687 -1.1416  2.1846
  913MOL0     H23198   1.081   4.694   1.616  1.0903 -0.7772  0.9136
  913MOL0     H23199   1.053   4.572   1.743  2.2781  3.0434  1.7051
  913MOL0     H23200   1.112   4.388   1.590 -0.5870  0.0258  0.4284
  913MOL0     H23201   1.085   4.487   1.446  1.6141 -3.7012 -0.9755
  913MOL0     H23202   1.323   4.505   1.630  1.8311  4.4490  0.3074
  913MOL0     H23203   1.277   4.625   1.519  2.4634 -1.3232 -3.0340
  913MOL0     H23204   1.304   4.328   1.440 -1.7462  0.4462  1.0285
  913MOL0     H23205   1.324   4.478   1.340  2.3224  0.4921 -0.3392
  913MOL0     H23206   1.527   4.218   1.410  2.5029 -0.7835 -0.8355
  913MOL0     H23207   1.882   4.316   1.546 -0.4217 -1.7523  1.0322
  913MOL0     H23208   1.794   4.170   1.518  1.3574  0.1590  1.6451
  913MOL0     H23209   1.950   4.143   1.362  0.7585 -0.2082 -0.6191
  913MOL0     H23210   1.796   4.190   1.277 -0.1144  0.4124 -0.1430
  913MOL0     H23211   1.879   4.379   1.195 -0.9417 -0.3597  0.3636
  913MOL0     H23212   2.017   4.272   1.178  1.6111 -0.6165  0.3936
  913MOL0     H23213   1.993   4.488   1.403  0.0438  2.3091 -1.6351
  913MOL0     H23214   2.082   4.486   1.259 -0.2472 -2.1515 -1.4074
  913MOL0     H23215   2.238   4.375   1.172  0.4944  0.7758 -1.3368
  913MOL0     H23216   2.482   4.347   1.118  0.1891  0.0680  0.4753
  913MOL0     H23217   2.987   4.168   1.486 -0.7817 -0.1361 -1.3312
  913MOL0     H23218   3.205   4.250   1.463 -0.1361 -0.1992  0.3425
  913MOL0     H23219   3.476   4.479   1.426  1.4062 -1.0011 -0.4109
  913MOL0     H23220   3.371   4.358   1.503 -0.7462 -0.8103 -1.1922
  913MOL0     H23221   3.374   4.226   1.277  2.3543 -0.5818 -2.7135
  913MOL0     H23222   3.469   4.359   1.216 -0.8846  0.0099  0.2262
  913MOL0     H23223   3.565   4.196   1.448 -3.1180 -1.1003 -0.8582
  913MOL0     H23224   3.610   4.146   1.289 -1.1850  1.4556  0.1652
  913MOL0     H23225   3.695   4.414   1.380 -0.3776  0.9060 -2.4403
  913MOL0     H23226   3.710   4.335   1.225 -1.0315  3.1776  0.3198
  913MOL0     H23227   3.844   4.158   1.289  0.7820  1.4089 -1.8874
  913MOL0     H23228   3.806   4.187   1.462 -0.1313 -0.4986 -0.8463
  913MOL0     H23229   3.974   4.364   1.483  0.0557 -3.1726  0.9747
  913MOL0     H23230   4.050   4.229   1.418  0.0883  0.1608 -0.9599
  913MOL0     H23231   3.929   4.453   1.240 -0.9259 -0.6373 -1.9139
  913MOL0     H23232   4.035   4.327   1.191  1.6651  2.1195 -0.6273
  913MOL0     H23233   4.148   4.549   1.222 -1.4564  1.1229 -0.1949
  913MOL0     H23234   4.094   4.559   1.382  1.0918  1.4245 -1.9018
  913MOL0     H23235   3.075   4.581   1.239  0.0391 -0.9681 -1.2985
  913MOL0     H23236   2.841   4.512   1.260 -0.0118  1.0210  0.6274
  913MOL0     H23237   2.543   4.188   1.508  0.4046  0.3829 -1.1418
  913MOL0     H23238   2.310   4.235   1.574  1.3318  1.6724  1.3535
  913MOL0     H23239   0.469   4.217   1.465  1.1812  2.5763  0.5499
  913MOL0     H23240   0.407   4.001   1.576 -0.0578 -0.9691  1.8686
  913MOL0     H23241   0.712   3.488   1.685  0.0180  3.3243  0.7965
  913MOL0     H23242   0.617   3.263   1.728  1.3654  0.5106  0.4542
  913MOL0     H23243   0.221   3.110   1.871  0.4425 -0.2348  0.8013
  913MOL0     H23244   0.192   3.279   1.872 -0.4618  0.6554  2.0847
  913MOL0     H23245   0.181   3.197   2.087  0.2232 -1.6235  0.3242
  913MOL0     H23246   0.303   3.320   2.078  1.1967 -0.9868  2.5936
  913MOL0     H23247   0.480   3.175   2.104 -0.6972  1.7874 -0.4529
  913MOL0     H23248   0.384   3.034   2.040 -1.4762 -0.7588  1.0568
  913MOL0     H23249   0.444   3.002   2.264 -0.7450 -0.4913  1.9738
  913MOL0     H23250   0.397   3.163   2.316 -0.1917 -1.2156  1.7437
  913MOL0     H23251   0.016   3.000   2.323  0.2521  0.2347  0.0930
  913MOL0     H23252   0.274   3.451   1.892 -0.1479  0.9469 -0.2466
  913MOL0     H23253   0.309   3.746   1.696  0.4093 -2.6008 -1.0169
  913MOL0     H23254   0.200   3.651   1.798 -0.6824  0.3837  0.5441
  913MOL0     H23255   0.325   3.763   1.869  0.4431 -1.3057  1.0364
  914MOL0     O23256   0.906   0.505   2.225 -0.9954  0.5891  0.4174
  914MOL0     C23257   0.819   0.492   2.139 -0.7499  0.1789 -0.2779
  914MOL0     O23258   0.762   0.593   2.063  0.1841  0.2649 -0.3925
  914MOL0     C23259   0.819   0.718   2.033  0.0658  0.2220 -0.4193
  914MOL0     C23260   0.734   0.831   2.033 -0.0623  0.7242  0.2327
  914MOL0     C23261   0.794   0.951   2.013 -0.5175  0.0285  1.1821
  914MOL0     C23262   0.930   0.973   1.976 -0.2311  0.1812 -0.3775
  914MOL0     O23263   0.977   1.102   1.949 -0.3339 -0.3634 -0.3678
  914MOL0     C23264   1.116   1.123   1.937 -0.0056 -0.5080  0.5194
  914MOL0     C23265   1.144   1.275   1.935 -0.2259 -0.2932 -0.4303
  914MOL0     C23266   1.296   1.313   1.920  1.0014  0.3010  0.5490
  914MOL0     C23267   1.362   1.292   2.062  0.5776  0.5624 -0.0832
  914MOL0     C23268   1.498   1.361   2.065  0.7509 -0.1062  1.0053
  914MOL0     C23269   1.553   1.349   2.199  0.7264  0.0500 -0.4571
  914MOL0     C23270   1.688   1.429   2.213  0.1015  0.5460  0.9215
  914MOL0     C23271   1.667   1.569   2.274 -0.6699 -0.2259  0.1082
  914MOL0     N23272   1.680   1.572   2.424 -0.3133  0.3221  0.0516
  914MOL0     C23273   1.795   1.550   2.489 -0.5493  0.7812  0.4495
  914MOL0     C23274   1.782   1.593   2.616 -1.4163 -0.2538  0.1025
  914MOL0     C23275   1.893   1.577   2.715  0.4603 -0.1739  0.2236
  914MOL0     C23276   2.010   1.672   2.687  0.4906 -0.2853  0.0008
  914MOL0     C23277   2.130   1.592   2.701  1.3553 -0.5147 -1.0690
  914MOL0     C23278   2.159   1.507   2.578 -0.3388  0.5309 -0.1889
  914MOL0     O23279   2.273   1.431   2.615  0.0269  0.3389 -0.5860
  914MOL0     C23280   2.401   1.469   2.570  0.5352  0.9873 -0.7985
  914MOL0     C23281   2.506   1.378   2.617 -0.3896 -0.1310  1.1879
  914MOL0     C23282   2.642   1.400   2.595 -0.2941 -0.1138  0.3088
  914MOL0     C23283   2.682   1.517   2.529 -0.4610  0.0800  0.0066
  914MOL0     C23284   2.821   1.542   2.499 -0.3767 -0.3523  0.4018
  914MOL0     O23285   2.905   1.459   2.565 -0.3187  0.2916  0.7290
  914MOL0     C23286   3.041   1.476   2.556  0.7049  0.8830 -0.4711
  914MOL0     C23287   3.104   1.411   2.448  0.1536  0.4309  0.9695
  914MOL0     C23288   3.245   1.405   2.445 -0.4539 -0.1555  0.5634
  914MOL0     C23289   3.323   1.458   2.546 -0.4049  0.4528  0.5987
  914MOL0     O23290   3.456   1.442   2.543  0.6164  0.1053 -0.4267
  914MOL0     C23291   3.530   1.420   2.411  0.4458 -0.5616  0.4095
  914MOL0     C23292   3.582   1.273   2.396 -0.2628  0.1370 -1.0086
  914MOL0     C23293   3.672   1.238   2.510  0.0406  0.7781  0.3022
  914MOL0     C23294   3.723   1.092   2.490  0.3640  0.9718  0.1659
  914MOL0     C23295   3.853   1.071   2.571 -0.2894  1.1879 -0.4050
  914MOL0     C23296   3.910   0.927   2.561 -0.7722 -0.2391  0.3966
  914MOL0     C23297   4.058   0.936   2.582  0.5921  0.0076 -0.1957
  914MOL0     C23298   4.117   0.799   2.599  0.4562  0.5493 -0.8409
  914MOL0    Cl23299   4.291   0.789   2.585 -0.0705 -0.1281 -0.3292
  914MOL0     C23300   3.251   1.513   2.657 -0.6413 -0.0334  0.2086
  914MOL0     C23301   3.112   1.526   2.666  0.1543 -0.6747 -0.1858
  914MOL0     O23302   2.857   1.640   2.433 -0.3597 -0.2340 -0.3522
  914MOL0     C23303   2.578   1.603   2.487 -1.0597 -0.4284  0.6916
  914MOL0     C23304   2.445   1.586   2.508 -0.0303 -0.8407  0.1364
  914MOL0     N23305   1.655   1.652   2.624  0.3170  0.0082 -0.3708
  914MOL0     N23306   1.595   1.646   2.509 -0.2645 -0.0391 -0.4145
  914MOL0     C23307   1.004   0.855   1.981  0.0827  0.2704 -0.1002
  914MOL0     C23308   0.960   0.727   2.015 -1.1947 -0.2376  0.4541
  914MOL0     C23309   0.756   0.358   2.124  0.5256  0.3631  0.6833
  914MOL0     C23310   0.616   0.362   2.107 -0.3646  0.5176  0.6480
  914MOL0     C23311   0.550   0.240   2.091 -0.4990  0.5451  0.5457
  914MOL0     C23312   0.626   0.115   2.078  0.0394 -0.3041  0.3993
  914MOL0     O23313   0.573  -0.002   2.028  0.3456  0.0563  0.4227
  914MOL0     C23314   0.440  -0.018   1.980 -0.2555 -0.3085 -0.0394
  914MOL0     C23315   0.413  -0.159   1.940 -0.9911  0.7365  1.0103
  914MOL0     C23316   0.506  -0.214   1.824  0.5723  0.0854 -0.2001
  914MOL0     C23317   0.454  -0.358   1.793 -0.0028  0.2316 -0.5426
  914MOL0     C23318   0.327  -0.353   1.720  1.0313 -0.4814  0.5800
  914MOL0     C23319   0.223  -0.345   1.651  0.3521 -0.7504  0.2664
  914MOL0     C23320   0.762   0.116   2.085  0.3881 -0.6296 -0.1914
  914MOL0     C23321   0.828   0.238   2.115 -0.5226  0.1311  0.9892
  914MOL0     C23322   0.971   0.227   2.163  0.1898 -0.2461 -0.2770
  914MOL0     H23323   0.628   0.830   2.055 -0.3874  2.6387 -0.9569
  914MOL0     H23324   0.743   1.047   2.021 -1.4908 -0.3498 -0.0914
  914MOL0     H23325   1.171   1.070   2.016  0.7210  1.0174  1.0699
  914MOL0     H23326   1.145   1.085   1.839 -3.4406  3.1727 -2.2859
  914MOL0     H23327   1.108   1.312   2.031 -1.9599 -0.0788 -1.1416
  914MOL0     H23328   1.094   1.324   1.851  3.4329  0.3961 -2.4265
  914MOL0     H23329   1.287   1.421   1.902 -0.0992  0.5447  2.3007
  914MOL0     H23330   1.348   1.259   1.841 -0.0372  1.7453 -1.2059
  914MOL0     H23331   1.296   1.346   2.130 -1.5856 -0.0081 -1.6149
  914MOL0     H23332   1.377   1.185   2.079  0.1466  0.4422 -0.4330
  914MOL0     H23333   1.567   1.321   1.989 -1.9614  0.2682 -1.8468
  914MOL0     H23334   1.472   1.461   2.032 -1.0435 -0.4903  1.1466
  914MOL0     H23335   1.480   1.396   2.265 -0.3281 -0.1914 -1.4151
  914MOL0     H23336   1.556   1.244   2.227  0.9162 -0.0028 -0.6677
  914MOL0     H23337   1.746   1.438   2.121  2.6839  1.9929  2.5401
  914MOL0     H23338   1.755   1.376   2.281 -1.1253 -0.9081  1.0482
  914MOL0     H23339   1.748   1.635   2.239 -1.2915  1.6807  2.0160
  914MOL0     H23340   1.574   1.614   2.238  0.5552  1.2398 -1.3839
  914MOL0     H23341   1.885   1.511   2.443  0.2826  1.1091  1.7111
  914MOL0     H23342   1.854   1.604   2.814 -1.8548  2.1517 -1.1895
  914MOL0     H23343   1.918   1.471   2.726  0.2973 -0.1734  0.6306
  914MOL0     H23344   1.999   1.713   2.587 -1.7621 -1.8718 -0.4723
  914MOL0     H23345   1.993   1.755   2.757 -1.9733  1.5579 -2.5816
  914MOL0     H23346   2.117   1.525   2.786 -1.4086  1.4354  0.2126
  914MOL0     H23347   2.215   1.655   2.729  1.5510 -0.8743 -0.8579
  914MOL0     H23348   2.172   1.572   2.491  1.9548 -1.1094 -1.1891
  914MOL0     H23349   2.082   1.431   2.562  0.6997 -0.4620 -0.6273
  914MOL0     H23350   2.476   1.276   2.638 -0.6134 -0.2331  0.4157
  914MOL0     H23351   2.717   1.330   2.633  2.7368  2.2315 -0.8988
  914MOL0     H23352   3.046   1.364   2.369 -0.4768 -0.1436  1.7542
  914MOL0     H23353   3.278   1.346   2.360 -0.9599  1.7944 -1.0418
  914MOL0     H23354   3.464   1.435   2.326  3.7671 -3.1511 -2.9559
  914MOL0     H23355   3.612   1.492   2.406 -0.3249  0.5612  2.6003
  914MOL0     H23356   3.500   1.203   2.379  1.3407 -2.3044  0.6540
  914MOL0     H23357   3.631   1.264   2.299 -0.6395 -0.4500 -1.1480
  914MOL0     H23358   3.757   1.307   2.506 -1.0386  2.1013 -1.0714
  914MOL0     H23359   3.623   1.248   2.607 -1.6463 -0.5540 -0.3674
  914MOL0     H23360   3.733   1.066   2.385 -0.6729  0.2959  0.2246
  914MOL0     H23361   3.651   1.026   2.539  0.7850  1.0269  0.8876
  914MOL0     H23362   3.838   1.100   2.675 -4.7968  0.4797 -0.6323
  914MOL0     H23363   3.927   1.139   2.529 -0.6242  0.6929 -1.8643
  914MOL0     H23364   3.860   0.847   2.617  2.4617 -1.1860  2.1704
  914MOL0     H23365   3.910   0.900   2.455  1.7169  0.7802  0.0839
  914MOL0     H23366   4.076   0.993   2.673 -0.8490 -0.8869  0.6980
  914MOL0     H23367   4.101   0.987   2.495  0.6956 -3.2289 -2.2081
  914MOL0     H23368   4.085   0.746   2.689  1.2814 -1.8102 -1.8481
  914MOL0     H23369   4.071   0.729   2.530 -0.2106 -0.4388  0.5545
  914MOL0     H23370   3.314   1.541   2.741 -0.3342 -1.3611  0.4431
  914MOL0     H23371   3.057   1.565   2.751 -1.4547 -0.8441 -1.0989
  914MOL0     H23372   2.611   1.679   2.416  0.5297 -1.2749  0.4713
  914MOL0     H23373   2.378   1.662   2.469  2.5665 -0.1397 -3.5906
  914MOL0     H23374   1.111   0.861   1.967  0.0076 -0.3893 -1.0914
  914MOL0     H23375   1.016   0.635   2.032 -1.6896 -0.7825 -0.7421
  914MOL0     H23376   0.556   0.451   2.122 -0.2915  1.2146 -2.5149
  914MOL0     H23377   0.446   0.211   2.089 -0.0549 -1.5146  2.5795
  914MOL0     H23378   0.416   0.054   1.901  1.3081  2.6442  1.9919
  914MOL0     H23379   0.369   0.001   2.061 -0.5173 -2.0848  0.2013
  914MOL0     H23380   0.306  -0.169   1.919 -1.0207  1.5082  0.7751
  914MOL0     H23381   0.437  -0.217   2.029  1.8839 -0.1911 -0.2650
  914MOL0     H23382   0.612  -0.214   1.852 -0.1149  0.7333  2.8440
  914MOL0     H23383   0.509  -0.145   1.740 -2.6443 -0.6811 -1.0842
  914MOL0     H23384   0.537  -0.407   1.741  0.0949  1.7414 -1.8969
  914MOL0     H23385   0.423  -0.410   1.885 -1.6960  0.0835 -1.1580
  914MOL0     H23386   0.126  -0.336   1.605  0.4937  1.7457  0.3294
  914MOL0     H23387   0.821   0.026   2.075 -1.2698 -1.8534  0.5417
  914MOL0     H23388   1.022   0.135   2.134  2.0936  0.8572 -0.6303
  914MOL0     H23389   1.018   0.314   2.116 -3.1432  1.7178 -0.2887
  914MOL0     H23390   0.966   0.232   2.272 -0.5219 -2.6186 -0.1515
  915MOL0     O23391   1.858   7.358   3.995 -0.5209 -0.5896  0.1684
  915MOL0     C23392   1.821   7.242   3.998  0.1197  0.1882  0.5824
  915MOL0     O23393   1.903   7.139   4.008 -0.0331  0.3954  0.1187
  915MOL0     C23394   2.039   7.151   4.005 -0.0905 -0.3069  0.2257
  915MOL0     C23395   2.102   7.125   4.119 -0.2892  0.2770 -1.2200
  915MOL0     C23396   2.242   7.133   4.135 -0.4992 -0.3781  0.7857
  915MOL0     C23397   2.318   7.180   4.025 -1.0732 -0.4122 -0.5335
  915MOL0     O23398   2.456   7.189   4.015 -0.4884 -0.4174 -0.2793
  915MOL0     C23399   2.520   7.188   4.138  0.4894  0.3731 -0.0889
  915MOL0     C23400   2.670   7.194   4.114  0.2364  0.2346  0.2483
  915MOL0     C23401   2.718   7.280   3.989  0.3414  0.4948  0.1338
  915MOL0     C23402   2.817   7.383   4.038 -0.1797 -0.0438  0.4324
  915MOL0     C23403   2.873   7.474   3.922 -0.4830 -0.5382  0.3544
  915MOL0     C23404   2.961   7.391   3.834 -0.5750 -0.5943  0.1858
  915MOL0     C23405   3.012   7.463   3.712 -0.6224  0.0343 -0.1013
  915MOL0     C23406   3.135   7.553   3.744  0.2980 -0.0852  0.1743
  915MOL0     N23407   3.216   7.559   3.620  0.2519  0.0955 -0.7680
  915MOL0     C23408   3.238   7.663   3.532  0.0705  0.4222 -0.3609
  915MOL0     C23409   3.344   7.612   3.456 -0.1179  0.2360 -0.2138
  915MOL0     C23410   3.418   7.693   3.356 -0.7949  0.3524  0.1439
  915MOL0     C23411   3.572   7.697   3.382 -0.1550 -0.2756 -0.0185
  915MOL0     C23412   3.638   7.731   3.251 -0.1230  0.7131  0.1411
  915MOL0     C23413   3.799   7.751   3.252  0.4081  0.3386 -0.5932
  915MOL0     O23414   3.858   7.744   3.119 -0.4577  0.5220 -0.8269
  915MOL0     C23415   3.979   7.799   3.108 -0.0473  0.0653 -0.2057
  915MOL0     C23416   4.065   7.845   3.212  0.3458 -0.3164  0.0884
  915MOL0     C23417   4.181   7.912   3.180  0.7267 -0.1471 -0.4758
  915MOL0     C23418   4.218   7.932   3.046  0.4701  0.4309 -1.0371
  915MOL0     C23419   4.340   8.000   3.012 -1.3491 -0.1663 -0.2966
  915MOL0     O23420   4.407   8.065   3.127  0.0945  0.6149 -0.4198
  915MOL0     C23421   4.526   8.129   3.094 -0.2685 -0.0261  0.2857
  915MOL0     C23422   4.536   8.270   3.100 -0.2164 -0.2066  1.0345
  915MOL0     C23423   4.655   8.333   3.069 -0.3322 -0.3796 -1.0565
  915MOL0     C23424   4.768   8.268   3.025  1.2934  0.9434  0.2548
  915MOL0     O23425   4.879   8.342   2.986  0.0527  0.5625 -1.0850
  915MOL0     C23426   4.982   8.283   2.907  0.5547  0.1216 -0.1264
  915MOL0     C23427   5.093   8.381   2.875 -0.2135  0.3890  0.6064
  915MOL0     C23428   5.045   8.525   2.834 -0.7104 -0.3098 -0.5751
  915MOL0     C23429   5.158   8.629   2.788 -0.1851  0.0393  0.0940
  915MOL0     C23430   5.289   8.641   2.863 -0.1120  0.1301 -0.0132
  915MOL0     C23431   5.263   8.674   3.018 -0.4939 -0.2218  0.8246
  915MOL0     C23432   5.212   8.823   3.023  0.2783  0.0014 -0.4386
  915MOL0     C23433   5.229   8.872   3.166  0.0820 -0.0963  0.5148
  915MOL0    Cl23434   5.403   8.886   3.195  0.1990 -0.2956 -0.5441
  915MOL0     C23435   4.762   8.125   3.017  0.3692 -0.3605 -0.4680
  915MOL0     C23436   4.642   8.060   3.049  0.3416  0.2669 -0.9254
  915MOL0     O23437   4.389   8.002   2.896 -0.1991 -0.0292 -0.6118
  915MOL0     C23438   4.137   7.893   2.944 -0.1068 -0.9665  1.0048
  915MOL0     C23439   4.020   7.821   2.973  0.3723  0.5230  0.5311
  915MOL0     N23440   3.372   7.486   3.491 -0.0684 -0.3847 -0.0581
  915MOL0     N23441   3.295   7.451   3.589  0.5437 -0.4238 -0.1944
  915MOL0     C23442   2.253   7.209   3.904  0.4360 -0.0225 -0.3593
  915MOL0     C23443   2.114   7.199   3.899 -0.3352  0.4047 -0.1887
  915MOL0     C23444   1.676   7.211   3.982  0.3491  0.0975  0.1315
  915MOL0     C23445   1.622   7.091   4.038 -0.4297  0.2810 -0.9412
  915MOL0     C23446   1.489   7.049   4.020 -0.4068  0.3366 -0.0364
  915MOL0     C23447   1.403   7.131   3.943 -0.1080 -0.2489 -0.5018
  915MOL0     O23448   1.266   7.114   3.929 -0.4526  0.1996 -0.3781
  915MOL0     C23449   1.196   7.085   4.040 -0.4074 -0.2672  0.1292
  915MOL0     C23450   1.044   7.123   4.031 -0.1518  0.3825  0.1060
  915MOL0     C23451   0.961   7.028   3.939 -0.0624  0.5237  0.3797
  915MOL0     C23452   0.833   7.074   3.877  0.0888  0.6324 -0.7748
  915MOL0     C23453   0.734   7.130   3.961 -0.1275  0.2538 -0.5517
  915MOL0     C23454   0.667   7.195   4.034  0.1458  0.2017  0.1476
  915MOL0     C23455   1.458   7.254   3.887  0.4214 -0.0563 -0.0899
  915MOL0     C23456   1.590   7.291   3.900 -0.5933  0.8054 -1.1526
  915MOL0     C23457   1.634   7.412   3.817  0.2972  0.3556 -0.4155
  915MOL0     H23458   2.040   7.094   4.202 -0.6506  0.3685 -1.4500
  915MOL0     H23459   2.283   7.111   4.233  0.9198  1.3281  0.6394
  915MOL0     H23460   2.485   7.280   4.187 -0.7797 -1.3037  2.3493
  915MOL0     H23461   2.495   7.102   4.201 -1.7557  1.0329 -0.0048
  915MOL0     H23462   2.705   7.091   4.100 -1.4094 -0.4502  0.9504
  915MOL0     H23463   2.719   7.232   4.204  2.3009 -1.0736 -0.2463
  915MOL0     H23464   2.636   7.337   3.943  0.6874 -1.5300 -3.2768
  915MOL0     H23465   2.753   7.217   3.907 -0.2237  2.4678 -1.7109
  915MOL0     H23466   2.769   7.453   4.106  3.0196  0.8347  1.9951
  915MOL0     H23467   2.901   7.339   4.093  1.4164  2.3549  0.0349
  915MOL0     H23468   2.789   7.508   3.861 -0.5782  3.0783  2.2067
  915MOL0     H23469   2.918   7.568   3.957 -2.1206 -0.1128  1.4293
  915MOL0     H23470   3.047   7.360   3.894  0.3201  2.8506  0.8470
  915MOL0     H23471   2.911   7.302   3.795  0.9152 -0.6228 -1.8122
  915MOL0     H23472   2.938   7.529   3.666 -1.5700  1.4408  3.0994
  915MOL0     H23473   3.044   7.393   3.635  1.1465  1.7725 -1.0196
  915MOL0     H23474   3.098   7.653   3.767 -3.4931 -1.0689 -0.9120
  915MOL0     H23475   3.195   7.511   3.826  1.7181 -0.1854 -0.8932
  915MOL0     H23476   3.198   7.763   3.521 -1.1149 -0.1645 -1.7971
  915MOL0     H23477   3.411   7.650   3.256  2.6152  1.8572 -0.9078
  915MOL0     H23478   3.369   7.790   3.352 -0.0279  0.7573  0.3677
  915MOL0     H23479   3.607   7.773   3.453  1.0092 -0.9299  0.1322
  915MOL0     H23480   3.614   7.604   3.423 -0.6450 -0.7604 -0.5983
  915MOL0     H23481   3.590   7.821   3.211  3.7307  2.7911 -0.2482
  915MOL0     H23482   3.619   7.650   3.179 -1.3910  1.0092  0.1120
  915MOL0     H23483   3.851   7.681   3.319 -1.8770 -0.1538  0.7957
  915MOL0     H23484   3.807   7.848   3.302  2.9298 -0.5764  0.9353
  915MOL0     H23485   4.036   7.821   3.314 -0.4686  1.5780  0.3381
  915MOL0     H23486   4.242   7.944   3.264 -1.4975 -0.3852  1.3308
  915MOL0     H23487   4.448   8.329   3.123  0.1857  0.9511 -0.2348
  915MOL0     H23488   4.631   8.439   3.066 -0.5072 -0.4104 -0.7971
  915MOL0     H23489   5.034   8.203   2.961 -1.0543 -1.9008 -1.4170
  915MOL0     H23490   4.951   8.251   2.807  3.0975 -1.3612 -0.5078
  915MOL0     H23491   5.149   8.388   2.969 -1.9745 -0.6342  1.7694
  915MOL0     H23492   5.175   8.349   2.809  0.5358  1.9550  0.7235
  915MOL0     H23493   4.977   8.513   2.749 -1.4839  0.2435 -0.0469
  915MOL0     H23494   5.000   8.573   2.921 -1.7724 -1.5510 -0.4271
  915MOL0     H23495   5.124   8.732   2.771  2.9731  0.8292 -2.5833
  915MOL0     H23496   5.173   8.600   2.684  0.1593  0.7215 -0.0565
  915MOL0     H23497   5.355   8.706   2.804  1.5947 -1.8952 -0.4722
  915MOL0     H23498   5.343   8.546   2.858  0.5006  0.4106  0.9571
  915MOL0     H23499   5.185   8.609   3.058 -0.5945 -0.5356  0.1422
  915MOL0     H23500   5.352   8.648   3.076 -0.4849 -0.5926  0.6471
  915MOL0     H23501   5.106   8.831   2.996 -0.3066  1.2964  1.9768
  915MOL0     H23502   5.250   8.891   2.946 -1.8029 -2.4668 -3.9953
  915MOL0     H23503   5.176   8.967   3.181 -0.3957  0.0081 -1.5695
  915MOL0     H23504   5.187   8.793   3.229  0.3864  0.5163  1.5008
  915MOL0     H23505   4.851   8.065   3.003  0.6484 -0.6153  1.9709
  915MOL0     H23506   4.640   7.952   3.042 -2.2148  0.2962 -2.0298
  915MOL0     H23507   4.163   7.913   2.841 -0.3073 -0.9560  0.9555
  915MOL0     H23508   3.961   7.781   2.892  0.4644  1.8563 -0.2293
  915MOL0     H23509   2.313   7.252   3.825  2.5354  1.0383  1.6958
  915MOL0     H23510   2.070   7.225   3.803 -2.7155 -0.2407  0.6472
  915MOL0     H23511   1.671   7.018   4.102 -1.1285 -3.8558 -4.6367
  915MOL0     H23512   1.437   6.974   4.079 -1.8737  3.4132  2.9813
  915MOL0     H23513   1.226   7.133   4.134  1.9124  0.4201 -0.9120
  915MOL0     H23514   1.210   6.978   4.060 -0.4469 -0.0132  1.6287
  915MOL0     H23515   1.043   7.224   3.990  0.7021  0.2748 -0.2008
  915MOL0     H23516   1.006   7.119   4.134  0.3924  0.0691  0.3027
  915MOL0     H23517   0.932   6.948   4.007  0.3098 -0.4243 -0.5469
  915MOL0     H23518   1.025   6.994   3.857 -2.4647 -0.2613 -1.2877
  915MOL0     H23519   0.863   7.149   3.804 -1.0428  4.3642  2.2481
  915MOL0     H23520   0.786   6.991   3.824  1.2892 -0.7198  0.2012
  915MOL0     H23521   0.609   7.260   4.096  1.8085  0.0776  1.9252
  915MOL0     H23522   1.388   7.310   3.826 -0.3553  0.4263  1.2264
  915MOL0     H23523   1.648   7.498   3.882 -2.7868 -0.3234  1.3476
  915MOL0     H23524   1.722   7.387   3.758 -0.8561 -0.6218 -1.7895
  915MOL0     H23525   1.549   7.437   3.753  1.8588  0.8190 -2.3997
  916MOL0     O23526   9.025   7.322   7.346  0.2748  0.3548 -0.0159
  916MOL0     C23527   9.031   7.207   7.396  0.6174 -0.0544 -0.4466
  916MOL0     O23528   9.133   7.162   7.471  0.1211 -0.4455  0.2501
  916MOL0     C23529   9.233   7.257   7.484 -0.3671 -0.3099 -0.6447
  916MOL0     C23530   9.309   7.295   7.365  0.0949  0.8656  0.3110
  916MOL0     C23531   9.409   7.391   7.369  0.3543 -1.5689  0.3103
  916MOL0     C23532   9.446   7.432   7.494 -0.3962 -0.8502 -0.1180
  916MOL0     O23533   9.539   7.536   7.507  0.2153 -0.1435 -0.3736
  916MOL0     C23534   9.676   7.495   7.458 -0.4456  0.4130 -0.7041
  916MOL0     C23535   9.741   7.601   7.366  0.5467 -0.1225 -0.3927
  916MOL0     C23536   9.888   7.572   7.356  0.0791  0.2908 -0.0672
  916MOL0     C23537   9.977   7.604   7.482  0.2944 -0.0959  0.2809
  916MOL0     C23538  10.118   7.544   7.451 -0.2491  0.3309  0.4058
  916MOL0     C23539  10.151   7.394   7.475  0.4945  0.4496  0.3925
  916MOL0     C23540  10.300   7.366   7.456  0.4226  0.7861 -0.2608
  916MOL0     C23541  10.324   7.212   7.469 -0.8909  0.2327 -0.4850
  916MOL0     N23542  10.306   7.170   7.602  0.3490  0.1679  0.0018
  916MOL0     C23543  10.375   7.196   7.715 -0.6795  0.0126  0.5557
  916MOL0     C23544  10.319   7.115   7.808  0.9925 -0.4124  0.1743
  916MOL0     C23545  10.346   7.111   7.956 -0.4323 -0.3070  1.0307
  916MOL0     C23546  10.263   7.209   8.031  0.4863 -0.2167 -0.3590
  916MOL0     C23547  10.244   7.150   8.183 -0.3174 -0.2430 -0.7461
  916MOL0     C23548  10.374   7.138   8.274  0.5814  0.5444  0.5695
  916MOL0     O23549  10.440   7.262   8.261 -0.5675 -0.5039  0.6004
  916MOL0     C23550  10.554   7.278   8.329 -0.7235 -0.0252  0.1931
  916MOL0     C23551  10.622   7.398   8.307 -0.7482  0.3908 -0.2426
  916MOL0     C23552  10.750   7.418   8.362  0.0638  0.4381 -0.3064
  916MOL0     C23553  10.806   7.312   8.442  0.1614 -0.6529 -0.1744
  916MOL0     C23554  10.939   7.328   8.502 -0.6529  0.4071  0.5075
  916MOL0     O23555  11.009   7.214   8.520  0.0684  0.3900  0.0374
  916MOL0     C23556  11.134   7.221   8.578 -0.3081  0.8909 -0.1320
  916MOL0     C23557  11.149   7.235   8.718 -0.6927  0.7068 -0.5961
  916MOL0     C23558  11.275   7.230   8.770 -0.6204  0.6157  0.2111
  916MOL0     C23559  11.388   7.191   8.694  0.4430  0.1049  0.5023
  916MOL0     O23560  11.514   7.173   8.742 -0.6392  0.6087  0.2089
  916MOL0     C23561  11.520   7.108   8.864  0.8226  0.4052  0.4655
  916MOL0     C23562  11.655   7.039   8.872  0.1027 -0.1772  0.3586
  916MOL0     C23563  11.775   7.149   8.861 -0.4478 -0.6395 -0.0913
  916MOL0     C23564  11.785   7.250   8.978 -0.6613 -0.3087  0.4378
  916MOL0     C23565  11.915   7.324   8.976  0.7897 -0.3533 -0.0722
  916MOL0     C23566  11.928   7.408   9.103  0.1596 -0.6639 -0.1290
  916MOL0     C23567  12.048   7.507   9.095  0.5220 -0.6297 -0.5022
  916MOL0     C23568  12.174   7.437   9.091 -0.6033  0.9101 -0.3415
  916MOL0    Cl23569  12.217   7.372   9.263  0.3675 -0.1014  0.1641
  916MOL0     C23570  11.365   7.172   8.558 -0.3573 -1.1493  0.0362
  916MOL0     C23571  11.245   7.182   8.507  0.0467 -0.6814  0.5997
  916MOL0     O23572  10.978   7.444   8.521 -0.1111  0.0429 -0.7482
  916MOL0     C23573  10.734   7.199   8.465  0.3880 -0.6010 -0.6254
  916MOL0     C23574  10.609   7.182   8.408 -0.8667 -0.5710 -0.5288
  916MOL0     N23575  10.204   7.050   7.755  0.2886  0.4855  0.7425
  916MOL0     N23576  10.202   7.081   7.631 -0.6263  0.7158 -0.0541
  916MOL0     C23577   9.378   7.394   7.607 -0.5445 -0.4474 -0.1668
  916MOL0     C23578   9.275   7.306   7.610 -0.8635  0.4301 -0.2030
  916MOL0     C23579   8.913   7.125   7.367 -0.4359 -0.3147 -0.1261
  916MOL0     C23580   8.793   7.185   7.345  0.5154 -0.2486  1.0469
  916MOL0     C23581   8.670   7.113   7.311  0.0465  0.0705 -0.0272
  916MOL0     C23582   8.675   6.973   7.307 -0.3590 -0.7631 -0.4289
  916MOL0     O23583   8.570   6.892   7.292 -0.0420  0.2811  0.6832
  916MOL0     C23584   8.462   6.930   7.201 -0.8143 -0.7106 -0.3352
  916MOL0     C23585   8.353   6.823   7.213 -0.4273 -0.1403  1.1019
  916MOL0     C23586   8.341   6.738   7.093 -0.1348 -0.0995  0.3545
  916MOL0     C23587   8.262   6.798   6.968  1.2161  0.3063  0.1835
  916MOL0     C23588   8.136   6.855   7.004 -0.4495  0.3894 -0.1453
  916MOL0     C23589   8.031   6.908   7.036  0.2139 -0.4581 -0.5607
  916MOL0     C23590   8.795   6.913   7.350  0.5293  0.5413 -0.4340
  916MOL0     C23591   8.911   6.982   7.372 -0.7217 -1.3514 -1.0147
  916MOL0     C23592   9.032   6.888   7.398  1.0967  0.6348 -0.3713
  916MOL0     H23593   9.285   7.242   7.274 -1.4453  0.0985  1.1326
  916MOL0     H23594   9.462   7.420   7.279 -1.0092 -1.1044 -0.3528
  916MOL0     H23595   9.735   7.501   7.549 -0.1814  1.8153 -0.9326
  916MOL0     H23596   9.679   7.395   7.415 -0.8613  0.4094 -0.7329
  916MOL0     H23597   9.719   7.703   7.396 -1.9314 -0.7556  0.1964
  916MOL0     H23598   9.697   7.594   7.266 -1.1589 -0.6405  0.3559
  916MOL0     H23599   9.921   7.642   7.279  4.1930 -1.9741 -0.6405
  916MOL0     H23600   9.920   7.475   7.317  1.3498 -1.6187  4.9586
  916MOL0     H23601   9.975   7.712   7.500  0.0994 -0.3862  2.2094
  916MOL0     H23602   9.939   7.560   7.575 -1.4289 -1.1669 -0.8577
  916MOL0     H23603  10.144   7.580   7.351  0.1378  2.2659  1.1488
  916MOL0     H23604  10.185   7.598   7.519  0.9087 -1.1339  0.4706
  916MOL0     H23605  10.119   7.357   7.573  0.9635  0.5795  0.5998
  916MOL0     H23606  10.092   7.329   7.410  1.7112 -1.2356  0.9039
  916MOL0     H23607  10.355   7.422   7.533 -0.6003 -0.3826  1.4023
  916MOL0     H23608  10.337   7.400   7.359  0.9235 -0.4358 -0.5143
  916MOL0     H23609  10.256   7.167   7.397 -2.0691 -0.1307  0.8099
  916MOL0     H23610  10.425   7.183   7.439 -0.6117  0.9612 -0.2714
  916MOL0     H23611  10.452   7.270   7.739 -0.2780 -0.5660  1.0864
  916MOL0     H23612  10.326   7.013   8.000  0.2850 -0.5473  0.8442
  916MOL0     H23613  10.453   7.133   7.959 -0.5280  0.5382 -0.5691
  916MOL0     H23614  10.297   7.312   8.037  0.2665 -0.0569 -1.6578
  916MOL0     H23615  10.166   7.208   7.980  0.4090  1.3256 -0.2669
  916MOL0     H23616  10.200   7.050   8.171 -0.3831 -0.5987  1.8188
  916MOL0     H23617  10.168   7.208   8.236 -1.2077  1.3631 -3.5916
  916MOL0     H23618  10.444   7.064   8.235  2.2752  2.9746 -1.3763
  916MOL0     H23619  10.335   7.118   8.374  1.3566  0.7237  0.9110
  916MOL0     H23620  10.577   7.474   8.244  0.5054  0.6550 -0.8474
  916MOL0     H23621  10.805   7.510   8.348 -0.0049  1.1114  2.9968
  916MOL0     H23622  11.074   7.258   8.792 -0.9169  0.9309 -0.8892
  916MOL0     H23623  11.290   7.230   8.878  3.6601 -2.6789 -0.1050
  916MOL0     H23624  11.510   7.178   8.947 -3.4148  1.1396 -0.4266
  916MOL0     H23625  11.438   7.038   8.883  1.4745  0.3872  3.7488
  916MOL0     H23626  11.650   6.979   8.963 -2.2383  2.3194  2.0462
  916MOL0     H23627  11.660   6.964   8.793  2.5768 -0.2636  0.5438
  916MOL0     H23628  11.869   7.095   8.870 -0.4403 -0.7360 -0.7047
  916MOL0     H23629  11.776   7.192   8.761  1.0481 -2.6252 -0.9931
  916MOL0     H23630  11.794   7.204   9.077 -0.8123  0.1229  0.6576
  916MOL0     H23631  11.703   7.322   8.978  0.4896  1.0542 -0.0312
  916MOL0     H23632  11.922   7.394   8.892 -0.9007  2.1328  1.6925
  916MOL0     H23633  11.993   7.247   8.976 -0.0872 -1.3044  1.7901
  916MOL0     H23634  11.834   7.463   9.113 -1.2296 -2.8259 -0.7098
  916MOL0     H23635  11.932   7.342   9.190 -1.8150 -0.0129  0.5077
  916MOL0     H23636  12.057   7.568   9.185  1.0710 -1.3239 -0.0790
  916MOL0     H23637  12.042   7.569   9.005  0.3062  1.0333  0.6252
  916MOL0     H23638  12.181   7.348   9.028  3.9811 -0.2124  1.3270
  916MOL0     H23639  12.255   7.502   9.057 -0.6237 -0.5282 -3.4701
  916MOL0     H23640  11.452   7.154   8.496 -0.3032 -1.7224  0.2718
  916MOL0     H23641  11.244   7.162   8.400  1.6112 -1.0102  0.6195
  916MOL0     H23642  10.776   7.118   8.523 -0.2286 -1.2079 -1.0115
  916MOL0     H23643  10.569   7.082   8.419 -0.6880 -0.8069 -1.9073
  916MOL0     H23644   9.416   7.428   7.703 -3.5014 -0.8684  1.2997
  916MOL0     H23645   9.228   7.275   7.703 -1.2608  0.3948 -0.4135
  916MOL0     H23646   8.778   7.291   7.325 -2.4022 -0.2867  2.5858
  916MOL0     H23647   8.576   7.163   7.290  0.9506  0.4981 -3.7031
  916MOL0     H23648   8.507   6.932   7.102  0.5119 -1.0882  0.2360
  916MOL0     H23649   8.424   7.031   7.221 -1.2500 -0.7631 -0.8787
  916MOL0     H23650   8.259   6.871   7.241  0.9158  2.7327  1.0587
  916MOL0     H23651   8.374   6.768   7.306  3.4478 -0.6047  0.1364
  916MOL0     H23652   8.272   6.655   7.108 -1.7949  0.7257 -2.0506
  916MOL0     H23653   8.444   6.707   7.070 -0.2058  1.9161 -3.8261
  916MOL0     H23654   8.330   6.869   6.919  1.4037 -1.1273 -1.7733
  916MOL0     H23655   8.245   6.733   6.882  0.2562  1.5498 -0.6090
  916MOL0     H23656   7.936   6.957   7.047 -0.2060 -1.2506 -0.5747
  916MOL0     H23657   8.779   6.806   7.344 -2.3506  0.6750  2.2596
  916MOL0     H23658   9.070   6.906   7.499 -0.5656  1.3039  0.1710
  916MOL0     H23659   9.003   6.782   7.394 -2.2480  1.3813  0.4697
  916MOL0     H23660   9.105   6.909   7.320  1.1202 -1.6667 -1.0415
  917MOL0     O23661   2.063   3.856   8.158 -0.3929 -0.7514  0.0362
  917MOL0     C23662   2.036   3.845   8.279  0.3359 -0.1403  0.0181
  917MOL0     O23663   2.131   3.860   8.377  0.6981 -0.2641  0.0018
  917MOL0     C23664   2.246   3.929   8.342  0.1681 -0.2984  0.4111
  917MOL0     C23665   2.242   4.063   8.314  0.3909  0.2957  0.1122
  917MOL0     C23666   2.362   4.137   8.316 -1.0002  0.2583  0.4864
  917MOL0     C23667   2.487   4.077   8.347  0.2551 -0.2253  0.4454
  917MOL0     O23668   2.593   4.162   8.365 -0.5859 -0.4224  0.6905
  917MOL0     C23669   2.720   4.107   8.324  1.0931  0.2080  0.1786
  917MOL0     C23670   2.813   4.227   8.313 -0.5300 -0.1918  0.3894
  917MOL0     C23671   2.945   4.168   8.287 -0.6033 -0.5663  0.5030
  917MOL0     C23672   3.056   4.272   8.255  0.3326  0.0703  0.6033
  917MOL0     C23673   3.192   4.203   8.247 -0.4911  0.3831  0.1970
  917MOL0     C23674   3.303   4.308   8.279 -0.3170  0.0039  0.1500
  917MOL0     C23675   3.292   4.448   8.226  0.3519 -0.6487  0.6410
  917MOL0     C23676   3.429   4.520   8.254  0.6283 -1.0049 -0.8373
  917MOL0     N23677   3.450   4.630   8.164 -0.2651  0.1585 -0.2000
  917MOL0     C23678   3.511   4.618   8.047 -0.5785  0.6194  0.0410
  917MOL0     C23679   3.496   4.732   7.978 -0.2897  0.1005  0.2504
  917MOL0     C23680   3.568   4.777   7.855 -0.5827  0.1075  0.3857
  917MOL0     C23681   3.517   4.698   7.737 -0.8770  0.5201 -0.6389
  917MOL0     C23682   3.574   4.762   7.603 -0.6995 -0.8219 -0.1793
  917MOL0     C23683   3.730   4.734   7.593  0.5801  0.0411  0.0011
  917MOL0     O23684   3.767   4.780   7.467  0.7744  0.4833 -0.2687
  917MOL0     C23685   3.904   4.777   7.457 -0.2000 -1.2425  0.5932
  917MOL0     C23686   3.975   4.680   7.401 -0.2561 -0.0361  0.2691
  917MOL0     C23687   4.102   4.697   7.368 -0.5984 -0.6236  0.5676
  917MOL0     C23688   4.179   4.813   7.401 -0.0758  0.2413 -0.3343
  917MOL0     C23689   4.321   4.824   7.366  0.6093  0.5121 -0.6995
  917MOL0     O23690   4.397   4.928   7.411  0.8380 -0.5162  0.1961
  917MOL0     C23691   4.530   4.923   7.372  0.1003 -0.2738  0.2279
  917MOL0     C23692   4.589   4.972   7.252  0.0863 -0.0311  0.4265
  917MOL0     C23693   4.725   4.951   7.222 -0.0343  0.1715  0.0445
  917MOL0     C23694   4.807   4.875   7.300 -0.7167 -0.0229  0.0137
  917MOL0     O23695   4.932   4.852   7.255 -0.6793  0.3903 -0.0137
  917MOL0     C23696   5.005   4.738   7.307 -0.5471 -1.0809 -0.2756
  917MOL0     C23697   5.145   4.718   7.244  0.7883 -0.6002  0.5204
  917MOL0     C23698   5.231   4.838   7.250 -0.4803 -0.1151 -0.0228
  917MOL0     C23699   5.384   4.801   7.256 -0.0418  0.6985 -0.2682
  917MOL0     C23700   5.461   4.937   7.272 -0.1221  0.0032 -0.5744
  917MOL0     C23701   5.622   4.905   7.254  0.2828  1.3149  0.1237
  917MOL0     C23702   5.705   5.031   7.212 -0.2112 -0.5892 -0.0031
  917MOL0     C23703   5.845   5.012   7.272  0.7710 -0.4941  0.0543
  917MOL0    Cl23704   5.951   5.156   7.234  0.0948 -0.0105 -0.0419
  917MOL0     C23705   4.753   4.809   7.415  0.4281 -0.1692  0.1015
  917MOL0     C23706   4.614   4.848   7.450  0.4198  0.3733 -0.3063
  917MOL0     O23707   4.360   4.734   7.294 -0.0166  0.1589  0.0585
  917MOL0     C23708   4.100   4.920   7.450  0.8949  0.0511  0.5254
  917MOL0     C23709   3.964   4.905   7.474  0.3146  0.0510  0.6482
  917MOL0     N23710   3.415   4.815   8.055 -0.0642 -0.2324 -0.8038
  917MOL0     N23711   3.391   4.753   8.173  0.9302  0.0417  1.1630
  917MOL0     C23712   2.492   3.932   8.348  0.8651  0.4583 -0.4540
  917MOL0     C23713   2.364   3.857   8.350  0.3831  0.0086 -0.1912
  917MOL0     C23714   1.896   3.820   8.322  0.8716  0.7105  0.3461
  917MOL0     C23715   1.826   3.731   8.240 -0.1066 -0.5389 -0.5167
  917MOL0     C23716   1.699   3.689   8.277 -0.1873  0.5798  0.9835
  917MOL0     C23717   1.636   3.732   8.393 -0.7404  0.4563  0.6760
  917MOL0     O23718   1.512   3.690   8.416  0.2440  0.2674 -0.8712
  917MOL0     C23719   1.480   3.664   8.552  0.2587 -0.0335 -0.2306
  917MOL0     C23720   1.343   3.589   8.555 -0.3765 -0.9778  0.0575
  917MOL0     C23721   1.274   3.584   8.690  0.0786 -0.7122 -0.5742
  917MOL0     C23722   1.153   3.493   8.676  0.1580 -0.9266 -0.8389
  917MOL0     C23723   1.052   3.552   8.594  0.9917 -0.8565 -0.1009
  917MOL0     C23724   0.971   3.613   8.521  0.5166  0.3575  0.2881
  917MOL0     C23725   1.711   3.816   8.479 -0.9055 -0.3230 -0.5890
  917MOL0     C23726   1.844   3.861   8.447  0.4867  0.2545 -0.1246
  917MOL0     C23727   1.927   3.933   8.545  0.0283 -1.1511 -0.3142
  917MOL0     H23728   2.145   4.111   8.305 -0.4351 -1.5310 -1.3054
  917MOL0     H23729   2.358   4.244   8.298 -1.3032  0.4491  1.6295
  917MOL0     H23730   2.743   4.028   8.396 -2.2913 -2.0610 -0.9817
  917MOL0     H23731   2.715   4.056   8.227 -0.4097 -0.0486  0.3665
  917MOL0     H23732   2.806   4.289   8.403  2.8087  0.0048  0.6061
  917MOL0     H23733   2.776   4.282   8.226  0.7634 -2.4890 -1.7489
  917MOL0     H23734   2.933   4.094   8.207  0.7046  0.7661 -0.9735
  917MOL0     H23735   2.966   4.112   8.379 -0.2917 -3.0734 -0.9891
  917MOL0     H23736   3.034   4.325   8.162  0.4287  1.0476  1.1164
  917MOL0     H23737   3.058   4.343   8.338 -2.2820  0.1455  0.6949
  917MOL0     H23738   3.193   4.144   8.339 -1.5019 -2.5964 -1.5463
  917MOL0     H23739   3.215   4.141   8.160  3.2350  1.4896  0.2314
  917MOL0     H23740   3.301   4.313   8.388 -1.9240  2.7273  0.0775
  917MOL0     H23741   3.400   4.262   8.256  0.0758  0.5183  0.7362
  917MOL0     H23742   3.211   4.506   8.271  0.2482 -0.6416  0.4434
  917MOL0     H23743   3.263   4.450   8.121 -0.1936 -0.7494  0.7858
  917MOL0     H23744   3.433   4.569   8.352  0.1364  0.8226 -1.6757
  917MOL0     H23745   3.514   4.453   8.240  1.5486 -0.3678  1.2595
  917MOL0     H23746   3.573   4.537   8.009 -1.0674 -0.4867  1.5470
  917MOL0     H23747   3.563   4.886   7.843  0.8478  0.0286 -1.2563
  917MOL0     H23748   3.676   4.765   7.861 -0.3820  1.3568 -0.3703
  917MOL0     H23749   3.533   4.590   7.745  0.8931  0.8750  1.8936
  917MOL0     H23750   3.408   4.710   7.737 -1.1974 -0.7597  3.6512
  917MOL0     H23751   3.567   4.871   7.608 -1.3443 -0.8130 -1.0606
  917MOL0     H23752   3.518   4.729   7.515 -2.5740  3.4565 -0.8727
  917MOL0     H23753   3.749   4.627   7.590 -2.3204 -0.6301  1.6901
  917MOL0     H23754   3.799   4.783   7.663  3.1811 -0.0099 -2.3565
  917MOL0     H23755   3.928   4.585   7.378 -1.3214  0.4740  0.3007
  917MOL0     H23756   4.160   4.611   7.336 -1.4766 -0.9213 -0.2630
  917MOL0     H23757   4.535   5.020   7.171 -0.3022 -0.7916  0.2151
  917MOL0     H23758   4.767   4.995   7.132 -1.1061  0.7124 -0.2005
  917MOL0     H23759   5.023   4.764   7.412 -2.3127  0.5497 -0.3145
  917MOL0     H23760   4.946   4.646   7.297 -2.1620  0.0158 -1.3175
  917MOL0     H23761   5.190   4.625   7.280 -0.7209 -1.0346  1.3741
  917MOL0     H23762   5.125   4.701   7.138  0.0680 -0.0657  0.5612
  917MOL0     H23763   5.220   4.894   7.156  2.2711  0.4336 -0.0992
  917MOL0     H23764   5.201   4.910   7.327  2.6928  2.6350 -1.1184
  917MOL0     H23765   5.418   4.744   7.170  1.8775  1.2192  0.1120
  917MOL0     H23766   5.397   4.740   7.346 -0.4290  0.2427 -0.5135
  917MOL0     H23767   5.450   4.982   7.370 -1.7499  2.1037 -1.6434
  917MOL0     H23768   5.431   5.006   7.193 -0.0660  0.3443 -0.2995
  917MOL0     H23769   5.659   4.857   7.344 -0.4388 -0.3776 -0.4310
  917MOL0     H23770   5.629   4.839   7.167  0.3240  0.6398  0.6353
  917MOL0     H23771   5.657   5.124   7.245  0.3761 -0.1478 -0.3841
  917MOL0     H23772   5.707   5.025   7.103  0.7425 -1.2925  0.0388
  917MOL0     H23773   5.835   5.008   7.381  0.3906  0.5808  0.0670
  917MOL0     H23774   5.894   4.919   7.239  1.9831  0.4329 -0.8794
  917MOL0     H23775   4.807   4.742   7.481  0.0424 -0.3107  0.2753
  917MOL0     H23776   4.575   4.803   7.541  1.0086 -0.2319 -0.3494
  917MOL0     H23777   4.153   5.014   7.462  1.0169  0.4677 -2.4263
  917MOL0     H23778   3.913   4.987   7.524 -0.1377  0.9534 -1.2383
  917MOL0     H23779   2.588   3.883   8.355  0.3936 -0.2187  1.6749
  917MOL0     H23780   2.375   3.750   8.363 -2.2748 -0.3678 -0.5863
  917MOL0     H23781   1.862   3.713   8.139 -0.6523  1.1134 -1.0444
  917MOL0     H23782   1.636   3.632   8.208  1.0609 -1.0299  1.1104
  917MOL0     H23783   1.456   3.756   8.607 -0.7783 -1.0808  1.1217
  917MOL0     H23784   1.559   3.613   8.607 -0.6215 -3.0472 -1.5795
  917MOL0     H23785   1.347   3.485   8.522 -1.5371 -1.2914  0.8368
  917MOL0     H23786   1.284   3.652   8.488  1.8218  0.7664 -0.3824
  917MOL0     H23787   1.240   3.686   8.713  0.1452 -0.6875 -0.5860
  917MOL0     H23788   1.347   3.556   8.766 -1.3752 -2.3623  0.2837
  917MOL0     H23789   1.186   3.399   8.631  1.1414 -0.5070 -1.0218
  917MOL0     H23790   1.096   3.475   8.767 -1.9367 -2.0771 -2.3030
  917MOL0     H23791   0.906   3.659   8.450 -1.0104 -1.1615  0.6219
  917MOL0     H23792   1.670   3.834   8.578  0.6899 -0.9908  0.2242
  917MOL0     H23793   1.858   3.992   8.607 -1.2431 -2.4006 -0.4892
  917MOL0     H23794   1.984   3.873   8.616  2.5124  1.9800  0.5766
  917MOL0     H23795   2.001   4.003   8.506  1.4765 -3.2793 -1.5667
  918MOL0     O23796   1.384   2.337   3.883  0.8035  0.3700  0.5957
  918MOL0     C23797   1.311   2.432   3.859 -0.1757  0.3380  0.3799
  918MOL0     O23798   1.365   2.560   3.870  0.3058 -0.1486  0.0634
  918MOL0     C23799   1.492   2.581   3.898  0.0384 -0.4792  0.6429
  918MOL0     C23800   1.591   2.564   3.804 -0.2907  0.7841 -0.3332
  918MOL0     C23801   1.730   2.603   3.828  0.7515  0.1588  0.1839
  918MOL0     C23802   1.771   2.626   3.961 -0.1597  0.4282  0.2942
  918MOL0     O23803   1.900   2.626   4.003 -0.3349  0.1364  0.0764
  918MOL0     C23804   2.007   2.641   3.911 -0.1442  0.2858  0.4134
  918MOL0     C23805   2.132   2.670   3.986 -0.4340  0.3723  0.7892
  918MOL0     C23806   2.170   2.569   4.101 -0.2005  0.7290  0.0090
  918MOL0     C23807   2.288   2.630   4.182  0.3694  0.0483 -0.0625
  918MOL0     C23808   2.354   2.552   4.292  0.0072  0.1290  0.4597
  918MOL0     C23809   2.463   2.635   4.367 -0.6414  0.5558  0.2585
  918MOL0     C23810   2.549   2.526   4.440  0.1436 -0.3836 -0.2578
  918MOL0     C23811   2.668   2.589   4.512 -0.3277  0.6756 -0.2147
  918MOL0     N23812   2.621   2.658   4.633  0.6849 -0.2126  0.1630
  918MOL0     C23813   2.614   2.610   4.761  0.2429  0.1229 -0.2386
  918MOL0     C23814   2.537   2.693   4.828 -0.0816 -0.6395  0.4692
  918MOL0     C23815   2.497   2.701   4.974  0.2725 -0.3303  0.2478
  918MOL0     C23816   2.577   2.788   5.073 -0.8430 -0.1841  0.6789
  918MOL0     C23817   2.628   2.914   4.992  0.6560  0.6831  0.3439
  918MOL0     C23818   2.672   3.023   5.083  0.1286 -0.5119 -0.4513
  918MOL0     O23819   2.774   2.986   5.179 -0.1342 -0.8545  0.4441
  918MOL0     C23820   2.901   2.963   5.128  0.3158 -0.1434  0.5697
  918MOL0     C23821   2.987   2.890   5.208 -0.6604 -0.4874  0.9382
  918MOL0     C23822   3.123   2.889   5.178  0.2461 -0.8996 -0.0955
  918MOL0     C23823   3.176   2.963   5.060 -1.0073 -0.3806  0.2023
  918MOL0     C23824   3.314   2.967   5.016 -0.5866 -0.5742  0.1192
  918MOL0     O23825   3.383   2.854   5.036 -0.0356  0.0066  0.4152
  918MOL0     C23826   3.519   2.852   5.027  0.0120  0.3231  0.7554
  918MOL0     C23827   3.594   2.809   5.144 -0.8721 -0.4912  0.7980
  918MOL0     C23828   3.733   2.797   5.146  0.1708  0.6226  0.5049
  918MOL0     C23829   3.805   2.825   5.025 -0.4163  0.0922 -0.4770
  918MOL0     O23830   3.941   2.791   5.015  0.3749  0.4171 -0.2394
  918MOL0     C23831   4.008   2.723   5.119 -0.6581 -0.4983  0.2141
  918MOL0     C23832   4.155   2.697   5.087 -0.6853  0.0536  0.3907
  918MOL0     C23833   4.228   2.827   5.059  0.6540  0.1589 -0.1276
  918MOL0     C23834   4.373   2.794   5.017  0.0639 -0.3751  0.0641
  918MOL0     C23835   4.457   2.919   5.025 -0.7807 -0.0698 -0.2684
  918MOL0     C23836   4.567   2.899   4.920  0.3027 -0.4048 -0.3668
  918MOL0     C23837   4.660   3.017   4.920  0.2332  0.4276  0.1841
  918MOL0     C23838   4.778   2.980   4.820  0.9530  0.0059 -0.4768
  918MOL0    Cl23839   4.853   3.137   4.751 -0.2616  0.1121  0.8022
  918MOL0     C23840   3.732   2.872   4.915 -0.2435  0.2947  0.4620
  918MOL0     C23841   3.599   2.896   4.921  0.9382 -0.5997  0.4000
  918MOL0     O23842   3.360   3.066   4.963 -0.0259 -0.8814  0.2597
  918MOL0     C23843   3.087   3.025   4.977  0.1409  0.8862  0.1678
  918MOL0     C23844   2.956   3.035   5.018  1.1470 -0.1242 -0.5342
  918MOL0     N23845   2.493   2.796   4.740  0.1198 -1.1198  0.3809
  918MOL0     N23846   2.566   2.783   4.631  0.5374 -0.3183  0.4223
  918MOL0     C23847   1.668   2.621   4.059 -0.7366 -0.0783 -0.2917
  918MOL0     C23848   1.530   2.608   4.026 -0.2707  0.4344 -0.8175
  918MOL0     C23849   1.164   2.412   3.841  0.6108  0.2209 -0.4275
  918MOL0     C23850   1.118   2.284   3.872 -0.1764 -0.9657 -0.1200
  918MOL0     C23851   0.978   2.259   3.864  0.8158 -0.3548 -0.6323
  918MOL0     C23852   0.887   2.354   3.842  0.2722 -0.2959 -0.4669
  918MOL0     O23853   0.755   2.321   3.864  0.2030 -0.3155  0.1631
  918MOL0     C23854   0.647   2.414   3.812  0.2546  0.7338  0.4254
  918MOL0     C23855   0.503   2.374   3.835 -0.5653 -0.1101  0.9078
  918MOL0     C23856   0.466   2.248   3.755 -0.1290 -0.4031 -0.3904
  918MOL0     C23857   0.331   2.192   3.795  0.4087 -0.6067 -0.0084
  918MOL0     C23858   0.218   2.280   3.785  0.2092  0.2138  0.8920
  918MOL0     C23859   0.129   2.366   3.771 -0.5657  0.2674 -0.5762
  918MOL0     C23860   0.928   2.478   3.790  0.0227  0.1293  0.4921
  918MOL0     C23861   1.070   2.508   3.803  0.3134 -1.1307 -0.4211
  918MOL0     C23862   1.096   2.653   3.777 -0.0671 -0.6188  0.1615
  918MOL0     H23863   1.558   2.524   3.709 -3.2966  2.9843 -0.3598
  918MOL0     H23864   1.789   2.594   3.738  1.6451 -0.0811  0.7704
  918MOL0     H23865   2.034   2.550   3.856  0.0393 -0.5526  1.8196
  918MOL0     H23866   1.983   2.728   3.850  0.7691  0.7381  0.6704
  918MOL0     H23867   2.118   2.766   4.036  1.7513  1.2041 -0.1039
  918MOL0     H23868   2.219   2.683   3.921 -0.9128  0.7686  0.2212
  918MOL0     H23869   2.194   2.471   4.061  3.1508  2.0983 -1.7452
  918MOL0     H23870   2.079   2.569   4.162  0.5108  0.3766  1.0952
  918MOL0     H23871   2.365   2.670   4.116  0.1697 -2.8615 -2.3062
  918MOL0     H23872   2.243   2.717   4.230  2.4062  0.6435  0.8692
  918MOL0     H23873   2.273   2.510   4.352  0.0765 -2.3960 -1.0658
  918MOL0     H23874   2.394   2.469   4.233  0.9991  0.2834  0.9008
  918MOL0     H23875   2.521   2.694   4.296  1.3821 -1.7027 -0.1141
  918MOL0     H23876   2.418   2.702   4.440  0.0452  0.7149  0.5340
  918MOL0     H23877   2.571   2.445   4.370 -4.8512 -0.8167 -1.7255
  918MOL0     H23878   2.487   2.475   4.514 -0.7634  0.5099 -0.3820
  918MOL0     H23879   2.734   2.506   4.542 -0.4129  0.2907 -1.0728
  918MOL0     H23880   2.725   2.657   4.449 -0.3825  1.9793  1.0741
  918MOL0     H23881   2.648   2.516   4.803 -1.2415 -0.3834 -0.1303
  918MOL0     H23882   2.390   2.721   4.985  0.1442 -1.1812  0.6518
  918MOL0     H23883   2.520   2.599   5.008  3.2886  0.3041  0.3803
  918MOL0     H23884   2.513   2.825   5.153  1.9388  0.3731  2.7905
  918MOL0     H23885   2.662   2.732   5.112  0.4645  0.1428 -1.5150
  918MOL0     H23886   2.547   2.961   4.935 -0.7111 -0.3401  1.3784
  918MOL0     H23887   2.710   2.876   4.930 -0.7602 -1.6432 -0.2443
  918MOL0     H23888   2.586   3.053   5.142 -0.2222 -1.9568 -0.2106
  918MOL0     H23889   2.702   3.111   5.025  1.2753 -0.0123  0.8548
  918MOL0     H23890   2.941   2.841   5.293  1.5006  1.2856  3.2855
  918MOL0     H23891   3.187   2.842   5.252 -2.8527 -1.1213  2.6781
  918MOL0     H23892   3.533   2.765   5.223 -0.7211  0.0397  1.2131
  918MOL0     H23893   3.772   2.759   5.240 -1.0168  1.9939  1.5787
  918MOL0     H23894   4.025   2.777   5.213  1.9200  0.5273 -0.7529
  918MOL0     H23895   3.959   2.626   5.132 -0.1290 -0.9463 -0.9803
  918MOL0     H23896   4.208   2.638   5.163  1.6496 -0.8773 -1.8044
  918MOL0     H23897   4.158   2.637   4.996 -1.7773 -2.0635  1.6561
  918MOL0     H23898   4.188   2.896   4.984 -1.7045 -0.4497  0.4977
  918MOL0     H23899   4.234   2.884   5.152  1.1099  0.5226 -0.3789
  918MOL0     H23900   4.374   2.752   4.916  2.7861  0.2454 -0.2339
  918MOL0     H23901   4.432   2.726   5.080  1.0287  0.3431 -0.0417
  918MOL0     H23902   4.512   2.928   5.120 -2.0472 -1.2558  0.6240
  918MOL0     H23903   4.408   3.017   5.019 -0.3628  0.1491 -0.1707
  918MOL0     H23904   4.624   2.807   4.932  4.0710  1.2633 -3.2751
  918MOL0     H23905   4.524   2.888   4.820  0.1523  2.9840 -0.7942
  918MOL0     H23906   4.703   3.040   5.018  1.1510 -0.8489  0.1059
  918MOL0     H23907   4.605   3.107   4.890 -3.3717 -0.5040  3.2718
  918MOL0     H23908   4.855   2.914   4.861  0.5282 -1.6960 -2.2471
  918MOL0     H23909   4.737   2.927   4.733  1.2027 -1.3426  0.1996
  918MOL0     H23910   3.780   2.890   4.819 -1.7002 -0.4797 -0.4621
  918MOL0     H23911   3.551   2.932   4.830  3.6112  0.9592 -0.5072
  918MOL0     H23912   3.107   3.079   4.885 -0.1414 -1.0185 -1.0666
  918MOL0     H23913   2.889   3.106   4.970 -1.0008  0.8522  3.4639
  918MOL0     H23914   1.679   2.620   4.167 -2.3836 -3.0650 -0.0212
  918MOL0     H23915   1.452   2.605   4.101  0.0724 -1.3692 -0.4869
  918MOL0     H23916   1.184   2.204   3.902  0.3646  0.1545  1.7793
  918MOL0     H23917   0.943   2.158   3.884 -0.1168 -0.2084 -1.4133
  918MOL0     H23918   0.651   2.416   3.703 -1.8162 -0.9290  0.2581
  918MOL0     H23919   0.667   2.515   3.848 -0.2208  1.4232 -1.1413
  918MOL0     H23920   0.450   2.464   3.802 -1.0858 -0.2355  1.3951
  918MOL0     H23921   0.483   2.364   3.942 -0.8590 -1.7063  0.7235
  918MOL0     H23922   0.553   2.182   3.768  0.6299  0.5724 -0.3528
  918MOL0     H23923   0.464   2.260   3.647 -1.1795 -2.8087 -0.6933
  918MOL0     H23924   0.309   2.110   3.726  1.7527 -0.1508 -1.0195
  918MOL0     H23925   0.334   2.149   3.895  1.9609  1.2155  0.7956
  918MOL0     H23926   0.055   2.443   3.777 -0.6721  0.1204  0.0440
  918MOL0     H23927   0.853   2.547   3.753 -0.7992 -1.2583 -0.5693
  918MOL0     H23928   1.107   2.700   3.875 -0.9249 -1.3100  0.6130
  918MOL0     H23929   1.197   2.658   3.735  1.3322 -2.3419  2.9908
  918MOL0     H23930   1.014   2.705   3.726 -0.0904  0.9544  1.7268
  919MOL0     O23931   8.396   6.335   7.375  0.4064 -0.4279 -0.3761
  919MOL0     C23932   8.345   6.308   7.482  0.6312  0.5292  0.1716
  919MOL0     O23933   8.413   6.251   7.580 -0.1357  0.5836  0.3547
  919MOL0     C23934   8.547   6.276   7.611 -0.2290  0.5349  0.6031
  919MOL0     C23935   8.622   6.374   7.542 -0.1012 -0.6530 -0.5937
  919MOL0     C23936   8.757   6.411   7.574 -0.5006 -0.7403  0.3605
  919MOL0     C23937   8.825   6.323   7.673  0.2941 -0.1590  0.6456
  919MOL0     O23938   8.957   6.347   7.713 -0.2505 -0.2186 -0.2473
  919MOL0     C23939   9.058   6.327   7.611  0.3021  0.2879  0.4670
  919MOL0     C23940   9.168   6.433   7.613  0.8635  0.0040  0.4584
  919MOL0     C23941   9.127   6.573   7.571  1.1072 -0.6268  0.1568
  919MOL0     C23942   9.252   6.666   7.573 -0.0233  0.4584 -0.1374
  919MOL0     C23943   9.310   6.701   7.712 -0.1423  0.3808  0.3126
  919MOL0     C23944   9.210   6.772   7.802 -0.4182 -0.5969  0.1266
  919MOL0     C23945   9.282   6.792   7.937 -0.5779  0.0954  0.4983
  919MOL0     C23946   9.237   6.921   8.012 -0.1540 -0.4737  0.4530
  919MOL0     N23947   9.325   6.933   8.128 -0.4181  0.5900  0.4570
  919MOL0     C23948   9.459   6.981   8.138 -0.1018  0.9507  1.0170
  919MOL0     C23949   9.496   6.980   8.263  0.0782 -0.0469 -0.7192
  919MOL0     C23950   9.624   7.042   8.315  0.2736  0.3161  0.2123
  919MOL0     C23951   9.741   6.946   8.336  0.3833 -0.0224  0.1885
  919MOL0     C23952   9.861   7.024   8.396 -0.1887  0.3129 -0.1458
  919MOL0     C23953   9.983   6.924   8.423 -0.8445  0.2134  0.3605
  919MOL0     O23954  10.081   6.995   8.496  0.0015 -0.2103  0.1473
  919MOL0     C23955  10.182   6.925   8.550  0.8814  1.0078 -0.3998
  919MOL0     C23956  10.199   6.783   8.557 -0.2234 -0.2836 -0.3287
  919MOL0     C23957  10.317   6.731   8.616 -0.3946  0.7265  0.0681
  919MOL0     C23958  10.420   6.812   8.661 -0.1759 -0.7477 -0.7549
  919MOL0     C23959  10.543   6.764   8.713 -0.2344  0.0214  0.2019
  919MOL0     O23960  10.622   6.846   8.791 -0.0246  0.2515  0.0779
  919MOL0     C23961  10.753   6.809   8.803 -0.2277  0.1051  0.2150
  919MOL0     C23962  10.797   6.729   8.905  1.0836  0.5531 -0.2925
  919MOL0     C23963  10.937   6.699   8.927  0.6970  0.9742 -0.3692
  919MOL0     C23964  11.028   6.739   8.830  0.4659  0.3352 -0.0032
  919MOL0     O23965  11.148   6.694   8.853  0.1341 -0.2139  0.4853
  919MOL0     C23966  11.253   6.738   8.765  0.0797 -0.1407 -0.2086
  919MOL0     C23967  11.380   6.686   8.835  0.1913 -1.3846  0.0350
  919MOL0     C23968  11.493   6.684   8.731  0.2707 -0.1802 -0.4703
  919MOL0     C23969  11.617   6.624   8.802 -0.0503 -0.2468 -0.1765
  919MOL0     C23970  11.733   6.600   8.716  0.5131  0.2792 -0.7611
  919MOL0     C23971  11.861   6.549   8.789 -1.2041  0.2987 -0.1149
  919MOL0     C23972  11.979   6.499   8.699  0.2755 -0.8364 -0.2610
  919MOL0     C23973  12.080   6.422   8.783 -0.0779  0.2675 -0.0204
  919MOL0    Cl23974  12.148   6.513   8.926 -0.3915  0.4485 -0.0024
  919MOL0     C23975  10.980   6.815   8.721  0.8048  0.4559 -0.0391
  919MOL0     C23976  10.853   6.850   8.716  0.5228  0.2181  0.0862
  919MOL0     O23977  10.578   6.664   8.659  0.1707 -0.4210  0.7798
  919MOL0     C23978  10.396   6.953   8.647 -0.4336  1.0957 -0.1117
  919MOL0     C23979  10.284   7.006   8.593  0.8149 -0.3409 -0.4943
  919MOL0     N23980   9.392   6.927   8.342  0.4164  0.3309  0.3264
  919MOL0     N23981   9.292   6.902   8.257  0.0520  0.4527  0.6762
  919MOL0     C23982   8.742   6.230   7.736  0.4056  0.0809  0.4279
  919MOL0     C23983   8.615   6.197   7.708 -0.2729  0.4598  0.1880
  919MOL0     C23984   8.211   6.368   7.528  0.4631 -0.3099  0.1464
  919MOL0     C23985   8.172   6.342   7.664 -0.0002 -0.5095 -0.1174
  919MOL0     C23986   8.045   6.384   7.708 -0.4171  0.3328  0.7059
  919MOL0     C23987   7.950   6.438   7.625 -0.8371 -0.4786  0.2127
  919MOL0     O23988   7.835   6.467   7.695 -0.0208 -0.1232  0.1433
  919MOL0     C23989   7.725   6.516   7.624  0.0105 -0.7280  0.2078
  919MOL0     C23990   7.742   6.662   7.573  0.9518 -0.1577 -0.1431
  919MOL0     C23991   7.686   6.670   7.421  0.6312 -0.5568  0.1630
  919MOL0     C23992   7.533   6.688   7.422  0.0826 -0.2025  0.5409
  919MOL0     C23993   7.475   6.785   7.513 -0.1776 -0.2063 -0.2129
  919MOL0     C23994   7.434   6.856   7.609 -0.3052  0.6106 -0.2661
  919MOL0     C23995   7.978   6.457   7.488  0.2916 -0.3423  0.1880
  919MOL0     C23996   8.109   6.429   7.445 -0.1045 -0.0802  0.0306
  919MOL0     C23997   8.138   6.449   7.297 -0.1034  0.2539  0.2302
  919MOL0     H23998   8.579   6.433   7.462  2.4710  1.9134 -0.2478
  919MOL0     H23999   8.810   6.495   7.532  0.4493 -0.8995  1.2184
  919MOL0     H24000   9.109   6.233   7.629  2.7754  0.9974 -2.1548
  919MOL0     H24001   9.013   6.327   7.511  1.2159  1.2579  0.0375
  919MOL0     H24002   9.247   6.409   7.542  2.2108  0.6371  1.6952
  919MOL0     H24003   9.204   6.438   7.716  0.6557  2.6623  0.4712
  919MOL0     H24004   9.051   6.603   7.644  1.5005  2.0553 -0.4472
  919MOL0     H24005   9.080   6.573   7.472 -1.4410  0.3948  1.2746
  919MOL0     H24006   9.327   6.627   7.504  0.3671 -0.1660  0.6162
  919MOL0     H24007   9.223   6.762   7.529 -1.5845 -0.3885 -1.0548
  919MOL0     H24008   9.344   6.604   7.751  0.0762  0.5214  0.4722
  919MOL0     H24009   9.401   6.761   7.705  0.1782 -0.2040 -0.7440
  919MOL0     H24010   9.173   6.858   7.745 -1.3171 -1.3383 -0.4361
  919MOL0     H24011   9.122   6.708   7.811  0.0610 -1.5490 -1.6082
  919MOL0     H24012   9.390   6.808   7.929 -0.8926  2.4388  0.2719
  919MOL0     H24013   9.257   6.709   8.003 -0.5041  1.4123  2.2627
  919MOL0     H24014   9.233   7.015   7.955 -0.8013 -1.9546 -2.0785
  919MOL0     H24015   9.135   6.904   8.047 -1.4387  1.1712 -2.1773
  919MOL0     H24016   9.507   7.017   8.048 -4.0929 -0.6889 -2.1193
  919MOL0     H24017   9.652   7.124   8.248 -1.7124  3.8162  3.2966
  919MOL0     H24018   9.603   7.096   8.408  1.0695 -1.3533  1.4140
  919MOL0     H24019   9.709   6.861   8.398 -0.8011  0.1237 -0.2057
  919MOL0     H24020   9.782   6.905   8.243  1.2460  2.0527 -0.4012
  919MOL0     H24021   9.830   7.074   8.488 -2.1123 -1.9178  0.5229
  919MOL0     H24022   9.893   7.094   8.318 -0.2070 -2.3183 -2.6883
  919MOL0     H24023  10.023   6.907   8.323 -0.2749  0.4678  0.5412
  919MOL0     H24024   9.942   6.842   8.483 -0.0701  0.0796  0.7188
  919MOL0     H24025  10.123   6.718   8.515 -0.3873  0.5224 -1.3291
  919MOL0     H24026  10.319   6.622   8.616 -0.2199  0.7288  0.1392
  919MOL0     H24027  10.726   6.690   8.977 -0.2266  2.9846 -0.1347
  919MOL0     H24028  10.957   6.641   9.016  1.2377  1.6412 -0.0450
  919MOL0     H24029  11.235   6.679   8.674  1.0854 -0.2666 -0.3314
  919MOL0     H24030  11.258   6.843   8.737  1.3072 -1.1167 -4.3973
  919MOL0     H24031  11.397   6.753   8.920  0.7525 -0.6193 -0.6604
  919MOL0     H24032  11.372   6.581   8.862 -2.7741 -1.3360 -0.3473
  919MOL0     H24033  11.468   6.632   8.639 -0.8885  0.1643 -0.3602
  919MOL0     H24034  11.516   6.780   8.685 -1.9529  0.5558 -0.1615
  919MOL0     H24035  11.578   6.543   8.865  0.1893 -1.8448 -1.9607
  919MOL0     H24036  11.648   6.693   8.881  1.5652 -1.3341  0.1854
  919MOL0     H24037  11.761   6.697   8.674 -3.0241  2.0298  0.4652
  919MOL0     H24038  11.702   6.526   8.641 -0.1324  0.5691 -0.7890
  919MOL0     H24039  11.898   6.620   8.864 -1.9989  1.6350 -0.9585
  919MOL0     H24040  11.836   6.468   8.857 -0.4804  1.8281  2.0941
  919MOL0     H24041  12.044   6.576   8.657 -2.3524  1.5152 -0.3049
  919MOL0     H24042  11.930   6.437   8.623 -2.6504  1.3455 -0.3231
  919MOL0     H24043  12.031   6.331   8.819  1.0203  0.0578  1.0122
  919MOL0     H24044  12.169   6.407   8.720  0.4530  2.2719  0.1779
  919MOL0     H24045  11.045   6.849   8.641  0.6976  0.3056 -0.1904
  919MOL0     H24046  10.825   6.915   8.634  2.3289 -0.1741 -0.8898
  919MOL0     H24047  10.478   7.021   8.670 -0.5942  0.9819  0.8379
  919MOL0     H24048  10.268   7.113   8.590 -0.8801 -0.6093 -2.6615
  919MOL0     H24049   8.793   6.169   7.810  0.2289  0.8987  1.2481
  919MOL0     H24050   8.551   6.125   7.759  0.5492 -1.0913 -0.8875
  919MOL0     H24051   8.232   6.294   7.740 -1.6240 -1.0036  0.8883
  919MOL0     H24052   8.022   6.380   7.814  2.1146 -1.7633  1.2727
  919MOL0     H24053   7.635   6.530   7.686  0.5303  0.3599  0.7490
  919MOL0     H24054   7.701   6.440   7.549  2.9901 -2.3534  0.7575
  919MOL0     H24055   7.850   6.682   7.568  0.8647  0.4318  0.2078
  919MOL0     H24056   7.692   6.737   7.634  1.3057 -1.4362  1.7965
  919MOL0     H24057   7.708   6.585   7.355  2.7111  1.9435 -2.6453
  919MOL0     H24058   7.734   6.757   7.375 -2.2037  0.7294 -0.5691
  919MOL0     H24059   7.501   6.726   7.325  0.0176 -1.9817 -0.1754
  919MOL0     H24060   7.490   6.589   7.441 -0.1328 -0.4666 -1.2177
  919MOL0     H24061   7.396   6.926   7.681  0.6801  1.0540 -0.1644
  919MOL0     H24062   7.904   6.505   7.425  0.2637 -2.3301 -1.3789
  919MOL0     H24063   8.053   6.470   7.231  1.5021  0.1235 -1.9916
  919MOL0     H24064   8.199   6.540   7.291  0.1909  0.4590  3.8245
  919MOL0     H24065   8.196   6.368   7.251 -1.1118 -0.2448 -0.1875
  920MOL0     O24066   3.719   0.951   0.867 -0.2065 -0.5420 -0.2646
  920MOL0     C24067   3.670   0.948   0.981  0.7314  0.2308  0.8177
  920MOL0     O24068   3.713   1.014   1.083 -0.3877 -0.2331 -0.5505
  920MOL0     C24069   3.800   1.120   1.064 -0.3684 -0.6066 -0.4043
  920MOL0     C24070   3.932   1.096   1.018  0.3615 -0.4337 -0.2145
  920MOL0     C24071   4.029   1.198   1.000  0.0222  0.8083  0.3533
  920MOL0     C24072   4.010   1.329   1.044 -0.0622  0.6944 -0.4059
  920MOL0     O24073   4.107   1.417   1.010  0.1019 -0.4182 -0.9587
  920MOL0     C24074   4.137   1.513   1.114 -0.3701 -0.4876  0.3599
  920MOL0     C24075   4.240   1.614   1.051  0.1815 -0.0973 -0.9164
  920MOL0     C24076   4.361   1.549   1.001  0.2697 -0.0993 -0.3394
  920MOL0     C24077   4.440   1.665   0.938  0.0840 -0.2529  0.2618
  920MOL0     C24078   4.574   1.612   0.887 -0.2781  0.2808  0.0271
  920MOL0     C24079   4.655   1.727   0.809 -0.0830 -0.1799  0.6378
  920MOL0     C24080   4.799   1.690   0.786 -0.8354  0.1117 -0.1107
  920MOL0     C24081   4.824   1.556   0.734  0.6926  0.6705 -0.3770
  920MOL0     N24082   4.946   1.561   0.656  0.3264 -0.3538  0.1510
  920MOL0     C24083   5.059   1.618   0.706 -0.2705 -0.0632  1.7420
  920MOL0     C24084   5.132   1.646   0.590 -0.1192 -0.4762 -0.4179
  920MOL0     C24085   5.276   1.703   0.595 -0.4663 -0.2370  0.8932
  920MOL0     C24086   5.367   1.623   0.515  0.2809  0.5522 -0.2096
  920MOL0     C24087   5.507   1.688   0.505 -1.2701 -0.3995 -0.4294
  920MOL0     C24088   5.584   1.677   0.629 -0.2981 -0.4269  0.0063
  920MOL0     O24089   5.724   1.705   0.598 -0.1437  0.0113  0.2099
  920MOL0     C24090   5.821   1.702   0.698 -0.1198 -0.3603  0.2596
  920MOL0     C24091   5.952   1.708   0.652 -0.0629  0.2035 -0.2254
  920MOL0     C24092   6.054   1.686   0.746 -0.5115 -0.1961  0.1483
  920MOL0     C24093   6.031   1.684   0.885  0.7719  0.1588  0.2441
  920MOL0     C24094   6.152   1.676   0.986  0.6456  0.4210  0.5967
  920MOL0     O24095   6.282   1.654   0.945 -0.2861  0.2318  0.4110
  920MOL0     C24096   6.372   1.641   1.044  0.7721 -0.0055  0.5568
  920MOL0     C24097   6.411   1.757   1.112 -0.4458 -0.2886 -1.3333
  920MOL0     C24098   6.500   1.736   1.218 -0.0490  0.4539  0.0410
  920MOL0     C24099   6.545   1.610   1.252 -0.5777 -1.1771  0.1057
  920MOL0     O24100   6.617   1.592   1.367  0.2154 -0.1673  1.0629
  920MOL0     C24101   6.754   1.558   1.353 -0.3913 -0.2771 -0.1940
  920MOL0     C24102   6.853   1.683   1.374  1.0125  0.9993 -0.2172
  920MOL0     C24103   6.998   1.627   1.376 -0.8573 -0.1664  0.4317
  920MOL0     C24104   7.095   1.738   1.414  0.0401  0.4305 -0.4254
  920MOL0     C24105   7.241   1.681   1.435  1.3712 -0.5790  0.3074
  920MOL0     C24106   7.327   1.794   1.482  0.1227  0.3382 -0.1259
  920MOL0     C24107   7.471   1.747   1.495 -0.1294 -1.3090  0.2277
  920MOL0     C24108   7.573   1.869   1.480 -0.2829 -0.1368  0.3878
  920MOL0    Cl24109   7.734   1.801   1.501 -0.2774 -0.2588 -0.3487
  920MOL0     C24110   6.528   1.500   1.163  0.4142 -0.4423 -1.0238
  920MOL0     C24111   6.439   1.514   1.057 -0.3398 -0.2418 -0.0563
  920MOL0     O24112   6.112   1.670   1.099  0.4200 -0.2442 -0.4235
  920MOL0     C24113   5.895   1.679   0.930 -0.1988  0.8783  0.0852
  920MOL0     C24114   5.791   1.689   0.834  0.0951 -1.0624  0.2922
  920MOL0     N24115   5.053   1.613   0.479 -0.5050  0.2290 -0.7755
  920MOL0     N24116   4.949   1.557   0.523  0.6113 -0.2194 -0.1801
  920MOL0     C24117   3.887   1.353   1.106  0.2375 -0.5584 -0.3142
  920MOL0     C24118   3.775   1.254   1.102 -0.4317 -0.2780  0.7289
  920MOL0     C24119   3.555   0.848   1.007 -0.1747  0.1236  0.5822
  920MOL0     C24120   3.496   0.844   1.130 -0.6237 -0.1686  0.3693
  920MOL0     C24121   3.401   0.752   1.167  0.7510  0.6611  0.5006
  920MOL0     C24122   3.340   0.663   1.077  0.0457 -0.2100 -0.2797
  920MOL0     O24123   3.239   0.584   1.117 -0.1851  0.0598  0.1030
  920MOL0     C24124   3.161   0.518   1.015  0.2148 -0.2981 -0.6513
  920MOL0     C24125   3.042   0.442   1.072 -0.0782  0.1298 -0.0809
  920MOL0     C24126   2.945   0.545   1.148 -1.4908 -0.4526  0.4269
  920MOL0     C24127   2.856   0.631   1.060  0.6302  0.3428  0.2019
  920MOL0     C24128   2.732   0.670   1.124 -0.0669 -0.5050  0.2021
  920MOL0     C24129   2.619   0.698   1.170  0.4084  0.3085  1.2589
  920MOL0     C24130   3.402   0.662   0.950  0.2954 -0.2978 -0.5689
  920MOL0     C24131   3.502   0.759   0.912 -0.2354 -0.2281  0.0295
  920MOL0     C24132   3.548   0.756   0.770  0.3913  0.0332  0.0225
  920MOL0     H24133   3.961   0.998   0.981  1.0073 -0.2336 -0.2519
  920MOL0     H24134   4.120   1.172   0.947 -0.0392 -2.0327  1.4726
  920MOL0     H24135   4.053   1.562   1.166 -1.2166 -2.4440  0.9285
  920MOL0     H24136   4.185   1.465   1.200  0.3131  0.6269  0.6195
  920MOL0     H24137   4.262   1.691   1.125  0.7892 -0.9932 -0.1315
  920MOL0     H24138   4.188   1.669   0.972 -4.5732 -2.1944  0.3779
  920MOL0     H24139   4.344   1.473   0.923  0.3181 -0.3566 -0.1013
  920MOL0     H24140   4.416   1.492   1.076 -2.5538 -2.7043 -0.0287
  920MOL0     H24141   4.383   1.716   0.860 -1.2352 -1.0425  0.6860
  920MOL0     H24142   4.454   1.747   1.008  1.5335 -0.9752  0.8582
  920MOL0     H24143   4.628   1.576   0.975  1.2502 -0.2828 -1.0755
  920MOL0     H24144   4.554   1.521   0.830 -1.4539 -1.0326  2.4106
  920MOL0     H24145   4.621   1.746   0.707  1.5884 -1.2194 -0.1440
  920MOL0     H24146   4.645   1.828   0.852 -0.3500 -0.6823  1.7929
  920MOL0     H24147   4.855   1.693   0.880  0.9487 -1.4846 -1.0515
  920MOL0     H24148   4.844   1.766   0.722  2.1910 -0.6619  0.9435
  920MOL0     H24149   4.857   1.489   0.814  0.1699 -0.5105 -1.1179
  920MOL0     H24150   4.742   1.511   0.678  1.7239 -1.1093 -0.5565
  920MOL0     H24151   5.088   1.622   0.810  0.3411  0.0148  1.5753
  920MOL0     H24152   5.267   1.803   0.552  1.6378 -0.1483  0.5375
  920MOL0     H24153   5.297   1.708   0.702  1.6320 -2.2534  0.6546
  920MOL0     H24154   5.377   1.524   0.561 -1.4048  0.6083  0.3417
  920MOL0     H24155   5.328   1.611   0.413  0.4223  0.0027 -0.2048
  920MOL0     H24156   5.505   1.793   0.475  1.1310  0.2826  1.4385
  920MOL0     H24157   5.558   1.638   0.422  2.5609  1.5774  0.4749
  920MOL0     H24158   5.571   1.585   0.686  0.4626  0.3623  1.5148
  920MOL0     H24159   5.547   1.745   0.707  0.9002 -2.2331  2.2904
  920MOL0     H24160   5.978   1.716   0.547  0.0460  0.8113 -0.1581
  920MOL0     H24161   6.155   1.667   0.710 -1.7712 -2.4074 -2.6347
  920MOL0     H24162   6.373   1.855   1.085  0.3971  0.9707  1.5347
  920MOL0     H24163   6.525   1.820   1.282  1.8557  0.5503 -0.7488
  920MOL0     H24164   6.782   1.487   1.431  2.7970  0.6434 -0.3610
  920MOL0     H24165   6.784   1.524   1.253  0.0220  2.8436 -1.2422
  920MOL0     H24166   6.852   1.740   1.281  0.3287  0.1233 -0.7745
  920MOL0     H24167   6.819   1.735   1.464 -4.0682  1.4700 -2.0608
  920MOL0     H24168   7.011   1.553   1.456 -3.7709 -1.9281 -0.5864
  920MOL0     H24169   7.028   1.583   1.281  0.0157  1.1957  0.0533
  920MOL0     H24170   7.063   1.786   1.507  1.4896  0.8614 -0.1238
  920MOL0     H24171   7.085   1.823   1.346  0.2176  1.4636  0.8030
  920MOL0     H24172   7.286   1.657   1.338  2.0629 -0.9737  0.7159
  920MOL0     H24173   7.247   1.591   1.496  1.0351  0.2740  1.6338
  920MOL0     H24174   7.325   1.862   1.396 -0.4987 -0.5519 -0.8338
  920MOL0     H24175   7.292   1.831   1.579  1.1663  0.4105  0.2344
  920MOL0     H24176   7.494   1.673   1.417 -2.7921 -1.9341 -0.0788
  920MOL0     H24177   7.489   1.697   1.590  0.2218  1.1398  1.5270
  920MOL0     H24178   7.582   1.922   1.385 -0.4666  0.0658  0.4810
  920MOL0     H24179   7.556   1.934   1.567  0.3634  1.3269 -0.5563
  920MOL0     H24180   6.558   1.400   1.192  4.1261  1.0429  0.9389
  920MOL0     H24181   6.414   1.431   0.991 -1.3883 -0.3220  0.4113
  920MOL0     H24182   5.875   1.664   1.036  0.2789 -3.3820 -0.2513
  920MOL0     H24183   5.688   1.679   0.867  0.2793  0.5940  1.4913
  920MOL0     H24184   3.870   1.454   1.142  2.9606 -0.2925  0.4754
  920MOL0     H24185   3.680   1.277   1.149 -1.6433  0.2659 -1.8191
  920MOL0     H24186   3.522   0.914   1.209 -1.0959  1.5184 -0.8999
  920MOL0     H24187   3.366   0.730   1.268  0.3225  1.4632  0.5413
  920MOL0     H24188   3.228   0.447   0.966  3.1002  1.2962  0.6984
  920MOL0     H24189   3.124   0.598   0.950  1.4332  0.9485  0.1374
  920MOL0     H24190   3.082   0.388   1.158 -2.9837 -0.1547  1.2256
  920MOL0     H24191   2.998   0.380   0.992 -1.7938  1.0162  0.1261
  920MOL0     H24192   3.005   0.615   1.208 -1.9120  0.6246 -0.3715
  920MOL0     H24193   2.891   0.481   1.218 -1.7417  1.9208  2.5304
  920MOL0     H24194   2.901   0.731   1.053 -1.1178  1.2050  0.5859
  920MOL0     H24195   2.850   0.575   0.966 -0.4595 -1.8423  1.5089
  920MOL0     H24196   2.520   0.714   1.205 -0.5421  0.8352 -1.4126
  920MOL0     H24197   3.380   0.594   0.868  1.9400 -0.7469 -0.6750
  920MOL0     H24198   3.478   0.699   0.707  0.2246  2.7532 -2.4515
  920MOL0     H24199   3.529   0.850   0.718 -3.6527 -1.5549 -1.8430
  920MOL0     H24200   3.650   0.716   0.768  0.6206  0.2962 -4.7230
  921MOL0     O24201   7.914   9.757   6.879  0.1029  0.5652 -0.5299
  921MOL0     C24202   7.964   9.644   6.863 -0.3346  0.2623  0.4361
  921MOL0     O24203   8.102   9.626   6.858  0.1458 -0.0866 -0.0499
  921MOL0     C24204   8.178   9.741   6.847  0.0301 -1.2003  0.2027
  921MOL0     C24205   8.207   9.823   6.963 -0.9692  0.0821  0.2339
  921MOL0     C24206   8.266   9.945   6.943  0.1284 -0.3496  0.1206
  921MOL0     C24207   8.314   9.986   6.820 -0.2225  0.3990 -0.4865
  921MOL0     O24208   8.382  10.104   6.793  0.6499 -0.4827 -0.5377
  921MOL0     C24209   8.487  10.150   6.883  1.0184 -0.2986  0.3482
  921MOL0     C24210   8.500  10.294   6.843 -0.3767  0.1413 -0.0710
  921MOL0     C24211   8.606  10.375   6.923 -0.3787  0.1974 -0.6685
  921MOL0     C24212   8.634  10.518   6.871  0.8755  0.3242  0.0789
  921MOL0     C24213   8.733  10.587   6.963 -0.7066  0.1744 -0.1443
  921MOL0     C24214   8.757  10.733   6.931  0.3523 -0.6293  0.0856
  921MOL0     C24215   8.885  10.796   6.996  0.3986 -0.0761  1.1208
  921MOL0     C24216   9.013  10.719   6.967 -1.1189 -0.2114 -0.6964
  921MOL0     N24217   9.132  10.777   7.033 -0.7005  0.4119 -0.0545
  921MOL0     C24218   9.141  10.815   7.168 -0.2107  0.4908  0.6109
  921MOL0     C24219   9.271  10.843   7.174 -0.8403 -1.0382 -0.4425
  921MOL0     C24220   9.331  10.897   7.300 -0.3688  0.6854 -0.1262
  921MOL0     C24221   9.457  10.986   7.282 -0.1756  0.0555  0.0943
  921MOL0     C24222   9.513  11.029   7.419  0.2810  0.0063  0.5284
  921MOL0     C24223   9.629  11.127   7.408  0.1987 -0.0451  0.4823
  921MOL0     O24224   9.643  11.214   7.526  0.8151 -0.2544 -0.6157
  921MOL0     C24225   9.744  11.183   7.614 -0.2119  0.6266 -0.3203
  921MOL0     C24226   9.799  11.288   7.688 -0.1555 -0.3746  0.6247
  921MOL0     C24227   9.911  11.270   7.769 -0.1659  0.0293 -0.0651
  921MOL0     C24228   9.953  11.140   7.807 -0.0060 -0.6699 -0.2712
  921MOL0     C24229  10.077  11.112   7.890  0.2386 -0.8764  0.8355
  921MOL0     O24230  10.156  11.214   7.919  0.3942  0.4923 -0.5012
  921MOL0     C24231  10.242  11.228   8.023  0.1530 -0.2692 -0.5822
  921MOL0     C24232  10.330  11.337   8.003  0.3562 -0.1265 -0.5806
  921MOL0     C24233  10.439  11.358   8.095  0.8044 -0.6316  0.1361
  921MOL0     C24234  10.448  11.283   8.210 -0.3555 -0.4389  0.9392
  921MOL0     O24235  10.545  11.320   8.301 -0.0390  0.5940  0.2436
  921MOL0     C24236  10.513  11.327   8.443  0.4100  0.2474 -0.4120
  921MOL0     C24237  10.542  11.196   8.532  0.0404  0.3255 -0.2385
  921MOL0     C24238  10.686  11.178   8.550 -0.0176 -0.6987 -0.5039
  921MOL0     C24239  10.757  11.284   8.642  0.3756  0.0882  0.3792
  921MOL0     C24240  10.905  11.240   8.673  0.9168 -0.2840 -1.1210
  921MOL0     C24241  10.980  11.271   8.554 -0.4237  0.5102 -0.2726
  921MOL0     C24242  11.120  11.213   8.571 -0.1995 -0.6444  0.6573
  921MOL0     C24243  11.213  11.230   8.452 -1.3308  0.3813 -0.7460
  921MOL0    Cl24244  11.275  11.400   8.447 -0.5097 -0.3939 -0.3332
  921MOL0     C24245  10.357  11.178   8.232 -0.3966  0.1776  0.3666
  921MOL0     C24246  10.263  11.142   8.132 -0.4346  0.1303  0.1857
  921MOL0     O24247  10.093  10.996   7.931  0.2376  0.1210 -0.2797
  921MOL0     C24248   9.881  11.029   7.750  0.3045 -0.0698  0.0192
  921MOL0     C24249   9.788  11.057   7.650  0.7809  0.4347  0.3629
  921MOL0     N24250   9.343  10.817   7.055 -0.2356  0.2810 -0.2913
  921MOL0     N24251   9.256  10.783   6.973 -0.1203 -0.1647  0.4436
  921MOL0     C24252   8.292   9.903   6.707  0.1840 -0.6615 -0.1535
  921MOL0     C24253   8.220   9.781   6.722 -0.0797 -0.0046  0.3698
  921MOL0     C24254   7.877   9.520   6.876  0.6418 -0.5673  0.6351
  921MOL0     C24255   7.941   9.392   6.853  0.0378 -0.5013  0.1345
  921MOL0     C24256   7.859   9.272   6.848 -0.1108 -0.7762  0.0037
  921MOL0     C24257   7.721   9.275   6.865 -0.4916  0.3685 -0.3196
  921MOL0     O24258   7.646   9.165   6.843  0.1480 -0.1139  0.1443
  921MOL0     C24259   7.639   9.071   6.947 -0.3165  0.7612  0.5089
  921MOL0     C24260   7.614   9.124   7.087  0.7975  0.2795 -0.1685
  921MOL0     C24261   7.465   9.173   7.099  1.0011  0.6141  0.2181
  921MOL0     C24262   7.361   9.063   7.104  0.4239  0.1275  0.0328
  921MOL0     C24263   7.380   8.983   7.226  0.2972 -0.1555  0.3781
  921MOL0     C24264   7.392   8.903   7.313  0.0056  0.3859 -0.3090
  921MOL0     C24265   7.664   9.398   6.875  0.3267 -0.4109 -0.5799
  921MOL0     C24266   7.738   9.517   6.885  0.0771 -0.7720 -0.4139
  921MOL0     C24267   7.657   9.644   6.892 -0.8157 -0.9535  0.0408
  921MOL0     H24268   8.180   9.797   7.065 -3.9491  1.1454 -0.1703
  921MOL0     H24269   8.269  10.009   7.031  0.9553 -0.0445 -0.1174
  921MOL0     H24270   8.461  10.138   6.989 -1.2455  0.0830 -0.1216
  921MOL0     H24271   8.577  10.089   6.867  2.7764  2.7657 -3.0539
  921MOL0     H24272   8.405  10.349   6.847 -0.6514 -0.0873 -2.4537
  921MOL0     H24273   8.546  10.301   6.744  0.0455  1.2333  0.1818
  921MOL0     H24274   8.707  10.335   6.918  0.1210  0.9636  1.8697
  921MOL0     H24275   8.574  10.384   7.028 -1.6801  1.4809 -1.1481
  921MOL0     H24276   8.670  10.517   6.768 -0.6056  3.4501 -0.6111
  921MOL0     H24277   8.541  10.576   6.865  0.7895  0.0463 -2.0031
  921MOL0     H24278   8.690  10.585   7.064  0.3531 -2.7953  0.3258
  921MOL0     H24279   8.820  10.520   6.966 -0.8015  0.0750  0.7610
  921MOL0     H24280   8.770  10.743   6.823  2.4701  1.4121  0.4585
  921MOL0     H24281   8.670  10.791   6.961  1.3432  0.1941  1.5057
  921MOL0     H24282   8.864  10.822   7.100 -2.8492  0.2242  0.4929
  921MOL0     H24283   8.885  10.897   6.952  1.4747 -0.1176  0.9842
  921MOL0     H24284   9.020  10.623   7.018  2.4014  1.1970  1.8442
  921MOL0     H24285   9.030  10.713   6.859 -2.7364  1.1756 -1.0781
  921MOL0     H24286   9.057  10.820   7.236 -1.5523 -0.9731 -0.8503
  921MOL0     H24287   9.253  10.961   7.342  0.2310  2.5060 -1.6630
  921MOL0     H24288   9.358  10.816   7.369 -1.3042  0.3759 -0.1028
  921MOL0     H24289   9.537  10.932   7.231  1.4825  1.2405  1.3006
  921MOL0     H24290   9.436  11.075   7.222 -1.4296 -1.6009 -2.0481
  921MOL0     H24291   9.534  10.937   7.475 -0.8961 -0.2045  0.6461
  921MOL0     H24292   9.437  11.083   7.475 -0.9796  0.3487 -1.4359
  921MOL0     H24293   9.619  11.187   7.317 -5.1506 -1.3260 -0.0817
  921MOL0     H24294   9.723  11.073   7.391 -0.6224 -2.1322  2.1413
  921MOL0     H24295   9.762  11.388   7.669 -0.0378  0.5528  4.4834
  921MOL0     H24296   9.965  11.359   7.801  3.0382 -0.9635 -2.2157
  921MOL0     H24297  10.343  11.381   7.905  2.3882 -0.3831 -0.4782
  921MOL0     H24298  10.513  11.434   8.071 -1.2456  1.4199 -0.0717
  921MOL0     H24299  10.569  11.411   8.485  2.4792 -0.3142 -1.9302
  921MOL0     H24300  10.405  11.342   8.457 -0.2692 -3.5465 -0.5883
  921MOL0     H24301  10.491  11.200   8.629 -1.8414  1.5325 -1.2026
  921MOL0     H24302  10.502  11.102   8.492  1.2584 -0.8080  1.0985
  921MOL0     H24303  10.702  11.083   8.601  2.5066 -0.8703 -1.4982
  921MOL0     H24304  10.737  11.175   8.453  1.5107 -0.1318  0.2642
  921MOL0     H24305  10.700  11.294   8.735  0.5922 -0.1464  0.5376
  921MOL0     H24306  10.762  11.384   8.598 -1.2233  0.5297  1.1152
  921MOL0     H24307  10.914  11.133   8.691 -1.8398 -1.3081 -4.7076
  921MOL0     H24308  10.950  11.291   8.759 -0.9958 -0.1609 -0.1390
  921MOL0     H24309  10.940  11.234   8.459 -0.6526 -0.1386  0.0727
  921MOL0     H24310  11.005  11.377   8.543 -1.1586  0.8469  1.0734
  921MOL0     H24311  11.117  11.107   8.599 -1.9870 -1.2068 -1.3869
  921MOL0     H24312  11.161  11.265   8.658  0.2204  0.8832 -0.4205
  921MOL0     H24313  11.314  11.191   8.469 -2.3790 -1.6453  1.3142
  921MOL0     H24314  11.170  11.199   8.356 -2.0113  1.0926 -0.6872
  921MOL0     H24315  10.356  11.131   8.330 -1.7954  1.0227  0.7788
  921MOL0     H24316  10.210  11.047   8.142  1.9780 -1.6406 -2.2369
  921MOL0     H24317   9.899  10.926   7.779 -0.8596  0.1743  1.8006
  921MOL0     H24318   9.747  10.971   7.598  1.9043  0.5694 -0.8026
  921MOL0     H24319   8.324   9.939   6.610 -1.5024 -0.2835 -0.6026
  921MOL0     H24320   8.214   9.726   6.629  1.4215 -2.4893  1.6396
  921MOL0     H24321   8.047   9.371   6.854 -0.0594 -1.0118  1.2614
  921MOL0     H24322   7.902   9.177   6.819 -1.0575 -1.5088  0.9186
  921MOL0     H24323   7.737   9.023   6.948 -1.5273 -1.9110  0.3268
  921MOL0     H24324   7.572   8.989   6.920  1.4170  0.1818 -2.4769
  921MOL0     H24325   7.687   9.197   7.122  0.4642  0.1369  0.8606
  921MOL0     H24326   7.624   9.040   7.156 -0.5237 -1.4966 -2.0056
  921MOL0     H24327   7.451   9.242   7.016  1.9003 -1.8451 -2.1106
  921MOL0     H24328   7.459   9.232   7.191 -1.0588  1.9372 -0.6935
  921MOL0     H24329   7.263   9.108   7.087  1.5089  2.0029 -1.7921
  921MOL0     H24330   7.370   8.984   7.028 -3.4881 -1.2482  0.7820
  921MOL0     H24331   7.420   8.824   7.379  1.9688 -1.9567 -3.6590
  921MOL0     H24332   7.556   9.388   6.879  0.5762 -3.4903  2.1671
  921MOL0     H24333   7.687   9.700   6.981  2.7019 -1.0870 -0.9397
  921MOL0     H24334   7.661   9.704   6.801  1.4207 -0.3119  0.5107
  921MOL0     H24335   7.553   9.610   6.901 -1.2023  0.6073  2.2958
  922MOL0     O24336   3.241   9.883   8.233 -0.3641  0.2293  0.2863
  922MOL0     C24337   3.175   9.984   8.204 -0.5279 -0.2478 -0.2878
  922MOL0     O24338   3.227  10.113   8.203  0.0091 -0.3108 -0.7408
  922MOL0     C24339   3.360  10.155   8.215  0.4641  0.0498 -0.6764
  922MOL0     C24340   3.376  10.285   8.252 -0.5544  1.1074 -0.6685
  922MOL0     C24341   3.501  10.333   8.252  0.4117 -0.2976 -0.3297
  922MOL0     C24342   3.611  10.264   8.210  0.2527  0.0406  0.8552
  922MOL0     O24343   3.732  10.324   8.233  0.6605 -0.1050 -0.1722
  922MOL0     C24344   3.767  10.300   8.364 -0.4964  0.4671  0.4059
  922MOL0     C24345   3.917  10.323   8.397  0.6420  0.4782  0.6681
  922MOL0     C24346   3.956  10.322   8.546  0.4201  0.3662  0.5980
  922MOL0     C24347   4.086  10.234   8.564  0.7612  0.1368  1.4730
  922MOL0     C24348   4.128  10.240   8.711  0.2634  0.1682 -0.2389
  922MOL0     C24349   4.248  10.146   8.744  0.3359 -1.4957  0.0571
  922MOL0     C24350   4.378  10.177   8.665  0.6651 -0.1384  0.1816
  922MOL0     C24351   4.440  10.313   8.683  0.3005 -0.6221 -0.1111
  922MOL0     N24352   4.470  10.332   8.823  0.4606 -0.8538  0.2048
  922MOL0     C24353   4.553  10.258   8.907 -0.3440  0.2850 -0.1954
  922MOL0     C24354   4.542  10.319   9.024  0.3034  0.8070 -0.5912
  922MOL0     C24355   4.614  10.259   9.149  0.5962 -0.6536 -0.3265
  922MOL0     C24356   4.737  10.344   9.182  0.5676 -0.0017  0.0864
  922MOL0     C24357   4.844  10.313   9.074 -0.3460 -1.2141 -0.6938
  922MOL0     C24358   4.973  10.389   9.098  0.0981 -0.0120  0.0285
  922MOL0     O24359   5.018  10.355   9.229  0.6183  0.0621  0.8578
  922MOL0     C24360   5.155  10.381   9.252  0.7552 -0.2214 -0.2398
  922MOL0     C24361   5.225  10.492   9.212 -0.3133  0.2621  0.2621
  922MOL0     C24362   5.354  10.511   9.243  0.0347  0.9317 -0.8026
  922MOL0     C24363   5.416  10.430   9.347  0.8771 -0.3601  0.4064
  922MOL0     C24364   5.532  10.475   9.422 -1.1427 -0.0181 -0.2705
  922MOL0     O24365   5.612  10.577   9.358 -0.0740  0.3908  0.6054
  922MOL0     C24366   5.716  10.626   9.434 -0.6589 -0.1779 -0.6368
  922MOL0     C24367   5.700  10.680   9.564  0.6237  0.1880  0.8763
  922MOL0     C24368   5.816  10.710   9.635  0.0283 -0.2933 -0.0849
  922MOL0     C24369   5.944  10.693   9.582  0.3888 -0.2885 -0.1910
  922MOL0     O24370   6.050  10.745   9.651 -0.0574 -0.0649 -0.0721
  922MOL0     C24371   6.171  10.664   9.635 -0.3435 -0.0727  0.1833
  922MOL0     C24372   6.270  10.704   9.747  0.1852 -0.2881  0.3246
  922MOL0     C24373   6.390  10.628   9.734 -0.1673 -0.9011  0.5624
  922MOL0     C24374   6.490  10.643   9.843  0.2739  0.2124  0.3848
  922MOL0     C24375   6.616  10.569   9.805  0.0925 -0.7957 -0.6781
  922MOL0     C24376   6.734  10.607   9.893 -0.5408  0.2529 -0.0769
  922MOL0     C24377   6.866  10.553   9.844 -0.1264 -0.5572 -0.0872
  922MOL0     C24378   6.980  10.618   9.921 -0.7722  0.1309  0.1546
  922MOL0    Cl24379   7.134  10.517   9.893 -0.3074  0.3071 -0.3994
  922MOL0     C24380   5.954  10.644   9.454 -0.3400  0.1496  0.0220
  922MOL0     C24381   5.841  10.609   9.381 -0.0977 -0.4986  1.0722
  922MOL0     O24382   5.563  10.406   9.520 -0.2237 -0.2429 -0.1893
  922MOL0     C24383   5.352  10.311   9.378 -1.2021  0.2411  0.1246
  922MOL0     C24384   5.225  10.286   9.331  0.1088  0.2944 -0.2611
  922MOL0     N24385   4.462  10.426   9.023 -0.1629 -0.1510 -1.0584
  922MOL0     N24386   4.408  10.427   8.905 -0.1717 -0.2830 -0.6922
  922MOL0     C24387   3.597  10.128   8.166  0.6681  0.5014  0.3803
  922MOL0     C24388   3.466  10.075   8.172  0.0516 -0.2379  0.1672
  922MOL0     C24389   3.036   9.968   8.152  0.6699 -0.4393 -0.7977
  922MOL0     C24390   2.985   9.840   8.119 -0.1557 -0.3886 -0.4805
  922MOL0     C24391   2.851   9.813   8.093 -0.4593  0.5298 -0.8028
  922MOL0     C24392   2.753   9.904   8.090  0.0391  0.1117  0.0957
  922MOL0     O24393   2.626   9.873   8.056  0.3603 -0.4783 -0.2121
  922MOL0     C24394   2.530   9.977   8.026  0.1766 -0.3371 -0.2481
  922MOL0     C24395   2.397   9.907   7.972  0.2742  0.5183 -0.5305
  922MOL0     C24396   2.291  10.002   7.908 -0.1181 -0.4493 -1.3014
  922MOL0     C24397   2.233  10.083   8.022 -0.0999 -0.0941  0.3300
  922MOL0     C24398   2.119  10.157   7.988  0.9744  0.0745  0.3583
  922MOL0     C24399   2.018  10.207   7.953  0.2889  0.2323  0.2626
  922MOL0     C24400   2.792  10.029   8.113  0.3831 -1.1262 -1.5669
  922MOL0     C24401   2.930  10.071   8.147 -0.6966 -0.0342  1.0167
  922MOL0     C24402   2.957  10.203   8.197 -0.4031 -0.3425 -0.0251
  922MOL0     H24403   3.297  10.347   8.294  1.8410  1.9187  3.1602
  922MOL0     H24404   3.523  10.434   8.285 -1.2974 -0.5525  1.8172
  922MOL0     H24405   3.709  10.353   8.440 -1.2711 -0.8936  0.7971
  922MOL0     H24406   3.757  10.194   8.389 -0.6545  0.5165  0.5581
  922MOL0     H24407   3.956  10.413   8.348  1.3273  0.7715  1.7030
  922MOL0     H24408   3.971  10.246   8.343 -1.5537  0.8512 -2.3621
  922MOL0     H24409   3.875  10.272   8.599  2.6693 -2.3173  1.7701
  922MOL0     H24410   3.970  10.427   8.574  1.5942  0.7913 -1.3700
  922MOL0     H24411   4.069  10.133   8.526  1.8861  0.8622 -1.1338
  922MOL0     H24412   4.164  10.276   8.501  1.4327  2.8166  3.8785
  922MOL0     H24413   4.142  10.345   8.738 -0.5156  0.6495 -1.5929
  922MOL0     H24414   4.043  10.204   8.769  0.3334 -1.2538 -0.9827
  922MOL0     H24415   4.256  10.163   8.851 -0.1044  0.8146 -0.2189
  922MOL0     H24416   4.217  10.042   8.729 -0.1473 -1.3006 -0.3677
  922MOL0     H24417   4.358  10.147   8.562 -0.8871 -2.7233  1.1161
  922MOL0     H24418   4.453  10.103   8.694 -0.5871 -1.0995  1.0700
  922MOL0     H24419   4.529  10.317   8.620  1.0608 -0.1493  0.9759
  922MOL0     H24420   4.376  10.390   8.638  0.2903 -2.0661 -2.7994
  922MOL0     H24421   4.625  10.180   8.882 -0.2704  0.1155  0.5221
  922MOL0     H24422   4.549  10.263   9.237 -0.3150 -0.9582 -0.9615
  922MOL0     H24423   4.634  10.152   9.140 -2.5174 -1.3048 -0.7777
  922MOL0     H24424   4.714  10.451   9.182  0.2611  0.0640  3.6724
  922MOL0     H24425   4.776  10.306   9.277  0.3741 -2.4829 -0.7431
  922MOL0     H24426   4.814  10.343   8.973 -0.7302  0.1447 -0.2039
  922MOL0     H24427   4.871  10.208   9.083 -2.7384 -1.7984  0.3573
  922MOL0     H24428   4.961  10.497   9.088 -0.9197 -0.2619 -1.8683
  922MOL0     H24429   5.043  10.348   9.025 -1.5497  0.3269 -1.8225
  922MOL0     H24430   5.189  10.572   9.148 -2.4026  1.2097  2.4678
  922MOL0     H24431   5.399  10.599   9.199  2.9751 -0.6699 -1.2056
  922MOL0     H24432   5.601  10.704   9.600 -0.3594  2.4695 -2.8260
  922MOL0     H24433   5.809  10.749   9.736  0.7716  1.7966 -0.7864
  922MOL0     H24434   6.152  10.556   9.640 -3.1692  0.2625 -1.4759
  922MOL0     H24435   6.217  10.678   9.537  0.1954  0.2423  0.4736
  922MOL0     H24436   6.299  10.809   9.742 -1.3830  0.3005  2.2293
  922MOL0     H24437   6.222  10.689   9.843  0.2656 -1.3348  0.2124
  922MOL0     H24438   6.378  10.521   9.716  0.6652 -1.0097  0.6275
  922MOL0     H24439   6.441  10.677   9.651 -1.1406 -1.4357 -0.3788
  922MOL0     H24440   6.452  10.597   9.934  2.8188 -1.5160  0.6509
  922MOL0     H24441   6.509  10.750   9.857 -0.9340  0.4282  0.5367
  922MOL0     H24442   6.644  10.595   9.703 -0.1539 -2.1446 -1.1062
  922MOL0     H24443   6.603  10.460   9.812  2.0660 -0.9931  1.0274
  922MOL0     H24444   6.737  10.716   9.892  1.3429  0.2537 -2.1761
  922MOL0     H24445   6.730  10.585  10.000 -3.9238  0.9496  0.0457
  922MOL0     H24446   6.877  10.574   9.737 -1.0433 -0.6785 -0.2075
  922MOL0     H24447   6.880  10.444   9.848  0.6179 -0.4620  0.2583
  922MOL0     H24448   6.984  10.724   9.892  0.1841 -0.5910 -2.5851
  922MOL0     H24449   6.947  10.614  10.026 -2.5169 -1.2669 -0.3936
  922MOL0     H24450   6.048  10.628   9.401 -1.2450 -2.3626 -0.9867
  922MOL0     H24451   5.856  10.561   9.285 -1.7521 -0.8442  0.9561
  922MOL0     H24452   5.394  10.250   9.457 -0.0201  0.4151 -0.3483
  922MOL0     H24453   5.188  10.185   9.347  2.6511 -1.3130 -3.3812
  922MOL0     H24454   3.685  10.073   8.134  1.2409  1.0925  0.9033
  922MOL0     H24455   3.444   9.973   8.141 -0.3071  0.5541 -2.4764
  922MOL0     H24456   3.055   9.758   8.128 -0.5192 -0.4776  2.3524
  922MOL0     H24457   2.819   9.709   8.090  0.5774  0.1369  0.5326
  922MOL0     H24458   2.561  10.042   7.944 -0.1014  0.9986  0.6627
  922MOL0     H24459   2.507  10.037   8.115 -1.1327  0.7623 -1.2811
  922MOL0     H24460   2.342   9.858   8.052  0.9928  1.7711  0.8009
  922MOL0     H24461   2.434   9.828   7.907  0.3847 -1.8201  2.2071
  922MOL0     H24462   2.206   9.945   7.869 -1.9216  1.7858 -0.8747
  922MOL0     H24463   2.339  10.060   7.828 -0.5497  2.1923  0.2392
  922MOL0     H24464   2.206  10.007   8.096  0.7538 -0.7066  0.0303
  922MOL0     H24465   2.302  10.152   8.071 -1.5985  0.5830  1.5986
  922MOL0     H24466   1.924  10.240   7.914  0.5474  0.8934  0.1732
  922MOL0     H24467   2.720  10.110   8.103 -0.2921 -1.4599  0.1788
  922MOL0     H24468   2.870  10.247   8.247  0.8845  1.6663  0.5537
  922MOL0     H24469   3.038  10.203   8.270 -0.3770  0.6274 -0.0434
  922MOL0     H24470   2.980  10.278   8.121  0.0397  0.6087  1.0225
  923MOL0     O24471  10.098   0.002  10.134 -0.3374  0.0440 -0.4511
  923MOL0     C24472  10.075  -0.066  10.036  0.2649 -0.9357 -0.7997
  923MOL0     O24473   9.954  -0.052   9.971 -0.3950  0.3094  0.0028
  923MOL0     C24474   9.864   0.053   9.984 -0.2761  0.0378 -1.1401
  923MOL0     C24475   9.896   0.183  10.016  0.9362 -0.1058  0.6266
  923MOL0     C24476   9.814   0.290  10.033  0.2886  0.2563 -0.6341
  923MOL0     C24477   9.679   0.268  10.010  0.2492  0.9459  0.3637
  923MOL0     O24478   9.583   0.366  10.033  0.1774 -0.3081  0.6292
  923MOL0     C24479   9.602   0.470  10.133  0.7348 -0.4276 -0.1114
  923MOL0     C24480   9.472   0.537  10.141 -0.5094  0.2566 -0.3723
  923MOL0     C24481   9.469   0.638  10.244 -0.3271 -0.4400 -0.2535
  923MOL0     C24482   9.332   0.712  10.262 -0.6983  0.2739 -1.0309
  923MOL0     C24483   9.295   0.714  10.409 -0.0365  0.3513  0.5051
  923MOL0     C24484   9.260   0.572  10.459  0.6877 -0.0505  0.3429
  923MOL0     C24485   9.259   0.570  10.614 -0.6841  0.6725  0.1617
  923MOL0     C24486   9.221   0.434  10.679  0.0095  0.5496  0.6901
  923MOL0     N24487   9.073   0.410  10.659  0.5540  0.4842  0.2447
  923MOL0     C24488   8.965   0.486  10.692  0.1947  0.6105 -0.6566
  923MOL0     C24489   8.856   0.410  10.660 -0.5401  0.6231  0.2027
  923MOL0     C24490   8.714   0.444  10.699  0.1126 -0.1719  0.9904
  923MOL0     C24491   8.642   0.525  10.590  0.3075 -0.5656  0.5875
  923MOL0     C24492   8.715   0.648  10.538  0.1324 -0.0852  0.8378
  923MOL0     C24493   8.626   0.714  10.423 -0.1955 -0.3775  0.0919
  923MOL0     O24494   8.673   0.852  10.417 -1.1441  0.0380  0.0206
  923MOL0     C24495   8.771   0.883  10.320  0.1597  0.1739  0.5825
  923MOL0     C24496   8.857   0.788  10.268  0.1070  0.3878 -0.3626
  923MOL0     C24497   8.948   0.826  10.166 -0.1698 -0.6810 -0.3655
  923MOL0     C24498   8.959   0.958  10.125  0.8087  0.1118  0.5850
  923MOL0     C24499   9.071   1.010  10.039 -0.9187  0.6931 -0.2580
  923MOL0     O24500   9.187   0.931  10.024 -0.0529 -0.8507 -0.0626
  923MOL0     C24501   9.299   0.976   9.959  0.7905  0.2542  0.0925
  923MOL0     C24502   9.340   1.113   9.941 -1.1626  0.8629  0.1244
  923MOL0     C24503   9.465   1.149   9.877  0.5479  0.4560 -0.1051
  923MOL0     C24504   9.539   1.043   9.824  0.3460 -0.8278 -0.7952
  923MOL0     O24505   9.663   1.069   9.760  0.4399  1.0016  0.1287
  923MOL0     C24506   9.766   1.129   9.835  0.3618 -0.6044  1.1273
  923MOL0     C24507   9.888   1.157   9.750  0.0435  0.6657 -0.4569
  923MOL0     C24508  10.004   1.225   9.819 -0.3427  0.8482  0.2960
  923MOL0     C24509  10.110   1.283   9.728 -0.1738  1.0745 -0.5940
  923MOL0     C24510  10.226   1.348   9.795 -0.9211 -0.6918 -0.6406
  923MOL0     C24511  10.193   1.477   9.873  0.1103 -0.6610  0.5835
  923MOL0     C24512  10.331   1.532   9.921  0.7971 -0.1839  0.3975
  923MOL0     C24513  10.315   1.670   9.991 -0.6349 -0.3189 -0.2031
  923MOL0    Cl24514  10.486   1.751  10.014 -0.2911  0.6152  0.0814
  923MOL0     C24515   9.492   0.908   9.828 -0.5093 -0.5680  0.1593
  923MOL0     C24516   9.374   0.873   9.903  0.0004 -0.3842  0.4273
  923MOL0     O24517   9.050   1.118   9.987 -0.3913 -0.2095  0.5585
  923MOL0     C24518   8.867   1.050  10.174  0.6384 -1.2740  0.9704
  923MOL0     C24519   8.777   1.017  10.276  0.3768  0.0924 -0.3070
  923MOL0     N24520   8.892   0.300  10.596 -0.2718  0.1235  0.5430
  923MOL0     N24521   9.024   0.293  10.604 -0.2587  0.3078 -0.1659
  923MOL0     C24522   9.634   0.131   9.982  0.3819 -1.1387 -0.7396
  923MOL0     C24523   9.733   0.031   9.967 -0.4268  0.5268  0.1487
  923MOL0     C24524  10.164  -0.175  10.007 -0.6793 -0.7591  0.0956
  923MOL0     C24525  10.259  -0.212  10.107 -0.6226 -0.2645  0.3564
  923MOL0     C24526  10.357  -0.317  10.087 -0.2017  0.6263  0.1908
  923MOL0     C24527  10.349  -0.387   9.972 -0.2592  0.8833 -0.2867
  923MOL0     O24528  10.433  -0.495   9.959 -0.3479 -0.0635  0.0241
  923MOL0     C24529  10.546  -0.478   9.875  0.9727 -0.9562  0.0794
  923MOL0     C24530  10.654  -0.413   9.960 -0.3014 -0.2392  0.2439
  923MOL0     C24531  10.785  -0.418   9.886 -0.6267 -1.0132 -0.0825
  923MOL0     C24532  10.861  -0.547   9.859 -0.2559  0.7603  0.3168
  923MOL0     C24533  10.983  -0.508   9.787 -0.6151 -0.6419  0.2967
  923MOL0     C24534  11.077  -0.495   9.710  0.4814 -0.0914 -0.4337
  923MOL0     C24535  10.269  -0.339   9.873 -0.3354  0.1840 -0.0058
  923MOL0     C24536  10.177  -0.234   9.884  1.0671  0.4912  0.3008
  923MOL0     C24537  10.095  -0.186   9.765 -0.4682 -0.4079 -0.5152
  923MOL0     H24538  10.001   0.209  10.023  1.2614 -0.3459 -2.4205
  923MOL0     H24539   9.859   0.384  10.062  1.8204  0.6752 -3.9168
  923MOL0     H24540   9.625   0.438  10.235 -1.3476  0.6714  0.7535
  923MOL0     H24541   9.677   0.541  10.094 -0.5727  1.9597  1.5163
  923MOL0     H24542   9.390   0.467  10.161 -0.4858 -0.3913 -2.3286
  923MOL0     H24543   9.456   0.572  10.039  1.4566 -0.7091 -1.0649
  923MOL0     H24544   9.545   0.715  10.225  0.2257 -1.1943 -1.1557
  923MOL0     H24545   9.504   0.598  10.340  1.5270  0.0777 -0.6625
  923MOL0     H24546   9.340   0.814  10.223 -2.1991  0.5637 -0.6148
  923MOL0     H24547   9.247   0.671  10.207  0.0114 -1.4438 -0.9119
  923MOL0     H24548   9.376   0.744  10.476 -0.3961 -2.5486  2.4517
  923MOL0     H24549   9.210   0.781  10.423  0.7420  1.8850 -1.5589
  923MOL0     H24550   9.161   0.545  10.421  0.1690  0.9004  0.9946
  923MOL0     H24551   9.327   0.494  10.420  0.3093 -1.0527  1.6476
  923MOL0     H24552   9.198   0.658  10.635 -1.7943 -0.0922  0.2807
  923MOL0     H24553   9.356   0.590  10.659 -0.6093  1.3597 -0.2882
  923MOL0     H24554   9.290   0.364  10.630 -0.3187  0.1427  0.8025
  923MOL0     H24555   9.235   0.445  10.786 -4.5188  0.6533  1.4582
  923MOL0     H24556   8.975   0.579  10.748 -2.9261  0.7961 -0.2348
  923MOL0     H24557   8.648   0.361  10.727 -2.8734  0.8049 -2.3871
  923MOL0     H24558   8.735   0.508  10.785  1.3254 -2.4439  2.4915
  923MOL0     H24559   8.608   0.466  10.504 -2.9446  0.6737  0.8845
  923MOL0     H24560   8.547   0.559  10.631  0.6067  1.1089 -0.0158
  923MOL0     H24561   8.810   0.628  10.488 -0.9648 -0.7733 -1.0979
  923MOL0     H24562   8.737   0.720  10.617  1.2282  0.3762  0.1406
  923MOL0     H24563   8.525   0.720  10.463  0.7163  2.0851  2.3486
  923MOL0     H24564   8.621   0.670  10.323  5.0664 -1.0705 -0.1653
  923MOL0     H24565   8.876   0.685  10.294  2.5951  0.9619  0.3454
  923MOL0     H24566   9.017   0.748  10.134  3.5610  1.3151  2.0958
  923MOL0     H24567   9.291   1.197   9.988 -0.5608  0.8176  0.8543
  923MOL0     H24568   9.497   1.252   9.865 -2.2693  1.4979  0.7494
  923MOL0     H24569   9.723   1.220   9.877 -0.3453  0.9419 -2.6040
  923MOL0     H24570   9.795   1.059   9.915  2.0774  0.6675  1.6801
  923MOL0     H24571   9.926   1.065   9.704 -3.0017 -1.2373  0.5295
  923MOL0     H24572   9.865   1.223   9.666 -1.3035 -1.1507 -1.6044
  923MOL0     H24573   9.971   1.301   9.890 -0.2017  2.6662 -1.4777
  923MOL0     H24574  10.046   1.142   9.875  0.4104 -0.8204 -2.5192
  923MOL0     H24575  10.057   1.358   9.669 -0.9979  0.7124 -0.3227
  923MOL0     H24576  10.143   1.205   9.659 -1.8371 -1.5384  1.3937
  923MOL0     H24577  10.305   1.376   9.725  0.5793  2.5276  2.0779
  923MOL0     H24578  10.284   1.275   9.852  0.7145 -1.1065 -2.7329
  923MOL0     H24579  10.153   1.559   9.812  1.9812  0.7140  1.1045
  923MOL0     H24580  10.121   1.449   9.951 -0.7211 -0.0961  0.0242
  923MOL0     H24581  10.394   1.543   9.832  0.3887  1.3912  0.2764
  923MOL0     H24582  10.381   1.471   9.996 -0.8856 -0.4306  1.3695
  923MOL0     H24583  10.244   1.735   9.938 -0.6392  0.9863  1.3205
  923MOL0     H24584  10.263   1.654  10.086 -2.7556  0.5315 -1.1436
  923MOL0     H24585   9.541   0.820   9.788 -0.3194 -0.3191 -0.1563
  923MOL0     H24586   9.344   0.771   9.921 -1.2412 -0.0449  0.3619
  923MOL0     H24587   8.877   1.152  10.137  3.7883 -1.9038 -0.1594
  923MOL0     H24588   8.702   1.088  10.311 -0.1287  0.4833 -2.0724
  923MOL0     H24589   9.532   0.097   9.973 -0.7413  1.7405  0.0014
  923MOL0     H24590   9.699  -0.070   9.947 -0.7316  0.4231  1.1342
  923MOL0     H24591  10.253  -0.162  10.203 -0.1627 -3.0231  1.8970
  923MOL0     H24592  10.428  -0.339  10.167 -0.9332 -2.0286  0.2151
  923MOL0     H24593  10.513  -0.425   9.786  1.2102  0.9229  1.0400
  923MOL0     H24594  10.583  -0.572   9.834 -0.0083 -0.3074 -2.4357
  923MOL0     H24595  10.665  -0.470  10.052  1.8241 -2.5138 -1.3080
  923MOL0     H24596  10.617  -0.311   9.976  0.3315  0.3136 -1.5201
  923MOL0     H24597  10.853  -0.347   9.936 -0.7785 -1.0303  0.1467
  923MOL0     H24598  10.765  -0.374   9.787  0.0077  2.3085  1.1291
  923MOL0     H24599  10.892  -0.602   9.948  1.3410  0.5552 -0.3381
  923MOL0     H24600  10.802  -0.612   9.793 -0.9516 -1.0403  2.5805
  923MOL0     H24601  11.147  -0.471   9.633 -0.0094  1.1898 -0.4985
  923MOL0     H24602  10.289  -0.390   9.780 -0.2733 -0.2619  0.2508
  923MOL0     H24603  10.152  -0.201   9.673  0.6205 -0.8309  0.2063
  923MOL0     H24604  10.004  -0.246   9.755  0.2056 -1.2756 -1.6464
  923MOL0     H24605  10.084  -0.078   9.776  1.5381 -0.2824  0.7347
  924MOL0     O24606   4.092   9.268  11.310  0.6781 -0.2185  0.4828
  924MOL0     C24607   4.038   9.340  11.230  0.2438 -1.1397 -0.7872
  924MOL0     O24608   4.105   9.399  11.120 -0.4106  0.1942  0.6000
  924MOL0     C24609   4.248   9.394  11.103  0.9040 -0.5294 -0.6303
  924MOL0     C24610   4.316   9.276  11.125  0.0716 -0.4566  0.0415
  924MOL0     C24611   4.461   9.264  11.094  0.1789 -0.6740  0.0775
  924MOL0     C24612   4.529   9.375  11.054 -0.4022 -0.0648 -0.2839
  924MOL0     O24613   4.662   9.367  11.035  0.7474  1.1495  0.6986
  924MOL0     C24614   4.744   9.453  11.123  0.3627  0.0278  0.9289
  924MOL0     C24615   4.885   9.440  11.094 -0.6465 -0.3228 -0.0045
  924MOL0     C24616   4.916   9.462  10.946  0.3307  0.5762 -0.4146
  924MOL0     C24617   5.064   9.427  10.903  1.0073  0.4618 -0.0659
  924MOL0     C24618   5.105   9.450  10.759 -0.7627 -0.0850  0.7075
  924MOL0     C24619   5.023   9.378  10.648 -0.7027 -0.5725  0.1132
  924MOL0     C24620   5.083   9.378  10.504  1.0430  0.8288 -0.1179
  924MOL0     C24621   5.133   9.516  10.483 -0.9196 -0.1922  0.1854
  924MOL0     N24622   5.166   9.526  10.339 -0.4782 -0.6149  0.2988
  924MOL0     C24623   5.076   9.551  10.239  0.3927  1.0101 -0.0300
  924MOL0     C24624   5.138   9.512  10.124 -0.1356 -0.8575  0.3706
  924MOL0     C24625   5.072   9.527   9.989 -0.0194 -0.0606 -0.3476
  924MOL0     C24626   4.922   9.523   9.982  0.8596  0.1082 -0.0312
  924MOL0     C24627   4.870   9.497   9.841 -0.2882  0.1806 -0.7773
  924MOL0     C24628   4.717   9.468   9.834  0.3103  0.4631 -0.3665
  924MOL0     O24629   4.679   9.342   9.887  0.1745  0.3840 -0.2841
  924MOL0     C24630   4.543   9.325   9.897  0.3439  0.3941 -0.0729
  924MOL0     C24631   4.508   9.205   9.960 -0.5521  0.8714  0.2154
  924MOL0     C24632   4.376   9.177   9.986 -0.0978 -0.0763  0.2660
  924MOL0     C24633   4.278   9.265   9.964 -0.2414  0.2873 -0.3376
  924MOL0     C24634   4.142   9.220   9.983  0.7262 -0.2946 -0.0646
  924MOL0     O24635   4.047   9.319   9.988 -0.0739 -0.0051 -0.2272
  924MOL0     C24636   3.907   9.296   9.981  0.1508 -0.2801  0.1560
  924MOL0     C24637   3.836   9.404  10.038  0.4213  0.0413 -0.0882
  924MOL0     C24638   3.695   9.396  10.057 -0.0990 -0.4375  0.0758
  924MOL0     C24639   3.625   9.288  10.011 -0.2087 -0.1157  0.2071
  924MOL0     O24640   3.493   9.297  10.039  0.2701  0.5238  0.5584
  924MOL0     C24641   3.389   9.213   9.983  0.6596  0.2628  0.3551
  924MOL0     C24642   3.252   9.286   9.972 -0.6396 -0.4371  0.1372
  924MOL0     C24643   3.151   9.264  10.089  0.3135 -0.6231 -1.0470
  924MOL0     C24644   3.079   9.131  10.100 -0.2575 -0.8761  0.2496
  924MOL0     C24645   3.004   9.128  10.234 -0.4225  0.3807  0.1754
  924MOL0     C24646   2.965   8.983  10.259 -0.7046 -0.3662  0.1979
  924MOL0     C24647   2.890   8.962  10.398  0.2375 -0.7332  0.8671
  924MOL0     C24648   2.815   8.827  10.398  0.3902  0.5936 -1.0960
  924MOL0    Cl24649   2.656   8.852  10.310 -0.0145  0.6453 -0.2655
  924MOL0     C24650   3.690   9.181   9.954 -0.1493  0.1679 -0.1374
  924MOL0     C24651   3.833   9.181   9.934  0.0739  0.3121 -0.4554
  924MOL0     O24652   4.119   9.097   9.967  0.5641  0.2874 -0.7558
  924MOL0     C24653   4.308   9.380   9.906  0.0912 -0.1956  0.0505
  924MOL0     C24654   4.441   9.417   9.871  0.4285  0.8588  0.3536
  924MOL0     N24655   5.268   9.486  10.150  0.2785  0.0932  0.0251
  924MOL0     N24656   5.283   9.494  10.277 -0.6776 -0.1714 -0.1492
  924MOL0     C24657   4.455   9.490  11.026  0.3505 -0.0657 -0.3863
  924MOL0     C24658   4.323   9.498  11.049  1.3698 -0.1025 -0.3604
  924MOL0     C24659   3.889   9.339  11.226  0.9700 -0.4372 -0.2359
  924MOL0     C24660   3.837   9.466  11.187 -0.8874  0.4573 -0.4583
  924MOL0     C24661   3.698   9.480  11.169 -0.2606 -0.4610  0.4676
  924MOL0     C24662   3.607   9.375  11.174  0.0495  0.2661 -0.0239
  924MOL0     O24663   3.479   9.372  11.119 -0.4166 -0.3440 -0.2921
  924MOL0     C24664   3.417   9.488  11.068 -0.5086 -0.3328  0.1420
  924MOL0     C24665   3.345   9.571  11.182  0.3078 -0.7701  0.2983
  924MOL0     C24666   3.261   9.481  11.270 -1.2625  0.5049  1.1618
  924MOL0     C24667   3.144   9.562  11.335  0.3115 -0.1357  0.1206
  924MOL0     C24668   3.061   9.477  11.421 -0.7295  0.0919 -0.0191
  924MOL0     C24669   2.980   9.405  11.465 -0.1005  0.3370 -0.2197
  924MOL0     C24670   3.656   9.252  11.222 -0.1139 -0.2473  0.4590
  924MOL0     C24671   3.795   9.230  11.244  0.5544 -0.0180 -0.0644
  924MOL0     C24672   3.848   9.092  11.294  0.8967 -0.1200 -0.8068
  924MOL0     H24673   4.269   9.186  11.163  3.6569 -1.6179  2.1575
  924MOL0     H24674   4.513   9.171  11.113  0.9082 -0.2788  0.0707
  924MOL0     H24675   4.718   9.559  11.116  1.8751  0.4135  0.7398
  924MOL0     H24676   4.731   9.416  11.225 -1.7894 -3.5945 -0.4295
  924MOL0     H24677   4.906   9.335  11.119 -2.2254 -0.3034  1.6420
  924MOL0     H24678   4.948   9.507  11.153 -1.1028 -0.2208  0.3781
  924MOL0     H24679   4.912   9.571  10.942 -1.8584  0.5021 -2.1031
  924MOL0     H24680   4.844   9.427  10.872  0.1174 -0.7064  0.3689
  924MOL0     H24681   5.137   9.480  10.965  0.7586 -1.7567  2.2556
  924MOL0     H24682   5.081   9.323  10.932 -0.2652  0.4558  0.7367
  924MOL0     H24683   5.114   9.559  10.751  0.2844 -0.3261 -3.1656
  924MOL0     H24684   5.203   9.404  10.746 -2.5254 -3.6923 -1.5273
  924MOL0     H24685   4.993   9.277  10.675 -0.3636 -1.3870 -2.3082
  924MOL0     H24686   4.923   9.421  10.633  0.0338  0.5967 -1.8680
  924MOL0     H24687   4.998   9.357  10.440  1.0682  0.3456  0.0057
  924MOL0     H24688   5.165   9.306  10.499 -0.2966 -0.9637  1.9745
  924MOL0     H24689   5.065   9.597  10.507 -1.7943 -0.2936 -1.7351
  924MOL0     H24690   5.229   9.522  10.536  0.9444 -0.6500 -2.8652
  924MOL0     H24691   4.972   9.576  10.259 -0.4534 -1.7021 -0.6556
  924MOL0     H24692   5.104   9.623   9.948  0.5596  1.2611  2.9118
  924MOL0     H24693   5.110   9.437   9.939 -3.3794 -2.0358  0.3870
  924MOL0     H24694   4.882   9.449  10.052  1.4889 -1.2946 -1.1048
  924MOL0     H24695   4.878   9.621  10.004 -0.6421 -0.4001 -0.5848
  924MOL0     H24696   4.930   9.416   9.798 -1.6598 -2.2543  1.5662
  924MOL0     H24697   4.893   9.580   9.774 -1.0475  0.5996 -0.5291
  924MOL0     H24698   4.690   9.481   9.729 -0.3360 -0.4002 -0.3181
  924MOL0     H24699   4.668   9.545   9.894 -0.7174 -0.5094  0.0752
  924MOL0     H24700   4.576   9.126   9.990 -0.9281 -1.0055 -3.3344
  924MOL0     H24701   4.352   9.079  10.025  0.5508  0.7842  3.0704
  924MOL0     H24702   3.893   9.486  10.081  2.4616 -1.4000  0.0796
  924MOL0     H24703   3.642   9.483  10.094 -2.5053 -2.3289  1.3936
  924MOL0     H24704   3.419   9.181   9.882  1.5430  2.3697 -0.0974
  924MOL0     H24705   3.381   9.120  10.041  2.1124 -0.1818 -0.1110
  924MOL0     H24706   3.269   9.393   9.954  2.0382 -0.5998  1.1726
  924MOL0     H24707   3.200   9.244   9.885 -1.3800 -1.2171  0.9446
  924MOL0     H24708   3.199   9.290  10.184 -2.2184  1.4203 -0.1963
  924MOL0     H24709   3.076   9.343  10.073 -1.6690 -2.3039 -0.5357
  924MOL0     H24710   3.151   9.050  10.086  0.7974 -0.2670  1.8254
  924MOL0     H24711   3.020   9.128  10.008  0.4250  0.9129 -0.2929
  924MOL0     H24712   2.920   9.199  10.231  0.5793  1.5865 -0.2799
  924MOL0     H24713   3.068   9.154  10.319  2.1080  0.2688 -1.5874
  924MOL0     H24714   2.896   8.960  10.176 -0.1542  1.0007 -0.6716
  924MOL0     H24715   3.052   8.918  10.266 -0.8528 -0.6217 -0.2317
  924MOL0     H24716   2.830   9.044  10.438 -1.0568 -0.7514 -0.9711
  924MOL0     H24717   2.969   8.946  10.473  1.2810  0.6697  0.1095
  924MOL0     H24718   2.877   8.748  10.355 -2.4840 -3.7194  1.8574
  924MOL0     H24719   2.800   8.794  10.501  2.3467  1.4398 -0.4834
  924MOL0     H24720   3.635   9.088   9.939 -1.5611  0.1362  3.9676
  924MOL0     H24721   3.880   9.088   9.904 -0.9722 -0.1844 -0.5744
  924MOL0     H24722   4.225   9.446   9.885 -0.7514 -1.1747  0.2455
  924MOL0     H24723   4.471   9.512   9.829  0.6953 -0.3727 -2.4596
  924MOL0     H24724   4.511   9.568  10.974  0.9891 -1.5685 -2.0652
  924MOL0     H24725   4.255   9.583  11.040  1.3862  0.4737  3.4939
  924MOL0     H24726   3.902   9.550  11.165  1.8376 -1.7091 -1.1491
  924MOL0     H24727   3.669   9.579  11.135  1.2500 -0.0121  0.3971
  924MOL0     H24728   3.344   9.463  10.990 -1.8644 -0.0634  1.2657
  924MOL0     H24729   3.490   9.557  11.024 -0.4341 -1.2778 -1.2961
  924MOL0     H24730   3.272   9.636  11.131  0.9503  1.3358  1.9385
  924MOL0     H24731   3.415   9.636  11.236 -1.3069  1.5863 -0.2759
  924MOL0     H24732   3.321   9.430  11.346  0.4595  0.1365 -0.3638
  924MOL0     H24733   3.222   9.402  11.206  1.3882  0.5318 -0.6594
  924MOL0     H24734   3.180   9.642  11.401  1.2795  2.0794 -2.8881
  924MOL0     H24735   3.092   9.621  11.259  3.5140  2.0800 -0.5468
  924MOL0     H24736   2.907   9.347  11.518 -1.0439  1.7796  0.1405
  924MOL0     H24737   3.590   9.166  11.224  1.0756 -1.1967  2.0987
  924MOL0     H24738   3.950   9.074  11.256  0.9021 -0.6753 -0.5418
  924MOL0     H24739   3.856   9.098  11.403  1.3241 -0.2878 -0.8242
  924MOL0     H24740   3.783   9.005  11.284  1.4522 -0.7892  1.0274
  925MOL0     O24741   1.293  10.402   4.125 -0.0454  0.3850 -0.5909
  925MOL0     C24742   1.228  10.443   4.033 -0.3253 -0.7778 -0.2064
  925MOL0     O24743   1.270  10.506   3.926 -0.3816 -0.1872 -0.1269
  925MOL0     C24744   1.404  10.545   3.910  0.5656 -0.2017 -0.0926
  925MOL0     C24745   1.477  10.599   4.018 -0.3165 -0.1685  0.3149
  925MOL0     C24746   1.612  10.628   4.008  0.3703  0.3356  0.2490
  925MOL0     C24747   1.684  10.612   3.888  0.0837  0.4701 -0.4023
  925MOL0     O24748   1.819  10.630   3.876 -0.0103  0.0923 -0.5816
  925MOL0     C24749   1.890  10.676   3.989 -0.0508  0.8410 -0.1181
  925MOL0     C24750   2.033  10.722   3.931 -0.0860  0.4267 -1.1882
  925MOL0     C24751   2.127  10.790   4.041 -0.0874  0.0697 -0.4458
  925MOL0     C24752   2.260  10.845   3.994  0.7450  0.5068 -0.1863
  925MOL0     C24753   2.342  10.916   4.107  1.2611 -0.3661 -0.0726
  925MOL0     C24754   2.451  10.989   4.032  0.5622 -0.3449 -0.0207
  925MOL0     C24755   2.541  11.065   4.126 -0.8996  0.4163 -0.0923
  925MOL0     C24756   2.620  11.180   4.057 -0.4662 -0.2549  0.1472
  925MOL0     N24757   2.687  11.269   4.160 -1.3547 -0.5092  0.5822
  925MOL0     C24758   2.814  11.328   4.141  0.8601  1.1581 -0.3933
  925MOL0     C24759   2.836  11.401   4.249  0.5107 -0.2141 -0.2988
  925MOL0     C24760   2.955  11.499   4.281  0.0092 -0.1181 -0.3258
  925MOL0     C24761   3.094  11.444   4.289  0.1303  0.3911  0.2107
  925MOL0     C24762   3.183  11.541   4.366  0.2704 -0.3696  1.8276
  925MOL0     C24763   3.324  11.488   4.395  0.3312 -0.1774 -1.5388
  925MOL0     O24764   3.409  11.603   4.435  0.4860  0.2289  0.7598
  925MOL0     C24765   3.546  11.588   4.411 -0.1157  0.0431  0.1605
  925MOL0     C24766   3.612  11.463   4.394 -0.0271 -0.1719 -0.4258
  925MOL0     C24767   3.752  11.461   4.398 -0.0071  1.2958 -0.3207
  925MOL0     C24768   3.830  11.571   4.416  0.1407 -0.2955 -0.3592
  925MOL0     C24769   3.975  11.563   4.427  0.5060 -0.7146  0.7330
  925MOL0     O24770   4.034  11.437   4.410  0.0912  0.2252  0.0474
  925MOL0     C24771   4.175  11.424   4.419 -0.5688  0.7068 -0.3012
  925MOL0     C24772   4.250  11.465   4.305 -0.5355  0.8188 -0.1157
  925MOL0     C24773   4.387  11.438   4.302  0.1788  0.4916  0.0671
  925MOL0     C24774   4.456  11.366   4.400 -0.2438  0.3245 -0.2444
  925MOL0     O24775   4.591  11.350   4.379  0.2999  0.0427 -0.6490
  925MOL0     C24776   4.663  11.346   4.497  0.1647  0.7694 -0.5100
  925MOL0     C24777   4.797  11.409   4.481 -0.2862 -0.0443  0.6241
  925MOL0     C24778   4.877  11.337   4.371  1.1673  0.1206  0.1620
  925MOL0     C24779   5.024  11.387   4.372  0.1381  0.5362  0.7168
  925MOL0     C24780   5.118  11.321   4.267 -0.5776 -0.3209  0.0988
  925MOL0     C24781   5.237  11.403   4.223  0.2532 -0.6505  0.3670
  925MOL0     C24782   5.338  11.412   4.339 -0.1475 -0.4957  0.4765
  925MOL0     C24783   5.438  11.303   4.316 -0.8986 -0.3261 -0.3405
  925MOL0    Cl24784   5.546  11.296   4.459  0.4171 -0.3233 -0.5051
  925MOL0     C24785   4.377  11.331   4.513  0.1315  0.2717  0.0585
  925MOL0     C24786   4.246  11.359   4.524  0.6052  0.0604 -0.2358
  925MOL0     O24787   4.041  11.665   4.440 -0.7712 -0.5182 -0.1620
  925MOL0     C24788   3.756  11.692   4.440 -0.5893 -0.6889  0.6965
  925MOL0     C24789   3.621  11.702   4.434 -0.3392  0.4215 -0.8140
  925MOL0     N24790   2.723  11.380   4.340  0.2301  0.1007  0.2282
  925MOL0     N24791   2.638  11.306   4.278  0.3631 -0.0465 -0.4183
  925MOL0     C24792   1.614  10.563   3.775  0.3191  0.1871  0.0660
  925MOL0     C24793   1.472  10.547   3.786  0.5144  0.4374 -0.2323
  925MOL0     C24794   1.082  10.402   4.040 -0.7163  0.0007  0.2115
  925MOL0     C24795   1.039  10.354   4.167  0.7254  0.0198  0.2070
  925MOL0     C24796   0.897  10.326   4.182  0.6383 -0.4083  0.0329
  925MOL0     C24797   0.803  10.334   4.081 -0.4668 -0.3024  0.2317
  925MOL0     O24798   0.671  10.299   4.093  0.7966 -0.6827 -0.0423
  925MOL0     C24799   0.640  10.211   4.199  0.2129 -0.1023  0.7310
  925MOL0     C24800   0.511  10.141   4.155  0.0336  0.0789  0.4102
  925MOL0     C24801   0.438  10.061   4.258  0.3985 -0.8047 -0.2928
  925MOL0     C24802   0.327   9.980   4.193  0.4190  0.8623 -0.2614
  925MOL0     C24803   0.243   9.915   4.300 -0.2245  0.1433  0.5583
  925MOL0     C24804   0.163   9.869   4.383 -0.6985  0.5698  0.8295
  925MOL0     C24805   0.856  10.391   3.963  0.8356  0.2962  0.0125
  925MOL0     C24806   0.992  10.422   3.938  0.6402 -0.0478 -0.0277
  925MOL0     C24807   1.018  10.487   3.807  0.1059  0.2459 -0.1795
  925MOL0     H24808   1.450  10.614   4.122 -0.2344  1.0335  0.1864
  925MOL0     H24809   1.650  10.671   4.101 -2.0484 -0.0478  1.5080
  925MOL0     H24810   1.842  10.762   4.036 -2.1556  0.4730 -1.4809
  925MOL0     H24811   1.902  10.594   4.060 -0.2434  1.4317  0.6115
  925MOL0     H24812   2.023  10.793   3.849 -2.4265  3.2759  1.3229
  925MOL0     H24813   2.069  10.630   3.884 -1.8881 -0.8789 -0.1602
  925MOL0     H24814   2.150  10.716   4.118  1.4703  1.6547  0.6983
  925MOL0     H24815   2.066  10.868   4.088 -0.2789  0.3085 -1.0683
  925MOL0     H24816   2.315  10.764   3.945 -2.0790 -1.3208 -0.6001
  925MOL0     H24817   2.246  10.918   3.914  0.5462  0.7092  0.0318
  925MOL0     H24818   2.284  10.993   4.159  1.7614  1.3884 -1.9843
  925MOL0     H24819   2.376  10.834   4.172 -1.5520 -1.4437  0.1670
  925MOL0     H24820   2.526  10.924   3.987  3.1352  1.2680  1.6626
  925MOL0     H24821   2.413  11.046   3.947 -1.0714 -1.8547 -0.3768
  925MOL0     H24822   2.623  11.002   4.161 -0.6948  1.7122  1.9223
  925MOL0     H24823   2.480  11.108   4.206  0.1963  1.1797  0.3560
  925MOL0     H24824   2.703  11.141   3.997 -0.2813  1.3499 -0.7015
  925MOL0     H24825   2.567  11.238   3.981  0.3769 -0.8495 -0.9359
  925MOL0     H24826   2.887  11.319   4.062  2.4622  0.6490  1.0838
  925MOL0     H24827   2.952  11.586   4.216  0.7776  1.2118  1.3298
  925MOL0     H24828   2.929  11.534   4.381  3.4004 -0.1357  0.6802
  925MOL0     H24829   3.094  11.344   4.333 -0.6613 -1.3683 -3.4270
  925MOL0     H24830   3.124  11.428   4.185 -3.2328  1.1940 -1.0119
  925MOL0     H24831   3.133  11.582   4.455  0.3538  0.9158  1.3139
  925MOL0     H24832   3.189  11.622   4.293  0.9466 -0.9423  1.2375
  925MOL0     H24833   3.366  11.443   4.305  2.3001  0.4339 -0.9707
  925MOL0     H24834   3.333  11.414   4.476  1.5379 -0.5091 -1.9612
  925MOL0     H24835   3.556  11.370   4.383 -0.4854  0.0680 -0.1283
  925MOL0     H24836   3.791  11.361   4.384  1.8481  1.4166  2.9201
  925MOL0     H24837   4.206  11.510   4.217 -2.7471  0.8210  0.9432
  925MOL0     H24838   4.437  11.462   4.208  0.5100  3.2522  0.8619
  925MOL0     H24839   4.610  11.410   4.569  0.5164  1.7423 -1.0837
  925MOL0     H24840   4.680  11.247   4.539  0.5661  0.2068 -1.9434
  925MOL0     H24841   4.779  11.515   4.459  0.4254  0.3226  1.7271
  925MOL0     H24842   4.857  11.410   4.573  3.1478  1.9556 -1.4230
  925MOL0     H24843   4.876  11.228   4.385  2.0561 -0.1277 -1.4474
  925MOL0     H24844   4.829  11.355   4.275  0.8021  0.9804  0.4969
  925MOL0     H24845   5.058  11.358   4.472  1.1179 -1.9084 -0.2571
  925MOL0     H24846   5.036  11.496   4.363  1.4759  0.2155 -3.2101
  925MOL0     H24847   5.054  11.295   4.182 -0.1001 -0.0217 -0.3594
  925MOL0     H24848   5.148  11.227   4.314 -3.2621  0.0584  2.8996
  925MOL0     H24849   5.268  11.378   4.121 -0.6151  0.5408 -0.2096
  925MOL0     H24850   5.199  11.504   4.205  1.1564 -0.7446 -2.4574
  925MOL0     H24851   5.287  11.389   4.433 -0.6960 -1.4623 -0.0469
  925MOL0     H24852   5.391  11.507   4.348  0.4279 -0.5651 -1.6467
  925MOL0     H24853   5.380  11.211   4.298  0.1815 -0.8926 -1.0744
  925MOL0     H24854   5.494  11.322   4.224 -0.6804 -1.0393 -0.3641
  925MOL0     H24855   4.432  11.288   4.597  3.1737  1.3270 -1.2388
  925MOL0     H24856   4.194  11.336   4.616  3.3767 -1.8354  0.9615
  925MOL0     H24857   3.819  11.774   4.472  1.3352 -2.5913  2.0947
  925MOL0     H24858   3.570  11.795   4.457 -0.3485  0.1173  0.5123
  925MOL0     H24859   1.676  10.559   3.686 -1.9959  0.0781 -1.6312
  925MOL0     H24860   1.430  10.506   3.694  1.8662 -0.7677 -0.3578
  925MOL0     H24861   1.096  10.331   4.257  3.5139 -2.0101 -1.8953
  925MOL0     H24862   0.867  10.305   4.284 -1.4804 -0.8476 -0.6425
  925MOL0     H24863   0.625  10.279   4.283 -1.2547 -0.6814  0.9703
  925MOL0     H24864   0.718  10.138   4.223  1.0736  0.9873  1.3247
  925MOL0     H24865   0.527  10.065   4.078 -0.3410  0.3802  0.0318
  925MOL0     H24866   0.443  10.220   4.121 -0.4643 -1.7528 -3.3995
  925MOL0     H24867   0.390  10.125   4.333  0.9914  0.2637 -0.7918
  925MOL0     H24868   0.502   9.992   4.313  1.3072  1.3262  1.5120
  925MOL0     H24869   0.264  10.044   4.131 -2.0242 -0.1345  1.0328
  925MOL0     H24870   0.368   9.900   4.131 -0.8114  0.1816 -0.2310
  925MOL0     H24871   0.078   9.831   4.436 -0.9034  2.0669  1.6364
  925MOL0     H24872   0.782  10.400   3.884 -0.4187  0.4925  1.1804
  925MOL0     H24873   0.935  10.480   3.736  0.0126 -2.2311  0.0938
  925MOL0     H24874   1.021  10.595   3.827 -2.3246  0.7103 -1.9226
  925MOL0     H24875   1.105  10.446   3.754 -0.9216 -0.8320 -1.0743
  926MOL0     O24876   0.199   3.883   5.568 -0.0748  0.7988  0.0478
  926MOL0     C24877   0.204   3.840   5.684 -1.4161 -0.2737 -0.3392
  926MOL0     O24878   0.306   3.767   5.748 -0.5191  0.2121  0.3911
  926MOL0     C24879   0.434   3.773   5.689  0.2728 -0.7837  0.0933
  926MOL0     C24880   0.449   3.679   5.584 -0.4099  0.1872 -0.1938
  926MOL0     C24881   0.561   3.687   5.505  0.8260  0.2816  0.5721
  926MOL0     C24882   0.650   3.790   5.523  0.4005 -0.4200 -1.3259
  926MOL0     O24883   0.750   3.780   5.437 -0.7061 -0.2695 -0.1508
  926MOL0     C24884   0.888   3.808   5.475 -0.2560 -0.4626  0.1946
  926MOL0     C24885   1.012   3.770   5.389  0.2986 -0.5098  0.7821
  926MOL0     C24886   1.138   3.832   5.439 -0.2919 -0.3818  0.0745
  926MOL0     C24887   1.260   3.831   5.340 -0.0271  0.7597  0.1402
  926MOL0     C24888   1.401   3.851   5.399  0.1947 -0.1331 -0.8437
  926MOL0     C24889   1.530   3.831   5.322  0.0527  0.1799 -0.0047
  926MOL0     C24890   1.560   3.687   5.276 -0.1460 -0.2871  0.3388
  926MOL0     C24891   1.671   3.687   5.174 -0.4119 -0.2017 -0.8449
  926MOL0     N24892   1.807   3.699   5.241  0.4283  0.6194  0.2873
  926MOL0     C24893   1.875   3.822   5.244 -0.6631  0.4447 -0.4520
  926MOL0     C24894   2.002   3.775   5.274  0.6449 -1.2401  0.2993
  926MOL0     C24895   2.132   3.852   5.288 -0.5711  1.0922  0.5229
  926MOL0     C24896   2.179   3.920   5.160  0.4976 -0.2911  0.3048
  926MOL0     C24897   2.304   4.003   5.165 -0.0317 -0.3187  0.5342
  926MOL0     C24898   2.434   3.920   5.193  0.3638  0.6544  0.5293
  926MOL0     O24899   2.522   3.999   5.252 -0.3853  0.0222 -0.6427
  926MOL0     C24900   2.650   3.975   5.214 -0.6769  0.4743 -0.1764
  926MOL0     C24901   2.717   4.066   5.131 -1.3481 -0.0634 -0.1888
  926MOL0     C24902   2.845   4.036   5.091  0.1301  0.1406 -0.0093
  926MOL0     C24903   2.922   3.925   5.126 -0.3702 -0.2707  0.5557
  926MOL0     C24904   3.059   3.908   5.075 -0.8519 -0.9050  1.0619
  926MOL0     O24905   3.114   4.003   4.995 -0.2253  0.8349  0.1326
  926MOL0     C24906   3.243   3.979   4.962  0.5193 -0.0588  0.2632
  926MOL0     C24907   3.272   3.913   4.841 -0.1546 -0.0267 -0.8379
  926MOL0     C24908   3.402   3.876   4.808  0.0565  0.9021  0.1048
  926MOL0     C24909   3.512   3.915   4.885 -0.2206 -0.0443  0.1106
  926MOL0     O24910   3.640   3.881   4.855  0.6019  0.3004 -0.1265
  926MOL0     C24911   3.660   3.747   4.815 -0.2449 -0.3522 -0.5194
  926MOL0     C24912   3.772   3.746   4.722  0.2087 -0.4883 -0.5668
  926MOL0     C24913   3.902   3.749   4.808 -1.0471  0.9671  0.4511
  926MOL0     C24914   4.029   3.764   4.725 -0.2902 -0.0794 -0.3674
  926MOL0     C24915   4.155   3.748   4.808 -0.1409 -0.2480 -0.3885
  926MOL0     C24916   4.270   3.787   4.714  0.0476  0.7756 -0.6712
  926MOL0     C24917   4.401   3.751   4.787  0.1881 -0.2417 -0.1034
  926MOL0     C24918   4.528   3.765   4.696 -0.3488  0.0687  0.1560
  926MOL0    Cl24919   4.682   3.695   4.767  0.0169  0.0387 -0.4184
  926MOL0     C24920   3.487   3.994   4.997 -0.2460 -0.4517 -0.6486
  926MOL0     C24921   3.355   4.029   5.039 -0.9688  0.2079  0.3388
  926MOL0     O24922   3.118   3.806   5.101  0.5526  0.1082  0.3542
  926MOL0     C24923   2.859   3.827   5.211 -0.0558  0.0392  0.3673
  926MOL0     C24924   2.721   3.856   5.247  0.2385 -0.5419 -0.0026
  926MOL0     N24925   1.999   3.640   5.297  0.8127 -0.4564  0.3960
  926MOL0     N24926   1.878   3.594   5.280 -0.1578 -0.0845  0.3345
  926MOL0     C24927   0.632   3.883   5.627  0.1342 -0.2215 -0.5181
  926MOL0     C24928   0.517   3.876   5.714 -0.0195  0.8672 -0.7539
  926MOL0     C24929   0.085   3.880   5.765 -0.3510  0.2119  0.4261
  926MOL0     C24930   0.103   3.895   5.900 -0.1739  1.0518 -0.5012
  926MOL0     C24931   0.007   3.920   5.990  0.4204  0.0798 -0.7026
  926MOL0     C24932  -0.122   3.933   5.945  1.1153 -0.6831 -0.5376
  926MOL0     O24933  -0.239   3.940   6.015  0.0985 -0.0260 -0.3380
  926MOL0     C24934  -0.245   3.883   6.145  0.4168 -0.2179  0.1732
  926MOL0     C24935  -0.358   3.937   6.226 -0.0586  0.5696  0.4667
  926MOL0     C24936  -0.494   3.935   6.158 -1.1095  0.9693  0.2560
  926MOL0     C24937  -0.590   4.011   6.255 -0.7578  0.5914  0.1193
  926MOL0     C24938  -0.727   4.014   6.217  0.1358 -0.2269 -0.5038
  926MOL0     C24939  -0.842   4.015   6.169  0.6199 -0.4066  0.8381
  926MOL0     C24940  -0.149   3.925   5.805  0.2055 -0.2566 -0.3768
  926MOL0     C24941  -0.048   3.890   5.718 -0.5769  0.4404 -1.3443
  926MOL0     C24942  -0.092   3.867   5.580  0.4529  0.3848 -0.7854
  926MOL0     H24943   0.377   3.598   5.572  1.6125 -2.1931  2.2570
  926MOL0     H24944   0.572   3.611   5.429  1.3332  0.9617 -0.0508
  926MOL0     H24945   0.893   3.917   5.474  1.4768 -0.4909  1.4870
  926MOL0     H24946   0.916   3.775   5.575 -1.7926  0.1756  0.8595
  926MOL0     H24947   0.996   3.814   5.290  0.8963  2.1754  1.8120
  926MOL0     H24948   1.024   3.661   5.380 -2.2934 -0.9475  1.8104
  926MOL0     H24949   1.160   3.770   5.526 -1.6936 -0.4067  0.4472
  926MOL0     H24950   1.108   3.934   5.468 -2.1905 -0.7671 -0.3553
  926MOL0     H24951   1.264   3.731   5.296 -1.3062  0.4000  0.8066
  926MOL0     H24952   1.240   3.904   5.261 -1.6576 -0.9712 -1.1587
  926MOL0     H24953   1.381   3.949   5.445  3.5651  0.2132  0.1165
  926MOL0     H24954   1.412   3.786   5.486  1.0720  1.5265  0.3412
  926MOL0     H24955   1.534   3.901   5.238  2.2864  0.1016 -0.0385
  926MOL0     H24956   1.614   3.863   5.384 -0.1632 -0.5909  0.7022
  926MOL0     H24957   1.473   3.636   5.232  1.7870 -2.9217 -0.7590
  926MOL0     H24958   1.592   3.635   5.366  1.6033  0.6792  0.3051
  926MOL0     H24959   1.679   3.583   5.140 -1.9365  0.6802 -4.2586
  926MOL0     H24960   1.659   3.760   5.094 -0.1338  0.9522  0.1346
  926MOL0     H24961   1.840   3.922   5.223  0.3869  0.8530 -0.3452
  926MOL0     H24962   2.122   3.922   5.371 -3.9350 -1.7580  2.8401
  926MOL0     H24963   2.208   3.779   5.318  1.1815  1.7505 -1.9558
  926MOL0     H24964   2.198   3.845   5.082 -1.8861 -0.5262 -0.1021
  926MOL0     H24965   2.098   3.982   5.120  0.1107  0.0229  1.5583
  926MOL0     H24966   2.296   4.090   5.232  2.9122  2.2079 -2.0668
  926MOL0     H24967   2.320   4.058   5.072 -0.5627  0.3031  0.7978
  926MOL0     H24968   2.470   3.884   5.096 -0.4539 -0.3117  0.5635
  926MOL0     H24969   2.414   3.828   5.250 -0.8997  0.4656 -0.1833
  926MOL0     H24970   2.658   4.152   5.102 -3.0558 -0.3084  2.2106
  926MOL0     H24971   2.892   4.116   5.034 -3.5971  3.1842  0.7312
  926MOL0     H24972   3.187   3.887   4.780  0.0967  2.3649 -2.3752
  926MOL0     H24973   3.402   3.815   4.718 -1.7787  0.8706  0.0849
  926MOL0     H24974   3.675   3.695   4.910 -1.2121 -1.4744 -0.9563
  926MOL0     H24975   3.582   3.697   4.757 -0.3508  0.0426 -0.7170
  926MOL0     H24976   3.755   3.661   4.656  0.7732 -1.2705  0.2651
  926MOL0     H24977   3.770   3.835   4.659  2.4437 -0.4025 -0.6001
  926MOL0     H24978   3.901   3.836   4.874  2.9696 -0.4649  2.7829
  926MOL0     H24979   3.911   3.655   4.864 -1.3715  0.1262 -0.8512
  926MOL0     H24980   4.039   3.853   4.661 -0.7236 -0.0385 -0.3768
  926MOL0     H24981   4.029   3.686   4.649  0.3494 -1.2922  0.8392
  926MOL0     H24982   4.154   3.648   4.851  0.8441  1.0723  3.0743
  926MOL0     H24983   4.157   3.810   4.899 -2.0734 -2.7568  1.5081
  926MOL0     H24984   4.248   3.728   4.624 -3.1542 -1.9954  1.6781
  926MOL0     H24985   4.277   3.893   4.688 -0.3960  1.3048  1.1927
  926MOL0     H24986   4.397   3.648   4.824  0.7259 -0.1600  0.2003
  926MOL0     H24987   4.403   3.814   4.876 -4.1268 -0.8129  0.5977
  926MOL0     H24988   4.510   3.717   4.599  0.0719  1.0400 -0.4160
  926MOL0     H24989   4.543   3.872   4.680 -3.2662  0.7660  1.4805
  926MOL0     H24990   3.578   4.031   5.044 -0.1559 -1.3045 -0.1143
  926MOL0     H24991   3.348   4.096   5.124  3.2733  1.5126 -0.1206
  926MOL0     H24992   2.909   3.738   5.247 -3.6590 -1.4386  2.2966
  926MOL0     H24993   2.665   3.795   5.317  0.4838 -1.4938 -0.6198
  926MOL0     H24994   0.702   3.961   5.656 -1.0875 -0.1774  2.7683
  926MOL0     H24995   0.497   3.935   5.802  0.9958  1.8515 -1.1688
  926MOL0     H24996   0.206   3.892   5.935  0.0663 -0.7552 -1.2906
  926MOL0     H24997   0.041   3.907   6.092 -0.4582  1.0689 -0.2684
  926MOL0     H24998  -0.147   3.887   6.194  0.6238 -3.1448  0.1295
  926MOL0     H24999  -0.263   3.777   6.129  2.1645 -0.3638 -1.0230
  926MOL0     H25000  -0.334   4.042   6.245 -0.5812  0.6592  0.6430
  926MOL0     H25001  -0.367   3.883   6.321 -2.6260 -1.8908 -1.0125
  926MOL0     H25002  -0.543   3.838   6.147  1.5215 -0.1971 -2.8248
  926MOL0     H25003  -0.478   3.980   6.060  0.8587  1.7027  0.8651
  926MOL0     H25004  -0.583   3.963   6.353  2.7675  0.7834  0.1053
  926MOL0     H25005  -0.549   4.110   6.277 -1.0438  0.7081  0.1298
  926MOL0     H25006  -0.939   4.011   6.125  0.8839 -0.3217  0.2283
  926MOL0     H25007  -0.251   3.941   5.771  0.4762 -0.3046 -1.2339
  926MOL0     H25008  -0.195   3.898   5.559  0.1206 -0.2369 -0.1290
  926MOL0     H25009  -0.028   3.918   5.508 -0.6186  0.8156 -1.4643
  926MOL0     H25010  -0.098   3.760   5.555  0.8814  0.2582 -0.3759
  927MOL0     O25011   1.326   1.491   8.456  0.4102 -0.1004  0.5250
  927MOL0     C25012   1.276   1.459   8.560 -0.0737  0.0554 -0.2450
  927MOL0     O25013   1.340   1.400   8.664  0.0898  0.0576 -0.4015
  927MOL0     C25014   1.469   1.358   8.658 -0.3053  0.5665  0.0190
  927MOL0     C25015   1.528   1.342   8.783 -1.0575 -0.0295 -0.2311
  927MOL0     C25016   1.662   1.317   8.795  0.4848  0.9426  0.9369
  927MOL0     C25017   1.741   1.299   8.678 -0.3019 -0.5230  0.2813
  927MOL0     O25018   1.877   1.270   8.681  0.5066  1.0841 -1.0082
  927MOL0     C25019   1.964   1.383   8.705 -0.6517 -0.2359  0.1072
  927MOL0     C25020   2.095   1.328   8.631 -0.2927  0.4861  0.3149
  927MOL0     C25021   2.222   1.418   8.652  0.4321  0.1535  0.0912
  927MOL0     C25022   2.347   1.353   8.584 -0.9519  0.6196 -0.2178
  927MOL0     C25023   2.457   1.465   8.593  0.0104  0.3078  0.7210
  927MOL0     C25024   2.596   1.435   8.527 -0.2989 -0.1989 -0.1309
  927MOL0     C25025   2.667   1.568   8.481 -0.1950  0.3545  0.2491
  927MOL0     C25026   2.784   1.516   8.395 -0.1371 -0.9026  0.4240
  927MOL0     N25027   2.885   1.467   8.475 -0.5328 -0.0560  0.3872
  927MOL0     C25028   2.958   1.351   8.449  0.2718 -0.0348 -0.0265
  927MOL0     C25029   3.052   1.351   8.545  1.0954 -0.7833  0.0496
  927MOL0     C25030   3.152   1.243   8.553  0.6324 -0.0860 -0.3765
  927MOL0     C25031   3.277   1.266   8.468 -0.7621  0.3009 -0.2861
  927MOL0     C25032   3.281   1.178   8.337  0.7071 -0.1436  0.4814
  927MOL0     C25033   3.285   1.023   8.358  0.3723  0.3725 -0.1816
  927MOL0     O25034   3.404   0.987   8.432  0.1467 -0.2471  0.6769
  927MOL0     C25035   3.519   0.949   8.370 -0.7643 -0.0514 -0.3829
  927MOL0     C25036   3.617   0.878   8.439 -0.3029  0.9022 -0.0633
  927MOL0     C25037   3.740   0.860   8.377  1.1928  0.7610 -0.8273
  927MOL0     C25038   3.766   0.882   8.237 -0.8336 -0.4533  0.1270
  927MOL0     C25039   3.901   0.874   8.182  0.7158  1.3382 -0.6304
  927MOL0     O25040   3.996   0.850   8.270 -0.2700  0.1021  0.3296
  927MOL0     C25041   4.129   0.842   8.240  0.0584 -0.4291  0.2785
  927MOL0     C25042   4.192   0.868   8.119 -0.4185 -1.0170  0.7448
  927MOL0     C25043   4.331   0.847   8.103  0.3837 -0.5572 -0.2900
  927MOL0     C25044   4.405   0.799   8.208  0.2291 -0.3487 -0.8127
  927MOL0     O25045   4.526   0.745   8.199 -0.6648 -0.3879  0.0492
  927MOL0     C25046   4.547   0.644   8.097 -1.2613  0.2327  0.2608
  927MOL0     C25047   4.688   0.582   8.124 -0.5986  0.8760  0.4246
  927MOL0     C25048   4.807   0.651   8.054 -0.5488 -0.0766  0.3599
  927MOL0     C25049   4.943   0.590   8.106 -0.5920  0.5026 -0.8570
  927MOL0     C25050   5.047   0.694   8.132  0.1823  0.6817  0.4380
  927MOL0     C25051   5.086   0.778   8.009 -0.1577  0.2094  0.6039
  927MOL0     C25052   5.208   0.862   8.042  0.2817 -0.1835 -0.0608
  927MOL0     C25053   5.286   0.899   7.922 -0.1379 -0.1548 -0.4900
  927MOL0    Cl25054   5.388   0.756   7.873  0.3228  0.1924  0.0707
  927MOL0     C25055   4.346   0.792   8.341 -0.5134 -0.6238  0.4634
  927MOL0     C25056   4.206   0.812   8.352 -0.4565 -0.0453  0.9429
  927MOL0     O25057   3.912   0.879   8.057 -0.2443 -0.7783  0.0721
  927MOL0     C25058   3.651   0.936   8.164  0.6826  0.0556  0.0742
  927MOL0     C25059   3.537   0.962   8.231  0.3827  1.3114 -0.5309
  927MOL0     N25060   3.040   1.466   8.624 -0.8368 -0.0262  0.0834
  927MOL0     N25061   2.935   1.524   8.591  0.2150  0.1549  0.9868
  927MOL0     C25062   1.680   1.306   8.551 -0.2327  0.4575  0.8651
  927MOL0     C25063   1.540   1.322   8.545 -0.3129  0.8105  0.2417
  927MOL0     C25064   1.134   1.487   8.572 -0.6206  0.4036 -0.3645
  927MOL0     C25065   1.040   1.386   8.610  0.2273 -0.8357 -1.1240
  927MOL0     C25066   0.906   1.409   8.594  0.0839  0.1015 -0.6976
  927MOL0     C25067   0.859   1.528   8.553  0.2490 -0.8254 -0.5487
  927MOL0     O25068   0.722   1.553   8.548 -0.1407  0.3283 -0.4446
  927MOL0     C25069   0.651   1.470   8.455 -0.1977  0.7630 -0.3787
  927MOL0     C25070   0.580   1.568   8.366 -0.0284 -0.0998  0.1914
  927MOL0     C25071   0.666   1.639   8.262  0.2170 -0.6582  0.0825
  927MOL0     C25072   0.577   1.722   8.166 -0.4123  0.1813  0.1790
  927MOL0     C25073   0.671   1.760   8.062  0.0078  0.4001  0.1868
  927MOL0     C25074   0.744   1.795   7.976  0.2178 -0.0050  0.8860
  927MOL0     C25075   0.944   1.640   8.545 -0.0052 -0.2007 -0.4989
  927MOL0     C25076   1.083   1.616   8.550  0.2751 -0.6409  0.7649
  927MOL0     C25077   1.170   1.748   8.540  0.2544 -0.0177 -0.1165
  927MOL0     H25078   1.464   1.345   8.870 -2.3959  4.0846 -1.1315
  927MOL0     H25079   1.703   1.295   8.893 -0.1564  3.4208  1.8389
  927MOL0     H25080   1.931   1.470   8.647 -2.5230 -0.5266  0.6682
  927MOL0     H25081   1.990   1.412   8.808 -1.7002  0.1411  0.2767
  927MOL0     H25082   2.075   1.332   8.524  0.9954  1.5483  0.0877
  927MOL0     H25083   2.121   1.226   8.661 -1.8506  0.0549  0.2746
  927MOL0     H25084   2.245   1.425   8.759  2.5134  1.2733 -0.3858
  927MOL0     H25085   2.199   1.519   8.618 -0.8644 -0.3346 -0.5548
  927MOL0     H25086   2.370   1.259   8.635  2.0965  0.4443 -1.7195
  927MOL0     H25087   2.318   1.327   8.482 -3.6546 -0.5215  0.7396
  927MOL0     H25088   2.414   1.557   8.550  0.0352  0.1601  0.3716
  927MOL0     H25089   2.482   1.493   8.695  3.2181 -2.2051  0.7622
  927MOL0     H25090   2.661   1.388   8.601 -0.3159  1.3151  0.8994
  927MOL0     H25091   2.591   1.351   8.457 -1.2102 -1.3225  1.2151
  927MOL0     H25092   2.701   1.622   8.570  0.1458 -1.6423  1.3838
  927MOL0     H25093   2.600   1.623   8.413 -0.0930  0.7634  0.4783
  927MOL0     H25094   2.750   1.446   8.318  3.5739  1.0493 -3.4014
  927MOL0     H25095   2.835   1.590   8.333  1.1724 -4.3113 -2.9533
  927MOL0     H25096   2.936   1.278   8.372  0.1058  0.3130 -0.3108
  927MOL0     H25097   3.183   1.235   8.658  2.6511 -1.5549 -1.0205
  927MOL0     H25098   3.125   1.143   8.519 -0.7724  0.8615 -2.2036
  927MOL0     H25099   3.291   1.373   8.447  0.5567  1.1595  3.9729
  927MOL0     H25100   3.368   1.240   8.522 -1.3251 -4.0122 -1.0656
  927MOL0     H25101   3.356   1.220   8.270  1.1860 -0.5122  0.7885
  927MOL0     H25102   3.185   1.193   8.284  1.0878  2.3721  0.3575
  927MOL0     H25103   3.271   0.982   8.258  0.2331  1.6506 -0.7040
  927MOL0     H25104   3.213   0.983   8.429  1.2711 -3.5349 -1.2309
  927MOL0     H25105   3.616   0.865   8.547  2.8390 -2.4661 -0.2672
  927MOL0     H25106   3.827   0.834   8.438 -0.2225  0.8431  1.3383
  927MOL0     H25107   4.136   0.917   8.040  0.8097 -2.4992 -1.1117
  927MOL0     H25108   4.390   0.859   8.013  1.0463 -3.7564 -0.3822
  927MOL0     H25109   4.471   0.565   8.095  0.0890 -1.2541  2.8220
  927MOL0     H25110   4.555   0.700   8.003  1.2441  1.1991  0.9727
  927MOL0     H25111   4.711   0.596   8.230  0.6136 -0.1444  0.3182
  927MOL0     H25112   4.689   0.473   8.111  2.7006  0.5613  2.2851
  927MOL0     H25113   4.795   0.630   7.947 -3.6913  0.4399  0.4964
  927MOL0     H25114   4.804   0.760   8.064  2.5206  0.0256  0.9313
  927MOL0     H25115   4.975   0.526   8.024 -1.4845 -1.6913  0.4051
  927MOL0     H25116   4.920   0.540   8.201  1.2428  0.2492 -0.5195
  927MOL0     H25117   5.133   0.637   8.170 -1.7387 -1.5612  1.7370
  927MOL0     H25118   5.011   0.753   8.217 -1.5001 -1.5738  1.4353
  927MOL0     H25119   5.107   0.713   7.924  0.3903  0.4062  0.5848
  927MOL0     H25120   5.004   0.839   7.971  0.6520  0.4863 -0.7669
  927MOL0     H25121   5.268   0.815   8.121  0.7897  0.2885 -0.1637
  927MOL0     H25122   5.168   0.950   8.092 -0.8850 -1.1537  0.7943
  927MOL0     H25123   5.231   0.943   7.838  0.4969  0.4335 -0.6007
  927MOL0     H25124   5.363   0.969   7.953  1.2000 -0.7492 -2.2914
  927MOL0     H25125   4.405   0.763   8.427 -1.5489 -2.5825  0.5904
  927MOL0     H25126   4.171   0.810   8.455  1.4073  0.2274  1.6115
  927MOL0     H25127   3.652   0.967   8.059 -0.5683  0.4467  0.1610
  927MOL0     H25128   3.460   1.005   8.167  1.2462 -0.1204 -2.6489
  927MOL0     H25129   1.738   1.289   8.461 -0.6057  1.7564  0.3651
  927MOL0     H25130   1.494   1.313   8.447  1.0844 -1.9590 -0.2717
  927MOL0     H25131   1.073   1.286   8.634 -1.4466 -1.1055  0.2062
  927MOL0     H25132   0.840   1.325   8.615  1.3001 -0.5639  0.6364
  927MOL0     H25133   0.576   1.411   8.508  0.7582 -3.0932 -2.8307
  927MOL0     H25134   0.715   1.400   8.400 -4.2042 -2.1789 -1.7915
  927MOL0     H25135   0.516   1.639   8.419 -0.5337 -0.1565 -0.3285
  927MOL0     H25136   0.512   1.510   8.303 -2.2651  2.8111 -0.3121
  927MOL0     H25137   0.732   1.568   8.212  0.4383 -0.1222 -0.4040
  927MOL0     H25138   0.735   1.703   8.317 -3.9515  1.4550  3.5351
  927MOL0     H25139   0.489   1.672   8.125 -0.8857  1.3620 -0.2893
  927MOL0     H25140   0.545   1.816   8.212 -0.1022  0.6249 -0.4951
  927MOL0     H25141   0.830   1.819   7.917  1.0807  2.4363  2.9507
  927MOL0     H25142   0.893   1.735   8.533 -0.3327 -0.1375  1.1405
  927MOL0     H25143   1.260   1.724   8.483 -0.8047 -3.2660 -0.6533
  927MOL0     H25144   1.124   1.826   8.478  0.8029  1.6417  1.4898
  927MOL0     H25145   1.199   1.800   8.632  1.6242  2.9548 -2.0574
  928MOL0     O25146  10.158   4.667   1.722  0.8885 -0.2516  0.6059
  928MOL0     C25147  10.112   4.617   1.619 -0.3138 -1.1776 -0.2944
  928MOL0     O25148  10.142   4.495   1.575 -0.4606  0.7962  0.0284
  928MOL0     C25149  10.266   4.442   1.609 -0.2876  0.4145 -0.8311
  928MOL0     C25150  10.272   4.328   1.696  0.0842  0.4151 -0.3682
  928MOL0     C25151  10.394   4.265   1.731  0.6572 -0.1577 -0.5545
  928MOL0     C25152  10.513   4.308   1.679  0.0714 -1.0253  0.1435
  928MOL0     O25153  10.634   4.254   1.711 -0.4752  0.0718  0.4167
  928MOL0     C25154  10.635   4.110   1.694 -0.1638 -0.6824  0.7523
  928MOL0     C25155  10.780   4.070   1.660  0.5284 -0.4478 -0.1476
  928MOL0     C25156  10.809   4.102   1.512 -0.4892 -0.1265  0.3969
  928MOL0     C25157  10.930   4.198   1.512 -0.8603 -1.1560  0.1071
  928MOL0     C25158  11.066   4.116   1.543  0.3193 -0.2715  0.7124
  928MOL0     C25159  11.184   4.196   1.509 -1.2413 -0.0556 -0.3413
  928MOL0     C25160  11.313   4.136   1.565  0.0980  0.4724 -0.4542
  928MOL0     C25161  11.447   4.211   1.546 -0.6539  0.0756 -0.7117
  928MOL0     N25162  11.496   4.197   1.410 -0.9894  0.0770 -0.6185
  928MOL0     C25163  11.492   4.291   1.309  0.0568 -0.1351 -0.7184
  928MOL0     C25164  11.523   4.230   1.198 -0.2819 -0.0929  0.4579
  928MOL0     C25165  11.570   4.309   1.074 -0.3395  0.2440 -0.0932
  928MOL0     C25166  11.723   4.313   1.076 -0.3495  0.2412 -1.2142
  928MOL0     C25167  11.797   4.184   1.032 -0.4924 -0.8293 -0.1690
  928MOL0     C25168  11.947   4.173   1.053 -0.5389 -0.1496  0.0494
  928MOL0     O25169  12.008   4.285   0.979 -0.3369  0.5079 -0.2741
  928MOL0     C25170  12.133   4.330   1.018  0.0999  0.1327 -0.7100
  928MOL0     C25171  12.208   4.287   1.128  0.6362 -0.8890  0.0411
  928MOL0     C25172  12.348   4.315   1.142  0.7983  0.9278 -0.1848
  928MOL0     C25173  12.412   4.392   1.050  0.6225 -0.6390  0.9218
  928MOL0     C25174  12.562   4.413   1.048  0.3957 -0.8278  0.3438
  928MOL0     O25175  12.624   4.489   0.953  0.5219  0.3288  0.4429
  928MOL0     C25176  12.758   4.505   0.951 -0.7773 -0.8600  0.4511
  928MOL0     C25177  12.832   4.478   0.830  0.1838  0.2239 -0.5006
  928MOL0     C25178  12.977   4.477   0.832  0.7518 -0.1722  0.2035
  928MOL0     C25179  13.042   4.525   0.949 -0.9049 -0.3371 -1.0679
  928MOL0     O25180  13.182   4.533   0.959  0.4487  0.3621  0.3234
  928MOL0     C25181  13.271   4.466   0.868 -0.2208 -0.1219  0.5356
  928MOL0     C25182  13.411   4.498   0.917  0.4019 -0.4825 -0.0548
  928MOL0     C25183  13.520   4.441   0.820  1.3488 -0.0982  0.3177
  928MOL0     C25184  13.663   4.471   0.877 -0.4432  0.6455  0.6172
  928MOL0     C25185  13.766   4.452   0.762 -0.9714  0.4147 -0.6258
  928MOL0     C25186  13.912   4.439   0.803  0.1941  0.1469  0.9476
  928MOL0     C25187  13.978   4.569   0.853 -0.8770 -0.2092 -0.3595
  928MOL0     C25188  14.129   4.525   0.885 -0.4261 -0.3060  0.8243
  928MOL0    Cl25189  14.228   4.663   0.923 -0.1585  0.2005 -0.2029
  928MOL0     C25190  12.963   4.556   1.060 -0.4154 -0.0471  1.1212
  928MOL0     C25191  12.821   4.547   1.059 -0.1543 -0.0353 -0.2015
  928MOL0     O25192  12.621   4.356   1.135 -0.3845  0.1948 -0.6031
  928MOL0     C25193  12.341   4.441   0.943  0.9161  1.3510 -0.0379
  928MOL0     C25194  12.208   4.399   0.924  0.0301 -0.1455  0.4518
  928MOL0     N25195  11.518   4.094   1.227  0.6147  0.5086  0.6681
  928MOL0     N25196  11.519   4.077   1.352  0.6979  0.0945 -0.5172
  928MOL0     C25197  10.513   4.414   1.584  0.3794  0.0469 -0.4769
  928MOL0     C25198  10.390   4.478   1.553 -0.6869  0.9289  0.2974
  928MOL0     C25199   9.985   4.669   1.553  0.0920 -0.6891  0.1764
  928MOL0     C25200   9.914   4.578   1.477 -0.3669 -0.4340 -0.2552
  928MOL0     C25201   9.801   4.616   1.405  0.1975 -0.0632 -0.0009
  928MOL0     C25202   9.747   4.745   1.426  0.0052  0.0680 -0.1595
  928MOL0     O25203   9.641   4.798   1.355  0.2212 -0.0677  0.1858
  928MOL0     C25204   9.515   4.772   1.415  0.1307 -0.4454  0.3380
  928MOL0     C25205   9.435   4.894   1.426  0.7870  0.4080 -0.0950
  928MOL0     C25206   9.289   4.873   1.481  0.4882  0.3723 -0.2435
  928MOL0     C25207   9.199   4.994   1.453  0.1355 -0.7522  0.2245
  928MOL0     C25208   9.256   5.117   1.509  0.7142 -0.5278  0.4461
  928MOL0     C25209   9.309   5.215   1.550 -0.0282  0.1311 -0.3855
  928MOL0     C25210   9.818   4.837   1.503 -0.2256  0.3568  0.4874
  928MOL0     C25211   9.940   4.803   1.569 -0.2321 -0.3498  0.4722
  928MOL0     C25212  10.007   4.911   1.645  0.1873 -1.0110 -0.2380
  928MOL0     H25213  10.176   4.292   1.732  1.7469 -0.2796  4.0269
  928MOL0     H25214  10.398   4.190   1.809 -0.2140  0.5236  0.1624
  928MOL0     H25215  10.598   4.064   1.787 -0.0549 -0.1354  1.0695
  928MOL0     H25216  10.569   4.076   1.614  0.5057  0.2785 -0.2277
  928MOL0     H25217  10.795   3.963   1.674 -0.9295 -0.9414 -2.0010
  928MOL0     H25218  10.852   4.115   1.729  0.6618 -1.5954  0.4747
  928MOL0     H25219  10.720   4.156   1.480  0.3824  0.8829 -0.4042
  928MOL0     H25220  10.819   4.007   1.459 -1.0952 -1.3161  2.3192
  928MOL0     H25221  10.933   4.243   1.413 -0.2236  0.8919  1.0155
  928MOL0     H25222  10.923   4.277   1.588 -0.0339 -0.0588 -0.9274
  928MOL0     H25223  11.058   4.080   1.646 -0.2194  2.8786  1.8968
  928MOL0     H25224  11.063   4.030   1.475 -1.1783  0.1840  0.1641
  928MOL0     H25225  11.190   4.215   1.401  1.4654  0.9718 -0.0788
  928MOL0     H25226  11.178   4.289   1.565  0.2321  0.2360 -0.6362
  928MOL0     H25227  11.331   4.038   1.520 -0.6000  0.5382 -0.8857
  928MOL0     H25228  11.299   4.108   1.670 -0.5533  1.4167 -0.2852
  928MOL0     H25229  11.429   4.311   1.587 -0.9698 -0.7095  1.1582
  928MOL0     H25230  11.530   4.166   1.601 -0.0094 -2.4426 -3.5083
  928MOL0     H25231  11.469   4.397   1.323  0.0024 -0.1269 -0.8673
  928MOL0     H25232  11.522   4.272   0.982 -1.0947  1.1063 -0.0673
  928MOL0     H25233  11.537   4.413   1.072  0.0796  0.3674 -1.9408
  928MOL0     H25234  11.741   4.389   0.999 -1.2517 -1.1234 -2.8528
  928MOL0     H25235  11.759   4.342   1.175  0.1806  1.0082 -1.6211
  928MOL0     H25236  11.779   4.180   0.925 -2.5903 -0.4182  0.1301
  928MOL0     H25237  11.734   4.105   1.075 -1.6919 -0.3901 -1.0645
  928MOL0     H25238  11.995   4.090   1.001 -0.0684  0.9101 -1.2697
  928MOL0     H25239  11.964   4.177   1.161 -1.6207  2.4503  0.2036
  928MOL0     H25240  12.152   4.218   1.191  0.7513 -2.4294 -1.4798
  928MOL0     H25241  12.389   4.290   1.239  0.6021 -3.1457 -0.9971
  928MOL0     H25242  12.774   4.439   0.747 -0.3284  2.1138 -1.0861
  928MOL0     H25243  13.032   4.451   0.742  0.0763  1.0169 -0.5842
  928MOL0     H25244  13.244   4.360   0.870 -3.3622  0.5256 -0.8450
  928MOL0     H25245  13.251   4.513   0.771  0.4094  1.7957  1.2958
  928MOL0     H25246  13.427   4.606   0.925 -0.1662 -0.2563 -1.7530
  928MOL0     H25247  13.414   4.465   1.022 -0.4937  2.1849  0.9075
  928MOL0     H25248  13.492   4.335   0.823 -2.0569  0.6950  1.8107
  928MOL0     H25249  13.518   4.487   0.721  0.5300  0.9985  0.8249
  928MOL0     H25250  13.690   4.389   0.944 -3.4136 -2.2127 -1.3549
  928MOL0     H25251  13.677   4.572   0.915  1.9124 -0.1151  1.9592
  928MOL0     H25252  13.772   4.538   0.695 -2.0361  0.0812 -1.1720
  928MOL0     H25253  13.736   4.372   0.693 -1.2065  1.0493 -1.2737
  928MOL0     H25254  13.922   4.367   0.884 -2.6216  0.6809  1.8657
  928MOL0     H25255  13.966   4.401   0.716 -1.7154 -4.4747  1.4776
  928MOL0     H25256  13.927   4.607   0.943  0.7522 -0.9263  0.9320
  928MOL0     H25257  13.975   4.640   0.771  2.2783  1.0974  0.5085
  928MOL0     H25258  14.121   4.452   0.966  0.7934 -1.8032 -0.3409
  928MOL0     H25259  14.176   4.486   0.794  2.3733  0.2571  1.9254
  928MOL0     H25260  12.995   4.597   1.156 -2.2827  1.0439  1.3429
  928MOL0     H25261  12.764   4.574   1.148  0.7637 -2.3460  1.1948
  928MOL0     H25262  12.388   4.506   0.869  0.6712  1.2904 -0.2477
  928MOL0     H25263  12.163   4.425   0.829  0.6019  1.3774  0.5762
  928MOL0     H25264  10.602   4.447   1.530  1.3565 -1.0066  0.4470
  928MOL0     H25265  10.381   4.558   1.480 -0.9788  0.4522 -0.2048
  928MOL0     H25266   9.942   4.473   1.474  0.9859 -0.1829  1.5803
  928MOL0     H25267   9.740   4.539   1.360  1.1259  0.2018 -1.7728
  928MOL0     H25268   9.528   4.735   1.518 -0.3004 -1.5959 -0.0018
  928MOL0     H25269   9.462   4.696   1.357 -0.8218 -1.3166  2.2343
  928MOL0     H25270   9.432   4.950   1.332 -1.6469  1.4777  0.5526
  928MOL0     H25271   9.495   4.951   1.498 -0.9748  2.3383 -0.0608
  928MOL0     H25272   9.267   4.849   1.586 -0.9547  3.1335  0.1812
  928MOL0     H25273   9.258   4.790   1.417  0.4625  0.7727 -0.7559
  928MOL0     H25274   9.194   5.023   1.348  1.3903 -1.1217  0.0449
  928MOL0     H25275   9.097   4.976   1.487  0.3183  0.1613  1.3048
  928MOL0     H25276   9.367   5.302   1.576  2.5748 -1.7799  0.6691
  928MOL0     H25277   9.768   4.933   1.510 -2.1754 -0.6870  1.9925
  928MOL0     H25278  10.113   4.887   1.652  0.5212  0.5834  0.5972
  928MOL0     H25279   9.992   5.009   1.598 -3.2116  0.6129  3.6083
  928MOL0     H25280   9.965   4.907   1.746 -1.0690  1.0197 -0.6222
  929MOL0     O25281   4.956   7.169   8.319  0.5725 -0.3808  0.0845
  929MOL0     C25282   4.990   7.072   8.388 -0.4536 -0.3990  0.4735
  929MOL0     O25283   5.113   7.029   8.397 -0.6274  0.4336  0.2442
  929MOL0     C25284   5.208   7.060   8.301  0.3266  0.3381 -0.8625
  929MOL0     C25285   5.350   7.068   8.345  0.4911  0.6504  0.1355
  929MOL0     C25286   5.446   7.068   8.243  0.4654 -0.8666  0.1301
  929MOL0     C25287   5.416   7.086   8.108 -0.4976 -0.5232  0.7289
  929MOL0     O25288   5.512   7.092   8.004 -0.5118  0.4664  0.4550
  929MOL0     C25289   5.644   7.138   8.040 -0.4354  0.0413  0.1103
  929MOL0     C25290   5.741   7.168   7.917 -0.6461 -0.4570 -0.1123
  929MOL0     C25291   5.873   7.230   7.969 -1.0268  0.8514 -0.3476
  929MOL0     C25292   5.958   7.246   7.843 -0.0767 -0.8193 -0.2618
  929MOL0     C25293   6.083   7.344   7.858 -0.2681 -0.3119 -0.5639
  929MOL0     C25294   6.187   7.284   7.951 -0.2334  0.9216 -0.2528
  929MOL0     C25295   6.325   7.349   7.919  0.3954 -0.7681 -0.1365
  929MOL0     C25296   6.321   7.498   7.956  0.1127 -0.1677 -0.3821
  929MOL0     N25297   6.447   7.569   7.941 -0.7561  0.3472  0.2500
  929MOL0     C25298   6.500   7.605   7.815 -0.0637  0.4494 -0.1918
  929MOL0     C25299   6.592   7.700   7.846  0.6558  0.4796 -0.3302
  929MOL0     C25300   6.670   7.793   7.761 -0.5904 -0.5394 -0.4731
  929MOL0     C25301   6.818   7.746   7.760  0.6630  0.6194 -0.0975
  929MOL0     C25302   6.897   7.840   7.671 -0.9135 -0.7149  0.0696
  929MOL0     C25303   7.052   7.837   7.697  1.4223 -0.9876 -0.0755
  929MOL0     O25304   7.080   7.909   7.816 -0.9187  0.7162  0.4656
  929MOL0     C25305   7.209   7.924   7.851 -0.0050 -0.1044 -0.7031
  929MOL0     C25306   7.238   8.009   7.963 -0.1143 -0.2293 -0.3081
  929MOL0     C25307   7.375   8.026   8.003  0.8010 -0.3003  1.0016
  929MOL0     C25308   7.480   7.969   7.934 -0.0246  0.6686  0.8444
  929MOL0     C25309   7.626   7.997   7.966  0.2087 -0.5663 -0.4439
  929MOL0     O25310   7.652   8.110   8.034 -0.8339  0.0203 -0.3239
  929MOL0     C25311   7.785   8.158   8.042 -0.6351 -0.2104  0.3107
  929MOL0     C25312   7.879   8.167   7.922  0.0081  0.4221 -0.7707
  929MOL0     C25313   8.011   8.218   7.945  0.2511  1.1144  0.8111
  929MOL0     C25314   8.063   8.250   8.071  0.4492  0.2314  0.7623
  929MOL0     O25315   8.192   8.300   8.089  0.5747 -0.1532  0.2123
  929MOL0     C25316   8.218   8.402   8.184 -0.0899 -0.1414  0.6333
  929MOL0     C25317   8.372   8.438   8.182  0.0254 -0.2448 -0.2211
  929MOL0     C25318   8.427   8.510   8.056  0.4255  0.2498  0.6703
  929MOL0     C25319   8.563   8.565   8.091  0.4962  0.1985  0.4471
  929MOL0     C25320   8.617   8.644   7.972 -0.4332  0.6704 -0.4575
  929MOL0     C25321   8.749   8.707   8.025 -0.0800 -0.5323 -0.4100
  929MOL0     C25322   8.792   8.831   7.949  0.6970 -0.8919 -0.0908
  929MOL0     C25323   8.939   8.869   7.967 -0.0134  0.3340  0.3232
  929MOL0    Cl25324   8.977   8.995   7.854  0.4464 -0.2421 -0.2545
  929MOL0     C25325   7.973   8.227   8.181  0.1495  0.1743  0.2653
  929MOL0     C25326   7.843   8.186   8.162 -0.2029  0.3876  0.5682
  929MOL0     O25327   7.704   7.906   7.939 -0.6174 -0.2536  1.1054
  929MOL0     C25328   7.451   7.878   7.832 -0.1640 -0.8516  0.0578
  929MOL0     C25329   7.318   7.858   7.786 -0.0940 -0.3953 -0.0955
  929MOL0     N25330   6.608   7.704   7.985  0.7461 -0.2834 -0.1856
  929MOL0     N25331   6.518   7.626   8.042 -0.6602 -0.0908  0.6638
  929MOL0     C25332   5.280   7.091   8.069  0.3866  0.4441  0.4840
  929MOL0     C25333   5.177   7.082   8.166  0.2802  0.0612 -0.3476
  929MOL0     C25334   4.881   7.003   8.465 -1.0500 -0.0515  1.1577
  929MOL0     C25335   4.918   6.889   8.530  0.2051  0.4736 -1.5126
  929MOL0     C25336   4.822   6.824   8.607 -0.9616  1.1732 -0.5647
  929MOL0     C25337   4.685   6.871   8.617  0.2715 -0.5435  0.1517
  929MOL0     O25338   4.585   6.814   8.692 -0.3074  0.2161  0.1076
  929MOL0     C25339   4.576   6.674   8.699 -0.4414  0.1067  0.2916
  929MOL0     C25340   4.461   6.619   8.777 -0.1154 -0.2061  0.1150
  929MOL0     C25341   4.331   6.670   8.716 -0.4911 -0.1368  0.0742
  929MOL0     C25342   4.220   6.616   8.798 -0.3416  0.6338 -0.9199
  929MOL0     C25343   4.085   6.664   8.748 -0.0840  0.1582 -0.0073
  929MOL0     C25344   3.975   6.707   8.723 -0.1148  0.4118  0.3701
  929MOL0     C25345   4.649   6.979   8.547  0.0062 -1.0950 -0.0189
  929MOL0     C25346   4.752   7.054   8.487  0.5015  0.2054  0.3969
  929MOL0     C25347   4.710   7.195   8.446 -0.9737 -1.1382 -0.6321
  929MOL0     H25348   5.374   7.060   8.450  1.8680 -2.5293 -0.3004
  929MOL0     H25349   5.551   7.056   8.270  0.7179 -2.4540 -1.3738
  929MOL0     H25350   5.635   7.234   8.091  0.8893 -1.3610  3.2640
  929MOL0     H25351   5.696   7.068   8.106  0.3571  0.3536 -0.1788
  929MOL0     H25352   5.698   7.245   7.852 -2.9373 -1.5623  0.0219
  929MOL0     H25353   5.768   7.080   7.857  1.0109  0.1904 -0.3757
  929MOL0     H25354   5.921   7.157   8.035  1.3345  2.0143 -0.6452
  929MOL0     H25355   5.854   7.319   8.029  0.8511  1.0991 -0.0510
  929MOL0     H25356   5.992   7.148   7.807  0.9795 -0.7358  0.4452
  929MOL0     H25357   5.905   7.294   7.761  3.7368 -0.0592 -2.5382
  929MOL0     H25358   6.126   7.354   7.758  2.2981  2.1405  0.6374
  929MOL0     H25359   6.054   7.440   7.903 -0.7166 -0.5635 -0.2996
  929MOL0     H25360   6.168   7.299   8.058 -0.0034  0.2886 -0.1193
  929MOL0     H25361   6.208   7.178   7.935  1.0023  0.8799  1.3636
  929MOL0     H25362   6.357   7.343   7.815 -0.0249 -0.0437 -0.3217
  929MOL0     H25363   6.408   7.299   7.971  4.6404  2.3392 -3.1745
  929MOL0     H25364   6.254   7.555   7.891 -2.2105 -0.4466  1.6201
  929MOL0     H25365   6.284   7.503   8.059 -1.2904 -1.4370 -0.7895
  929MOL0     H25366   6.463   7.595   7.713 -2.8418 -1.9163  0.9054
  929MOL0     H25367   6.639   7.793   7.656  3.9021 -0.0655 -2.0033
  929MOL0     H25368   6.663   7.893   7.805  0.2553 -1.9239  3.1509
  929MOL0     H25369   6.858   7.746   7.862  0.0245  0.5175  0.1629
  929MOL0     H25370   6.819   7.647   7.714 -2.9523 -0.0186  0.8180
  929MOL0     H25371   6.858   7.943   7.670  1.2766  0.1766  0.8048
  929MOL0     H25372   6.871   7.805   7.571 -1.3951  2.8704 -1.2185
  929MOL0     H25373   7.110   7.896   7.626  0.8187  1.1256  1.1039
  929MOL0     H25374   7.091   7.735   7.694  2.9235 -0.4573  0.3733
  929MOL0     H25375   7.153   8.060   8.008  1.4619  1.3060  1.0451
  929MOL0     H25376   7.394   8.076   8.098 -2.0046 -1.9977  2.5766
  929MOL0     H25377   7.828   8.141   7.830 -0.7452  0.2476 -0.3159
  929MOL0     H25378   8.085   8.215   7.865 -1.1031 -0.2398 -0.4569
  929MOL0     H25379   8.157   8.483   8.144 -3.7085 -2.1891  1.5814
  929MOL0     H25380   8.176   8.369   8.279  1.8431 -2.9056  0.6599
  929MOL0     H25381   8.402   8.472   8.282  0.5523 -0.4602 -0.3042
  929MOL0     H25382   8.433   8.348   8.183  1.3583  0.6306  0.2552
  929MOL0     H25383   8.425   8.453   7.963 -1.2133  1.3272 -0.0084
  929MOL0     H25384   8.364   8.598   8.038 -0.3873 -0.3551  0.4977
  929MOL0     H25385   8.626   8.476   8.099  0.0149 -0.2378 -0.4254
  929MOL0     H25386   8.572   8.623   8.183  1.4905 -0.3555  0.7145
  929MOL0     H25387   8.535   8.716   7.956 -0.4009  0.4416 -1.7680
  929MOL0     H25388   8.630   8.577   7.887  2.4694  1.7861 -0.9862
  929MOL0     H25389   8.751   8.717   8.134 -0.4188  1.5693 -0.5545
  929MOL0     H25390   8.829   8.634   8.011 -1.3602 -2.0779  0.0551
  929MOL0     H25391   8.732   8.917   7.980  0.3216 -0.7168 -1.2614
  929MOL0     H25392   8.777   8.812   7.842  1.4222 -1.2731 -0.1267
  929MOL0     H25393   8.946   8.899   8.072  1.1630 -1.0196  0.6545
  929MOL0     H25394   9.000   8.779   7.956  2.0677  1.8020 -0.8132
  929MOL0     H25395   7.998   8.238   8.286  0.6912  2.5670 -0.0588
  929MOL0     H25396   7.781   8.194   8.251  0.4557  1.5595  0.9394
  929MOL0     H25397   7.537   7.834   7.782  1.7899 -0.4730  2.8209
  929MOL0     H25398   7.305   7.783   7.709 -1.0192  3.0241 -3.5935
  929MOL0     H25399   5.256   7.108   7.965 -1.6611  1.4631  1.0700
  929MOL0     H25400   5.076   7.096   8.128 -0.1378  0.2135  0.7805
  929MOL0     H25401   5.021   6.858   8.542  1.3917  4.5257  0.3054
  929MOL0     H25402   4.865   6.735   8.652  0.0945  2.6269  1.4641
  929MOL0     H25403   4.664   6.621   8.736 -1.6984 -0.2682  2.9871
  929MOL0     H25404   4.558   6.655   8.593  3.0313  3.5364 -1.1681
  929MOL0     H25405   4.465   6.653   8.881 -0.8546  0.9331 -0.2066
  929MOL0     H25406   4.460   6.510   8.776  1.0984 -0.2319 -0.6431
  929MOL0     H25407   4.325   6.633   8.613 -0.7030 -0.1321  0.0839
  929MOL0     H25408   4.332   6.779   8.711  0.6827 -0.0808  1.2402
  929MOL0     H25409   4.221   6.507   8.810  1.1614  0.3743 -2.8878
  929MOL0     H25410   4.219   6.651   8.901 -0.7302 -1.0697 -0.3157
  929MOL0     H25411   3.876   6.745   8.712 -0.4318  0.0227  1.6405
  929MOL0     H25412   4.553   7.029   8.550 -0.4549 -1.9944  0.4131
  929MOL0     H25413   4.690   7.197   8.338  2.6172 -1.8282 -1.4302
  929MOL0     H25414   4.614   7.225   8.490  0.4841  2.0303  0.6565
  929MOL0     H25415   4.785   7.268   8.475  1.2978 -3.9386  1.0846
  930MOL0     O25416   9.956   8.848  10.248  0.6644 -0.9157 -0.0866
  930MOL0     C25417   9.862   8.788  10.293  0.3181 -0.7329  0.7671
  930MOL0     O25418   9.865   8.680  10.376  0.7868  0.3261 -0.0341
  930MOL0     C25419   9.988   8.635  10.424 -0.4355  1.1763 -1.0297
  930MOL0     C25420  10.112   8.638  10.349 -0.9759 -0.1814 -0.2766
  930MOL0     C25421  10.221   8.579  10.403 -0.5243  0.7093  0.2303
  930MOL0     C25422  10.215   8.509  10.526 -0.3007 -0.0421  0.0310
  930MOL0     O25423  10.332   8.445  10.545 -0.0154  0.4037  0.5908
  930MOL0     C25424  10.390   8.453  10.678  0.9839 -0.0468  0.6657
  930MOL0     C25425  10.532   8.399  10.667  0.0843  0.4357  0.5233
  930MOL0     C25426  10.543   8.260  10.611  0.3307  0.5929  0.2393
  930MOL0     C25427  10.680   8.197  10.646  0.3020 -0.0495  0.0617
  930MOL0     C25428  10.687   8.052  10.604 -0.4073 -0.1607  0.1922
  930MOL0     C25429  10.820   7.989  10.640 -0.4271 -0.4632  0.0962
  930MOL0     C25430  10.832   7.926  10.777 -0.1537  0.5745 -0.2124
  930MOL0     C25431  10.974   7.867  10.801 -0.5671  0.1684  0.1289
  930MOL0     N25432  11.102   7.952  10.791  0.0859 -0.3659 -0.3821
  930MOL0     C25433  11.156   8.018  10.679 -0.2276  0.0687  0.6273
  930MOL0     C25434  11.255   8.103  10.727 -0.1554  0.3825 -0.2153
  930MOL0     C25435  11.353   8.193  10.651  0.6873 -0.2615  0.2938
  930MOL0     C25436  11.493   8.138  10.662 -0.6352 -0.1016 -0.6976
  930MOL0     C25437  11.584   8.215  10.563 -0.9608  0.1001 -0.2235
  930MOL0     C25438  11.734   8.174  10.577  0.0480  0.0582  0.3137
  930MOL0     O25439  11.790   8.186  10.708  0.7794 -0.2478 -0.2122
  930MOL0     C25440  11.928   8.155  10.729 -0.1963 -0.4516 -0.6220
  930MOL0     C25441  12.007   8.081  10.639 -0.1447  0.2155  0.0919
  930MOL0     C25442  12.143   8.066  10.670 -0.1602  0.7278  0.6203
  930MOL0     C25443  12.205   8.123  10.778 -1.2168  0.3387  0.5094
  930MOL0     C25444  12.354   8.093  10.794  0.7060  0.9500 -0.1639
  930MOL0     O25445  12.424   8.171  10.881  0.5552  0.2131 -0.0424
  930MOL0     C25446  12.563   8.163  10.875  0.0689  0.1029 -0.1191
  930MOL0     C25447  12.635   8.163  10.760 -0.7035 -0.2114 -0.0550
  930MOL0     C25448  12.775   8.183  10.763  0.0176  0.2354  0.5507
  930MOL0     C25449  12.840   8.175  10.888 -0.6556  0.1327 -0.1479
  930MOL0     O25450  12.976   8.183  10.888 -0.0109  0.2229 -0.3604
  930MOL0     C25451  13.042   8.310  10.877  0.5522 -1.2145  0.4676
  930MOL0     C25452  13.188   8.297  10.892 -0.6399  0.7802  0.5450
  930MOL0     C25453  13.263   8.221  10.783 -0.2129  0.6958 -0.8825
  930MOL0     C25454  13.409   8.194  10.828  0.5411 -0.1202 -0.4204
  930MOL0     C25455  13.493   8.110  10.729  0.8262 -0.0334 -0.5047
  930MOL0     C25456  13.635   8.066  10.787  0.2908  0.3027 -0.8398
  930MOL0     C25457  13.725   8.191  10.826 -0.2028  0.4204 -0.5164
  930MOL0     C25458  13.871   8.142  10.828  1.1123 -0.7182 -0.2569
  930MOL0    Cl25459  13.981   8.266  10.876 -0.1125  0.0651  0.0037
  930MOL0     C25460  12.770   8.173  11.006  0.2605 -0.2264  0.1744
  930MOL0     C25461  12.630   8.171  10.998 -0.2944  0.5237  0.5110
  930MOL0     O25462  12.398   7.984  10.737 -0.2886  0.6726 -0.2986
  930MOL0     C25463  12.130   8.201  10.860 -0.1675  0.6107  1.0786
  930MOL0     C25464  11.991   8.222  10.839  0.1768  0.4925  0.3698
  930MOL0     N25465  11.262   8.088  10.868 -0.1899  0.7866  0.5092
  930MOL0     N25466  11.177   7.994  10.898  0.6853  0.5515  0.8412
  930MOL0     C25467  10.095   8.499  10.587  0.0047 -0.2440  0.3242
  930MOL0     C25468   9.989   8.566  10.546  0.0789 -0.0075 -0.6869
  930MOL0     C25469   9.725   8.825  10.246 -0.2459  0.4414  0.1443
  930MOL0     C25470   9.634   8.719  10.227 -0.5405 -0.9245  0.1130
  930MOL0     C25471   9.509   8.735  10.176  0.7263 -0.8721  0.6306
  930MOL0     C25472   9.466   8.864  10.147  0.3098  0.1874  0.3296
  930MOL0     O25473   9.342   8.882  10.093 -0.4154  0.4733  0.3350
  930MOL0     C25474   9.263   8.994  10.136 -0.5602  0.3134  0.2175
  930MOL0     C25475   9.116   8.937  10.133  0.2089  0.5283  0.2296
  930MOL0     C25476   9.082   8.918   9.987 -0.1878 -0.8700 -0.2005
  930MOL0     C25477   8.939   8.860   9.955 -0.8916 -0.1982 -0.4816
  930MOL0     C25478   8.837   8.963   9.966  0.5417  0.2826  0.5353
  930MOL0     C25479   8.754   9.044   9.984 -1.1397  0.2725 -1.2517
  930MOL0     C25480   9.546   8.978  10.177 -0.6669  0.9867  0.2941
  930MOL0     C25481   9.681   8.956  10.210 -0.7720  0.6017 -0.6933
  930MOL0     C25482   9.758   9.088  10.213 -0.0365  0.2710  0.2045
  930MOL0     H25483  10.122   8.675  10.248  1.6730 -5.2875 -2.2207
  930MOL0     H25484  10.318   8.576  10.354 -1.3714 -0.1983 -1.4787
  930MOL0     H25485  10.400   8.557  10.711  0.7993 -0.0268  0.6572
  930MOL0     H25486  10.322   8.401  10.746  0.9799  2.2992  2.5653
  930MOL0     H25487  10.565   8.400  10.771 -1.7887 -1.8129  1.2373
  930MOL0     H25488  10.589   8.454  10.592 -1.0496  3.0158  1.4513
  930MOL0     H25489  10.528   8.255  10.503 -1.4289  0.3965  0.4626
  930MOL0     H25490  10.463   8.198  10.652 -0.4274  0.3811 -1.4667
  930MOL0     H25491  10.765   8.257  10.611  0.5830 -1.2441 -1.4339
  930MOL0     H25492  10.690   8.197  10.754  0.7276  3.0548  0.1283
  930MOL0     H25493  10.606   7.993  10.648 -0.4229  0.1420  0.5800
  930MOL0     H25494  10.669   8.061  10.496 -2.5668  2.7864  0.6821
  930MOL0     H25495  10.840   7.917  10.560  0.5970  0.3946 -0.4540
  930MOL0     H25496  10.897   8.066  10.635 -1.8005  1.0412  0.9416
  930MOL0     H25497  10.763   7.841  10.782  0.4229  0.1849  2.3806
  930MOL0     H25498  10.799   7.993  10.856  0.8168  0.4564  0.3092
  930MOL0     H25499  10.971   7.809  10.894 -0.2965 -0.7410 -0.4110
  930MOL0     H25500  10.993   7.794  10.722 -2.4795  1.9004 -2.0790
  930MOL0     H25501  11.121   8.016  10.577 -0.7916 -0.7012  0.8323
  930MOL0     H25502  11.331   8.209  10.545  0.0350  1.9327  0.7134
  930MOL0     H25503  11.343   8.291  10.698 -0.9210  0.2187 -0.9554
  930MOL0     H25504  11.521   8.142  10.768  0.2871 -0.9520 -0.9032
  930MOL0     H25505  11.494   8.033  10.632 -1.5394  0.2755 -2.1670
  930MOL0     H25506  11.572   8.324  10.570 -0.5208  0.0695  1.2278
  930MOL0     H25507  11.560   8.186  10.460  1.1338  1.0075 -1.0452
  930MOL0     H25508  11.795   8.233  10.509 -0.7044 -0.4231 -0.8298
  930MOL0     H25509  11.740   8.073  10.534 -0.2004  0.8911 -1.8212
  930MOL0     H25510  11.959   8.043  10.549 -3.2036  0.5364  1.4706
  930MOL0     H25511  12.203   8.017  10.595 -0.4581  0.2303  0.6978
  930MOL0     H25512  12.582   8.173  10.666  0.8198  0.1540 -0.9124
  930MOL0     H25513  12.826   8.190  10.668 -0.8295 -2.4941 -0.2086
  930MOL0     H25514  13.020   8.352  10.778  2.7746 -0.0020  0.4171
  930MOL0     H25515  12.998   8.372  10.956  0.9719 -1.3683  0.8220
  930MOL0     H25516  13.231   8.397  10.881 -1.0197  0.9388  0.5169
  930MOL0     H25517  13.198   8.266  10.996 -2.5805  1.6342  1.0228
  930MOL0     H25518  13.213   8.125  10.766  0.8379 -0.0142 -0.1034
  930MOL0     H25519  13.239   8.268  10.687 -3.0575  1.2439  0.0086
  930MOL0     H25520  13.406   8.141  10.924 -2.7963  0.7150  0.0614
  930MOL0     H25521  13.470   8.284  10.837  0.2722  0.1331 -1.1073
  930MOL0     H25522  13.489   8.176  10.642 -1.8639 -2.9549 -2.8317
  930MOL0     H25523  13.436   8.018  10.717 -3.5736  1.9671  2.4992
  930MOL0     H25524  13.615   8.007  10.877 -0.6100 -0.3636 -1.4668
  930MOL0     H25525  13.686   8.000  10.717 -1.6864 -2.8232  0.4990
  930MOL0     H25526  13.702   8.215  10.930 -1.2304 -2.2366 -0.0386
  930MOL0     H25527  13.701   8.275  10.761 -2.3351  0.6334  0.4590
  930MOL0     H25528  13.894   8.053  10.889 -1.2111 -0.0981  1.6843
  930MOL0     H25529  13.896   8.116  10.725 -1.6205 -0.2727 -1.0884
  930MOL0     H25530  12.819   8.188  11.101  1.9574 -2.9362 -0.1800
  930MOL0     H25531  12.571   8.186  11.087  1.1425  4.2775  1.0200
  930MOL0     H25532  12.182   8.241  10.947  3.2323  1.9320 -1.3323
  930MOL0     H25533  11.931   8.281  10.908  0.4383  0.1307  0.9205
  930MOL0     H25534  10.109   8.439  10.676 -1.0533 -0.1273  0.5898
  930MOL0     H25535   9.897   8.565  10.603  0.9803  1.1837  0.8651
  930MOL0     H25536   9.662   8.619  10.261 -1.8130 -1.4358 -0.2741
  930MOL0     H25537   9.440   8.652  10.164  0.6889 -1.0214  1.8205
  930MOL0     H25538   9.275   9.089  10.083  3.0541  0.3117  0.7934
  930MOL0     H25539   9.282   9.013  10.242  1.2829 -0.9693  0.1701
  930MOL0     H25540   9.049   9.007  10.185 -0.0113 -1.5896  3.0868
  930MOL0     H25541   9.088   8.842  10.181  1.5250 -1.1649 -2.1585
  930MOL0     H25542   9.154   8.854   9.935 -1.5076 -2.5967  0.0134
  930MOL0     H25543   9.092   9.019   9.945  0.5771 -1.8228 -2.4980
  930MOL0     H25544   8.935   8.825   9.851  1.4193 -1.5946 -0.1597
  930MOL0     H25545   8.936   8.771  10.017  3.9818 -2.0295 -2.4491
  930MOL0     H25546   8.677   9.112  10.017 -0.3605 -0.4236  2.3461
  930MOL0     H25547   9.521   9.078  10.145 -2.8221  0.4160  0.0387
  930MOL0     H25548   9.692   9.173  10.231 -1.8921 -0.3605 -2.8801
  930MOL0     H25549   9.836   9.069  10.288  1.3535 -2.1577 -1.6959
  930MOL0     H25550   9.809   9.108  10.118 -0.5836  2.1016  0.2578
  931MOL0     O25551   5.234   2.342   3.251 -0.0233  0.9323  0.4742
  931MOL0     C25552   5.204   2.427   3.336 -0.6383  0.3764  0.5678
  931MOL0     O25553   5.289   2.523   3.385 -0.0966  0.1455  0.4256
  931MOL0     C25554   5.422   2.513   3.348  1.7056 -0.6198  0.2307
  931MOL0     C25555   5.452   2.541   3.210  0.7607 -0.1141 -0.4743
  931MOL0     C25556   5.591   2.529   3.171  0.0339 -0.4220  0.2117
  931MOL0     C25557   5.692   2.486   3.262 -0.1630 -0.4948  0.4112
  931MOL0     O25558   5.826   2.481   3.219 -0.6836 -0.3846  0.4394
  931MOL0     C25559   5.930   2.436   3.302  0.2225  0.3223 -0.2381
  931MOL0     C25560   6.060   2.427   3.214 -0.3550  0.2401  0.0886
  931MOL0     C25561   6.183   2.416   3.307 -0.6090 -0.4367  0.7738
  931MOL0     C25562   6.300   2.360   3.221  1.2489 -0.0927 -0.1560
  931MOL0     C25563   6.427   2.359   3.310  0.6853  0.0582 -0.0520
  931MOL0     C25564   6.550   2.326   3.224  0.1661 -0.8216  0.0276
  931MOL0     C25565   6.663   2.322   3.327 -0.5571 -0.3369 -0.5542
  931MOL0     C25566   6.796   2.280   3.257  0.7968  0.6982  0.4235
  931MOL0     N25567   6.904   2.318   3.345  0.3902  0.6917 -0.3764
  931MOL0     C25568   7.017   2.241   3.378  0.2815  0.0883 -0.6194
  931MOL0     C25569   7.072   2.311   3.481  0.0263 -0.4667  0.2323
  931MOL0     C25570   7.185   2.275   3.578 -1.1992  0.0725 -0.4701
  931MOL0     C25571   7.313   2.314   3.509  0.2837  0.0509 -0.0093
  931MOL0     C25572   7.432   2.281   3.595 -0.9059 -0.1094  0.4329
  931MOL0     C25573   7.567   2.292   3.514  0.0302 -0.1059 -0.2205
  931MOL0     O25574   7.668   2.238   3.596  0.1500  0.0250 -0.0588
  931MOL0     C25575   7.790   2.230   3.551 -0.3061 -0.0562  0.2781
  931MOL0     C25576   7.889   2.177   3.637  0.4133 -0.3520 -0.7634
  931MOL0     C25577   8.024   2.173   3.601  0.1105 -0.2222 -1.2271
  931MOL0     C25578   8.074   2.241   3.483 -0.5917 -0.8610  0.3791
  931MOL0     C25579   8.215   2.221   3.438  0.1320 -0.0036 -0.6360
  931MOL0     O25580   8.285   2.132   3.515  0.2641 -0.1736  0.3564
  931MOL0     C25581   8.404   2.084   3.470  0.5787 -0.1328  0.5636
  931MOL0     C25582   8.480   2.014   3.567  0.1992  0.1053 -0.2389
  931MOL0     C25583   8.600   1.957   3.554 -0.5329 -0.0312 -0.0567
  931MOL0     C25584   8.653   1.964   3.425  0.9108  0.6834 -0.1439
  931MOL0     O25585   8.773   1.920   3.392 -0.7375 -0.1938 -0.0329
  931MOL0     C25586   8.869   1.920   3.495 -0.6438 -0.0890 -0.1339
  931MOL0     C25587   9.001   1.902   3.415 -0.5903  0.1172  0.2118
  931MOL0     C25588   9.127   1.894   3.506 -0.4124  0.6579  0.3439
  931MOL0     C25589   9.256   1.864   3.419  0.1829 -0.5850 -0.1092
  931MOL0     C25590   9.384   1.864   3.500 -0.4442 -0.4084  0.7456
  931MOL0     C25591   9.513   1.842   3.417  0.3953  0.2887  0.6444
  931MOL0     C25592   9.629   1.798   3.505  0.0050 -0.6165 -0.3852
  931MOL0     C25593   9.666   1.655   3.479  0.8495  0.7209  0.2028
  931MOL0    Cl25594   9.808   1.624   3.572 -0.0265  0.2763  0.4609
  931MOL0     C25595   8.582   2.028   3.319 -0.2845 -0.2913 -0.0232
  931MOL0     C25596   8.455   2.087   3.338 -0.4216 -0.0468  0.3385
  931MOL0     O25597   8.253   2.291   3.343  0.4505  1.2494  0.5318
  931MOL0     C25598   7.974   2.298   3.399 -0.0010 -0.1646 -0.5068
  931MOL0     C25599   7.836   2.290   3.435  0.3976 -0.1522  0.1377
  931MOL0     N25600   7.007   2.430   3.495 -0.1991 -0.4023  0.0926
  931MOL0     N25601   6.914   2.434   3.403  0.0986  0.1046 -0.7690
  931MOL0     C25602   5.655   2.455   3.390  0.3309  0.6824 -0.6020
  931MOL0     C25603   5.521   2.485   3.434 -0.6056 -0.0640  0.1924
  931MOL0     C25604   5.065   2.427   3.378 -0.2687  0.3341 -0.5493
  931MOL0     C25605   4.983   2.312   3.354 -0.9442 -0.5292  0.4666
  931MOL0     C25606   4.846   2.302   3.382 -0.3601  0.6662 -0.0581
  931MOL0     C25607   4.781   2.422   3.424 -0.3548  0.6300  0.5972
  931MOL0     O25608   4.652   2.433   3.455  0.0939 -0.5078  0.2554
  931MOL0     C25609   4.570   2.315   3.461  0.1037  0.1429  0.2039
  931MOL0     C25610   4.420   2.341   3.498 -0.8703  0.2043  0.3417
  931MOL0     C25611   4.401   2.478   3.566  0.0876 -0.1569 -0.4038
  931MOL0     C25612   4.247   2.491   3.592  0.5441  0.7608  0.0797
  931MOL0     C25613   4.209   2.403   3.704 -0.2155 -0.0765  0.3939
  931MOL0     C25614   4.177   2.333   3.801 -0.4712 -0.1518  0.2501
  931MOL0     C25615   4.855   2.536   3.449 -0.5169  0.0438  0.9560
  931MOL0     C25616   4.997   2.537   3.429 -0.2927 -0.2882 -0.1805
  931MOL0     C25617   5.048   2.673   3.446 -0.2918 -0.1117 -0.4002
  931MOL0     H25618   5.375   2.578   3.143  0.2712  0.3092  0.3161
  931MOL0     H25619   5.625   2.557   3.072 -0.8560  0.2550  0.0915
  931MOL0     H25620   5.946   2.513   3.377  0.9440  1.5870 -1.6222
  931MOL0     H25621   5.913   2.345   3.360  2.4169 -0.8678 -1.2979
  931MOL0     H25622   6.074   2.510   3.144  2.4743 -0.4333 -0.2761
  931MOL0     H25623   6.052   2.340   3.149 -3.0858  0.1416  0.4543
  931MOL0     H25624   6.170   2.352   3.394  1.2497  1.2398  2.3816
  931MOL0     H25625   6.208   2.516   3.344 -2.6141 -0.1031  1.3660
  931MOL0     H25626   6.271   2.259   3.189  2.0699  0.4376 -2.8560
  931MOL0     H25627   6.324   2.414   3.129  0.6183 -0.3970 -0.5110
  931MOL0     H25628   6.448   2.458   3.350  0.9328  1.2082 -2.8200
  931MOL0     H25629   6.419   2.280   3.385  0.7604 -3.9747 -3.8169
  931MOL0     H25630   6.528   2.230   3.176 -1.7786 -0.2247 -0.3760
  931MOL0     H25631   6.572   2.400   3.146  4.7156 -2.1938 -0.2808
  931MOL0     H25632   6.639   2.260   3.414 -2.9508 -0.6348 -1.3559
  931MOL0     H25633   6.676   2.429   3.347 -0.8112  0.1020 -2.5630
  931MOL0     H25634   6.794   2.171   3.259  0.7059  0.7186  1.7841
  931MOL0     H25635   6.802   2.338   3.164 -1.6838  0.3311 -0.0257
  931MOL0     H25636   7.044   2.144   3.337 -0.2643  0.5465 -2.1052
  931MOL0     H25637   7.178   2.337   3.668  0.7887 -0.5229  0.1495
  931MOL0     H25638   7.195   2.172   3.614 -0.5127  1.2710  3.1789
  931MOL0     H25639   7.324   2.262   3.414  0.9563  1.8974 -1.0076
  931MOL0     H25640   7.312   2.420   3.480 -0.8857 -0.2808 -1.2445
  931MOL0     H25641   7.425   2.179   3.633  1.0972 -0.9807 -1.3374
  931MOL0     H25642   7.435   2.357   3.673  2.6383  2.4503 -1.8771
  931MOL0     H25643   7.580   2.398   3.490 -1.2186  0.0583 -0.2487
  931MOL0     H25644   7.565   2.237   3.419 -0.5603 -2.2574  0.9748
  931MOL0     H25645   7.848   2.129   3.726  0.6268  0.1795 -0.3725
  931MOL0     H25646   8.091   2.116   3.665  1.3219  4.3998  2.1831
  931MOL0     H25647   8.439   2.016   3.668 -0.4865  1.5486 -0.5269
  931MOL0     H25648   8.657   1.921   3.639  2.0458  2.1409 -0.7152
  931MOL0     H25649   8.873   2.022   3.535  2.7102  0.8352 -2.4118
  931MOL0     H25650   8.857   1.849   3.578 -0.1785  2.1417  1.9810
  931MOL0     H25651   8.996   1.804   3.368  0.9572 -0.3841  1.0454
  931MOL0     H25652   9.009   1.979   3.337 -1.4836  0.4835  0.4637
  931MOL0     H25653   9.140   1.986   3.564 -1.1499  0.2765  1.1285
  931MOL0     H25654   9.105   1.809   3.571  0.5330  0.3618  0.2929
  931MOL0     H25655   9.248   1.927   3.330  0.7516 -2.7406 -1.7536
  931MOL0     H25656   9.252   1.762   3.381  2.8066 -0.6242 -0.4627
  931MOL0     H25657   9.367   1.789   3.577  0.0435 -1.4981 -0.1724
  931MOL0     H25658   9.393   1.963   3.546  1.9391  0.6737 -1.7342
  931MOL0     H25659   9.497   1.766   3.340  0.9505  1.6758 -0.9146
  931MOL0     H25660   9.540   1.926   3.352 -3.0900  0.8592 -0.2765
  931MOL0     H25661   9.610   1.808   3.612 -1.2908  1.8438 -0.7488
  931MOL0     H25662   9.710   1.870   3.488  0.9288 -1.2462  1.1788
  931MOL0     H25663   9.584   1.590   3.512  1.1054 -0.9359 -2.2141
  931MOL0     H25664   9.679   1.631   3.373 -1.8727  0.9675 -0.2696
  931MOL0     H25665   8.624   2.021   3.219 -0.8754  2.4574 -0.5480
  931MOL0     H25666   8.396   2.127   3.256 -1.2791  0.9426  1.4102
  931MOL0     H25667   8.006   2.364   3.319 -1.1347 -0.8000 -1.5080
  931MOL0     H25668   7.768   2.341   3.368 -0.1925 -0.3108  0.5999
  931MOL0     H25669   5.724   2.425   3.469 -3.6029  0.8488  3.2841
  931MOL0     H25670   5.487   2.467   3.535 -0.3479 -2.6727 -0.1064
  931MOL0     H25671   5.028   2.225   3.308 -2.0156 -1.0165  0.3313
  931MOL0     H25672   4.800   2.206   3.362  1.7251 -0.9531  2.2856
  931MOL0     H25673   4.624   2.249   3.530  0.2812  0.1037  0.0278
  931MOL0     H25674   4.581   2.276   3.360  1.2454  1.7818 -0.3462
  931MOL0     H25675   4.379   2.267   3.567 -0.1514  0.0861  0.6453
  931MOL0     H25676   4.354   2.321   3.412  2.6618 -2.1578 -2.1130
  931MOL0     H25677   4.432   2.559   3.498  1.9067  0.1248  0.7004
  931MOL0     H25678   4.466   2.473   3.654  1.6796 -1.9304 -1.5778
  931MOL0     H25679   4.221   2.592   3.624 -1.5365  0.8655 -1.7554
  931MOL0     H25680   4.180   2.459   3.512 -0.9424 -0.4445  1.7282
  931MOL0     H25681   4.152   2.285   3.893 -1.3490  1.9585  1.1881
  931MOL0     H25682   4.803   2.624   3.484 -2.7640 -1.0384  0.5122
  931MOL0     H25683   5.125   2.692   3.370  1.6573 -0.5559  1.3778
  931MOL0     H25684   4.971   2.751   3.439 -0.2341  0.0771  0.9261
  931MOL0     H25685   5.101   2.688   3.540  0.3564  0.5557 -0.8520
  932MOL0     O25686   2.436   0.633   7.576 -0.4487 -0.0856  0.1992
  932MOL0     C25687   2.373   0.594   7.477  0.3432  0.3763  0.3172
  932MOL0     O25688   2.421   0.586   7.354 -0.9160 -0.9021  1.2154
  932MOL0     C25689   2.562   0.580   7.346  0.6308 -0.1040  0.4753
  932MOL0     C25690   2.621   0.670   7.245 -0.1158  0.3331 -0.0173
  932MOL0     C25691   2.761   0.666   7.227 -0.1609  0.3624 -0.6276
  932MOL0     C25692   2.834   0.569   7.295  0.0788 -0.5092  0.1275
  932MOL0     O25693   2.965   0.571   7.258 -1.0877  0.0807  0.2529
  932MOL0     C25694   3.034   0.455   7.214  0.3962  0.2986  0.2000
  932MOL0     C25695   3.159   0.424   7.307  0.6771  0.5294 -0.2828
  932MOL0     C25696   3.258   0.319   7.258  0.9130  0.3027 -0.6946
  932MOL0     C25697   3.202   0.177   7.226 -0.1700  0.6335  0.1104
  932MOL0     C25698   3.313   0.082   7.170 -0.8841  0.4861 -1.2448
  932MOL0     C25699   3.414   0.046   7.287  0.2502  0.6522 -0.5289
  932MOL0     C25700   3.518  -0.058   7.241  0.5267 -0.9201  0.1477
  932MOL0     C25701   3.638  -0.073   7.342  0.1360 -0.8530 -0.5114
  932MOL0     N25702   3.622  -0.165   7.451 -0.2534 -0.1648  0.9078
  932MOL0     C25703   3.541  -0.144   7.554  0.5371  0.9036  0.5755
  932MOL0     C25704   3.553  -0.254   7.631  0.4490  0.5331  0.0088
  932MOL0     C25705   3.479  -0.287   7.762 -0.0623 -0.1442  0.1595
  932MOL0     C25706   3.453  -0.435   7.776  0.2212  0.3931 -0.4005
  932MOL0     C25707   3.373  -0.466   7.913 -0.5846 -0.0103 -1.0699
  932MOL0     C25708   3.222  -0.430   7.889 -0.0832  0.1901  0.1900
  932MOL0     O25709   3.164  -0.429   8.013 -0.3798  0.0906 -0.2910
  932MOL0     C25710   3.026  -0.419   8.027 -0.2262  0.0477  0.6298
  932MOL0     C25711   2.970  -0.454   8.144 -0.0311 -0.2985 -0.8156
  932MOL0     C25712   2.837  -0.446   8.175  0.1261  0.8885 -0.2222
  932MOL0     C25713   2.756  -0.392   8.076  0.6041  0.0522  0.7496
  932MOL0     C25714   2.608  -0.393   8.111 -0.1184  0.4132  0.2514
  932MOL0     O25715   2.569  -0.466   8.215  0.6224  1.0567  0.4380
  932MOL0     C25716   2.436  -0.460   8.256  0.7497 -0.3214 -0.5709
  932MOL0     C25717   2.418  -0.496   8.397 -0.1487  0.3456  0.7856
  932MOL0     C25718   2.290  -0.506   8.443  1.0695 -0.5403  0.2001
  932MOL0     C25719   2.173  -0.476   8.372  0.3356 -0.1689 -0.1100
  932MOL0     O25720   2.051  -0.481   8.434  0.1853  0.8356  0.4181
  932MOL0     C25721   2.047  -0.408   8.559  0.4216 -0.6311  0.6936
  932MOL0     C25722   1.899  -0.369   8.571  0.1086  0.2023  0.0149
  932MOL0     C25723   1.795  -0.483   8.596 -0.0843 -0.4802 -0.1400
  932MOL0     C25724   1.820  -0.584   8.717 -0.4235 -0.3946 -0.4564
  932MOL0     C25725   1.722  -0.688   8.743  1.0440  0.3731  0.3185
  932MOL0     C25726   1.723  -0.802   8.635  0.6719  0.5595 -0.3329
  932MOL0     C25727   1.656  -0.936   8.671 -0.4186  0.4060 -0.2259
  932MOL0     C25728   1.506  -0.916   8.692  0.3499 -0.3209 -0.2003
  932MOL0    Cl25729   1.422  -0.878   8.532  0.0116 -0.1071 -0.0992
  932MOL0     C25730   2.190  -0.453   8.236  0.1529 -0.1221 -0.3326
  932MOL0     C25731   2.317  -0.439   8.178 -0.2960  0.5549 -0.1150
  932MOL0     O25732   2.538  -0.307   8.052 -0.3676  0.7375 -0.0945
  932MOL0     C25733   2.808  -0.341   7.958  0.1288  0.1152  0.3769
  932MOL0     C25734   2.945  -0.362   7.923 -0.5313 -0.3331  0.0097
  932MOL0     N25735   3.650  -0.338   7.581  0.1623  0.3582  0.9385
  932MOL0     N25736   3.680  -0.288   7.464  0.1467  0.0957 -0.1387
  932MOL0     C25737   2.777   0.474   7.392 -0.1731  0.1038  0.3135
  932MOL0     C25738   2.636   0.482   7.418 -0.3188 -1.2582 -0.6302
  932MOL0     C25739   2.237   0.542   7.505  1.3157 -0.3879  0.6293
  932MOL0     C25740   2.167   0.483   7.397 -0.0952 -0.3021  0.0533
  932MOL0     C25741   2.030   0.461   7.388 -0.4218 -0.4667 -1.1387
  932MOL0     C25742   1.963   0.484   7.506  0.2213 -0.0112  0.4727
  932MOL0     O25743   1.826   0.467   7.498 -0.7214  0.6319 -0.1782
  932MOL0     C25744   1.741   0.464   7.614  0.2823 -0.9559 -0.1573
  932MOL0     C25745   1.600   0.433   7.574 -0.5234 -0.1038  0.5430
  932MOL0     C25746   1.569   0.294   7.534  0.0184  0.3023 -0.1444
  932MOL0     C25747   1.422   0.256   7.524  0.3227 -0.9537  0.1967
  932MOL0     C25748   1.356   0.249   7.656 -0.5419  0.4968 -0.0018
  932MOL0     C25749   1.319   0.254   7.770  0.4191 -0.4213  0.1143
  932MOL0     C25750   2.026   0.517   7.621 -1.3623 -0.6652 -1.3842
  932MOL0     C25751   2.156   0.560   7.623 -0.1589  0.3698  0.0224
  932MOL0     C25752   2.204   0.615   7.762 -0.7870 -0.3570 -0.0292
  932MOL0     H25753   2.559   0.731   7.180 -0.4590  0.2026  0.1856
  932MOL0     H25754   2.815   0.732   7.160  0.8460  0.1191 -0.0730
  932MOL0     H25755   2.975   0.363   7.212 -0.5549  0.8994 -0.0902
  932MOL0     H25756   3.085   0.472   7.119  1.0859  1.2211  0.7295
  932MOL0     H25757   3.110   0.385   7.397 -1.1580  1.9447 -0.5974
  932MOL0     H25758   3.219   0.511   7.334  2.0794 -1.4466  3.6588
  932MOL0     H25759   3.325   0.308   7.344 -3.6590 -1.4385  3.1478
  932MOL0     H25760   3.309   0.352   7.168 -0.4254 -0.3528 -1.7223
  932MOL0     H25761   3.143   0.128   7.304 -0.7164 -1.0852 -1.3135
  932MOL0     H25762   3.129   0.182   7.145  1.0614  0.6518 -1.0189
  932MOL0     H25763   3.264  -0.011   7.139 -1.9253  0.5243  0.1599
  932MOL0     H25764   3.354   0.129   7.080 -2.5984  2.5421 -1.0190
  932MOL0     H25765   3.465   0.139   7.312 -0.7818  0.6655  1.8231
  932MOL0     H25766   3.350   0.030   7.375 -0.8791  2.2755 -1.0134
  932MOL0     H25767   3.549  -0.023   7.142 -1.2457 -0.7692 -0.3768
  932MOL0     H25768   3.481  -0.160   7.225 -1.1797 -0.5332  1.3962
  932MOL0     H25769   3.728  -0.107   7.289 -1.1922  0.2121 -3.6922
  932MOL0     H25770   3.666   0.025   7.383 -0.5851  0.3173 -2.6720
  932MOL0     H25771   3.476  -0.058   7.568 -0.6287  0.3484 -1.0700
  932MOL0     H25772   3.544  -0.251   7.842  2.2277  0.1267 -1.6890
  932MOL0     H25773   3.390  -0.225   7.754  0.6717  0.9286  0.0287
  932MOL0     H25774   3.388  -0.474   7.697 -0.0890 -0.3287  0.1907
  932MOL0     H25775   3.545  -0.495   7.773 -1.5044 -2.4929 -0.1150
  932MOL0     H25776   3.428  -0.423   7.997  3.1347 -1.2406 -2.6402
  932MOL0     H25777   3.392  -0.572   7.930  0.7753  0.3357 -0.2159
  932MOL0     H25778   3.176  -0.493   7.813  1.7573 -0.1219 -0.7105
  932MOL0     H25779   3.208  -0.332   7.842 -2.1229 -0.3264 -0.3631
  932MOL0     H25780   3.046  -0.496   8.210  1.1395 -0.9369 -2.5019
  932MOL0     H25781   2.807  -0.478   8.274  2.3119  0.2786  0.3013
  932MOL0     H25782   2.496  -0.527   8.466 -0.7783 -1.6834  0.6374
  932MOL0     H25783   2.281  -0.528   8.549 -0.2173 -0.5050  0.1146
  932MOL0     H25784   2.082  -0.464   8.646  0.7531 -3.5056 -1.1550
  932MOL0     H25785   2.110  -0.318   8.562  1.0448 -1.0357  0.2465
  932MOL0     H25786   1.895  -0.300   8.656  4.0613 -0.0490  0.6057
  932MOL0     H25787   1.868  -0.312   8.483  0.0062  1.3599  0.7709
  932MOL0     H25788   1.700  -0.432   8.616  0.2409  0.6787 -1.3489
  932MOL0     H25789   1.779  -0.540   8.503 -2.5078  0.2385 -0.2436
  932MOL0     H25790   1.820  -0.518   8.805 -2.4490 -0.8689 -0.0518
  932MOL0     H25791   1.922  -0.625   8.717  0.2539  1.1836 -1.3180
  932MOL0     H25792   1.623  -0.642   8.752  1.4636  1.0023  2.0109
  932MOL0     H25793   1.738  -0.742   8.837 -0.3796 -0.5873  0.0642
  932MOL0     H25794   1.688  -0.764   8.538 -1.0792  0.7005  0.3231
  932MOL0     H25795   1.829  -0.825   8.618  0.4737 -2.2442  1.7332
  932MOL0     H25796   1.705  -0.981   8.758  0.3861  0.6441 -0.5463
  932MOL0     H25797   1.671  -1.005   8.587  0.4634  0.3903 -0.0692
  932MOL0     H25798   1.455  -1.011   8.711  0.9205 -0.7974 -0.9816
  932MOL0     H25799   1.483  -0.839   8.766 -0.9251 -0.3736 -0.5089
  932MOL0     H25800   2.098  -0.456   8.178 -2.0077 -1.6903  2.9054
  932MOL0     H25801   2.327  -0.401   8.076  0.9719  2.6536  0.7336
  932MOL0     H25802   2.742  -0.298   7.883  1.6427  1.8995 -0.0032
  932MOL0     H25803   2.978  -0.328   7.826 -0.8358 -2.4609 -0.8860
  932MOL0     H25804   2.833   0.406   7.454  3.0878  2.0996 -0.2093
  932MOL0     H25805   2.593   0.413   7.491 -0.0647 -1.3365 -0.5504
  932MOL0     H25806   2.225   0.465   7.307 -0.4085 -2.2632  0.1847
  932MOL0     H25807   1.991   0.424   7.294  0.9391 -0.3556 -1.7688
  932MOL0     H25808   1.744   0.563   7.661  0.7664 -1.1224  0.1647
  932MOL0     H25809   1.773   0.395   7.692  2.3811  1.5450  1.3541
  932MOL0     H25810   1.574   0.500   7.491 -2.5370 -0.3882  0.9025
  932MOL0     H25811   1.532   0.470   7.651 -1.1430  0.4496 -0.2453
  932MOL0     H25812   1.617   0.224   7.603  1.8972  1.0687 -0.6384
  932MOL0     H25813   1.601   0.271   7.433  0.9534  1.2298 -0.0729
  932MOL0     H25814   1.378   0.339   7.468 -0.6014 -1.6386 -0.1068
  932MOL0     H25815   1.410   0.162   7.470  0.8466 -0.6727 -0.4187
  932MOL0     H25816   1.276   0.260   7.868  0.0160 -1.9893  0.0536
  932MOL0     H25817   1.973   0.535   7.714  0.8002  4.4322 -0.7925
  932MOL0     H25818   2.313   0.616   7.770 -0.7766 -1.5474  0.2454
  932MOL0     H25819   2.174   0.719   7.774  0.8726  0.4848 -2.4316
  932MOL0     H25820   2.180   0.553   7.849  1.4741  1.7832  2.2958
  933MOL0     O25821  10.939  11.063   9.505 -0.4016  0.1736  0.5470
  933MOL0     C25822  10.886  11.003   9.412  0.0849  0.8906 -0.7781
  933MOL0     O25823  10.954  10.977   9.294 -0.0309  0.2454  0.1627
  933MOL0     C25824  11.079  11.026   9.282  0.0597  0.3742  0.1642
  933MOL0     C25825  11.123  11.128   9.201  0.2157  0.6715 -0.5884
  933MOL0     C25826  11.256  11.150   9.182  0.2508 -0.9909  0.6454
  933MOL0     C25827  11.355  11.064   9.237 -0.3650  0.0769  0.5988
  933MOL0     O25828  11.489  11.092   9.209  0.1081 -0.0639  0.1181
  933MOL0     C25829  11.583  11.086   9.314  0.5198 -0.0134  0.3957
  933MOL0     C25830  11.714  11.116   9.258 -0.3547  0.3049 -0.3298
  933MOL0     C25831  11.814  11.102   9.366  0.0209 -0.2357 -0.2781
  933MOL0     C25832  11.961  11.127   9.327  0.2248  0.0353 -0.0268
  933MOL0     C25833  12.056  11.103   9.441 -0.1080  0.0034 -1.0618
  933MOL0     C25834  12.189  11.170   9.421  0.1820  0.3851  0.3402
  933MOL0     C25835  12.313  11.102   9.489  0.6619  0.0295  0.4475
  933MOL0     C25836  12.328  11.173   9.625  0.0668  0.0923  0.5352
  933MOL0     N25837  12.460  11.160   9.683 -0.0569  0.1355  0.1016
  933MOL0     C25838  12.558  11.078   9.631 -0.0189 -0.3771 -0.1258
  933MOL0     C25839  12.648  11.068   9.730  0.0813 -0.0720 -0.5888
  933MOL0     C25840  12.774  10.986   9.732 -0.0539 -0.0294 -0.0249
  933MOL0     C25841  12.747  10.862   9.809 -0.6536 -0.2157  0.0666
  933MOL0     C25842  12.869  10.777   9.821 -0.0640 -0.2823  0.1784
  933MOL0     C25843  12.831  10.659   9.912  0.3355 -0.1448 -0.0399
  933MOL0     O25844  12.937  10.559   9.912 -0.4691 -0.0041 -0.0624
  933MOL0     C25845  13.037  10.581  10.009  0.1458  0.7468  0.5284
  933MOL0     C25846  13.125  10.474  10.026 -0.0036 -0.8991 -0.0095
  933MOL0     C25847  13.233  10.475  10.107  0.4703 -0.0352  0.1076
  933MOL0     C25848  13.281  10.592  10.176  0.2396  0.6611  0.2377
  933MOL0     C25849  13.382  10.585  10.280 -0.1653  0.0900 -0.6772
  933MOL0     O25850  13.451  10.468  10.300  0.1670  0.1487 -0.8703
  933MOL0     C25851  13.582  10.472  10.337 -0.2298  0.0925 -0.5150
  933MOL0     C25852  13.676  10.406  10.260  0.8327  0.5604  0.3353
  933MOL0     C25853  13.815  10.401  10.292 -0.4340 -0.0134  0.3457
  933MOL0     C25854  13.850  10.456  10.411  0.0856 -0.8958 -0.1257
  933MOL0     O25855  13.977  10.459  10.459 -0.3977  0.4437  0.2211
  933MOL0     C25856  14.022  10.355  10.551  1.1787  0.6713  0.1095
  933MOL0     C25857  14.167  10.349  10.573 -0.0430  0.1617 -0.3587
  933MOL0     C25858  14.247  10.337  10.441 -0.0222  0.6830 -0.2727
  933MOL0     C25859  14.403  10.322  10.481 -0.4878  0.5801  0.7595
  933MOL0     C25860  14.491  10.342  10.358  0.3006 -1.1585  0.2011
  933MOL0     C25861  14.496  10.489  10.294 -0.1692  0.2984  0.3652
  933MOL0     C25862  14.502  10.615  10.393 -0.2833  1.0435 -0.5518
  933MOL0     C25863  14.546  10.741  10.321 -0.0042 -0.3850  0.4950
  933MOL0    Cl25864  14.430  10.796  10.197  0.0254 -0.0452 -0.1815
  933MOL0     C25865  13.759  10.517  10.495  0.1101  0.0234  0.6161
  933MOL0     C25866  13.623  10.531  10.457 -0.0227  0.2603  0.3660
  933MOL0     O25867  13.417  10.695  10.328  0.0567  0.0206  0.0142
  933MOL0     C25868  13.192  10.703  10.158  0.9013 -0.0403 -0.7716
  933MOL0     C25869  13.071  10.701  10.077  0.9187 -0.6268  0.7589
  933MOL0     N25870  12.602  11.121   9.842  0.5328  0.2787 -0.6856
  933MOL0     N25871  12.485  11.175   9.814 -0.4834 -0.1492 -0.4234
  933MOL0     C25872  11.303  10.961   9.316  0.6950  0.1537  0.1680
  933MOL0     C25873  11.173  10.946   9.350 -0.3415  0.1773 -0.2992
  933MOL0     C25874  10.747  10.960   9.438 -0.1314  0.2312  0.9101
  933MOL0     C25875  10.637  11.046   9.447 -0.1048 -0.5473 -0.3323
  933MOL0     C25876  10.505  11.004   9.482 -0.5745 -0.5603 -0.4311
  933MOL0     C25877  10.482  10.870   9.492  0.3920 -0.3551  0.2478
  933MOL0     O25878  10.354  10.832   9.529  0.5935  0.3198 -0.1725
  933MOL0     C25879  10.333  10.699   9.576 -0.3791  0.4539 -0.4999
  933MOL0     C25880  10.204  10.696   9.651  1.1919 -0.0707 -0.9688
  933MOL0     C25881  10.097  10.780   9.574 -0.2046  0.7827  0.1904
  933MOL0     C25882   9.969  10.772   9.659  0.3419 -0.0221  0.0885
  933MOL0     C25883   9.878  10.874   9.593 -0.4357  0.7711  0.9956
  933MOL0     C25884   9.800  10.958   9.551  0.0326 -0.0512 -0.4937
  933MOL0     C25885  10.582  10.779   9.469 -0.0559 -0.4094  0.3359
  933MOL0     C25886  10.717  10.818   9.440 -0.3993  0.0840 -0.5484
  933MOL0     C25887  10.822  10.715   9.434 -0.3387 -0.4264  0.2150
  933MOL0     H25888  11.057  11.188   9.140 -0.5424  1.2764  0.7976
  933MOL0     H25889  11.283  11.231   9.114  2.5462 -1.2719  1.1487
  933MOL0     H25890  11.553  11.163   9.385 -0.7909  0.3836 -0.5629
  933MOL0     H25891  11.586  10.985   9.356  2.5113  0.2055  0.8697
  933MOL0     H25892  11.721  11.213   9.208  1.5415 -0.1540 -1.0503
  933MOL0     H25893  11.728  11.046   9.175 -1.4906  0.5969 -0.7936
  933MOL0     H25894  11.813  11.001   9.408  1.8062  0.4260  1.5404
  933MOL0     H25895  11.792  11.183   9.436 -1.3652  1.3281 -2.4100
  933MOL0     H25896  11.985  11.062   9.243  0.1912  2.9667 -2.4884
  933MOL0     H25897  11.980  11.228   9.289  2.0893 -0.7626 -1.3566
  933MOL0     H25898  12.023  11.157   9.530  1.1817 -0.0382 -0.5211
  933MOL0     H25899  12.073  10.997   9.462  1.7070  0.1661 -1.4769
  933MOL0     H25900  12.210  11.181   9.314 -0.2309  2.7742  0.4401
  933MOL0     H25901  12.180  11.270   9.464 -0.7931  0.1735  0.6457
  933MOL0     H25902  12.403  11.128   9.433  1.4528 -0.8446  1.2735
  933MOL0     H25903  12.300  10.993   9.490 -1.6598  0.2412 -0.0372
  933MOL0     H25904  12.302  11.279   9.631 -4.6136 -0.6990 -1.3112
  933MOL0     H25905  12.262  11.123   9.696  1.7471 -1.8996  0.8135
  933MOL0     H25906  12.555  11.037   9.530 -1.4796 -1.6689  0.4083
  933MOL0     H25907  12.817  10.966   9.634 -0.2956 -0.3666 -0.0618
  933MOL0     H25908  12.850  11.046   9.784 -2.7550  2.4434  1.3381
  933MOL0     H25909  12.706  10.891   9.906  0.6410 -1.1305  0.9198
  933MOL0     H25910  12.677  10.806   9.748 -0.0624 -1.0470  0.1309
  933MOL0     H25911  12.947  10.837   9.866 -0.1739  0.8309 -1.0647
  933MOL0     H25912  12.896  10.742   9.721 -0.5671  0.1699 -0.1207
  933MOL0     H25913  12.734  10.624   9.875 -0.9757  2.3367  0.8164
  933MOL0     H25914  12.809  10.687  10.015  2.8453  0.0993  0.4882
  933MOL0     H25915  13.100  10.378   9.981  0.5785 -1.5130  0.9393
  933MOL0     H25916  13.279  10.378  10.121 -3.1012 -2.1943 -1.7887
  933MOL0     H25917  13.645  10.370  10.162 -1.2588 -0.0279  1.1771
  933MOL0     H25918  13.885  10.345  10.231  0.0571  1.4029 -0.4218
  933MOL0     H25919  13.969  10.363  10.646  1.1024  2.1258 -0.0250
  933MOL0     H25920  14.002  10.258  10.504 -1.3808  1.5301 -0.7826
  933MOL0     H25921  14.208  10.441  10.618  3.5100 -1.7995  0.8113
  933MOL0     H25922  14.186  10.268  10.644 -2.7372  0.1630  0.4615
  933MOL0     H25923  14.205  10.251  10.389  0.4425  0.8536 -0.9426
  933MOL0     H25924  14.237  10.423  10.374  1.4591  0.7443 -0.4619
  933MOL0     H25925  14.414  10.221  10.521  1.3928  0.0829 -0.8898
  933MOL0     H25926  14.434  10.401  10.550 -1.2967  2.0933 -0.5431
  933MOL0     H25927  14.463  10.276  10.276 -1.5049  1.1138 -1.1432
  933MOL0     H25928  14.593  10.319  10.391  0.7009  2.3068  1.8432
  933MOL0     H25929  14.583  10.483  10.229 -1.1948 -2.3657 -0.8935
  933MOL0     H25930  14.413  10.498  10.224  1.7235 -1.9971 -2.3792
  933MOL0     H25931  14.584  10.595  10.463  0.3548 -0.9907 -1.7628
  933MOL0     H25932  14.406  10.624  10.444 -0.5676  2.3889 -1.2833
  933MOL0     H25933  14.550  10.825  10.391  1.2739  1.5442 -1.7473
  933MOL0     H25934  14.644  10.725  10.274  0.5687 -2.7554  2.3166
  933MOL0     H25935  13.798  10.565  10.585  0.1360 -1.3186  1.3407
  933MOL0     H25936  13.564  10.595  10.523 -0.3126  0.8947 -0.4841
  933MOL0     H25937  13.213  10.785  10.227 -1.5990 -2.1055  2.7981
  933MOL0     H25938  13.002  10.785  10.076  1.3661 -0.0352  4.7136
  933MOL0     H25939  11.382  10.909   9.369  1.2683  0.1642 -0.6413
  933MOL0     H25940  11.144  10.865   9.416 -1.0684  1.2576  0.7563
  933MOL0     H25941  10.634  11.153   9.433 -1.0574  0.1418  3.7852
  933MOL0     H25942  10.422  11.074   9.483  0.5149  0.7533  0.5014
  933MOL0     H25943  10.412  10.689   9.651  0.7458  1.4645 -1.5034
  933MOL0     H25944  10.350  10.622   9.500 -1.9805 -0.4199 -0.0115
  933MOL0     H25945  10.204  10.733   9.754  0.3261 -2.5560  0.0009
  933MOL0     H25946  10.167  10.594   9.656 -0.5089  0.5167 -0.9278
  933MOL0     H25947  10.075  10.725   9.481 -0.0661 -0.7427  1.0317
  933MOL0     H25948  10.127  10.884   9.561  3.6005  0.0137  1.6804
  933MOL0     H25949   9.931  10.670   9.662  1.3474 -0.4195 -0.4927
  933MOL0     H25950   9.986  10.799   9.764  1.1225 -1.4739  0.3556
  933MOL0     H25951   9.736  11.029   9.502 -1.1856 -0.6769  0.1296
  933MOL0     H25952  10.560  10.672   9.472 -1.0575 -0.2292 -0.2163
  933MOL0     H25953  10.782  10.613   9.429 -1.5063  0.0757 -2.4743
  933MOL0     H25954  10.882  10.726   9.343 -2.3635 -0.9866 -1.2460
  933MOL0     H25955  10.893  10.713   9.517 -2.0928 -2.5551  1.8130
  934MOL0     O25956   7.599   3.940   7.755  0.7447 -0.2448 -0.1553
  934MOL0     C25957   7.643   3.942   7.642 -0.4592  0.2499  0.0238
  934MOL0     O25958   7.766   3.907   7.608  0.0227 -0.1961  0.7034
  934MOL0     C25959   7.841   3.833   7.697  0.6399  0.7502  1.0455
  934MOL0     C25960   7.801   3.704   7.735 -0.4686  0.2189 -0.4300
  934MOL0     C25961   7.863   3.637   7.834  1.2480 -0.0141  0.6482
  934MOL0     C25962   7.982   3.689   7.874 -0.1651  0.4790  0.0309
  934MOL0     O25963   8.051   3.630   7.979  0.3747 -0.1391  0.3462
  934MOL0     C25964   8.109   3.501   7.940  0.7398  0.4766 -0.0315
  934MOL0     C25965   8.192   3.423   8.048  0.7249  0.8098  0.2418
  934MOL0     C25966   8.323   3.499   8.073 -0.0787  0.5595 -0.3661
  934MOL0     C25967   8.417   3.415   8.169  0.2699 -0.2925 -0.0340
  934MOL0     C25968   8.519   3.519   8.222 -0.4669 -0.0152 -0.1111
  934MOL0     C25969   8.621   3.568   8.120  0.3220 -0.2044 -0.8784
  934MOL0     C25970   8.738   3.660   8.181  0.0134  0.0803 -0.1147
  934MOL0     C25971   8.852   3.669   8.086  0.0461  0.4874  0.0405
  934MOL0     N25972   8.978   3.732   8.130  0.8816 -0.2757  0.2400
  934MOL0     C25973   8.995   3.867   8.121 -0.6354  0.7239  0.5405
  934MOL0     C25974   9.119   3.883   8.178  0.4681 -0.0688 -0.5658
  934MOL0     C25975   9.200   4.011   8.210 -0.0787  0.5997  0.7912
  934MOL0     C25976   9.289   4.034   8.085 -0.3022  0.2256  0.1488
  934MOL0     C25977   9.369   4.159   8.107  0.2576  0.0797  0.1353
  934MOL0     C25978   9.508   4.144   8.063  0.4131 -0.5350  0.5719
  934MOL0     O25979   9.573   4.269   8.087  0.4765  0.5304  0.1385
  934MOL0     C25980   9.707   4.268   8.048 -0.2559  0.2832 -0.0340
  934MOL0     C25981   9.785   4.156   8.015  0.7090  0.5284  0.6411
  934MOL0     C25982   9.916   4.170   7.967  0.2656  0.4001 -1.1108
  934MOL0     C25983   9.982   4.289   7.966  0.7923  0.0697  0.3711
  934MOL0     C25984  10.130   4.299   7.932  0.6758 -0.6841 -0.4857
  934MOL0     O25985  10.182   4.427   7.962 -0.2551  0.5008 -0.0531
  934MOL0     C25986  10.320   4.448   7.934  0.6494 -0.1485  1.1006
  934MOL0     C25987  10.368   4.528   7.830 -1.1395  0.9095  0.9275
  934MOL0     C25988  10.506   4.551   7.816  0.0936  0.1243 -0.5292
  934MOL0     C25989  10.595   4.492   7.894 -0.5629 -0.0542 -0.0166
  934MOL0     O25990  10.726   4.516   7.870 -0.8695  0.1568 -0.3803
  934MOL0     C25991  10.823   4.507   7.971  0.1873  0.4376  0.6684
  934MOL0     C25992  10.926   4.620   7.945 -0.0677  0.0729  0.4799
  934MOL0     C25993  11.061   4.585   8.006 -1.0046 -0.0105  0.3948
  934MOL0     C25994  11.152   4.708   8.013  0.4871  0.2020 -0.0153
  934MOL0     C25995  11.265   4.710   8.123 -0.6556  0.7748  0.8589
  934MOL0     C25996  11.222   4.703   8.278 -0.5226  0.4450 -0.2166
  934MOL0     C25997  11.106   4.794   8.321  0.2495  0.3388 -0.1085
  934MOL0     C25998  11.049   4.771   8.457  0.0028 -0.0228  0.3614
  934MOL0    Cl25999  10.961   4.920   8.492 -0.2989  0.4606 -0.0244
  934MOL0     C26000  10.551   4.405   7.988  0.3671 -0.0358 -0.7281
  934MOL0     C26001  10.412   4.386   8.008 -0.4428 -0.5816  0.1790
  934MOL0     O26002  10.182   4.206   7.872  0.5546 -0.4196  0.1696
  934MOL0     C26003   9.908   4.402   8.014 -0.2885 -0.1838  0.7361
  934MOL0     C26004   9.779   4.387   8.057  0.6862 -0.2789  0.4147
  934MOL0     N26005   9.177   3.756   8.190 -0.0980  0.1803 -0.4980
  934MOL0     N26006   9.084   3.663   8.168 -0.0466  0.5886  0.2220
  934MOL0     C26007   8.026   3.818   7.837 -0.1999  1.1117 -0.0015
  934MOL0     C26008   7.952   3.892   7.750  0.1853 -0.3769 -0.2901
  934MOL0     C26009   7.559   3.965   7.525 -0.4768  0.2307 -0.6409
  934MOL0     C26010   7.449   3.881   7.525  0.3558  0.3194  0.8645
  934MOL0     C26011   7.352   3.888   7.423  0.1061  0.3482 -0.6803
  934MOL0     C26012   7.360   3.986   7.327  0.3471  0.3949  0.6654
  934MOL0     O26013   7.247   4.005   7.254  0.3737  0.5579  0.1347
  934MOL0     C26014   7.229   4.130   7.184 -0.8436 -0.6723  0.0372
  934MOL0     C26015   7.086   4.145   7.128 -0.0779 -0.0936 -0.1286
  934MOL0     C26016   7.060   4.065   7.002  0.1389 -0.1469 -0.6781
  934MOL0     C26017   6.919   4.087   6.959 -0.3215 -0.0064 -0.5547
  934MOL0     C26018   6.817   4.047   7.059  0.2320 -0.0394 -0.0680
  934MOL0     C26019   6.740   4.018   7.147 -0.3262  0.5437 -0.0317
  934MOL0     C26020   7.478   4.066   7.316  0.4826  0.2424 -0.8854
  934MOL0     C26021   7.581   4.055   7.417 -0.1946  0.2514 -0.5765
  934MOL0     C26022   7.709   4.135   7.404 -0.1058 -0.3098 -0.3572
  934MOL0     H26023   7.703   3.677   7.698 -1.1773 -1.4485  2.3700
  934MOL0     H26024   7.824   3.546   7.879  1.3978 -1.0564 -1.1894
  934MOL0     H26025   8.025   3.444   7.898 -2.2217  3.4581  1.3245
  934MOL0     H26026   8.176   3.518   7.855  0.1259 -0.1018 -0.6449
  934MOL0     H26027   8.212   3.322   8.011 -3.1139 -0.0212  0.0794
  934MOL0     H26028   8.138   3.418   8.143 -0.3421  1.7650 -0.2901
  934MOL0     H26029   8.306   3.598   8.116 -1.9336 -0.1575  0.6816
  934MOL0     H26030   8.375   3.515   7.978  0.8806 -0.2526 -0.0080
  934MOL0     H26031   8.347   3.378   8.245 -0.9838  1.3487 -0.3290
  934MOL0     H26032   8.473   3.331   8.127 -0.5820 -1.0579  0.3492
  934MOL0     H26033   8.463   3.605   8.258 -0.9035  0.0144 -0.8573
  934MOL0     H26034   8.567   3.474   8.310 -0.7841 -1.3307 -0.5935
  934MOL0     H26035   8.659   3.479   8.068 -0.2988 -0.0410 -1.6212
  934MOL0     H26036   8.564   3.624   8.046 -0.4137 -1.8131 -1.5741
  934MOL0     H26037   8.772   3.611   8.273 -0.2943  1.7748  0.9387
  934MOL0     H26038   8.700   3.759   8.207  2.2173  1.8368 -3.0092
  934MOL0     H26039   8.874   3.565   8.062  1.9192  0.5008  1.4506
  934MOL0     H26040   8.822   3.712   7.990  0.0721  4.5355  1.6490
  934MOL0     H26041   8.926   3.945   8.091  1.8397  2.9162  0.2043
  934MOL0     H26042   9.130   4.095   8.216 -1.1555 -0.2202  0.0346
  934MOL0     H26043   9.274   3.996   8.289  0.2314 -2.7392  0.0357
  934MOL0     H26044   9.353   3.948   8.067 -0.5677  0.2930 -1.2078
  934MOL0     H26045   9.235   4.043   7.990 -0.8919  1.5780  0.5783
  934MOL0     H26046   9.374   4.166   8.216  1.1652 -2.1348  0.2854
  934MOL0     H26047   9.319   4.237   8.049  0.6455 -2.1802 -3.5806
  934MOL0     H26048   9.515   4.120   7.957  0.1496  1.8279 -0.0193
  934MOL0     H26049   9.557   4.063   8.118  0.5336 -1.4991 -0.8918
  934MOL0     H26050   9.738   4.060   7.997 -2.4278  2.2560 -1.3689
  934MOL0     H26051   9.961   4.082   7.922  1.5927  1.8847 -2.8507
  934MOL0     H26052  10.292   4.571   7.765 -0.5196 -0.3318 -0.6796
  934MOL0     H26053  10.534   4.622   7.738 -2.6414  1.4443 -0.4535
  934MOL0     H26054  10.773   4.516   8.068  1.0105 -1.3879  1.2984
  934MOL0     H26055  10.870   4.410   7.957 -3.5383 -1.1395 -2.7938
  934MOL0     H26056  10.949   4.631   7.838 -2.4746  0.6413 -0.0331
  934MOL0     H26057  10.891   4.722   7.967  0.7644  0.3728  0.4585
  934MOL0     H26058  11.043   4.563   8.111 -2.3062  2.5507  0.7950
  934MOL0     H26059  11.131   4.515   7.959 -0.7491  0.6722 -0.2536
  934MOL0     H26060  11.096   4.801   8.023 -1.4278 -1.0698  2.4152
  934MOL0     H26061  11.195   4.720   7.913 -2.8560 -0.0066 -1.6005
  934MOL0     H26062  11.320   4.800   8.096 -1.2406  0.8391 -0.1782
  934MOL0     H26063  11.333   4.625   8.108  0.9916  2.1592  0.2048
  934MOL0     H26064  11.193   4.601   8.303 -0.0841  0.4970  0.5207
  934MOL0     H26065  11.310   4.737   8.334 -0.6054 -0.7983  0.7197
  934MOL0     H26066  11.018   4.781   8.256 -1.5434 -1.6068  2.4939
  934MOL0     H26067  11.140   4.897   8.326 -0.9886  0.6935  2.0657
  934MOL0     H26068  10.982   4.685   8.446  1.0350 -0.5477 -2.6678
  934MOL0     H26069  11.130   4.761   8.530  1.5329  0.2192 -1.2397
  934MOL0     H26070  10.617   4.350   8.054 -0.2765 -0.5940 -0.5462
  934MOL0     H26071  10.386   4.310   8.082  1.9454 -2.7992 -1.0995
  934MOL0     H26072   9.946   4.504   8.019 -0.2481 -0.2409  1.9574
  934MOL0     H26073   9.729   4.477   8.093 -1.5172 -0.8617 -1.0034
  934MOL0     H26074   8.122   3.855   7.873 -1.0001  1.3844  1.9787
  934MOL0     H26075   7.961   3.997   7.726 -3.0040  0.3665  1.1915
  934MOL0     H26076   7.445   3.815   7.612  0.1473  1.3814  1.6851
  934MOL0     H26077   7.266   3.821   7.427 -1.9375  2.7659 -1.5658
  934MOL0     H26078   7.303   4.135   7.103  0.1032 -1.7045  0.7974
  934MOL0     H26079   7.253   4.213   7.250 -0.6156 -0.5033 -0.2518
  934MOL0     H26080   7.073   4.251   7.109  0.9739  0.4290  1.7861
  934MOL0     H26081   7.015   4.121   7.208 -4.1554  0.3593 -3.2606
  934MOL0     H26082   7.076   3.960   7.028 -1.1304  0.0515  1.0619
  934MOL0     H26083   7.143   4.088   6.935 -1.6848  1.5652 -2.4517
  934MOL0     H26084   6.903   4.193   6.939 -3.4850  0.4501  3.1338
  934MOL0     H26085   6.906   4.038   6.862 -1.5808 -0.6030 -0.1115
  934MOL0     H26086   6.662   3.991   7.216  0.1450 -0.2098  0.2231
  934MOL0     H26087   7.487   4.134   7.232 -0.3060  2.3508  0.6696
  934MOL0     H26088   7.680   4.239   7.388  1.8609  0.2620 -0.4658
  934MOL0     H26089   7.755   4.135   7.503 -0.7263 -2.9371  0.0052
  934MOL0     H26090   7.774   4.101   7.324 -0.0643  0.1630 -0.5274
  935MOL0     O26091   4.620   1.477   6.969 -0.1270  0.2036  0.0161
  935MOL0     C26092   4.552   1.449   6.867 -0.6413 -0.3073  0.0770
  935MOL0     O26093   4.612   1.424   6.741 -0.2922  0.6481  0.1797
  935MOL0     C26094   4.740   1.372   6.739  0.0540  0.2059 -0.7215
  935MOL0     C26095   4.855   1.454   6.744  0.0168  0.0153  0.2720
  935MOL0     C26096   4.982   1.402   6.782  0.4810 -0.0560  0.2265
  935MOL0     C26097   5.001   1.262   6.791  0.6560  0.3079  0.3577
  935MOL0     O26098   5.109   1.198   6.833 -0.4973  0.1898  0.2142
  935MOL0     C26099   5.232   1.261   6.797 -0.2241 -0.6092 -0.3718
  935MOL0     C26100   5.358   1.186   6.844 -0.2895  0.3273 -0.0343
  935MOL0     C26101   5.485   1.264   6.824 -0.7124 -0.3182  0.3177
  935MOL0     C26102   5.608   1.197   6.888  0.1694  0.0065  0.4055
  935MOL0     C26103   5.736   1.267   6.856 -0.0725  0.3390  0.2974
  935MOL0     C26104   5.861   1.212   6.921 -0.5295  0.4917  0.0629
  935MOL0     C26105   5.991   1.302   6.897  0.2612  0.2816  0.1584
  935MOL0     C26106   6.002   1.415   6.993 -0.5207 -0.0928  0.5473
  935MOL0     N26107   6.144   1.467   6.982  0.2761  0.7557  0.4797
  935MOL0     C26108   6.251   1.419   7.060  0.0369  0.3104 -0.2341
  935MOL0     C26109   6.353   1.500   7.011 -0.2452  0.0044 -0.7889
  935MOL0     C26110   6.497   1.503   7.054 -0.1301  0.0446  0.4325
  935MOL0     C26111   6.522   1.602   7.173 -0.0634 -0.1337  0.6965
  935MOL0     C26112   6.557   1.517   7.289 -1.4465 -0.0151  0.1734
  935MOL0     C26113   6.467   1.394   7.333 -0.1685  0.3473 -0.3569
  935MOL0     O26114   6.337   1.454   7.355  0.1510  0.0969  0.0192
  935MOL0     C26115   6.234   1.376   7.407 -0.5779  0.2221  0.3699
  935MOL0     C26116   6.245   1.252   7.459 -0.7730 -0.4608 -0.4011
  935MOL0     C26117   6.137   1.169   7.493 -0.2873  0.0851  0.0462
  935MOL0     C26118   6.008   1.214   7.476 -0.2515  0.2267 -0.3067
  935MOL0     C26119   5.893   1.127   7.501  0.3513 -0.7426  0.5986
  935MOL0     O26120   5.773   1.169   7.456 -0.4304 -0.1399 -0.0771
  935MOL0     C26121   5.652   1.109   7.479  0.6365  0.4780  0.2094
  935MOL0     C26122   5.622   1.054   7.597 -0.8630  0.6934  0.4064
  935MOL0     C26123   5.494   1.003   7.634  0.9605 -1.3628  0.4739
  935MOL0     C26124   5.388   1.009   7.536 -0.3327  0.2974  0.1508
  935MOL0     O26125   5.263   0.966   7.585 -0.3855  0.2884  0.3785
  935MOL0     C26126   5.143   0.999   7.515  0.5601 -0.1011  0.5244
  935MOL0     C26127   5.030   0.951   7.617 -0.1229 -0.2357 -0.0886
  935MOL0     C26128   4.890   0.968   7.560 -0.1705 -0.3329 -0.0461
  935MOL0     C26129   4.781   0.886   7.643  0.5952 -0.2454  0.8316
  935MOL0     C26130   4.643   0.890   7.593 -0.0630  0.2009  1.0786
  935MOL0     C26131   4.536   0.851   7.693 -0.2523 -0.0685 -0.0926
  935MOL0     C26132   4.397   0.859   7.630 -0.0024 -0.2237 -0.1486
  935MOL0     C26133   4.289   0.818   7.724  0.5643 -0.4553  0.1113
  935MOL0    Cl26134   4.131   0.794   7.627 -0.1362  0.3036  0.3386
  935MOL0     C26135   5.413   1.070   7.409  0.1053 -0.2794  0.3005
  935MOL0     C26136   5.541   1.122   7.386 -0.6946 -0.0993 -0.1686
  935MOL0     O26137   5.920   1.020   7.542 -0.3153 -0.2326  0.8780
  935MOL0     C26138   5.991   1.345   7.418 -0.3123  0.4988 -0.0587
  935MOL0     C26139   6.109   1.417   7.380  0.6856  0.2326  0.6404
  935MOL0     N26140   6.306   1.566   6.906 -0.0692  0.2876  0.2548
  935MOL0     N26141   6.178   1.549   6.884  0.5739  0.4792 -1.5046
  935MOL0     C26142   4.892   1.181   6.760  0.1183  0.0540 -0.1002
  935MOL0     C26143   4.769   1.235   6.735 -0.0148 -0.3428  0.4076
  935MOL0     C26144   4.403   1.462   6.879  0.0202  0.1636 -0.4330
  935MOL0     C26145   4.327   1.510   6.772 -0.6193  0.3364 -0.6462
  935MOL0     C26146   4.186   1.515   6.773  0.3300  0.4042  0.1806
  935MOL0     C26147   4.115   1.489   6.890  0.5392  0.0363  0.0086
  935MOL0     O26148   3.979   1.491   6.906 -1.0283  0.3732  0.1519
  935MOL0     C26149   3.904   1.507   6.780 -0.3380  0.0416 -0.7023
  935MOL0     C26150   3.756   1.479   6.809 -0.3543  0.2488  0.8797
  935MOL0     C26151   3.697   1.575   6.920  0.2014  0.4113  0.2138
  935MOL0     C26152   3.659   1.706   6.845  0.1087 -0.1614 -0.3063
  935MOL0     C26153   3.528   1.695   6.795  0.3525 -0.0427  0.8993
  935MOL0     C26154   3.414   1.692   6.748 -0.2812  0.2845 -0.8983
  935MOL0     C26155   4.188   1.467   7.005 -0.4714 -0.3200  0.1974
  935MOL0     C26156   4.335   1.442   7.004  0.7835  0.4559  1.0169
  935MOL0     C26157   4.402   1.416   7.140 -0.0481 -0.4935  0.1112
  935MOL0     H26158   4.825   1.558   6.736 -1.2863 -0.3082  0.5912
  935MOL0     H26159   5.059   1.475   6.803 -0.0453  0.6814 -0.3685
  935MOL0     H26160   5.236   1.274   6.689  0.2376  0.2473 -0.2604
  935MOL0     H26161   5.229   1.356   6.851  0.9866 -0.7904  0.0476
  935MOL0     H26162   5.355   1.082   6.809 -1.5971  0.5903 -0.7887
  935MOL0     H26163   5.342   1.174   6.952 -2.6097 -3.6900 -0.6365
  935MOL0     H26164   5.477   1.368   6.857  0.1026  0.3318 -1.4180
  935MOL0     H26165   5.517   1.270   6.719  1.7720  1.4618  1.0855
  935MOL0     H26166   5.596   1.216   6.995 -2.7347  1.2645 -0.0468
  935MOL0     H26167   5.613   1.088   6.879  2.5971  0.0451  0.7227
  935MOL0     H26168   5.757   1.258   6.749 -1.4967  0.8589 -0.0458
  935MOL0     H26169   5.727   1.374   6.877  1.2980  0.9152 -1.7261
  935MOL0     H26170   5.852   1.216   7.030  1.0343 -0.8157  0.2749
  935MOL0     H26171   5.872   1.106   6.897 -0.3221  0.4817  0.1963
  935MOL0     H26172   5.994   1.339   6.794 -2.5135 -0.3203 -0.2183
  935MOL0     H26173   6.084   1.247   6.914 -1.1959 -3.3777 -2.2326
  935MOL0     H26174   5.932   1.493   6.964 -0.8693  0.3966  2.5793
  935MOL0     H26175   5.990   1.377   7.095  2.3621 -1.5861  0.4466
  935MOL0     H26176   6.252   1.353   7.146 -1.1325 -1.1989 -1.3006
  935MOL0     H26177   6.542   1.406   7.074 -0.5483 -0.4649 -1.0106
  935MOL0     H26178   6.564   1.524   6.971 -1.0224 -0.1356 -0.3500
  935MOL0     H26179   6.607   1.671   7.162 -0.7318  1.0072  2.3745
  935MOL0     H26180   6.432   1.660   7.194 -0.9976 -0.3435 -2.2852
  935MOL0     H26181   6.570   1.578   7.379  4.2256 -0.2072 -0.1767
  935MOL0     H26182   6.661   1.487   7.278 -0.7535 -0.0728  4.9224
  935MOL0     H26183   6.509   1.346   7.422  1.6192  1.7053 -0.4086
  935MOL0     H26184   6.448   1.316   7.258 -1.5820 -1.9425  2.2085
  935MOL0     H26185   6.345   1.212   7.476 -2.3220 -4.9629 -0.5111
  935MOL0     H26186   6.170   1.072   7.529  0.9034  1.2318  2.2595
  935MOL0     H26187   5.708   1.067   7.661 -0.9227  2.1413  0.2179
  935MOL0     H26188   5.465   0.975   7.735 -2.5765  1.6885  0.5122
  935MOL0     H26189   5.143   1.107   7.494  1.3735 -0.0764  0.6066
  935MOL0     H26190   5.147   0.941   7.423  0.4655 -1.6546  1.4753
  935MOL0     H26191   5.049   0.849   7.654 -3.7614 -0.9511  0.2556
  935MOL0     H26192   5.044   1.015   7.704  1.4880  1.2719 -1.3932
  935MOL0     H26193   4.864   1.073   7.572  2.8956  0.5120  0.0692
  935MOL0     H26194   4.887   0.948   7.452  0.7935  1.7920 -0.5105
  935MOL0     H26195   4.786   0.903   7.751  0.6161  1.0490  0.6361
  935MOL0     H26196   4.802   0.779   7.631 -0.1994 -0.5367  1.8515
  935MOL0     H26197   4.628   0.824   7.507  1.0828 -1.8249  2.3504
  935MOL0     H26198   4.629   0.991   7.555 -0.8330 -0.3166 -0.0807
  935MOL0     H26199   4.560   0.754   7.736  1.5081  0.6947  0.7111
  935MOL0     H26200   4.532   0.922   7.776  0.6988  1.7706 -1.5501
  935MOL0     H26201   4.386   0.796   7.541 -0.2260 -1.4839  0.7290
  935MOL0     H26202   4.382   0.962   7.599  0.4641 -0.1249 -0.0454
  935MOL0     H26203   4.315   0.724   7.774 -1.5473 -1.8410 -1.2162
  935MOL0     H26204   4.273   0.893   7.802  1.0940 -0.1129 -0.1014
  935MOL0     H26205   5.347   1.085   7.324  0.6994  1.1231  0.0544
  935MOL0     H26206   5.555   1.164   7.286  1.6772 -0.5685 -0.1042
  935MOL0     H26207   5.892   1.382   7.395  0.2282  2.2383  0.2651
  935MOL0     H26208   6.078   1.511   7.336 -1.6235 -1.1371 -0.9242
  935MOL0     H26209   4.908   1.075   6.776  1.4916  0.6413  3.4812
  935MOL0     H26210   4.681   1.173   6.723  0.4017 -1.0916  1.1476
  935MOL0     H26211   4.362   1.520   6.670 -1.8631  0.7949 -1.0445
  935MOL0     H26212   4.128   1.534   6.684 -0.3911  1.7045  0.8945
  935MOL0     H26213   3.945   1.437   6.707  1.5200 -1.1764  1.3875
  935MOL0     H26214   3.917   1.609   6.743 -2.0525  0.0632 -1.3445
  935MOL0     H26215   3.752   1.377   6.850  0.6216  0.2651  1.0448
  935MOL0     H26216   3.701   1.472   6.714  0.7693 -2.3407  0.3148
  935MOL0     H26217   3.773   1.589   6.998  1.4737  1.0741 -1.0818
  935MOL0     H26218   3.609   1.529   6.966 -0.1266  0.0620 -0.7357
  935MOL0     H26219   3.656   1.786   6.920 -3.7314  0.2493 -0.7251
  935MOL0     H26220   3.732   1.735   6.769  0.8760  0.2719  0.5682
  935MOL0     H26221   3.315   1.682   6.708 -0.6076  2.6080 -0.8046
  935MOL0     H26222   4.122   1.460   7.091 -1.4603 -1.1529 -0.6017
  935MOL0     H26223   4.470   1.330   7.131  0.1219 -0.3865  0.3764
  935MOL0     H26224   4.458   1.505   7.169  2.5315 -1.2999 -1.9803
  935MOL0     H26225   4.329   1.399   7.219  2.3575 -2.2875  2.1197
  936MOL0     O26226   5.964   0.338   7.280 -0.4742 -0.0251 -0.0258
  936MOL0     C26227   5.898   0.255   7.214 -0.3826  0.3876 -0.3465
  936MOL0     O26228   5.940   0.135   7.176 -0.5463 -0.2451 -0.4475
  936MOL0     C26229   6.077   0.119   7.161  0.0319 -0.1982 -0.6079
  936MOL0     C26230   6.194   0.183   7.205 -0.5381  1.2163  0.8610
  936MOL0     C26231   6.319   0.133   7.161  0.2391  0.1496 -0.7264
  936MOL0     C26232   6.327   0.035   7.069  0.8976  0.4667 -0.2063
  936MOL0     O26233   6.446   0.004   7.020  0.1422 -1.0867 -0.2331
  936MOL0     C26234   6.458  -0.048   6.886 -0.6811 -0.2733  0.2003
  936MOL0     C26235   6.611  -0.041   6.848  0.5725  0.0401 -0.3154
  936MOL0     C26236   6.660   0.107   6.841  1.2875  0.4675  0.6436
  936MOL0     C26237   6.726   0.158   6.966  0.2919 -0.5761 -0.7008
  936MOL0     C26238   6.734   0.305   6.980 -0.5588  0.0233 -0.5176
  936MOL0     C26239   6.819   0.341   7.099 -0.6145 -0.1394 -0.2139
  936MOL0     C26240   6.973   0.320   7.097  0.0977  0.0999  1.0620
  936MOL0     C26241   7.054   0.417   7.005 -0.6247  0.1388 -1.0106
  936MOL0     N26242   7.203   0.383   7.007  0.0754 -0.3521 -0.5988
  936MOL0     C26243   7.270   0.295   6.932  0.4006  1.2507 -0.0306
  936MOL0     C26244   7.400   0.329   6.959 -0.0860 -0.0628  0.1549
  936MOL0     C26245   7.528   0.267   6.902 -0.5446  0.5196 -0.2747
  936MOL0     C26246   7.544   0.124   6.963 -0.7389  0.7285 -0.8066
  936MOL0     C26247   7.686   0.058   6.939 -0.5888  0.7160  0.1304
  936MOL0     C26248   7.692  -0.072   7.003  0.1642  1.1835  1.0971
  936MOL0     O26249   7.811  -0.148   6.973  0.1029 -0.3809 -0.5625
  936MOL0     C26250   7.933  -0.073   6.987 -0.0627 -0.5056  0.2751
  936MOL0     C26251   7.963  -0.020   7.119  0.5502  0.7180  0.6179
  936MOL0     C26252   8.078   0.061   7.132  0.0536 -0.3870 -0.1884
  936MOL0     C26253   8.164   0.094   7.027  0.1430  0.1889 -0.2604
  936MOL0     C26254   8.292   0.169   7.055  0.0914 -0.5501  0.1241
  936MOL0     O26255   8.400   0.134   6.975  0.3207  0.9678  0.1809
  936MOL0     C26256   8.525   0.189   6.990  1.2245 -0.4765 -0.6583
  936MOL0     C26257   8.578   0.235   7.113 -0.3402 -0.8332 -0.0563
  936MOL0     C26258   8.712   0.287   7.110 -0.0755  1.3156  0.0834
  936MOL0     C26259   8.782   0.287   6.986  0.6832 -0.3226  0.2914
  936MOL0     O26260   8.908   0.343   6.979  0.1121  0.3302 -0.1222
  936MOL0     C26261   8.930   0.422   6.860  0.4770 -0.3980  0.0301
  936MOL0     C26262   9.063   0.497   6.862  0.1876 -0.5474 -0.5422
  936MOL0     C26263   9.068   0.597   6.984  0.8126  0.1717  0.3254
  936MOL0     C26264   8.948   0.696   6.994 -0.7243  0.8240  0.4920
  936MOL0     C26265   8.978   0.805   7.092  0.6811  0.0548  0.2114
  936MOL0     C26266   8.869   0.909   7.088 -0.1764  0.7427  0.2205
  936MOL0     C26267   8.858   1.003   7.202 -0.2907  0.3439  0.1737
  936MOL0     C26268   8.737   1.101   7.192 -0.7750  0.0632  0.4915
  936MOL0    Cl26269   8.746   1.229   7.317  0.0859 -0.0029 -0.1723
  936MOL0     C26270   8.729   0.222   6.872 -0.6338  0.2901  0.2091
  936MOL0     C26271   8.603   0.174   6.874  0.4558 -0.3311 -0.4701
  936MOL0     O26272   8.286   0.272   7.130 -0.3697  0.0078 -0.3578
  936MOL0     C26273   8.141   0.035   6.910  0.5346 -0.2901  0.7136
  936MOL0     C26274   8.021  -0.044   6.882 -0.5940  0.2406 -1.0976
  936MOL0     N26275   7.402   0.424   7.066  0.0298 -0.2211 -0.1135
  936MOL0     N26276   7.285   0.465   7.083  0.2116  0.1200  0.2737
  936MOL0     C26277   6.212  -0.018   7.014  0.3371  0.8920 -0.7699
  936MOL0     C26278   6.089   0.022   7.064  0.6084  0.0887  0.2446
  936MOL0     C26279   5.746   0.285   7.197  1.6613 -0.2286  0.3364
  936MOL0     C26280   5.705   0.415   7.201  0.1848  0.1220 -0.0512
  936MOL0     C26281   5.580   0.461   7.170  0.3968 -0.5979  0.4646
  936MOL0     C26282   5.477   0.362   7.146 -1.2417 -0.2724  0.1008
  936MOL0     O26283   5.356   0.421   7.127  0.1821 -0.3471  0.4315
  936MOL0     C26284   5.248   0.332   7.093  0.1717  0.7339 -0.4800
  936MOL0     C26285   5.116   0.407   7.056  0.0351  0.7175 -0.3717
  936MOL0     C26286   5.029   0.310   6.977 -0.1228 -0.4619  0.4192
  936MOL0     C26287   4.902   0.361   6.919 -0.4570 -0.9559  0.5849
  936MOL0     C26288   4.840   0.260   6.827 -0.1621 -1.2671  0.0064
  936MOL0     C26289   4.784   0.192   6.747 -0.3236 -0.3592  0.5118
  936MOL0     C26290   5.517   0.226   7.137 -0.0856  1.2555 -0.2047
  936MOL0     C26291   5.646   0.188   7.168 -0.9609 -0.8343 -0.6260
  936MOL0     C26292   5.661   0.037   7.180 -0.4671 -0.4373  0.6289
  936MOL0     H26293   6.199   0.270   7.269  3.0045  1.2491  0.6922
  936MOL0     H26294   6.410   0.177   7.202 -0.9181  1.1913  0.8408
  936MOL0     H26295   6.420  -0.150   6.878  0.0721 -0.8928  3.2855
  936MOL0     H26296   6.401   0.016   6.818  0.4390  0.4512 -0.0687
  936MOL0     H26297   6.617  -0.090   6.750  0.7911  1.0163 -0.7960
  936MOL0     H26298   6.677  -0.096   6.916 -0.5577 -0.2887  0.5573
  936MOL0     H26299   6.572   0.162   6.808  0.6820  0.2898  1.8963
  936MOL0     H26300   6.729   0.119   6.757 -0.1627 -1.1091 -0.8415
  936MOL0     H26301   6.683   0.122   7.060  1.7793  3.1660  1.6312
  936MOL0     H26302   6.828   0.118   6.966  0.5648  0.1046  0.0662
  936MOL0     H26303   6.776   0.354   6.892 -2.6831  1.3683 -0.8578
  936MOL0     H26304   6.631   0.340   6.991 -1.0814 -1.6398  0.2500
  936MOL0     H26305   6.796   0.447   7.112  0.5029 -0.0854  1.7097
  936MOL0     H26306   6.774   0.300   7.189 -2.0945 -0.4668 -1.0727
  936MOL0     H26307   7.000   0.218   7.068  2.8687  0.9195  0.4786
  936MOL0     H26308   7.011   0.342   7.197  0.8564 -0.2912  0.8634
  936MOL0     H26309   7.028   0.414   6.899  1.3780  2.9276 -1.6904
  936MOL0     H26310   7.048   0.522   7.034 -0.2184 -0.1458  0.1849
  936MOL0     H26311   7.218   0.226   6.866  0.6338  1.1462 -0.1078
  936MOL0     H26312   7.504   0.273   6.795 -1.9204  2.6881  0.0900
  936MOL0     H26313   7.616   0.330   6.919  0.8454 -0.8914 -1.9332
  936MOL0     H26314   7.529   0.132   7.071 -0.9719  1.1747 -0.8708
  936MOL0     H26315   7.463   0.069   6.913 -0.4444 -0.9995  0.5117
  936MOL0     H26316   7.758   0.124   6.988 -0.8758  0.1961  1.2832
  936MOL0     H26317   7.703   0.032   6.834 -0.4167 -1.5948  0.6743
  936MOL0     H26318   7.606  -0.128   6.967 -1.7410  3.6536  1.4974
  936MOL0     H26319   7.677  -0.070   7.111 -1.4619  1.8364  0.8882
  936MOL0     H26320   7.900  -0.065   7.194  3.5679 -0.0744  2.8720
  936MOL0     H26321   8.110   0.110   7.223 -0.0563  0.8764 -0.8011
  936MOL0     H26322   8.521   0.244   7.205 -2.0533  1.7982 -1.2641
  936MOL0     H26323   8.762   0.330   7.196 -1.3007  4.8409 -0.8005
  936MOL0     H26324   8.950   0.357   6.774  1.7072 -2.2181  1.6039
  936MOL0     H26325   8.850   0.495   6.845  2.6794  1.8918 -1.2356
  936MOL0     H26326   9.138   0.418   6.864  1.5650  0.6235 -2.5584
  936MOL0     H26327   9.077   0.568   6.780 -1.7828  1.9882  1.1483
  936MOL0     H26328   9.068   0.529   7.070 -2.7219 -0.9586 -0.3992
  936MOL0     H26329   9.162   0.653   6.980  1.2382 -0.5962 -2.4386
  936MOL0     H26330   8.869   0.631   7.034 -0.7350 -0.5307 -1.5644
  936MOL0     H26331   8.908   0.740   6.902 -1.7794  1.2604  1.1393
  936MOL0     H26332   9.079   0.829   7.059  0.4708 -1.5227 -1.7688
  936MOL0     H26333   8.972   0.765   7.194 -1.6537  0.0357  0.1156
  936MOL0     H26334   8.894   0.955   6.991  1.2309 -1.4863 -0.5508
  936MOL0     H26335   8.771   0.863   7.078 -0.1654  0.4214  1.4740
  936MOL0     H26336   8.951   1.058   7.211  1.3414 -1.7774 -2.2842
  936MOL0     H26337   8.841   0.947   7.295 -0.1593 -3.0302 -1.6868
  936MOL0     H26338   8.742   1.150   7.094 -2.9427 -1.8577 -0.6867
  936MOL0     H26339   8.636   1.060   7.193 -1.0302  0.5280 -1.3261
  936MOL0     H26340   8.776   0.216   6.775 -2.1013  1.2979 -0.6003
  936MOL0     H26341   8.558   0.130   6.785  0.2922  1.9562 -1.5825
  936MOL0     H26342   8.200   0.064   6.823  1.9744  0.0756  1.7706
  936MOL0     H26343   7.988  -0.083   6.786 -0.4991 -1.5679 -0.4496
  936MOL0     H26344   6.218  -0.095   6.938 -0.3308  1.6055 -1.5708
  936MOL0     H26345   6.007  -0.037   7.024 -0.8807  1.6794  0.8086
  936MOL0     H26346   5.774   0.498   7.215  0.7353 -0.4939  1.0161
  936MOL0     H26347   5.552   0.566   7.179 -0.2101 -0.6650 -0.5202
  936MOL0     H26348   5.237   0.262   7.177 -3.1809  1.3577 -0.2651
  936MOL0     H26349   5.278   0.281   7.001 -4.4072  1.3735 -2.6095
  936MOL0     H26350   5.139   0.492   6.992 -2.4880  1.7291 -0.0463
  936MOL0     H26351   5.074   0.453   7.145 -1.2257  1.2588 -1.2139
  936MOL0     H26352   5.005   0.223   7.038 -0.6652 -0.4544  0.2207
  936MOL0     H26353   5.086   0.276   6.890  3.1244 -0.6212  2.4452
  936MOL0     H26354   4.827   0.364   6.999 -0.4812 -2.0818  0.6245
  936MOL0     H26355   4.922   0.456   6.869  0.4232 -0.6116  1.5623
  936MOL0     H26356   4.736   0.126   6.678 -0.3116  0.9708 -0.8261
  936MOL0     H26357   5.440   0.152   7.113 -0.4866  1.0220  1.6238
  936MOL0     H26358   5.565  -0.015   7.191 -0.0639 -1.3433 -0.0180
  936MOL0     H26359   5.703   0.008   7.083  1.2224  2.1685  0.4772
  936MOL0     H26360   5.734   0.011   7.256  1.4607  2.8732  0.1003
  937MOL0     O26361   5.845   8.140   5.253  0.9678  0.8945 -0.4139
  937MOL0     C26362   5.843   8.079   5.361 -0.1218  0.9557 -0.0527
  937MOL0     O26363   5.956   8.062   5.445 -0.4120  0.3589  0.4911
  937MOL0     C26364   6.085   8.104   5.406 -0.1718 -0.4852  0.0234
  937MOL0     C26365   6.130   8.128   5.276 -0.0214  0.1035  0.3537
  937MOL0     C26366   6.257   8.174   5.257 -0.0592 -0.4271  0.1192
  937MOL0     C26367   6.345   8.201   5.367  0.3394  0.4788  0.6400
  937MOL0     O26368   6.474   8.241   5.342  0.3652 -0.1666  0.6710
  937MOL0     C26369   6.564   8.291   5.432 -0.0910 -0.3727 -0.6039
  937MOL0     C26370   6.660   8.184   5.480 -0.1471  0.4333 -0.4266
  937MOL0     C26371   6.790   8.251   5.533 -0.1998 -0.9555  0.2963
  937MOL0     C26372   6.896   8.137   5.563  0.0001 -0.3027 -0.8556
  937MOL0     C26373   7.008   8.196   5.660 -0.9287 -0.6911  0.5774
  937MOL0     C26374   7.110   8.300   5.599  0.7353  0.0520  0.3573
  937MOL0     C26375   7.195   8.241   5.493 -0.5967 -0.4921 -0.0480
  937MOL0     C26376   7.323   8.330   5.474 -0.2559 -0.0709  0.0754
  937MOL0     N26377   7.384   8.320   5.338 -0.0267  0.4290 -0.7518
  937MOL0     C26378   7.507   8.258   5.311 -0.3032  0.3453  0.3971
  937MOL0     C26379   7.517   8.250   5.175  0.1400 -0.4769 -0.3204
  937MOL0     C26380   7.629   8.173   5.113  0.0760  0.2457  0.6155
  937MOL0     C26381   7.591   8.125   4.968  0.3145 -0.4967  0.0576
  937MOL0     C26382   7.708   8.067   4.897  0.0828 -0.8317  0.5300
  937MOL0     C26383   7.819   8.171   4.860 -0.0203  0.3714 -0.1344
  937MOL0     O26384   7.930   8.112   4.789 -0.2817  0.8929  0.5012
  937MOL0     C26385   8.041   8.076   4.864 -0.0702 -0.2877 -0.1614
  937MOL0     C26386   8.165   8.032   4.797 -0.1458 -0.3830 -0.5556
  937MOL0     C26387   8.280   7.995   4.863  0.1806  0.3643  0.2751
  937MOL0     C26388   8.278   7.994   4.999 -0.2290 -0.7091 -0.6310
  937MOL0     C26389   8.406   7.963   5.071  0.4147 -0.4170  0.8222
  937MOL0     O26390   8.519   7.938   4.989  0.0203  0.2162 -0.0749
  937MOL0     C26391   8.621   7.861   5.046  0.3260 -0.1545 -0.0234
  937MOL0     C26392   8.748   7.927   5.060 -0.3702  0.9008 -0.3578
  937MOL0     C26393   8.857   7.851   5.128 -0.2962  0.2201  0.1070
  937MOL0     C26394   8.846   7.711   5.157 -0.2550  0.4938 -0.2980
  937MOL0     O26395   8.931   7.628   5.222 -0.0930 -0.2105  0.0040
  937MOL0     C26396   9.056   7.686   5.260  0.4836 -0.3102 -0.1584
  937MOL0     C26397   9.155   7.572   5.254 -2.0582  0.7280 -0.5729
  937MOL0     C26398   9.300   7.624   5.284 -0.6773  0.2297  0.7191
  937MOL0     C26399   9.405   7.523   5.238 -0.0702 -0.2690  0.5200
  937MOL0     C26400   9.530   7.531   5.326  0.5575 -0.3748 -0.7402
  937MOL0     C26401   9.589   7.665   5.286  0.1387  0.1343 -0.0595
  937MOL0     C26402   9.735   7.652   5.331  0.1794 -0.3703  0.2820
  937MOL0     C26403   9.815   7.781   5.341 -0.0123  0.5460  0.9883
  937MOL0    Cl26404   9.732   7.902   5.456 -0.3436  0.3686 -0.4506
  937MOL0     C26405   8.724   7.652   5.128  0.4415  0.3397  0.3609
  937MOL0     C26406   8.615   7.722   5.071  0.3728  0.2648  0.8705
  937MOL0     O26407   8.402   7.947   5.192  0.1101  0.4167 -0.3304
  937MOL0     C26408   8.164   8.033   5.069 -0.1589 -0.3265 -0.0511
  937MOL0     C26409   8.045   8.081   5.008 -0.1346 -0.4611 -0.4825
  937MOL0     N26410   7.417   8.329   5.128  0.7237  0.5188  0.4507
  937MOL0     N26411   7.336   8.374   5.221  1.0756  0.8829  0.6355
  937MOL0     C26412   6.295   8.173   5.494 -1.1343 -0.7091  0.4830
  937MOL0     C26413   6.174   8.120   5.516 -0.4090  0.3156  0.8979
  937MOL0     C26414   5.718   7.997   5.390  0.2593 -0.5983 -0.2664
  937MOL0     C26415   5.728   7.902   5.498 -0.4122 -0.9312  0.4886
  937MOL0     C26416   5.616   7.823   5.542 -0.1141 -0.0202 -0.1184
  937MOL0     C26417   5.499   7.830   5.465 -0.5786 -0.4319  0.1659
  937MOL0     O26418   5.411   7.745   5.520 -0.2250 -0.0794 -0.2150
  937MOL0     C26419   5.269   7.745   5.488  0.5039  0.3958 -0.1610
  937MOL0     C26420   5.189   7.652   5.580  0.1334 -0.6491  0.6649
  937MOL0     C26421   5.036   7.667   5.548 -0.6205 -0.3415 -0.2597
  937MOL0     C26422   4.963   7.552   5.617 -0.6296 -0.7632 -0.4610
  937MOL0     C26423   4.819   7.566   5.590  0.6137  0.5837  0.7277
  937MOL0     C26424   4.700   7.563   5.564  0.0119  0.4373 -0.1866
  937MOL0     C26425   5.487   7.926   5.352  0.0892 -0.1813 -0.5665
  937MOL0     C26426   5.596   8.007   5.322 -0.3198 -0.4670 -0.0693
  937MOL0     C26427   5.569   8.105   5.206  0.0796 -0.2017 -0.4814
  937MOL0     H26428   6.076   8.096   5.187 -0.4512  0.2848  0.5489
  937MOL0     H26429   6.301   8.194   5.160  1.4387  1.7017  1.1565
  937MOL0     H26430   6.622   8.365   5.376 -0.4006  0.0046 -0.4314
  937MOL0     H26431   6.519   8.341   5.519 -0.4603 -1.2073 -0.3027
  937MOL0     H26432   6.699   8.113   5.406  1.5973 -1.8041  2.4068
  937MOL0     H26433   6.614   8.125   5.559  0.7919  1.4389  0.9044
  937MOL0     H26434   6.769   8.308   5.624  1.7701  1.4694 -0.6411
  937MOL0     H26435   6.827   8.330   5.467  2.6766 -1.5096  1.1133
  937MOL0     H26436   6.838   8.054   5.604 -3.3524  2.2242  0.0664
  937MOL0     H26437   6.943   8.105   5.470 -0.3728 -2.2214 -0.4195
  937MOL0     H26438   6.966   8.226   5.757  0.2212 -0.3690  1.0005
  937MOL0     H26439   7.070   8.108   5.682  0.2440  0.4585  2.1944
  937MOL0     H26440   7.058   8.385   5.554  4.0670  0.6215 -2.9165
  937MOL0     H26441   7.165   8.345   5.682 -0.6707  0.6188  1.0151
  937MOL0     H26442   7.152   8.226   5.393  0.0402 -0.4522 -0.3327
  937MOL0     H26443   7.226   8.140   5.522  0.6688 -0.1034 -0.0079
  937MOL0     H26444   7.308   8.437   5.489 -0.4046 -0.0523 -0.1917
  937MOL0     H26445   7.401   8.309   5.548 -3.0422  2.2916  4.0618
  937MOL0     H26446   7.568   8.200   5.380 -0.0510 -0.2574 -0.3310
  937MOL0     H26447   7.709   8.246   5.099  1.5500 -1.5389 -0.8099
  937MOL0     H26448   7.664   8.091   5.175  1.5924  0.5526  0.2001
  937MOL0     H26449   7.517   8.045   4.967  1.9756 -2.1493 -2.2366
  937MOL0     H26450   7.559   8.206   4.903  0.7721 -0.1285  0.2895
  937MOL0     H26451   7.673   8.020   4.804  0.7276  0.7852 -0.5587
  937MOL0     H26452   7.753   7.986   4.956 -0.3803 -2.1033 -0.7961
  937MOL0     H26453   7.839   8.219   4.956  0.3416 -1.8190  0.9499
  937MOL0     H26454   7.776   8.246   4.793  0.8779  2.0138  1.0695
  937MOL0     H26455   8.159   8.020   4.690 -0.4728  0.8619 -0.6884
  937MOL0     H26456   8.368   7.960   4.811  0.1139 -2.6987  2.0402
  937MOL0     H26457   8.773   8.027   5.024  3.3407  0.2711  0.0055
  937MOL0     H26458   8.939   7.911   5.169 -0.7579  0.1684  1.1477
  937MOL0     H26459   9.094   7.763   5.193 -0.4582 -0.7598 -1.2266
  937MOL0     H26460   9.043   7.722   5.363 -1.9021 -1.1436 -0.0895
  937MOL0     H26461   9.123   7.488   5.315 -1.0560  0.8823  0.1884
  937MOL0     H26462   9.171   7.544   5.149  2.6329  0.2645  0.0651
  937MOL0     H26463   9.318   7.718   5.231 -0.3424  0.4489  1.2116
  937MOL0     H26464   9.312   7.643   5.391 -0.3451  1.2955  0.4971
  937MOL0     H26465   9.428   7.535   5.132  3.1362  0.9271  1.2603
  937MOL0     H26466   9.357   7.426   5.257 -0.0639  0.1813  3.3818
  937MOL0     H26467   9.601   7.453   5.299  2.1533  1.0814 -0.9094
  937MOL0     H26468   9.509   7.522   5.433  1.1126  1.1361 -0.4739
  937MOL0     H26469   9.570   7.682   5.180 -1.3036 -2.1587 -0.2332
  937MOL0     H26470   9.544   7.756   5.328  0.0702  0.2423 -0.3631
  937MOL0     H26471   9.788   7.592   5.257 -0.0863  0.4475 -0.5787
  937MOL0     H26472   9.741   7.602   5.429  0.7835 -1.7874 -0.4484
  937MOL0     H26473   9.917   7.754   5.370 -0.3420 -0.7691  1.0129
  937MOL0     H26474   9.807   7.832   5.245  0.0118  0.8350  1.1390
  937MOL0     H26475   8.707   7.547   5.148 -3.8415  0.6549 -0.7244
  937MOL0     H26476   8.522   7.672   5.048  1.2173  0.0707 -2.7179
  937MOL0     H26477   8.184   8.040   5.175  1.0499 -0.8377 -0.2205
  937MOL0     H26478   7.962   8.122   5.065  1.3195  0.0981  1.3300
  937MOL0     H26479   6.361   8.181   5.579 -0.8907  0.0680  0.2296
  937MOL0     H26480   6.153   8.091   5.618 -0.4661 -2.4479  0.1654
  937MOL0     H26481   5.822   7.905   5.553 -0.8381 -2.2669  1.3618
  937MOL0     H26482   5.635   7.745   5.616  2.4602 -0.3517 -1.0308
  937MOL0     H26483   5.262   7.729   5.380  1.3751  2.2069 -0.5326
  937MOL0     H26484   5.248   7.851   5.510  0.7102  0.3821  0.1147
  937MOL0     H26485   5.214   7.682   5.682  1.2055  2.0720 -0.3147
  937MOL0     H26486   5.204   7.544   5.564 -1.1000 -0.5340 -1.6580
  937MOL0     H26487   5.018   7.675   5.440  0.9738  2.0851 -0.4261
  937MOL0     H26488   4.996   7.762   5.586  1.1074  0.2810  0.1087
  937MOL0     H26489   4.995   7.458   5.572  0.1094 -0.1626 -1.2221
  937MOL0     H26490   4.984   7.552   5.725  2.0901  1.7249 -0.8608
  937MOL0     H26491   4.600   7.538   5.535  0.7729 -2.8137 -0.4303
  937MOL0     H26492   5.389   7.937   5.305 -1.2875 -1.9417  1.6785
  937MOL0     H26493   5.613   8.072   5.111  0.6140 -2.9776  0.6313
  937MOL0     H26494   5.460   8.111   5.196 -0.3354 -1.0041  2.6316
  937MOL0     H26495   5.603   8.202   5.244  3.3066 -1.0921 -0.8113
  938MOL0     O26496   0.025   6.306   4.288  0.6367  0.3962 -0.2814
  938MOL0     C26497   0.123   6.249   4.245 -0.1769 -0.9165  0.6699
  938MOL0     O26498   0.241   6.232   4.308 -0.0920 -0.1924  0.0752
  938MOL0     C26499   0.263   6.292   4.426  0.3914  0.0069 -0.1820
  938MOL0     C26500   0.164   6.304   4.533 -0.4917 -0.1795  0.2810
  938MOL0     C26501   0.198   6.371   4.652  0.3043  0.3153  0.5318
  938MOL0     C26502   0.324   6.434   4.670  0.1169  0.2765  0.0173
  938MOL0     O26503   0.340   6.506   4.787  0.1806  0.1831 -0.2831
  938MOL0     C26504   0.463   6.557   4.825 -0.5450 -0.1761  0.5597
  938MOL0     C26505   0.500   6.693   4.754  0.9705  1.3780 -0.7298
  938MOL0     C26506   0.645   6.728   4.790 -0.0508  0.5649 -0.8483
  938MOL0     C26507   0.759   6.649   4.722  0.2190  0.0074  0.5942
  938MOL0     C26508   0.896   6.725   4.746  0.0111 -0.4771  0.1989
  938MOL0     C26509   1.004   6.640   4.676 -1.0803  0.1684  0.5151
  938MOL0     C26510   1.146   6.694   4.714 -0.1839  0.3908  0.6328
  938MOL0     C26511   1.249   6.598   4.658  0.1710 -0.7051  0.1239
  938MOL0     N26512   1.381   6.649   4.674  0.7821  0.9281  0.1160
  938MOL0     C26513   1.469   6.625   4.773 -0.1629 -0.2755  0.0985
  938MOL0     C26514   1.571   6.714   4.748  0.2119  0.8317 -0.1978
  938MOL0     C26515   1.697   6.714   4.834  0.7291 -0.0185  0.3305
  938MOL0     C26516   1.813   6.722   4.739  0.4064 -0.0174 -0.7052
  938MOL0     C26517   1.937   6.701   4.833  0.3488 -0.4820  0.0038
  938MOL0     C26518   2.065   6.706   4.763  0.6807 -0.8239 -0.7749
  938MOL0     O26519   2.158   6.674   4.861  0.6978  0.2852 -0.0754
  938MOL0     C26520   2.279   6.727   4.856 -1.0832 -1.0280 -0.1979
  938MOL0     C26521   2.368   6.709   4.744  1.3797 -0.3147 -0.1078
  938MOL0     C26522   2.502   6.775   4.744 -0.3220 -0.3214 -0.6440
  938MOL0     C26523   2.552   6.849   4.854  0.2006  0.9703 -0.5437
  938MOL0     C26524   2.701   6.882   4.871  0.4088 -0.3142  0.9688
  938MOL0     O26525   2.742   6.956   4.980 -0.0690  0.1650  0.3513
  938MOL0     C26526   2.860   7.029   4.975 -0.7503  0.0019  0.2277
  938MOL0     C26527   2.934   7.039   5.090 -0.1913  0.4436 -0.0134
  938MOL0     C26528   3.053   7.115   5.100 -0.1951 -0.3791  0.0557
  938MOL0     C26529   3.101   7.191   4.981 -0.1663 -0.0211  0.5660
  938MOL0     O26530   3.204   7.278   4.974 -0.1246 -0.0394  0.4448
  938MOL0     C26531   3.321   7.228   5.033  0.0426 -0.0014  0.6709
  938MOL0     C26532   3.420   7.213   4.930 -0.1520 -0.0952 -0.2470
  938MOL0     C26533   3.512   7.352   4.922  0.6227 -0.4215  0.5222
  938MOL0     C26534   3.638   7.343   4.843  0.7701 -0.0332  0.2483
  938MOL0     C26535   3.702   7.480   4.832  0.0332  0.6131 -0.2488
  938MOL0     C26536   3.850   7.462   4.801 -0.0259  0.2256 -1.0098
  938MOL0     C26537   3.932   7.591   4.803 -0.0652 -0.1595 -0.0713
  938MOL0     C26538   4.075   7.575   4.766  0.1661 -0.3782  1.0630
  938MOL0    Cl26539   4.153   7.719   4.818  0.2190  0.0371  0.3512
  938MOL0     C26540   3.024   7.170   4.861  0.4241 -1.5196 -0.9983
  938MOL0     C26541   2.908   7.102   4.865  0.1532  0.3419  0.3840
  938MOL0     O26542   2.773   6.854   4.778 -0.3224  0.1887  0.2319
  938MOL0     C26543   2.456   6.874   4.954 -0.4649  0.3670  0.3054
  938MOL0     C26544   2.327   6.813   4.958 -0.4424  1.1214  0.2109
  938MOL0     N26545   1.536   6.792   4.644 -0.5915 -0.0039 -0.0873
  938MOL0     N26546   1.418   6.755   4.597 -0.2801  0.0623  0.1683
  938MOL0     C26547   0.422   6.402   4.574  0.1545 -0.5704 -0.3753
  938MOL0     C26548   0.393   6.327   4.462  0.4007  0.6418  0.1682
  938MOL0     C26549   0.119   6.186   4.108  0.0029  0.6129 -0.5255
  938MOL0     C26550   0.222   6.207   4.019 -0.1679 -0.2820 -0.6440
  938MOL0     C26551   0.222   6.148   3.895 -0.1403  0.7083 -0.6778
  938MOL0     C26552   0.107   6.082   3.851  0.0326  0.4940 -0.9115
  938MOL0     O26553   0.104   6.034   3.726 -0.1980 -0.3796  0.4739
  938MOL0     C26554   0.197   6.076   3.624  0.2740  0.2785 -0.1676
  938MOL0     C26555   0.148   6.061   3.482 -0.3570 -0.1827 -0.0831
  938MOL0     C26556   0.130   5.917   3.435  0.7335  0.5369  0.0644
  938MOL0     C26557   0.104   5.903   3.284 -0.3343 -0.7743 -0.7515
  938MOL0     C26558   0.136   5.774   3.224 -0.1948  0.2809  1.7438
  938MOL0     C26559   0.157   5.668   3.167 -0.0648  0.6504  0.2734
  938MOL0     C26560  -0.004   6.059   3.937 -0.1996 -0.7747  0.1685
  938MOL0     C26561   0.009   6.103   4.068  0.6365 -0.4595 -0.6830
  938MOL0     C26562  -0.092   6.063   4.174 -0.2597 -0.3551 -0.4260
  938MOL0     H26563   0.065   6.261   4.520 -0.1975 -0.2453 -2.3352
  938MOL0     H26564   0.126   6.385   4.733 -2.8853 -1.4105 -1.7978
  938MOL0     H26565   0.472   6.571   4.933  2.9569 -0.7774  0.4616
  938MOL0     H26566   0.536   6.479   4.802 -0.5584 -0.0952  0.2451
  938MOL0     H26567   0.427   6.769   4.785 -0.6215  0.8835 -3.0107
  938MOL0     H26568   0.494   6.674   4.647 -0.5479 -0.4617 -0.3726
  938MOL0     H26569   0.648   6.722   4.900 -0.6830 -2.3424 -0.9040
  938MOL0     H26570   0.672   6.832   4.768  0.7650  0.6682  0.4840
  938MOL0     H26571   0.756   6.545   4.755 -0.9093  0.1503  0.9909
  938MOL0     H26572   0.739   6.651   4.614 -1.8335 -1.1050  0.9098
  938MOL0     H26573   0.881   6.821   4.696  1.6368  0.1087  0.7408
  938MOL0     H26574   0.919   6.747   4.851  0.9655  0.5303 -0.2048
  938MOL0     H26575   0.988   6.535   4.706  0.1058 -0.1980 -0.0783
  938MOL0     H26576   0.988   6.635   4.568 -0.3000 -2.1854  0.4497
  938MOL0     H26577   1.159   6.690   4.823  2.8449  1.6011  0.4201
  938MOL0     H26578   1.156   6.797   4.677 -4.8316  0.1125 -2.1785
  938MOL0     H26579   1.243   6.500   4.708  0.2328 -0.3785  0.7795
  938MOL0     H26580   1.230   6.589   4.551 -1.7624 -0.4043  0.4115
  938MOL0     H26581   1.469   6.546   4.848  0.5954  0.9377  1.4228
  938MOL0     H26582   1.703   6.792   4.911 -0.7806 -0.8842  1.3939
  938MOL0     H26583   1.691   6.612   4.872 -0.6184 -0.8355 -1.8357
  938MOL0     H26584   1.788   6.650   4.660 -4.1630 -1.1441  1.3884
  938MOL0     H26585   1.823   6.823   4.698 -1.3898  0.2346 -0.6208
  938MOL0     H26586   1.918   6.610   4.890 -0.1294  0.7611  1.9316
  938MOL0     H26587   1.942   6.766   4.921  0.2583 -0.1694 -0.2198
  938MOL0     H26588   2.070   6.807   4.722 -2.1802 -0.3401 -0.1340
  938MOL0     H26589   2.063   6.635   4.679 -0.6522 -1.5262 -0.1689
  938MOL0     H26590   2.317   6.653   4.666 -3.6729  2.1142  1.0606
  938MOL0     H26591   2.571   6.767   4.660  0.6926  1.7067 -0.0823
  938MOL0     H26592   2.896   7.006   5.186 -1.6248  0.4552 -0.5607
  938MOL0     H26593   3.103   7.114   5.196 -3.0047 -1.7708  1.6251
  938MOL0     H26594   3.363   7.292   5.112  0.1949  1.0043 -0.2110
  938MOL0     H26595   3.309   7.138   5.094  2.0882 -0.9288 -0.2078
  938MOL0     H26596   3.493   7.133   4.947  2.1206  2.1130  1.1781
  938MOL0     H26597   3.376   7.199   4.831 -1.4973 -0.7066  0.4167
  938MOL0     H26598   3.453   7.420   4.860  2.0597 -0.8641 -1.4666
  938MOL0     H26599   3.537   7.389   5.022  1.8064  2.8574 -0.8394
  938MOL0     H26600   3.628   7.298   4.744  1.6987  0.7040 -0.1885
  938MOL0     H26601   3.697   7.272   4.901  1.0626  0.7015  0.8667
  938MOL0     H26602   3.687   7.539   4.923  0.8690  2.2188 -1.1140
  938MOL0     H26603   3.657   7.539   4.752 -0.2383 -0.9868 -1.3046
  938MOL0     H26604   3.901   7.401   4.877 -0.6088 -0.7028 -1.3470
  938MOL0     H26605   3.845   7.402   4.709 -1.5115 -1.4370  0.0812
  938MOL0     H26606   3.927   7.621   4.908  1.2350 -0.0145 -0.0434
  938MOL0     H26607   3.888   7.671   4.743 -1.8686 -1.2322 -0.2853
  938MOL0     H26608   4.113   7.490   4.822 -1.9958 -2.2451 -0.1407
  938MOL0     H26609   4.089   7.559   4.659 -0.7512  2.6809  0.3792
  938MOL0     H26610   3.051   7.224   4.771 -0.5768 -1.4177 -1.2482
  938MOL0     H26611   2.847   7.102   4.775  0.9883  1.5991 -0.2042
  938MOL0     H26612   2.491   6.925   5.043 -0.3377 -2.7211  2.1806
  938MOL0     H26613   2.261   6.816   5.044  1.8039  1.7077  2.0184
  938MOL0     H26614   0.526   6.423   4.595 -0.1171  1.4069 -0.7620
  938MOL0     H26615   0.476   6.310   4.394 -0.0307 -0.0790 -0.1927
  938MOL0     H26616   0.300   6.273   4.053 -0.8666  0.8946 -1.2480
  938MOL0     H26617   0.314   6.149   3.838  2.5306 -2.5830  3.0100
  938MOL0     H26618   0.291   6.019   3.628 -1.3264 -2.7104 -1.8151
  938MOL0     H26619   0.211   6.184   3.633 -0.2753  0.3272  0.1076
  938MOL0     H26620   0.218   6.110   3.413 -3.1489  3.2425 -0.8108
  938MOL0     H26621   0.054   6.115   3.469 -0.0801  0.1134 -0.9726
  938MOL0     H26622   0.045   5.876   3.490  1.7765 -2.1798 -0.1693
  938MOL0     H26623   0.219   5.861   3.465 -1.1743 -2.1721  1.0488
  938MOL0     H26624   0.002   5.935   3.261 -0.6372  0.1757  1.6422
  938MOL0     H26625   0.180   5.971   3.244 -1.5138 -0.4053 -2.4612
  938MOL0     H26626   0.160   5.575   3.114 -0.4017  0.3091  0.8516
  938MOL0     H26627  -0.079   5.992   3.898  0.6249 -1.2119 -0.7392
  938MOL0     H26628  -0.053   5.995   4.250 -0.6153  0.6903  0.7281
  938MOL0     H26629  -0.140   6.148   4.224 -1.0595 -2.1935  2.1222
  938MOL0     H26630  -0.172   6.010   4.122 -0.1129 -1.0006 -0.0090
  939MOL0     O26631   0.975   7.293   7.132 -0.4627  0.9531  0.2953
  939MOL0     C26632   0.861   7.309   7.153  0.3435  0.2735 -0.1667
  939MOL0     O26633   0.812   7.341   7.279  0.4253 -0.3803 -0.3060
  939MOL0     C26634   0.899   7.354   7.389  0.1776 -0.3685  0.1813
  939MOL0     C26635   0.863   7.292   7.508 -0.0896  0.0130  0.1213
  939MOL0     C26636   0.954   7.292   7.614  0.4201 -0.7943  0.5346
  939MOL0     C26637   1.078   7.358   7.597 -0.1097 -0.0971  0.2751
  939MOL0     O26638   1.167   7.363   7.695 -0.2341 -0.4779 -0.1504
  939MOL0     C26639   1.123   7.354   7.826 -0.5224  0.2348 -0.3893
  939MOL0     C26640   1.223   7.421   7.912  0.1482 -0.4771 -0.6680
  939MOL0     C26641   1.356   7.343   7.914 -0.7479 -0.8230 -0.3553
  939MOL0     C26642   1.446   7.390   8.024  0.0670 -0.1402  0.0199
  939MOL0     C26643   1.579   7.325   8.012 -1.0540  0.1095 -0.6956
  939MOL0     C26644   1.659   7.359   8.140  0.0472  0.1962  0.7402
  939MOL0     C26645   1.796   7.288   8.124  0.2276 -0.1085  0.0919
  939MOL0     C26646   1.897   7.344   8.226 -0.2103 -0.3218 -0.5507
  939MOL0     N26647   2.025   7.269   8.221  0.1115 -0.4251 -1.0712
  939MOL0     C26648   2.146   7.325   8.184  0.5953  0.3870  0.0616
  939MOL0     C26649   2.234   7.221   8.174 -0.3954  0.8391 -0.1113
  939MOL0     C26650   2.382   7.218   8.135  0.7782 -0.3214 -0.0834
  939MOL0     C26651   2.474   7.186   8.254 -0.3655  0.6736  0.9044
  939MOL0     C26652   2.472   7.291   8.370  0.2088 -0.4271 -0.5853
  939MOL0     C26653   2.552   7.242   8.496 -0.0940  0.8212  0.1336
  939MOL0     O26654   2.680   7.209   8.456  0.5274 -0.4001 -0.0777
  939MOL0     C26655   2.778   7.263   8.534 -0.3887 -0.7873  0.6463
  939MOL0     C26656   2.794   7.209   8.662 -0.6291  0.1753 -0.4744
  939MOL0     C26657   2.907   7.245   8.744  0.2325 -0.1439 -0.6041
  939MOL0     C26658   3.007   7.328   8.689  0.9240  0.1595 -0.5693
  939MOL0     C26659   3.148   7.325   8.752  0.2971  0.1078  0.3836
  939MOL0     O26660   3.239   7.405   8.693 -0.6216 -0.3462 -0.4654
  939MOL0     C26661   3.373   7.388   8.730  0.4125  0.2470  0.0254
  939MOL0     C26662   3.441   7.275   8.796 -0.7524 -0.0486 -0.0400
  939MOL0     C26663   3.576   7.280   8.814  0.5054  0.5540  0.4815
  939MOL0     C26664   3.655   7.382   8.765 -0.0570 -0.5601  0.0284
  939MOL0     O26665   3.790   7.375   8.742 -0.3054  0.7594  0.6478
  939MOL0     C26666   3.862   7.290   8.835  0.5359 -1.5018  0.0087
  939MOL0     C26667   4.018   7.304   8.819 -0.0588 -0.1251 -0.0059
  939MOL0     C26668   4.064   7.227   8.688 -0.2682 -0.7206  0.4505
  939MOL0     C26669   4.056   7.075   8.675  0.4828 -0.9682  0.1951
  939MOL0     C26670   4.070   7.024   8.530 -0.8409  0.0340  0.5459
  939MOL0     C26671   4.222   7.027   8.488  0.2226 -0.5885 -0.3221
  939MOL0     C26672   4.232   6.990   8.341  0.2481 -0.6173 -0.3990
  939MOL0     C26673   4.371   6.964   8.294 -0.3437 -0.2200  0.3294
  939MOL0    Cl26674   4.461   7.111   8.314 -0.3889 -0.2284  0.2132
  939MOL0     C26675   3.590   7.497   8.715  0.0841 -1.6075  0.2142
  939MOL0     C26676   3.456   7.496   8.697 -0.1040 -1.0015 -0.2558
  939MOL0     O26677   3.161   7.257   8.856  0.5184 -0.5092  0.5920
  939MOL0     C26678   2.985   7.393   8.569  0.1999  0.4001 -0.4835
  939MOL0     C26679   2.868   7.363   8.489 -0.0428  0.3551  0.0338
  939MOL0     N26680   2.178   7.105   8.227  0.4249 -0.0849 -0.5981
  939MOL0     N26681   2.053   7.132   8.253  0.3679 -0.6394 -0.1458
  939MOL0     C26682   1.119   7.421   7.484 -0.2969  0.0512  0.5060
  939MOL0     C26683   1.028   7.420   7.374  0.3451  1.0041  0.0249
  939MOL0     C26684   0.773   7.289   7.037 -0.7730 -0.1147  0.4900
  939MOL0     C26685   0.829   7.224   6.921 -1.0100 -0.6863  0.3997
  939MOL0     C26686   0.753   7.197   6.807 -0.1752  0.3577  0.8419
  939MOL0     C26687   0.609   7.220   6.812 -0.0849  0.6052  0.3754
  939MOL0     O26688   0.511   7.188   6.719  0.0297  0.3010 -0.4996
  939MOL0     C26689   0.562   7.142   6.591  0.2449 -0.2281  0.0081
  939MOL0     C26690   0.449   7.090   6.510 -0.3825  0.0002 -1.1306
  939MOL0     C26691   0.368   7.200   6.430  1.1376 -0.1607 -0.2201
  939MOL0     C26692   0.253   7.153   6.351 -0.1048 -0.2262 -0.3412
  939MOL0     C26693   0.277   7.054   6.246  0.0233 -0.2682 -0.0903
  939MOL0     C26694   0.305   6.966   6.163  0.0058  0.3211 -0.7257
  939MOL0     C26695   0.562   7.286   6.922 -0.1370 -1.2505  0.2039
  939MOL0     C26696   0.639   7.329   7.025 -0.0418 -0.1705 -0.3215
  939MOL0     C26697   0.577   7.421   7.122  0.6344 -0.1907 -0.9070
  939MOL0     H26698   0.758   7.266   7.513 -0.7146  1.9826 -1.4916
  939MOL0     H26699   0.925   7.241   7.705  2.8585 -2.2486  0.5744
  939MOL0     H26700   1.031   7.405   7.856 -0.4033  1.8189 -2.5094
  939MOL0     H26701   1.121   7.246   7.847  0.6849  0.7418  2.9142
  939MOL0     H26702   1.188   7.426   8.016  0.7192 -3.1435 -0.2687
  939MOL0     H26703   1.229   7.525   7.881  0.5273 -0.9110 -2.1159
  939MOL0     H26704   1.402   7.363   7.817  0.3864  1.5188  0.5828
  939MOL0     H26705   1.338   7.236   7.930 -0.6375 -0.9690 -1.1422
  939MOL0     H26706   1.456   7.499   8.014  0.4034 -0.2701 -1.2711
  939MOL0     H26707   1.404   7.366   8.122 -0.9291  0.2104 -0.3079
  939MOL0     H26708   1.568   7.216   8.009  1.2138 -0.1600 -1.0773
  939MOL0     H26709   1.637   7.367   7.929  0.2604  0.0366  0.1487
  939MOL0     H26710   1.673   7.468   8.144  0.1570  0.1524  1.5460
  939MOL0     H26711   1.604   7.321   8.227 -1.1118 -2.6106 -1.0582
  939MOL0     H26712   1.834   7.294   8.022  1.0521  0.1312  0.4055
  939MOL0     H26713   1.796   7.183   8.154 -0.2959 -0.8282 -2.2684
  939MOL0     H26714   1.927   7.441   8.185  0.6070 -0.4125 -0.1795
  939MOL0     H26715   1.859   7.357   8.328  2.3481  1.0878  0.3125
  939MOL0     H26716   2.163   7.428   8.155 -3.2077  0.4215 -2.7752
  939MOL0     H26717   2.404   7.160   8.044 -1.0581  1.9641 -2.1017
  939MOL0     H26718   2.415   7.317   8.104  1.9288 -0.8853 -0.7135
  939MOL0     H26719   2.444   7.085   8.284 -0.6652  0.8001  1.0363
  939MOL0     H26720   2.574   7.175   8.210 -1.4108 -0.9645 -1.2162
  939MOL0     H26721   2.370   7.298   8.408  0.4958 -0.0953  0.1506
  939MOL0     H26722   2.518   7.385   8.337 -0.9023  0.2196 -0.3293
  939MOL0     H26723   2.496   7.159   8.539 -0.2259  0.3965 -0.8377
  939MOL0     H26724   2.563   7.322   8.569  0.4793 -0.1547  1.1442
  939MOL0     H26725   2.719   7.136   8.690 -0.1319 -0.1444  0.0696
  939MOL0     H26726   2.927   7.211   8.845  0.8980 -2.0651 -1.3299
  939MOL0     H26727   3.389   7.183   8.823 -2.3803  0.5841 -0.8859
  939MOL0     H26728   3.610   7.185   8.856 -1.3261 -1.1748 -1.6932
  939MOL0     H26729   3.841   7.331   8.935  1.6878 -1.3707  0.2112
  939MOL0     H26730   3.834   7.186   8.817 -0.4286 -1.4444  1.0792
  939MOL0     H26731   4.035   7.412   8.817  1.9010 -0.2924  2.3104
  939MOL0     H26732   4.068   7.261   8.907 -1.4053  1.9850  1.9015
  939MOL0     H26733   4.001   7.264   8.607 -0.9062 -1.7848  0.4288
  939MOL0     H26734   4.170   7.244   8.667 -0.1116  3.3953  3.4277
  939MOL0     H26735   3.962   7.039   8.717  1.2532  0.3324  3.2846
  939MOL0     H26736   4.139   7.027   8.728  0.4088 -2.4729 -0.9793
  939MOL0     H26737   4.015   7.085   8.458 -0.9923 -0.7794 -0.0382
  939MOL0     H26738   4.022   6.926   8.521  0.5866 -0.5207 -2.4332
  939MOL0     H26739   4.258   7.130   8.501  1.1326 -0.9877  0.4362
  939MOL0     H26740   4.285   6.968   8.555  1.0128  0.1380 -0.4011
  939MOL0     H26741   4.183   7.072   8.288 -0.0038  0.6820  1.6907
  939MOL0     H26742   4.176   6.898   8.321  4.3944 -3.3848 -0.5715
  939MOL0     H26743   4.410   6.883   8.356 -1.5962 -0.9732  0.1621
  939MOL0     H26744   4.370   6.946   8.186  1.5814  5.3564 -1.0018
  939MOL0     H26745   3.651   7.586   8.702 -0.7143 -0.9434  0.9383
  939MOL0     H26746   3.412   7.591   8.669 -1.1552 -0.7995  1.8797
  939MOL0     H26747   3.069   7.446   8.528 -1.4571  2.3513 -1.5503
  939MOL0     H26748   2.869   7.399   8.387 -1.9982  1.9167  0.5132
  939MOL0     H26749   1.223   7.449   7.478  0.0680 -1.1033  1.1086
  939MOL0     H26750   1.046   7.483   7.288 -0.3939  2.8253  1.1389
  939MOL0     H26751   0.934   7.195   6.914 -0.9257 -0.1195 -1.1148
  939MOL0     H26752   0.795   7.146   6.722 -0.4691  0.9422  0.3380
  939MOL0     H26753   0.625   7.059   6.622  0.7788  1.4538  4.1274
  939MOL0     H26754   0.622   7.217   6.538 -0.0753 -1.5825 -2.3880
  939MOL0     H26755   0.373   7.050   6.576  0.3663 -1.9694 -1.4037
  939MOL0     H26756   0.476   7.015   6.435  2.5425  0.4329 -0.6642
  939MOL0     H26757   0.439   7.256   6.369  1.9216 -1.6469 -0.7463
  939MOL0     H26758   0.326   7.265   6.507 -2.7774 -3.2467  0.5787
  939MOL0     H26759   0.179   7.103   6.414  0.8418  0.6321  1.5450
  939MOL0     H26760   0.195   7.235   6.307  2.4293  1.3687 -0.9271
  939MOL0     H26761   0.322   6.898   6.082  0.6238 -1.4435  0.7966
  939MOL0     H26762   0.458   7.313   6.911  0.0483 -0.3129  0.6959
  939MOL0     H26763   0.597   7.390   7.225  0.3017 -1.8971 -1.3157
  939MOL0     H26764   0.615   7.523   7.113 -0.0986 -0.0613 -3.0361
  939MOL0     H26765   0.470   7.433   7.106  0.8695  3.2993 -0.5945
  940MOL0     O26766   2.599   6.761   2.724  0.5164 -0.4597  0.4384
  940MOL0     C26767   2.609   6.884   2.698  0.8940  0.7772 -0.8751
  940MOL0     O26768   2.718   6.962   2.693  0.0677 -0.2341  0.0497
  940MOL0     C26769   2.840   6.899   2.722  0.6657 -0.4589  0.5242
  940MOL0     C26770   2.959   6.930   2.655  0.5292 -0.2588  1.3350
  940MOL0     C26771   3.083   6.872   2.702  0.1518  0.6477 -0.5399
  940MOL0     C26772   3.086   6.791   2.816  0.0494 -0.1815 -0.4593
  940MOL0     O26773   3.207   6.748   2.846 -0.1418 -0.0733  0.3071
  940MOL0     C26774   3.233   6.721   2.986  0.1833  0.2293 -0.4710
  940MOL0     C26775   3.386   6.739   3.012 -0.5199 -0.3440  0.3945
  940MOL0     C26776   3.456   6.876   2.974 -0.5378 -0.0415 -0.5132
  940MOL0     C26777   3.604   6.868   2.987  0.4292  0.0907 -0.2020
  940MOL0     C26778   3.674   6.979   2.909  0.3687  0.4785  0.4116
  940MOL0     C26779   3.818   6.959   2.879 -0.1029 -0.1365 -0.2688
  940MOL0     C26780   3.871   7.069   2.777 -0.4713  0.2508  0.1109
  940MOL0     C26781   4.024   7.058   2.779  0.8806  0.0698 -0.5416
  940MOL0     N26782   4.072   7.169   2.693  0.3314 -0.1448 -0.4492
  940MOL0     C26783   4.074   7.300   2.741 -0.0722 -0.4789  0.1856
  940MOL0     C26784   4.142   7.370   2.644 -0.6299 -0.1151  0.6936
  940MOL0     C26785   4.191   7.510   2.632 -0.3274  0.3147 -0.0664
  940MOL0     C26786   4.284   7.541   2.749 -0.0106  0.5108 -0.1325
  940MOL0     C26787   4.332   7.682   2.740 -0.5051  0.5226 -0.1691
  940MOL0     C26788   4.462   7.695   2.659 -0.2465 -0.4490 -0.2718
  940MOL0     O26789   4.572   7.644   2.736 -0.0968 -0.1573 -0.0971
  940MOL0     C26790   4.698   7.642   2.684 -0.3361 -0.5736  0.6447
  940MOL0     C26791   4.793   7.615   2.775  0.1672  0.0093 -0.3662
  940MOL0     C26792   4.924   7.609   2.734  0.3450  0.1369 -0.9761
  940MOL0     C26793   4.961   7.624   2.598  0.4501 -1.2492 -0.0311
  940MOL0     C26794   5.106   7.608   2.560  0.3979  0.3837 -0.2725
  940MOL0     O26795   5.189   7.587   2.666  0.2343 -0.1007 -0.2879
  940MOL0     C26796   5.322   7.593   2.665 -0.1509  0.1258 -0.4554
  940MOL0     C26797   5.406   7.591   2.551  0.6106  0.4966 -0.6981
  940MOL0     C26798   5.546   7.612   2.562  0.7494  0.6803  0.3747
  940MOL0     C26799   5.601   7.638   2.687  0.0092 -0.6607 -0.2808
  940MOL0     O26800   5.736   7.647   2.694  0.0037  0.1955  0.0501
  940MOL0     C26801   5.808   7.611   2.810  0.2503 -0.4555 -0.0783
  940MOL0     C26802   5.798   7.460   2.829  0.1535 -0.1837 -0.0132
  940MOL0     C26803   5.875   7.426   2.962 -0.9137  0.5126  0.2709
  940MOL0     C26804   6.029   7.443   2.948 -0.7795  0.4958 -1.0041
  940MOL0     C26805   6.096   7.378   3.073  0.3569  0.1296  1.2708
  940MOL0     C26806   6.248   7.374   3.062  0.1953  0.1768  0.4403
  940MOL0     C26807   6.319   7.296   3.175 -0.9216  0.4727 -0.2804
  940MOL0     C26808   6.284   7.345   3.312  0.1639  0.1819 -0.0620
  940MOL0    Cl26809   6.370   7.493   3.362 -0.3634  0.1693  0.1451
  940MOL0     C26810   5.513   7.651   2.799 -0.4047 -1.3938 -0.4501
  940MOL0     C26811   5.375   7.621   2.788  0.3703  0.1450  0.4634
  940MOL0     O26812   5.139   7.602   2.442 -0.0894 -0.4830 -0.0304
  940MOL0     C26813   4.861   7.659   2.511  0.2149  0.4537  0.8039
  940MOL0     C26814   4.730   7.674   2.551 -0.1208  0.6902  0.0038
  940MOL0     N26815   4.175   7.282   2.542 -0.7657  0.4508  0.2322
  940MOL0     N26816   4.133   7.166   2.571 -0.4800 -0.5332  0.2905
  940MOL0     C26817   2.961   6.755   2.876 -0.7670  0.0812  0.1475
  940MOL0     C26818   2.847   6.809   2.835  0.8530 -0.8595 -0.2234
  940MOL0     C26819   2.486   6.960   2.665  0.6970  0.2020  0.3827
  940MOL0     C26820   2.494   7.044   2.551  0.6677 -0.3626  0.1346
  940MOL0     C26821   2.373   7.106   2.506  0.0352 -0.3933  0.6574
  940MOL0     C26822   2.248   7.076   2.563  0.3746 -0.4133  0.5235
  940MOL0     O26823   2.130   7.140   2.522 -0.5450  0.0987  0.3713
  940MOL0     C26824   2.008   7.064   2.495 -0.0008  0.1185 -0.2797
  940MOL0     C26825   1.892   7.158   2.467  0.2135 -0.5447  0.0438
  940MOL0     C26826   1.827   7.209   2.594  0.1619 -0.4396  0.0468
  940MOL0     C26827   1.717   7.311   2.567 -0.3981 -0.2044 -0.5830
  940MOL0     C26828   1.686   7.374   2.702  0.4442 -0.0028  0.7705
  940MOL0     C26829   1.657   7.425   2.806  0.3573 -0.2998  0.3213
  940MOL0     C26830   2.244   6.997   2.675 -0.2788  0.1725 -0.3559
  940MOL0     C26831   2.363   6.933   2.731 -0.8797 -0.0306  0.2088
  940MOL0     C26832   2.359   6.857   2.860 -0.4222  0.2910  0.0941
  940MOL0     H26833   2.957   6.987   2.563  1.4003 -4.7904 -1.8429
  940MOL0     H26834   3.174   6.916   2.663 -0.3690 -0.4515 -3.2269
  940MOL0     H26835   3.183   6.796   3.048  0.3684 -0.1920  0.1960
  940MOL0     H26836   3.198   6.619   3.000  0.7952 -0.1220 -1.3842
  940MOL0     H26837   3.452   6.666   2.964 -0.6455  0.6991 -1.4663
  940MOL0     H26838   3.395   6.722   3.120  0.8508 -1.0131  0.2066
  940MOL0     H26839   3.421   6.952   3.044  1.8466  1.3739 -0.7607
  940MOL0     H26840   3.427   6.905   2.873 -0.4385  0.0929 -0.5037
  940MOL0     H26841   3.626   6.878   3.094 -0.9660  0.4401  0.0634
  940MOL0     H26842   3.643   6.771   2.956 -0.0527 -0.4197  0.7537
  940MOL0     H26843   3.641   6.985   2.805 -0.5364  2.8561  0.7900
  940MOL0     H26844   3.662   7.073   2.963 -2.2263 -0.7500  2.2203
  940MOL0     H26845   3.878   6.959   2.970 -0.1420 -1.7777 -0.2161
  940MOL0     H26846   3.833   6.863   2.830 -1.6446  0.2500 -1.6143
  940MOL0     H26847   3.840   7.170   2.808  1.8226  0.3160  2.5430
  940MOL0     H26848   3.831   7.037   2.681  1.9424  0.4511 -1.0146
  940MOL0     H26849   4.066   7.074   2.878  1.8479  2.2942 -1.2293
  940MOL0     H26850   4.058   6.963   2.739 -1.0549 -1.6384  1.6085
  940MOL0     H26851   4.033   7.342   2.832 -1.3009 -2.3948  0.5719
  940MOL0     H26852   4.253   7.518   2.543 -1.3370  1.0638 -0.7246
  940MOL0     H26853   4.122   7.593   2.613  2.0814  2.3731 -0.3519
  940MOL0     H26854   4.219   7.536   2.837  1.4997  3.7728  1.2957
  940MOL0     H26855   4.370   7.474   2.748  0.7641  1.4693  0.5905
  940MOL0     H26856   4.344   7.719   2.842  0.8303 -2.1084  0.7193
  940MOL0     H26857   4.258   7.735   2.679 -1.9064 -0.8768  0.2335
  940MOL0     H26858   4.485   7.798   2.631  1.6394  0.2209  3.1603
  940MOL0     H26859   4.455   7.631   2.571  1.7357 -1.0486 -0.0466
  940MOL0     H26860   4.769   7.597   2.880  0.0406  1.7896 -0.0520
  940MOL0     H26861   4.999   7.589   2.810  1.5318  0.2131 -2.0954
  940MOL0     H26862   5.366   7.588   2.450  2.4276 -1.7552 -1.4399
  940MOL0     H26863   5.606   7.610   2.472  0.2392  0.1127  0.0494
  940MOL0     H26864   5.915   7.629   2.796  0.3491  0.2499  1.3848
  940MOL0     H26865   5.771   7.665   2.898 -1.8560  1.8558 -2.2513
  940MOL0     H26866   5.697   7.428   2.858 -1.8219  4.4404 -0.9259
  940MOL0     H26867   5.832   7.402   2.743  2.3413  1.9097 -0.6864
  940MOL0     H26868   5.851   7.491   3.046  2.9459  1.7016  0.6205
  940MOL0     H26869   5.843   7.325   2.992 -5.2807  1.8484  0.7836
  940MOL0     H26870   6.060   7.548   2.952  1.8685 -0.2430  0.1792
  940MOL0     H26871   6.065   7.395   2.857  0.9288 -1.3307  0.5502
  940MOL0     H26872   6.076   7.270   3.078 -0.1538  0.0572 -1.1205
  940MOL0     H26873   6.068   7.438   3.160 -0.7741 -0.6519  1.4652
  940MOL0     H26874   6.268   7.320   2.969  1.5930  0.3131  0.6361
  940MOL0     H26875   6.293   7.474   3.068 -1.4703  0.8802  2.3356
  940MOL0     H26876   6.427   7.308   3.162 -0.9243  0.1624 -0.5929
  940MOL0     H26877   6.305   7.190   3.154  0.5831  0.1531  0.2129
  940MOL0     H26878   6.177   7.345   3.336 -0.2801 -1.0879 -1.8026
  940MOL0     H26879   6.330   7.274   3.382 -1.7643 -2.3954 -1.2254
  940MOL0     H26880   5.553   7.677   2.896  0.4754  0.5192 -1.2912
  940MOL0     H26881   5.314   7.623   2.878  2.2713 -0.0933  1.8248
  940MOL0     H26882   4.895   7.683   2.411 -2.6732 -1.2322 -0.6944
  940MOL0     H26883   4.658   7.710   2.478  0.5782  1.3161 -0.3884
  940MOL0     H26884   2.968   6.693   2.965 -0.7356  0.5267  0.4574
  940MOL0     H26885   2.769   6.787   2.907  2.0546 -4.1881  0.2467
  940MOL0     H26886   2.591   7.056   2.506  0.7299  0.2432  0.4222
  940MOL0     H26887   2.378   7.177   2.424  0.1454 -0.3990  0.6585
  940MOL0     H26888   1.981   6.995   2.576  0.1645  0.4985  0.1083
  940MOL0     H26889   2.027   6.995   2.413 -1.0667 -1.7749  0.9778
  940MOL0     H26890   1.815   7.116   2.402  0.0547  1.7118 -1.3619
  940MOL0     H26891   1.939   7.246   2.420 -0.2756  0.0600  0.6711
  940MOL0     H26892   1.909   7.245   2.656 -1.5368  1.5903  1.2516
  940MOL0     H26893   1.786   7.127   2.654  2.2567 -1.1416  0.5930
  940MOL0     H26894   1.749   7.392   2.501 -0.3576 -1.8343 -2.6679
  940MOL0     H26895   1.628   7.276   2.514 -0.5473  1.1231 -1.2445
  940MOL0     H26896   1.626   7.467   2.899  0.3475  0.7131 -0.1245
  940MOL0     H26897   2.160   6.969   2.738  2.7724 -2.3397  3.0813
  940MOL0     H26898   2.270   6.869   2.921  1.2561 -2.7883  3.5448
  940MOL0     H26899   2.359   6.752   2.830 -0.7851  0.2668  0.1813
  940MOL0     H26900   2.445   6.882   2.923 -0.1231  0.2391 -0.2892
  941MOL0     O26901  10.873   6.541   1.328  0.8006 -0.1725  0.5147
  941MOL0     C26902  10.772   6.526   1.400 -0.0900  0.1671  0.0958
  941MOL0     O26903  10.778   6.505   1.534 -0.2855  0.4014 -0.8563
  941MOL0     C26904  10.900   6.477   1.589  0.2214  0.4724  1.0168
  941MOL0     C26905  11.002   6.389   1.535  0.4253  0.0190 -0.2565
  941MOL0     C26906  11.125   6.373   1.593  0.0081  0.4999 -0.1762
  941MOL0     C26907  11.164   6.453   1.707 -0.4579  0.2477 -0.0012
  941MOL0     O26908  11.271   6.431   1.794  0.5512 -0.2046 -0.5025
  941MOL0     C26909  11.387   6.364   1.736  0.0807  0.6987 -0.7598
  941MOL0     C26910  11.502   6.376   1.843  1.1545  0.5036  0.3116
  941MOL0     C26911  11.639   6.341   1.784 -0.8617 -0.0295 -0.1722
  941MOL0     C26912  11.756   6.380   1.883  0.1496 -0.1103 -0.0100
  941MOL0     C26913  11.898   6.354   1.829 -0.0546  0.6020  0.3598
  941MOL0     C26914  11.988   6.383   1.950  0.2381  0.9208 -0.5968
  941MOL0     C26915  12.148   6.363   1.920  0.6237 -0.3247  0.0557
  941MOL0     C26916  12.197   6.470   1.819 -0.4614 -0.0652  0.8321
  941MOL0     N26917  12.342   6.460   1.796 -0.4478 -0.3478  0.1522
  941MOL0     C26918  12.411   6.354   1.736  0.0030  0.3550  0.4218
  941MOL0     C26919  12.538   6.389   1.747  0.0982 -0.0831 -0.0747
  941MOL0     C26920  12.651   6.315   1.677 -0.2398 -0.8785 -0.2718
  941MOL0     C26921  12.721   6.208   1.756 -0.2180  0.4890 -0.6084
  941MOL0     C26922  12.784   6.259   1.882  0.7007 -0.4765  0.1428
  941MOL0     C26923  12.881   6.376   1.859 -0.3834  0.0624  0.0122
  941MOL0     O26924  12.969   6.384   1.973 -0.0380  0.2525 -0.4399
  941MOL0     C26925  13.103   6.435   1.970 -0.3423 -0.5997  0.6979
  941MOL0     C26926  13.167   6.480   1.848  0.7800  0.3480 -0.3043
  941MOL0     C26927  13.292   6.539   1.850 -0.7753 -0.4490 -0.1649
  941MOL0     C26928  13.357   6.550   1.979  0.5457 -0.0032  0.4266
  941MOL0     C26929  13.496   6.601   1.965  0.4283  0.4587 -0.1288
  941MOL0     O26930  13.569   6.604   2.074  0.9656 -0.5773 -0.3496
  941MOL0     C26931  13.688   6.671   2.076 -0.4734 -0.0102 -0.3087
  941MOL0     C26932  13.685   6.812   2.096  0.0496  0.1468  0.5552
  941MOL0     C26933  13.810   6.880   2.102  0.3779  0.0474  0.3572
  941MOL0     C26934  13.931   6.806   2.096 -0.4413 -0.0145 -0.0750
  941MOL0     O26935  14.048   6.875   2.120  0.4983 -0.0484 -0.2583
  941MOL0     C26936  14.076   6.917   2.251 -1.0186  0.4462 -0.4589
  941MOL0     C26937  14.211   6.974   2.242 -0.2202  0.0438 -0.3708
  941MOL0     C26938  14.318   6.872   2.188  0.0197 -0.2800  1.1115
  941MOL0     C26939  14.463   6.909   2.219 -0.7719  0.8044  0.5327
  941MOL0     C26940  14.568   6.836   2.130  0.2828 -0.5202  0.1735
  941MOL0     C26941  14.701   6.909   2.161 -0.8420 -0.4822 -1.1440
  941MOL0     C26942  14.781   6.890   2.041 -1.0794  0.9054 -0.0198
  941MOL0     C26943  14.758   6.994   1.934  0.6259  0.0799 -0.3013
  941MOL0    Cl26944  14.837   6.928   1.790 -0.2238 -0.3355  0.1424
  941MOL0     C26945  13.922   6.669   2.086 -0.1075  0.4375 -0.4726
  941MOL0     C26946  13.806   6.597   2.069 -0.4004 -0.6412  1.0926
  941MOL0     O26947  13.543   6.640   1.860  0.0814 -0.8256  0.2893
  941MOL0     C26948  13.297   6.489   2.093 -0.6003 -0.4396  0.3693
  941MOL0     C26949  13.169   6.437   2.083 -0.1627  1.9752 -0.6897
  941MOL0     N26950  12.553   6.511   1.809 -0.3628  0.1511 -0.5543
  941MOL0     N26951  12.432   6.550   1.843  0.2596 -0.0494 -0.6975
  941MOL0     C26952  11.068   6.551   1.748 -0.2236 -0.2926  0.5921
  941MOL0     C26953  10.941   6.558   1.699 -0.7686 -0.7378 -0.2921
  941MOL0     C26954  10.638   6.515   1.335 -0.0244  0.1308 -0.0773
  941MOL0     C26955  10.539   6.434   1.397  0.1856 -0.1762  0.1111
  941MOL0     C26956  10.413   6.425   1.349  1.0365 -0.0781 -0.1948
  941MOL0     C26957  10.377   6.490   1.228  0.2852  0.2506  0.6526
  941MOL0     O26958  10.240   6.484   1.191 -0.2774  0.5191 -0.0432
  941MOL0     C26959  10.190   6.580   1.096  0.0880  0.5263 -0.6935
  941MOL0     C26960  10.035   6.583   1.116  0.5663  0.6602 -0.5045
  941MOL0     C26961   9.982   6.730   1.100 -0.3077 -0.6838  0.5596
  941MOL0     C26962   9.837   6.747   1.145  0.1744 -0.1598  0.5393
  941MOL0     C26963   9.754   6.648   1.082  0.3819 -0.6343 -0.0791
  941MOL0     C26964   9.669   6.592   1.008  0.2531 -0.4539  0.5917
  941MOL0     C26965  10.475   6.575   1.161  0.4356 -0.0682  0.5956
  941MOL0     C26966  10.608   6.586   1.216 -1.0921  0.1988  0.8401
  941MOL0     C26967  10.696   6.683   1.149 -0.2882  0.4400 -0.1003
  941MOL0     H26968  10.976   6.325   1.452 -1.6597 -1.1617  1.2208
  941MOL0     H26969  11.183   6.288   1.560  0.6636  1.0386 -0.4237
  941MOL0     H26970  11.366   6.260   1.709  0.5582  0.9516 -2.1541
  941MOL0     H26971  11.414   6.416   1.644 -3.2181  0.0458 -2.2691
  941MOL0     H26972  11.478   6.303   1.921  1.7962  0.1925  0.2256
  941MOL0     H26973  11.503   6.476   1.887 -0.8930 -0.4910  2.8780
  941MOL0     H26974  11.658   6.387   1.687 -0.0361  0.2894  0.1299
  941MOL0     H26975  11.660   6.235   1.768  0.3232  0.4106 -1.8459
  941MOL0     H26976  11.733   6.483   1.910 -1.1541 -0.7885  1.6078
  941MOL0     H26977  11.746   6.326   1.977  2.7300 -0.8286 -0.0675
  941MOL0     H26978  11.902   6.249   1.800 -1.9013  1.7532 -5.3531
  941MOL0     H26979  11.927   6.410   1.739 -1.7269  1.1893  0.1573
  941MOL0     H26980  11.964   6.483   1.989  0.5013 -0.3568  3.1663
  941MOL0     H26981  11.962   6.321   2.036  0.4152  0.7158 -0.6924
  941MOL0     H26982  12.166   6.259   1.891  0.3489 -0.4431  0.2977
  941MOL0     H26983  12.191   6.389   2.017  1.0148  1.7560 -0.6183
  941MOL0     H26984  12.156   6.461   1.719  3.5877  3.8006 -1.5768
  941MOL0     H26985  12.167   6.572   1.846 -3.0941  0.1229 -2.2542
  941MOL0     H26986  12.370   6.258   1.705  3.3062 -1.8284  2.2359
  941MOL0     H26987  12.615   6.253   1.594  0.4535 -3.1038  0.9969
  941MOL0     H26988  12.724   6.386   1.638 -1.6766  0.8775  0.1186
  941MOL0     H26989  12.651   6.129   1.783  3.1653 -1.9422  1.7504
  941MOL0     H26990  12.799   6.171   1.689  1.4839  1.1649  0.9310
  941MOL0     H26991  12.844   6.178   1.924  2.6466 -0.8929 -3.1183
  941MOL0     H26992  12.711   6.284   1.960 -2.7164 -2.0573 -2.2645
  941MOL0     H26993  12.824   6.469   1.851 -3.0513 -1.4024  0.5981
  941MOL0     H26994  12.928   6.359   1.762 -1.5491 -1.6848 -0.2990
  941MOL0     H26995  13.113   6.486   1.754  0.2487 -0.0348 -0.0264
  941MOL0     H26996  13.338   6.567   1.756 -0.2671  0.4120  0.3166
  941MOL0     H26997  13.594   6.871   2.092  0.3647  0.5857 -2.3339
  941MOL0     H26998  13.821   6.987   2.115  1.0640  0.5852 -3.5399
  941MOL0     H26999  14.012   6.997   2.290 -2.1609 -1.0815  0.9376
  941MOL0     H27000  14.079   6.835   2.323 -2.0736  0.1979 -0.6851
  941MOL0     H27001  14.214   7.068   2.187 -1.1596  0.9774  1.1255
  941MOL0     H27002  14.239   7.015   2.340 -2.0537  0.1545  0.1398
  941MOL0     H27003  14.299   6.782   2.248 -0.3046 -0.0644  1.3327
  941MOL0     H27004  14.303   6.841   2.084  1.1147 -0.7864  1.0815
  941MOL0     H27005  14.488   6.885   2.323 -0.0377 -4.8497 -0.6184
  941MOL0     H27006  14.475   7.014   2.194  0.6470  0.4059 -0.5524
  941MOL0     H27007  14.546   6.848   2.024  0.7817 -0.5045  0.0699
  941MOL0     H27008  14.579   6.729   2.151 -0.3666 -0.4607  0.8607
  941MOL0     H27009  14.691   7.015   2.189 -1.0296 -0.5000 -1.1391
  941MOL0     H27010  14.738   6.855   2.248 -0.6942 -0.5450 -1.2467
  941MOL0     H27011  14.750   6.793   2.001 -1.2075  0.0984  1.9527
  941MOL0     H27012  14.887   6.887   2.068 -1.0593 -1.1181 -0.2236
  941MOL0     H27013  14.655   7.007   1.900  0.0219 -3.3452 -0.0903
  941MOL0     H27014  14.800   7.093   1.954  1.4614 -0.2134 -0.5664
  941MOL0     H27015  14.018   6.621   2.099 -1.2136 -1.8245 -0.1827
  941MOL0     H27016  13.806   6.490   2.055 -0.4412 -0.8112  2.2970
  941MOL0     H27017  13.358   6.483   2.182  0.9223  1.3721 -0.4623
  941MOL0     H27018  13.120   6.388   2.167 -0.3701 -2.5312 -3.0911
  941MOL0     H27019  11.086   6.620   1.829  2.4082 -0.1212 -0.0619
  941MOL0     H27020  10.858   6.618   1.733  0.3454  0.8135 -0.2107
  941MOL0     H27021  10.559   6.388   1.493  0.6151 -1.4189 -0.5588
  941MOL0     H27022  10.333   6.374   1.403  0.5756 -1.1814 -1.8308
  941MOL0     H27023  10.213   6.542   0.996  0.7555 -1.6265  0.2135
  941MOL0     H27024  10.233   6.678   1.121  1.6801 -0.0997 -0.8431
  941MOL0     H27025  10.018   6.555   1.221 -1.5212 -1.9234 -1.4001
  941MOL0     H27026   9.985   6.506   1.056 -1.1641  0.7622  0.7290
  941MOL0     H27027  10.004   6.761   0.997  1.0931  0.9373  1.3000
  941MOL0     H27028  10.043   6.793   1.165 -1.5632  2.9308 -1.5201
  941MOL0     H27029   9.826   6.735   1.253 -2.5616 -1.2817  0.2061
  941MOL0     H27030   9.813   6.848   1.113  0.7293 -0.1010  0.2874
  941MOL0     H27031   9.592   6.540   0.954 -2.3550  1.0570  2.5917
  941MOL0     H27032  10.445   6.623   1.068  4.4245 -1.2835 -1.5812
  941MOL0     H27033  10.782   6.631   1.105 -1.2614 -2.2224  0.9865
  941MOL0     H27034  10.656   6.738   1.063  3.1135 -0.2730 -2.3685
  941MOL0     H27035  10.734   6.760   1.217 -0.2197  0.8192 -0.5602
  942MOL0     O27036   6.809  10.039   1.381  0.3489  0.0723 -0.3278
  942MOL0     C27037   6.789   9.937   1.447 -0.7651  0.2305  0.3317
  942MOL0     O27038   6.887   9.845   1.482  0.5295  0.2342 -0.2353
  942MOL0     C27039   7.013   9.843   1.421 -0.9866  0.1306  0.3624
  942MOL0     C27040   7.125   9.802   1.504 -0.3427 -0.0301 -0.3574
  942MOL0     C27041   7.247   9.795   1.447 -0.2747  0.7770  0.5862
  942MOL0     C27042   7.268   9.820   1.310 -0.0922 -0.2976  0.1387
  942MOL0     O27043   7.401   9.826   1.269 -0.1483  0.0236  0.5092
  942MOL0     C27044   7.436   9.752   1.149  0.0313 -0.8646 -0.4911
  942MOL0     C27045   7.579   9.695   1.160  0.4193  0.1242  1.1167
  942MOL0     C27046   7.686   9.791   1.131 -0.4929 -0.0875 -0.3780
  942MOL0     C27047   7.815   9.725   1.131  0.2601  0.3589  0.5117
  942MOL0     C27048   7.926   9.829   1.126  0.4423  0.5061 -0.2165
  942MOL0     C27049   8.059   9.762   1.144 -0.0548  0.1334 -0.6891
  942MOL0     C27050   8.175   9.859   1.126  0.0234 -0.3042 -0.8987
  942MOL0     C27051   8.307   9.796   1.172  0.1876 -0.6210  0.2570
  942MOL0     N27052   8.428   9.855   1.112 -0.0168  0.6566 -0.4557
  942MOL0     C27053   8.466   9.987   1.085 -0.6698 -0.7814 -0.1977
  942MOL0     C27054   8.599   9.980   1.045  0.1032  0.4282 -0.5633
  942MOL0     C27055   8.676  10.098   0.995  0.0245 -0.2942  0.1131
  942MOL0     C27056   8.797  10.124   1.084  0.1482 -0.1081 -0.5189
  942MOL0     C27057   8.896  10.213   1.007 -0.8167  0.7988  0.6738
  942MOL0     C27058   8.986  10.275   1.117 -0.2800 -0.5210 -0.2324
  942MOL0     O27059   9.085  10.366   1.073  0.3355 -0.0460  0.3482
  942MOL0     C27060   9.207  10.331   1.019  0.2045  0.0748 -0.7924
  942MOL0     C27061   9.261  10.205   1.014  0.6791  0.1477 -0.3950
  942MOL0     C27062   9.399  10.184   0.974  1.0194  0.4067  0.6670
  942MOL0     C27063   9.484  10.294   0.951  0.1473 -0.5160 -0.4848
  942MOL0     C27064   9.619  10.291   0.891 -0.9879  0.3523  0.0877
  942MOL0     O27065   9.663  10.165   0.878  0.5225 -0.0048 -0.1438
  942MOL0     C27066   9.783  10.143   0.811  0.5277 -0.4022 -0.3118
  942MOL0     C27067   9.899  10.142   0.884 -0.7588  0.8905 -0.9060
  942MOL0     C27068  10.030  10.140   0.824  0.1510 -0.4531  0.9033
  942MOL0     C27069  10.040  10.156   0.681 -0.1359 -0.5139 -0.2263
  942MOL0     O27070  10.161  10.155   0.607  1.1108  0.1554 -0.2332
  942MOL0     C27071  10.191  10.262   0.516  0.1564  0.6109 -0.5685
  942MOL0     C27072  10.328  10.240   0.445  0.1296  0.0713 -0.3433
  942MOL0     C27073  10.330  10.351   0.335  0.3297  0.6233 -0.2608
  942MOL0     C27074  10.439  10.315   0.233  1.0947 -0.2013 -0.1134
  942MOL0     C27075  10.458  10.432   0.128 -0.4634  0.3696 -0.4034
  942MOL0     C27076  10.341  10.445   0.024 -1.0188 -0.0454 -0.0360
  942MOL0     C27077  10.342  10.585  -0.032 -0.2858  0.0292 -0.0515
  942MOL0     C27078  10.232  10.614  -0.122 -0.4851  0.4944 -0.3481
  942MOL0    Cl27079  10.071  10.623  -0.050 -0.6202  0.0181 -0.0026
  942MOL0     C27080   9.918  10.168   0.617  0.0383 -0.4851  0.5159
  942MOL0     C27081   9.793  10.154   0.676  0.7530 -0.5031 -0.9880
  942MOL0     O27082   9.666  10.389   0.829  0.1754  0.7959 -0.0544
  942MOL0     C27083   9.425  10.429   0.970  0.4125  0.2740  0.0663
  942MOL0     C27084   9.294  10.441   1.011 -0.8603 -0.2930  0.7058
  942MOL0     N27085   8.629   9.850   1.035 -0.7934 -0.4656  0.4702
  942MOL0     N27086   8.537   9.771   1.077  0.6742 -0.9753  0.1195
  942MOL0     C27087   7.166   9.858   1.230  0.8493  0.0526  0.1979
  942MOL0     C27088   7.036   9.877   1.288  0.4103 -0.0246  0.3292
  942MOL0     C27089   6.653   9.898   1.476  0.7336  0.0437  0.3813
  942MOL0     C27090   6.558   9.919   1.371  0.2490 -0.3884 -0.4205
  942MOL0     C27091   6.422   9.903   1.398 -0.3033  0.9129 -0.5557
  942MOL0     C27092   6.380   9.842   1.518 -0.3305  0.1853  0.3559
  942MOL0     O27093   6.246   9.826   1.526 -0.2761  0.2598  0.0023
  942MOL0     C27094   6.188   9.785   1.648 -0.1713 -0.5292 -0.1354
  942MOL0     C27095   6.044   9.762   1.634  0.2138  0.0768  0.2714
  942MOL0     C27096   6.013   9.647   1.546 -0.1287  0.3334  0.6312
  942MOL0     C27097   5.868   9.630   1.524  0.0236  0.2690  1.2908
  942MOL0     C27098   5.804   9.746   1.447  0.0293  0.3536  0.2746
  942MOL0     C27099   5.746   9.828   1.381 -0.9833 -0.1483  0.4432
  942MOL0     C27100   6.473   9.820   1.623  0.1294  0.0624 -0.2692
  942MOL0     C27101   6.611   9.846   1.600  0.2864 -0.3124 -0.1734
  942MOL0     C27102   6.708   9.812   1.709 -0.3650  0.0402 -0.4585
  942MOL0     H27103   7.108   9.788   1.610 -0.1466  0.7373 -0.2187
  942MOL0     H27104   7.324   9.752   1.511  2.2082  0.9838 -2.0535
  942MOL0     H27105   7.360   9.673   1.142 -2.5698  1.4434 -0.0542
  942MOL0     H27106   7.428   9.824   1.068 -0.2947  0.1203  0.4005
  942MOL0     H27107   7.594   9.605   1.100 -0.6417  1.2294 -0.9080
  942MOL0     H27108   7.580   9.662   1.265 -3.6429 -0.0129  1.2980
  942MOL0     H27109   7.678   9.861   1.215 -2.0948 -0.8143  0.1156
  942MOL0     H27110   7.677   9.832   1.030  1.7400 -1.1425 -1.0580
  942MOL0     H27111   7.826   9.664   1.221 -2.4496  0.0002  0.6779
  942MOL0     H27112   7.824   9.656   1.046  1.8164  3.2488 -1.8758
  942MOL0     H27113   7.921   9.886   1.033  1.0726 -2.5098 -2.2406
  942MOL0     H27114   7.913   9.902   1.206  5.4565  0.0363  1.3722
  942MOL0     H27115   8.073   9.716   1.242 -0.5943  1.1575 -0.1091
  942MOL0     H27116   8.071   9.683   1.069 -3.2112 -0.1954 -0.9869
  942MOL0     H27117   8.153   9.951   1.180 -1.0964 -1.9943  1.7037
  942MOL0     H27118   8.188   9.896   1.024  0.7764  1.2153 -0.2879
  942MOL0     H27119   8.304   9.805   1.281  0.0126  0.0298  0.2022
  942MOL0     H27120   8.311   9.687   1.164 -1.0789 -0.5788 -1.4674
  942MOL0     H27121   8.403  10.075   1.082  0.0452 -0.1167  1.9332
  942MOL0     H27122   8.716  10.081   0.895 -1.3359  2.5411 -1.0230
  942MOL0     H27123   8.617  10.190   0.983 -1.6230 -1.5458 -2.0043
  942MOL0     H27124   8.759  10.174   1.174  0.5167  1.8986 -1.4079
  942MOL0     H27125   8.857  10.037   1.112  2.3769  1.2191 -0.9499
  942MOL0     H27126   8.851  10.283   0.936 -2.4582 -0.4306  0.4470
  942MOL0     H27127   8.961  10.143   0.953 -0.5481  0.0936  1.8672
  942MOL0     H27128   9.038  10.198   1.175 -1.6656 -0.0114  1.8098
  942MOL0     H27129   8.924  10.339   1.181  0.1084 -0.5229  0.1487
  942MOL0     H27130   9.208  10.111   1.031 -1.5823  1.5559  0.8200
  942MOL0     H27131   9.445  10.086   0.967  2.2444  0.8436  2.0356
  942MOL0     H27132   9.902  10.143   0.992  0.7945 -0.6035 -0.8992
  942MOL0     H27133  10.118  10.118   0.884  0.0848  0.0978  1.2126
  942MOL0     H27134  10.104  10.278   0.451 -0.5598  0.0164  0.2214
  942MOL0     H27135  10.209  10.353   0.575 -3.5722  1.0856  0.0912
  942MOL0     H27136  10.416  10.240   0.511 -0.3012  2.2373  0.3101
  942MOL0     H27137  10.327  10.139   0.403  0.8291 -0.1108  0.0697
  942MOL0     H27138  10.230  10.367   0.294  0.4601  2.9207  0.2197
  942MOL0     H27139  10.361  10.447   0.375 -0.2366  0.0174  1.7674
  942MOL0     H27140  10.409  10.227   0.175  2.6368 -2.2921  2.0443
  942MOL0     H27141  10.529  10.299   0.294  1.2298  1.7145  0.2567
  942MOL0     H27142  10.547  10.417   0.067 -0.1911  0.2929  0.0119
  942MOL0     H27143  10.484  10.525   0.180 -0.4356 -0.4464  1.1163
  942MOL0     H27144  10.362  10.374  -0.056  2.6334 -0.2567  0.9168
  942MOL0     H27145  10.255  10.413   0.083 -1.7402 -0.4816 -1.2987
  942MOL0     H27146  10.437  10.601  -0.082  0.6897 -0.7453  1.4755
  942MOL0     H27147  10.346  10.654   0.053 -1.8182  0.4381 -0.2712
  942MOL0     H27148  10.255  10.711  -0.166 -1.2924  0.3677 -1.0796
  942MOL0     H27149  10.225  10.539  -0.201 -0.6520 -0.4311  0.5101
  942MOL0     H27150   9.917  10.164   0.509  0.5855 -2.1306  0.5601
  942MOL0     H27151   9.704  10.155   0.615  0.9430  0.8458 -1.2648
  942MOL0     H27152   9.480  10.517   0.939 -0.6953  1.0475  0.2393
  942MOL0     H27153   9.243  10.536   1.006  1.5099  0.9670 -2.1379
  942MOL0     H27154   7.196   9.873   1.127  2.2624  0.1099  0.5886
  942MOL0     H27155   6.954   9.912   1.225  0.5735  1.2865  0.8105
  942MOL0     H27156   6.597   9.972   1.285  2.4393  1.1520  1.4062
  942MOL0     H27157   6.356   9.929   1.316 -0.2492  0.5439 -0.7197
  942MOL0     H27158   6.186   9.866   1.722 -1.4971 -1.2513  0.6640
  942MOL0     H27159   6.237   9.696   1.687  0.0297 -0.0603  0.7059
  942MOL0     H27160   5.995   9.853   1.599  1.2199  0.7576  0.5958
  942MOL0     H27161   6.004   9.734   1.732 -3.0943 -1.6067 -1.3957
  942MOL0     H27162   6.063   9.560   1.589 -2.1888  0.4180  3.5475
  942MOL0     H27163   6.047   9.678   1.447 -0.7351  2.4490  1.0211
  942MOL0     H27164   5.862   9.532   1.475  0.4419 -0.6121  2.9447
  942MOL0     H27165   5.816   9.624   1.620 -4.0656  0.6308 -0.6881
  942MOL0     H27166   5.697   9.893   1.312 -0.0039  1.6223  1.3267
  942MOL0     H27167   6.438   9.779   1.718 -1.9197 -2.6633 -2.0238
  942MOL0     H27168   6.740   9.708   1.699 -2.2291 -0.8302  1.6724
  942MOL0     H27169   6.790   9.884   1.717 -0.3669 -0.0935  0.9546
  942MOL0     H27170   6.649   9.800   1.801 -0.5856 -2.5445 -0.8551
  943MOL0     O27171   7.318   0.317   4.633 -0.4256  0.0113  0.2634
  943MOL0     C27172   7.265   0.217   4.582 -0.5652  0.7171 -0.5998
  943MOL0     O27173   7.329   0.100   4.563  0.5352  0.1645 -0.5469
  943MOL0     C27174   7.460   0.097   4.600 -0.4558  0.4619  0.1337
  943MOL0     C27175   7.507   0.113   4.726 -0.6882  0.7966 -0.3658
  943MOL0     C27176   7.646   0.090   4.753  0.2008  0.4816 -0.6182
  943MOL0     C27177   7.737   0.048   4.653  0.0719  0.1281 -0.1554
  943MOL0     O27178   7.867   0.067   4.674  0.1831  0.2873  0.5426
  943MOL0     C27179   7.912   0.192   4.636  0.1703  0.2189 -0.2971
  943MOL0     C27180   8.069   0.185   4.666 -0.1232  0.2384 -0.0457
  943MOL0     C27181   8.114   0.332   4.676  0.2634  0.6814  0.2218
  943MOL0     C27182   8.266   0.345   4.698 -0.3555 -1.2119  0.8704
  943MOL0     C27183   8.301   0.500   4.720 -0.1740  0.2072 -0.1299
  943MOL0     C27184   8.455   0.510   4.728  0.3827 -0.2404  0.2653
  943MOL0     C27185   8.521   0.654   4.739  0.4783  0.3372 -0.5332
  943MOL0     C27186   8.485   0.769   4.643 -0.6343  0.7861  0.3690
  943MOL0     N27187   8.587   0.875   4.663  0.2174  0.2655 -0.1622
  943MOL0     C27188   8.587   0.960   4.767  0.1167 -0.5690  0.4538
  943MOL0     C27189   8.694   1.041   4.741 -0.2424  0.2496 -0.1082
  943MOL0     C27190   8.723   1.146   4.845 -0.5141 -0.2958 -0.2887
  943MOL0     C27191   8.786   1.076   4.970  0.4356 -0.9781  1.0764
  943MOL0     C27192   8.820   1.181   5.074 -0.1124 -0.9713  0.8123
  943MOL0     C27193   8.969   1.221   5.076  0.3482 -0.7876  0.2074
  943MOL0     O27194   9.056   1.109   5.087 -0.1325  0.2177 -0.3754
  943MOL0     C27195   9.181   1.142   5.126 -0.5847  0.3072 -0.6899
  943MOL0     C27196   9.247   1.263   5.109 -0.6259 -0.0236 -0.9191
  943MOL0     C27197   9.385   1.274   5.147 -0.1171 -0.3140  0.4699
  943MOL0     C27198   9.456   1.177   5.213  0.0871 -0.0825  0.2319
  943MOL0     C27199   9.594   1.203   5.258  0.2899 -0.7470 -0.8658
  943MOL0     O27200   9.665   1.087   5.287  0.3103  0.7674 -0.8103
  943MOL0     C27201   9.798   1.099   5.291 -0.1129  0.8208 -0.3007
  943MOL0     C27202   9.868   1.148   5.408  0.4071 -0.4455 -1.3573
  943MOL0     C27203  10.008   1.144   5.404  0.1663 -0.8646  0.3984
  943MOL0     C27204  10.084   1.095   5.295  0.8626 -0.4621  0.5981
  943MOL0     O27205  10.220   1.096   5.325  0.4701  0.2704 -0.3318
  943MOL0     C27206  10.304   1.067   5.209  0.5714 -0.5715 -0.3425
  943MOL0     C27207  10.454   1.075   5.232 -0.0960 -0.9343 -0.4155
  943MOL0     C27208  10.504   1.211   5.277  0.0721 -0.6454  0.5650
  943MOL0     C27209  10.652   1.231   5.296 -0.1924 -0.7079  0.4336
  943MOL0     C27210  10.688   1.372   5.352 -0.2745  0.5628 -0.7723
  943MOL0     C27211  10.842   1.389   5.348  0.4885  0.0513  0.0475
  943MOL0     C27212  10.871   1.501   5.443 -0.1193 -0.4429 -0.4001
  943MOL0     C27213  11.014   1.516   5.487 -0.2701 -0.0166  0.4743
  943MOL0    Cl27214  11.046   1.682   5.562  0.0227  0.2760 -0.1675
  943MOL0     C27215  10.013   1.057   5.181  0.1016 -0.2541  0.1526
  943MOL0     C27216   9.873   1.059   5.187  0.4735 -0.1386 -0.3722
  943MOL0     O27217   9.647   1.313   5.251 -0.2241  0.1730  0.0553
  943MOL0     C27218   9.390   1.051   5.224 -0.0158  0.2738 -0.0074
  943MOL0     C27219   9.259   1.034   5.168 -0.7713 -0.1916 -0.5210
  943MOL0     N27220   8.762   0.988   4.632  0.0166 -0.0764 -0.1736
  943MOL0     N27221   8.692   0.891   4.583  0.5812 -0.1274  0.3239
  943MOL0     C27222   7.687   0.024   4.523  0.2929 -0.1792  0.0442
  943MOL0     C27223   7.548   0.035   4.506  0.5365  1.0355  0.7575
  943MOL0     C27224   7.139   0.232   4.519 -0.5214  0.1132  0.0918
  943MOL0     C27225   7.106   0.132   4.413 -0.4876 -0.4237 -0.6942
  943MOL0     C27226   6.977   0.129   4.361 -0.1075  1.0043 -0.5026
  943MOL0     C27227   6.886   0.225   4.407 -0.1662  0.7040  0.2184
  943MOL0     O27228   6.758   0.236   4.350  0.2240 -0.2800  0.6503
  943MOL0     C27229   6.702   0.129   4.280 -0.1444 -0.5631  0.1855
  943MOL0     C27230   6.556   0.171   4.257  0.4917 -0.2285  0.9272
  943MOL0     C27231   6.473   0.037   4.276 -0.1550 -0.3018  0.1543
  943MOL0     C27232   6.506  -0.073   4.180 -0.9146 -0.2976 -0.2840
  943MOL0     C27233   6.485  -0.036   4.043 -0.8334 -0.4215 -0.8306
  943MOL0     C27234   6.484  -0.011   3.929 -1.2849 -0.0905  0.1914
  943MOL0     C27235   6.918   0.321   4.494  0.2380 -0.1545 -0.5728
  943MOL0     C27236   7.041   0.329   4.557 -0.6628  0.0022  0.4933
  943MOL0     C27237   7.054   0.449   4.654 -0.2432  0.0688  0.2508
  943MOL0     H27238   7.443   0.158   4.802 -0.9250  0.8444 -0.5931
  943MOL0     H27239   7.686   0.120   4.850 -0.7893 -1.9902  0.6266
  943MOL0     H27240   7.889   0.214   4.532 -2.1119  0.2017  0.1528
  943MOL0     H27241   7.853   0.260   4.697 -3.7059 -2.9304 -0.1603
  943MOL0     H27242   8.113   0.137   4.578 -0.1053  0.9647 -0.4418
  943MOL0     H27243   8.083   0.128   4.758  0.7283 -0.8276 -0.8012
  943MOL0     H27244   8.048   0.384   4.747 -0.4649 -0.9801  0.8143
  943MOL0     H27245   8.072   0.383   4.589  0.4000  0.9157  0.2916
  943MOL0     H27246   8.292   0.285   4.786 -1.2605 -2.1158  0.5449
  943MOL0     H27247   8.331   0.311   4.617  0.8541  0.9223  0.8962
  943MOL0     H27248   8.268   0.544   4.626  1.4455  0.4102 -0.6354
  943MOL0     H27249   8.244   0.543   4.802 -1.5807  1.4951 -1.7131
  943MOL0     H27250   8.492   0.447   4.809 -1.1583 -1.6974 -0.1287
  943MOL0     H27251   8.491   0.477   4.631  0.6081  2.2924 -0.6035
  943MOL0     H27252   8.628   0.630   4.736  0.5154  0.5104 -0.6037
  943MOL0     H27253   8.498   0.703   4.834 -2.2252 -3.4852  1.0282
  943MOL0     H27254   8.479   0.743   4.537 -1.8401  2.1636  0.0750
  943MOL0     H27255   8.391   0.819   4.666 -0.5403  0.2179  2.1548
  943MOL0     H27256   8.523   0.964   4.854 -1.1033 -0.0111 -0.4464
  943MOL0     H27257   8.793   1.221   4.806 -0.2246  0.2500  1.2108
  943MOL0     H27258   8.625   1.193   4.860 -3.2819 -3.9687 -4.3149
  943MOL0     H27259   8.725   0.992   5.004  1.3819 -2.1148  0.1081
  943MOL0     H27260   8.870   1.017   4.930 -0.7014  0.2444 -3.8603
  943MOL0     H27261   8.798   1.145   5.174  0.0352 -0.9189  0.8646
  943MOL0     H27262   8.758   1.267   5.051  2.2324  0.0643 -2.3511
  943MOL0     H27263   8.988   1.291   5.157 -4.9547  2.9412 -1.2206
  943MOL0     H27264   8.989   1.268   4.979  0.7779  1.0935  1.1619
  943MOL0     H27265   9.202   1.357   5.079  0.8616 -0.1152 -3.7176
  943MOL0     H27266   9.431   1.368   5.119  1.1318 -0.8770  0.6039
  943MOL0     H27267   9.812   1.194   5.489  1.0567  2.7037 -2.5441
  943MOL0     H27268  10.062   1.179   5.491 -0.9381  3.0336 -0.2858
  943MOL0     H27269  10.279   0.965   5.177 -0.4142 -0.8638  1.2868
  943MOL0     H27270  10.275   1.133   5.127 -1.1192 -0.4162  0.3551
  943MOL0     H27271  10.480   0.995   5.302  2.6143  0.9400  0.9187
  943MOL0     H27272  10.499   1.049   5.136  3.3704 -0.6315  0.9906
  943MOL0     H27273  10.470   1.272   5.193 -2.5717 -2.9806 -0.2194
  943MOL0     H27274  10.450   1.233   5.369 -0.9189 -2.5207  0.4945
  943MOL0     H27275  10.712   1.209   5.206 -2.6359 -0.5321 -1.3270
  943MOL0     H27276  10.681   1.149   5.363  2.8607  0.8395  1.1993
  943MOL0     H27277  10.651   1.390   5.453  1.2572 -0.8591  0.0794
  943MOL0     H27278  10.648   1.453   5.290 -0.2908  1.4327  0.3420
  943MOL0     H27279  10.893   1.298   5.383 -0.6407  0.5700  3.4413
  943MOL0     H27280  10.866   1.416   5.245  0.1319 -2.2036 -0.6848
  943MOL0     H27281  10.814   1.486   5.535  0.7382  1.4005  0.4835
  943MOL0     H27282  10.842   1.596   5.398 -2.0196 -0.1589  1.3057
  943MOL0     H27283  11.059   1.428   5.534 -0.4615  0.1550  0.9797
  943MOL0     H27284  11.059   1.525   5.387 -1.2789  0.3383  0.0410
  943MOL0     H27285  10.068   1.025   5.094 -0.5436 -0.2274 -0.2708
  943MOL0     H27286   9.827   1.014   5.099  0.4486 -0.4974 -0.1795
  943MOL0     H27287   9.451   0.972   5.266  0.0963 -1.3381 -2.9923
  943MOL0     H27288   9.221   0.933   5.177 -0.0960 -0.3114  1.4192
  943MOL0     H27289   7.751  -0.012   4.443 -2.7035 -1.1733 -2.0737
  943MOL0     H27290   7.494   0.007   4.416  3.3325  0.0765 -0.7282
  943MOL0     H27291   7.166   0.045   4.389  0.9753 -0.0337  1.2999
  943MOL0     H27292   6.956   0.044   4.297 -0.4325  1.0609 -0.4727
  943MOL0     H27293   6.714   0.036   4.336  0.8552  0.1279  1.1847
  943MOL0     H27294   6.756   0.119   4.185 -1.6588  1.2583 -0.9420
  943MOL0     H27295   6.547   0.218   4.159  1.8800  3.6307  2.4638
  943MOL0     H27296   6.519   0.239   4.335  2.3888  0.4580  1.2809
  943MOL0     H27297   6.367   0.060   4.264 -0.1627  0.7548  2.0574
  943MOL0     H27298   6.497   0.009   4.379  1.9274  0.7460 -0.0086
  943MOL0     H27299   6.608  -0.113   4.191 -1.4892 -1.6924  0.1828
  943MOL0     H27300   6.446  -0.163   4.196  2.0790 -2.2495  1.0100
  943MOL0     H27301   6.469   0.002   3.824 -2.9262 -0.4366  0.3466
  943MOL0     H27302   6.841   0.395   4.512  0.9627 -0.0025  2.3448
  943MOL0     H27303   7.057   0.402   4.753  1.7107 -0.9997 -0.2550
  943MOL0     H27304   7.148   0.499   4.628 -0.7228  0.7064 -0.2795
  943MOL0     H27305   6.969   0.517   4.651  0.5051  0.9984 -0.7326
  944MOL0     O27306   5.024   7.715  11.041 -0.2256 -0.0603 -0.7423
  944MOL0     C27307   4.995   7.720  11.162 -0.2817  0.0213  0.3268
  944MOL0     O27308   5.078   7.697  11.265 -0.6471 -0.2243 -0.2769
  944MOL0     C27309   5.224   7.692  11.260  0.5836 -0.5520  0.2800
  944MOL0     C27310   5.296   7.735  11.144  0.5379 -0.1457 -0.7684
  944MOL0     C27311   5.438   7.738  11.137  0.6094  0.0028  0.5357
  944MOL0     C27312   5.503   7.696  11.248 -0.6973  0.5776 -0.2578
  944MOL0     O27313   5.638   7.677  11.260  0.2518 -0.3108  0.2068
  944MOL0     C27314   5.719   7.685  11.142 -0.2838  0.2935 -0.5537
  944MOL0     C27315   5.865   7.637  11.174 -0.3230  0.0130 -0.0246
  944MOL0     C27316   5.950   7.743  11.245 -0.4641  0.0386 -0.4691
  944MOL0     C27317   6.067   7.686  11.339  0.8904 -0.3987 -0.0422
  944MOL0     C27318   6.171   7.790  11.387  0.4350  0.0998  0.1279
  944MOL0     C27319   6.244   7.844  11.262 -0.6202  0.1463 -0.0120
  944MOL0     C27320   6.371   7.910  11.302 -0.3064  0.2819 -0.3515
  944MOL0     C27321   6.356   8.039  11.388 -0.1040  0.0008 -0.2724
  944MOL0     N27322   6.492   8.068  11.442  0.0576 -0.8114 -0.1755
  944MOL0     C27323   6.549   7.995  11.546 -0.5647 -0.7558 -0.3268
  944MOL0     C27324   6.680   8.048  11.553 -0.2712  0.1545  0.5091
  944MOL0     C27325   6.778   7.993  11.650  0.2783 -0.5627 -0.2711
  944MOL0     C27326   6.898   7.919  11.590  0.0241  0.0295 -0.0888
  944MOL0     C27327   6.971   7.982  11.474  0.1635 -0.5644  0.1725
  944MOL0     C27328   7.120   7.931  11.466  0.9438 -0.9146  0.3479
  944MOL0     O27329   7.196   7.984  11.581  0.3432  0.6687  0.0960
  944MOL0     C27330   7.297   7.908  11.639  0.7624  0.8559  0.6455
  944MOL0     C27331   7.368   7.969  11.740 -0.3570 -0.3100 -0.4187
  944MOL0     C27332   7.474   7.908  11.804 -0.5066  0.5737 -0.3080
  944MOL0     C27333   7.518   7.777  11.759 -0.2089 -0.7945  0.0967
  944MOL0     C27334   7.615   7.700  11.835 -0.1068  0.5647  0.1693
  944MOL0     O27335   7.703   7.632  11.764 -0.7092  0.0524  0.1969
  944MOL0     C27336   7.809   7.579  11.834  0.6015 -0.1825  0.1383
  944MOL0     C27337   7.794   7.464  11.915  0.9220 -0.0548  0.0836
  944MOL0     C27338   7.897   7.418  11.992  0.4427 -0.0088 -0.0467
  944MOL0     C27339   8.021   7.479  11.977 -0.4234  0.8818 -0.0319
  944MOL0     O27340   8.115   7.443  12.068  0.0698 -1.2006  0.3266
  944MOL0     C27341   8.252   7.426  12.018 -0.3659  0.3165  0.0007
  944MOL0     C27342   8.337   7.428  12.143 -0.2956 -0.1143  0.6879
  944MOL0     C27343   8.484   7.396  12.105 -0.1874 -0.9114  0.6747
  944MOL0     C27344   8.564   7.336  12.225 -0.1967 -0.2366 -0.3787
  944MOL0     C27345   8.701   7.330  12.184  0.8076  0.2811  0.4598
  944MOL0     C27346   8.786   7.263  12.298 -0.4164 -0.0851  0.1304
  944MOL0     C27347   8.795   7.349  12.429 -0.0457  0.3808  0.4016
  944MOL0     C27348   8.916   7.322  12.506  0.9920 -0.1906  0.0902
  944MOL0    Cl27349   8.928   7.143  12.558  0.6060 -0.0602 -0.2927
  944MOL0     C27350   8.044   7.569  11.878 -0.5371 -0.6540  0.2670
  944MOL0     C27351   7.941   7.610  11.797  0.7424 -0.3319  0.0181
  944MOL0     O27352   7.619   7.729  11.959 -0.3157 -0.2146 -0.0219
  944MOL0     C27353   7.461   7.719  11.641  0.8187 -0.5806 -0.6448
  944MOL0     C27354   7.357   7.796  11.581 -0.3323 -0.2019  0.1026
  944MOL0     N27355   6.702   8.140  11.457 -0.0461 -0.6472  0.0179
  944MOL0     N27356   6.593   8.148  11.383 -0.4521 -0.2265 -0.4619
  944MOL0     C27357   5.434   7.653  11.362 -0.4480 -0.1276  0.3415
  944MOL0     C27358   5.297   7.644  11.369 -0.4546 -0.2790  0.0948
  944MOL0     C27359   4.848   7.749  11.194  0.7432  0.0775 -0.2318
  944MOL0     C27360   4.809   7.873  11.242 -0.2517 -0.0756  0.1008
  944MOL0     C27361   4.679   7.907  11.264 -0.2474 -0.3729 -0.2430
  944MOL0     C27362   4.582   7.811  11.242 -0.5029 -0.5546  0.5163
  944MOL0     O27363   4.452   7.856  11.270 -0.1325 -0.2252 -0.5630
  944MOL0     C27364   4.363   7.849  11.163 -0.2688 -0.6120  0.1879
  944MOL0     C27365   4.251   7.952  11.176 -0.6056 -0.3764 -0.1563
  944MOL0     C27366   4.177   7.934  11.305 -0.3391 -0.6375 -0.2908
  944MOL0     C27367   4.029   7.967  11.278  0.8789  0.2973 -1.0582
  944MOL0     C27368   3.998   8.111  11.262 -0.4415 -0.1917  0.5693
  944MOL0     C27369   3.934   8.209  11.240  0.4199 -0.0267 -0.4593
  944MOL0     C27370   4.618   7.679  11.202  0.9169  0.3870  0.2090
  944MOL0     C27371   4.748   7.651  11.165 -0.2681 -0.4444 -0.3432
  944MOL0     C27372   4.773   7.513  11.121  0.3261  0.4226  0.1840
  944MOL0     H27373   5.245   7.747  11.049 -3.1107  0.2805  1.0475
  944MOL0     H27374   5.478   7.758  11.038 -2.3804 -0.1395 -0.8289
  944MOL0     H27375   5.674   7.617  11.069 -3.2427  3.0351 -1.4835
  944MOL0     H27376   5.722   7.786  11.101  1.8487  2.2503  3.7730
  944MOL0     H27377   5.917   7.620  11.079 -1.7721  2.2015 -1.2807
  944MOL0     H27378   5.871   7.548  11.239  3.2160 -0.7320 -1.1709
  944MOL0     H27379   5.880   7.796  11.311  0.4576  1.0986 -0.3079
  944MOL0     H27380   5.996   7.816  11.178 -1.2598  0.6170 -0.4027
  944MOL0     H27381   6.019   7.651  11.431  1.2717  0.6341  0.5604
  944MOL0     H27382   6.117   7.599  11.294 -1.0191 -0.8018 -1.5216
  944MOL0     H27383   6.119   7.874  11.434 -1.3881 -0.0834 -1.4541
  944MOL0     H27384   6.233   7.746  11.465  0.7129 -0.1746 -0.2399
  944MOL0     H27385   6.275   7.764  11.194  2.4672  0.1529  1.2336
  944MOL0     H27386   6.191   7.919  11.202 -2.1719 -1.0656 -0.2090
  944MOL0     H27387   6.410   7.933  11.203 -0.8565 -3.6593 -1.6528
  944MOL0     H27388   6.433   7.832  11.347 -0.7124  0.6692  0.9376
  944MOL0     H27389   6.320   8.127  11.334 -0.5984  0.3901  0.6655
  944MOL0     H27390   6.288   8.023  11.473 -3.2134  1.2596 -2.3295
  944MOL0     H27391   6.512   7.905  11.594 -3.3845 -1.8448 -4.0984
  944MOL0     H27392   6.800   8.076  11.717  0.2688 -0.1485 -0.7723
  944MOL0     H27393   6.722   7.928  11.718 -0.1391  1.5685  1.5488
  944MOL0     H27394   6.974   7.897  11.665  1.5444  1.9338 -0.9975
  944MOL0     H27395   6.864   7.825  11.547  0.7216  0.2480 -1.1424
  944MOL0     H27396   6.967   8.090  11.489  1.2684 -0.0711 -2.4951
  944MOL0     H27397   6.923   7.962  11.378 -1.6340  0.1822  0.8716
  944MOL0     H27398   7.164   7.968  11.374  2.1899  0.0804  1.3144
  944MOL0     H27399   7.108   7.822  11.461  0.0266 -0.8068 -0.0364
  944MOL0     H27400   7.329   8.068  11.761  0.4006 -0.2265  0.6751
  944MOL0     H27401   7.533   7.961  11.878 -0.6084 -1.2356  1.1487
  944MOL0     H27402   7.692   7.430  11.933  1.0951 -1.5002 -1.3714
  944MOL0     H27403   7.880   7.342  12.067  1.0254  1.1812  1.3470
  944MOL0     H27404   8.258   7.330  11.966 -5.0757 -1.2147  1.8148
  944MOL0     H27405   8.288   7.509  11.955  0.5574 -0.1567 -0.1161
  944MOL0     H27406   8.330   7.523  12.196  3.4817  1.1144 -0.6593
  944MOL0     H27407   8.321   7.345  12.211  3.1117 -1.4784  0.0541
  944MOL0     H27408   8.476   7.318  12.029  0.5849 -1.1662  0.8474
  944MOL0     H27409   8.539   7.473  12.050  2.2674 -2.1084  1.3176
  944MOL0     H27410   8.524   7.237  12.249 -1.2589 -0.1133 -1.5559
  944MOL0     H27411   8.561   7.389  12.320 -0.3188 -0.3478 -0.3196
  944MOL0     H27412   8.738   7.429  12.157  1.6702  0.8969  3.4321
  944MOL0     H27413   8.702   7.269  12.094  3.6882  1.7228 -0.6233
  944MOL0     H27414   8.759   7.161  12.328  1.4088 -0.8847 -0.7937
  944MOL0     H27415   8.885   7.254  12.253 -0.5441 -1.1066  0.0270
  944MOL0     H27416   8.716   7.312  12.495  0.0330 -0.7850 -0.1482
  944MOL0     H27417   8.791   7.457  12.412  1.1338  0.8433  2.6033
  944MOL0     H27418   9.001   7.350  12.443 -0.0573 -0.2231 -1.3925
  944MOL0     H27419   8.919   7.386  12.595  2.8175 -1.0370  0.6930
  944MOL0     H27420   8.143   7.611  11.870  0.6046 -3.2952 -0.5478
  944MOL0     H27421   7.959   7.677  11.714  0.5684 -0.6221 -0.2565
  944MOL0     H27422   7.502   7.633  11.589 -1.1720 -0.4387 -2.5937
  944MOL0     H27423   7.310   7.760  11.490  0.5324 -1.2369  0.0372
  944MOL0     H27424   5.492   7.620  11.447 -1.5499  1.5703  1.8343
  944MOL0     H27425   5.238   7.612  11.455  1.1423 -2.4096  0.4841
  944MOL0     H27426   4.871   7.959  11.263 -2.3888  1.4407  0.5719
  944MOL0     H27427   4.660   8.013  11.280  3.4138  0.4583 -0.5396
  944MOL0     H27428   4.319   7.749  11.162  0.8572 -1.1540 -1.9460
  944MOL0     H27429   4.412   7.859  11.065 -0.1329 -0.5668  0.2596
  944MOL0     H27430   4.188   7.952  11.087 -0.6621  0.4323 -0.1247
  944MOL0     H27431   4.299   8.050  11.191  0.7100 -1.2531  1.7213
  944MOL0     H27432   4.220   8.003  11.378 -0.6835 -0.8384  0.1061
  944MOL0     H27433   4.190   7.832  11.344  0.7427 -0.2890  0.3118
  944MOL0     H27434   3.997   7.926  11.181  0.7166 -0.4021 -0.7179
  944MOL0     H27435   3.971   7.918  11.357  0.7996  0.2930 -1.1184
  944MOL0     H27436   3.878   8.297  11.220  0.6922  1.3472  3.9275
  944MOL0     H27437   4.532   7.614  11.202  0.5050  0.8708 -1.7485
  944MOL0     H27438   4.803   7.445  11.201  0.2535  1.0309  0.7361
  944MOL0     H27439   4.690   7.460  11.075  0.2264 -0.7119  1.6032
  944MOL0     H27440   4.854   7.515  11.047 -0.0041 -0.3676 -0.2126
  945MOL0     O27441   8.737   8.671   9.324 -0.3259 -0.0528  0.5584
  945MOL0     C27442   8.795   8.769   9.267  0.6196  0.4371 -0.0715
  945MOL0     O27443   8.923   8.784   9.265  0.2961  0.3451 -0.2991
  945MOL0     C27444   9.006   8.671   9.290 -0.2964  0.4746  0.2861
  945MOL0     C27445   8.978   8.544   9.237 -0.6104  0.2982 -0.5921
  945MOL0     C27446   9.062   8.430   9.267 -0.4781  0.8361 -0.6868
  945MOL0     C27447   9.173   8.447   9.349  0.3825  0.0395 -0.8475
  945MOL0     O27448   9.259   8.351   9.401  0.0150 -0.4253  0.4455
  945MOL0     C27449   9.274   8.223   9.340  0.0105 -0.0603  0.3393
  945MOL0     C27450   9.400   8.148   9.396  0.3449  0.1277  0.0870
  945MOL0     C27451   9.435   8.022   9.324 -1.1678 -0.6081 -0.8973
  945MOL0     C27452   9.546   7.937   9.394 -0.2799 -0.0736  0.4370
  945MOL0     C27453   9.682   7.996   9.390 -0.7579  0.6860 -0.1689
  945MOL0     C27454   9.749   8.020   9.250 -0.1805  0.1627 -0.2834
  945MOL0     C27455   9.902   8.035   9.262 -0.7384 -0.0278 -0.0885
  945MOL0     C27456   9.948   8.113   9.146  0.1771  0.0192  0.6875
  945MOL0     N27457  10.090   8.138   9.160  0.3357 -0.0765  0.1059
  945MOL0     C27458  10.193   8.049   9.173  0.6660 -0.9530  0.2788
  945MOL0     C27459  10.297   8.118   9.220  0.4055  0.3199  0.1288
  945MOL0     C27460  10.429   8.068   9.269 -0.4665  0.3157  0.6093
  945MOL0     C27461  10.551   8.162   9.219  0.2753  0.2852 -0.1593
  945MOL0     C27462  10.691   8.137   9.280  0.4383 -0.4702  0.3170
  945MOL0     C27463  10.690   8.163   9.422 -0.2634 -0.1287 -0.0206
  945MOL0     O27464  10.805   8.244   9.445  0.2748  0.4522  0.2173
  945MOL0     C27465  10.927   8.194   9.454 -0.2286  0.5759  0.0641
  945MOL0     C27466  10.964   8.055   9.453  0.6288 -0.9161 -1.0808
  945MOL0     C27467  11.098   8.018   9.453 -0.5131 -0.2598  0.9911
  945MOL0     C27468  11.206   8.108   9.432  0.0432 -0.2737 -1.0305
  945MOL0     C27469  11.344   8.057   9.415  0.6652 -0.2648  0.5668
  945MOL0     O27470  11.377   7.922   9.420  0.6125 -0.3943  0.1060
  945MOL0     C27471  11.514   7.900   9.429 -0.3328 -0.1495 -0.1032
  945MOL0     C27472  11.590   7.948   9.535 -0.2681  0.1131  0.0719
  945MOL0     C27473  11.735   7.943   9.539 -0.1712  0.5416 -0.7049
  945MOL0     C27474  11.806   7.898   9.427  0.0235  0.6350  0.6215
  945MOL0     O27475  11.943   7.874   9.416  0.1501 -0.3900 -0.0918
  945MOL0     C27476  12.023   7.941   9.510 -0.2105  0.4961  0.0750
  945MOL0     C27477  12.167   7.896   9.496 -0.1537  1.5677  0.4708
  945MOL0     C27478  12.231   7.927   9.351 -0.3861 -0.7853 -0.2610
  945MOL0     C27479  12.371   7.873   9.345  1.0555  0.2690  0.3151
  945MOL0     C27480  12.370   7.724   9.287  0.0982 -1.5425 -0.2954
  945MOL0     C27481  12.505   7.658   9.308 -0.3581 -0.6261  0.3649
  945MOL0     C27482  12.550   7.665   9.457 -0.2737 -0.3371  0.5190
  945MOL0     C27483  12.625   7.541   9.489 -0.6226 -1.5999  0.3386
  945MOL0    Cl27484  12.738   7.568   9.621 -0.0950  0.3290  0.0968
  945MOL0     C27485  11.732   7.848   9.315  0.3626  0.2451 -0.1272
  945MOL0     C27486  11.590   7.853   9.322 -0.0584  0.3944 -1.1178
  945MOL0     O27487  11.424   8.147   9.398 -0.0200  0.5989  0.1856
  945MOL0     C27488  11.166   8.245   9.426 -1.2914  0.2027  1.3911
  945MOL0     C27489  11.038   8.287   9.451  0.3413  0.5077 -0.3420
  945MOL0     N27490  10.255   8.247   9.232  0.2403  0.0327 -0.4749
  945MOL0     N27491  10.133   8.257   9.203  0.0612  0.0759  0.4185
  945MOL0     C27492   9.204   8.576   9.394 -0.2822  0.7052  0.1291
  945MOL0     C27493   9.122   8.684   9.369 -0.0358  0.4309 -0.4403
  945MOL0     C27494   8.710   8.874   9.202  0.6994 -0.2535  0.2543
  945MOL0     C27495   8.773   8.978   9.134 -0.3066  0.0089 -1.0579
  945MOL0     C27496   8.696   9.073   9.064 -0.3643 -0.5052 -0.5540
  945MOL0     C27497   8.560   9.066   9.056  0.3825 -1.0824  0.5925
  945MOL0     O27498   8.489   9.167   8.998 -0.5402  0.1691 -0.2977
  945MOL0     C27499   8.410   9.246   9.087  0.2047 -0.6413 -0.1549
  945MOL0     C27500   8.267   9.268   9.043  0.4247  0.5033  0.1088
  945MOL0     C27501   8.250   9.391   8.948 -0.1217 -0.0383  0.5783
  945MOL0     C27502   8.104   9.386   8.872 -0.7575 -0.1705 -0.6307
  945MOL0     C27503   8.091   9.268   8.794  0.5281 -0.5347  0.3355
  945MOL0     C27504   8.064   9.162   8.738 -0.3926  0.4540  0.6198
  945MOL0     C27505   8.495   8.958   9.117 -0.2273  0.2512  0.2942
  945MOL0     C27506   8.567   8.860   9.191 -0.0955  0.3928  0.0830
  945MOL0     C27507   8.477   8.758   9.251  0.0615  0.0606  0.2305
  945MOL0     H27508   8.889   8.520   9.180  0.1342  0.5959 -1.9380
  945MOL0     H27509   9.023   8.332   9.239  0.9609  0.2561 -0.7446
  945MOL0     H27510   9.195   8.155   9.373  0.7066 -0.9746  0.1535
  945MOL0     H27511   9.269   8.236   9.231 -2.5160  5.0892  0.7691
  945MOL0     H27512   9.370   8.118   9.497 -0.0149 -1.8240 -0.5562
  945MOL0     H27513   9.487   8.214   9.393 -0.4551  1.1659 -2.6120
  945MOL0     H27514   9.459   8.056   9.223 -0.2355 -0.0111 -0.4889
  945MOL0     H27515   9.345   7.961   9.317 -0.7968 -1.9247  3.2987
  945MOL0     H27516   9.519   7.926   9.500  1.5911  1.4646  1.1192
  945MOL0     H27517   9.548   7.842   9.341  1.4704 -1.5438  2.9518
  945MOL0     H27518   9.677   8.092   9.443 -0.7347  1.5337 -1.6578
  945MOL0     H27519   9.747   7.929   9.447 -0.0187  0.5647 -1.1259
  945MOL0     H27520   9.743   7.922   9.202  3.1198 -1.5267  2.2791
  945MOL0     H27521   9.709   8.100   9.187  0.8749 -1.1795 -2.7907
  945MOL0     H27522   9.957   7.940   9.265  3.1102  2.0316  0.1459
  945MOL0     H27523   9.922   8.089   9.355 -1.9780  0.4305 -0.0648
  945MOL0     H27524   9.944   8.056   9.052 -1.3490  0.1551  0.6428
  945MOL0     H27525   9.893   8.208   9.139  2.1742  1.3306  1.9195
  945MOL0     H27526  10.184   7.941   9.161  0.5664 -1.0534  1.1940
  945MOL0     H27527  10.434   8.065   9.378  0.4871  2.3291  0.6563
  945MOL0     H27528  10.442   7.967   9.227  1.6818  0.8425 -0.1662
  945MOL0     H27529  10.560   8.157   9.110  2.1592 -3.0637  0.0191
  945MOL0     H27530  10.512   8.259   9.252 -2.3776 -1.6378  3.0466
  945MOL0     H27531  10.758   8.193   9.214  0.7097 -1.6118 -0.4114
  945MOL0     H27532  10.713   8.032   9.260  0.0438 -0.1555 -2.1280
  945MOL0     H27533  10.691   8.075   9.487  0.9326  0.7561  1.2243
  945MOL0     H27534  10.602   8.219   9.455 -0.9362 -1.6717  0.9151
  945MOL0     H27535  10.889   7.977   9.462  0.4578 -0.4958  2.4788
  945MOL0     H27536  11.123   7.913   9.463  2.7787  0.0365 -2.0243
  945MOL0     H27537  11.541   7.976   9.628 -0.6028 -0.9947  0.2317
  945MOL0     H27538  11.787   7.969   9.631  0.9584 -1.0872 -0.8306
  945MOL0     H27539  12.032   8.050   9.504  1.8749  0.6465  3.2736
  945MOL0     H27540  11.988   7.903   9.606 -1.7422 -0.9832 -0.9986
  945MOL0     H27541  12.228   7.959   9.561 -0.9053  0.7616  2.0172
  945MOL0     H27542  12.181   7.793   9.530  0.9892  0.8415 -1.9980
  945MOL0     H27543  12.171   7.889   9.268 -0.2933 -0.9743 -0.2418
  945MOL0     H27544  12.235   8.036   9.340 -3.2301 -0.7474 -1.9689
  945MOL0     H27545  12.425   7.893   9.438  0.9411  2.1402  0.0271
  945MOL0     H27546  12.418   7.933   9.267 -2.5114  1.4874 -1.1247
  945MOL0     H27547  12.357   7.732   9.178 -0.6181  1.4004 -0.0708
  945MOL0     H27548  12.290   7.662   9.330  0.7871 -1.1696  1.6042
  945MOL0     H27549  12.488   7.558   9.268  2.6290 -0.5353 -1.4135
  945MOL0     H27550  12.584   7.697   9.243 -2.5911 -0.2625 -2.2884
  945MOL0     H27551  12.467   7.663   9.528 -1.8032  1.4242 -1.1077
  945MOL0     H27552  12.615   7.750   9.474  0.6959 -1.1159  0.7983
  945MOL0     H27553  12.554   7.461   9.510 -1.0543 -1.0320  1.1169
  945MOL0     H27554  12.671   7.507   9.396 -1.8283  2.3733 -1.9635
  945MOL0     H27555  11.786   7.813   9.228  2.1680  0.9253  0.6615
  945MOL0     H27556  11.528   7.804   9.248 -3.0110 -0.7857  1.8946
  945MOL0     H27557  11.244   8.319   9.412 -1.3581  0.1645  0.7957
  945MOL0     H27558  11.014   8.392   9.444 -2.5131 -0.1141 -1.3177
  945MOL0     H27559   9.295   8.602   9.449 -0.0014  1.7786 -0.7941
  945MOL0     H27560   9.153   8.772   9.424 -1.8288 -1.4043  3.9541
  945MOL0     H27561   8.880   8.975   9.116  0.4134 -2.9781  2.4922
  945MOL0     H27562   8.753   9.148   9.010  0.9212 -1.2084 -0.2133
  945MOL0     H27563   8.451   9.346   9.104 -1.7804  0.1960 -0.0278
  945MOL0     H27564   8.402   9.191   9.182  0.8883 -1.1573 -0.3841
  945MOL0     H27565   8.204   9.282   9.131 -1.0744  2.6654 -1.2141
  945MOL0     H27566   8.244   9.174   8.992 -0.5800 -1.2973  3.5869
  945MOL0     H27567   8.317   9.392   8.861 -0.7247  3.1821 -0.0144
  945MOL0     H27568   8.266   9.479   9.012  1.0170 -0.0910  0.3881
  945MOL0     H27569   8.024   9.377   8.946 -0.6695 -2.1446 -0.7231
  945MOL0     H27570   8.097   9.479   8.816 -0.1937 -0.1803 -0.7216
  945MOL0     H27571   8.028   9.072   8.693  0.0137  0.1805  0.8444
  945MOL0     H27572   8.393   8.941   9.083  1.2168 -1.8540 -3.6552
  945MOL0     H27573   8.453   8.668   9.193  2.7932  0.2022 -1.2492
  945MOL0     H27574   8.517   8.727   9.348 -1.8501 -0.9418  0.7596
  945MOL0     H27575   8.383   8.811   9.267 -0.4145 -0.6432 -0.1603
  946MOL0     O27576   3.372   0.651   4.308 -0.5651 -0.5712 -0.7791
  946MOL0     C27577   3.428   0.707   4.213  0.5446  1.0172 -0.5129
  946MOL0     O27578   3.443   0.664   4.090 -0.7233  0.4027  0.2770
  946MOL0     C27579   3.404   0.546   4.053 -0.1548 -0.0044  0.0851
  946MOL0     C27580   3.413   0.430   4.127  0.0294 -0.9696  0.2135
  946MOL0     C27581   3.371   0.306   4.068 -0.9514 -0.6616 -0.0588
  946MOL0     C27582   3.313   0.306   3.949  0.1186 -0.0992 -0.3841
  946MOL0     O27583   3.261   0.182   3.923  0.4112  0.3843 -0.2357
  946MOL0     C27584   3.226   0.156   3.787 -0.4446  0.0058  0.4643
  946MOL0     C27585   3.354   0.111   3.704 -0.1393 -0.3674  0.2752
  946MOL0     C27586   3.416  -0.019   3.762  0.2531 -0.4949  0.1004
  946MOL0     C27587   3.532  -0.070   3.676 -0.0815 -0.1231 -0.8656
  946MOL0     C27588   3.612  -0.168   3.769  0.5241  0.6301  0.5963
  946MOL0     C27589   3.707  -0.271   3.700 -0.2093 -0.2272 -0.5410
  946MOL0     C27590   3.758  -0.368   3.816 -0.5422 -0.3744 -0.5344
  946MOL0     C27591   3.846  -0.479   3.758 -0.5898  0.1728  0.2930
  946MOL0     N27592   3.992  -0.463   3.783 -0.3237  0.8206 -0.7235
  946MOL0     C27593   4.059  -0.469   3.905 -0.1638  0.6155  0.5559
  946MOL0     C27594   4.192  -0.444   3.877  0.5774  0.0326  0.4069
  946MOL0     C27595   4.295  -0.407   3.972 -0.3465 -0.0570 -0.0339
  946MOL0     C27596   4.296  -0.258   4.005 -0.0949  0.2106  0.4982
  946MOL0     C27597   4.359  -0.175   3.894  0.3612  1.7448  0.1206
  946MOL0     C27598   4.351  -0.026   3.924  0.0811 -0.2480  0.0547
  946MOL0     O27599   4.465   0.025   3.995  0.1054  0.0483  0.6683
  946MOL0     C27600   4.584   0.045   3.931 -0.0005  0.0010 -0.3335
  946MOL0     C27601   4.609   0.017   3.792 -0.0625  0.2520 -0.5944
  946MOL0     C27602   4.743   0.044   3.743  0.0321  0.4604  0.0414
  946MOL0     C27603   4.853   0.066   3.825  0.2121 -0.1389 -0.4318
  946MOL0     C27604   4.990   0.062   3.781  0.1449  0.2294 -0.4167
  946MOL0     O27605   5.078   0.041   3.873 -0.4845  0.2599  0.3337
  946MOL0     C27606   5.214   0.030   3.830 -0.6185 -0.2621 -0.5990
  946MOL0     C27607   5.282  -0.087   3.874 -0.5525 -0.2510 -0.4656
  946MOL0     C27608   5.424  -0.107   3.856 -0.1053  0.4903  0.2987
  946MOL0     C27609   5.506  -0.015   3.792  0.4231  0.2278  0.1980
  946MOL0     O27610   5.635  -0.044   3.770 -0.6269  0.3579  0.4774
  946MOL0     C27611   5.716   0.047   3.689 -0.6401  0.3071  0.2999
  946MOL0     C27612   5.856  -0.004   3.671 -0.2960 -0.2441 -0.0167
  946MOL0     C27613   5.927  -0.057   3.798 -0.7620  0.1977  0.5846
  946MOL0     C27614   6.063  -0.118   3.761 -0.0888  0.1708 -0.2595
  946MOL0     C27615   6.144  -0.163   3.875 -0.8476 -0.3494  0.3604
  946MOL0     C27616   6.075  -0.265   3.959 -0.1229 -0.4046 -0.5018
  946MOL0     C27617   6.178  -0.324   4.047  0.6646  0.2294 -0.0327
  946MOL0     C27618   6.118  -0.404   4.170  0.5677 -0.2236  0.3203
  946MOL0    Cl27619   6.221  -0.396   4.301 -0.3671 -0.1361  0.0966
  946MOL0     C27620   5.442   0.099   3.751 -0.5067 -0.2760 -0.0276
  946MOL0     C27621   5.303   0.120   3.767 -0.0410 -0.4623  0.0096
  946MOL0     O27622   5.003   0.050   3.654 -0.6724 -0.3018  0.2317
  946MOL0     C27623   4.817   0.092   3.962  0.9152  0.6066 -0.6088
  946MOL0     C27624   4.685   0.086   4.012 -0.4572 -0.7479 -0.4019
  946MOL0     N27625   4.205  -0.431   3.738 -0.6839  0.1223  0.1084
  946MOL0     N27626   4.090  -0.435   3.688 -0.3218 -0.2103  0.3802
  946MOL0     C27627   3.327   0.415   3.863  0.9007 -0.4403  0.2747
  946MOL0     C27628   3.379   0.531   3.921  0.5199 -0.2601  0.9198
  946MOL0     C27629   3.443   0.851   4.238  0.8127  0.8386  1.0087
  946MOL0     C27630   3.418   0.938   4.131 -0.0013  0.1658 -0.4561
  946MOL0     C27631   3.423   1.079   4.147 -0.5726 -0.6085 -0.0055
  946MOL0     C27632   3.475   1.133   4.262  0.7182 -0.1815 -0.4249
  946MOL0     O27633   3.476   1.266   4.284  0.2740 -0.1213  0.5326
  946MOL0     C27634   3.410   1.313   4.400 -0.8386  0.3064  0.1666
  946MOL0     C27635   3.365   1.457   4.384  0.2360 -0.8425 -0.0890
  946MOL0     C27636   3.271   1.486   4.267 -0.3145 -0.1980 -0.8192
  946MOL0     C27637   3.140   1.417   4.267  0.2387  0.2203 -0.2939
  946MOL0     C27638   3.044   1.473   4.169 -0.1624  0.2175 -0.0437
  946MOL0     C27639   2.961   1.513   4.085 -0.2261  0.1869 -0.5947
  946MOL0     C27640   3.519   1.048   4.358  0.0566 -0.1976 -0.0945
  946MOL0     C27641   3.499   0.908   4.357  0.2869  0.3087 -0.2540
  946MOL0     C27642   3.529   0.821   4.475  0.0432  0.7258  0.5427
  946MOL0     H27643   3.447   0.432   4.231  2.9651  0.0267 -0.6562
  946MOL0     H27644   3.371   0.213   4.124  2.5422 -0.2833  0.8062
  946MOL0     H27645   3.139   0.091   3.775  0.5743 -1.3937  0.5174
  946MOL0     H27646   3.197   0.250   3.739  1.9726  0.4178 -0.3428
  946MOL0     H27647   3.430   0.190   3.702 -0.3077 -0.1837  0.8755
  946MOL0     H27648   3.326   0.085   3.601  3.9143  0.6250 -1.2938
  946MOL0     H27649   3.333  -0.088   3.769 -1.6063  1.5125 -0.8679
  946MOL0     H27650   3.447  -0.001   3.866  1.6905 -0.7167 -0.2603
  946MOL0     H27651   3.495  -0.118   3.585 -1.0583 -1.0226 -0.0134
  946MOL0     H27652   3.605   0.008   3.652 -0.8134  1.0403  0.5335
  946MOL0     H27653   3.659  -0.114   3.852 -0.6978  1.1135  1.0094
  946MOL0     H27654   3.524  -0.224   3.803 -1.9612  4.4780  1.1405
  946MOL0     H27655   3.652  -0.332   3.628  0.6858 -1.7448  0.0125
  946MOL0     H27656   3.785  -0.208   3.656 -1.1373  1.2871 -0.0967
  946MOL0     H27657   3.677  -0.416   3.872  0.8961  1.7434  3.7897
  946MOL0     H27658   3.818  -0.306   3.883  0.7543 -1.3549 -0.7624
  946MOL0     H27659   3.810  -0.569   3.809 -0.5478  1.4670  2.7724
  946MOL0     H27660   3.826  -0.478   3.651 -1.1972  4.9378  0.2215
  946MOL0     H27661   4.013  -0.486   4.002 -5.0642 -1.1399 -1.7374
  946MOL0     H27662   4.256  -0.455   4.062 -0.8362 -2.4121 -1.4189
  946MOL0     H27663   4.396  -0.442   3.947  0.3025  0.1752  2.0781
  946MOL0     H27664   4.194  -0.229   4.033 -0.7422  0.3738 -1.7962
  946MOL0     H27665   4.367  -0.253   4.088  1.5127  1.2141 -0.8534
  946MOL0     H27666   4.296  -0.189   3.806 -2.0033 -0.2233  1.9952
  946MOL0     H27667   4.460  -0.207   3.865  0.2697  0.0490  1.4908
  946MOL0     H27668   4.267  -0.013   3.993  1.6462 -1.0245  2.2210
  946MOL0     H27669   4.332   0.023   3.828  1.5895 -1.4170 -0.8858
  946MOL0     H27670   4.538  -0.027   3.723  1.5479  0.0412 -2.1809
  946MOL0     H27671   4.757   0.029   3.636  0.8338  3.7273 -0.4221
  946MOL0     H27672   5.220  -0.158   3.928 -0.6832  0.6069  0.5372
  946MOL0     H27673   5.474  -0.199   3.884 -2.3171 -1.0401 -0.4368
  946MOL0     H27674   5.668   0.069   3.593  0.4318 -1.6420 -0.7385
  946MOL0     H27675   5.719   0.146   3.737 -2.5661  1.1048 -1.0797
  946MOL0     H27676   5.844  -0.091   3.606  0.1349 -0.4284  0.1444
  946MOL0     H27677   5.913   0.077   3.626 -0.6614  0.7936  1.3166
  946MOL0     H27678   5.953   0.024   3.866  1.5352  1.5736 -1.7628
  946MOL0     H27679   5.855  -0.123   3.849 -0.6102  0.6397  1.3857
  946MOL0     H27680   6.126  -0.043   3.712  0.0565  0.2093 -0.0146
  946MOL0     H27681   6.054  -0.200   3.690 -0.9811  1.4527 -1.6729
  946MOL0     H27682   6.170  -0.077   3.937 -0.1767  0.9220 -1.5672
  946MOL0     H27683   6.243  -0.200   3.846 -0.3721  1.1334  0.0108
  946MOL0     H27684   5.996  -0.223   4.022  0.2402 -2.6726  1.6499
  946MOL0     H27685   6.039  -0.343   3.891 -3.6587  0.7496 -0.1046
  946MOL0     H27686   6.243  -0.243   4.083 -0.9860  0.5772  2.4299
  946MOL0     H27687   6.234  -0.400   3.993 -0.2040 -1.0060  0.7478
  946MOL0     H27688   6.017  -0.362   4.177 -0.1039 -1.1203 -2.6808
  946MOL0     H27689   6.114  -0.511   4.148 -1.5769 -0.6178  2.3077
  946MOL0     H27690   5.498   0.183   3.711  0.2250 -0.3085  0.8897
  946MOL0     H27691   5.248   0.206   3.732 -3.0724 -1.4972  1.8800
  946MOL0     H27692   4.894   0.090   4.038 -1.4942 -0.4257  1.9867
  946MOL0     H27693   4.677   0.094   4.120  0.4463  1.3046 -0.4383
  946MOL0     H27694   3.301   0.416   3.758 -1.4371 -0.5559  0.8086
  946MOL0     H27695   3.392   0.623   3.864  2.3042 -0.0712  1.5846
  946MOL0     H27696   3.385   0.902   4.034  0.0582  1.1533 -0.8584
  946MOL0     H27697   3.393   1.147   4.068  2.2247  0.0993 -0.5811
  946MOL0     H27698   3.482   1.297   4.481  1.5593  1.8286 -1.5153
  946MOL0     H27699   3.324   1.250   4.420 -1.2401  0.2297 -1.6337
  946MOL0     H27700   3.444   1.533   4.385  1.4572 -2.0808  0.2252
  946MOL0     H27701   3.303   1.486   4.469  1.9559  0.1055  0.9114
  946MOL0     H27702   3.325   1.457   4.176  0.2908  0.5062 -0.6978
  946MOL0     H27703   3.253   1.592   4.250 -0.2799 -0.3661 -2.0756
  946MOL0     H27704   3.151   1.309   4.250 -1.8473 -0.0371 -0.3573
  946MOL0     H27705   3.103   1.423   4.369  0.5883 -0.6554 -0.1097
  946MOL0     H27706   2.892   1.560   4.017  0.0688 -2.3679 -2.8385
  946MOL0     H27707   3.555   1.096   4.449  1.6701 -0.9920 -0.2756
  946MOL0     H27708   3.577   0.875   4.558 -0.9870 -0.1496  1.7441
  946MOL0     H27709   3.442   0.767   4.514  0.0927  0.8971  0.9011
  946MOL0     H27710   3.597   0.745   4.437 -0.0151 -1.1612  3.8613
  947MOL0     O27711   2.023  10.636   1.711  0.0830  0.0599 -0.3833
  947MOL0     C27712   1.908  10.599   1.689 -0.3747  1.0584 -0.7502
  947MOL0     O27713   1.880  10.525   1.574 -0.8523 -0.0579 -0.0941
  947MOL0     C27714   1.991  10.482   1.499  0.6427  0.1779 -0.7480
  947MOL0     C27715   2.055  10.366   1.542  0.1801 -0.0821 -0.3151
  947MOL0     C27716   2.161  10.314   1.461 -0.1537 -0.5645  0.2099
  947MOL0     C27717   2.197  10.377   1.340 -0.3555  0.1735 -0.4056
  947MOL0     O27718   2.304  10.333   1.263  0.2608 -0.1270 -0.0832
  947MOL0     C27719   2.418  10.289   1.336 -0.0334  0.4787  0.4960
  947MOL0     C27720   2.535  10.281   1.234 -0.1470 -0.6002  0.5164
  947MOL0     C27721   2.642  10.394   1.239 -0.0476 -0.1880 -0.1701
  947MOL0     C27722   2.748  10.356   1.132  0.1825  0.3821  0.3059
  947MOL0     C27723   2.831  10.479   1.090 -0.1387  0.5916  0.3012
  947MOL0     C27724   2.950  10.442   1.007  0.4212 -0.7114 -0.7574
  947MOL0     C27725   3.030  10.562   0.946  0.7861 -1.1890  0.2746
  947MOL0     C27726   3.149  10.533   0.869 -0.6903  0.1543 -0.3921
  947MOL0     N27727   3.180  10.654   0.787 -0.1219  0.0340  0.2791
  947MOL0     C27728   3.120  10.690   0.664  0.1823  0.7392 -0.3012
  947MOL0     C27729   3.199  10.790   0.621  0.8713 -0.2593  0.3027
  947MOL0     C27730   3.181  10.866   0.496  0.1258 -0.4077 -0.5123
  947MOL0     C27731   3.074  10.983   0.513  0.1908 -0.0114 -0.3641
  947MOL0     C27732   3.114  11.102   0.606  0.2197 -0.3713  0.0552
  947MOL0     C27733   3.243  11.182   0.569  0.5573  0.7000  0.1645
  947MOL0     O27734   3.205  11.274   0.459  0.1310 -0.2557  0.4384
  947MOL0     C27735   3.299  11.348   0.401  0.2744  0.1854 -0.3347
  947MOL0     C27736   3.435  11.326   0.423 -0.7274  0.1841 -0.1234
  947MOL0     C27737   3.541  11.398   0.360 -0.1487 -0.6169 -1.4775
  947MOL0     C27738   3.511  11.494   0.272  0.6782 -0.8509  0.2333
  947MOL0     C27739   3.612  11.562   0.188  0.0225  0.3600  0.4187
  947MOL0     O27740   3.561  11.637   0.075  0.0385  0.0526 -0.3179
  947MOL0     C27741   3.623  11.740   0.019 -0.7152 -0.0984 -0.1148
  947MOL0     C27742   3.727  11.818   0.075  1.1278 -0.5192 -0.0005
  947MOL0     C27743   3.804  11.912   0.011  0.0412  0.0709  0.2701
  947MOL0     C27744   3.777  11.951  -0.127  0.0655  0.6161  0.6725
  947MOL0     O27745   3.864  12.012  -0.214  0.0615  0.3249 -0.6801
  947MOL0     C27746   3.998  12.042  -0.163  0.9375 -0.5955  0.3173
  947MOL0     C27747   4.060  12.144  -0.261  0.6343  0.7116  0.1308
  947MOL0     C27748   4.211  12.178  -0.232  0.0528  0.1934 -0.3703
  947MOL0     C27749   4.313  12.074  -0.303 -1.8262  0.2102  0.2935
  947MOL0     C27750   4.442  12.072  -0.235 -0.6244 -0.1813  0.1422
  947MOL0     C27751   4.516  12.205  -0.249 -0.2127  0.9659  0.0879
  947MOL0     C27752   4.633  12.208  -0.159  0.2150  0.4387 -0.4456
  947MOL0     C27753   4.755  12.127  -0.199  0.2162  0.2272 -0.4056
  947MOL0    Cl27754   4.821  12.177  -0.360 -0.2351 -0.0930  0.3050
  947MOL0     C27755   3.659  11.885  -0.182 -0.0771  0.4094 -0.6126
  947MOL0     C27756   3.586  11.792  -0.103  1.6830  0.3691  0.7550
  947MOL0     O27757   3.726  11.571   0.232  1.4765 -0.6870 -0.2523
  947MOL0     C27758   3.371  11.526   0.252  0.2919  0.3382 -0.2823
  947MOL0     C27759   3.270  11.444   0.311 -0.1609 -0.6631 -0.5598
  947MOL0     N27760   3.306  10.802   0.708 -0.0335  0.0382 -1.8282
  947MOL0     N27761   3.287  10.724   0.812  0.1358 -0.2738 -0.6431
  947MOL0     C27762   2.124  10.494   1.302 -0.6910  0.8170 -0.1728
  947MOL0     C27763   2.019  10.544   1.375 -0.7777  0.4439 -0.5506
  947MOL0     C27764   1.793  10.650   1.773 -0.0812 -0.7471  0.9535
  947MOL0     C27765   1.665  10.617   1.725  0.1729 -0.7768  0.4837
  947MOL0     C27766   1.547  10.674   1.780  0.4465  0.2789 -0.7512
  947MOL0     C27767   1.548  10.771   1.874  0.2029  0.0314 -0.9895
  947MOL0     O27768   1.437  10.830   1.915 -0.3000  0.5778  0.3544
  947MOL0     C27769   1.441  10.969   1.933  0.3676  0.1041  0.0855
  947MOL0     C27770   1.399  10.980   2.077 -0.6430 -0.0812 -1.0365
  947MOL0     C27771   1.261  10.907   2.115  0.1946  0.3529  0.6723
  947MOL0     C27772   1.221  10.938   2.259  0.4490  0.3860 -0.0603
  947MOL0     C27773   1.093  10.876   2.294 -0.4449 -0.1977 -0.8554
  947MOL0     C27774   0.991  10.823   2.339 -0.5572  0.2574 -0.2752
  947MOL0     C27775   1.677  10.805   1.925  0.0743 -0.2355  0.3912
  947MOL0     C27776   1.798  10.753   1.879  0.1317 -0.0543  0.4621
  947MOL0     C27777   1.920  10.791   1.945  0.0287 -0.2837  0.6977
  947MOL0     H27778   2.021  10.320   1.634  3.6241  0.4687  1.4013
  947MOL0     H27779   2.197  10.214   1.485 -2.0573 -1.9393 -2.2057
  947MOL0     H27780   2.451  10.357   1.414 -0.2445 -1.1109  2.0357
  947MOL0     H27781   2.410  10.186   1.372 -0.8733  0.8725  1.4626
  947MOL0     H27782   2.494  10.263   1.135  2.6386  3.1754 -1.6346
  947MOL0     H27783   2.605  10.202   1.263  1.4804  0.2294 -0.9891
  947MOL0     H27784   2.687  10.403   1.338  1.9347 -0.0053 -1.0316
  947MOL0     H27785   2.604  10.490   1.203  0.8264  0.0473 -0.5018
  947MOL0     H27786   2.806  10.272   1.171 -0.7634 -1.1837 -1.5445
  947MOL0     H27787   2.699  10.306   1.049  0.2169  1.7615 -0.5745
  947MOL0     H27788   2.767  10.540   1.026 -0.2291 -2.0280 -2.2990
  947MOL0     H27789   2.858  10.531   1.183  0.7339 -0.7631  0.8455
  947MOL0     H27790   3.019  10.377   1.062 -0.4149 -2.0292 -1.1973
  947MOL0     H27791   2.913  10.378   0.926  2.0753 -1.6571 -0.8146
  947MOL0     H27792   3.058  10.644   1.014  0.5299 -1.2042  0.4037
  947MOL0     H27793   2.958  10.604   0.875  1.8543  0.9238  0.3601
  947MOL0     H27794   3.232  10.512   0.938  0.4869  1.6504 -1.2707
  947MOL0     H27795   3.153  10.447   0.803  2.6464  1.5048 -2.2364
  947MOL0     H27796   3.038  10.639   0.614 -1.7133  2.2021  1.1431
  947MOL0     H27797   3.273  10.913   0.461  0.0786 -1.4114 -2.1057
  947MOL0     H27798   3.142  10.808   0.411  1.0616 -0.4143 -0.9494
  947MOL0     H27799   3.046  11.022   0.415  0.8944 -0.7646 -0.8759
  947MOL0     H27800   2.990  10.935   0.565  1.4761 -1.2749  0.6268
  947MOL0     H27801   3.116  11.068   0.710 -1.5830 -1.3637 -0.2006
  947MOL0     H27802   3.040  11.182   0.597 -0.4613 -1.0207 -0.2876
  947MOL0     H27803   3.322  11.114   0.536 -0.8805 -2.1600  2.2182
  947MOL0     H27804   3.281  11.232   0.659 -2.9752  1.3575  1.4501
  947MOL0     H27805   3.476  11.256   0.494  4.8238  2.4579 -0.6176
  947MOL0     H27806   3.643  11.377   0.393 -0.9391 -3.9116 -0.6919
  947MOL0     H27807   3.743  11.819   0.183 -2.7908  1.0758  0.7433
  947MOL0     H27808   3.875  11.975   0.064 -1.3492  1.3067  0.7495
  947MOL0     H27809   3.998  12.094  -0.067  0.7267  1.7906 -0.9244
  947MOL0     H27810   4.060  11.951  -0.154 -0.3138 -1.4904  0.1577
  947MOL0     H27811   4.056  12.090  -0.356 -1.5487  1.3653 -0.1871
  947MOL0     H27812   3.990  12.227  -0.268  0.2974  0.3601 -0.9320
  947MOL0     H27813   4.229  12.285  -0.247 -0.2073  1.0931  4.2881
  947MOL0     H27814   4.211  12.181  -0.123  0.9963  0.1557 -0.3564
  947MOL0     H27815   4.320  12.088  -0.411  1.9343  2.9743  0.7039
  947MOL0     H27816   4.274  11.972  -0.293 -3.6158  1.0515  3.0932
  947MOL0     H27817   4.501  11.994  -0.285  1.6237  0.8171  1.1351
  947MOL0     H27818   4.425  12.045  -0.131 -0.6731  3.8376  1.3455
  947MOL0     H27819   4.560  12.211  -0.349 -0.4951 -0.3953 -0.1284
  947MOL0     H27820   4.460  12.296  -0.222  2.4687  2.6851  0.2277
  947MOL0     H27821   4.606  12.177  -0.057  3.4944  1.5516  0.9078
  947MOL0     H27822   4.672  12.307  -0.133  2.3236 -0.6207  0.7617
  947MOL0     H27823   4.836  12.144  -0.128  0.8352  1.6844 -1.4240
  947MOL0     H27824   4.743  12.018  -0.205  2.1306 -0.1506  1.5674
  947MOL0     H27825   3.629  11.909  -0.283 -1.5418  1.3867  0.0289
  947MOL0     H27826   3.497  11.744  -0.144  0.6134  1.2588  1.9606
  947MOL0     H27827   3.347  11.606   0.183  0.2884  0.0376 -0.6355
  947MOL0     H27828   3.170  11.479   0.286  0.2183 -0.3346 -1.6496
  947MOL0     H27829   2.159  10.531   1.207  1.0950 -0.1247  0.0920
  947MOL0     H27830   1.971  10.632   1.332 -0.1659  0.8386 -0.4377
  947MOL0     H27831   1.645  10.553   1.640  0.3375  1.3871 -1.2676
  947MOL0     H27832   1.455  10.635   1.738  0.0292  0.4320 -0.0022
  947MOL0     H27833   1.377  11.018   1.860 -1.8160  0.8492  2.3432
  947MOL0     H27834   1.536  11.023   1.922 -0.0064  0.4751 -1.5804
  947MOL0     H27835   1.401  11.086   2.101  0.5800 -0.2246 -0.3904
  947MOL0     H27836   1.477  10.933   2.139 -2.7420 -0.5924  1.3962
  947MOL0     H27837   1.259  10.799   2.097 -0.9613  0.8114 -2.5272
  947MOL0     H27838   1.185  10.945   2.046 -2.6447 -4.4383  0.7013
  947MOL0     H27839   1.290  10.890   2.330 -1.9177  1.2220  3.0428
  947MOL0     H27840   1.213  11.044   2.284  1.3427  0.2717  0.7785
  947MOL0     H27841   0.899  10.776   2.367  0.7680 -3.8683 -1.9778
  947MOL0     H27842   1.692  10.891   1.990  2.1692 -0.3129  0.0960
  947MOL0     H27843   1.982  10.701   1.958 -3.3963 -2.9508 -0.0342
  947MOL0     H27844   1.977  10.868   1.892  0.1470 -0.9400 -0.1438
  947MOL0     H27845   1.904  10.829   2.047 -0.0456  0.8664  0.2702
  948MOL0     O27846   8.000   9.935   1.766 -0.5781 -0.1285 -0.9338
  948MOL0     C27847   7.936  10.016   1.823  0.4430 -0.4056  0.2640
  948MOL0     O27848   7.961  10.076   1.942  0.0402 -0.3902 -0.3880
  948MOL0     C27849   8.081  10.051   1.998 -0.1960  0.1333  0.2086
  948MOL0     C27850   8.195  10.097   1.923 -0.5799 -0.5635  0.8381
  948MOL0     C27851   8.324  10.076   1.971 -0.4170  0.3100 -0.4039
  948MOL0     C27852   8.343   9.995   2.081  1.0091  0.1577 -1.1666
  948MOL0     O27853   8.465   9.955   2.130 -0.3233  0.3060  0.6043
  948MOL0     C27854   8.528   9.859   2.039 -0.4522 -0.7171  0.7031
  948MOL0     C27855   8.638   9.782   2.110  0.7461 -0.3328 -0.4472
  948MOL0     C27856   8.765   9.864   2.139 -0.3357 -0.4200  0.3060
  948MOL0     C27857   8.862   9.764   2.188 -0.7999  0.3429  1.0143
  948MOL0     C27858   9.006   9.816   2.194  0.7686 -0.5128 -0.6062
  948MOL0     C27859   9.114   9.709   2.187 -0.6577  0.0274 -0.1699
  948MOL0     C27860   9.255   9.772   2.176 -0.7267 -0.4818  0.1322
  948MOL0     C27861   9.367   9.668   2.152  0.6016 -0.6129  0.9575
  948MOL0     N27862   9.495   9.744   2.141 -0.1646 -0.1216  0.0014
  948MOL0     C27863   9.591   9.732   2.242  0.0060  0.3243  0.1583
  948MOL0     C27864   9.706   9.784   2.185 -0.4453  0.8508  0.9178
  948MOL0     C27865   9.843   9.783   2.238 -0.8115  0.5385  0.0096
  948MOL0     C27866   9.941   9.689   2.164  0.9495  0.0159  0.2146
  948MOL0     C27867  10.080   9.718   2.202  0.4426 -0.2558 -0.4806
  948MOL0     C27868  10.170   9.701   2.080  1.6676  0.3839 -0.2565
  948MOL0     O27869  10.303   9.728   2.124 -0.1952  0.1571  0.8621
  948MOL0     C27870  10.417   9.699   2.048  0.5584  0.6304 -0.0703
  948MOL0     C27871  10.534   9.756   2.086 -0.2912 -0.1017  1.0320
  948MOL0     C27872  10.652   9.730   2.022  0.6035  0.1523 -0.5769
  948MOL0     C27873  10.660   9.656   1.903 -0.3424 -0.4286 -1.0523
  948MOL0     C27874  10.790   9.638   1.826 -0.0595 -0.0028  0.2679
  948MOL0     O27875  10.893   9.714   1.874 -0.2403 -0.2641 -0.1132
  948MOL0     C27876  11.009   9.731   1.799 -0.0683  0.6471 -0.2249
  948MOL0     C27877  11.137   9.703   1.848  0.4648 -0.1199 -0.1725
  948MOL0     C27878  11.253   9.718   1.770 -0.1895 -0.4274 -0.5811
  948MOL0     C27879  11.243   9.778   1.644 -1.3062  0.0221 -0.7251
  948MOL0     O27880  11.356   9.806   1.573  0.9786 -0.3062  1.7160
  948MOL0     C27881  11.487   9.810   1.625 -0.0283 -0.5222 -0.3796
  948MOL0     C27882  11.538   9.940   1.553 -0.7661 -0.4001 -0.2033
  948MOL0     C27883  11.688   9.943   1.584  0.0576 -0.6281  0.0747
  948MOL0     C27884  11.759  10.068   1.524 -1.4541 -0.3546  0.1409
  948MOL0     C27885  11.912  10.041   1.541 -1.0785  0.3464  0.3326
  948MOL0     C27886  11.999  10.170   1.539  0.2518  0.1072 -0.5408
  948MOL0     C27887  12.144  10.132   1.590 -0.1638 -0.1212  0.5066
  948MOL0     C27888  12.235  10.254   1.613 -0.0918 -0.6830  0.3783
  948MOL0    Cl27889  12.162  10.391   1.700  0.5732  0.3045 -0.2751
  948MOL0     C27890  11.114   9.815   1.595 -1.2461  0.0720 -0.4597
  948MOL0     C27891  11.003   9.787   1.672 -0.3763 -0.3219  0.5320
  948MOL0     O27892  10.793   9.562   1.729 -0.2406 -0.6890 -0.0770
  948MOL0     C27893  10.539   9.594   1.862  0.0652 -0.1251 -0.5943
  948MOL0     C27894  10.420   9.613   1.938  0.6341  0.0553 -0.1155
  948MOL0     N27895   9.671   9.836   2.054 -1.1472  0.4053  0.5972
  948MOL0     N27896   9.544   9.804   2.027 -0.5015 -0.7927 -0.3454
  948MOL0     C27897   8.231   9.949   2.158 -0.2291 -0.0405  0.1652
  948MOL0     C27898   8.102   9.973   2.109 -1.3127  0.4900 -0.3212
  948MOL0     C27899   7.805  10.064   1.755  0.5694  0.7069  0.4531
  948MOL0     C27900   7.756  10.192   1.789  0.3424  0.9274 -0.7104
  948MOL0     C27901   7.636  10.235   1.746  0.4965 -0.7475 -0.3657
  948MOL0     C27902   7.552  10.156   1.671 -1.0944  0.4322  0.3187
  948MOL0     O27903   7.444  10.215   1.617 -0.2189  0.3977 -0.3341
  948MOL0     C27904   7.329  10.147   1.663 -0.2103  0.6327  0.8651
  948MOL0     C27905   7.214  10.217   1.589 -0.4752 -0.3881  0.1123
  948MOL0     C27906   7.069  10.180   1.635 -0.0896 -0.7462 -0.1170
  948MOL0     C27907   7.024  10.206   1.777 -0.8625  0.4727 -0.3173
  948MOL0     C27908   6.879  10.181   1.787 -0.7810 -0.5123 -0.3275
  948MOL0     C27909   6.761  10.157   1.805 -0.3185 -0.1474 -0.3013
  948MOL0     C27910   7.598  10.029   1.628  0.7588 -0.9457 -0.3893
  948MOL0     C27911   7.720   9.983   1.669 -0.2401 -0.3593 -0.5065
  948MOL0     C27912   7.749   9.848   1.623  0.6252 -0.1371  0.7632
  948MOL0     H27913   8.175  10.136   1.824  1.4785 -3.2622 -0.8010
  948MOL0     H27914   8.409  10.117   1.916 -1.9403  0.5734 -2.7471
  948MOL0     H27915   8.450   9.787   2.011  1.7024 -3.3332  1.0696
  948MOL0     H27916   8.565   9.919   1.956 -0.2819 -0.9521  0.6081
  948MOL0     H27917   8.672   9.707   2.037  0.5471  0.2830 -1.1879
  948MOL0     H27918   8.595   9.736   2.199  0.1927 -0.0228 -0.5535
  948MOL0     H27919   8.746   9.941   2.215  0.9377  1.0369 -0.7844
  948MOL0     H27920   8.809   9.919   2.055 -2.4891  3.2149  1.3210
  948MOL0     H27921   8.818   9.730   2.283 -0.2889  1.3444  1.6285
  948MOL0     H27922   8.864   9.680   2.119  2.6594  0.8737  0.2477
  948MOL0     H27923   9.015   9.900   2.124 -2.4948 -0.6381 -1.3222
  948MOL0     H27924   9.019   9.874   2.287  2.4978 -0.2577 -0.9775
  948MOL0     H27925   9.106   9.655   2.282 -1.5067  1.3810  0.5667
  948MOL0     H27926   9.093   9.636   2.108  1.3043 -1.0434  0.2410
  948MOL0     H27927   9.292   9.832   2.259  1.9977  0.0507 -1.3406
  948MOL0     H27928   9.250   9.830   2.083 -0.1295  0.3804  0.6330
  948MOL0     H27929   9.369   9.585   2.224 -1.6832  1.3236  3.4503
  948MOL0     H27930   9.351   9.629   2.051 -0.5768 -0.7781  1.1921
  948MOL0     H27931   9.578   9.692   2.342 -0.4325  0.0865  0.0084
  948MOL0     H27932   9.866   9.889   2.222 -0.9202  0.2535 -2.5149
  948MOL0     H27933   9.846   9.752   2.343 -1.5402  0.0644 -0.1019
  948MOL0     H27934   9.912   9.587   2.192  1.9842  0.3242  2.7541
  948MOL0     H27935   9.930   9.705   2.057 -3.3838  3.9761  0.9381
  948MOL0     H27936  10.113   9.660   2.290  1.2742  0.1645 -0.5085
  948MOL0     H27937  10.091   9.823   2.230  2.1262 -0.4792 -0.1721
  948MOL0     H27938  10.139   9.781   2.012 -0.3001 -0.6141 -0.6136
  948MOL0     H27939  10.159   9.598   2.045  0.6929 -0.1310  1.3993
  948MOL0     H27940  10.534   9.821   2.173 -1.2461  0.3062  0.7361
  948MOL0     H27941  10.747   9.757   2.066  0.1706  0.4039  0.2069
  948MOL0     H27942  11.151   9.658   1.945  2.1679  2.1505  0.7227
  948MOL0     H27943  11.347   9.705   1.823 -0.2766 -1.1868 -0.5998
  948MOL0     H27944  11.493   9.827   1.733 -0.4149  2.4917 -0.7225
  948MOL0     H27945  11.541   9.723   1.587  1.3419  0.8121 -1.6891
  948MOL0     H27946  11.528   9.917   1.447  3.4300 -3.4343 -0.1828
  948MOL0     H27947  11.492  10.037   1.576  1.6012  0.7939 -0.0831
  948MOL0     H27948  11.698   9.944   1.693 -1.2799 -0.0551  0.2126
  948MOL0     H27949  11.728   9.849   1.546  1.4895 -1.6078  3.5887
  948MOL0     H27950  11.742  10.148   1.597 -2.8160 -1.1983  0.8059
  948MOL0     H27951  11.732  10.097   1.422 -1.5117 -0.7410  0.0475
  948MOL0     H27952  11.947   9.976   1.460 -3.4252  1.5482 -1.7938
  948MOL0     H27953  11.927  10.011   1.645 -1.7949  2.2822  1.0310
  948MOL0     H27954  12.000  10.219   1.441  1.3073  3.1672  0.8660
  948MOL0     H27955  11.960  10.253   1.599 -0.6775  0.2577 -1.3212
  948MOL0     H27956  12.193  10.069   1.515 -0.7684  0.4116 -0.3463
  948MOL0     H27957  12.139  10.065   1.676  1.7023 -1.1509 -0.1222
  948MOL0     H27958  12.320  10.220   1.674  0.1871  2.4486  1.8973
  948MOL0     H27959  12.269  10.291   1.516  0.1967  0.5431  0.9405
  948MOL0     H27960  11.104   9.863   1.498 -0.6835 -0.0174 -0.5646
  948MOL0     H27961  10.904   9.799   1.628 -0.0277 -1.3364 -0.5704
  948MOL0     H27962  10.529   9.536   1.770 -0.0333 -1.3262  0.1603
  948MOL0     H27963  10.329   9.562   1.910  1.4247 -2.6763  1.7739
  948MOL0     H27964   8.254   9.880   2.239  1.7330  1.2777  0.7957
  948MOL0     H27965   8.026   9.932   2.175 -1.4204  0.0419 -0.7183
  948MOL0     H27966   7.808  10.249   1.865 -2.6632  3.2109 -0.1916
  948MOL0     H27967   7.600  10.328   1.788  1.0581 -0.6046 -0.2034
  948MOL0     H27968   7.320  10.144   1.772  0.1039 -0.1665  0.8760
  948MOL0     H27969   7.338  10.042   1.633  2.9010  1.6056 -2.2459
  948MOL0     H27970   7.229  10.186   1.486  0.0271 -1.7106  0.5647
  948MOL0     H27971   7.230  10.326   1.587 -2.6319 -0.0384 -1.2092
  948MOL0     H27972   7.055  10.073   1.615 -1.2675 -0.5340 -0.4953
  948MOL0     H27973   7.007  10.245   1.573 -0.9774  0.4035  1.8527
  948MOL0     H27974   7.082  10.147   1.848  1.3024  2.3013 -0.4276
  948MOL0     H27975   7.032  10.311   1.806 -0.3140 -0.2454  2.3701
  948MOL0     H27976   6.660  10.129   1.827 -0.2205  0.3095  0.7990
  948MOL0     H27977   7.548   9.973   1.549  0.3097 -0.0713 -0.7330
  948MOL0     H27978   7.846   9.852   1.573  1.4473 -1.2913  2.1942
  948MOL0     H27979   7.762   9.783   1.710  1.1971 -0.9953  0.0548
  948MOL0     H27980   7.672   9.809   1.555  0.3100  0.7891  0.5803
  949MOL0     O27981   5.125   4.375  10.689  1.0405 -0.1067 -0.0392
  949MOL0     C27982   5.036   4.443  10.639  0.1796 -0.2672  0.1162
  949MOL0     O27983   5.064   4.547  10.565  0.1226  0.2549  0.6204
  949MOL0     C27984   5.202   4.566  10.547  0.0391  0.6073  0.1761
  949MOL0     C27985   5.271   4.502  10.440  0.1754  0.3054  0.1984
  949MOL0     C27986   5.404   4.530  10.410  0.3646  0.5722  0.2442
  949MOL0     C27987   5.473   4.616  10.497  0.0251 -0.3243  0.3610
  949MOL0     O27988   5.605   4.647  10.493 -0.0714  0.3141  0.8156
  949MOL0     C27989   5.696   4.546  10.451 -0.3198  1.4292 -0.9186
  949MOL0     C27990   5.834   4.554  10.529  0.3999 -0.3747 -0.8009
  949MOL0     C27991   5.922   4.677  10.500  0.6064 -0.2715  0.1495
  949MOL0     C27992   6.012   4.709  10.621 -0.1023 -0.1741  0.1696
  949MOL0     C27993   6.097   4.831  10.603  0.5513 -0.4243 -0.5012
  949MOL0     C27994   6.123   4.891  10.743 -0.4577 -0.2862  0.0545
  949MOL0     C27995   6.172   5.034  10.729  0.6103 -0.3415 -0.6013
  949MOL0     C27996   6.171   5.100  10.869  0.7412 -0.3139 -0.0823
  949MOL0     N27997   6.283   5.045  10.950  0.3054  0.2675 -0.2189
  949MOL0     C27998   6.280   4.955  11.059  0.9748  0.0097 -0.5329
  949MOL0     C27999   6.416   4.943  11.089  0.5475 -0.1199 -0.3311
  949MOL0     C28000   6.477   4.868  11.190 -0.1636  0.4966 -0.1966
  949MOL0     C28001   6.439   4.920  11.333 -0.7518 -0.2613 -0.4072
  949MOL0     C28002   6.482   4.827  11.457 -0.3697 -0.2144 -0.1835
  949MOL0     C28003   6.637   4.812  11.480  0.1551 -0.4845 -0.7753
  949MOL0     O28004   6.692   4.942  11.495  0.3011 -0.2454 -0.2545
  949MOL0     C28005   6.820   4.963  11.463  0.3682  0.1265  0.0631
  949MOL0     C28006   6.912   4.871  11.418  0.3641  0.4621  1.1104
  949MOL0     C28007   7.044   4.905  11.390 -0.4108  0.7465 -0.1527
  949MOL0     C28008   7.084   5.035  11.417  0.2214 -0.2115 -0.1376
  949MOL0     C28009   7.222   5.088  11.391 -0.6532  0.1644 -0.0676
  949MOL0     O28010   7.293   5.029  11.294  0.6369 -0.1234  0.8035
  949MOL0     C28011   7.417   5.077  11.261  0.4790 -0.3734  0.3753
  949MOL0     C28012   7.533   5.097  11.346  0.4115  0.5701  0.5256
  949MOL0     C28013   7.651   5.159  11.297 -0.3254  0.1422 -0.7936
  949MOL0     C28014   7.661   5.196  11.165  0.4385 -0.3682  0.1536
  949MOL0     O28015   7.771   5.255  11.113 -0.9401 -0.9597 -0.0060
  949MOL0     C28016   7.783   5.393  11.140 -0.0501  0.0690  0.7864
  949MOL0     C28017   7.911   5.443  11.066 -1.4821 -0.4708 -0.0049
  949MOL0     C28018   8.031   5.398  11.154 -0.1011 -0.0479 -0.3447
  949MOL0     C28019   8.165   5.451  11.089  0.3756 -0.2018 -0.0454
  949MOL0     C28020   8.302   5.413  11.152 -0.1447 -0.3633  0.2955
  949MOL0     C28021   8.357   5.276  11.114 -0.0957 -0.0976 -0.5802
  949MOL0     C28022   8.484   5.247  11.194 -0.4144 -0.3076  1.0802
  949MOL0     C28023   8.581   5.157  11.099 -0.9193 -0.1428  0.4699
  949MOL0    Cl28024   8.726   5.096  11.195  0.0700  0.2361  0.0945
  949MOL0     C28025   7.558   5.165  11.078  0.5555 -0.2032  0.5256
  949MOL0     C28026   7.438   5.105  11.129  0.0530 -0.7957  1.1539
  949MOL0     O28027   7.273   5.167  11.464 -0.5184  0.5579 -1.2119
  949MOL0     C28028   6.988   5.130  11.467  0.3149 -0.0638 -0.0519
  949MOL0     C28029   6.857   5.089  11.482 -0.9087  0.6586  0.5674
  949MOL0     N28030   6.494   5.016  10.999  0.0445 -0.3056 -0.2025
  949MOL0     N28031   6.415   5.086  10.927  0.0629 -0.1841 -0.8643
  949MOL0     C28032   5.402   4.680  10.602  0.3082  0.6514 -1.1755
  949MOL0     C28033   5.265   4.652  10.635 -0.9185 -0.4340  0.0036
  949MOL0     C28034   4.897   4.390  10.646 -0.8976 -0.2103  0.3444
  949MOL0     C28035   4.872   4.269  10.709  0.2593  0.7484 -1.2620
  949MOL0     C28036   4.748   4.221  10.725  0.3197 -0.4965  0.2895
  949MOL0     C28037   4.639   4.293  10.689  0.3161  0.9929 -0.1991
  949MOL0     O28038   4.519   4.240  10.724  0.1109  0.7947  0.4032
  949MOL0     C28039   4.409   4.321  10.726 -0.5745 -0.0696  0.4672
  949MOL0     C28040   4.284   4.221  10.741  0.4502 -0.4807  0.3797
  949MOL0     C28041   4.165   4.309  10.781 -0.0960  0.0975 -0.7639
  949MOL0     C28042   4.044   4.216  10.825  0.3241  0.4874  0.4492
  949MOL0     C28043   4.072   4.155  10.950 -0.5368  0.7756 -0.7321
  949MOL0     C28044   4.079   4.094  11.056  0.2411  0.5571 -0.2618
  949MOL0     C28045   4.656   4.418  10.629  0.4035 -0.3566  0.3653
  949MOL0     C28046   4.788   4.470  10.603 -0.3409  0.5217 -0.5097
  949MOL0     C28047   4.798   4.609  10.553  0.1698  0.3917 -0.9505
  949MOL0     H28048   5.198   4.439  10.389 -1.1002 -0.6483  3.0046
  949MOL0     H28049   5.462   4.479  10.334  0.4075  2.4729 -1.0660
  949MOL0     H28050   5.660   4.443  10.461  1.1220  0.9789 -0.0145
  949MOL0     H28051   5.715   4.573  10.347  2.7172  1.7206 -0.3713
  949MOL0     H28052   5.891   4.463  10.508 -1.9726 -2.0303 -0.5211
  949MOL0     H28053   5.806   4.550  10.635  1.0371 -1.8120 -0.6596
  949MOL0     H28054   5.850   4.757  10.478 -0.0742 -1.5448 -2.5737
  949MOL0     H28055   5.987   4.662  10.414  1.1223 -0.4019  0.5590
  949MOL0     H28056   5.936   4.723  10.699 -2.6057  0.0524 -2.1578
  949MOL0     H28057   6.077   4.626  10.652 -0.3965 -1.2085 -1.8559
  949MOL0     H28058   6.181   4.820  10.533 -2.3045  1.9781 -4.7602
  949MOL0     H28059   6.049   4.907  10.540  1.8111 -0.6705 -1.8258
  949MOL0     H28060   6.039   4.896  10.812  1.5272  1.5480  2.5128
  949MOL0     H28061   6.201   4.834  10.795 -0.2144  0.6078  0.6856
  949MOL0     H28062   6.097   5.094  10.675 -0.3198  0.4195  1.4401
  949MOL0     H28063   6.272   5.040  10.685  0.5976  0.6247 -0.5227
  949MOL0     H28064   6.175   5.209  10.857 -1.7117 -0.1417  0.2534
  949MOL0     H28065   6.076   5.095  10.923  0.1822 -1.9511 -1.1362
  949MOL0     H28066   6.197   4.913  11.115 -1.1934  2.3229 -1.7700
  949MOL0     H28067   6.451   4.762  11.181 -0.2173  0.6469 -2.0394
  949MOL0     H28068   6.585   4.881  11.187 -0.2761  2.5274  1.7335
  949MOL0     H28069   6.489   5.014  11.357 -0.4123 -0.5751  0.1377
  949MOL0     H28070   6.330   4.927  11.337 -0.9106 -2.4988  1.6417
  949MOL0     H28071   6.421   4.737  11.447 -0.2293 -0.1173 -2.2198
  949MOL0     H28072   6.432   4.872  11.544  1.0585  2.4804 -0.6369
  949MOL0     H28073   6.673   4.763  11.390  0.3749 -1.3832 -0.2140
  949MOL0     H28074   6.665   4.748  11.565  0.1704 -2.2421 -2.0520
  949MOL0     H28075   6.883   4.770  11.390 -0.9813  0.2589  3.0369
  949MOL0     H28076   7.125   4.846  11.348 -0.4631  0.0588  0.6852
  949MOL0     H28077   7.533   5.056  11.447  0.3790  0.0272  0.3087
  949MOL0     H28078   7.733   5.168  11.367 -1.5989  1.6894  0.5531
  949MOL0     H28079   7.693   5.439  11.098 -0.9499 -2.3064 -0.0082
  949MOL0     H28080   7.787   5.417  11.247 -0.2455  4.5110  0.0211
  949MOL0     H28081   7.920   5.406  10.964 -2.0478  0.2669 -0.3275
  949MOL0     H28082   7.908   5.552  11.080  1.9688 -0.5998  3.6888
  949MOL0     H28083   8.020   5.436  11.256  0.2583  1.0767 -0.7160
  949MOL0     H28084   8.021   5.289  11.153 -4.2333  0.0213 -4.8017
  949MOL0     H28085   8.162   5.561  11.092  2.9281 -0.0687  0.3263
  949MOL0     H28086   8.171   5.417  10.986 -0.5464 -0.8476  0.1044
  949MOL0     H28087   8.291   5.417  11.261 -1.3400  0.0588  0.1854
  949MOL0     H28088   8.375   5.488  11.120  0.9794 -0.8840  1.5767
  949MOL0     H28089   8.286   5.195  11.132 -0.3672  0.6408  2.3257
  949MOL0     H28090   8.377   5.277  11.007 -3.0232 -2.6127 -1.2826
  949MOL0     H28091   8.456   5.208  11.292 -3.0697 -1.2789  0.0168
  949MOL0     H28092   8.544   5.337  11.212  3.5989 -2.2905 -1.0339
  949MOL0     H28093   8.515   5.074  11.071 -2.4329 -0.2991  3.9706
  949MOL0     H28094   8.622   5.207  11.012  1.6300 -0.8130  1.2101
  949MOL0     H28095   7.572   5.189  10.974  1.3691 -0.6955  0.5129
  949MOL0     H28096   7.362   5.087  11.053 -0.6086  1.2993  1.2597
  949MOL0     H28097   7.023   5.227  11.503  1.7250 -0.6951  0.3356
  949MOL0     H28098   6.791   5.168  11.517  0.4436  4.5152 -4.3909
  949MOL0     H28099   5.449   4.738  10.681  1.4669 -0.2675 -1.1676
  949MOL0     H28100   5.213   4.701  10.717  0.0867  1.1335 -0.2519
  949MOL0     H28101   4.953   4.211  10.753 -1.8365 -0.1398  1.7427
  949MOL0     H28102   4.720   4.126  10.770 -1.7175 -0.0989 -0.0417
  949MOL0     H28103   4.392   4.378  10.634  1.1984  1.0444  0.7948
  949MOL0     H28104   4.409   4.389  10.812 -2.1358 -1.1753  1.4054
  949MOL0     H28105   4.308   4.141  10.812 -0.4310 -0.5328  0.6305
  949MOL0     H28106   4.279   4.176  10.641  0.6455  0.9885 -0.3135
  949MOL0     H28107   4.147   4.355  10.684 -1.6990  0.4792 -0.3203
  949MOL0     H28108   4.191   4.393  10.847  0.4730  0.1451 -1.0397
  949MOL0     H28109   3.956   4.281  10.833 -2.9914 -3.4885 -0.3052
  949MOL0     H28110   4.024   4.133  10.756  2.1721 -0.6657  1.2178
  949MOL0     H28111   4.081   4.044  11.151  0.2407  1.5891  0.3069
  949MOL0     H28112   4.566   4.477  10.611  0.9857  0.4494  0.0536
  949MOL0     H28113   4.835   4.614  10.450 -0.6625  1.8440 -1.1982
  949MOL0     H28114   4.706   4.666  10.538 -0.5106 -0.8364 -1.6173
  949MOL0     H28115   4.865   4.663  10.621 -2.5112 -0.4706  2.6891
  950MOL0     O28116   1.529   4.271  10.587 -0.5696  0.5189  0.3774
  950MOL0     C28117   1.487   4.210  10.686 -0.4446 -0.2572  0.6652
  950MOL0     O28118   1.555   4.128  10.770  0.2380  0.2480  0.5035
  950MOL0     C28119   1.683   4.081  10.732 -0.3377 -0.6559  0.4435
  950MOL0     C28120   1.796   4.118  10.813  0.1900 -0.0680 -0.2116
  950MOL0     C28121   1.927   4.084  10.782  0.3406  0.9408  0.6709
  950MOL0     C28122   1.958   4.017  10.660 -0.9372 -0.3244  0.7212
  950MOL0     O28123   2.089   3.973  10.646  0.2550 -1.0183 -0.6280
  950MOL0     C28124   2.105   3.833  10.632 -0.3524  0.3135  0.1685
  950MOL0     C28125   2.215   3.793  10.532  0.0819 -0.0450  0.2222
  950MOL0     C28126   2.356   3.845  10.543 -0.1726 -0.4143 -0.1158
  950MOL0     C28127   2.453   3.777  10.448  0.2588  0.2889 -0.0306
  950MOL0     C28128   2.592   3.839  10.437 -0.3725  0.2348 -0.1655
  950MOL0     C28129   2.583   3.984  10.387  0.0074 -0.2384 -0.9433
  950MOL0     C28130   2.711   4.026  10.330  0.2483 -0.5820  0.7286
  950MOL0     C28131   2.803   4.092  10.438  0.1137  0.7263  0.2127
  950MOL0     N28132   2.910   4.173  10.384 -0.8220  0.5539  1.0234
  950MOL0     C28133   2.916   4.302  10.343  0.1648 -0.5758 -1.1928
  950MOL0     C28134   3.039   4.334  10.294 -0.8065 -0.4412  0.1902
  950MOL0     C28135   3.094   4.460  10.212  0.3500  0.4054 -0.3194
  950MOL0     C28136   2.987   4.561  10.186 -0.3373 -0.4850 -0.5635
  950MOL0     C28137   2.964   4.654  10.312  0.0536  0.3852  0.3323
  950MOL0     C28138   2.887   4.777  10.269 -0.8050  0.1219 -0.4170
  950MOL0     O28139   2.976   4.866  10.209 -0.5293  0.4636 -0.4015
  950MOL0     C28140   3.058   4.952  10.289  0.9231 -0.7663  0.9768
  950MOL0     C28141   3.157   5.018  10.217  0.4378  0.8725  0.0054
  950MOL0     C28142   3.241   5.123  10.270  0.1548 -0.2285 -0.2052
  950MOL0     C28143   3.210   5.162  10.403 -0.3643  0.1545  0.4381
  950MOL0     C28144   3.290   5.266  10.469 -0.2477 -0.5197  0.5195
  950MOL0     O28145   3.251   5.312  10.590 -0.0913  0.2799 -0.2884
  950MOL0     C28146   3.321   5.407  10.657 -0.2655 -0.9408 -0.0351
  950MOL0     C28147   3.426   5.491  10.612 -0.7988  0.9988 -0.4822
  950MOL0     C28148   3.506   5.566  10.702 -0.2561  0.4004 -0.1868
  950MOL0     C28149   3.487   5.560  10.836 -0.4583  0.6492  0.2404
  950MOL0     O28150   3.553   5.640  10.933  0.4237  0.4466 -1.0669
  950MOL0     C28151   3.637   5.749  10.903 -0.2152 -0.5984 -0.1238
  950MOL0     C28152   3.778   5.689  10.915 -0.0397  0.2813  0.5069
  950MOL0     C28153   3.896   5.789  10.904  0.2291 -0.8854 -0.3434
  950MOL0     C28154   4.041   5.742  10.931 -0.3975 -0.4378  0.1957
  950MOL0     C28155   4.146   5.847  10.910 -0.6392 -0.6307  0.0546
  950MOL0     C28156   4.292   5.790  10.953  0.6184  0.4683  0.7338
  950MOL0     C28157   4.382   5.913  10.939  0.1980  0.2307 -0.2237
  950MOL0     C28158   4.533   5.881  10.943  0.3578  0.3919  0.3026
  950MOL0    Cl28159   4.580   5.786  11.084  0.2658 -0.0074 -0.1962
  950MOL0     C28160   3.382   5.481  10.876 -0.1702 -0.1158  0.1932
  950MOL0     C28161   3.303   5.415  10.794 -0.3227 -0.1806 -0.0706
  950MOL0     O28162   3.382   5.314  10.403  0.2699  0.1567 -0.1794
  950MOL0     C28163   3.104   5.098  10.474 -0.1029 -0.5825  0.0376
  950MOL0     C28164   3.031   4.991  10.422 -0.7150 -0.2923  0.7762
  950MOL0     N28165   3.115   4.224  10.321  0.4905  0.4787 -0.5466
  950MOL0     N28166   3.040   4.129  10.373  0.1621  0.1418 -0.1696
  950MOL0     C28167   1.856   4.003  10.567 -0.2225 -0.5058  0.2756
  950MOL0     C28168   1.715   4.024  10.602  0.2878 -0.2041  0.4939
  950MOL0     C28169   1.344   4.224  10.725 -1.0497 -0.0525  0.2012
  950MOL0     C28170   1.316   4.182  10.859  0.1239  0.3442 -0.1468
  950MOL0     C28171   1.190   4.157  10.900  0.2398  1.0560 -0.1250
  950MOL0     C28172   1.079   4.193  10.816 -0.2420 -0.5038  0.9514
  950MOL0     O28173   0.953   4.201  10.871 -1.0639  0.2386  0.2146
  950MOL0     C28174   0.900   4.068  10.903 -0.2688  0.9556 -0.4830
  950MOL0     C28175   0.822   3.993  10.807  0.0696  0.0050 -0.1414
  950MOL0     C28176   0.697   4.070  10.755  0.3278  0.3122 -0.6317
  950MOL0     C28177   0.590   4.060  10.875 -0.5244  0.3198  0.3696
  950MOL0     C28178   0.466   4.097  10.827  0.6716  0.1697  0.9692
  950MOL0     C28179   0.351   4.145  10.823  0.2127  0.9433  0.3206
  950MOL0     C28180   1.106   4.237  10.683 -0.5537  0.5892 -0.1330
  950MOL0     C28181   1.237   4.251  10.636  0.1912  0.2609  0.4894
  950MOL0     C28182   1.253   4.290  10.496 -0.7029 -0.1933  0.1969
  950MOL0     H28183   1.773   4.166  10.908 -0.2337 -1.7846  0.5939
  950MOL0     H28184   2.010   4.087  10.851  1.3610 -1.4103 -0.3514
  950MOL0     H28185   2.146   3.791  10.725  2.0228 -1.4945 -1.5823
  950MOL0     H28186   2.006   3.795  10.605 -0.0821 -1.2323  1.2029
  950MOL0     H28187   2.186   3.817  10.429  0.5500  0.9328  0.3089
  950MOL0     H28188   2.218   3.684  10.531 -0.4367 -0.0725  0.8093
  950MOL0     H28189   2.394   3.838  10.646  3.4909 -0.4418 -1.3251
  950MOL0     H28190   2.350   3.952  10.526 -2.7967 -0.1178  2.0461
  950MOL0     H28191   2.460   3.674  10.485  2.2216  0.3595 -0.1038
  950MOL0     H28192   2.409   3.767  10.349 -2.0390 -0.8677  1.0242
  950MOL0     H28193   2.641   3.836  10.535 -0.0040  0.7902 -0.3264
  950MOL0     H28194   2.657   3.783  10.369  0.7368  2.8744 -1.4238
  950MOL0     H28195   2.511   3.983  10.305 -1.3766  0.8207  0.2143
  950MOL0     H28196   2.545   4.049  10.467  1.7017  0.6522 -0.8182
  950MOL0     H28197   2.691   4.105  10.258  0.3631 -1.7425 -0.6085
  950MOL0     H28198   2.775   3.954  10.278  1.3367  0.4473  0.6066
  950MOL0     H28199   2.746   4.166  10.495 -1.4743 -0.1854 -0.1102
  950MOL0     H28200   2.851   4.012  10.496  0.5071  0.8213  0.0186
  950MOL0     H28201   2.835   4.374  10.350 -0.6177 -1.5096 -0.2287
  950MOL0     H28202   3.181   4.494  10.269 -1.2158  0.5177  2.1457
  950MOL0     H28203   3.136   4.425  10.118 -3.1224  0.1231 -1.8928
  950MOL0     H28204   3.008   4.626  10.101 -1.6935  0.2216 -0.3877
  950MOL0     H28205   2.898   4.501  10.164  0.1445 -0.6610 -2.1584
  950MOL0     H28206   3.054   4.670  10.371  1.4677  0.5154 -1.7665
  950MOL0     H28207   2.889   4.598  10.370 -0.1244  0.9737  0.6891
  950MOL0     H28208   2.840   4.822  10.357 -2.2651 -1.6019 -0.2693
  950MOL0     H28209   2.807   4.749  10.200  0.9285 -0.0028 -2.4782
  950MOL0     H28210   3.181   4.985  10.117  0.2043 -0.1085  0.2692
  950MOL0     H28211   3.326   5.160  10.215  0.7636 -1.1380  0.0961
  950MOL0     H28212   3.443   5.508  10.506 -0.1287  2.2145 -0.2001
  950MOL0     H28213   3.573   5.637  10.657  1.0489  0.9236  2.3829
  950MOL0     H28214   3.614   5.800  10.809 -2.3002  1.1214  1.2088
  950MOL0     H28215   3.621   5.819  10.986  1.2724  2.2089 -2.0350
  950MOL0     H28216   3.780   5.639  11.012  0.2386  3.4754  2.2820
  950MOL0     H28217   3.788   5.606  10.845 -0.0857  2.2827 -2.0255
  950MOL0     H28218   3.882   5.840  10.809 -2.5901  1.5189  1.1963
  950MOL0     H28219   3.867   5.866  10.977  0.6862 -1.5179  0.5233
  950MOL0     H28220   4.070   5.653  10.875 -3.4873 -1.0797 -0.5685
  950MOL0     H28221   4.040   5.712  11.036  0.7444  1.3084  0.7485
  950MOL0     H28222   4.124   5.930  10.978 -0.0135 -1.1749  0.9434
  950MOL0     H28223   4.142   5.879  10.806 -1.1920 -2.7599 -0.6261
  950MOL0     H28224   4.301   5.748  11.053  0.3234 -0.5091  0.3675
  950MOL0     H28225   4.321   5.713  10.880 -3.0226  0.9310 -1.4535
  950MOL0     H28226   4.368   5.964  11.034  0.0129 -2.7199  1.4295
  950MOL0     H28227   4.359   5.984  10.858  0.5725  1.2662  0.5582
  950MOL0     H28228   4.561   5.825  10.853  1.2119  1.8980 -0.4050
  950MOL0     H28229   4.598   5.968  10.932 -0.7570  1.0695 -1.4778
  950MOL0     H28230   3.361   5.467  10.982 -2.1400 -0.8375 -0.2512
  950MOL0     H28231   3.215   5.375  10.844 -3.5288  2.7236 -2.8826
  950MOL0     H28232   3.090   5.126  10.578 -1.4315 -0.4798 -0.1494
  950MOL0     H28233   2.964   4.940  10.490  1.3588 -1.5043  1.9924
  950MOL0     H28234   1.865   3.980  10.461 -1.1727  0.6645 -0.0841
  950MOL0     H28235   1.641   4.007  10.525 -0.2809  3.8505 -0.0891
  950MOL0     H28236   1.392   4.167  10.936 -1.1685  0.0622  1.1293
  950MOL0     H28237   1.176   4.108  10.996  1.7870 -0.8020 -0.7838
  950MOL0     H28238   0.848   4.082  10.998  3.5472  0.5246  1.9169
  950MOL0     H28239   0.981   3.997  10.921  1.6171  3.1956  0.3316
  950MOL0     H28240   0.797   3.894  10.846 -1.3484 -0.6415 -2.5090
  950MOL0     H28241   0.886   3.962  10.723 -3.1092 -0.8110 -2.4437
  950MOL0     H28242   0.668   4.019  10.663  1.2765  1.3100 -1.5121
  950MOL0     H28243   0.734   4.171  10.736 -0.6090  1.2497  2.0868
  950MOL0     H28244   0.583   3.954  10.903  3.4556  0.1961  1.6255
  950MOL0     H28245   0.644   4.115  10.952  1.9535 -1.1890 -0.1582
  950MOL0     H28246   0.252   4.186  10.829 -0.2808 -0.3076  1.1111
  950MOL0     H28247   1.014   4.251  10.626 -1.3030 -2.2935  0.1845
  950MOL0     H28248   1.167   4.275  10.430  0.1258 -0.8014 -0.7763
  950MOL0     H28249   1.282   4.393  10.476  1.0736 -0.9718 -1.6265
  950MOL0     H28250   1.324   4.213  10.464  0.3622  0.3706  1.1216
  951MOL0     O28251   6.429   1.840   3.212 -0.3803  0.0068  0.2634
  951MOL0     C28252   6.404   1.933   3.284 -0.0935  0.6043  0.0521
  951MOL0     O28253   6.504   2.004   3.345 -0.0971 -0.0356 -0.1370
  951MOL0     C28254   6.629   1.955   3.356 -0.4295 -0.7886  0.0751
  951MOL0     C28255   6.705   1.907   3.244 -0.3433  0.1258 -0.8606
  951MOL0     C28256   6.835   1.867   3.266 -0.9146  0.7547  0.3638
  951MOL0     C28257   6.900   1.880   3.393 -0.1832  0.3511  0.3358
  951MOL0     O28258   7.025   1.840   3.429  0.4068  0.1442 -0.1937
  951MOL0     C28259   7.105   1.770   3.337 -0.0390 -0.6077 -0.8526
  951MOL0     C28260   7.254   1.747   3.378 -0.0858 -0.7544  0.3993
  951MOL0     C28261   7.326   1.883   3.363 -0.9754  0.4044 -0.5305
  951MOL0     C28262   7.458   1.893   3.450  0.2459  0.8763 -0.1988
  951MOL0     C28263   7.579   1.844   3.373  0.5414 -0.5586 -0.1443
  951MOL0     C28264   7.705   1.841   3.455 -0.5399 -0.3333 -0.8239
  951MOL0     C28265   7.812   1.792   3.364  0.1602  0.5854  0.0946
  951MOL0     C28266   7.942   1.789   3.447 -0.1409 -0.4963 -0.6190
  951MOL0     N28267   8.055   1.736   3.374  0.2236 -0.0652 -0.1399
  951MOL0     C28268   8.178   1.801   3.343  0.0691  0.4277 -0.0311
  951MOL0     C28269   8.254   1.704   3.293  0.0062  0.0170  0.1963
  951MOL0     C28270   8.401   1.726   3.250 -0.0741  0.3541  0.0657
  951MOL0     C28271   8.429   1.616   3.150 -0.8576 -0.3264 -0.3590
  951MOL0     C28272   8.578   1.635   3.109  0.1740 -0.0600 -1.0025
  951MOL0     C28273   8.623   1.535   3.015  0.4888  0.3638  0.4734
  951MOL0     O28274   8.742   1.599   2.964  0.4654  0.0169  0.1167
  951MOL0     C28275   8.859   1.548   3.007 -0.3664 -0.1106  0.6222
  951MOL0     C28276   8.894   1.415   2.974 -0.4056 -0.2892  0.2697
  951MOL0     C28277   9.021   1.362   3.022  0.1896 -0.1113  0.7037
  951MOL0     C28278   9.108   1.452   3.095  0.1806  0.4632 -0.2708
  951MOL0     C28279   9.240   1.401   3.133 -0.4813  0.3532  0.0089
  951MOL0     O28280   9.320   1.493   3.205  0.1607 -0.0017 -0.4878
  951MOL0     C28281   9.447   1.447   3.214 -1.0553 -1.7010 -0.0829
  951MOL0     C28282   9.553   1.507   3.134  0.9778 -0.3900  0.1704
  951MOL0     C28283   9.686   1.468   3.153 -0.3874  0.0010 -0.4753
  951MOL0     C28284   9.722   1.380   3.251  0.0631  0.2867  0.1217
  951MOL0     O28285   9.850   1.349   3.271 -0.0505 -0.5445  0.1115
  951MOL0     C28286   9.872   1.208   3.296 -1.0226  0.9639  0.2519
  951MOL0     C28287  10.017   1.174   3.254  0.3730  0.3144  0.9476
  951MOL0     C28288  10.063   1.030   3.253  0.1910 -0.6859 -0.2633
  951MOL0     C28289  10.064   0.974   3.400 -0.0470 -0.4719  0.3471
  951MOL0     C28290  10.076   0.824   3.398 -0.1144  0.1370 -0.0672
  951MOL0     C28291  10.221   0.770   3.379  0.6464  0.7395  0.1403
  951MOL0     C28292  10.323   0.827   3.474  0.1810  0.1817 -0.0204
  951MOL0     C28293  10.452   0.754   3.499 -0.1431  0.7377  0.4732
  951MOL0    Cl28294  10.580   0.860   3.568  0.3071  0.8323 -0.2648
  951MOL0     C28295   9.628   1.317   3.326 -0.2259 -0.2848  1.0359
  951MOL0     C28296   9.490   1.347   3.309  0.6054 -0.1163  0.1309
  951MOL0     O28297   9.286   1.306   3.073  0.2278 -0.1914 -0.4001
  951MOL0     C28298   9.066   1.588   3.121  0.3284  0.1238 -0.2136
  951MOL0     C28299   8.943   1.633   3.073  0.3317  0.0314 -1.2558
  951MOL0     N28300   8.185   1.583   3.295 -0.3796  0.0016 -0.6659
  951MOL0     N28301   8.069   1.609   3.352 -1.0176  0.1093  0.2178
  951MOL0     C28302   6.818   1.901   3.503  0.2134 -0.6853 -0.4099
  951MOL0     C28303   6.684   1.940   3.483  0.0890 -0.4098 -0.0080
  951MOL0     C28304   6.262   1.978   3.297  0.4445  0.2991 -0.3513
  951MOL0     C28305   6.186   1.956   3.176 -0.6098 -0.1356 -0.8004
  951MOL0     C28306   6.052   1.981   3.155 -0.4409 -0.0798 -0.0500
  951MOL0     C28307   5.985   2.043   3.259 -0.3267  0.0969  0.2172
  951MOL0     O28308   5.855   2.089   3.261  0.3961  0.0713 -0.6354
  951MOL0     C28309   5.757   2.033   3.166 -0.5011  0.1505 -0.0252
  951MOL0     C28310   5.616   2.078   3.212  0.4856  0.2707  0.4789
  951MOL0     C28311   5.503   2.025   3.114  0.6685 -0.3333  0.2101
  951MOL0     C28312   5.364   2.061   3.164 -0.0829  0.3843 -0.7408
  951MOL0     C28313   5.255   2.020   3.073 -0.0612 -0.5058 -0.5328
  951MOL0     C28314   5.168   1.988   2.987 -0.4973 -0.8493 -0.1250
  951MOL0     C28315   6.050   2.068   3.378  0.0685 -0.4354  0.2325
  951MOL0     C28316   6.189   2.037   3.404  0.1769  0.4254  0.4705
  951MOL0     C28317   6.246   2.057   3.541  0.5097  0.5647 -0.0582
  951MOL0     H28318   6.662   1.908   3.145 -0.5884  3.2237 -0.8075
  951MOL0     H28319   6.890   1.837   3.177 -2.5813 -0.1327 -0.4321
  951MOL0     H28320   7.071   1.667   3.322 -3.1736  0.7387 -4.7146
  951MOL0     H28321   7.089   1.826   3.244 -0.9061  1.2508  0.3416
  951MOL0     H28322   7.301   1.673   3.313 -2.3527 -0.6504 -1.5152
  951MOL0     H28323   7.248   1.722   3.484 -1.1850 -2.8894 -0.1080
  951MOL0     H28324   7.258   1.958   3.403  0.4271  1.0083  0.8096
  951MOL0     H28325   7.345   1.904   3.257  1.9220 -0.7659 -0.3265
  951MOL0     H28326   7.472   1.991   3.496 -3.1081  0.1548  2.8971
  951MOL0     H28327   7.439   1.825   3.534 -0.6619  0.4614 -0.7274
  951MOL0     H28328   7.553   1.748   3.327 -3.3844 -0.3414  1.2207
  951MOL0     H28329   7.594   1.918   3.294  2.8087  1.6692  2.1821
  951MOL0     H28330   7.719   1.942   3.496 -0.2072 -1.0795  1.0103
  951MOL0     H28331   7.695   1.776   3.542 -1.3942  0.4636 -0.3122
  951MOL0     H28332   7.830   1.862   3.282  1.3680  0.3110  0.1016
  951MOL0     H28333   7.791   1.693   3.323 -0.2848  0.6600  0.1382
  951MOL0     H28334   7.973   1.889   3.480 -0.1974 -0.4319 -0.7616
  951MOL0     H28335   7.929   1.728   3.537  1.5899  0.7855  0.5717
  951MOL0     H28336   8.186   1.907   3.362 -1.1062  0.2475  1.6554
  951MOL0     H28337   8.409   1.821   3.196 -1.2396  0.9282  0.8667
  951MOL0     H28338   8.459   1.722   3.343  3.4022  3.0413 -1.7018
  951MOL0     H28339   8.427   1.518   3.201  2.2216  0.3158  1.3120
  951MOL0     H28340   8.373   1.636   3.059 -0.1201  5.0690  0.0581
  951MOL0     H28341   8.634   1.631   3.203  0.3686  3.8752 -0.7698
  951MOL0     H28342   8.600   1.731   3.062  1.4533 -0.9192 -2.2523
  951MOL0     H28343   8.564   1.522   2.924  1.7172  1.1829 -0.4797
  951MOL0     H28344   8.649   1.438   3.058  3.6466  0.6011 -0.6593
  951MOL0     H28345   8.829   1.361   2.907 -0.0286  1.6616 -1.7941
  951MOL0     H28346   9.058   1.262   3.001 -2.1971 -0.6595 -1.3395
  951MOL0     H28347   9.512   1.572   3.058 -0.7800  0.5954  1.8649
  951MOL0     H28348   9.766   1.509   3.093 -0.8494  5.3782  1.9452
  951MOL0     H28349   9.855   1.177   3.399 -0.4576  0.1314  0.1028
  951MOL0     H28350   9.810   1.142   3.235  0.7975 -1.0113  0.4285
  951MOL0     H28351  10.035   1.200   3.150  1.0400 -1.7762  0.4827
  951MOL0     H28352  10.091   1.232   3.310  2.7759  0.0616 -1.7076
  951MOL0     H28353   9.998   0.972   3.188 -0.6892 -1.1739  1.0001
  951MOL0     H28354  10.152   1.043   3.191 -0.4892  3.1215 -0.7022
  951MOL0     H28355   9.979   1.010   3.458  0.1778  3.7960 -1.6087
  951MOL0     H28356  10.150   1.026   3.442  0.5627 -2.1675  1.3190
  951MOL0     H28357  10.020   0.779   3.315 -1.8543  0.6542  0.7646
  951MOL0     H28358  10.038   0.771   3.486  2.1210  0.5072  1.2043
  951MOL0     H28359  10.210   0.663   3.396 -0.6184  1.1678  2.4048
  951MOL0     H28360  10.241   0.776   3.271 -2.4336 -0.2863 -0.6040
  951MOL0     H28361  10.276   0.835   3.573  0.8316 -0.6731  0.3766
  951MOL0     H28362  10.341   0.932   3.448 -2.0967  0.2580 -1.4651
  951MOL0     H28363  10.432   0.671   3.567 -1.2985  0.6076 -0.0030
  951MOL0     H28364  10.497   0.716   3.407  0.4827 -0.8751  1.4066
  951MOL0     H28365   9.651   1.243   3.403  1.5063 -0.6738  0.2027
  951MOL0     H28366   9.412   1.316   3.378  0.1935  0.5987  0.0018
  951MOL0     H28367   9.127   1.661   3.172  0.6130 -1.7204  2.2911
  951MOL0     H28368   8.932   1.740   3.087  4.3060  0.4779 -0.5491
  951MOL0     H28369   6.856   1.881   3.603  0.2511 -2.9258 -0.8413
  951MOL0     H28370   6.610   1.946   3.563 -1.0130  2.4276 -1.1085
  951MOL0     H28371   6.246   1.925   3.091  0.0604  3.3728 -1.7529
  951MOL0     H28372   6.008   1.946   3.063  0.4770  0.3834 -0.6929
  951MOL0     H28373   5.764   1.924   3.156 -0.5960  0.0226  1.1495
  951MOL0     H28374   5.782   2.078   3.069  0.9658  3.5270  1.7582
  951MOL0     H28375   5.618   2.187   3.221 -2.5521  0.4044  0.5263
  951MOL0     H28376   5.598   2.029   3.308 -2.4993  1.0836  0.4489
  951MOL0     H28377   5.516   1.917   3.107  0.8591 -0.4407  1.8851
  951MOL0     H28378   5.514   2.076   3.018 -0.2383 -0.9558 -0.2390
  951MOL0     H28379   5.355   2.022   3.266 -1.3583 -0.4705 -1.1472
  951MOL0     H28380   5.361   2.170   3.175  0.7557  0.4489 -1.0751
  951MOL0     H28381   5.094   1.974   2.911 -0.5725 -0.9499 -0.0339
  951MOL0     H28382   6.004   2.121   3.461  5.1466  6.3970 -0.4254
  951MOL0     H28383   6.340   2.113   3.544 -1.3783  3.9250  1.2639
  951MOL0     H28384   6.175   2.112   3.604 -2.0718 -3.3683  0.8204
  951MOL0     H28385   6.270   1.960   3.585  1.4117  1.0111  0.4632
  952MOL0     O28386   9.737   1.797  10.677  0.1823 -0.7549  0.3288
  952MOL0     C28387   9.730   1.740  10.790  0.8345  0.6409  1.6670
  952MOL0     O28388   9.809   1.760  10.888 -0.0204 -0.0704 -0.4078
  952MOL0     C28389   9.883   1.877  10.880  0.3571  0.0204 -0.0848
  952MOL0     C28390   9.818   2.001  10.870  0.1443  0.4796  0.0134
  952MOL0     C28391   9.890   2.119  10.869  0.3309  0.3529  0.0979
  952MOL0     C28392  10.031   2.115  10.880  0.7949 -0.7259 -0.0772
  952MOL0     O28393  10.099   2.240  10.874 -0.5518  0.1376 -0.1626
  952MOL0     C28394  10.234   2.246  10.827  0.1825  0.5595 -0.0670
  952MOL0     C28395  10.343   2.260  10.930 -0.8339 -0.0551 -0.9126
  952MOL0     C28396  10.361   2.404  10.980  0.6958  0.4266 -1.2161
  952MOL0     C28397  10.469   2.424  11.089  0.0395 -0.0910  0.2974
  952MOL0     C28398  10.473   2.571  11.128  0.3065  0.1306  0.4047
  952MOL0     C28399  10.605   2.605  11.187 -0.6902  1.1937  0.3751
  952MOL0     C28400  10.616   2.551  11.331  0.1258  0.2812  0.1711
  952MOL0     C28401  10.724   2.630  11.415  0.0569  0.0957  0.2567
  952MOL0     N28402  10.862   2.602  11.365  0.6511 -0.2389  1.0533
  952MOL0     C28403  10.960   2.538  11.434  0.7803 -0.2929  0.0690
  952MOL0     C28404  11.072   2.574  11.381 -0.4839  0.1502  0.1416
  952MOL0     C28405  11.205   2.544  11.439  0.9764  0.1655 -0.5475
  952MOL0     C28406  11.259   2.653  11.538 -0.5273  0.1124  0.8385
  952MOL0     C28407  11.357   2.752  11.477 -0.3669  0.5511  0.3216
  952MOL0     C28408  11.493   2.683  11.458 -0.4896 -0.8292 -0.2337
  952MOL0     O28409  11.569   2.779  11.384  0.4502 -0.3617  0.4121
  952MOL0     C28410  11.707   2.768  11.397  0.1768 -0.8807 -0.4066
  952MOL0     C28411  11.788   2.881  11.380 -0.7530  0.1795 -0.5995
  952MOL0     C28412  11.927   2.875  11.386 -0.0605  0.5042  0.0824
  952MOL0     C28413  11.996   2.756  11.420 -0.2975  0.2630  0.0685
  952MOL0     C28414  12.141   2.752  11.435  0.0991  0.6740  0.9837
  952MOL0     O28415  12.198   2.644  11.485 -0.3294 -0.0307 -0.3592
  952MOL0     C28416  12.334   2.612  11.491 -0.0705 -0.4505  0.1949
  952MOL0     C28417  12.424   2.655  11.390 -0.5531  0.5637  0.5686
  952MOL0     C28418  12.563   2.637  11.419 -0.7003 -0.2154  0.2988
  952MOL0     C28419  12.611   2.571  11.530  0.1131 -0.4757  0.6424
  952MOL0     O28420  12.749   2.566  11.537  0.6756  0.8858  0.7490
  952MOL0     C28421  12.813   2.546  11.664 -0.1995  0.3683  0.8458
  952MOL0     C28422  12.943   2.472  11.640  0.3606 -0.9518  0.2058
  952MOL0     C28423  13.060   2.557  11.594  0.3022 -0.4568  0.1957
  952MOL0     C28424  13.198   2.496  11.574 -0.1038 -0.1042 -0.2019
  952MOL0     C28425  13.298   2.607  11.528 -0.0358 -0.1906  0.3936
  952MOL0     C28426  13.434   2.539  11.512 -0.0473 -0.5959  0.2656
  952MOL0     C28427  13.531   2.647  11.458 -0.7858  1.1618 -0.4163
  952MOL0     C28428  13.678   2.592  11.448 -0.5473  0.8767 -0.5431
  952MOL0    Cl28429  13.736   2.582  11.619 -0.0076  0.3967  0.5820
  952MOL0     C28430  12.514   2.526  11.628 -0.1501  0.0004 -0.4212
  952MOL0     C28431  12.379   2.536  11.603  0.4699 -0.8890  0.0977
  952MOL0     O28432  12.204   2.845  11.385 -0.0533 -0.3658 -0.8901
  952MOL0     C28433  11.918   2.641  11.445  0.0949  0.1669  0.1001
  952MOL0     C28434  11.778   2.643  11.426 -0.0642 -0.7868  0.9907
  952MOL0     N28435  11.050   2.657  11.272  0.4563  0.4602  0.3706
  952MOL0     N28436  10.923   2.679  11.270 -0.2068  0.1289  0.3281
  952MOL0     C28437  10.091   1.992  10.903  0.4786 -0.2427 -0.3558
  952MOL0     C28438  10.019   1.869  10.901 -0.3760  1.1507  0.2660
  952MOL0     C28439   9.642   1.621  10.800  0.5850  1.0410  0.3032
  952MOL0     C28440   9.643   1.551  10.920 -0.4614 -1.0060  0.1428
  952MOL0     C28441   9.559   1.444  10.944 -0.1236 -0.2132  0.7808
  952MOL0     C28442   9.467   1.399  10.851  0.5758 -0.1127  0.5294
  952MOL0     O28443   9.398   1.285  10.880  0.1333  0.6608  0.3794
  952MOL0     C28444   9.263   1.267  10.835 -0.1610 -0.8547 -0.2004
  952MOL0     C28445   9.157   1.249  10.953 -0.9919 -0.2030 -0.3741
  952MOL0     C28446   9.203   1.136  11.045  0.2300 -0.8694  0.6667
  952MOL0     C28447   9.087   1.105  11.140 -1.0578 -0.2508  0.2609
  952MOL0     C28448   9.144   1.030  11.253 -0.1139 -0.0007  0.5362
  952MOL0     C28449   9.186   0.958  11.339 -0.5550 -0.9111 -0.3575
  952MOL0     C28450   9.463   1.473  10.736 -0.7710  0.3982 -0.1048
  952MOL0     C28451   9.540   1.578  10.707 -0.3593 -0.7881 -0.0392
  952MOL0     C28452   9.515   1.640  10.570  0.4906  0.5142 -0.3395
  952MOL0     H28453   9.711   2.019  10.869  0.4197  2.3636  0.7964
  952MOL0     H28454   9.843   2.217  10.862  0.6597  0.5252  0.2574
  952MOL0     H28455  10.260   2.157  10.768 -0.2595 -1.6843  2.8900
  952MOL0     H28456  10.236   2.324  10.751 -2.6827 -1.4100 -2.3886
  952MOL0     H28457  10.438   2.247  10.879 -0.2030  1.6661 -0.2358
  952MOL0     H28458  10.321   2.205  11.022  0.6809  5.1654  3.0707
  952MOL0     H28459  10.267   2.438  11.024 -0.5399 -2.1047 -1.7262
  952MOL0     H28460  10.384   2.471  10.896 -2.1243  0.0863 -2.3735
  952MOL0     H28461  10.445   2.366  11.179 -0.4679 -3.0029 -1.5658
  952MOL0     H28462  10.563   2.393  11.044 -0.7096 -1.1619 -0.5967
  952MOL0     H28463  10.471   2.618  11.030  2.6040 -1.4582 -0.5060
  952MOL0     H28464  10.386   2.605  11.184 -0.5817  1.0788 -1.4828
  952MOL0     H28465  10.689   2.575  11.123  0.6275 -0.3176  2.6604
  952MOL0     H28466  10.609   2.714  11.192 -1.0674  1.1931  0.7522
  952MOL0     H28467  10.626   2.442  11.323 -0.8884 -0.2727  4.2924
  952MOL0     H28468  10.527   2.575  11.390  0.1581  1.0145 -0.0600
  952MOL0     H28469  10.704   2.738  11.413  1.3156  0.3387 -0.4958
  952MOL0     H28470  10.716   2.586  11.514  2.7538 -3.7670 -0.9990
  952MOL0     H28471  10.949   2.482  11.527  1.7298 -0.2118  0.2456
  952MOL0     H28472  11.183   2.448  11.487 -0.9702 -0.6810 -2.9199
  952MOL0     H28473  11.266   2.514  11.354 -0.7911  3.7286 -3.3268
  952MOL0     H28474  11.174   2.709  11.576  0.7832  0.4537  3.4826
  952MOL0     H28475  11.305   2.605  11.625 -0.1402  0.9892  1.1211
  952MOL0     H28476  11.370   2.834  11.549  1.9197 -1.5976  2.5419
  952MOL0     H28477  11.334   2.793  11.378 -2.3559 -1.0754  0.0485
  952MOL0     H28478  11.489   2.587  11.407  1.7470 -0.9571 -0.2714
  952MOL0     H28479  11.536   2.663  11.556  3.7473  1.3091 -1.4272
  952MOL0     H28480  11.747   2.976  11.346 -1.5769  0.6368  1.5403
  952MOL0     H28481  11.973   2.972  11.368 -0.2647  0.3411 -1.4502
  952MOL0     H28482  12.391   2.697  11.295  0.5063 -0.4095 -0.2656
  952MOL0     H28483  12.630   2.664  11.338 -1.8936  2.5374  0.1334
  952MOL0     H28484  12.837   2.646  11.700 -2.3455  0.7427  1.4201
  952MOL0     H28485  12.763   2.481  11.736 -0.7352 -0.5983 -0.3662
  952MOL0     H28486  12.979   2.431  11.735  3.6849 -1.3147 -1.0498
  952MOL0     H28487  12.928   2.386  11.574  1.2103 -0.6164 -0.4491
  952MOL0     H28488  13.025   2.620  11.512  0.0699  1.7337  1.8531
  952MOL0     H28489  13.086   2.629  11.673  2.9115 -0.8806 -0.1922
  952MOL0     H28490  13.187   2.413  11.504 -0.6163  0.1664 -0.4474
  952MOL0     H28491  13.220   2.455  11.673 -3.1962  1.6947  1.3715
  952MOL0     H28492  13.317   2.687  11.600  2.7328  1.4311 -1.9386
  952MOL0     H28493  13.267   2.656  11.435 -0.6911  1.0003  1.2204
  952MOL0     H28494  13.469   2.498  11.607  0.0118 -0.1264  0.4467
  952MOL0     H28495  13.427   2.454  11.443 -1.0685  0.1140 -0.5462
  952MOL0     H28496  13.522   2.746  11.503 -3.4834  1.6042 -1.7114
  952MOL0     H28497  13.515   2.663  11.351  2.0255 -1.6046 -1.4059
  952MOL0     H28498  13.682   2.493  11.403 -0.7456  0.7837 -0.3561
  952MOL0     H28499  13.750   2.659  11.399  0.3275  0.7360  0.5089
  952MOL0     H28500  12.553   2.481  11.719  0.6297  4.5033  1.8101
  952MOL0     H28501  12.311   2.495  11.677  0.6374 -0.9885  0.1991
  952MOL0     H28502  11.961   2.547  11.477 -3.7554 -2.7339 -2.3194
  952MOL0     H28503  11.724   2.554  11.459 -0.4554 -0.1725  2.0653
  952MOL0     H28504  10.198   1.983  10.917  0.3255 -3.4618 -0.5971
  952MOL0     H28505  10.065   1.771  10.900 -1.8414  0.4223 -1.1375
  952MOL0     H28506   9.708   1.583  11.001  1.2324  0.0771 -1.5491
  952MOL0     H28507   9.562   1.384  11.035 -0.5307 -1.8528 -0.2500
  952MOL0     H28508   9.256   1.185  10.763 -2.7020 -0.5296 -0.4194
  952MOL0     H28509   9.223   1.357  10.787  0.9789  1.4320  2.7765
  952MOL0     H28510   9.064   1.238  10.896 -0.3850  2.6692 -2.1498
  952MOL0     H28511   9.157   1.342  11.012 -0.6916  0.4707 -1.4026
  952MOL0     H28512   9.290   1.161  11.105  1.0981 -1.0625 -0.4809
  952MOL0     H28513   9.228   1.050  10.982 -0.2109  1.7313 -3.3997
  952MOL0     H28514   9.049   1.200  11.180  1.3647  0.9965 -0.2074
  952MOL0     H28515   9.002   1.050  11.099 -1.6558  1.1795 -0.5235
  952MOL0     H28516   9.230   0.888  11.407 -0.7416 -1.3156 -0.6470
  952MOL0     H28517   9.394   1.443  10.658  1.5154 -0.9520 -1.7275
  952MOL0     H28518   9.607   1.661  10.514  0.4534 -2.3826 -1.6765
  952MOL0     H28519   9.457   1.576  10.503 -0.9158  1.7925 -0.4009
  952MOL0     H28520   9.453   1.728  10.586  0.2895  0.0951  1.4293
  953MOL0     O28521   1.256   4.156   6.435 -1.1413  1.3379  0.6245
  953MOL0     C28522   1.248   4.110   6.547  0.5375  0.3983  0.4010
  953MOL0     O28523   1.204   4.174   6.661 -0.9480 -0.4881 -0.4491
  953MOL0     C28524   1.239   4.304   6.692 -0.2946  0.7344 -0.8091
  953MOL0     C28525   1.348   4.372   6.635 -0.1166 -0.8690 -0.2736
  953MOL0     C28526   1.370   4.504   6.674 -0.0887 -0.0988  0.0411
  953MOL0     C28527   1.299   4.564   6.774 -0.5727  0.2791  0.0609
  953MOL0     O28528   1.327   4.694   6.808  0.3004 -0.0176  0.6597
  953MOL0     C28529   1.211   4.778   6.816 -0.0714  1.0481 -0.3890
  953MOL0     C28530   1.148   4.816   6.680 -0.0115  0.3458  0.7004
  953MOL0     C28531   1.252   4.883   6.582 -0.4348 -0.8271 -0.2538
  953MOL0     C28532   1.173   4.920   6.453 -0.5317  0.3723  0.9304
  953MOL0     C28533   1.268   4.941   6.334 -0.3460  0.6823  0.0593
  953MOL0     C28534   1.209   4.876   6.205  0.6176  0.1717  0.2635
  953MOL0     C28535   1.314   4.872   6.089 -1.6326 -0.1592 -0.3519
  953MOL0     C28536   1.386   4.733   6.072 -1.0634 -0.5252 -0.4173
  953MOL0     N28537   1.476   4.726   5.950  0.5192  0.2746  0.0754
  953MOL0     C28538   1.568   4.810   5.897 -0.8873 -0.1947 -0.2168
  953MOL0     C28539   1.600   4.748   5.779  0.5199  0.4888 -0.0393
  953MOL0     C28540   1.682   4.811   5.670  0.2792  0.0700 -0.2682
  953MOL0     C28541   1.828   4.760   5.661 -0.1796  0.5939 -1.2358
  953MOL0     C28542   1.901   4.810   5.536  0.4547  0.1481 -0.0838
  953MOL0     C28543   2.051   4.786   5.554  0.1920  0.0201  0.1721
  953MOL0     O28544   2.123   4.815   5.439  0.3528  0.1205  0.4404
  953MOL0     C28545   2.258   4.794   5.449  1.6587 -0.5566 -0.3333
  953MOL0     C28546   2.326   4.732   5.546 -1.3735  0.4270 -0.3929
  953MOL0     C28547   2.472   4.723   5.537  0.8335 -0.3193 -0.1915
  953MOL0     C28548   2.544   4.775   5.426 -0.1585 -0.5592 -0.9150
  953MOL0     C28549   2.691   4.773   5.416  0.0055  0.0923 -0.0610
  953MOL0     O28550   2.751   4.717   5.524 -0.2036  0.1447  0.3886
  953MOL0     C28551   2.890   4.682   5.527  0.2578 -0.8989 -0.5382
  953MOL0     C28552   2.928   4.624   5.643 -0.4265 -0.0359  1.0182
  953MOL0     C28553   3.066   4.588   5.668 -0.3929 -0.3606 -0.4896
  953MOL0     C28554   3.158   4.600   5.565  0.5774 -0.2122 -0.1792
  953MOL0     O28555   3.284   4.557   5.599  0.0301 -0.5208 -0.1226
  953MOL0     C28556   3.391   4.619   5.529 -0.5605 -1.1863 -0.0524
  953MOL0     C28557   3.523   4.569   5.584 -0.2528  0.6674 -0.7601
  953MOL0     C28558   3.649   4.631   5.519  0.2260 -0.3315 -0.1451
  953MOL0     C28559   3.655   4.632   5.368  0.0990 -0.6106  0.1946
  953MOL0     C28560   3.777   4.705   5.314  0.5454  0.1049 -1.0516
  953MOL0     C28561   3.917   4.658   5.360  0.1483  0.5661  0.4273
  953MOL0     C28562   4.010   4.757   5.300  0.5366 -0.6926 -0.0418
  953MOL0     C28563   4.153   4.716   5.342  0.2018 -0.1722  1.0536
  953MOL0    Cl28564   4.220   4.827   5.465  0.2471  0.7207  0.4625
  953MOL0     C28565   3.119   4.652   5.440 -0.0288 -0.9769 -0.5166
  953MOL0     C28566   2.984   4.686   5.417  0.1219 -0.6945 -0.4484
  953MOL0     O28567   2.749   4.811   5.313  0.5729 -0.2706  0.2713
  953MOL0     C28568   2.474   4.845   5.327  0.2289 -0.9170  0.1573
  953MOL0     C28569   2.336   4.859   5.342  0.5682  0.8035  0.3796
  953MOL0     N28570   1.539   4.626   5.765  0.5709 -0.1544  0.7869
  953MOL0     N28571   1.468   4.613   5.874 -0.2200 -0.6416  0.5818
  953MOL0     C28572   1.194   4.493   6.838 -0.7989  0.4534 -0.3419
  953MOL0     C28573   1.166   4.362   6.796 -0.6311  0.0270  0.3678
  953MOL0     C28574   1.265   3.968   6.559 -1.0312 -0.1883 -0.3357
  953MOL0     C28575   1.379   3.898   6.513  0.5207  0.2449 -0.1329
  953MOL0     C28576   1.388   3.766   6.528  0.2245  0.4180  0.6814
  953MOL0     C28577   1.300   3.694   6.601  0.5677 -0.8187  0.5236
  953MOL0     O28578   1.300   3.558   6.649  0.0001 -0.9429  0.0261
  953MOL0     C28579   1.419   3.516   6.704 -0.1493 -0.1986 -0.3997
  953MOL0     C28580   1.457   3.400   6.619  0.6216  0.2197 -0.2300
  953MOL0     C28581   1.563   3.302   6.670 -0.1220 -0.1140  0.3170
  953MOL0     C28582   1.701   3.360   6.657 -0.3644 -0.4847 -0.5372
  953MOL0     C28583   1.739   3.457   6.760  0.5516  0.1648  0.2207
  953MOL0     C28584   1.773   3.519   6.853 -0.4449  0.9540 -0.0122
  953MOL0     C28585   1.191   3.766   6.648  0.8121  0.3265 -0.0095
  953MOL0     C28586   1.166   3.896   6.617  0.1849  0.0479  0.2240
  953MOL0     C28587   1.029   3.944   6.651  0.1494  0.3846 -0.0876
  953MOL0     H28588   1.417   4.326   6.565  0.4260 -3.4070  1.7668
  953MOL0     H28589   1.453   4.550   6.622  0.4774  0.0403  1.0332
  953MOL0     H28590   1.135   4.737   6.884 -0.7014 -0.5226 -1.9546
  953MOL0     H28591   1.249   4.868   6.866  0.2942  0.5646  0.2142
  953MOL0     H28592   1.066   4.885   6.704 -0.7540 -0.0391 -0.6342
  953MOL0     H28593   1.093   4.731   6.639  0.0063 -0.5777  2.4852
  953MOL0     H28594   1.339   4.818   6.565  1.1371  0.6100  1.7545
  953MOL0     H28595   1.293   4.972   6.630 -0.3078 -1.2195  0.3813
  953MOL0     H28596   1.108   4.838   6.422  0.8177 -0.4490  0.2188
  953MOL0     H28597   1.129   5.019   6.468  1.7707  1.5814  0.1339
  953MOL0     H28598   1.289   5.047   6.321 -0.0217  0.7505  1.0283
  953MOL0     H28599   1.364   4.893   6.352  0.2026  1.0853 -1.6560
  953MOL0     H28600   1.176   4.773   6.223  2.7969 -0.6999 -0.3868
  953MOL0     H28601   1.123   4.934   6.169  1.3357 -0.1381 -2.1524
  953MOL0     H28602   1.392   4.946   6.105 -1.4374 -0.8251  2.1364
  953MOL0     H28603   1.264   4.885   5.993  1.9866 -1.9144 -2.6941
  953MOL0     H28604   1.456   4.716   6.154 -2.7590 -2.0060  0.7975
  953MOL0     H28605   1.325   4.644   6.064  1.0840 -2.4902  2.6974
  953MOL0     H28606   1.593   4.909   5.933  0.8120 -1.1869  1.4807
  953MOL0     H28607   1.648   4.811   5.566 -1.1960  2.4784  0.1224
  953MOL0     H28608   1.677   4.918   5.693  0.4170  0.0536 -0.1651
  953MOL0     H28609   1.884   4.779   5.753 -2.3777  1.9069 -0.0862
  953MOL0     H28610   1.830   4.651   5.670  0.8022  0.6831 -0.1759
  953MOL0     H28611   1.877   4.916   5.523  0.8808  0.0923 -1.5234
  953MOL0     H28612   1.869   4.757   5.446  0.0972 -3.1347  1.8260
  953MOL0     H28613   2.070   4.679   5.559  0.5012  0.1121  1.1562
  953MOL0     H28614   2.095   4.838   5.640 -1.7713  2.0789  0.0460
  953MOL0     H28615   2.280   4.692   5.636  0.7394  0.0954  0.5814
  953MOL0     H28616   2.518   4.663   5.615 -2.8666 -0.8916  1.7643
  953MOL0     H28617   2.856   4.589   5.716 -0.8016 -2.2687 -0.3221
  953MOL0     H28618   3.083   4.540   5.764  0.3013  0.6839 -0.0784
  953MOL0     H28619   3.380   4.599   5.421  0.6130  3.4980 -1.2703
  953MOL0     H28620   3.381   4.725   5.555 -0.4046 -1.2555  0.2900
  953MOL0     H28621   3.525   4.600   5.689 -1.8936  1.5140 -0.9439
  953MOL0     H28622   3.530   4.460   5.585  3.1999  0.8062 -0.2261
  953MOL0     H28623   3.640   4.733   5.555  1.8186 -0.6521  1.3004
  953MOL0     H28624   3.735   4.587   5.571 -1.6250 -0.2340  3.2651
  953MOL0     H28625   3.563   4.678   5.328 -1.2291 -0.7739  2.8733
  953MOL0     H28626   3.661   4.526   5.344 -1.1574 -0.5497 -0.4939
  953MOL0     H28627   3.768   4.813   5.331 -1.5354  0.0811 -1.7186
  953MOL0     H28628   3.783   4.695   5.205  2.0616 -0.5561 -0.9336
  953MOL0     H28629   3.927   4.664   5.469  2.2877  0.0593  0.3120
  953MOL0     H28630   3.930   4.551   5.339 -3.0993  0.2028 -0.2834
  953MOL0     H28631   3.995   4.856   5.344 -1.9618 -0.3464 -1.4398
  953MOL0     H28632   4.002   4.775   5.192 -0.1713 -1.6785 -0.1628
  953MOL0     H28633   4.148   4.610   5.370 -3.3906 -0.2830  0.5732
  953MOL0     H28634   4.221   4.730   5.258 -1.0783 -1.4669 -0.2582
  953MOL0     H28635   3.182   4.652   5.351 -0.3440  2.0880 -0.8460
  953MOL0     H28636   2.949   4.708   5.316  0.7279  1.1810 -0.2851
  953MOL0     H28637   2.524   4.907   5.253  0.6381 -0.8803  0.4602
  953MOL0     H28638   2.286   4.921   5.268  0.1383  0.5427  0.4492
  953MOL0     H28639   1.144   4.531   6.927  0.4582 -0.5855  0.8451
  953MOL0     H28640   1.095   4.300   6.849 -1.0090  1.3161  1.4159
  953MOL0     H28641   1.457   3.942   6.451 -0.8487 -0.6219 -2.6146
  953MOL0     H28642   1.472   3.707   6.491 -2.9286 -3.0058 -1.7366
  953MOL0     H28643   1.414   3.492   6.811  1.1249  3.2343  0.5683
  953MOL0     H28644   1.497   3.591   6.685 -0.9336  0.7794  0.1534
  953MOL0     H28645   1.478   3.428   6.516 -0.3565  0.4336 -0.3829
  953MOL0     H28646   1.362   3.346   6.626  1.4164 -1.0313  2.5357
  953MOL0     H28647   1.560   3.213   6.605  0.7585  1.4537 -2.0308
  953MOL0     H28648   1.548   3.270   6.773  2.5211  0.4444  0.9447
  953MOL0     H28649   1.776   3.280   6.659  2.4172  1.9548 -0.9166
  953MOL0     H28650   1.716   3.403   6.557  2.4177 -0.4450 -0.1878
  953MOL0     H28651   1.821   3.569   6.934  3.8955 -2.3017 -0.2340
  953MOL0     H28652   1.113   3.718   6.707  0.1943 -1.9427 -2.4275
  953MOL0     H28653   1.029   4.015   6.734 -0.4078  1.5200 -1.0159
  953MOL0     H28654   0.982   3.999   6.568  0.1454  1.6348  0.7041
  953MOL0     H28655   0.968   3.856   6.672  0.9290 -0.7034 -2.0756
  954MOL0     O28656   3.266   7.158   1.035  0.4052  0.2085 -0.0896
  954MOL0     C28657   3.336   7.205   0.950  0.2667  0.1079 -0.5308
  954MOL0     O28658   3.288   7.272   0.837  0.4059 -0.5731 -0.1804
  954MOL0     C28659   3.150   7.285   0.840 -0.6287 -0.0810  0.0983
  954MOL0     C28660   3.071   7.200   0.771 -0.1013 -0.2556 -0.4372
  954MOL0     C28661   2.934   7.226   0.767 -0.7155  0.1886 -0.1263
  954MOL0     C28662   2.877   7.327   0.848  0.2078 -0.4274  0.7690
  954MOL0     O28663   2.743   7.345   0.833 -0.1353 -0.5315  0.5867
  954MOL0     C28664   2.668   7.360   0.952 -0.2154  1.3283  0.6841
  954MOL0     C28665   2.526   7.392   0.898  0.8558  0.5143  0.4883
  954MOL0     C28666   2.520   7.539   0.848 -0.2883 -1.2411 -0.0053
  954MOL0     C28667   2.390   7.600   0.891  0.1878  1.0371 -0.4576
  954MOL0     C28668   2.356   7.727   0.826  0.6241 -0.4930  0.1107
  954MOL0     C28669   2.469   7.832   0.826 -0.3295  0.4487 -0.0870
  954MOL0     C28670   2.422   7.959   0.764 -0.0179  0.1663  0.8201
  954MOL0     C28671   2.290   8.026   0.824 -0.2509  0.4623  0.5043
  954MOL0     N28672   2.266   8.162   0.772 -0.6115  0.3650  1.6489
  954MOL0     C28673   2.226   8.181   0.641  0.1836 -0.8024 -0.3901
  954MOL0     C28674   2.208   8.314   0.619  0.1712  0.2384 -0.1320
  954MOL0     C28675   2.185   8.379   0.484  0.3024  0.3695  0.6423
  954MOL0     C28676   2.257   8.508   0.470 -0.2976 -0.0928 -0.3665
  954MOL0     C28677   2.269   8.547   0.323 -0.9302  0.4019 -0.0278
  954MOL0     C28678   2.331   8.686   0.315  1.3608 -0.0849  0.1564
  954MOL0     O28679   2.350   8.732   0.185 -0.3540 -0.2250  0.4338
  954MOL0     C28680   2.412   8.864   0.173  0.6091  0.2057  0.0547
  954MOL0     C28681   2.405   8.928   0.052 -0.3851  0.6880  0.2897
  954MOL0     C28682   2.455   9.053   0.028  0.8639 -0.0074 -0.4040
  954MOL0     C28683   2.509   9.136   0.129  0.1524 -0.3468  0.0479
  954MOL0     C28684   2.564   9.268   0.101  0.2201  0.4021 -0.2883
  954MOL0     O28685   2.533   9.317  -0.024 -0.2262  0.2703  0.6656
  954MOL0     C28686   2.602   9.430  -0.054  0.0812  0.1501 -0.5280
  954MOL0     C28687   2.715   9.428  -0.132 -0.2878  0.2453  0.8686
  954MOL0     C28688   2.773   9.550  -0.167  1.8229 -0.5486  0.1837
  954MOL0     C28689   2.720   9.678  -0.116 -0.2373  0.9145 -0.1073
  954MOL0     O28690   2.777   9.792  -0.164  0.1468  0.1269  0.0319
  954MOL0     C28691   2.683   9.891  -0.211 -0.3687  0.0490  0.1073
  954MOL0     C28692   2.613   9.841  -0.344  0.5753 -0.3864  0.2507
  954MOL0     C28693   2.496   9.943  -0.373  0.2187  0.8147  0.6776
  954MOL0     C28694   2.374   9.900  -0.464 -0.5461  0.5642  0.4855
  954MOL0     C28695   2.273   9.814  -0.382 -0.8913 -0.6487 -0.5174
  954MOL0     C28696   2.166   9.746  -0.458 -0.3643  0.1896  0.0655
  954MOL0     C28697   2.046   9.691  -0.385  0.6755  0.0739 -0.4781
  954MOL0     C28698   1.964   9.784  -0.293  0.8165 -0.2114 -0.9187
  954MOL0    Cl28699   1.828   9.693  -0.219 -0.2136 -0.4842  0.2119
  954MOL0     C28700   2.611   9.669  -0.026 -0.7417 -0.3758  0.5019
  954MOL0     C28701   2.559   9.543   0.009  0.4711 -0.4939  0.5729
  954MOL0     O28702   2.649   9.307   0.178  0.3564  0.0699 -0.7632
  954MOL0     C28703   2.526   9.075   0.253  0.2891 -0.4555 -1.0728
  954MOL0     C28704   2.483   8.941   0.277 -0.3304 -0.1858 -0.1708
  954MOL0     N28705   2.222   8.374   0.742  0.5748  0.3748 -0.0348
  954MOL0     N28706   2.252   8.283   0.832  0.1790 -0.3918 -0.0918
  954MOL0     C28707   2.958   7.415   0.911  0.1997 -0.7325  0.0467
  954MOL0     C28708   3.098   7.395   0.914 -0.8076  0.3995 -0.9207
  954MOL0     C28709   3.489   7.180   0.971  0.0765  0.6501 -0.2083
  954MOL0     C28710   3.536   7.127   1.094 -0.1828 -0.2540  0.0793
  954MOL0     C28711   3.661   7.128   1.133 -0.4020 -0.3635 -0.3860
  954MOL0     C28712   3.760   7.164   1.035 -1.0637  0.4010 -0.4074
  954MOL0     O28713   3.890   7.152   1.060 -0.0495 -0.2779 -0.0318
  954MOL0     C28714   3.950   7.095   1.179 -0.4454  0.4780 -0.3110
  954MOL0     C28715   4.100   7.133   1.190 -0.0589 -0.3756 -0.2425
  954MOL0     C28716   4.180   7.124   1.055 -0.3565 -0.6030 -0.1745
  954MOL0     C28717   4.313   7.201   1.069  0.0713  0.1613 -0.0579
  954MOL0     C28718   4.399   7.184   0.951  0.0057  0.2686  0.5659
  954MOL0     C28719   4.494   7.174   0.863 -0.6087 -0.5367 -0.0846
  954MOL0     C28720   3.725   7.205   0.908  0.4617  0.7429  0.9361
  954MOL0     C28721   3.591   7.223   0.874  0.5505  1.2434 -0.3607
  954MOL0     C28722   3.561   7.274   0.743 -0.3986  0.2879 -0.0854
  954MOL0     H28723   3.110   7.114   0.718 -0.3879 -0.1978 -0.7428
  954MOL0     H28724   2.861   7.176   0.704 -1.2086  0.6507  0.0654
  954MOL0     H28725   2.677   7.275   1.020 -0.4160  1.2237  0.5806
  954MOL0     H28726   2.701   7.444   1.015 -2.4490  2.4433  0.4535
  954MOL0     H28727   2.456   7.379   0.981  0.7530  2.2412  0.7140
  954MOL0     H28728   2.497   7.322   0.819  1.9200  1.4488 -0.7735
  954MOL0     H28729   2.530   7.536   0.739  2.5770  4.5136 -0.3015
  954MOL0     H28730   2.605   7.599   0.883 -0.0873 -1.2749 -0.4308
  954MOL0     H28731   2.309   7.527   0.883 -1.3528  2.6757 -0.4448
  954MOL0     H28732   2.391   7.618   0.999 -1.1002  1.5997 -0.5260
  954MOL0     H28733   2.324   7.711   0.722 -0.8535  0.3754  0.4114
  954MOL0     H28734   2.269   7.775   0.872 -0.5931 -0.6462 -1.8732
  954MOL0     H28735   2.493   7.856   0.930 -2.0255 -1.4188  0.7976
  954MOL0     H28736   2.563   7.789   0.789  1.0239  2.4497  0.8330
  954MOL0     H28737   2.412   7.945   0.656  2.2366 -2.0670  0.8059
  954MOL0     H28738   2.505   8.031   0.766  0.3818 -0.2953  1.0853
  954MOL0     H28739   2.199   7.968   0.806  1.3097 -2.2340  0.7274
  954MOL0     H28740   2.307   8.047   0.930 -1.7991 -1.5387  1.2143
  954MOL0     H28741   2.230   8.106   0.563 -0.5244  0.3007 -1.5285
  954MOL0     H28742   2.214   8.310   0.404 -0.4149  0.7658  0.0322
  954MOL0     H28743   2.076   8.387   0.475  0.3207 -0.1790 -0.1657
  954MOL0     H28744   2.209   8.586   0.530 -0.7787 -1.4453  1.0861
  954MOL0     H28745   2.353   8.488   0.519  1.0095  0.2351 -2.6687
  954MOL0     H28746   2.169   8.546   0.278 -1.3734 -0.0171  0.9154
  954MOL0     H28747   2.332   8.473   0.273 -0.0715  0.6071  0.7230
  954MOL0     H28748   2.425   8.691   0.371  1.9777  1.0348 -0.9171
  954MOL0     H28749   2.261   8.752   0.366 -0.4950 -0.9499 -1.1700
  954MOL0     H28750   2.355   8.873  -0.027 -0.5422  1.7437 -0.3585
  954MOL0     H28751   2.455   9.086  -0.075  0.2759 -2.1091 -1.1231
  954MOL0     H28752   2.752   9.333  -0.168 -0.8957 -0.5554  2.2804
  954MOL0     H28753   2.859   9.561  -0.232  0.8920  2.6598 -0.6744
  954MOL0     H28754   2.604   9.919  -0.140 -0.6059  1.9930 -0.8540
  954MOL0     H28755   2.737   9.982  -0.237 -1.4919  0.5191 -0.6780
  954MOL0     H28756   2.680   9.844  -0.430 -0.4149  0.1327 -0.5168
  954MOL0     H28757   2.567   9.742  -0.339  1.2744 -0.7952 -0.9943
  954MOL0     H28758   2.462   9.980  -0.275  1.0125 -1.9651  2.1130
  954MOL0     H28759   2.547  10.033  -0.410 -0.2772  2.0034  2.6957
  954MOL0     H28760   2.412   9.847  -0.553  0.5337 -2.4845  2.5993
  954MOL0     H28761   2.328   9.986  -0.515  0.0864 -0.3650 -1.8063
  954MOL0     H28762   2.230   9.877  -0.303  0.4391 -0.6220  0.2105
  954MOL0     H28763   2.337   9.743  -0.329 -0.2132 -0.4441 -1.0540
  954MOL0     H28764   2.125   9.821  -0.526 -1.4056  0.4173  0.9140
  954MOL0     H28765   2.212   9.666  -0.517 -0.0063  2.5223 -3.0481
  954MOL0     H28766   2.084   9.611  -0.320 -0.6493  0.9667  1.4922
  954MOL0     H28767   1.984   9.638  -0.458  0.6015 -3.6113  1.9740
  954MOL0     H28768   2.021   9.808  -0.202 -0.7893 -1.9070  0.6291
  954MOL0     H28769   1.939   9.878  -0.342  1.9873  0.5000 -0.2117
  954MOL0     H28770   2.571   9.766   0.001 -0.1320 -0.5056  1.9402
  954MOL0     H28771   2.480   9.534   0.083 -0.1658  0.5779  0.0333
  954MOL0     H28772   2.584   9.118   0.334  1.2177 -3.9278  0.2775
  954MOL0     H28773   2.496   8.918   0.382 -1.1338  0.9659  0.1990
  954MOL0     H28774   2.916   7.500   0.964 -0.2231 -1.5886  1.1257
  954MOL0     H28775   3.171   7.458   0.965  0.1814  1.3071 -3.3186
  954MOL0     H28776   3.455   7.094   1.158 -1.4051  1.0713 -0.7303
  954MOL0     H28777   3.677   7.112   1.239  3.3537 -0.4234 -0.8005
  954MOL0     H28778   3.941   6.986   1.173 -0.4965  0.3759  1.2818
  954MOL0     H28779   3.892   7.122   1.268 -1.2096 -3.1516  0.4373
  954MOL0     H28780   4.131   7.059   1.264 -0.6302 -0.1961  0.1863
  954MOL0     H28781   4.106   7.234   1.231 -1.8273 -0.9398  1.5669
  954MOL0     H28782   4.115   7.170   0.981 -0.8073  0.2164  0.7058
  954MOL0     H28783   4.207   7.021   1.028 -2.6651 -1.7535  1.5367
  954MOL0     H28784   4.300   7.310   1.074 -1.8785  0.2206 -3.2810
  954MOL0     H28785   4.359   7.153   1.156 -3.4801 -0.3700  1.6940
  954MOL0     H28786   4.571   7.160   0.790 -0.0326 -0.5042  0.5103
  954MOL0     H28787   3.802   7.207   0.832 -2.2542  3.0811 -2.0779
  954MOL0     H28788   3.564   7.383   0.733  1.7162  0.3622  0.8064
  954MOL0     H28789   3.641   7.238   0.677 -0.8102  0.4061 -0.6539
  954MOL0     H28790   3.469   7.231   0.702 -0.8529  1.3720 -0.2283
  955MOL0     O28791   0.443   0.461   3.513 -0.7883  0.0627  0.0730
  955MOL0     C28792   0.405   0.396   3.609 -0.3751  0.5344 -0.0971
  955MOL0     O28793   0.446   0.413   3.741  0.1104  0.1598  0.1517
  955MOL0     C28794   0.568   0.467   3.775  0.4022  0.3743  0.6705
  955MOL0     C28795   0.560   0.497   3.908 -0.0092 -0.2118 -0.1295
  955MOL0     C28796   0.678   0.548   3.970  0.0736 -0.4506  0.9437
  955MOL0     C28797   0.802   0.548   3.898  0.1301  0.0831 -0.1798
  955MOL0     O28798   0.898   0.590   3.985 -0.0549 -0.6183  0.0730
  955MOL0     C28799   1.027   0.616   3.927 -0.4741  0.3504  0.1784
  955MOL0     C28800   1.110   0.694   4.029  1.0731  0.6838  0.5765
  955MOL0     C28801   1.053   0.837   4.057 -0.1197  0.3503  0.4268
  955MOL0     C28802   1.105   0.896   4.185  0.5466 -0.3057 -0.0407
  955MOL0     C28803   1.252   0.931   4.170  0.5099  0.5657 -0.4771
  955MOL0     C28804   1.312   0.971   4.307  0.9182 -0.2406  0.9703
  955MOL0     C28805   1.460   1.018   4.294  0.9868  0.0655 -0.4408
  955MOL0     C28806   1.551   0.929   4.220 -0.3313  0.1922 -0.1201
  955MOL0     N28807   1.687   0.980   4.241  0.7707 -0.0955 -0.5944
  955MOL0     C28808   1.737   1.101   4.211 -0.2306 -0.3616 -0.7674
  955MOL0     C28809   1.862   1.108   4.257 -0.0668 -0.6517 -0.2011
  955MOL0     C28810   1.954   1.227   4.245  0.4155  0.1653 -0.1293
  955MOL0     C28811   2.001   1.281   4.389 -0.3951  0.7567 -0.0711
  955MOL0     C28812   2.033   1.164   4.494 -0.4030  0.0557  0.9583
  955MOL0     C28813   2.153   1.183   4.583 -0.5502  0.1513 -0.3124
  955MOL0     O28814   2.116   1.289   4.678  0.1219 -0.4065  0.7106
  955MOL0     C28815   2.216   1.319   4.775  0.2676 -0.1460  1.1346
  955MOL0     C28816   2.165   1.407   4.875  0.4990  0.0823  0.7181
  955MOL0     C28817   2.245   1.434   4.982  0.6734 -0.3198 -0.0032
  955MOL0     C28818   2.362   1.364   5.008 -0.2811 -0.0427  0.3698
  955MOL0     C28819   2.460   1.384   5.117  0.3766 -0.4763  0.0963
  955MOL0     O28820   2.528   1.271   5.159  0.3566  0.0387 -0.3502
  955MOL0     C28821   2.622   1.265   5.265  0.2939  0.3733 -0.8830
  955MOL0     C28822   2.696   1.147   5.267 -0.3548 -0.3805  0.1171
  955MOL0     C28823   2.792   1.136   5.366  1.2136  1.4971  0.8528
  955MOL0     C28824   2.821   1.239   5.453 -0.2433 -0.2580 -1.2774
  955MOL0     O28825   2.899   1.224   5.557 -0.1619  0.1151  0.3408
  955MOL0     C28826   3.042   1.219   5.527  0.1330 -0.7601 -0.1021
  955MOL0     C28827   3.099   1.358   5.565 -0.3820  0.0822 -0.1129
  955MOL0     C28828   3.249   1.364   5.563  0.2944 -0.7028  0.6435
  955MOL0     C28829   3.311   1.487   5.633  0.0390 -0.8371 -0.6032
  955MOL0     C28830   3.468   1.461   5.664  0.1284 -0.4026  0.2449
  955MOL0     C28831   3.559   1.449   5.535  0.0318  0.2655 -0.2221
  955MOL0     C28832   3.706   1.436   5.589 -0.1773  0.4110 -0.2864
  955MOL0     C28833   3.792   1.383   5.472 -0.1854 -0.9132 -0.4449
  955MOL0    Cl28834   3.955   1.324   5.539  0.4805 -0.0960 -0.5358
  955MOL0     C28835   2.743   1.353   5.456 -0.2067 -0.2397  0.4425
  955MOL0     C28836   2.639   1.369   5.356  0.5423  0.6662  0.4359
  955MOL0     O28837   2.466   1.494   5.172  0.1290 -0.1075 -1.0258
  955MOL0     C28838   2.414   1.277   4.911  0.7712 -0.2948 -0.2928
  955MOL0     C28839   2.344   1.262   4.787  0.2780 -0.0110 -0.3383
  955MOL0     N28840   1.893   0.979   4.304  0.7693 -0.4235 -0.6790
  955MOL0     N28841   1.792   0.904   4.297  0.1311  0.2970 -0.3836
  955MOL0     C28842   0.800   0.522   3.765  1.1914 -0.0503  0.1018
  955MOL0     C28843   0.682   0.477   3.698  0.6935  0.4629  0.1617
  955MOL0     C28844   0.305   0.286   3.586  0.0039 -0.2603  0.6928
  955MOL0     C28845   0.220   0.239   3.689  0.4592  1.2710 -0.2827
  955MOL0     C28846   0.139   0.124   3.677 -0.0591  0.2793  0.0699
  955MOL0     C28847   0.127   0.061   3.561 -0.5870  0.0525 -0.7372
  955MOL0     O28848   0.035  -0.039   3.565 -0.0872  0.2334 -0.6774
  955MOL0     C28849   0.023  -0.129   3.448 -0.4783 -0.1620  0.0319
  955MOL0     C28850  -0.070  -0.253   3.479 -0.1964  0.2724  0.0652
  955MOL0     C28851  -0.216  -0.221   3.499  0.2836 -0.2071  0.4047
  955MOL0     C28852  -0.273  -0.332   3.584 -0.1757  0.0273 -0.3046
  955MOL0     C28853  -0.421  -0.323   3.600  0.3883  0.9701 -0.3271
  955MOL0     C28854  -0.541  -0.334   3.596  0.6071 -0.1169  0.1908
  955MOL0     C28855   0.194   0.105   3.451 -0.4651 -0.3571  0.5598
  955MOL0     C28856   0.281   0.217   3.463 -0.6032 -0.1506  0.1152
  955MOL0     C28857   0.355   0.258   3.335 -0.3441  0.5768 -0.3825
  955MOL0     H28858   0.474   0.495   3.974  0.6502 -1.1433  0.7321
  955MOL0     H28859   0.667   0.577   4.074  0.8775 -0.2813  0.9873
  955MOL0     H28860   1.084   0.524   3.913  1.0820  1.0618  1.4626
  955MOL0     H28861   1.014   0.677   3.837 -3.2297 -0.6738 -0.1927
  955MOL0     H28862   1.212   0.698   3.990  0.8384 -2.5650 -0.7220
  955MOL0     H28863   1.110   0.642   4.126  0.0208 -0.1560  0.1477
  955MOL0     H28864   0.946   0.815   4.068  0.1410 -0.9995  0.3939
  955MOL0     H28865   1.071   0.906   3.974  0.2342  0.7023  0.7887
  955MOL0     H28866   1.059   0.993   4.206  1.5129  0.2438 -0.3978
  955MOL0     H28867   1.090   0.840   4.278  1.1178 -0.1148  0.1740
  955MOL0     H28868   1.297   0.847   4.115  2.4698 -1.1370  3.3871
  955MOL0     H28869   1.256   1.017   4.103 -2.2929 -0.1574 -1.7283
  955MOL0     H28870   1.258   1.055   4.351  0.0527  0.0008 -0.4871
  955MOL0     H28871   1.306   0.882   4.371  1.0185 -2.6355 -2.0715
  955MOL0     H28872   1.495   1.034   4.396  2.6689  2.4535 -1.2860
  955MOL0     H28873   1.457   1.114   4.241  0.8150 -1.3686 -3.1765
  955MOL0     H28874   1.544   0.826   4.257 -1.3702 -0.8730 -3.0115
  955MOL0     H28875   1.531   0.934   4.112 -0.8959  1.7509  0.0386
  955MOL0     H28876   1.687   1.173   4.146 -1.3611  0.7994  1.2861
  955MOL0     H28877   2.037   1.183   4.188  2.6054  1.7237  1.6299
  955MOL0     H28878   1.912   1.310   4.190 -0.8577 -1.0205 -1.0004
  955MOL0     H28879   2.096   1.329   4.366  0.5533 -1.5498 -1.2009
  955MOL0     H28880   1.948   1.360   4.444  1.8675  1.6445  0.9541
  955MOL0     H28881   2.064   1.075   4.439  0.0834 -0.1004  1.4686
  955MOL0     H28882   1.940   1.140   4.547 -2.6213  1.1668 -2.1796
  955MOL0     H28883   2.244   1.210   4.529 -3.3750  1.0456 -5.1467
  955MOL0     H28884   2.176   1.089   4.636  1.5455 -0.6089 -2.4270
  955MOL0     H28885   2.067   1.453   4.866  0.1956 -0.9588 -3.4832
  955MOL0     H28886   2.218   1.506   5.059  1.9757  2.6449 -2.1001
  955MOL0     H28887   2.673   1.082   5.183  2.3170 -0.2036 -0.8349
  955MOL0     H28888   2.851   1.047   5.383  0.7309  0.8232 -0.8209
  955MOL0     H28889   3.095   1.142   5.584  1.4689 -2.4832 -3.4072
  955MOL0     H28890   3.067   1.198   5.422 -0.4772  1.9383 -0.8612
  955MOL0     H28891   3.063   1.423   5.486 -1.2852  0.0141  0.2384
  955MOL0     H28892   3.059   1.391   5.662  2.6027  0.0258  1.2737
  955MOL0     H28893   3.283   1.273   5.613 -0.6847 -3.1933 -2.8260
  955MOL0     H28894   3.291   1.349   5.463 -0.3215 -2.2724  0.5887
  955MOL0     H28895   3.259   1.519   5.724  0.2330  2.3877 -1.5071
  955MOL0     H28896   3.301   1.578   5.573 -2.7203  0.1791  1.2098
  955MOL0     H28897   3.468   1.367   5.720 -2.5083 -1.2343 -0.9818
  955MOL0     H28898   3.510   1.546   5.718  1.5028  0.2046 -1.6749
  955MOL0     H28899   3.535   1.356   5.483  1.7708 -0.1091 -0.3985
  955MOL0     H28900   3.551   1.538   5.471 -3.3603  1.5310  1.7063
  955MOL0     H28901   3.709   1.356   5.664 -2.3627  1.8110  1.4511
  955MOL0     H28902   3.751   1.522   5.639 -0.8265  0.1203  0.8580
  955MOL0     H28903   3.745   1.297   5.424 -0.2393 -0.3460 -1.4346
  955MOL0     H28904   3.806   1.458   5.393 -1.0347  1.4620  1.5134
  955MOL0     H28905   2.757   1.427   5.534 -0.7983  2.3703 -1.7621
  955MOL0     H28906   2.570   1.449   5.378 -0.6583 -0.1858 -0.1584
  955MOL0     H28907   2.517   1.244   4.912  0.3073 -1.8979  1.4579
  955MOL0     H28908   2.382   1.201   4.705  1.2020  0.0994 -0.0038
  955MOL0     H28909   0.891   0.520   3.706  1.0241 -0.0826 -0.1579
  955MOL0     H28910   0.684   0.456   3.591 -0.6574 -1.6681  0.5040
  955MOL0     H28911   0.238   0.285   3.786  4.3098  2.9986 -1.6313
  955MOL0     H28912   0.082   0.095   3.764  2.4495  0.0544  1.7608
  955MOL0     H28913   0.115  -0.171   3.406 -0.2813 -0.2086  0.5093
  955MOL0     H28914  -0.013  -0.079   3.357  2.0840 -0.0058 -1.0030
  955MOL0     H28915  -0.033  -0.291   3.575  2.0921  3.7568  0.7547
  955MOL0     H28916  -0.056  -0.319   3.393  3.8303  1.2145 -0.2190
  955MOL0     H28917  -0.260  -0.214   3.399  1.2216  1.5261  0.0696
  955MOL0     H28918  -0.221  -0.116   3.528  1.7569 -0.3082  1.1058
  955MOL0     H28919  -0.250  -0.430   3.541  0.4837  1.0479 -2.4005
  955MOL0     H28920  -0.228  -0.307   3.680 -0.0078  1.5767 -0.7516
  955MOL0     H28921  -0.647  -0.347   3.589  0.2347  2.9941 -2.2137
  955MOL0     H28922   0.188   0.045   3.361  1.2143  0.4159 -0.1117
  955MOL0     H28923   0.462   0.242   3.351 -0.4651  0.5223  0.3736
  955MOL0     H28924   0.334   0.195   3.248 -0.5972 -1.1315  0.8757
  955MOL0     H28925   0.332   0.359   3.299  0.3270  1.0261  0.4426
  956MOL0     O28926   5.644   9.541   4.430 -0.0553 -0.1750 -0.2520
  956MOL0     C28927   5.564   9.447   4.418  0.0954 -1.4526  0.0844
  956MOL0     O28928   5.592   9.316   4.446 -0.4251  0.1529 -1.0861
  956MOL0     C28929   5.713   9.271   4.488  0.4619 -0.1534 -0.3535
  956MOL0     C28930   5.799   9.345   4.573 -0.4619 -0.3948  0.8692
  956MOL0     C28931   5.922   9.299   4.610 -0.3914  0.2612  0.1424
  956MOL0     C28932   5.960   9.180   4.570 -0.3171  0.3617  0.9435
  956MOL0     O28933   6.091   9.135   4.598 -0.0572 -0.2521 -0.1129
  956MOL0     C28934   6.152   9.019   4.540 -0.6204 -0.9880 -0.3374
  956MOL0     C28935   6.133   8.896   4.635 -0.4180 -0.3779 -0.0415
  956MOL0     C28936   6.259   8.852   4.711  0.0040  0.4766  0.5792
  956MOL0     C28937   6.234   8.787   4.843  0.5412  0.6236 -0.6822
  956MOL0     C28938   6.355   8.743   4.923 -0.3643  0.6995 -0.5521
  956MOL0     C28939   6.424   8.619   4.852  1.0758 -0.0228  0.3908
  956MOL0     C28940   6.328   8.503   4.807  0.1363 -0.0297  0.9022
  956MOL0     C28941   6.277   8.434   4.933  0.7744  0.4049 -0.4121
  956MOL0     N28942   6.173   8.334   4.907 -0.0973  0.2629  0.1777
  956MOL0     C28943   6.035   8.355   4.882 -1.1602  0.0946 -0.7329
  956MOL0     C28944   5.977   8.235   4.909 -0.6884  0.6298 -0.5248
  956MOL0     C28945   5.830   8.203   4.920 -0.1384 -0.1262  0.6962
  956MOL0     C28946   5.771   8.183   4.788  0.6425  0.5336 -0.4004
  956MOL0     C28947   5.618   8.164   4.777 -0.3798  0.2453  0.4705
  956MOL0     C28948   5.536   8.286   4.816 -0.7084  0.6318  0.0014
  956MOL0     O28949   5.424   8.235   4.888  0.4116  0.0636 -0.2037
  956MOL0     C28950   5.299   8.225   4.837 -0.0653  0.0495 -0.6586
  956MOL0     C28951   5.196   8.208   4.931 -0.6327  0.0291 -0.8479
  956MOL0     C28952   5.061   8.194   4.898 -0.0545 -0.1491  0.2736
  956MOL0     C28953   5.028   8.223   4.765  0.6256  1.3377  0.1507
  956MOL0     C28954   4.892   8.241   4.721  0.5097 -0.8035 -0.3371
  956MOL0     O28955   4.798   8.225   4.818  0.5183 -0.0216  0.2698
  956MOL0     C28956   4.666   8.198   4.788  0.1478 -0.1153 -0.5928
  956MOL0     C28957   4.626   8.112   4.691  0.2603 -0.0617  0.1893
  956MOL0     C28958   4.489   8.092   4.656  0.4660  0.2634 -0.6127
  956MOL0     C28959   4.392   8.160   4.734  0.0201 -0.7503  0.4961
  956MOL0     O28960   4.262   8.137   4.703 -0.6600  0.7150  0.3682
  956MOL0     C28961   4.162   8.228   4.759 -0.4798 -1.2372 -0.2397
  956MOL0     C28962   4.018   8.206   4.717 -0.9239  0.0529 -0.5555
  956MOL0     C28963   3.967   8.073   4.771  0.2043  0.1841 -0.1858
  956MOL0     C28964   3.816   8.078   4.766 -0.2161 -0.1226 -0.3851
  956MOL0     C28965   3.758   7.951   4.836  0.0306  0.3883 -0.7453
  956MOL0     C28966   3.606   7.940   4.844 -0.0812  0.4629  0.1236
  956MOL0     C28967   3.564   7.815   4.918  0.2702 -0.6649  0.0021
  956MOL0     C28968   3.417   7.785   4.889  1.0341 -0.5070  0.3363
  956MOL0    Cl28969   3.314   7.912   4.938 -0.1217  0.3676 -0.4262
  956MOL0     C28970   4.431   8.252   4.832  0.1208  0.3920 -0.3886
  956MOL0     C28971   4.570   8.274   4.855 -0.2647  0.0445  0.7323
  956MOL0     O28972   4.865   8.261   4.600  0.7880 -0.2057 -0.3960
  956MOL0     C28973   5.126   8.242   4.673  0.2322 -0.4202  0.4620
  956MOL0     C28974   5.262   8.229   4.703 -0.0813 -0.0404 -0.1883
  956MOL0     N28975   6.084   8.139   4.932  0.9207  0.2298  0.2115
  956MOL0     N28976   6.195   8.204   4.931 -0.1004  0.1690 -0.6002
  956MOL0     C28977   5.864   9.093   4.503 -0.1353 -0.3022 -0.2083
  956MOL0     C28978   5.744   9.140   4.458 -0.0605  0.3428 -0.4689
  956MOL0     C28979   5.429   9.490   4.361  0.1302  0.9065 -0.4547
  956MOL0     C28980   5.339   9.382   4.325 -0.9210  0.1113 -0.7371
  956MOL0     C28981   5.225   9.404   4.258 -0.7824 -0.3349 -0.4421
  956MOL0     C28982   5.178   9.527   4.240 -0.3264 -0.1832 -0.5160
  956MOL0     O28983   5.060   9.553   4.174  0.4212  0.1558  0.5951
  956MOL0     C28984   4.941   9.465   4.193  0.0511 -0.0552  0.2903
  956MOL0     C28985   4.818   9.557   4.148  0.2460 -0.4671  0.0401
  956MOL0     C28986   4.692   9.476   4.170  0.6795  0.1230 -0.2837
  956MOL0     C28987   4.556   9.552   4.152 -0.5084 -0.1354 -0.5145
  956MOL0     C28988   4.443   9.473   4.207 -0.1059  0.0019 -0.5704
  956MOL0     C28989   4.351   9.409   4.252  0.0868 -0.2858  0.5398
  956MOL0     C28990   5.253   9.634   4.283 -0.0389 -0.5415 -0.0341
  956MOL0     C28991   5.379   9.617   4.338 -0.5210  0.0941 -0.8234
  956MOL0     C28992   5.445   9.749   4.382  0.4662  0.3735  0.0058
  956MOL0     H28993   5.786   9.446   4.610 -3.0670  0.4410 -1.9889
  956MOL0     H28994   5.984   9.360   4.675 -3.2788  1.4833  1.9224
  956MOL0     H28995   6.109   9.006   4.441  2.5913  2.3865 -2.4573
  956MOL0     H28996   6.257   9.047   4.523 -0.5066 -0.4669  1.0588
  956MOL0     H28997   6.088   8.812   4.580 -0.8431  0.5378 -1.1211
  956MOL0     H28998   6.065   8.934   4.712  0.7766  0.4682  0.6094
  956MOL0     H28999   6.328   8.937   4.720  0.0648  0.8424 -2.3172
  956MOL0     H29000   6.324   8.783   4.657 -0.0895 -1.3139  2.6271
  956MOL0     H29001   6.172   8.857   4.899 -0.6945 -0.9046 -0.1054
  956MOL0     H29002   6.167   8.703   4.825 -2.6717  2.4532  1.7412
  956MOL0     H29003   6.419   8.832   4.927  0.8545 -0.0148 -2.5465
  956MOL0     H29004   6.325   8.720   5.026 -0.4091 -0.7821 -0.8666
  956MOL0     H29005   6.473   8.649   4.758  1.8013 -2.5412 -0.1292
  956MOL0     H29006   6.496   8.573   4.920  0.3842 -1.8934 -0.0895
  956MOL0     H29007   6.391   8.442   4.741  0.3304  2.6437 -1.6151
  956MOL0     H29008   6.250   8.528   4.735  1.4635 -0.5428 -0.7993
  956MOL0     H29009   6.369   8.379   4.959  2.4104  1.1542 -3.9490
  956MOL0     H29010   6.239   8.500   5.010  0.1360 -1.1233  0.6340
  956MOL0     H29011   5.998   8.450   4.845  3.4194  1.5924 -2.0996
  956MOL0     H29012   5.809   8.113   4.978  1.9282 -0.3940  1.0942
  956MOL0     H29013   5.776   8.280   4.977  0.0500 -1.5809  2.9620
  956MOL0     H29014   5.796   8.265   4.720  1.0969  1.4482  0.8385
  956MOL0     H29015   5.818   8.095   4.743 -0.2105  0.6665 -1.6021
  956MOL0     H29016   5.587   8.081   4.841 -1.3333  1.3949  1.5767
  956MOL0     H29017   5.577   8.139   4.679 -1.5202  0.4352  0.8904
  956MOL0     H29018   5.521   8.339   4.722  1.0108 -0.0571 -0.6939
  956MOL0     H29019   5.593   8.348   4.885 -0.1786 -1.3161  1.3911
  956MOL0     H29020   5.218   8.212   5.037 -2.6686 -0.8908 -0.3357
  956MOL0     H29021   4.995   8.175   4.981  1.0199 -0.5156  1.0729
  956MOL0     H29022   4.701   8.043   4.653 -1.0107 -1.5583  0.3069
  956MOL0     H29023   4.475   8.007   4.590 -1.5218 -0.0440  0.1163
  956MOL0     H29024   4.159   8.217   4.868 -3.1639  2.6713  0.2831
  956MOL0     H29025   4.175   8.334   4.735 -1.6424 -1.1088 -0.3824
  956MOL0     H29026   3.958   8.283   4.766 -0.2819 -0.3246  0.8760
  956MOL0     H29027   4.000   8.219   4.610  1.1564 -0.4537 -1.0089
  956MOL0     H29028   3.994   7.993   4.702 -1.5291  1.0579 -1.9996
  956MOL0     H29029   4.002   8.047   4.871 -1.9118  1.3043  0.9209
  956MOL0     H29030   3.772   8.080   4.666  0.2270  0.4225 -0.5734
  956MOL0     H29031   3.775   8.168   4.813 -1.1943  0.9263 -3.0584
  956MOL0     H29032   3.801   7.946   4.937  1.3376  0.3200 -1.2770
  956MOL0     H29033   3.804   7.869   4.780 -0.6974 -1.0240  0.6371
  956MOL0     H29034   3.576   8.035   4.889  1.1764  0.5502  0.8408
  956MOL0     H29035   3.575   7.927   4.740  0.2822  3.9543 -0.5411
  956MOL0     H29036   3.601   7.824   5.021  0.8090  0.7882 -0.2870
  956MOL0     H29037   3.623   7.730   4.883  1.0336 -0.8722  1.7120
  956MOL0     H29038   3.408   7.772   4.781  4.1643 -0.9257  0.0442
  956MOL0     H29039   3.385   7.693   4.939  0.2046 -1.0665 -1.1535
  956MOL0     H29040   4.361   8.307   4.894  1.8559  1.6841  0.5469
  956MOL0     H29041   4.606   8.345   4.929  0.1124  1.4664 -0.7672
  956MOL0     H29042   5.102   8.259   4.568 -1.7190  0.0373  0.9456
  956MOL0     H29043   5.337   8.235   4.625 -0.9394 -1.3412 -1.1432
  956MOL0     H29044   5.903   8.994   4.483  1.3204  0.0379  0.7878
  956MOL0     H29045   5.671   9.074   4.412  1.1047 -2.3795  1.3198
  956MOL0     H29046   5.371   9.280   4.343  0.6904  0.3847 -1.8865
  956MOL0     H29047   5.167   9.317   4.227 -2.1124  0.9734 -1.8295
  956MOL0     H29048   4.923   9.431   4.296  0.2785  0.3036  0.4468
  956MOL0     H29049   4.945   9.378   4.127  0.2254  0.4194 -0.3308
  956MOL0     H29050   4.821   9.586   4.042 -0.0808 -1.7093 -0.3272
  956MOL0     H29051   4.825   9.645   4.213 -0.2224 -1.3234  1.2786
  956MOL0     H29052   4.685   9.445   4.275 -1.5564 -0.5562 -0.5779
  956MOL0     H29053   4.702   9.387   4.108  0.2762 -0.6855  0.7677
  956MOL0     H29054   4.566   9.648   4.204 -1.5987  0.1002 -0.7127
  956MOL0     H29055   4.545   9.576   4.046  0.8726  1.7155 -0.2986
  956MOL0     H29056   4.274   9.348   4.295 -0.4819 -2.0721 -2.7418
  956MOL0     H29057   5.212   9.733   4.267  1.4768  0.1436  0.1290
  956MOL0     H29058   5.463   9.746   4.490 -1.6005  0.8259  0.4101
  956MOL0     H29059   5.542   9.748   4.332 -0.8996 -0.1666 -2.9007
  956MOL0     H29060   5.395   9.839   4.344 -0.7648 -0.4058 -0.2948
  957MOL0     O29061   1.530   2.843   8.498 -0.4977 -0.1250 -0.2382
  957MOL0     C29062   1.544   2.849   8.617 -0.3747  0.4225 -0.4823
  957MOL0     O29063   1.662   2.853   8.688  0.1793 -0.8007  0.2746
  957MOL0     C29064   1.783   2.854   8.611  0.5296  0.4637 -0.0837
  957MOL0     C29065   1.893   2.923   8.660 -0.8050  0.1521  0.1800
  957MOL0     C29066   2.014   2.916   8.600 -0.2598 -1.4794  0.4397
  957MOL0     C29067   2.037   2.862   8.479 -0.0573  0.2910 -0.2925
  957MOL0     O29068   2.157   2.880   8.409  0.3234  0.4070  0.7366
  957MOL0     C29069   2.141   2.955   8.293 -0.4274 -0.3947 -0.1702
  957MOL0     C29070   2.251   3.067   8.309 -0.3013  0.2697 -0.6629
  957MOL0     C29071   2.392   3.003   8.283 -0.4798 -1.2058 -0.2880
  957MOL0     C29072   2.495   3.117   8.289 -0.2395  0.1751 -0.4478
  957MOL0     C29073   2.464   3.248   8.220 -0.6393  0.0925  0.2498
  957MOL0     C29074   2.467   3.221   8.067 -0.7922  0.1059 -0.1735
  957MOL0     C29075   2.436   3.361   8.011 -0.3104 -0.6881 -0.0627
  957MOL0     C29076   2.437   3.373   7.859  0.3837  0.8554 -0.0257
  957MOL0     N29077   2.530   3.482   7.815 -0.0428  0.0004  0.9182
  957MOL0     C29078   2.495   3.602   7.765  0.6078  0.3767  0.8059
  957MOL0     C29079   2.607   3.658   7.716 -0.6470  0.6955 -0.0790
  957MOL0     C29080   2.617   3.773   7.637  0.2022  0.1772  1.4144
  957MOL0     C29081   2.746   3.793   7.558  0.6811  0.2590  0.5982
  957MOL0     C29082   2.744   3.701   7.433 -0.7589 -0.3597  0.3991
  957MOL0     C29083   2.860   3.734   7.339  0.5504 -0.8962 -0.0054
  957MOL0     O29084   2.862   3.873   7.287  1.4988 -0.2008  0.2843
  957MOL0     C29085   2.971   3.911   7.210 -0.4454  0.4772  1.2031
  957MOL0     C29086   3.070   3.828   7.157 -0.0999  0.6281 -0.1979
  957MOL0     C29087   3.182   3.885   7.085  0.4377  0.2937  0.2980
  957MOL0     C29088   3.196   4.020   7.070  0.2557 -0.8204  0.7100
  957MOL0     C29089   3.316   4.076   7.003 -0.4564 -0.4380  0.3486
  957MOL0     O29090   3.417   3.991   6.983 -0.2277  0.4754  0.6785
  957MOL0     C29091   3.541   4.045   6.958  1.0111  0.7650 -1.2108
  957MOL0     C29092   3.632   4.055   7.061  0.4039 -1.0497 -1.0261
  957MOL0     C29093   3.761   4.099   7.034 -1.1154  0.0652  0.0983
  957MOL0     C29094   3.793   4.132   6.892 -0.4344 -0.5715  0.7617
  957MOL0     O29095   3.926   4.177   6.873 -0.2333 -0.3045 -0.0477
  957MOL0     C29096   3.956   4.206   6.740 -0.2533 -0.2645  0.8582
  957MOL0     C29097   4.088   4.291   6.718  0.8739 -0.6950 -0.0959
  957MOL0     C29098   4.212   4.225   6.776 -0.6586  0.5169 -0.3408
  957MOL0     C29099   4.340   4.301   6.767 -0.3851 -0.5627 -0.1149
  957MOL0     C29100   4.460   4.223   6.820 -0.2555 -0.1214  0.5939
  957MOL0     C29101   4.585   4.313   6.802 -0.2596  0.5674  1.2385
  957MOL0     C29102   4.714   4.234   6.838  0.8035  0.0523 -0.0251
  957MOL0     C29103   4.753   4.134   6.740 -0.2034 -0.7496  0.4618
  957MOL0    Cl29104   4.927   4.090   6.750  0.3807  0.2911 -0.0209
  957MOL0     C29105   3.707   4.110   6.784 -0.0450 -0.0917  0.3458
  957MOL0     C29106   3.576   4.079   6.826  0.6599  0.3554  0.1875
  957MOL0     O29107   3.318   4.198   6.978  0.0877 -1.0823  0.0227
  957MOL0     C29108   3.087   4.106   7.123 -0.4437  0.0499 -0.0417
  957MOL0     C29109   2.980   4.049   7.194 -0.2866 -0.0415  0.3432
  957MOL0     N29110   2.708   3.581   7.767 -0.6056  0.1722  0.4261
  957MOL0     N29111   2.663   3.478   7.819  0.1705 -0.2958 -0.0582
  957MOL0     C29112   1.933   2.781   8.433  0.2898 -0.1504 -0.2855
  957MOL0     C29113   1.803   2.776   8.495 -0.2919  0.6868 -0.0454
  957MOL0     C29114   1.413   2.833   8.681 -0.4349  0.2117  0.0294
  957MOL0     C29115   1.297   2.876   8.613  1.6882 -0.1250 -0.1246
  957MOL0     C29116   1.172   2.865   8.670  0.6142  0.3051 -0.0781
  957MOL0     C29117   1.155   2.803   8.794 -0.0096 -0.0806 -0.3442
  957MOL0     O29118   1.022   2.802   8.843  0.2510 -0.4223 -0.0319
  957MOL0     C29119   1.006   2.731   8.969  0.3531  0.2973 -0.4205
  957MOL0     C29120   1.027   2.576   8.949 -0.6843 -0.0947 -0.0314
  957MOL0     C29121   0.913   2.511   8.876 -0.0426  0.4572  0.9642
  957MOL0     C29122   0.784   2.522   8.951  1.0460 -0.9379  0.3417
  957MOL0     C29123   0.679   2.472   8.859 -0.6500  0.0277 -0.0564
  957MOL0     C29124   0.598   2.412   8.787 -0.6563  0.0392 -0.4769
  957MOL0     C29125   1.268   2.754   8.863 -0.3078 -0.3872 -0.2969
  957MOL0     C29126   1.398   2.772   8.809 -0.3706  0.1373 -0.0557
  957MOL0     C29127   1.505   2.705   8.901 -0.2276 -0.2360 -0.4110
  957MOL0     H29128   1.889   2.963   8.761 -1.8547  1.4087 -0.3363
  957MOL0     H29129   2.102   2.966   8.639 -0.6199  0.9349 -1.5702
  957MOL0     H29130   2.152   2.888   8.207  3.0483  0.4148 -0.5206
  957MOL0     H29131   2.046   3.009   8.293  0.4318  1.3071 -2.9179
  957MOL0     H29132   2.242   3.113   8.408  0.8159 -3.8619  1.5961
  957MOL0     H29133   2.231   3.140   8.230  0.4810 -1.6384 -2.7363
  957MOL0     H29134   2.387   2.942   8.192 -0.0147  2.1520 -2.7282
  957MOL0     H29135   2.419   2.940   8.369  1.1690  1.2047  1.0600
  957MOL0     H29136   2.531   3.140   8.390 -1.2233 -0.1120 -0.0185
  957MOL0     H29137   2.573   3.071   8.228 -2.0539 -0.9873 -2.0200
  957MOL0     H29138   2.371   3.291   8.260 -1.5591 -1.3758 -0.2615
  957MOL0     H29139   2.542   3.321   8.245  0.3821 -0.9841  0.2747
  957MOL0     H29140   2.566   3.191   8.033 -0.1019  1.2213  0.7774
  957MOL0     H29141   2.397   3.147   8.028  0.1453 -0.0542 -1.6074
  957MOL0     H29142   2.515   3.426   8.051 -0.0729  1.2736 -3.3366
  957MOL0     H29143   2.344   3.396   8.059  2.4362 -0.0870  5.5739
  957MOL0     H29144   2.471   3.282   7.808 -0.1161  0.2202  0.7554
  957MOL0     H29145   2.333   3.375   7.827 -0.6652 -0.9078  2.8924
  957MOL0     H29146   2.399   3.644   7.738 -0.0983 -3.0226 -3.0049
  957MOL0     H29147   2.536   3.785   7.565  1.4373  2.2715  0.2813
  957MOL0     H29148   2.614   3.854   7.710  0.4257  1.3067  0.1971
  957MOL0     H29149   2.747   3.898   7.528  0.6368  0.4660  1.3090
  957MOL0     H29150   2.835   3.763   7.614  0.9647  0.1281  0.0867
  957MOL0     H29151   2.658   3.715   7.366  0.7815  0.3250 -1.5479
  957MOL0     H29152   2.753   3.597   7.465 -1.8271 -0.7370 -0.4501
  957MOL0     H29153   2.868   3.666   7.254  0.0813  0.8075 -1.4801
  957MOL0     H29154   2.959   3.728   7.387  2.0667 -1.1921 -2.9609
  957MOL0     H29155   3.061   3.720   7.161 -0.4713  0.5964 -1.3895
  957MOL0     H29156   3.247   3.811   7.040 -0.2082 -2.0417  2.9485
  957MOL0     H29157   3.596   4.033   7.161 -0.3234  3.7290 -0.0209
  957MOL0     H29158   3.842   4.094   7.107 -1.3450  0.8902  0.4249
  957MOL0     H29159   3.976   4.109   6.694  1.4692  0.9259 -1.0135
  957MOL0     H29160   3.873   4.259   6.692  1.1848  2.5590  1.2857
  957MOL0     H29161   4.096   4.308   6.611 -2.2321 -1.3080 -0.5201
  957MOL0     H29162   4.054   4.383   6.767 -1.4243 -1.6166  0.2192
  957MOL0     H29163   4.195   4.195   6.880 -0.1417 -2.2384 -0.9582
  957MOL0     H29164   4.224   4.127   6.729  0.2976 -1.0909  2.8861
  957MOL0     H29165   4.338   4.408   6.791 -2.6279 -0.6036  0.0818
  957MOL0     H29166   4.356   4.308   6.658 -2.6695  0.3473 -0.4347
  957MOL0     H29167   4.468   4.135   6.756  1.5615  1.4322 -1.5015
  957MOL0     H29168   4.444   4.195   6.924 -0.8204  0.0195  0.5480
  957MOL0     H29169   4.596   4.342   6.697  0.7520 -0.6104  0.9862
  957MOL0     H29170   4.564   4.401   6.864 -0.5991  1.5886 -0.2850
  957MOL0     H29171   4.706   4.196   6.940 -0.6168  2.1935  0.7395
  957MOL0     H29172   4.796   4.307   6.843  0.7597  0.0791  0.3448
  957MOL0     H29173   4.695   4.043   6.754  0.1993 -1.3649 -1.5993
  957MOL0     H29174   4.728   4.172   6.641 -4.0956  1.9559  2.2400
  957MOL0     H29175   3.726   4.131   6.679  3.0201 -0.3181  0.7673
  957MOL0     H29176   3.502   4.067   6.748  1.3928  2.5973 -0.9438
  957MOL0     H29177   3.097   4.214   7.119  1.2735 -0.0758  0.4722
  957MOL0     H29178   2.906   4.116   7.238 -4.0309 -2.8052 -1.1872
  957MOL0     H29179   1.938   2.731   8.337 -1.0778  0.0068 -0.4613
  957MOL0     H29180   1.728   2.716   8.445 -1.4362  3.1190 -1.3975
  957MOL0     H29181   1.302   2.924   8.515  2.4757  0.1307  0.0329
  957MOL0     H29182   1.087   2.903   8.616  1.4357  0.4947 -1.2756
  957MOL0     H29183   0.906   2.749   9.010 -0.3103 -1.7279 -1.0171
  957MOL0     H29184   1.072   2.770   9.047 -1.0029 -3.1083  2.7842
  957MOL0     H29185   1.025   2.530   9.048 -2.3706 -1.9755 -0.8639
  957MOL0     H29186   1.125   2.545   8.911  0.1919  1.1058  1.1729
  957MOL0     H29187   0.938   2.405   8.864 -1.5001  0.4281 -4.9721
  957MOL0     H29188   0.897   2.549   8.775 -1.0509 -1.4220  0.3821
  957MOL0     H29189   0.784   2.472   9.048  1.1346 -0.9769  0.3217
  957MOL0     H29190   0.758   2.627   8.967 -2.3814 -1.5842 -0.2216
  957MOL0     H29191   0.528   2.353   8.733 -0.4472  1.5680 -2.5431
  957MOL0     H29192   1.263   2.712   8.963 -0.0600 -1.6071 -0.7740
  957MOL0     H29193   1.575   2.779   8.943  1.1413 -1.0181 -1.2271
  957MOL0     H29194   1.455   2.646   8.978 -1.2634  0.5358 -0.4739
  957MOL0     H29195   1.576   2.637   8.852  0.1021 -0.8818  0.9029
  958MOL0     O29196   4.679   4.667   8.901 -0.6979 -0.3373  0.1455
  958MOL0     C29197   4.571   4.620   8.941  0.3792  0.3406 -0.5890
  958MOL0     O29198   4.559   4.515   9.035  0.4813 -0.5799 -0.0479
  958MOL0     C29199   4.681   4.452   9.067  0.5480  0.2951  0.0483
  958MOL0     C29200   4.699   4.440   9.208  0.2156  0.0837  0.6610
  958MOL0     C29201   4.822   4.392   9.246  0.2260  0.3888 -0.2189
  958MOL0     C29202   4.922   4.348   9.156  1.2381  0.5642  0.7234
  958MOL0     O29203   5.038   4.304   9.201  0.2822 -0.1857  0.5129
  958MOL0     C29204   5.157   4.356   9.144 -1.0182  0.2490  0.3064
  958MOL0     C29205   5.271   4.279   9.211 -0.2456 -0.6431 -0.9130
  958MOL0     C29206   5.404   4.323   9.162 -0.6186 -0.0344  0.4757
  958MOL0     C29207   5.517   4.240   9.231  0.6048  0.1655 -0.8944
  958MOL0     C29208   5.571   4.328   9.341 -0.5353  0.4820 -0.4814
  958MOL0     C29209   5.695   4.256   9.390  0.2586 -0.2805 -0.1555
  958MOL0     C29210   5.817   4.253   9.290  0.2913 -0.5180 -0.2272
  958MOL0     C29211   5.949   4.185   9.348 -0.2187 -0.3754 -1.0780
  958MOL0     N29212   6.054   4.184   9.248 -0.6494 -0.9948 -0.2864
  958MOL0     C29213   6.089   4.076   9.174 -0.2973 -0.3829 -0.1242
  958MOL0     C29214   6.210   4.102   9.121  0.1366  0.0396 -0.3007
  958MOL0     C29215   6.284   4.010   9.032  0.1990  0.0104  0.1555
  958MOL0     C29216   6.297   4.057   8.889  0.9011 -0.1897 -0.0604
  958MOL0     C29217   6.165   4.049   8.809  0.2935  0.5318 -0.5720
  958MOL0     C29218   6.067   4.167   8.810 -0.4732 -0.7048 -0.3441
  958MOL0     O29219   6.121   4.289   8.749 -1.3263  0.2380 -0.2433
  958MOL0     C29220   6.119   4.294   8.608  0.9787 -0.0318  0.6312
  958MOL0     C29221   6.070   4.187   8.523  0.3149 -0.2315 -0.6049
  958MOL0     C29222   6.073   4.196   8.389  0.4425  0.3090  0.2035
  958MOL0     C29223   6.116   4.311   8.322 -0.0555 -0.2633 -0.2846
  958MOL0     C29224   6.105   4.316   8.177  1.0735  0.3434  0.6352
  958MOL0     O29225   5.999   4.242   8.127  0.7299 -0.4702 -0.1533
  958MOL0     C29226   5.967   4.258   7.996 -0.2247 -0.2191  0.5669
  958MOL0     C29227   5.860   4.335   7.958  0.0080 -0.3369  0.1117
  958MOL0     C29228   5.827   4.346   7.823 -0.4032  0.8156  1.1726
  958MOL0     C29229   5.897   4.289   7.724 -0.1390  0.9414 -0.1614
  958MOL0     O29230   5.845   4.292   7.600 -0.5511  0.6706 -0.0105
  958MOL0     C29231   5.912   4.232   7.487 -0.6019 -0.4837 -0.2206
  958MOL0     C29232   5.852   4.277   7.354 -0.5109  1.2901 -0.0085
  958MOL0     C29233   5.882   4.409   7.311 -0.1256  0.0464  0.5498
  958MOL0     C29234   6.029   4.440   7.288 -1.1775 -0.1917  0.3102
  958MOL0     C29235   6.043   4.596   7.274 -0.8958  0.1523 -0.9283
  958MOL0     C29236   6.049   4.645   7.129 -0.1725 -0.1416 -0.2515
  958MOL0     C29237   5.917   4.634   7.051 -0.7893  0.2619 -0.3767
  958MOL0     C29238   5.886   4.724   6.939 -0.4284 -0.9845  0.5236
  958MOL0    Cl29239   5.736   4.679   6.855 -0.2706  0.2339  0.5093
  958MOL0     C29240   6.009   4.207   7.767 -0.0809  0.0645 -0.2466
  958MOL0     C29241   6.050   4.203   7.899  0.7022  0.7691  0.0444
  958MOL0     O29242   6.184   4.380   8.113  0.1242 -0.0017 -0.1029
  958MOL0     C29243   6.170   4.422   8.401 -0.2928  0.3948 -0.2128
  958MOL0     C29244   6.166   4.410   8.540  1.1348  0.4154 -0.8172
  958MOL0     N29245   6.236   4.235   9.149  0.4190  0.7532 -0.8659
  958MOL0     N29246   6.147   4.285   9.226 -0.2678  0.8147  0.5151
  958MOL0     C29247   4.890   4.343   9.016 -0.2761  0.2135  0.8110
  958MOL0     C29248   4.768   4.390   8.974 -0.0424 -0.1881  0.3529
  958MOL0     C29249   4.447   4.679   8.896  0.8482 -0.7752 -0.4934
  958MOL0     C29250   4.342   4.714   8.990 -0.0771  0.4934 -0.1297
  958MOL0     C29251   4.218   4.764   8.946  0.4565 -0.7690  0.1264
  958MOL0     C29252   4.204   4.809   8.821  0.1559  0.2546 -1.2571
  958MOL0     O29253   4.082   4.854   8.785 -0.0144  0.1357  0.2084
  958MOL0     C29254   4.010   4.796   8.674 -0.5671 -0.7158  0.0704
  958MOL0     C29255   3.868   4.787   8.702 -0.6150 -0.2456 -0.2088
  958MOL0     C29256   3.843   4.676   8.808 -0.1779  0.8238  0.1286
  958MOL0     C29257   3.839   4.544   8.753  0.0718 -0.0867  0.4736
  958MOL0     C29258   3.813   4.452   8.859  0.5605 -0.5342 -0.0929
  958MOL0     C29259   3.779   4.367   8.942  0.0435 -0.3302 -0.7287
  958MOL0     C29260   4.309   4.792   8.731  0.2098  0.2530  0.0997
  958MOL0     C29261   4.428   4.722   8.769  0.0720  1.4332  0.9383
  958MOL0     C29262   4.531   4.686   8.661 -0.6989 -0.2649 -0.7670
  958MOL0     H29263   4.614   4.471   9.269  1.0866  1.4008  1.2511
  958MOL0     H29264   4.841   4.372   9.351 -1.0515 -2.6221 -0.4775
  958MOL0     H29265   5.161   4.345   9.035 -1.4614  0.9057  0.2179
  958MOL0     H29266   5.154   4.462   9.170 -2.6189 -0.1209  1.8630
  958MOL0     H29267   5.241   4.177   9.188  0.0067 -0.2118 -3.4775
  958MOL0     H29268   5.277   4.289   9.320  2.9742  0.5004 -1.0756
  958MOL0     H29269   5.411   4.432   9.166 -1.9740  0.1031 -0.3772
  958MOL0     H29270   5.406   4.295   9.056  1.2197 -1.9602  0.9420
  958MOL0     H29271   5.466   4.154   9.277  0.7384  1.1652  1.2517
  958MOL0     H29272   5.599   4.215   9.164  0.8705  0.4757 -0.6875
  958MOL0     H29273   5.595   4.433   9.320 -0.5460  0.2900 -1.4708
  958MOL0     H29274   5.501   4.338   9.425 -0.9219  0.6775 -0.8178
  958MOL0     H29275   5.724   4.312   9.479  0.7857  1.1234 -1.1737
  958MOL0     H29276   5.670   4.151   9.408  1.1559 -0.3461  0.7474
  958MOL0     H29277   5.841   4.346   9.238  1.4986 -1.2388 -1.0082
  958MOL0     H29278   5.790   4.182   9.212 -2.2338 -2.9724  2.6600
  958MOL0     H29279   5.987   4.245   9.431 -1.2468 -0.2116 -0.7185
  958MOL0     H29280   5.932   4.084   9.385  0.3307  0.5128  1.8675
  958MOL0     H29281   6.031   3.987   9.153  0.4235 -0.3962 -2.2908
  958MOL0     H29282   6.387   4.004   9.068  1.3418 -1.5884 -3.0464
  958MOL0     H29283   6.241   3.909   9.039  0.6054 -0.1576  0.2666
  958MOL0     H29284   6.346   4.155   8.890  2.0850 -0.7506  1.7303
  958MOL0     H29285   6.369   3.994   8.835 -0.1157 -0.9687 -0.5554
  958MOL0     H29286   6.094   3.969   8.836  1.2583 -0.4835 -0.9505
  958MOL0     H29287   6.197   4.019   8.709  0.1379  0.8008 -0.7041
  958MOL0     H29288   6.048   4.188   8.916  1.2822  0.1898 -0.1765
  958MOL0     H29289   5.970   4.139   8.766 -1.1419  0.6861  0.1974
  958MOL0     H29290   6.054   4.091   8.571  3.3146 -0.1610  0.7216
  958MOL0     H29291   6.031   4.110   8.338 -3.0049  0.2679  2.7438
  958MOL0     H29292   5.803   4.377   8.040  2.0303 -1.0396  2.0012
  958MOL0     H29293   5.728   4.380   7.794  0.0440  2.0508  1.0714
  958MOL0     H29294   6.021   4.242   7.494 -0.5905 -1.9055  3.7255
  958MOL0     H29295   5.897   4.123   7.489 -0.0730 -0.5819 -1.1226
  958MOL0     H29296   5.875   4.202   7.278 -1.3862  0.2729  0.6887
  958MOL0     H29297   5.743   4.266   7.349 -0.2197 -2.0446 -2.6836
  958MOL0     H29298   5.828   4.432   7.219 -4.3285 -3.2485  1.8217
  958MOL0     H29299   5.845   4.473   7.392 -1.4024  1.3315 -0.9856
  958MOL0     H29300   6.076   4.388   7.204  1.5720  3.7597 -0.9048
  958MOL0     H29301   6.079   4.408   7.380  0.6642 -0.8271 -0.8341
  958MOL0     H29302   6.136   4.630   7.320 -0.9842  0.3263 -0.8783
  958MOL0     H29303   5.970   4.650   7.334 -0.6507 -0.4752 -0.0421
  958MOL0     H29304   6.053   4.752   7.153  0.6008 -0.2759  0.2746
  958MOL0     H29305   6.137   4.615   7.071 -0.1303  1.4054 -1.0311
  958MOL0     H29306   5.830   4.634   7.118 -1.6414  1.1956 -1.4385
  958MOL0     H29307   5.925   4.534   7.006  0.7605 -0.2889  1.0429
  958MOL0     H29308   5.871   4.824   6.982 -1.0062 -0.3664 -1.0367
  958MOL0     H29309   5.963   4.736   6.862 -0.7913  3.4828  0.5732
  958MOL0     H29310   6.057   4.151   7.687  0.0145 -2.6965  1.5936
  958MOL0     H29311   6.138   4.144   7.920 -0.2948  0.1914  3.0255
  958MOL0     H29312   6.201   4.515   8.354 -0.0170  1.9322  2.7320
  958MOL0     H29313   6.207   4.491   8.600 -0.7598  2.7174 -2.4438
  958MOL0     H29314   4.955   4.308   8.936 -0.6147 -2.4907  1.6361
  958MOL0     H29315   4.739   4.395   8.870 -0.6948 -1.8706  0.4277
  958MOL0     H29316   4.358   4.685   9.093  1.1853  0.6306 -0.2769
  958MOL0     H29317   4.134   4.772   9.014  0.7055 -0.7713  0.4349
  958MOL0     H29318   4.059   4.700   8.654  1.0785  0.4305 -1.6188
  958MOL0     H29319   4.024   4.869   8.594 -3.5870  1.4096  1.2678
  958MOL0     H29320   3.807   4.765   8.614 -0.6830 -2.3100  0.3011
  958MOL0     H29321   3.835   4.883   8.740  1.7767  0.3627  0.5526
  958MOL0     H29322   3.748   4.699   8.858  0.0078  1.4972  0.1820
  958MOL0     H29323   3.914   4.671   8.891  0.3742 -0.5063 -0.4001
  958MOL0     H29324   3.769   4.531   8.670  1.6956 -3.3682 -0.6090
  958MOL0     H29325   3.933   4.524   8.699 -1.8029 -1.6666 -2.5141
  958MOL0     H29326   3.750   4.288   9.010  3.2050  0.4629  1.7634
  958MOL0     H29327   4.288   4.834   8.633 -2.5000 -0.7536  0.1699
  958MOL0     H29328   4.613   4.756   8.679 -0.0280 -0.4231 -2.9952
  958MOL0     H29329   4.562   4.582   8.655 -2.1869 -0.8256  0.5919
  958MOL0     H29330   4.482   4.706   8.565  2.5567  1.5473 -2.2392
  959MOL0     O29331   6.571   0.769   6.642 -0.1894  0.3436 -0.2856
  959MOL0     C29332   6.504   0.674   6.611  1.1495  0.2939  0.0332
  959MOL0     O29333   6.550   0.551   6.568  0.5839  0.0556 -0.0622
  959MOL0     C29334   6.670   0.497   6.592 -1.1219 -0.7596  0.4882
  959MOL0     C29335   6.789   0.572   6.628  0.5400 -0.0102 -0.3582
  959MOL0     C29336   6.909   0.501   6.644 -0.4969 -0.5690  0.6093
  959MOL0     C29337   6.918   0.364   6.606  0.4182 -0.4070 -1.1890
  959MOL0     O29338   7.036   0.296   6.611  0.2220  0.1232 -0.2698
  959MOL0     C29339   7.146   0.366   6.560  0.2158 -0.1618 -0.1133
  959MOL0     C29340   7.239   0.254   6.497 -1.1872  0.0276  0.8523
  959MOL0     C29341   7.183   0.198   6.367 -0.1383  0.8715 -0.3098
  959MOL0     C29342   7.221   0.290   6.252  0.6099 -0.8233 -0.1865
  959MOL0     C29343   7.185   0.221   6.120 -0.1612  0.2347 -0.5333
  959MOL0     C29344   7.216   0.307   6.001  0.3123 -0.0874 -0.0853
  959MOL0     C29345   7.161   0.241   5.871 -0.2890  0.5121  0.2364
  959MOL0     C29346   7.135   0.345   5.773 -0.3907 -0.0831 -0.2662
  959MOL0     N29347   7.262   0.394   5.719  0.2810 -0.2915  0.3978
  959MOL0     C29348   7.319   0.341   5.611 -0.0467 -0.3986  0.2176
  959MOL0     C29349   7.429   0.417   5.588 -0.0841  0.4043  0.2946
  959MOL0     C29350   7.524   0.397   5.467 -1.0456  0.4666 -0.2762
  959MOL0     C29351   7.670   0.381   5.508 -1.0432 -0.0172 -0.3530
  959MOL0     C29352   7.729   0.519   5.541  0.4833 -0.4082 -0.7880
  959MOL0     C29353   7.865   0.499   5.611  0.0649  0.5594  0.6630
  959MOL0     O29354   7.903   0.616   5.679  0.4692  0.0358 -0.2970
  959MOL0     C29355   8.035   0.646   5.687  0.3397 -0.5202  0.1120
  959MOL0     C29356   8.109   0.672   5.568  0.4904  0.5761 -1.6808
  959MOL0     C29357   8.248   0.695   5.582  0.1870  0.0409 -0.2064
  959MOL0     C29358   8.307   0.680   5.717 -0.0968 -0.7350 -0.0228
  959MOL0     C29359   8.454   0.695   5.730  0.1368 -0.3019 -0.3978
  959MOL0     O29360   8.531   0.729   5.626 -0.1699  0.1341  0.2836
  959MOL0     C29361   8.664   0.764   5.630  0.5532 -0.4474 -0.9935
  959MOL0     C29362   8.738   0.797   5.744  0.2579  0.2983  0.8821
  959MOL0     C29363   8.878   0.798   5.751  0.1557  0.4061 -0.6022
  959MOL0     C29364   8.941   0.784   5.630  0.3842 -0.5331 -0.1752
  959MOL0     O29365   9.075   0.802   5.630 -0.0828  0.3776 -0.4873
  959MOL0     C29366   9.121   0.898   5.532 -0.1020  0.0965  0.2448
  959MOL0     C29367   9.269   0.908   5.555  0.0719  0.0949 -0.0142
  959MOL0     C29368   9.344   0.781   5.500 -0.3086  0.8083  0.4992
  959MOL0     C29369   9.499   0.806   5.504 -0.4192 -0.3499 -0.1654
  959MOL0     C29370   9.540   0.861   5.647 -0.6055  0.1528  0.0875
  959MOL0     C29371   9.697   0.867   5.656  0.9217 -1.2633  0.5812
  959MOL0     C29372   9.731   0.961   5.773 -0.5843 -0.8634 -0.6164
  959MOL0     C29373   9.889   0.966   5.779  0.3655  0.5649 -0.0186
  959MOL0    Cl29374   9.950   0.964   5.951 -0.4268  0.7497  0.0943
  959MOL0     C29375   8.875   0.761   5.506 -0.1300  0.2730 -0.1827
  959MOL0     C29376   8.740   0.748   5.514  0.1391 -0.6658  0.5287
  959MOL0     O29377   8.506   0.670   5.840 -0.2766 -0.6556  0.7014
  959MOL0     C29378   8.224   0.661   5.825  0.3042 -0.0774 -0.7576
  959MOL0     C29379   8.088   0.647   5.812  0.5732  0.0898 -0.5847
  959MOL0     N29380   7.433   0.509   5.686  0.8339  0.6271 -1.1086
  959MOL0     N29381   7.331   0.501   5.763 -0.1883 -0.5387 -0.1242
  959MOL0     C29382   6.802   0.299   6.569 -0.2093 -0.0982  0.9461
  959MOL0     C29383   6.680   0.362   6.554 -1.0518  0.1660 -0.4139
  959MOL0     C29384   6.358   0.703   6.614 -0.3091 -0.8310  0.2964
  959MOL0     C29385   6.293   0.805   6.696  0.0720 -0.0548  0.2212
  959MOL0     C29386   6.161   0.840   6.691 -0.3838  0.4527  0.9637
  959MOL0     C29387   6.071   0.747   6.624  0.1808 -0.1836 -0.0492
  959MOL0     O29388   5.937   0.775   6.614  0.6955 -0.2689 -0.0578
  959MOL0     C29389   5.879   0.898   6.650  0.6970  0.3473 -0.5777
  959MOL0     C29390   5.733   0.907   6.610 -0.5547 -0.0457  0.0099
  959MOL0     C29391   5.732   0.921   6.456  0.2082  0.3659  0.1773
  959MOL0     C29392   5.592   0.922   6.406  0.1746 -0.2571 -0.2730
  959MOL0     C29393   5.556   0.786   6.372 -0.5564  0.5718 -0.0727
  959MOL0     C29394   5.518   0.671   6.354 -0.1151  0.8322  0.6927
  959MOL0     C29395   6.132   0.636   6.566  0.4142 -0.1617  0.4352
  959MOL0     C29396   6.267   0.611   6.557  0.6686  0.8890 -0.2512
  959MOL0     C29397   6.291   0.485   6.479 -0.3406  0.4415  0.5673
  959MOL0     H29398   6.785   0.677   6.653  1.5363  0.5625 -2.3826
  959MOL0     H29399   6.991   0.554   6.692 -1.2178 -0.4682  1.7717
  959MOL0     H29400   7.119   0.444   6.488  0.5625 -1.2440 -1.4483
  959MOL0     H29401   7.197   0.409   6.647 -1.7900 -0.0240  1.0442
  959MOL0     H29402   7.259   0.171   6.565  0.3674 -1.2256 -1.0232
  959MOL0     H29403   7.335   0.302   6.474 -1.8000  1.7389  1.7123
  959MOL0     H29404   7.077   0.170   6.368  0.7489 -3.3472 -2.1200
  959MOL0     H29405   7.230   0.101   6.349 -0.4650  0.4291  1.1356
  959MOL0     H29406   7.171   0.387   6.251 -0.4046 -1.3183  0.5112
  959MOL0     H29407   7.328   0.306   6.236  0.5224 -1.8068 -1.9845
  959MOL0     H29408   7.235   0.124   6.111  2.3827  1.1230  2.2944
  959MOL0     H29409   7.077   0.203   6.124 -0.2302  0.6483 -0.5112
  959MOL0     H29410   7.181   0.411   6.007  0.0701 -0.2186  1.0461
  959MOL0     H29411   7.324   0.327   5.994  0.0380  1.0441 -1.5607
  959MOL0     H29412   7.069   0.186   5.894 -0.0969  0.9520  2.2407
  959MOL0     H29413   7.226   0.165   5.829 -0.4677  1.1192 -1.2094
  959MOL0     H29414   7.085   0.302   5.686  1.6554  0.8922 -2.0047
  959MOL0     H29415   7.080   0.433   5.806  0.5338  0.8605 -1.1529
  959MOL0     H29416   7.291   0.245   5.570  0.3526 -0.1339 -0.7050
  959MOL0     H29417   7.495   0.313   5.403 -0.4633  1.0643 -1.3645
  959MOL0     H29418   7.522   0.485   5.402 -1.0749 -0.8755 -2.1908
  959MOL0     H29419   7.669   0.315   5.595  2.6005  1.1386  0.7278
  959MOL0     H29420   7.723   0.339   5.422 -0.5976  2.3214 -1.3093
  959MOL0     H29421   7.669   0.583   5.606  0.3014  0.4809 -1.7912
  959MOL0     H29422   7.727   0.570   5.444 -1.1222  1.0996 -0.0143
  959MOL0     H29423   7.937   0.469   5.534 -2.8323 -1.2437 -1.5516
  959MOL0     H29424   7.852   0.420   5.685  1.0380 -1.9267 -1.6594
  959MOL0     H29425   8.056   0.670   5.474 -1.2990  1.6439 -0.7454
  959MOL0     H29426   8.298   0.698   5.486  1.4073  0.6447  0.4186
  959MOL0     H29427   8.682   0.832   5.830 -3.2203  1.8864 -1.7501
  959MOL0     H29428   8.915   0.813   5.852 -0.8702 -1.2242  0.0665
  959MOL0     H29429   9.116   0.853   5.433  1.2702 -0.7886  0.5467
  959MOL0     H29430   9.066   0.992   5.531  0.4534  0.4421 -2.0477
  959MOL0     H29431   9.307   0.992   5.496  0.2875 -0.8145 -1.2071
  959MOL0     H29432   9.284   0.911   5.663 -2.6408  1.8513  0.4138
  959MOL0     H29433   9.316   0.679   5.529 -0.7142  0.8393  0.2216
  959MOL0     H29434   9.316   0.774   5.395 -0.6359 -2.2883  0.7222
  959MOL0     H29435   9.531   0.872   5.423 -2.7558 -0.6779 -1.4511
  959MOL0     H29436   9.548   0.712   5.477  0.8601  0.1961  0.1416
  959MOL0     H29437   9.500   0.795   5.725 -0.6273 -0.1930 -0.2114
  959MOL0     H29438   9.507   0.964   5.660  2.3443  1.5918 -2.6003
  959MOL0     H29439   9.738   0.766   5.668  0.0536 -1.5056  1.6863
  959MOL0     H29440   9.730   0.903   5.558 -4.9988  1.5341 -0.8868
  959MOL0     H29441   9.694   0.914   5.864 -0.1790  0.0260  0.0108
  959MOL0     H29442   9.687   1.060   5.762  0.4417 -0.4053 -0.6810
  959MOL0     H29443   9.945   0.880   5.739 -2.3419 -1.8179  0.9357
  959MOL0     H29444   9.923   1.053   5.722  1.0750 -1.2197 -2.5080
  959MOL0     H29445   8.927   0.780   5.413  0.9489  0.4006  0.4328
  959MOL0     H29446   8.680   0.737   5.424  0.8753 -0.2681 -0.0277
  959MOL0     H29447   8.280   0.654   5.918  0.6860 -0.6736 -1.0229
  959MOL0     H29448   8.022   0.637   5.897  0.9810  1.6762 -0.0291
  959MOL0     H29449   6.813   0.199   6.529  1.3386  0.8556 -1.2527
  959MOL0     H29450   6.602   0.307   6.502  2.3670 -5.4071 -0.4138
  959MOL0     H29451   6.360   0.857   6.764 -0.2331 -0.6426  0.9771
  959MOL0     H29452   6.124   0.929   6.740  3.6148  1.9536  1.7156
  959MOL0     H29453   5.939   0.974   6.600  2.2093 -0.5971 -0.2490
  959MOL0     H29454   5.878   0.902   6.759 -1.1679 -3.8915 -0.2519
  959MOL0     H29455   5.697   0.996   6.662 -3.3226 -0.6082 -0.7951
  959MOL0     H29456   5.678   0.818   6.641  1.5438 -0.4693  2.9735
  959MOL0     H29457   5.785   0.839   6.409 -1.0663  1.0388 -2.6477
  959MOL0     H29458   5.770   1.018   6.422 -2.6923  1.7084  0.4464
  959MOL0     H29459   5.524   0.970   6.477  2.3153  1.3822  0.7904
  959MOL0     H29460   5.581   0.983   6.316  1.5508 -0.1452 -0.3920
  959MOL0     H29461   5.481   0.571   6.341 -2.3444  1.8866 -2.3183
  959MOL0     H29462   6.069   0.565   6.513  1.5886 -2.1096  1.5313
  959MOL0     H29463   6.349   0.510   6.389  1.0320  0.5588  1.4539
  959MOL0     H29464   6.351   0.415   6.538 -0.8155  0.3633  0.9638
  959MOL0     H29465   6.207   0.428   6.439  1.7391 -1.4527 -1.4447
  960MOL0     O29466   7.482   5.068   6.295 -0.4211  0.2311  0.0023
  960MOL0     C29467   7.430   5.152   6.223 -0.0964 -0.0220 -0.4764
  960MOL0     O29468   7.502   5.235   6.139  0.7611  0.2005  0.0392
  960MOL0     C29469   7.635   5.229   6.169 -0.6662  0.1865  0.3422
  960MOL0     C29470   7.689   5.316   6.259  0.1545  0.0643 -1.2559
  960MOL0     C29471   7.827   5.302   6.300  0.4183  0.1247  0.3773
  960MOL0     C29472   7.911   5.206   6.237 -0.0407 -0.1961  0.5819
  960MOL0     O29473   8.039   5.201   6.281 -0.1749 -0.1437  0.9466
  960MOL0     C29474   8.114   5.075   6.268  0.2485  0.6199  0.5980
  960MOL0     C29475   8.252   5.091   6.341  0.0597  0.1208  0.9293
  960MOL0     C29476   8.361   4.987   6.299 -0.0349 -0.8541  0.1952
  960MOL0     C29477   8.463   4.951   6.410 -0.6518  0.5788  0.7094
  960MOL0     C29478   8.553   5.069   6.431 -0.0461  0.0778 -0.5635
  960MOL0     C29479   8.664   5.042   6.535  0.8254  0.2683  0.4325
  960MOL0     C29480   8.781   4.961   6.478 -0.1688 -0.3523  0.3696
  960MOL0     C29481   8.892   4.957   6.589 -0.2577 -0.4439  0.3067
  960MOL0     N29482   9.027   4.934   6.534  0.0319  0.2310  0.3713
  960MOL0     C29483   9.084   4.819   6.481  0.2270 -0.1466 -0.7774
  960MOL0     C29484   9.215   4.850   6.451 -0.0678  0.1115 -0.0526
  960MOL0     C29485   9.317   4.754   6.385  0.7426 -0.5595 -0.4398
  960MOL0     C29486   9.462   4.791   6.388 -0.3385 -0.8972 -0.3308
  960MOL0     C29487   9.506   4.796   6.541  0.2335 -0.0624  0.6029
  960MOL0     C29488   9.656   4.792   6.559 -0.0599  0.2712  0.4872
  960MOL0     O29489   9.687   4.777   6.697 -0.3045 -0.8062 -0.0312
  960MOL0     C29490   9.810   4.723   6.724  0.8477 -0.0109 -0.7678
  960MOL0     C29491   9.822   4.675   6.856  0.0298  0.1902 -0.9476
  960MOL0     C29492   9.947   4.641   6.910 -0.6254  0.9333  0.9024
  960MOL0     C29493  10.060   4.635   6.822  0.7669  0.4849 -0.6403
  960MOL0     C29494  10.188   4.592   6.865 -0.7447  0.0368 -0.4459
  960MOL0     O29495  10.297   4.639   6.802  0.3650  0.1993  0.0270
  960MOL0     C29496  10.422   4.652   6.866  0.3553  0.4838  0.2214
  960MOL0     C29497  10.455   4.629   7.003  0.6952  0.8286  0.3453
  960MOL0     C29498  10.586   4.646   7.048  0.1595  0.5757 -0.1358
  960MOL0     C29499  10.685   4.679   6.961 -0.3019  0.5049  0.5385
  960MOL0     O29500  10.817   4.692   6.996 -0.2353 -0.2739  0.6758
  960MOL0     C29501  10.856   4.655   7.127 -0.2939 -0.2614 -0.2491
  960MOL0     C29502  11.002   4.677   7.143  0.5326 -0.2348 -0.1046
  960MOL0     C29503  11.086   4.589   7.048 -0.3436 -0.3102 -0.0559
  960MOL0     C29504  11.100   4.442   7.094  0.4848 -0.7302  0.3734
  960MOL0     C29505  11.204   4.373   7.005  0.5667 -0.2742 -0.3965
  960MOL0     C29506  11.150   4.368   6.855  0.3652  0.6650 -0.0118
  960MOL0     C29507  11.243   4.282   6.767  0.5645 -0.4603 -0.2774
  960MOL0     C29508  11.171   4.257   6.630  0.3560  0.0681  0.1074
  960MOL0    Cl29509  11.261   4.146   6.540  0.8160 -0.2345  0.1112
  960MOL0     C29510  10.652   4.702   6.829  0.1126 -0.6197  0.1936
  960MOL0     C29511  10.522   4.692   6.782 -0.5401  0.4780  0.0177
  960MOL0     O29512  10.185   4.529   6.976  0.0702  0.0308  0.1534
  960MOL0     C29513  10.039   4.689   6.692 -0.0227  0.5767  0.3716
  960MOL0     C29514   9.920   4.727   6.642 -0.4027  0.0784 -0.1994
  960MOL0     N29515   9.232   4.977   6.497 -0.0164  0.1223  0.8196
  960MOL0     N29516   9.125   5.028   6.539 -0.2387 -0.1960 -1.0233
  960MOL0     C29517   7.855   5.121   6.140 -0.5737 -0.2724 -0.1890
  960MOL0     C29518   7.721   5.132   6.111 -0.0358  0.0008  0.0190
  960MOL0     C29519   7.281   5.161   6.222  0.2766 -0.5820 -0.2611
  960MOL0     C29520   7.214   5.040   6.221  0.2147  0.2797 -0.1250
  960MOL0     C29521   7.070   5.035   6.201  0.4503 -0.4956 -0.6472
  960MOL0     C29522   6.997   5.154   6.185 -0.3046  0.1695 -0.4463
  960MOL0     O29523   6.863   5.136   6.176  0.6940 -0.2387  0.5820
  960MOL0     C29524   6.783   5.247   6.126  0.2832 -0.3225 -0.0218
  960MOL0     C29525   6.788   5.264   5.977  0.4222 -0.2591  0.5746
  960MOL0     C29526   6.759   5.138   5.894  0.6775  0.5679  0.2183
  960MOL0     C29527   6.795   5.168   5.740  0.6967 -1.2926 -0.3469
  960MOL0     C29528   6.689   5.250   5.674 -0.4384  0.3636  0.3600
  960MOL0     C29529   6.595   5.307   5.625  0.9066 -0.0345  0.0530
  960MOL0     C29530   7.071   5.272   6.176  0.8595  0.0464  0.4387
  960MOL0     C29531   7.212   5.282   6.190  1.0514 -0.1724 -0.0381
  960MOL0     C29532   7.264   5.423   6.192 -0.0180 -0.6662 -0.3575
  960MOL0     H29533   7.626   5.386   6.313  1.0832 -0.1758  0.2164
  960MOL0     H29534   7.880   5.359   6.376  1.1896  0.7175 -0.5849
  960MOL0     H29535   8.055   4.990   6.303  2.1942 -2.8165 -3.6077
  960MOL0     H29536   8.143   5.061   6.164  4.1944  1.1588  1.4447
  960MOL0     H29537   8.221   5.058   6.441  0.2241 -1.6201  0.4532
  960MOL0     H29538   8.288   5.193   6.330 -0.4932  0.4119  1.6973
  960MOL0     H29539   8.410   5.031   6.211  0.5205 -1.3998  0.2309
  960MOL0     H29540   8.316   4.895   6.259 -0.6772  0.1126 -1.4303
  960MOL0     H29541   8.410   4.939   6.505  1.0786 -0.5058  1.5965
  960MOL0     H29542   8.516   4.857   6.392 -1.6151  0.4188 -1.5685
  960MOL0     H29543   8.607   5.103   6.342  1.5849  1.9836  1.0652
  960MOL0     H29544   8.487   5.149   6.463 -1.5851 -1.0209 -0.8731
  960MOL0     H29545   8.697   5.139   6.575  2.6104  0.2509 -0.9029
  960MOL0     H29546   8.618   4.988   6.618  0.2953  0.9587  0.6063
  960MOL0     H29547   8.817   5.027   6.398  0.8862 -0.2416  0.9276
  960MOL0     H29548   8.756   4.858   6.451 -1.9157  0.1591 -0.1099
  960MOL0     H29549   8.884   5.053   6.640  0.0194 -1.3981  2.2471
  960MOL0     H29550   8.880   4.879   6.665  1.1906 -0.8992  0.1018
  960MOL0     H29551   9.034   4.723   6.479  0.9781 -0.5335 -0.8454
  960MOL0     H29552   9.292   4.658   6.430 -4.8501  0.3771 -0.7869
  960MOL0     H29553   9.287   4.749   6.280  2.0750 -1.9235 -0.7848
  960MOL0     H29554   9.522   4.710   6.347 -0.0839 -2.3864  2.7482
  960MOL0     H29555   9.479   4.883   6.330  0.5621 -0.4394  0.6118
  960MOL0     H29556   9.463   4.707   6.588  0.4322 -1.2736 -1.4242
  960MOL0     H29557   9.468   4.885   6.592  3.4607  3.6338 -2.7292
  960MOL0     H29558   9.694   4.881   6.508  1.1572 -1.6997 -2.3282
  960MOL0     H29559   9.692   4.703   6.506 -1.8322 -1.4361  2.0053
  960MOL0     H29560   9.740   4.655   6.924  0.1189 -2.6872 -1.5706
  960MOL0     H29561   9.955   4.592   7.006 -0.8100  2.0941  1.5253
  960MOL0     H29562  10.379   4.602   7.076 -0.8264  2.4026 -0.5751
  960MOL0     H29563  10.609   4.639   7.154 -3.4719  0.7704  0.7990
  960MOL0     H29564  10.801   4.713   7.201  0.9108  3.1117 -1.8275
  960MOL0     H29565  10.837   4.547   7.133 -0.4265 -0.1552  2.0183
  960MOL0     H29566  11.027   4.783   7.136  3.5661 -0.7959  0.7846
  960MOL0     H29567  11.010   4.644   7.247 -1.4685 -2.2109 -0.5110
  960MOL0     H29568  11.033   4.603   6.953  0.5268  2.0120 -0.2788
  960MOL0     H29569  11.187   4.629   7.036 -0.3728  0.1942  1.1858
  960MOL0     H29570  11.004   4.390   7.096  1.5457 -2.7687  0.8221
  960MOL0     H29571  11.139   4.440   7.197 -0.5291 -1.3093  0.7598
  960MOL0     H29572  11.224   4.268   7.027  0.7527  0.2237  2.0556
  960MOL0     H29573  11.295   4.433   7.013 -0.2322  0.9399 -0.1545
  960MOL0     H29574  11.056   4.315   6.872  1.4981 -0.2762  4.6387
  960MOL0     H29575  11.126   4.466   6.813 -5.6295 -0.8617 -1.0521
  960MOL0     H29576  11.271   4.186   6.813  1.5645  0.9044  2.1680
  960MOL0     H29577  11.334   4.335   6.736  1.5501 -1.7180  0.3585
  960MOL0     H29578  11.068   4.218   6.635  0.4611 -0.6201 -2.1186
  960MOL0     H29579  11.160   4.356   6.585  2.8971 -0.3936 -1.7129
  960MOL0     H29580  10.740   4.740   6.777  1.3371 -1.0545  1.8716
  960MOL0     H29581  10.496   4.718   6.680  1.3024 -1.0818 -0.9202
  960MOL0     H29582  10.127   4.701   6.630 -0.2899  0.4629 -0.0301
  960MOL0     H29583   9.920   4.778   6.546  1.6675  0.2643 -0.1502
  960MOL0     H29584   7.922   5.046   6.096  0.2801  0.6273 -0.4647
  960MOL0     H29585   7.680   5.065   6.036 -0.3123 -0.1607  0.3134
  960MOL0     H29586   7.272   4.949   6.226  0.0047 -0.0428 -2.4931
  960MOL0     H29587   7.018   4.940   6.193 -1.4521  0.6530 -3.5802
  960MOL0     H29588   6.816   5.344   6.163  0.5155 -0.1844 -0.5854
  960MOL0     H29589   6.679   5.230   6.155  0.6107 -1.6376  0.4343
  960MOL0     H29590   6.890   5.294   5.956  0.4081  0.2207  1.1637
  960MOL0     H29591   6.711   5.334   5.944  0.6277 -1.5110 -2.9627
  960MOL0     H29592   6.657   5.105   5.913  1.6210 -2.3409  0.6828
  960MOL0     H29593   6.821   5.058   5.935 -0.1647  1.0366  2.5379
  960MOL0     H29594   6.887   5.226   5.729 -0.1731  0.2404  0.0832
  960MOL0     H29595   6.819   5.078   5.684 -0.1041 -1.2010 -0.8463
  960MOL0     H29596   6.522   5.360   5.567 -0.1224 -2.3602 -0.8833
  960MOL0     H29597   7.033   5.373   6.168  1.2349  0.1215 -0.5200
  960MOL0     H29598   7.206   5.482   6.263 -1.2144 -1.2840 -0.7960
  960MOL0     H29599   7.369   5.426   6.224 -0.4838 -0.5280  1.2428
  960MOL0     H29600   7.260   5.454   6.088  0.2296  1.0822  0.1247
  961MOL0     O29601  10.781   7.103   4.883  0.2367 -0.4178 -0.5514
  961MOL0     C29602  10.716   7.143   4.978  0.4015 -0.4545 -0.1494
  961MOL0     O29603  10.776   7.201   5.087  0.4614  0.0527 -0.5060
  961MOL0     C29604  10.913   7.228   5.075  0.3802 -0.6476 -0.3282
  961MOL0     C29605  10.952   7.348   5.125  0.1606 -0.7925  0.1647
  961MOL0     C29606  11.086   7.378   5.143 -0.2215 -0.0674 -0.8598
  961MOL0     C29607  11.188   7.292   5.109 -0.3062 -0.1773  0.0943
  961MOL0     O29608  11.322   7.327   5.130 -0.0419  0.0239  0.7469
  961MOL0     C29609  11.341   7.456   5.193  0.4946  0.2796 -0.0209
  961MOL0     C29610  11.489   7.469   5.236  0.2849  0.9732 -0.3826
  961MOL0     C29611  11.553   7.333   5.278  0.3489 -0.4831  0.5248
  961MOL0     C29612  11.688   7.373   5.355  0.0985  0.5803  0.0679
  961MOL0     C29613  11.765   7.260   5.408 -0.1359  0.4791 -0.4210
  961MOL0     C29614  11.911   7.291   5.435 -0.0203  0.2243 -0.2893
  961MOL0     C29615  11.932   7.370   5.561  0.4715 -0.2223  0.0569
  961MOL0     C29616  12.078   7.364   5.604  0.4973 -0.1310 -0.8496
  961MOL0     N29617  12.171   7.409   5.498 -0.4913 -0.1399 -0.2776
  961MOL0     C29618  12.243   7.328   5.416  0.4064 -1.1285  0.4603
  961MOL0     C29619  12.298   7.425   5.334 -0.6463 -0.5663 -0.6449
  961MOL0     C29620  12.399   7.392   5.229 -0.6181  0.7391  0.0478
  961MOL0     C29621  12.539   7.353   5.282  0.5710  0.7841 -0.7659
  961MOL0     C29622  12.580   7.437   5.407  0.1704  0.3075  0.3895
  961MOL0     C29623  12.602   7.578   5.365  0.0998 -0.6348  0.5311
  961MOL0     O29624  12.701   7.586   5.269  0.6629  0.2571  0.2734
  961MOL0     C29625  12.831   7.596   5.299 -0.3893  0.1071  0.4944
  961MOL0     C29626  12.909   7.629   5.177 -0.1498  0.1400  0.3174
  961MOL0     C29627  13.050   7.649   5.183  0.5436  0.3985  1.2711
  961MOL0     C29628  13.110   7.625   5.313  0.0823  1.1958  0.5678
  961MOL0     C29629  13.254   7.632   5.325 -0.3766  0.6649  0.1674
  961MOL0     O29630  13.328   7.670   5.220 -0.8814 -0.1874  0.1185
  961MOL0     C29631  13.465   7.683   5.240  0.3761  0.1754 -0.0060
  961MOL0     C29632  13.513   7.809   5.286 -0.0852 -0.1276  0.8149
  961MOL0     C29633  13.646   7.840   5.295 -0.0640  0.3850 -0.0893
  961MOL0     C29634  13.736   7.751   5.236  1.1321 -1.2246  0.4740
  961MOL0     O29635  13.865   7.788   5.208  0.0529  0.6478  0.0154
  961MOL0     C29636  13.948   7.796   5.330 -0.0204 -0.6681 -0.8697
  961MOL0     C29637  14.087   7.832   5.295 -0.1354 -0.5048  1.2120
  961MOL0     C29638  14.161   7.712   5.231 -0.1653  0.5789 -0.1472
  961MOL0     C29639  14.304   7.754   5.203 -0.0234 -0.3119  0.3040
  961MOL0     C29640  14.397   7.743   5.324  0.1359  0.0150 -0.6664
  961MOL0     C29641  14.546   7.792   5.270  0.0977 -0.1615 -0.1559
  961MOL0     C29642  14.637   7.779   5.391 -0.2651 -0.7961 -0.9304
  961MOL0     C29643  14.781   7.834   5.367  0.1431 -0.0233  0.5123
  961MOL0    Cl29644  14.855   7.885   5.530 -0.5591  0.3800 -0.1737
  961MOL0     C29645  13.690   7.632   5.172  0.1479 -0.1236  1.6939
  961MOL0     C29646  13.556   7.596   5.179 -0.4990  0.3808  0.3301
  961MOL0     O29647  13.299   7.596   5.435 -0.1173  0.2881  0.4305
  961MOL0     C29648  13.035   7.598   5.428 -0.1922 -0.6909  0.0251
  961MOL0     C29649  12.898   7.580   5.420  0.5535  0.4318  0.1199
  961MOL0     N29650  12.267   7.551   5.366  0.2804  0.7237 -0.3460
  961MOL0     N29651  12.186   7.545   5.469 -0.5572  0.5376  0.8761
  961MOL0     C29652  11.148   7.169   5.053  0.3795  0.5390  1.0458
  961MOL0     C29653  11.012   7.138   5.038 -0.0262  0.3274  0.0497
  961MOL0     C29654  10.566   7.125   4.989 -0.1665  0.2862  0.0329
  961MOL0     C29655  10.511   7.168   5.113 -0.8290  0.2008 -0.2626
  961MOL0     C29656  10.376   7.135   5.140  0.5241 -0.1605 -0.2368
  961MOL0     C29657  10.296   7.075   5.048 -0.1012  0.4751  0.0091
  961MOL0     O29658  10.171   7.040   5.081  0.0869 -0.4221  0.5408
  961MOL0     C29659  10.069   7.100   5.001  0.2019  0.0163  0.7252
  961MOL0     C29660   9.965   6.995   4.956 -0.3395  0.3143 -0.2509
  961MOL0     C29661  10.016   6.878   4.872 -0.7673  0.1471  0.0173
  961MOL0     C29662  10.067   6.751   4.939  0.1125 -0.0257 -0.3351
  961MOL0     C29663   9.957   6.677   5.005  0.3010  0.6253  0.2294
  961MOL0     C29664   9.858   6.618   5.041 -0.0610 -0.0558  0.3161
  961MOL0     C29665  10.352   7.054   4.917 -0.0172  0.5001  0.6233
  961MOL0     C29666  10.483   7.082   4.883  0.0697  0.0559 -0.2215
  961MOL0     C29667  10.532   7.042   4.750 -0.2977 -0.2414 -0.4883
  961MOL0     H29668  10.876   7.412   5.168 -1.6346 -3.4564  1.1989
  961MOL0     H29669  11.117   7.477   5.176  1.6829 -0.4362 -1.3807
  961MOL0     H29670  11.305   7.548   5.146 -1.0299 -0.5618 -0.5655
  961MOL0     H29671  11.297   7.444   5.292  2.4711  1.7710  1.1177
  961MOL0     H29672  11.490   7.536   5.322 -0.8002 -1.7934  1.9429
  961MOL0     H29673  11.541   7.511   5.149 -0.2775 -0.2541 -1.3582
  961MOL0     H29674  11.573   7.270   5.191 -2.2251  0.7597 -1.0986
  961MOL0     H29675  11.475   7.294   5.343 -0.8571  2.0622  0.7487
  961MOL0     H29676  11.762   7.424   5.293 -0.0686  2.1015  1.0709
  961MOL0     H29677  11.664   7.445   5.433 -0.3726  1.5105 -0.9050
  961MOL0     H29678  11.711   7.221   5.495  1.8292 -0.8566  0.2654
  961MOL0     H29679  11.763   7.185   5.329  0.7415 -1.1814  1.0554
  961MOL0     H29680  11.971   7.200   5.446 -1.1308 -0.5906 -0.8097
  961MOL0     H29681  11.951   7.345   5.348  2.2291 -2.8621 -1.3916
  961MOL0     H29682  11.866   7.321   5.633  0.2131 -3.5378 -2.2147
  961MOL0     H29683  11.890   7.471   5.556  0.2381 -0.1657  2.3137
  961MOL0     H29684  12.093   7.440   5.681  0.7904  0.1086 -1.1414
  961MOL0     H29685  12.106   7.269   5.650  0.6521  0.6325  0.6846
  961MOL0     H29686  12.256   7.221   5.415 -2.0567 -1.4831  0.1170
  961MOL0     H29687  12.366   7.300   5.181  2.7365  0.5866 -2.2443
  961MOL0     H29688  12.402   7.475   5.158 -2.5506  1.0711  0.3023
  961MOL0     H29689  12.533   7.248   5.313  3.0965  0.6571 -0.4239
  961MOL0     H29690  12.611   7.353   5.200  1.5037 -1.7423 -0.0621
  961MOL0     H29691  12.674   7.404   5.453  0.8008 -0.5953 -1.4836
  961MOL0     H29692  12.503   7.437   5.485 -1.2865 -1.2105 -0.9734
  961MOL0     H29693  12.628   7.637   5.453 -0.7909  0.1704  0.2738
  961MOL0     H29694  12.511   7.616   5.318  0.4696 -1.1951 -0.6895
  961MOL0     H29695  12.864   7.637   5.078 -1.8008 -0.2387  1.0066
  961MOL0     H29696  13.113   7.654   5.095  1.0598  0.5221  1.6421
  961MOL0     H29697  13.432   7.874   5.319 -2.4315 -2.1102 -0.7016
  961MOL0     H29698  13.684   7.930   5.342 -1.7654  1.3252 -0.4121
  961MOL0     H29699  13.923   7.871   5.406  0.6921 -1.2587 -0.0351
  961MOL0     H29700  13.949   7.697   5.378  2.2989  0.3731  1.4782
  961MOL0     H29701  14.078   7.915   5.224  0.1865  0.0668  1.8204
  961MOL0     H29702  14.139   7.867   5.385  0.3526  0.3623  0.6042
  961MOL0     H29703  14.155   7.627   5.299  4.7729  1.3015  1.6457
  961MOL0     H29704  14.113   7.684   5.137  0.1232 -1.0103  0.1575
  961MOL0     H29705  14.310   7.854   5.160 -2.6971 -1.1972 -2.5468
  961MOL0     H29706  14.355   7.694   5.126 -0.1690  2.0839 -1.7884
  961MOL0     H29707  14.389   7.638   5.355 -0.8701  0.1650 -0.3822
  961MOL0     H29708  14.364   7.807   5.406  1.4881  0.3520 -0.3634
  961MOL0     H29709  14.575   7.728   5.186 -1.6840 -0.9304 -0.2281
  961MOL0     H29710  14.532   7.895   5.237 -2.0945 -0.4634 -0.3078
  961MOL0     H29711  14.625   7.686   5.447 -0.0781 -1.0029 -1.2288
  961MOL0     H29712  14.600   7.856   5.458  1.1453 -1.3247  0.5367
  961MOL0     H29713  14.836   7.756   5.314 -2.5921 -1.8513  0.1218
  961MOL0     H29714  14.772   7.933   5.322 -1.0173 -1.0913 -1.7953
  961MOL0     H29715  13.763   7.567   5.126 -1.5800 -0.3549 -0.8925
  961MOL0     H29716  13.529   7.497   5.142  0.4038  0.5813 -0.9264
  961MOL0     H29717  13.081   7.592   5.526  2.5796 -0.8485 -1.2077
  961MOL0     H29718  12.842   7.562   5.512 -0.2870  1.4133 -0.1738
  961MOL0     H29719  11.206   7.086   5.014 -2.1030 -2.3066  2.9607
  961MOL0     H29720  10.974   7.052   4.985 -0.9084  1.1403 -0.6781
  961MOL0     H29721  10.567   7.211   5.195  1.9773 -0.4195 -1.7384
  961MOL0     H29722  10.344   7.149   5.243  0.8887  1.4245 -0.3095
  961MOL0     H29723  10.101   7.144   4.906 -2.9883  1.1749  0.0774
  961MOL0     H29724  10.020   7.185   5.050  0.2276 -0.4464  1.5818
  961MOL0     H29725   9.882   7.047   4.906 -2.7092 -1.8638  1.1480
  961MOL0     H29726   9.919   6.953   5.046 -0.8969  0.9520 -0.2266
  961MOL0     H29727  10.086   6.919   4.799 -0.5502  0.4944  0.4163
  961MOL0     H29728   9.939   6.840   4.804  1.1563  0.1600 -2.2901
  961MOL0     H29729  10.113   6.681   4.868 -1.1233 -0.5435 -0.6541
  961MOL0     H29730  10.148   6.780   5.007  0.0630  0.7448 -0.5952
  961MOL0     H29731   9.765   6.577   5.076 -0.3229  0.7527  0.5933
  961MOL0     H29732  10.299   6.991   4.847 -1.0390  1.3117  0.6294
  961MOL0     H29733  10.453   7.002   4.685 -0.0387  2.6736 -2.7944
  961MOL0     H29734  10.561   7.136   4.703  1.5623 -0.6509 -0.2067
  961MOL0     H29735  10.616   6.973   4.761  0.6222  1.2508  3.7965
  962MOL0     O29736   3.683  10.687   4.459 -0.1719 -0.1846  0.0702
  962MOL0     C29737   3.625  10.606   4.541  1.1842 -0.5736  0.6229
  962MOL0     O29738   3.693  10.519   4.621 -0.0585  0.6046 -0.5074
  962MOL0     C29739   3.822  10.558   4.665 -0.5248  0.6516  0.3725
  962MOL0     C29740   3.850  10.688   4.694  0.0486 -0.1184  0.0746
  962MOL0     C29741   3.975  10.731   4.737 -0.2143 -0.5319 -1.3594
  962MOL0     C29742   4.078  10.638   4.752 -0.5139 -0.0726  0.9243
  962MOL0     O29743   4.204  10.672   4.794 -0.3279 -0.3409 -0.0598
  962MOL0     C29744   4.210  10.784   4.891 -0.2387 -0.5736 -0.2041
  962MOL0     C29745   4.351  10.810   4.936  0.2587 -0.0862 -0.1577
  962MOL0     C29746   4.415  10.685   5.003  0.1547 -0.9184  0.6288
  962MOL0     C29747   4.562  10.657   4.988  0.1583  0.6491 -0.1485
  962MOL0     C29748   4.647  10.753   5.063  0.8729  0.4731 -0.6579
  962MOL0     C29749   4.791  10.730   5.010  0.1916 -0.1412  0.7234
  962MOL0     C29750   4.892  10.818   5.089  0.1797 -0.8494  0.4183
  962MOL0     C29751   5.028  10.801   5.020  0.1349 -0.4800  0.2595
  962MOL0     N29752   5.042  10.896   4.897 -0.2123 -0.4833 -0.9069
  962MOL0     C29753   5.026  11.038   4.904  1.0996 -0.4671  0.0735
  962MOL0     C29754   5.100  11.079   4.807  0.2507 -0.9627  1.0933
  962MOL0     C29755   5.139  11.225   4.794  0.2949  0.3095 -0.3744
  962MOL0     C29756   5.278  11.259   4.746 -0.1239 -0.7195  0.5903
  962MOL0     C29757   5.366  11.202   4.851  0.3376  0.6761 -0.4645
  962MOL0     C29758   5.505  11.249   4.837 -0.3975 -0.6448  0.1322
  962MOL0     O29759   5.525  11.393   4.869  0.4559  0.1035 -0.4522
  962MOL0     C29760   5.645  11.433   4.925 -0.6778  0.6586  0.5595
  962MOL0     C29761   5.768  11.419   4.860 -0.1253 -0.0568 -1.1458
  962MOL0     C29762   5.885  11.470   4.919 -0.1971  0.2765 -0.1437
  962MOL0     C29763   5.879  11.543   5.042 -0.6373  0.2584 -0.4968
  962MOL0     C29764   6.004  11.582   5.103  0.0198  0.1025 -0.1744
  962MOL0     O29765   5.997  11.689   5.195 -0.5460 -0.6075 -0.3494
  962MOL0     C29766   6.119  11.722   5.261 -0.2348  0.9146  0.2695
  962MOL0     C29767   6.175  11.631   5.355  0.6877 -1.0498  0.6638
  962MOL0     C29768   6.298  11.664   5.411  0.5013  0.4204  0.3681
  962MOL0     C29769   6.365  11.786   5.390  0.2126  0.3267 -0.5448
  962MOL0     O29770   6.490  11.822   5.448  1.1130  0.9171 -0.0103
  962MOL0     C29771   6.504  11.956   5.496 -0.0227 -0.7047  0.4400
  962MOL0     C29772   6.636  11.965   5.571  0.5538 -0.1225  0.4974
  962MOL0     C29773   6.646  11.880   5.699  0.2822  1.2125  0.7305
  962MOL0     C29774   6.576  11.938   5.814  0.1482  1.0860  0.0298
  962MOL0     C29775   6.579  11.839   5.934 -0.5361  0.0150  0.6545
  962MOL0     C29776   6.717  11.848   6.014 -0.5463  0.0054  0.1948
  962MOL0     C29777   6.725  11.770   6.155  0.1833  0.2438 -0.1621
  962MOL0     C29778   6.869  11.749   6.191 -0.1830  0.2186  0.1351
  962MOL0    Cl29779   6.942  11.914   6.205 -0.0480  0.0365  0.1551
  962MOL0     C29780   6.300  11.881   5.307  0.1072 -0.0183  0.8337
  962MOL0     C29781   6.182  11.848   5.240  0.9927 -0.5534 -0.3812
  962MOL0     O29782   6.107  11.523   5.071 -0.4640 -0.4249 -0.5421
  962MOL0     C29783   5.754  11.565   5.102 -0.3499 -0.0104 -0.3738
  962MOL0     C29784   5.637  11.508   5.040  0.0287 -0.0960 -0.1109
  962MOL0     N29785   5.143  10.975   4.720 -0.3080  0.8304 -0.1647
  962MOL0     N29786   5.104  10.872   4.785 -0.2367  0.0431  0.7014
  962MOL0     C29787   4.050  10.504   4.723  0.0126 -0.1093 -0.7933
  962MOL0     C29788   3.921  10.469   4.677 -0.6399  0.6487  0.4822
  962MOL0     C29789   3.478  10.599   4.534 -0.3073 -0.3331 -0.0354
  962MOL0     C29790   3.412  10.706   4.468 -0.5099  0.0923 -1.0936
  962MOL0     C29791   3.272  10.711   4.456 -0.2913  0.3694 -0.1290
  962MOL0     C29792   3.190  10.617   4.516  0.3579 -0.2531  0.8613
  962MOL0     O29793   3.056  10.641   4.504 -0.5453 -0.1703  0.3352
  962MOL0     C29794   2.977  10.525   4.491 -0.3542  0.2818  0.9617
  962MOL0     C29795   2.848  10.573   4.414 -0.1663 -0.2367 -0.8207
  962MOL0     C29796   2.752  10.461   4.402  0.7404  0.7108  0.8577
  962MOL0     C29797   2.625  10.507   4.329  0.2617 -0.2673 -0.3479
  962MOL0     C29798   2.649  10.572   4.201  0.1332 -0.4553  0.2463
  962MOL0     C29799   2.647  10.627   4.093 -0.2480 -0.2959  0.7446
  962MOL0     C29800   3.253  10.516   4.586 -0.0852  0.2230 -0.8161
  962MOL0     C29801   3.396  10.500   4.590 -0.0244 -0.8893 -0.1373
  962MOL0     C29802   3.440  10.374   4.669  0.0443  0.1116  0.5195
  962MOL0     H29803   3.767  10.758   4.692 -0.2833 -0.4148  2.1027
  962MOL0     H29804   3.975  10.830   4.781 -2.5897 -0.1535 -2.0636
  962MOL0     H29805   4.171  10.880   4.856  1.4519  0.3912  0.4215
  962MOL0     H29806   4.157  10.760   4.984  1.7989  1.5255  1.5943
  962MOL0     H29807   4.355  10.894   5.005 -0.8692  2.5216 -3.0264
  962MOL0     H29808   4.407  10.836   4.845  1.8700  1.6384  1.2446
  962MOL0     H29809   4.380  10.590   4.963  4.4870 -2.8948  0.9990
  962MOL0     H29810   4.376  10.678   5.105 -1.2170 -0.4336  0.1719
  962MOL0     H29811   4.591  10.560   5.027 -2.3759  0.0550  0.4734
  962MOL0     H29812   4.587  10.659   4.881 -2.4218  1.0000 -0.8281
  962MOL0     H29813   4.617  10.858   5.053 -0.2623  0.2315 -0.0302
  962MOL0     H29814   4.647  10.718   5.167  1.9105 -0.2031 -0.8723
  962MOL0     H29815   4.820  10.625   5.019  2.0590  0.3130  0.5108
  962MOL0     H29816   4.790  10.764   4.906 -0.3017 -0.6775  0.5528
  962MOL0     H29817   4.889  10.784   5.193 -0.5089 -0.6867  0.4566
  962MOL0     H29818   4.858  10.922   5.091 -1.7205 -1.4528  1.8355
  962MOL0     H29819   5.108  10.820   5.092 -1.7641  5.0922  1.4069
  962MOL0     H29820   5.027  10.698   4.985 -2.0255 -0.7414  0.9582
  962MOL0     H29821   4.971  11.098   4.976  4.1613  2.2758  0.3167
  962MOL0     H29822   5.072  11.265   4.716 -0.0407  1.9330  0.6975
  962MOL0     H29823   5.117  11.273   4.889  1.1654 -0.5153  0.2594
  962MOL0     H29824   5.305  11.211   4.652  0.5523  1.1813 -0.2327
  962MOL0     H29825   5.295  11.362   4.717  1.7017 -2.1369 -4.2806
  962MOL0     H29826   5.365  11.093   4.850  1.7812  0.5493  1.9595
  962MOL0     H29827   5.341  11.222   4.956  3.4570  2.7133  0.0429
  962MOL0     H29828   5.530  11.242   4.731 -2.0652  1.6853 -0.5033
  962MOL0     H29829   5.567  11.188   4.903  0.7772  0.0082 -0.3379
  962MOL0     H29830   5.763  11.350   4.776 -2.1587 -0.5329 -0.6862
  962MOL0     H29831   5.975  11.443   4.864  1.1255  1.2165  1.4507
  962MOL0     H29832   6.121  11.539   5.374 -1.3215 -0.1324 -0.3950
  962MOL0     H29833   6.331  11.588   5.481  2.4742 -1.3580 -2.2960
  962MOL0     H29834   6.522  12.027   5.415 -0.4578 -0.5068  0.5135
  962MOL0     H29835   6.418  11.987   5.556  0.0669  0.3975  0.0323
  962MOL0     H29836   6.718  11.933   5.507 -1.5471 -2.8301 -1.0895
  962MOL0     H29837   6.649  12.070   5.596 -3.5882  1.1902 -1.8800
  962MOL0     H29838   6.600  11.783   5.681  2.8741  0.3225 -1.8897
  962MOL0     H29839   6.753  11.865   5.720  0.0695 -0.4637  0.7547
  962MOL0     H29840   6.469  11.944   5.793 -0.8142 -2.3056  2.9292
  962MOL0     H29841   6.624  12.028   5.853  2.1947  0.3144 -0.5439
  962MOL0     H29842   6.573  11.736   5.896  1.1578 -0.2780  1.0837
  962MOL0     H29843   6.495  11.849   6.003 -0.1154 -0.0579  1.1842
  962MOL0     H29844   6.801  11.817   5.952  1.3110  1.3369  1.9457
  962MOL0     H29845   6.732  11.954   6.033 -1.1188  0.6778 -2.6997
  962MOL0     H29846   6.652  11.688   6.163 -1.6021  1.5384 -2.2152
  962MOL0     H29847   6.694  11.846   6.226 -1.4138 -1.6501  1.3083
  962MOL0     H29848   6.877  11.692   6.285  2.0651 -0.9952 -0.7079
  962MOL0     H29849   6.928  11.692   6.118 -0.0351 -0.1855  0.5578
  962MOL0     H29850   6.326  11.985   5.288  0.2591 -0.0622  0.7997
  962MOL0     H29851   6.131  11.918   5.175 -0.2872 -0.6108  0.5222
  962MOL0     H29852   5.731  11.634   5.182 -1.1443  2.1590 -2.3285
  962MOL0     H29853   5.533  11.517   5.072 -0.4947 -1.6280 -1.2908
  962MOL0     H29854   4.131  10.433   4.720  0.7946  0.7936 -1.3801
  962MOL0     H29855   3.901  10.365   4.653  0.0887  0.7680 -0.7035
  962MOL0     H29856   3.474  10.789   4.436 -0.3794  0.7678  0.7929
  962MOL0     H29857   3.226  10.799   4.413 -0.1750  0.8233  0.6469
  962MOL0     H29858   2.956  10.486   4.591 -1.1894 -3.3144 -0.4585
  962MOL0     H29859   3.031  10.450   4.432  0.1959  1.3114  0.1495
  962MOL0     H29860   2.874  10.619   4.319  0.5411  2.9524  0.7522
  962MOL0     H29861   2.802  10.649   4.479 -0.3026 -2.4754  1.9312
  962MOL0     H29862   2.718  10.418   4.497 -0.8680  1.1412  0.5019
  962MOL0     H29863   2.795  10.384   4.337  1.1652  1.4743  0.2200
  962MOL0     H29864   2.555  10.425   4.314 -0.8442  0.6171 -0.1544
  962MOL0     H29865   2.567  10.564   4.402  0.0228 -0.2747 -0.5301
  962MOL0     H29866   2.656  10.675   3.998 -1.9261 -0.4971  0.4569
  962MOL0     H29867   3.204  10.438   4.643 -0.2154  1.7162  1.2151
  962MOL0     H29868   3.479  10.412   4.765  1.1937  0.9962 -0.2662
  962MOL0     H29869   3.357  10.307   4.690 -1.2254  1.6373  0.5837
  962MOL0     H29870   3.518  10.324   4.611  2.4539  2.4117  1.5452
  963MOL0     O29871  10.963   0.614   9.689  0.1625 -0.5568  0.4712
  963MOL0     C29872  10.944   0.605   9.808 -0.1622  0.3553 -0.3772
  963MOL0     O29873  11.042   0.609   9.907  1.0343 -0.7649  0.1037
  963MOL0     C29874  11.163   0.553   9.880 -0.0076  0.9960  0.1958
  963MOL0     C29875  11.177   0.418   9.853 -0.7434  0.0260  0.3044
  963MOL0     C29876  11.302   0.359   9.832 -0.6511  0.5643  0.3433
  963MOL0     C29877  11.419   0.433   9.846  0.2966 -0.1010  0.7617
  963MOL0     O29878  11.540   0.378   9.846  0.2865 -0.1444  0.4109
  963MOL0     C29879  11.559   0.262   9.929  0.4089  0.2819  0.7918
  963MOL0     C29880  11.593   0.298  10.078 -0.1706  0.3462 -0.0774
  963MOL0     C29881  11.737   0.349  10.090  0.5116  0.0161  0.3560
  963MOL0     C29882  11.835   0.233  10.100  0.2176 -0.1828  0.3420
  963MOL0     C29883  11.976   0.282  10.090 -0.0903 -0.7239  0.1397
  963MOL0     C29884  12.027   0.358  10.211  0.1383  0.1159 -0.0351
  963MOL0     C29885  12.161   0.424  10.174 -0.6374 -0.6231 -0.2619
  963MOL0     C29886  12.208   0.500  10.303  0.2774  0.6339 -0.5775
  963MOL0     N29887  12.339   0.567  10.278  0.2804  0.1442 -0.2465
  963MOL0     C29888  12.443   0.521  10.207  0.2018  0.7201  0.7284
  963MOL0     C29889  12.532   0.626  10.204 -0.8550 -0.4032 -0.0177
  963MOL0     C29890  12.669   0.622  10.149 -1.1382 -0.0405  0.4865
  963MOL0     C29891  12.753   0.742  10.210 -0.0748 -0.1992  0.7071
  963MOL0     C29892  12.886   0.745  10.123 -0.3924  0.2498  0.2883
  963MOL0     C29893  12.998   0.835  10.186  0.2095 -0.5186  0.5847
  963MOL0     O29894  13.124   0.817  10.115  0.6336 -0.3266  0.7270
  963MOL0     C29895  13.239   0.873  10.158 -0.3463 -0.0643 -0.2548
  963MOL0     C29896  13.248   0.978  10.259 -0.9200  0.4268  0.0240
  963MOL0     C29897  13.378   1.034  10.285  0.5074  0.8534  0.5679
  963MOL0     C29898  13.497   0.986  10.234 -0.3488 -0.5187  0.1806
  963MOL0     C29899  13.621   1.052  10.285 -0.3297 -0.7934  1.0168
  963MOL0     O29900  13.723   1.019  10.205 -0.3633  0.7087  0.5171
  963MOL0     C29901  13.856   1.065  10.229 -0.4764  0.8361  0.6095
  963MOL0     C29902  13.938   1.084  10.117  0.6979 -0.7263 -0.6508
  963MOL0     C29903  14.074   1.118  10.133 -0.5467 -0.0153  0.1349
  963MOL0     C29904  14.125   1.143  10.257 -0.7558 -0.3578  0.0601
  963MOL0     O29905  14.257   1.189  10.254 -0.0798  0.2071 -0.5423
  963MOL0     C29906  14.322   1.204  10.382  0.8475 -0.2919  0.0495
  963MOL0     C29907  14.463   1.257  10.366 -0.3413 -0.2479  0.3861
  963MOL0     C29908  14.540   1.294  10.496  0.7500  0.2140 -0.2526
  963MOL0     C29909  14.686   1.322  10.464  0.7430  0.1246  0.1097
  963MOL0     C29910  14.775   1.372  10.586  0.3083 -0.5067 -0.6432
  963MOL0     C29911  14.741   1.510  10.652 -0.9017  0.3101 -0.8554
  963MOL0     C29912  14.754   1.626  10.555 -0.3325 -0.2165  0.3866
  963MOL0     C29913  14.902   1.641  10.499  1.3520  0.5717  0.1068
  963MOL0    Cl29914  14.929   1.746  10.352 -0.0237 -0.0301  0.0027
  963MOL0     C29915  14.043   1.131  10.371  0.8062  0.4505 -1.5549
  963MOL0     C29916  13.917   1.076  10.359 -0.2764  0.5491  0.4172
  963MOL0     O29917  13.634   1.089  10.400  0.0593  0.3979 -0.1841
  963MOL0     C29918  13.491   0.890  10.135  0.2982 -0.0296  0.1517
  963MOL0     C29919  13.364   0.826  10.106  0.0866  0.1501 -0.7217
  963MOL0     N29920  12.485   0.720  10.302  0.0581  0.2511  0.6155
  963MOL0     N29921  12.376   0.679  10.346  0.8044  0.2849  0.3228
  963MOL0     C29922  11.411   0.573   9.875 -0.3122  1.1036 -1.3730
  963MOL0     C29923  11.281   0.635   9.895  0.3997 -0.0849  0.6490
  963MOL0     C29924  10.803   0.613   9.853  0.2695  0.3723 -0.0849
  963MOL0     C29925  10.768   0.685   9.967 -0.4592  0.0751  0.1808
  963MOL0     C29926  10.635   0.683  10.014  0.1220 -0.2341  0.9427
  963MOL0     C29927  10.539   0.612   9.947  0.6294 -0.1186 -1.3162
  963MOL0     O29928  10.421   0.617  10.013  1.3159  0.1320 -0.1360
  963MOL0     C29929  10.299   0.636   9.932 -0.1679 -0.3850  0.8582
  963MOL0     C29930  10.195   0.694  10.026  0.6586  0.1427  0.0527
  963MOL0     C29931  10.127   0.590  10.122 -0.0636 -0.5713  0.4128
  963MOL0     C29932  10.039   0.667  10.225  0.6140  0.3065  0.5260
  963MOL0     C29933   9.921   0.745  10.184 -0.0732  0.4615  0.3836
  963MOL0     C29934   9.824   0.802  10.156  0.4335  1.0660 -0.8163
  963MOL0     C29935  10.572   0.543   9.834 -0.8720 -0.3574 -0.1450
  963MOL0     C29936  10.705   0.539   9.792  0.4880  0.3548 -0.3243
  963MOL0     C29937  10.729   0.459   9.669 -0.5336  0.5739  0.4409
  963MOL0     H29938  11.098   0.345   9.835  2.5330 -3.4528 -1.3038
  963MOL0     H29939  11.303   0.256   9.799  0.6581  1.3404 -2.3303
  963MOL0     H29940  11.469   0.200   9.924 -0.7782  2.0142 -2.7488
  963MOL0     H29941  11.630   0.193   9.882 -1.5276  1.1019 -3.9112
  963MOL0     H29942  11.575   0.216  10.147  1.6250  1.7759  2.2311
  963MOL0     H29943  11.532   0.385  10.105 -0.4810  0.3234 -0.6789
  963MOL0     H29944  11.743   0.409  10.181 -1.3125  0.4772  0.2193
  963MOL0     H29945  11.767   0.406  10.002  1.1522 -1.0514 -0.1441
  963MOL0     H29946  11.811   0.180  10.193  2.2560 -0.3340  0.8195
  963MOL0     H29947  11.826   0.163  10.016 -1.6686 -0.9660  1.1275
  963MOL0     H29948  12.046   0.199  10.072  0.7544 -0.2140  0.9742
  963MOL0     H29949  11.994   0.343  10.001  2.9802 -1.7097 -0.0636
  963MOL0     H29950  11.953   0.434  10.239 -1.0969 -0.7900 -0.6988
  963MOL0     H29951  12.033   0.302  10.304  0.8209 -0.5614 -0.4771
  963MOL0     H29952  12.153   0.482  10.082 -0.0530 -3.1245 -1.9951
  963MOL0     H29953  12.226   0.343  10.140 -2.2669 -0.7390 -3.4444
  963MOL0     H29954  12.132   0.576  10.326 -1.8333 -1.4021 -0.4268
  963MOL0     H29955  12.216   0.443  10.397 -2.1917  1.8490  0.4621
  963MOL0     H29956  12.454   0.431  10.148 -1.1241  0.2187  1.2183
  963MOL0     H29957  12.714   0.527  10.178  1.9504  1.2243  0.1710
  963MOL0     H29958  12.667   0.637  10.040  2.0604  4.1623  0.7976
  963MOL0     H29959  12.690   0.831  10.199 -0.8647 -0.7164  1.0398
  963MOL0     H29960  12.776   0.722  10.315  0.8460  4.1934  1.5564
  963MOL0     H29961  12.856   0.775  10.023 -3.0713 -2.4151  0.1738
  963MOL0     H29962  12.925   0.643  10.121 -1.8926 -0.3456  0.0590
  963MOL0     H29963  13.021   0.798  10.286  1.7267 -1.0017  0.0753
  963MOL0     H29964  12.970   0.941  10.193 -1.4844 -0.9928  1.5226
  963MOL0     H29965  13.161   1.015  10.312 -2.6737 -3.0569 -0.1282
  963MOL0     H29966  13.380   1.113  10.360 -4.5851  2.4921 -0.6430
  963MOL0     H29967  13.891   1.053  10.024  3.0471  1.1330 -2.6075
  963MOL0     H29968  14.137   1.144  10.049  1.2087  0.5635  1.5781
  963MOL0     H29969  14.267   1.269  10.451  1.2782 -1.6562  1.7532
  963MOL0     H29970  14.332   1.105  10.429 -2.0705 -0.1568  1.1454
  963MOL0     H29971  14.512   1.171  10.319  0.6936 -2.1863  4.4987
  963MOL0     H29972  14.464   1.332  10.286 -1.1114 -0.4205  0.2102
  963MOL0     H29973  14.500   1.387  10.537  1.4380  2.1596 -3.5780
  963MOL0     H29974  14.533   1.204  10.557  0.7016 -0.4478 -1.2159
  963MOL0     H29975  14.693   1.402  10.391  3.2536  0.3560  0.5247
  963MOL0     H29976  14.733   1.236  10.416 -2.8302 -1.4802 -0.8610
  963MOL0     H29977  14.880   1.367  10.555  0.7696  3.2730 -0.1069
  963MOL0     H29978  14.745   1.299  10.662 -1.7178  0.2212 -0.6729
  963MOL0     H29979  14.643   1.501  10.699 -0.1352 -0.2618  0.7064
  963MOL0     H29980  14.801   1.538  10.739 -2.5172  0.8261  0.1396
  963MOL0     H29981  14.740   1.719  10.611 -0.2499  0.8634 -1.2814
  963MOL0     H29982  14.681   1.615  10.473  0.9791 -3.0998 -0.5285
  963MOL0     H29983  14.967   1.674  10.580  2.0375  0.4437 -0.3836
  963MOL0     H29984  14.938   1.545  10.460  0.1638  0.7036 -1.4096
  963MOL0     H29985  14.086   1.163  10.465  2.3191 -0.0569 -2.0490
  963MOL0     H29986  13.868   1.060  10.454 -0.4050  2.9408  0.8159
  963MOL0     H29987  13.582   0.846  10.095  0.0391 -1.5088  1.1173
  963MOL0     H29988  13.354   0.753  10.026  0.7079  0.4639 -1.0964
  963MOL0     H29989  11.503   0.627   9.893 -0.2177  0.4683  0.1347
  963MOL0     H29990  11.259   0.738   9.919 -0.7803  0.1398 -1.1765
  963MOL0     H29991  10.847   0.732  10.024 -0.1469 -2.9298  2.5159
  963MOL0     H29992  10.611   0.741  10.102 -0.4791 -0.9134  1.2366
  963MOL0     H29993  10.264   0.546   9.882  1.9998 -0.0938 -1.3350
  963MOL0     H29994  10.329   0.704   9.852 -2.8123 -1.9893 -1.6699
  963MOL0     H29995  10.119   0.733   9.957  1.4775  1.6874 -0.0242
  963MOL0     H29996  10.232   0.778  10.086  2.0529 -0.1114 -0.4277
  963MOL0     H29997  10.193   0.521  10.175  1.2500  0.4178  0.1096
  963MOL0     H29998  10.061   0.531  10.058 -0.2134  1.0170 -0.9779
  963MOL0     H29999  10.009   0.596  10.303 -0.2899  0.1410  0.0371
  963MOL0     H30000  10.108   0.738  10.273  1.6122 -0.4254  0.1893
  963MOL0     H30001   9.740   0.863  10.130 -0.5050 -0.3128 -1.1006
  963MOL0     H30002  10.500   0.473   9.791  1.6354 -3.6195  0.5419
  963MOL0     H30003  10.642   0.396   9.653 -0.6937  0.7073  0.7754
  963MOL0     H30004  10.749   0.507   9.573  3.7360 -1.0664  0.2745
  963MOL0     H30005  10.817   0.394   9.674  0.6457  2.1913  2.6551
  964MOL0     O30006  10.396   5.238   8.638  0.6376 -0.3915  0.0972
  964MOL0     C30007  10.375   5.158   8.555  0.6187 -0.2010 -0.4868
  964MOL0     O30008  10.416   5.021   8.568  0.1522  0.4045  0.4478
  964MOL0     C30009  10.492   4.991   8.677 -0.4708 -0.0162  0.2783
  964MOL0     C30010  10.489   5.032   8.810  0.4937  0.6335  0.1991
  964MOL0     C30011  10.587   4.999   8.906 -0.2710 -0.0919 -0.0439
  964MOL0     C30012  10.684   4.911   8.871 -0.9934 -0.8620 -0.4509
  964MOL0     O30013  10.772   4.880   8.972  0.2315  0.0925  0.0888
  964MOL0     C30014  10.899   4.823   8.928 -0.1325 -0.5263 -0.6067
  964MOL0     C30015  11.004   4.923   8.878 -0.1652  0.0499  0.4473
  964MOL0     C30016  11.123   4.854   8.807  0.1711  1.0493 -0.2252
  964MOL0     C30017  11.211   4.766   8.901 -0.3256 -0.0060  0.4765
  964MOL0     C30018  11.329   4.708   8.823  0.5953 -0.6155 -0.9999
  964MOL0     C30019  11.375   4.570   8.875 -0.5678  0.2962 -0.1545
  964MOL0     C30020  11.531   4.570   8.896 -0.6792 -0.2805 -0.2040
  964MOL0     C30021  11.565   4.429   8.954 -0.3285  0.6920 -0.1584
  964MOL0     N30022  11.711   4.404   8.972 -0.5134 -0.2775 -0.4340
  964MOL0     C30023  11.780   4.400   9.092 -0.3783 -0.6893  0.1709
  964MOL0     C30024  11.906   4.406   9.068 -0.0561  0.4922 -0.4191
  964MOL0     C30025  12.027   4.399   9.164 -0.1374  0.4936  0.4281
  964MOL0     C30026  12.166   4.420   9.105  1.0713 -0.1787  0.3814
  964MOL0     C30027  12.260   4.478   9.211 -0.3971  0.3151  0.8200
  964MOL0     C30028  12.393   4.408   9.196 -0.6084 -0.1546  0.1189
  964MOL0     O30029  12.472   4.468   9.293  0.1792  0.0840  0.1239
  964MOL0     C30030  12.585   4.524   9.248 -0.1410  0.3490  0.9549
  964MOL0     C30031  12.691   4.445   9.207 -0.3808 -0.6446  0.1415
  964MOL0     C30032  12.802   4.512   9.145  0.4920  0.1388 -0.3240
  964MOL0     C30033  12.808   4.649   9.120  0.9996 -0.6315  0.9764
  964MOL0     C30034  12.919   4.717   9.047 -0.2183 -0.1431 -0.6362
  964MOL0     O30035  13.027   4.631   9.042 -1.1211 -0.3452  0.0728
  964MOL0     C30036  13.142   4.694   8.997 -0.5740 -0.1544 -0.8750
  964MOL0     C30037  13.209   4.648   8.877  1.2843  0.1013  1.3822
  964MOL0     C30038  13.346   4.676   8.858 -0.4353 -0.3115  0.3387
  964MOL0     C30039  13.421   4.764   8.947  0.4596  0.2351 -0.0354
  964MOL0     O30040  13.549   4.808   8.948 -0.2482  0.0538 -0.7510
  964MOL0     C30041  13.621   4.799   8.823 -0.4113 -0.7959  1.2864
  964MOL0     C30042  13.745   4.708   8.850  0.8073 -0.4091  0.6368
  964MOL0     C30043  13.841   4.800   8.924 -0.0002 -0.7225 -0.2489
  964MOL0     C30044  13.982   4.742   8.962  0.1497  0.5113  0.0341
  964MOL0     C30045  14.080   4.856   9.012  0.4962 -0.0045 -0.4457
  964MOL0     C30046  14.144   4.944   8.899 -0.1682  0.5181 -0.6378
  964MOL0     C30047  14.280   5.000   8.951 -0.0329 -0.2344  0.2580
  964MOL0     C30048  14.359   5.075   8.844 -0.2950 -0.0237 -0.5831
  964MOL0    Cl30049  14.364   4.992   8.682 -0.2497 -0.5300 -0.0131
  964MOL0     C30050  13.355   4.803   9.065  0.4442 -0.2100 -0.2928
  964MOL0     C30051  13.222   4.763   9.088  0.1040  0.9838 -0.4057
  964MOL0     O30052  12.913   4.836   9.023 -0.0086 -0.2149 -0.2622
  964MOL0     C30053  12.702   4.720   9.174  0.2002 -0.3121 -0.6503
  964MOL0     C30054  12.592   4.663   9.235  0.2178  0.4898 -0.3104
  964MOL0     N30055  11.917   4.420   8.935 -0.1693 -0.7027  0.0939
  964MOL0     N30056  11.805   4.416   8.870 -0.5105  0.2792  0.6205
  964MOL0     C30057  10.686   4.854   8.738 -0.8975 -0.7372  1.6478
  964MOL0     C30058  10.588   4.893   8.654 -0.9294  0.3342 -0.0101
  964MOL0     C30059  10.275   5.195   8.446  0.0999  0.6871  0.3622
  964MOL0     C30060  10.202   5.095   8.379  0.1789  0.1816 -1.3149
  964MOL0     C30061  10.115   5.118   8.276 -0.1835  0.6077  0.6018
  964MOL0     C30062  10.094   5.250   8.241 -0.1208 -0.1215 -0.2014
  964MOL0     O30063  10.006   5.300   8.145 -0.6280  0.6748 -0.1200
  964MOL0     C30064   9.937   5.203   8.067 -0.0990 -0.7907 -0.1391
  964MOL0     C30065   9.829   5.127   8.148  0.1892  0.4183 -0.6880
  964MOL0     C30066   9.685   5.191   8.148 -0.0726 -0.2931  0.3514
  964MOL0     C30067   9.697   5.326   8.213 -0.8461 -2.2525 -0.5468
  964MOL0     C30068   9.569   5.399   8.216  0.5004  0.4059  0.2103
  964MOL0     C30069   9.455   5.441   8.214 -0.1268 -0.2414 -0.3983
  964MOL0     C30070  10.158   5.354   8.304 -0.3389  0.4112  0.1548
  964MOL0     C30071  10.257   5.327   8.403  1.3168 -0.3482  0.1502
  964MOL0     C30072  10.317   5.445   8.473 -0.0649  0.7446  0.2493
  964MOL0     H30073  10.425   5.118   8.829  3.1447  2.1372  3.3567
  964MOL0     H30074  10.566   5.025   9.010 -0.4475 -1.9471  0.4198
  964MOL0     H30075  10.938   4.786   9.023  0.9728  3.0762  0.4668
  964MOL0     H30076  10.881   4.731   8.872 -2.6974  0.5743 -1.7693
  964MOL0     H30077  11.041   4.980   8.964  1.5345  0.5003 -0.5301
  964MOL0     H30078  10.959   4.992   8.806  0.1207  0.1120  0.3265
  964MOL0     H30079  11.179   4.931   8.753  2.4094  0.5861  1.2557
  964MOL0     H30080  11.079   4.787   8.733 -0.2583 -1.1716  1.9001
  964MOL0     H30081  11.251   4.812   8.992  2.7283 -2.9228  0.8485
  964MOL0     H30082  11.146   4.683   8.931 -1.6210 -0.8664 -3.9509
  964MOL0     H30083  11.301   4.713   8.717 -2.4807  2.7047 -0.2702
  964MOL0     H30084  11.410   4.780   8.838  0.0919 -0.1892 -0.2093
  964MOL0     H30085  11.317   4.551   8.965 -2.5087  1.3706 -1.1204
  964MOL0     H30086  11.342   4.505   8.793  2.6933  0.5717 -1.8410
  964MOL0     H30087  11.576   4.648   8.959  2.3496 -3.0962  1.4637
  964MOL0     H30088  11.569   4.589   8.795 -1.3406 -1.2355 -0.6459
  964MOL0     H30089  11.515   4.421   9.051 -0.1445  0.1626 -0.1033
  964MOL0     H30090  11.522   4.349   8.892  0.3482 -0.1887  0.4817
  964MOL0     H30091  11.732   4.387   9.189 -1.9197  2.2440 -0.0906
  964MOL0     H30092  11.999   4.473   9.239  0.7672 -0.4460  1.7235
  964MOL0     H30093  12.034   4.302   9.215 -0.0416  0.4656  0.3621
  964MOL0     H30094  12.204   4.332   9.053  1.5886  0.5084 -0.4560
  964MOL0     H30095  12.155   4.503   9.033  0.1915  1.6943  2.5468
  964MOL0     H30096  12.212   4.476   9.310 -2.0046 -0.3459  0.0566
  964MOL0     H30097  12.277   4.583   9.186 -3.4335  0.8534  0.6673
  964MOL0     H30098  12.428   4.419   9.093 -1.4601 -2.4006 -0.4783
  964MOL0     H30099  12.383   4.301   9.218 -3.2053  0.0418  0.2037
  964MOL0     H30100  12.685   4.337   9.210  2.3295 -0.8330  1.6028
  964MOL0     H30101  12.873   4.448   9.096 -0.2562 -1.5186  0.6680
  964MOL0     H30102  13.155   4.580   8.813  1.5555  1.0418  0.1216
  964MOL0     H30103  13.396   4.637   8.770 -0.7054 -0.3775  0.2121
  964MOL0     H30104  13.563   4.760   8.738 -1.4912  1.2770  1.0007
  964MOL0     H30105  13.652   4.896   8.783 -5.2949  0.3229 -0.4646
  964MOL0     H30106  13.724   4.615   8.902  4.0073 -0.5410  1.9343
  964MOL0     H30107  13.789   4.683   8.753 -0.2044 -0.8777  0.2956
  964MOL0     H30108  13.864   4.893   8.872  1.8848 -0.1979  1.3880
  964MOL0     H30109  13.795   4.833   9.018 -0.7996 -0.4095 -0.7415
  964MOL0     H30110  14.022   4.691   8.874 -2.5512  2.8909 -2.8534
  964MOL0     H30111  13.972   4.667   9.041 -1.4238  1.5537  0.8849
  964MOL0     H30112  14.171   4.807   9.048  0.0775 -3.2278 -3.2402
  964MOL0     H30113  14.026   4.910   9.091  1.2832 -0.8408  0.6933
  964MOL0     H30114  14.171   4.879   8.816  1.2728  0.5224 -0.2029
  964MOL0     H30115  14.080   5.029   8.874  1.5394  1.6460 -1.3413
  964MOL0     H30116  14.342   4.916   8.985 -0.1603  0.0814  1.3095
  964MOL0     H30117  14.271   5.066   9.038 -1.9922 -0.1227  0.0168
  964MOL0     H30118  14.309   5.170   8.820  2.6409  1.4704 -1.2694
  964MOL0     H30119  14.461   5.091   8.881 -0.6884  0.4955  0.3205
  964MOL0     H30120  13.415   4.870   9.126  0.9413  0.6307 -1.6612
  964MOL0     H30121  13.162   4.806   9.168 -1.0534  0.4042 -0.9335
  964MOL0     H30122  12.711   4.828   9.166  0.8644 -0.1330  1.7825
  964MOL0     H30123  12.514   4.723   9.280  1.0523  0.9537  0.5681
  964MOL0     H30124  10.764   4.784   8.707 -0.1534  0.9268 -0.5680
  964MOL0     H30125  10.593   4.853   8.553 -0.5580  1.2439 -0.3595
  964MOL0     H30126  10.182   4.995   8.415 -1.5133 -0.1774 -3.0500
  964MOL0     H30127  10.051   5.035   8.249  0.1243 -0.2982  2.4517
  964MOL0     H30128  10.006   5.132   8.021 -0.7611 -0.5759 -1.5007
  964MOL0     H30129   9.888   5.236   7.975 -2.1561 -1.0396  0.7966
  964MOL0     H30130   9.854   5.103   8.252  1.5674 -3.9041 -1.8129
  964MOL0     H30131   9.817   5.026   8.106 -1.7379 -1.2753  3.3484
  964MOL0     H30132   9.609   5.139   8.207 -2.8900 -1.9230 -4.1799
  964MOL0     H30133   9.643   5.191   8.046  1.5641 -0.4340 -0.3476
  964MOL0     H30134   9.706   5.302   8.319  0.1468  0.4988  0.0884
  964MOL0     H30135   9.788   5.378   8.182  0.7571 -3.6582  1.5583
  964MOL0     H30136   9.352   5.466   8.198  0.0688 -0.4423 -2.0846
  964MOL0     H30137  10.136   5.456   8.275 -1.5097  0.6825  1.8171
  964MOL0     H30138  10.261   5.454   8.566 -1.5268  2.6218 -0.7207
  964MOL0     H30139  10.421   5.421   8.496 -0.5630 -2.0026 -0.0772
  964MOL0     H30140  10.307   5.539   8.417  1.1292  0.9776  0.4070
  965MOL0     O30141   4.664   1.725   3.830  0.5696  0.0148  0.6290
  965MOL0     C30142   4.654   1.600   3.837  0.2639 -1.0105  0.2496
  965MOL0     O30143   4.758   1.509   3.828 -0.1630  0.4736 -0.3662
  965MOL0     C30144   4.886   1.551   3.804 -0.6138  0.1496 -0.3368
  965MOL0     C30145   4.982   1.554   3.909  0.3961 -0.6887  0.1937
  965MOL0     C30146   5.106   1.614   3.891 -0.2630 -0.8838  0.1900
  965MOL0     C30147   5.146   1.662   3.767 -0.2895  0.6906 -0.1859
  965MOL0     O30148   5.272   1.709   3.754 -0.3161  0.2098 -0.2106
  965MOL0     C30149   5.351   1.656   3.649  0.1857 -0.0234 -0.0741
  965MOL0     C30150   5.500   1.681   3.690 -0.4551  0.1194 -0.0370
  965MOL0     C30151   5.552   1.605   3.815  0.8195  0.4478  0.5799
  965MOL0     C30152   5.572   1.460   3.767  0.0158 -0.2173 -1.0302
  965MOL0     C30153   5.716   1.406   3.791 -0.2821 -1.0693  0.3818
  965MOL0     C30154   5.750   1.275   3.727  0.5588 -0.0996 -0.0049
  965MOL0     C30155   5.902   1.231   3.765  0.3666 -0.4908  0.0525
  965MOL0     C30156   6.014   1.326   3.729 -0.0796 -0.0327 -0.2841
  965MOL0     N30157   6.147   1.251   3.753  1.0324 -0.2922 -0.2445
  965MOL0     C30158   6.199   1.237   3.879  0.0597  0.2334 -0.1927
  965MOL0     C30159   6.320   1.185   3.845  0.3751 -0.2079  0.1307
  965MOL0     C30160   6.434   1.168   3.941 -0.5528  0.2945 -0.5686
  965MOL0     C30161   6.564   1.131   3.884 -0.0760  0.4049 -0.7269
  965MOL0     C30162   6.628   1.257   3.820 -0.0153  0.4039 -0.5072
  965MOL0     C30163   6.777   1.244   3.789 -0.9312 -1.0515  0.2006
  965MOL0     O30164   6.836   1.373   3.792 -0.7257  0.0847 -0.2181
  965MOL0     C30165   6.954   1.397   3.726 -0.3725 -0.1663  0.4653
  965MOL0     C30166   7.037   1.298   3.666 -0.2929 -0.8064  0.6175
  965MOL0     C30167   7.166   1.329   3.624  0.3304 -0.0415 -0.8472
  965MOL0     C30168   7.228   1.449   3.652 -0.2333 -0.4344  0.1476
  965MOL0     C30169   7.373   1.477   3.607  0.5373 -0.4135 -0.4129
  965MOL0     O30170   7.437   1.362   3.566  0.7813  0.0251 -0.0272
  965MOL0     C30171   7.578   1.371   3.566  0.0725 -0.1438  0.4469
  965MOL0     C30172   7.661   1.423   3.473 -0.0233  0.8497 -0.3033
  965MOL0     C30173   7.799   1.410   3.493 -0.5223 -0.5505 -1.0477
  965MOL0     C30174   7.856   1.367   3.609  0.1224 -0.9149  0.6101
  965MOL0     O30175   7.988   1.352   3.640  0.1269  0.2971  0.1772
  965MOL0     C30176   8.091   1.305   3.551 -0.0313  1.2218 -0.5153
  965MOL0     C30177   8.158   1.191   3.619 -0.3347 -1.1537 -0.0108
  965MOL0     C30178   8.317   1.202   3.603 -0.1349 -0.0773  0.1127
  965MOL0     C30179   8.392   1.097   3.684  0.2682  0.0190 -0.2411
  965MOL0     C30180   8.529   1.081   3.633  0.6450  0.0361  0.3097
  965MOL0     C30181   8.608   0.984   3.718  0.3021  1.2609  0.3821
  965MOL0     C30182   8.735   0.973   3.644  0.1020  0.2043  0.6246
  965MOL0     C30183   8.840   0.889   3.707  0.0970 -0.1902 -0.1259
  965MOL0    Cl30184   8.805   0.709   3.690  0.0063 -0.0195 -0.2361
  965MOL0     C30185   7.768   1.335   3.715 -0.3952  0.0759 -0.1710
  965MOL0     C30186   7.630   1.336   3.687 -0.2873  0.2081 -0.1001
  965MOL0     O30187   7.426   1.583   3.629  0.2616 -0.4601 -0.5302
  965MOL0     C30188   7.149   1.549   3.699  0.1631  0.0781 -0.5898
  965MOL0     C30189   7.019   1.525   3.737 -0.3448  0.1082  1.1462
  965MOL0     N30190   6.333   1.174   3.708 -0.7009 -0.0840 -1.4244
  965MOL0     N30191   6.223   1.200   3.653  0.1691  0.2883 -0.4891
  965MOL0     C30192   5.064   1.654   3.659  0.1933  1.1612  0.2459
  965MOL0     C30193   4.931   1.606   3.674  0.5654  0.2318 -0.0403
  965MOL0     C30194   4.524   1.541   3.858  0.1822  0.2999 -0.8446
  965MOL0     C30195   4.482   1.440   3.765  0.1192 -0.8346  0.4078
  965MOL0     C30196   4.359   1.374   3.776 -0.2241 -0.3898 -0.2551
  965MOL0     C30197   4.274   1.405   3.882  0.2599  0.3292 -0.0605
  965MOL0     O30198   4.155   1.342   3.908 -0.8798  0.4530 -1.3998
  965MOL0     C30199   4.047   1.395   3.836  0.1996  0.4806  0.0538
  965MOL0     C30200   3.967   1.497   3.911 -0.4777 -0.7909  0.2391
  965MOL0     C30201   3.862   1.557   3.818 -0.8139  0.2335  0.6258
  965MOL0     C30202   3.753   1.469   3.763  0.2512  0.2179 -0.0829
  965MOL0     C30203   3.691   1.398   3.871  0.8495  0.1510  0.1406
  965MOL0     C30204   3.652   1.327   3.964  0.3495 -0.0715  1.1009
  965MOL0     C30205   4.322   1.487   3.989  0.4508  0.9589  0.4408
  965MOL0     C30206   4.439   1.565   3.969 -0.2979  0.4730 -0.6014
  965MOL0     C30207   4.481   1.659   4.081  0.5986 -0.0377 -0.5383
  965MOL0     H30208   4.945   1.536   4.009 -0.8913  3.0294  0.5455
  965MOL0     H30209   5.173   1.625   3.976  4.2199  1.0739 -3.1837
  965MOL0     H30210   5.333   1.549   3.635 -0.4393  0.2445 -1.5121
  965MOL0     H30211   5.325   1.704   3.554 -2.6319  0.6483  0.9273
  965MOL0     H30212   5.502   1.783   3.731  0.3809  0.1024 -0.0223
  965MOL0     H30213   5.577   1.675   3.613 -1.4240 -1.4599 -0.9262
  965MOL0     H30214   5.478   1.617   3.894  0.6236  0.6001  0.3759
  965MOL0     H30215   5.646   1.647   3.853  0.8887  0.1665  0.7185
  965MOL0     H30216   5.499   1.394   3.816 -0.7515  1.5272  0.3109
  965MOL0     H30217   5.552   1.446   3.661 -0.1230 -1.0730 -0.9033
  965MOL0     H30218   5.783   1.482   3.750 -3.7427  1.5177 -1.0613
  965MOL0     H30219   5.730   1.407   3.899 -0.8853 -0.4008  0.4626
  965MOL0     H30220   5.679   1.200   3.761 -1.3159  1.5125 -0.2123
  965MOL0     H30221   5.760   1.283   3.619 -0.5652 -0.8637 -0.1812
  965MOL0     H30222   5.923   1.145   3.701  2.5882 -0.6651  0.9255
  965MOL0     H30223   5.921   1.199   3.868  4.8454 -0.6321 -0.5959
  965MOL0     H30224   6.009   1.357   3.624  0.4915  0.6577 -0.1155
  965MOL0     H30225   6.016   1.421   3.783 -0.7870 -0.2343  0.1129
  965MOL0     H30226   6.163   1.266   3.977 -2.2764  0.0016 -0.9397
  965MOL0     H30227   6.446   1.254   4.008 -2.9243 -0.6278  1.1917
  965MOL0     H30228   6.405   1.093   4.015  0.9566  0.9078  0.6831
  965MOL0     H30229   6.626   1.096   3.967  1.7257 -1.6769 -2.7659
  965MOL0     H30230   6.553   1.046   3.816  0.6631  0.3464 -0.7857
  965MOL0     H30231   6.610   1.343   3.886 -0.2492 -0.2769  0.3436
  965MOL0     H30232   6.585   1.279   3.722 -0.3225  3.4520  0.2040
  965MOL0     H30233   6.786   1.201   3.689  0.2100  0.7104 -0.4973
  965MOL0     H30234   6.833   1.182   3.859  1.0181  0.0570 -0.3292
  965MOL0     H30235   7.003   1.196   3.650  1.1438 -1.5001  1.7911
  965MOL0     H30236   7.212   1.246   3.570 -0.7421 -0.2205 -1.5305
  965MOL0     H30237   7.616   1.463   3.382  0.0226  1.2757 -0.1411
  965MOL0     H30238   7.867   1.456   3.421  1.9166 -2.6008 -0.2308
  965MOL0     H30239   8.060   1.273   3.451  0.4240 -2.5260  0.4023
  965MOL0     H30240   8.155   1.394   3.546  2.6236 -0.5671 -0.5642
  965MOL0     H30241   8.135   1.203   3.725 -1.9439 -3.0085 -0.0910
  965MOL0     H30242   8.124   1.090   3.593  1.2820 -2.3974  2.3354
  965MOL0     H30243   8.348   1.192   3.499 -2.5689  1.3327 -0.8537
  965MOL0     H30244   8.349   1.302   3.634 -2.5164  0.6266  0.5593
  965MOL0     H30245   8.338   1.002   3.674 -0.0199 -0.2879  3.1749
  965MOL0     H30246   8.395   1.121   3.790  0.2192 -1.6855  0.1718
  965MOL0     H30247   8.570   1.182   3.644  0.9751 -0.2772  2.2468
  965MOL0     H30248   8.517   1.049   3.529 -1.2766  0.3546  0.3904
  965MOL0     H30249   8.624   1.026   3.818  1.3804 -1.2004  1.3369
  965MOL0     H30250   8.565   0.883   3.724  0.6651  1.0382 -0.6424
  965MOL0     H30251   8.785   1.070   3.639 -1.2989  0.9270  0.3265
  965MOL0     H30252   8.711   0.930   3.546 -3.0351  2.0082  0.4607
  965MOL0     H30253   8.936   0.899   3.656  1.1942  1.8144  2.2051
  965MOL0     H30254   8.854   0.920   3.810  2.1213 -3.4492  0.7321
  965MOL0     H30255   7.805   1.292   3.808 -0.0314 -0.5308 -0.5883
  965MOL0     H30256   7.555   1.298   3.755 -0.4887 -0.5868 -0.7420
  965MOL0     H30257   7.196   1.646   3.714  2.1136 -0.8497 -0.3848
  965MOL0     H30258   6.966   1.598   3.797 -0.9055  0.0970  0.6646
  965MOL0     H30259   5.094   1.689   3.561 -1.1968 -3.0613 -1.9622
  965MOL0     H30260   4.850   1.609   3.602  0.1113  1.3305  0.4908
  965MOL0     H30261   4.557   1.401   3.697  1.0737  1.0018  0.3553
  965MOL0     H30262   4.338   1.299   3.701  0.5092 -0.2192 -0.6411
  965MOL0     H30263   3.981   1.312   3.808  2.4121 -0.6515 -2.2435
  965MOL0     H30264   4.067   1.436   3.737  0.3625  0.0716 -0.0852
  965MOL0     H30265   4.022   1.588   3.936 -0.6430 -0.7441  0.4349
  965MOL0     H30266   3.923   1.461   4.004 -0.0047 -1.9916  0.0213
  965MOL0     H30267   3.924   1.591   3.734  0.7696 -3.7283 -0.0151
  965MOL0     H30268   3.809   1.642   3.861 -2.3795 -0.5624  0.3376
  965MOL0     H30269   3.676   1.534   3.719 -1.8841 -3.4502 -2.2856
  965MOL0     H30270   3.787   1.402   3.683 -0.7019 -2.3618  1.5590
  965MOL0     H30271   3.618   1.258   4.038 -0.3922 -0.7009  0.1949
  965MOL0     H30272   4.249   1.486   4.070 -0.4722 -0.9833 -0.3432
  965MOL0     H30273   4.583   1.632   4.111  0.2398 -0.7486  0.1037
  965MOL0     H30274   4.471   1.764   4.055 -1.9243 -0.1148 -0.1120
  965MOL0     H30275   4.416   1.639   4.167  0.4729 -0.4651 -0.7288
  966MOL0     O30276   3.023   6.226  10.184  0.0325  0.1959  1.5463
  966MOL0     C30277   3.004   6.116  10.237 -0.0626  0.3091 -0.3907
  966MOL0     O30278   3.099   6.007  10.242  0.1993  0.0731  0.3148
  966MOL0     C30279   3.218   6.032  10.190  0.5345 -0.7357 -0.0508
  966MOL0     C30280   3.294   6.138  10.242  0.3296 -0.1826  0.5117
  966MOL0     C30281   3.423   6.158  10.178 -0.1367 -0.1983 -0.5867
  966MOL0     C30282   3.466   6.076  10.072  0.0448 -0.8334 -0.3080
  966MOL0     O30283   3.575   6.094   9.995 -1.0513  0.6987 -0.4058
  966MOL0     C30284   3.690   6.040  10.065 -0.5946  0.0116 -0.3998
  966MOL0     C30285   3.792   6.137  10.015  0.2022  0.5571 -0.3724
  966MOL0     C30286   3.925   6.106  10.078 -0.4408  0.7771 -0.3985
  966MOL0     C30287   4.055   6.174  10.007  0.1375 -0.3628 -0.1726
  966MOL0     C30288   4.188   6.132  10.060 -0.7308  0.2834  0.0841
  966MOL0     C30289   4.297   6.208  10.002  0.4459  0.1653 -0.1590
  966MOL0     C30290   4.439   6.145  10.028 -0.3682 -0.6624 -0.1611
  966MOL0     C30291   4.474   6.123  10.178  0.4929 -0.2444 -0.3282
  966MOL0     N30292   4.622   6.116  10.206  0.2052  0.4963 -0.0350
  966MOL0     C30293   4.734   6.084  10.131  0.0603  1.1448  0.2858
  966MOL0     C30294   4.843   6.137  10.199 -0.2402 -0.3619 -0.3115
  966MOL0     C30295   4.986   6.162  10.150 -1.0367 -0.1857 -0.1425
  966MOL0     C30296   5.078   6.040  10.157 -0.4913 -0.2592 -0.0859
  966MOL0     C30297   5.229   6.087  10.157 -0.0492  0.6041  0.0906
  966MOL0     C30298   5.314   5.969  10.140  0.1234 -0.6411  0.0864
  966MOL0     O30299   5.449   5.984  10.195  0.7983  0.8673  0.1533
  966MOL0     C30300   5.545   6.045  10.120 -0.6243 -0.7347 -0.5487
  966MOL0     C30301   5.669   6.083  10.176 -0.1829 -0.0135 -0.1229
  966MOL0     C30302   5.767   6.160  10.109 -0.0250  0.4599 -0.5095
  966MOL0     C30303   5.733   6.228   9.992 -0.2170  0.2584  0.2613
  966MOL0     C30304   5.830   6.330   9.937  0.0375  0.4092 -1.0506
  966MOL0     O30305   5.968   6.324   9.977  0.5451 -0.2827 -0.0751
  966MOL0     C30306   6.056   6.387   9.899  0.0062 -0.0144  0.5653
  966MOL0     C30307   6.082   6.366   9.763  0.3534 -0.1724 -0.6794
  966MOL0     C30308   6.180   6.435   9.696 -0.7840 -0.6769  0.3648
  966MOL0     C30309   6.258   6.532   9.760  0.1821  0.1237 -0.2559
  966MOL0     O30310   6.354   6.613   9.717  0.3655 -0.0770  0.4209
  966MOL0     C30311   6.380   6.619   9.572  1.1719  0.5565  0.6004
  966MOL0     C30312   6.281   6.713   9.496  1.3578  0.6533  1.0122
  966MOL0     C30313   6.298   6.720   9.344  0.3217 -0.2719 -0.4978
  966MOL0     C30314   6.449   6.772   9.315 -0.0379  0.5531  0.0081
  966MOL0     C30315   6.483   6.807   9.167  0.4476  0.3907  0.1276
  966MOL0     C30316   6.511   6.667   9.097  0.2505  0.3678 -0.3580
  966MOL0     C30317   6.658   6.656   9.052  0.4209  0.8872 -0.1434
  966MOL0     C30318   6.701   6.512   9.010  0.6015  0.4102 -0.2909
  966MOL0    Cl30319   6.587   6.428   8.889 -0.1695  0.2787 -0.4117
  966MOL0     C30320   6.221   6.562   9.887  0.4115 -0.5131 -0.5544
  966MOL0     C30321   6.128   6.484   9.960  0.1238 -0.3959  0.2291
  966MOL0     O30322   5.791   6.409   9.854 -0.0482  0.1729 -0.4417
  966MOL0     C30323   5.612   6.198   9.930 -0.2750 -0.4348 -0.9606
  966MOL0     C30324   5.524   6.100   9.987  0.0090  0.2344  0.1557
  966MOL0     N30325   4.792   6.199  10.314 -0.2720  0.3254 -0.0669
  966MOL0     N30326   4.666   6.173  10.321 -0.6664 -0.5497  0.3654
  966MOL0     C30327   3.382   5.975  10.021  0.2036 -0.9448  0.5607
  966MOL0     C30328   3.265   5.946  10.091  0.2072  0.5632 -0.2975
  966MOL0     C30329   2.880   6.080  10.297  0.0039 -0.4844  0.7475
  966MOL0     C30330   2.885   6.013  10.415  0.8405  0.7266  0.0684
  966MOL0     C30331   2.775   5.957  10.469  0.1605  0.4652  0.3163
  966MOL0     C30332   2.649   5.975  10.415 -0.4987  0.2268  0.1057
  966MOL0     O30333   2.528   5.935  10.472 -0.5977 -0.4809  0.0382
  966MOL0     C30334   2.513   5.835  10.577 -0.0634 -0.5899 -0.1316
  966MOL0     C30335   2.416   5.721  10.532 -0.0405 -0.3868 -0.1925
  966MOL0     C30336   2.282   5.776  10.489  0.2628 -0.6261  0.0934
  966MOL0     C30337   2.206   5.669  10.417  0.3784 -0.2638  0.6847
  966MOL0     C30338   2.061   5.697  10.405  0.6043 -0.7776  0.1589
  966MOL0     C30339   1.945   5.737  10.389 -0.2531 -0.0935  0.1210
  966MOL0     C30340   2.639   6.050  10.296  0.3424  0.0839  0.5569
  966MOL0     C30341   2.755   6.100  10.234 -1.1479 -0.1498  1.0705
  966MOL0     C30342   2.742   6.162  10.093  0.1445  0.5587  0.2262
  966MOL0     H30343   3.267   6.203  10.325  3.6132 -0.0972  1.6421
  966MOL0     H30344   3.476   6.236  10.231 -0.7212 -0.6860  0.7605
  966MOL0     H30345   3.669   6.037  10.172  1.2909 -1.2298 -0.0229
  966MOL0     H30346   3.710   5.946  10.013  3.1206  1.9204 -2.8060
  966MOL0     H30347   3.757   6.241  10.027  1.4835  0.9650 -0.0411
  966MOL0     H30348   3.808   6.130   9.907 -1.0533  2.8519 -0.7959
  966MOL0     H30349   3.937   5.998  10.073 -0.3466  0.5063  3.1866
  966MOL0     H30350   3.924   6.135  10.184 -1.0207  3.4516 -1.0421
  966MOL0     H30351   4.038   6.171   9.899  1.5909 -1.7687 -0.4002
  966MOL0     H30352   4.039   6.279  10.035 -2.2511 -0.1713 -1.9369
  966MOL0     H30353   4.180   6.146  10.168 -0.0562 -2.3965  0.5388
  966MOL0     H30354   4.196   6.024  10.045  0.5198  0.1912  1.2653
  966MOL0     H30355   4.286   6.212   9.893 -1.7327 -0.1830  0.0001
  966MOL0     H30356   4.292   6.311  10.039  0.1552  0.2410 -0.3999
  966MOL0     H30357   4.507   6.212   9.974 -0.9362 -0.2331 -0.3547
  966MOL0     H30358   4.444   6.058   9.962  1.4890  0.2022 -1.2248
  966MOL0     H30359   4.437   6.213  10.228  3.1707 -0.0673  1.5792
  966MOL0     H30360   4.426   6.039  10.227  1.9353  0.2186  2.0252
  966MOL0     H30361   4.743   6.044  10.031  2.0222  2.1860 -0.0091
  966MOL0     H30362   4.987   6.192  10.045 -1.0984 -1.1385 -0.4245
  966MOL0     H30363   5.036   6.242  10.206  0.2351 -0.6285 -0.5958
  966MOL0     H30364   5.068   6.004  10.259 -0.2174  1.5222  0.5971
  966MOL0     H30365   5.045   5.960  10.090  0.3069 -1.9528  1.4750
  966MOL0     H30366   5.238   6.122  10.261 -4.9977 -0.9971  1.3269
  966MOL0     H30367   5.259   6.167  10.089  0.1960  1.5848  1.3146
  966MOL0     H30368   5.301   5.938  10.036 -1.6572 -0.5904  0.2538
  966MOL0     H30369   5.268   5.885  10.194  2.5395 -2.5795 -0.6411
  966MOL0     H30370   5.693   6.037  10.272 -0.2219  2.4801  1.1712
  966MOL0     H30371   5.865   6.173  10.153 -0.0975 -1.2193  0.2078
  966MOL0     H30372   6.026   6.293   9.704 -1.0064 -0.5732  1.0200
  966MOL0     H30373   6.207   6.424   9.592 -0.1264  2.0240  0.1635
  966MOL0     H30374   6.480   6.663   9.568  0.4326  2.2484 -1.1255
  966MOL0     H30375   6.373   6.517   9.533 -2.9548 -0.6852  3.8527
  966MOL0     H30376   6.176   6.682   9.502  1.2722 -0.2506 -2.6267
  966MOL0     H30377   6.283   6.811   9.545  1.2322 -0.6798  3.8891
  966MOL0     H30378   6.294   6.617   9.305 -0.9111 -1.3105  2.1408
  966MOL0     H30379   6.222   6.786   9.303  0.5553 -0.0711 -0.6077
  966MOL0     H30380   6.520   6.704   9.362 -2.4466 -0.1791  2.9568
  966MOL0     H30381   6.459   6.861   9.378 -1.7956 -1.3463  3.2886
  966MOL0     H30382   6.574   6.866   9.154  0.6162  0.1309  0.1277
  966MOL0     H30383   6.405   6.868   9.122  0.8254  0.1880 -0.8245
  966MOL0     H30384   6.492   6.580   9.161 -0.8751 -0.3552 -1.6209
  966MOL0     H30385   6.442   6.653   9.013 -1.7866  3.2766  0.6852
  966MOL0     H30386   6.734   6.694   9.121  0.4033  0.4274  0.1301
  966MOL0     H30387   6.664   6.711   8.958  2.8709 -0.4076 -0.8159
  966MOL0     H30388   6.787   6.525   8.945  0.7365 -1.2441 -0.4990
  966MOL0     H30389   6.709   6.431   9.084 -1.6869 -1.3659 -1.8030
  966MOL0     H30390   6.257   6.654   9.933 -0.5144 -0.6071  0.4159
  966MOL0     H30391   6.113   6.501  10.066  0.3764 -0.9779  0.3594
  966MOL0     H30392   5.582   6.240   9.835  1.5725  0.4632 -1.1826
  966MOL0     H30393   5.428   6.087   9.938  0.3523 -0.0638 -0.4472
  966MOL0     H30394   3.410   5.918   9.933 -0.0842 -1.2099  0.6392
  966MOL0     H30395   3.196   5.870  10.055  0.1372  0.4438  0.0863
  966MOL0     H30396   2.985   5.979  10.441  0.6176  0.8298  1.0969
  966MOL0     H30397   2.796   5.897  10.557 -0.8003  0.6154  0.6548
  966MOL0     H30398   2.473   5.884  10.666 -0.5011  0.1338 -0.7195
  966MOL0     H30399   2.608   5.790  10.608  0.5436  1.4324  1.1628
  966MOL0     H30400   2.416   5.653  10.619  0.6315 -0.5195 -0.2948
  966MOL0     H30401   2.459   5.667  10.447  0.1542  0.0648 -0.3783
  966MOL0     H30402   2.300   5.854  10.414 -0.6074 -1.4678 -1.0218
  966MOL0     H30403   2.234   5.815  10.579  1.1106  0.7204  0.0001
  966MOL0     H30404   2.253   5.667  10.318  3.1694  3.1516  1.7474
  966MOL0     H30405   2.204   5.579  10.479 -1.7693  1.2329  3.0218
  966MOL0     H30406   1.841   5.762  10.381 -0.4140 -1.1887 -2.2834
  966MOL0     H30407   2.538   6.081  10.269  0.3296 -0.0853  0.4087
  966MOL0     H30408   2.790   6.102  10.016 -2.8656  0.6962 -1.9708
  966MOL0     H30409   2.634   6.171  10.074 -0.0776 -1.6832  0.1159
  966MOL0     H30410   2.782   6.264  10.092 -4.5021  2.7019  0.9425
  967MOL0     O30411   3.155   8.693   1.061 -0.4799 -0.3373 -0.3116
  967MOL0     C30412   3.086   8.754   0.976 -0.9874 -1.1022 -0.6077
  967MOL0     O30413   3.139   8.843   0.882 -0.2260  0.8416  0.0309
  967MOL0     C30414   3.277   8.866   0.864 -0.1507 -0.2249 -0.3096
  967MOL0     C30415   3.369   8.875   0.969 -0.7332  0.4482  0.3802
  967MOL0     C30416   3.499   8.918   0.947 -0.0124  0.9133  0.3556
  967MOL0     C30417   3.553   8.941   0.818  0.3855  0.0867 -0.7185
  967MOL0     O30418   3.688   8.966   0.802 -0.1084  0.1465  0.3458
  967MOL0     C30419   3.750   9.067   0.891 -0.7981 -0.9789  0.5299
  967MOL0     C30420   3.859   9.137   0.811 -0.3759 -0.4009 -0.7071
  967MOL0     C30421   3.947   9.239   0.892  0.7683  0.0738  0.0212
  967MOL0     C30422   4.042   9.309   0.791 -0.0359  0.8961 -0.0946
  967MOL0     C30423   4.095   9.442   0.838 -0.0592 -0.6545 -0.6055
  967MOL0     C30424   4.189   9.434   0.963  0.0054  0.1453  1.0813
  967MOL0     C30425   4.220   9.569   1.018 -0.4878  0.0910 -0.4472
  967MOL0     C30426   4.293   9.573   1.149  1.1821  0.3578 -0.5016
  967MOL0     N30427   4.430   9.513   1.151  0.1139 -0.7544  0.0049
  967MOL0     C30428   4.534   9.553   1.058 -0.1708  0.7934  0.8965
  967MOL0     C30429   4.622   9.450   1.069  0.3569 -0.4494 -0.7607
  967MOL0     C30430   4.747   9.438   0.991  0.4571  0.5120  0.1991
  967MOL0     C30431   4.743   9.457   0.839  0.3783  0.0265 -0.0485
  967MOL0     C30432   4.685   9.323   0.785  0.8133 -0.8081 -1.0073
  967MOL0     C30433   4.698   9.316   0.631  0.0875  0.6358 -0.4795
  967MOL0     O30434   4.601   9.393   0.561 -1.0438 -0.1181 -0.3512
  967MOL0     C30435   4.479   9.348   0.537  0.3373  0.1424 -0.2579
  967MOL0     C30436   4.430   9.214   0.562  0.6497 -0.8855 -0.6858
  967MOL0     C30437   4.305   9.168   0.541 -0.5721 -0.2581  0.1602
  967MOL0     C30438   4.220   9.260   0.469  0.2484  0.5614 -0.2327
  967MOL0     C30439   4.087   9.209   0.433 -0.0545  0.0808 -0.6628
  967MOL0     O30440   3.986   9.293   0.379  0.7285 -0.1664  0.9138
  967MOL0     C30441   3.861   9.244   0.341  0.3778 -0.3756 -0.8483
  967MOL0     C30442   3.790   9.314   0.248 -0.2079  0.2317  0.1767
  967MOL0     C30443   3.660   9.271   0.204 -0.5877 -0.3853 -0.1538
  967MOL0     C30444   3.608   9.147   0.242 -0.9063 -0.2760  0.0754
  967MOL0     O30445   3.482   9.091   0.215  0.0688 -0.3710  0.9672
  967MOL0     C30446   3.386   9.183   0.161  0.3540  1.2565  0.0198
  967MOL0     C30447   3.253   9.117   0.151 -0.4032 -0.2260 -0.1141
  967MOL0     C30448   3.190   9.100   0.287 -0.7923  0.6193 -0.7162
  967MOL0     C30449   3.050   9.034   0.273 -0.6244 -0.5126 -0.1903
  967MOL0     C30450   2.981   9.012   0.410 -0.4077 -0.4948 -0.4392
  967MOL0     C30451   2.894   9.132   0.447  0.3979  0.0517 -0.0209
  967MOL0     C30452   2.858   9.124   0.594 -1.2872 -0.3963  0.0796
  967MOL0     C30453   2.719   9.073   0.632 -0.5101  0.8918  0.3282
  967MOL0    Cl30454   2.695   8.910   0.559  0.0154  0.1235 -0.1288
  967MOL0     C30455   3.681   9.078   0.342  0.0193  0.5356 -0.5521
  967MOL0     C30456   3.803   9.128   0.398 -0.2325 -0.2634  0.6997
  967MOL0     O30457   4.068   9.091   0.468 -0.4371 -0.6044  0.3140
  967MOL0     C30458   4.256   9.389   0.444  0.7878 -0.3661  0.4351
  967MOL0     C30459   4.384   9.433   0.475 -0.4938 -0.3691 -0.3296
  967MOL0     N30460   4.553   9.348   1.138 -0.3333 -0.8031  0.5303
  967MOL0     N30461   4.442   9.387   1.184  0.4168 -0.1863  0.7342
  967MOL0     C30462   3.467   8.917   0.709  0.7190 -0.0398  0.4821
  967MOL0     C30463   3.333   8.880   0.735  0.3295  0.2483 -0.7221
  967MOL0     C30464   2.946   8.725   0.961 -0.3713 -0.1563  0.0439
  967MOL0     C30465   2.883   8.738   0.837 -0.0266 -0.1530 -0.1732
  967MOL0     C30466   2.758   8.683   0.803 -0.2312  0.3703  0.3931
  967MOL0     C30467   2.670   8.640   0.911  0.1246  0.4237 -1.1305
  967MOL0     O30468   2.533   8.622   0.899 -0.2506 -0.4477  0.0307
  967MOL0     C30469   2.475   8.601   0.764  0.1664  1.0595 -0.0990
  967MOL0     C30470   2.439   8.735   0.713 -1.2400  0.0786 -0.4027
  967MOL0     C30471   2.326   8.791   0.794  0.1918 -0.6954 -0.1980
  967MOL0     C30472   2.296   8.938   0.763  0.5683 -0.0288  0.5276
  967MOL0     C30473   2.393   9.037   0.813 -1.1358 -0.2265  0.1228
  967MOL0     C30474   2.482   9.113   0.855  0.0492  0.3538 -0.3123
  967MOL0     C30475   2.723   8.643   1.039  0.5587  0.0591 -0.1817
  967MOL0     C30476   2.857   8.677   1.064 -0.2025  0.4236  0.2174
  967MOL0     C30477   2.885   8.670   1.210  0.8909 -0.0041  0.4983
  967MOL0     H30478   3.345   8.861   1.074  2.0345  0.2761  1.0700
  967MOL0     H30479   3.567   8.920   1.032  0.4313  1.2054  0.0014
  967MOL0     H30480   3.678   9.146   0.915 -1.8473 -1.3726 -1.1530
  967MOL0     H30481   3.794   9.012   0.975 -1.3295  0.6000  1.9133
  967MOL0     H30482   3.815   9.191   0.727  0.4423 -0.2445 -1.0484
  967MOL0     H30483   3.923   9.056   0.774  2.1447 -0.6084  3.4250
  967MOL0     H30484   4.011   9.184   0.962 -1.8362 -0.8056  1.8754
  967MOL0     H30485   3.874   9.303   0.944  0.8769  0.5649 -0.4281
  967MOL0     H30486   4.132   9.249   0.780  0.5853  1.8090 -0.1246
  967MOL0     H30487   3.999   9.323   0.692  1.5035 -1.4002 -1.1678
  967MOL0     H30488   4.152   9.492   0.758 -0.4079  0.9500  0.1114
  967MOL0     H30489   4.010   9.506   0.864 -0.0733 -0.2671 -1.5363
  967MOL0     H30490   4.157   9.371   1.047  1.0732  0.9088  2.0874
  967MOL0     H30491   4.286   9.399   0.927 -0.3292 -1.3900  1.5812
  967MOL0     H30492   4.129   9.624   1.044  0.0780  0.8144  0.0488
  967MOL0     H30493   4.276   9.618   0.939  2.6175 -1.4745  0.6227
  967MOL0     H30494   4.306   9.679   1.176 -1.5282  0.2308  1.8299
  967MOL0     H30495   4.225   9.533   1.225  0.2458  1.1974 -0.8707
  967MOL0     H30496   4.556   9.650   1.016  0.2795  0.2368 -0.1744
  967MOL0     H30497   4.797   9.530   1.023 -1.0051  0.4721  2.8941
  967MOL0     H30498   4.800   9.346   1.018 -0.9823 -0.9806 -1.7611
  967MOL0     H30499   4.697   9.552   0.812  2.2461  0.9635 -0.1273
  967MOL0     H30500   4.849   9.462   0.814  0.0936 -0.5373 -1.4258
  967MOL0     H30501   4.582   9.305   0.815  0.9791  1.0109  0.8181
  967MOL0     H30502   4.747   9.241   0.824 -1.7801 -1.3126  2.4532
  967MOL0     H30503   4.698   9.215   0.589  1.5758  0.2488  0.3901
  967MOL0     H30504   4.799   9.355   0.613  0.2420  0.8681  0.8499
  967MOL0     H30505   4.494   9.150   0.622  0.8903  0.3830  0.4530
  967MOL0     H30506   4.281   9.070   0.579  1.7201 -1.5428 -1.4532
  967MOL0     H30507   3.829   9.409   0.212 -1.1368  0.0286 -1.4863
  967MOL0     H30508   3.588   9.331   0.148 -1.7279  0.2927  1.9488
  967MOL0     H30509   3.363   9.274   0.218 -0.7002  0.8689  0.2421
  967MOL0     H30510   3.420   9.220   0.064  2.1754  1.0942  0.5467
  967MOL0     H30511   3.182   9.167   0.084  1.2412 -0.0782 -1.8080
  967MOL0     H30512   3.274   9.021   0.102  1.9336 -0.5943  1.4604
  967MOL0     H30513   3.247   9.028   0.347  1.0689  1.2276 -1.7066
  967MOL0     H30514   3.187   9.196   0.338 -3.1206  0.6974 -0.8671
  967MOL0     H30515   3.052   8.943   0.212 -0.7171 -1.3230  0.9832
  967MOL0     H30516   2.982   9.107   0.228 -2.2256 -1.5042  0.5575
  967MOL0     H30517   3.064   9.010   0.481  1.6005  0.4708 -2.6223
  967MOL0     H30518   2.933   8.914   0.404 -0.8647 -0.1822 -3.7711
  967MOL0     H30519   2.953   9.224   0.438 -0.5376  1.2708  3.8868
  967MOL0     H30520   2.805   9.124   0.384 -0.4842 -0.1811  1.1935
  967MOL0     H30521   2.871   9.224   0.634 -0.1895 -0.1669 -0.8063
  967MOL0     H30522   2.926   9.068   0.659 -2.9582 -1.7880  0.7197
  967MOL0     H30523   2.729   9.055   0.740  3.7712 -0.4751 -0.1051
  967MOL0     H30524   2.640   9.143   0.603  0.6617  1.5950 -1.3392
  967MOL0     H30525   3.631   9.000   0.398  0.5847  0.6409  0.1036
  967MOL0     H30526   3.848   9.069   0.477  3.2686  0.2493 -0.7142
  967MOL0     H30527   4.188   9.449   0.383  0.2114 -1.9838 -0.5909
  967MOL0     H30528   4.417   9.532   0.445  1.1271 -1.4412 -2.3379
  967MOL0     H30529   3.512   8.922   0.610  1.2454 -2.0584  0.5652
  967MOL0     H30530   3.267   8.844   0.657  1.4093  0.9314 -1.9804
  967MOL0     H30531   2.939   8.780   0.754  0.3267 -0.3776 -0.0518
  967MOL0     H30532   2.724   8.672   0.701 -2.0582 -2.3522  1.1773
  967MOL0     H30533   2.384   8.543   0.782  1.3467 -0.7900  0.2312
  967MOL0     H30534   2.546   8.554   0.694  0.5748  1.2963  0.1524
  967MOL0     H30535   2.416   8.734   0.606  0.7428 -2.3471 -0.9053
  967MOL0     H30536   2.524   8.804   0.718 -1.9529  1.2852 -3.0747
  967MOL0     H30537   2.347   8.786   0.901 -0.6299  1.2604  0.1068
  967MOL0     H30538   2.240   8.726   0.780 -1.0767  1.1269 -1.2988
  967MOL0     H30539   2.275   8.954   0.657 -1.2957 -3.1655  0.2895
  967MOL0     H30540   2.205   8.982   0.806  0.9779  3.5143 -1.8085
  967MOL0     H30541   2.561   9.170   0.898  2.5805 -2.0758 -1.4184
  967MOL0     H30542   2.651   8.612   1.114  1.9188 -1.7229  0.4662
  967MOL0     H30543   2.839   8.753   1.264  1.1490 -0.0514  0.7981
  967MOL0     H30544   2.839   8.580   1.251  0.2566  0.4944  0.9075
  967MOL0     H30545   2.991   8.672   1.237  0.6340 -0.1818  1.5742
  968MOL0     O30546   5.626   6.564   8.237 -0.2559  0.4369 -1.2006
  968MOL0     C30547   5.606   6.528   8.121  0.0579 -0.1224  0.5615
  968MOL0     O30548   5.703   6.487   8.038 -0.1996 -0.1344  0.5549
  968MOL0     C30549   5.839   6.485   8.075  0.8596  0.7402 -0.2338
  968MOL0     C30550   5.874   6.413   8.190  0.0564  0.5109  0.0360
  968MOL0     C30551   6.013   6.408   8.226  0.1793  0.6887  0.0983
  968MOL0     C30552   6.099   6.490   8.164 -0.6643  0.2143  0.0717
  968MOL0     O30553   6.234   6.480   8.202  0.2787  0.2180  0.1206
  968MOL0     C30554   6.289   6.353   8.144  0.1990 -0.3730 -0.9049
  968MOL0     C30555   6.407   6.381   8.056 -0.2822 -0.3974  1.0388
  968MOL0     C30556   6.389   6.490   7.941 -0.1418  0.4381  0.3455
  968MOL0     C30557   6.445   6.632   7.981  0.1745  0.0680  0.0460
  968MOL0     C30558   6.396   6.745   7.897  0.3009 -0.5706 -0.0928
  968MOL0     C30559   6.478   6.761   7.768  0.3932  0.0934 -0.9321
  968MOL0     C30560   6.469   6.906   7.709 -0.1001  0.6911 -0.8283
  968MOL0     C30561   6.517   7.018   7.801 -0.4565 -0.1497  0.4055
  968MOL0     N30562   6.664   7.021   7.813 -0.6362  0.3029 -0.1365
  968MOL0     C30563   6.756   7.038   7.714 -0.6468 -0.0186  0.2270
  968MOL0     C30564   6.875   7.022   7.775 -0.2100 -0.2247 -0.2493
  968MOL0     C30565   7.013   7.025   7.730  0.1725  0.0556 -0.7423
  968MOL0     C30566   7.038   6.991   7.585 -0.1652 -0.3516  0.4816
  968MOL0     C30567   7.010   6.835   7.571  0.6027  0.2225 -0.1761
  968MOL0     C30568   7.011   6.792   7.419 -0.3217 -0.3446 -0.5848
  968MOL0     O30569   6.913   6.865   7.344  0.2669 -0.3475 -0.3212
  968MOL0     C30570   6.777   6.827   7.349  0.0113  0.4132 -0.0372
  968MOL0     C30571   6.736   6.697   7.402  0.4933  0.3098  0.3119
  968MOL0     C30572   6.600   6.661   7.402 -0.3330  0.3011 -0.8247
  968MOL0     C30573   6.504   6.755   7.348 -0.1776  0.3496 -0.4848
  968MOL0     C30574   6.357   6.714   7.357 -0.1131 -0.6727  0.3891
  968MOL0     O30575   6.335   6.611   7.442 -0.0369 -0.5439  0.4610
  968MOL0     C30576   6.216   6.547   7.444 -0.5903  0.7215 -1.2036
  968MOL0     C30577   6.172   6.504   7.577  0.1778  0.2684  0.0026
  968MOL0     C30578   6.050   6.435   7.602 -0.1295  0.4673  0.2133
  968MOL0     C30579   5.979   6.401   7.483 -0.5075  0.0909 -0.6512
  968MOL0     O30580   5.872   6.318   7.501 -0.5507  0.9623  0.3673
  968MOL0     C30581   5.768   6.289   7.408  0.7905 -0.6260  0.6638
  968MOL0     C30582   5.640   6.268   7.492 -0.4004  0.2162 -0.1730
  968MOL0     C30583   5.594   6.391   7.585  0.0050  0.3184 -0.3705
  968MOL0     C30584   5.627   6.532   7.533  0.9352 -0.8222  0.2660
  968MOL0     C30585   5.567   6.641   7.624  0.5754  0.1681  0.3991
  968MOL0     C30586   5.646   6.676   7.752  0.2143 -0.1750  0.1529
  968MOL0     C30587   5.574   6.787   7.835  0.2675  0.0481 -0.6135
  968MOL0     C30588   5.419   6.780   7.845 -0.3715 -0.3629  0.0999
  968MOL0    Cl30589   5.347   6.865   7.700 -0.2183 -0.1010  0.3415
  968MOL0     C30590   6.018   6.453   7.361  0.0864  0.5550 -0.0688
  968MOL0     C30591   6.135   6.522   7.338 -0.4826  0.0245  0.2414
  968MOL0     O30592   6.276   6.779   7.291  0.0928 -0.0051 -0.0707
  968MOL0     C30593   6.546   6.874   7.293  0.3325 -0.0158  0.4733
  968MOL0     C30594   6.682   6.908   7.290  0.3286 -0.2573 -0.8760
  968MOL0     N30595   6.850   6.997   7.903 -0.3316 -0.4983 -0.0009
  968MOL0     N30596   6.725   7.001   7.932  0.0409  0.5309  0.2186
  968MOL0     C30597   6.063   6.559   8.053 -0.1789  0.5134 -0.1043
  968MOL0     C30598   5.933   6.555   8.005 -0.1605 -0.1424 -0.5968
  968MOL0     C30599   5.466   6.514   8.071  1.2005  0.0492  0.0250
  968MOL0     C30600   5.450   6.418   7.965  0.2698 -1.2725 -0.2756
  968MOL0     C30601   5.315   6.396   7.916  0.0487  0.8929 -0.3113
  968MOL0     C30602   5.203   6.479   7.965 -0.4880  0.1582 -0.1720
  968MOL0     O30603   5.077   6.462   7.918  0.4290  0.6744 -0.6790
  968MOL0     C30604   5.021   6.334   7.908 -0.3070  0.4509 -0.2510
  968MOL0     C30605   4.925   6.325   7.790  1.2629  1.0799  0.0070
  968MOL0     C30606   4.980   6.358   7.648  0.3141 -0.1237 -0.1690
  968MOL0     C30607   5.081   6.254   7.594 -0.5346 -0.2172 -0.1968
  968MOL0     C30608   5.133   6.295   7.463  0.5432 -0.4721 -0.7590
  968MOL0     C30609   5.183   6.342   7.356 -0.7853  0.1174  0.2049
  968MOL0     C30610   5.226   6.576   8.062 -0.3328 -0.1080  0.1892
  968MOL0     C30611   5.349   6.592   8.116 -0.3331  0.1314 -0.6613
  968MOL0     C30612   5.365   6.698   8.228  0.8361  0.9103 -0.3596
  968MOL0     H30613   5.800   6.369   8.256  0.3457  0.8072  0.5629
  968MOL0     H30614   6.037   6.344   8.310 -1.0694 -0.3716 -0.3180
  968MOL0     H30615   6.317   6.289   8.228  1.9887  3.5530  1.8279
  968MOL0     H30616   6.215   6.300   8.084 -1.2565  0.2354  0.2562
  968MOL0     H30617   6.439   6.284   8.016  3.3502  1.0533  0.0082
  968MOL0     H30618   6.488   6.423   8.116  0.2200 -2.1435  1.6140
  968MOL0     H30619   6.289   6.480   7.899 -0.4158 -3.0144  1.5026
  968MOL0     H30620   6.457   6.445   7.868  0.5055 -0.2470  1.3495
  968MOL0     H30621   6.418   6.645   8.086 -0.3035  0.5225 -0.1296
  968MOL0     H30622   6.554   6.628   7.981  0.3500  1.0972  3.7227
  968MOL0     H30623   6.289   6.736   7.874  0.0844  1.9831 -0.3641
  968MOL0     H30624   6.413   6.836   7.955  0.7180  0.2720 -1.5075
  968MOL0     H30625   6.586   6.742   7.779 -0.0383 -2.0682  0.1293
  968MOL0     H30626   6.431   6.686   7.704 -1.2759  0.1945  0.1217
  968MOL0     H30627   6.367   6.926   7.676 -0.2896  0.3140 -0.4778
  968MOL0     H30628   6.533   6.912   7.621 -0.0726  0.3213 -0.8325
  968MOL0     H30629   6.491   7.113   7.752  0.1234  0.2880  0.9295
  968MOL0     H30630   6.476   7.017   7.902  1.1762 -2.6682  1.1463
  968MOL0     H30631   6.724   7.046   7.611 -1.1497  0.8765  0.4476
  968MOL0     H30632   7.054   7.125   7.749 -2.1079  0.5461  2.6595
  968MOL0     H30633   7.071   6.955   7.790 -1.3643  0.8136  1.8038
  968MOL0     H30634   6.976   7.054   7.520 -0.6801 -1.7479 -0.4296
  968MOL0     H30635   7.143   7.013   7.562 -0.6792  1.2127 -0.5667
  968MOL0     H30636   6.910   6.814   7.610  1.1483  1.0731  1.8164
  968MOL0     H30637   7.080   6.783   7.636 -0.5874 -1.0517  0.1358
  968MOL0     H30638   6.989   6.687   7.399 -1.4276  0.2965 -3.1165
  968MOL0     H30639   7.109   6.823   7.380  0.0549 -0.2250  0.4216
  968MOL0     H30640   6.815   6.625   7.422  0.3615  0.0874  0.0469
  968MOL0     H30641   6.574   6.565   7.445  2.4681 -1.3110 -2.4209
  968MOL0     H30642   6.231   6.532   7.664  2.2192  1.0151 -1.5402
  968MOL0     H30643   6.022   6.381   7.692 -0.3598  0.1973 -0.0196
  968MOL0     H30644   5.753   6.372   7.339 -0.7361 -2.4274 -1.2998
  968MOL0     H30645   5.793   6.198   7.353 -1.2598 -0.2232 -1.0731
  968MOL0     H30646   5.557   6.259   7.422 -0.2678  1.1790 -0.4714
  968MOL0     H30647   5.646   6.179   7.555  0.6619 -0.7432 -1.5633
  968MOL0     H30648   5.493   6.381   7.625 -0.2144 -1.4021 -1.2812
  968MOL0     H30649   5.667   6.384   7.666 -0.3314  1.2727  0.0332
  968MOL0     H30650   5.574   6.535   7.437  0.2041  4.3700  0.5381
  968MOL0     H30651   5.733   6.561   7.524  0.0585  2.5444 -0.9207
  968MOL0     H30652   5.465   6.607   7.644  0.2692 -0.2137 -1.6132
  968MOL0     H30653   5.556   6.732   7.564 -0.3632  0.1075  0.4562
  968MOL0     H30654   5.661   6.590   7.818 -0.9609  1.0039  2.0730
  968MOL0     H30655   5.742   6.711   7.713  0.6966 -1.0359  0.5350
  968MOL0     H30656   5.605   6.888   7.806 -2.1224  2.3039  3.7260
  968MOL0     H30657   5.616   6.772   7.935  1.6947 -3.0655 -1.5429
  968MOL0     H30658   5.379   6.678   7.848 -0.6582 -0.2539 -0.0366
  968MOL0     H30659   5.382   6.831   7.934 -1.6505  2.4856 -1.9364
  968MOL0     H30660   5.965   6.400   7.282 -0.7689 -3.0350  2.6328
  968MOL0     H30661   6.157   6.531   7.232 -3.1566 -1.6854 -0.5733
  968MOL0     H30662   6.480   6.936   7.232  0.9998 -0.1871 -0.4459
  968MOL0     H30663   6.728   7.001   7.258  0.9187 -0.3453 -0.3087
  968MOL0     H30664   6.139   6.619   8.004  1.2985 -0.7648  0.5104
  968MOL0     H30665   5.885   6.612   7.926 -4.8430 -2.1073  0.4620
  968MOL0     H30666   5.540   6.369   7.929  2.4144  1.5560  0.8081
  968MOL0     H30667   5.304   6.327   7.833 -1.6151 -1.3180  1.6294
  968MOL0     H30668   4.965   6.312   8.000  1.1432  1.0011  0.7943
  968MOL0     H30669   5.099   6.258   7.903 -0.0513  0.6155  0.9949
  968MOL0     H30670   4.837   6.389   7.802 -0.8244 -1.6531  0.2641
  968MOL0     H30671   4.879   6.225   7.798  0.7549  1.3751  0.8461
  968MOL0     H30672   5.018   6.460   7.639 -1.7975  0.7089 -0.1403
  968MOL0     H30673   4.887   6.354   7.590 -0.8608 -0.5652  1.6413
  968MOL0     H30674   5.170   6.248   7.658 -1.0762  1.4293  0.7488
  968MOL0     H30675   5.047   6.150   7.594  1.3787 -0.9067 -1.5107
  968MOL0     H30676   5.223   6.387   7.268 -1.9301  2.4229  0.7823
  968MOL0     H30677   5.133   6.619   8.098 -1.3389 -0.7157 -1.5291
  968MOL0     H30678   5.458   6.751   8.203  1.1486 -0.0281 -1.2418
  968MOL0     H30679   5.279   6.765   8.216 -1.6815 -2.0507 -0.0524
  968MOL0     H30680   5.384   6.649   8.324  1.3349  0.5501 -0.6403
  969MOL0     O30681   8.404   5.558   5.899  0.4909  0.6232 -1.1501
  969MOL0     C30682   8.307   5.541   5.970  0.4334 -0.3271 -0.1601
  969MOL0     O30683   8.309   5.548   6.110  0.2525  0.3487 -0.4250
  969MOL0     C30684   8.429   5.578   6.172  0.1278 -0.1566 -0.0369
  969MOL0     C30685   8.451   5.713   6.210 -0.0481 -0.2063  0.1388
  969MOL0     C30686   8.572   5.748   6.273  0.1795  0.0074  0.0430
  969MOL0     C30687   8.665   5.646   6.315  0.5314 -0.7955 -0.3797
  969MOL0     O30688   8.789   5.668   6.363 -0.3082  0.3638 -0.5551
  969MOL0     C30689   8.838   5.809   6.377  0.8166 -0.1022 -0.0339
  969MOL0     C30690   8.954   5.805   6.476  0.5533  0.1152  0.9275
  969MOL0     C30691   8.918   5.765   6.621  0.9625  0.3483  0.1642
  969MOL0     C30692   9.032   5.708   6.713  0.7110 -0.5737  0.6984
  969MOL0     C30693   9.135   5.805   6.783 -0.2003 -0.3246 -0.0731
  969MOL0     C30694   9.249   5.734   6.840  0.2070 -0.2578  0.2690
  969MOL0     C30695   9.326   5.827   6.925  0.6747 -0.5181  0.4616
  969MOL0     C30696   9.451   5.768   6.985  0.5439  0.3615  0.4234
  969MOL0     N30697   9.428   5.732   7.125  0.2328  0.2959 -0.1073
  969MOL0     C30698   9.436   5.803   7.238 -0.6874  0.0669  0.5732
  969MOL0     C30699   9.389   5.720   7.336  0.0667  0.1119 -0.4154
  969MOL0     C30700   9.368   5.735   7.487 -0.3427  0.5802 -0.1789
  969MOL0     C30701   9.477   5.655   7.560 -0.9192 -0.2420 -0.3901
  969MOL0     C30702   9.481   5.698   7.710  0.2292  1.0694  0.4130
  969MOL0     C30703   9.585   5.640   7.803 -0.0656 -0.3933 -0.6934
  969MOL0     O30704   9.705   5.602   7.726  0.1109  0.3126 -0.2595
  969MOL0     C30705   9.825   5.618   7.791  0.0043 -0.7037  0.4092
  969MOL0     C30706   9.925   5.690   7.726 -0.6875  0.3093 -0.3563
  969MOL0     C30707  10.049   5.722   7.788  0.0600  0.1460  0.2208
  969MOL0     C30708  10.074   5.679   7.923  0.7282 -0.2304  0.6573
  969MOL0     C30709  10.206   5.701   7.996  0.1744 -0.3425 -0.9475
  969MOL0     O30710  10.213   5.643   8.113 -0.3552 -0.1532  0.2135
  969MOL0     C30711  10.321   5.669   8.187 -0.3327 -0.4168 -0.2516
  969MOL0     C30712  10.325   5.768   8.283 -0.2778 -0.6621 -0.8150
  969MOL0     C30713  10.437   5.794   8.360 -0.2307 -1.0261  0.1817
  969MOL0     C30714  10.555   5.723   8.340  0.1148  0.0818  0.0111
  969MOL0     O30715  10.660   5.760   8.409 -0.4807 -0.9681 -0.4517
  969MOL0     C30716  10.738   5.666   8.482  0.0259  0.4617  0.2125
  969MOL0     C30717  10.885   5.651   8.429  0.9294  0.1472 -0.4097
  969MOL0     C30718  10.960   5.750   8.514 -0.1378  0.4094 -0.8333
  969MOL0     C30719  11.108   5.739   8.471 -1.1781 -0.2419 -0.4085
  969MOL0     C30720  11.197   5.784   8.597 -0.6352 -0.1401  0.6196
  969MOL0     C30721  11.345   5.779   8.562 -0.6348  0.3066 -0.2531
  969MOL0     C30722  11.433   5.671   8.622  0.2827  0.4884 -0.1309
  969MOL0     C30723  11.468   5.555   8.529  0.7403  0.3906 -0.4212
  969MOL0    Cl30724  11.590   5.460   8.608  0.2953  0.6879 -0.3436
  969MOL0     C30725  10.550   5.627   8.242 -0.0306  0.4368 -0.5780
  969MOL0     C30726  10.440   5.602   8.167  0.8734 -0.1940 -0.0670
  969MOL0     O30727  10.298   5.747   7.930  0.0339 -0.0146  0.5421
  969MOL0     C30728   9.970   5.591   7.976  0.4255 -0.8460 -0.2768
  969MOL0     C30729   9.850   5.565   7.915  0.0728 -0.1454 -0.4063
  969MOL0     N30730   9.359   5.595   7.281  0.6445 -0.1464 -0.3068
  969MOL0     N30731   9.381   5.605   7.154  0.2828  0.7385 -0.3464
  969MOL0     C30732   8.631   5.512   6.283  0.4483  1.1498  0.2904
  969MOL0     C30733   8.512   5.475   6.219 -0.0507 -0.3071  0.3838
  969MOL0     C30734   8.174   5.527   5.914 -0.0666 -0.1890  0.3418
  969MOL0     C30735   8.074   5.490   6.003 -0.5984  0.1595  0.4882
  969MOL0     C30736   7.947   5.455   5.952  0.4156 -0.9667  0.8054
  969MOL0     C30737   7.919   5.474   5.814 -0.0021  0.5737  0.4933
  969MOL0     O30738   7.804   5.443   5.748 -0.0149  0.6355 -0.1215
  969MOL0     C30739   7.694   5.419   5.836  0.7819  0.8326  0.2588
  969MOL0     C30740   7.563   5.432   5.756 -0.4341  0.3277  0.3093
  969MOL0     C30741   7.443   5.368   5.838  0.1451 -0.9790 -0.0376
  969MOL0     C30742   7.331   5.347   5.735 -1.3162 -0.3974  0.5704
  969MOL0     C30743   7.223   5.271   5.783 -0.3959  0.3433  0.7454
  969MOL0     C30744   7.147   5.200   5.844  0.4462 -0.9158 -0.6025
  969MOL0     C30745   8.020   5.525   5.731 -0.1145 -0.1457  0.5204
  969MOL0     C30746   8.148   5.551   5.775  0.5875 -0.3627  0.2911
  969MOL0     C30747   8.238   5.634   5.676  0.4541  0.1058 -0.7725
  969MOL0     H30748   8.370   5.777   6.178 -1.6174 -1.9826  0.4095
  969MOL0     H30749   8.602   5.853   6.272  0.0300  0.1314  2.8792
  969MOL0     H30750   8.858   5.863   6.284  0.8947  0.9261  0.5548
  969MOL0     H30751   8.759   5.868   6.425  0.9559  0.2378 -0.2190
  969MOL0     H30752   9.010   5.898   6.476  1.1507 -0.2321  1.5472
  969MOL0     H30753   9.029   5.734   6.440  2.0293  1.7346  0.7380
  969MOL0     H30754   8.834   5.695   6.619 -0.5653  2.0770 -0.0028
  969MOL0     H30755   8.871   5.858   6.656 -0.5217 -0.9766  1.9280
  969MOL0     H30756   8.978   5.652   6.791 -0.1173 -2.2932 -1.0257
  969MOL0     H30757   9.085   5.638   6.647  1.1649  2.1896 -2.0871
  969MOL0     H30758   9.172   5.881   6.713  1.4526 -0.9419  0.0646
  969MOL0     H30759   9.085   5.852   6.867  1.1098  1.3572 -0.1797
  969MOL0     H30760   9.212   5.650   6.899 -0.2459 -2.0818 -2.4684
  969MOL0     H30761   9.304   5.688   6.757  2.1974  2.8708 -0.3326
  969MOL0     H30762   9.271   5.876   7.006 -0.8790 -1.4043 -0.0231
  969MOL0     H30763   9.350   5.923   6.878 -2.1437  1.0206  1.9214
  969MOL0     H30764   9.469   5.678   6.926  0.3052  1.0102 -0.6731
  969MOL0     H30765   9.536   5.836   6.973  0.5301  0.4316  0.6982
  969MOL0     H30766   9.471   5.906   7.244  1.6007 -0.0923 -4.8789
  969MOL0     H30767   9.396   5.835   7.521  1.3060  0.0082  0.2024
  969MOL0     H30768   9.270   5.695   7.516 -0.9980 -0.6676 -3.6061
  969MOL0     H30769   9.459   5.548   7.561 -0.5411 -0.3896  3.2904
  969MOL0     H30770   9.571   5.683   7.510 -1.8045  2.2957 -0.8100
  969MOL0     H30771   9.383   5.683   7.756 -0.4279 -0.5678 -1.4072
  969MOL0     H30772   9.511   5.804   7.706  0.9103  1.0838  3.3715
  969MOL0     H30773   9.555   5.542   7.841  0.3255  0.5138  2.1967
  969MOL0     H30774   9.589   5.692   7.899 -0.9442  0.1812 -0.9605
  969MOL0     H30775   9.929   5.731   7.625  2.2867  3.6005  0.8752
  969MOL0     H30776  10.130   5.778   7.741  1.5972 -2.8450 -0.9260
  969MOL0     H30777  10.234   5.827   8.293  0.3396  0.4387 -1.5086
  969MOL0     H30778  10.447   5.877   8.429 -2.1474 -1.3456  0.9113
  969MOL0     H30779  10.729   5.691   8.588  2.2805 -0.6767  0.7406
  969MOL0     H30780  10.700   5.564   8.473  0.4674  0.0213  2.6231
  969MOL0     H30781  10.912   5.548   8.457 -1.2395  0.0746  1.7420
  969MOL0     H30782  10.897   5.682   8.325  2.6875  1.5449  0.1534
  969MOL0     H30783  10.922   5.852   8.499 -0.9623  0.0837 -0.9924
  969MOL0     H30784  10.947   5.715   8.617 -0.9793  0.7733 -0.8070
  969MOL0     H30785  11.132   5.790   8.378  0.8217  1.5723  0.9907
  969MOL0     H30786  11.123   5.631   8.464  2.1075  0.2177 -2.6632
  969MOL0     H30787  11.185   5.717   8.683 -0.4223 -0.7247  0.1946
  969MOL0     H30788  11.176   5.890   8.613 -0.8047  0.7410 -4.0805
  969MOL0     H30789  11.356   5.776   8.453  0.5017 -0.5449 -0.1265
  969MOL0     H30790  11.389   5.871   8.601  3.4919 -2.0693  1.3015
  969MOL0     H30791  11.394   5.640   8.720 -0.9712 -0.9081 -1.0279
  969MOL0     H30792  11.527   5.716   8.655 -1.3181  2.4643  2.1172
  969MOL0     H30793  11.375   5.506   8.501  1.6540  1.1762 -6.0430
  969MOL0     H30794  11.504   5.590   8.432 -1.3264 -0.0542 -1.3983
  969MOL0     H30795  10.644   5.581   8.216  0.2573  0.3987  0.5106
  969MOL0     H30796  10.445   5.530   8.086 -1.0161  1.2929 -1.5985
  969MOL0     H30797   9.995   5.559   8.077 -0.1259  3.4049  1.4406
  969MOL0     H30798   9.764   5.510   7.952 -0.9120 -0.6933 -3.2334
  969MOL0     H30799   8.701   5.438   6.320 -2.3374 -0.8702  1.9919
  969MOL0     H30800   8.484   5.372   6.200  0.9830 -0.1345 -2.8594
  969MOL0     H30801   8.091   5.480   6.109  0.5880  3.0226  0.6597
  969MOL0     H30802   7.881   5.415   6.028  0.4762  1.8637  2.4974
  969MOL0     H30803   7.688   5.487   5.922 -0.4103  3.0002 -1.4457
  969MOL0     H30804   7.714   5.322   5.883  0.3214  1.2043  1.2660
  969MOL0     H30805   7.569   5.379   5.660 -0.1712  1.0105 -0.0600
  969MOL0     H30806   7.549   5.537   5.726 -1.9610 -0.8793 -4.0735
  969MOL0     H30807   7.416   5.423   5.929  2.8200 -1.0587  0.8894
  969MOL0     H30808   7.477   5.268   5.867 -2.3947 -2.4996 -1.8365
  969MOL0     H30809   7.289   5.439   5.694  0.2230  0.3537  0.6305
  969MOL0     H30810   7.368   5.286   5.651  2.0700  0.5455  1.2246
  969MOL0     H30811   7.074   5.147   5.902  1.2434 -1.7391 -0.3383
  969MOL0     H30812   7.979   5.549   5.633 -0.5426  1.7204  1.1101
  969MOL0     H30813   8.307   5.569   5.622 -0.4807 -0.4089 -1.3785
  969MOL0     H30814   8.179   5.687   5.601 -3.2648 -2.0639  0.3827
  969MOL0     H30815   8.285   5.707   5.743 -1.0705 -2.2432  3.1552
  970MOL0     O30816   9.039   2.521   3.083  0.1924  0.2872 -0.2694
  970MOL0     C30817   8.968   2.449   3.147  0.6230  0.2478 -0.4081
  970MOL0     O30818   8.998   2.329   3.204  0.1589  0.1704  0.3417
  970MOL0     C30819   9.073   2.231   3.144 -0.7367  0.0309  0.1208
  970MOL0     C30820   9.027   2.099   3.132 -0.5934  0.1449  0.6581
  970MOL0     C30821   9.114   1.998   3.079  0.7787  0.0103  0.2146
  970MOL0     C30822   9.238   2.024   3.014  0.0270 -0.0040  0.5221
  970MOL0     O30823   9.328   1.941   2.943  0.1322 -0.4005  0.5423
  970MOL0     C30824   9.276   1.808   2.916  0.0401  0.0652 -0.4000
  970MOL0     C30825   9.354   1.727   2.813  0.2710 -0.4794  0.2211
  970MOL0     C30826   9.309   1.740   2.673 -0.1993 -0.1297  0.1359
  970MOL0     C30827   9.355   1.867   2.602 -1.2333  0.7130 -0.0357
  970MOL0     C30828   9.305   1.871   2.451  0.3843 -0.9928 -0.4083
  970MOL0     C30829   9.152   1.916   2.449  0.3034  0.4682  0.1109
  970MOL0     C30830   9.059   1.810   2.382  0.2007 -0.2780  0.4893
  970MOL0     C30831   9.073   1.787   2.228 -0.1863 -0.8146 -0.5237
  970MOL0     N30832   8.959   1.705   2.186 -0.2406 -0.2803 -0.0401
  970MOL0     C30833   8.849   1.756   2.125  0.2778 -0.1555  0.6974
  970MOL0     C30834   8.750   1.663   2.129  0.2731  0.7123  0.5545
  970MOL0     C30835   8.602   1.681   2.092 -0.5465 -0.8172 -0.0721
  970MOL0     C30836   8.575   1.594   1.965  0.4426  0.0618 -0.0299
  970MOL0     C30837   8.648   1.628   1.832 -0.0829  0.4609 -0.2225
  970MOL0     C30838   8.595   1.753   1.764  0.5771  0.3616  0.3316
  970MOL0     O30839   8.463   1.723   1.708  0.3221  0.1975  0.4641
  970MOL0     C30840   8.393   1.819   1.641  0.0787 -0.0908  0.3838
  970MOL0     C30841   8.260   1.784   1.612  0.3825  1.3715  0.6180
  970MOL0     C30842   8.196   1.869   1.521 -0.0043 -0.3840 -0.0093
  970MOL0     C30843   8.258   1.991   1.471 -0.1699  0.2670 -0.2632
  970MOL0     C30844   8.196   2.072   1.362 -0.1797 -0.7422 -0.6988
  970MOL0     O30845   8.275   2.185   1.318  0.1122  0.9176 -0.3172
  970MOL0     C30846   8.227   2.269   1.222 -0.7740  0.3159 -0.1870
  970MOL0     C30847   8.261   2.254   1.088 -1.0380  0.9492  0.0397
  970MOL0     C30848   8.247   2.348   0.988  0.8463 -0.4745 -0.0495
  970MOL0     C30849   8.189   2.471   1.026  1.1499  0.7186 -0.0094
  970MOL0     O30850   8.138   2.565   0.942  0.2146  0.4266 -0.3335
  970MOL0     C30851   8.106   2.535   0.809  0.4713  0.0136  0.0611
  970MOL0     C30852   8.005   2.649   0.760 -0.1079  1.5495 -0.4891
  970MOL0     C30853   7.863   2.633   0.829 -0.4847 -0.2853  0.2357
  970MOL0     C30854   7.757   2.731   0.761  0.1754 -0.9147  0.2004
  970MOL0     C30855   7.618   2.672   0.785 -0.1625 -0.2157  0.5098
  970MOL0     C30856   7.578   2.554   0.696 -0.1534  0.5511 -0.0809
  970MOL0     C30857   7.436   2.500   0.738  0.5437 -0.4487 -0.0165
  970MOL0     C30858   7.403   2.371   0.673 -0.1421  0.5925  0.7336
  970MOL0    Cl30859   7.253   2.309   0.741 -0.2573  0.2928 -0.0245
  970MOL0     C30860   8.155   2.488   1.168  0.7260  0.5512  0.2410
  970MOL0     C30861   8.176   2.388   1.262  0.5293  0.4080  0.1160
  970MOL0     O30862   8.085   2.053   1.323  0.3327  0.2105 -0.5325
  970MOL0     C30863   8.393   2.023   1.502  0.1271  0.5587  0.0498
  970MOL0     C30864   8.457   1.930   1.587  0.1848  0.1925 -0.7721
  970MOL0     N30865   8.811   1.547   2.187  0.6937  0.2169  0.0513
  970MOL0     N30866   8.932   1.577   2.217  0.1622 -0.3383 -0.1874
  970MOL0     C30867   9.274   2.154   3.023  0.2191 -0.3444 -0.4843
  970MOL0     C30868   9.196   2.255   3.086 -0.3633  0.6176 -0.0415
  970MOL0     C30869   8.846   2.512   3.192  0.7032  0.2377 -0.1201
  970MOL0     C30870   8.805   2.472   3.318 -0.3094  0.2059  0.0203
  970MOL0     C30871   8.687   2.511   3.370  0.7739 -0.2417  1.2987
  970MOL0     C30872   8.596   2.584   3.287  0.1196  0.3660  0.1438
  970MOL0     O30873   8.473   2.605   3.339 -0.0892  0.0442 -0.1255
  970MOL0     C30874   8.361   2.585   3.244  0.5781  0.1216 -0.4762
  970MOL0     C30875   8.227   2.631   3.305  0.4962 -0.2368  0.5871
  970MOL0     C30876   8.210   2.790   3.319 -0.1216 -0.9990  0.4410
  970MOL0     C30877   8.127   2.871   3.217  0.4245  0.2854  0.4990
  970MOL0     C30878   8.170   2.851   3.073  0.4126  0.8938 -0.0854
  970MOL0     C30879   8.205   2.833   2.961  0.1390  0.5139 -0.4846
  970MOL0     C30880   8.631   2.630   3.156 -0.3714  0.3366 -0.2542
  970MOL0     C30881   8.750   2.587   3.102 -0.0501  0.2870 -0.2476
  970MOL0     C30882   8.790   2.622   2.958  0.5864  0.0363 -0.3018
  970MOL0     H30883   8.920   2.082   3.146 -0.5170 -2.6792 -1.4661
  970MOL0     H30884   9.068   1.900   3.089 -0.4929  0.5846  0.2019
  970MOL0     H30885   9.279   1.751   3.009 -0.1280 -2.9053 -2.0877
  970MOL0     H30886   9.172   1.817   2.883 -0.1609  1.6816  0.5924
  970MOL0     H30887   9.345   1.621   2.840  0.6111 -0.7693 -0.7626
  970MOL0     H30888   9.462   1.741   2.825  0.5574 -2.1446 -0.1631
  970MOL0     H30889   9.200   1.740   2.662 -0.1440  0.0955 -0.4646
  970MOL0     H30890   9.341   1.654   2.614 -1.8323 -0.1626 -0.7804
  970MOL0     H30891   9.319   1.954   2.659 -3.1154  0.7803 -1.2378
  970MOL0     H30892   9.464   1.862   2.600 -1.2691 -1.8811  0.5759
  970MOL0     H30893   9.370   1.947   2.407 -1.0502 -0.6077 -1.9675
  970MOL0     H30894   9.320   1.778   2.394  2.4363 -1.2700  0.5090
  970MOL0     H30895   9.113   1.915   2.551 -0.9595  0.3191 -0.3558
  970MOL0     H30896   9.144   2.018   2.410  1.3837 -0.2672 -2.2657
  970MOL0     H30897   8.955   1.842   2.389  0.5206  0.4984  2.4600
  970MOL0     H30898   9.064   1.719   2.442 -0.3042  1.0137  2.6067
  970MOL0     H30899   9.086   1.881   2.175  0.8804 -0.2093  0.7374
  970MOL0     H30900   9.163   1.727   2.211  0.9983  0.6559  0.3459
  970MOL0     H30901   8.833   1.857   2.090 -0.6921  0.0149  1.5958
  970MOL0     H30902   8.530   1.669   2.174 -1.1053 -1.7555 -0.6834
  970MOL0     H30903   8.594   1.789   2.073  0.0204 -0.5977  0.8494
  970MOL0     H30904   8.590   1.489   1.992 -0.1784  0.0977  0.4655
  970MOL0     H30905   8.469   1.602   1.937  0.1010 -2.0065  0.4995
  970MOL0     H30906   8.639   1.540   1.767 -0.7217 -0.6814  1.3538
  970MOL0     H30907   8.754   1.650   1.848  1.0871 -3.4864 -1.3970
  970MOL0     H30908   8.673   1.781   1.693  0.8489  0.9787  0.8560
  970MOL0     H30909   8.587   1.833   1.839  0.4983 -1.6520  2.5711
  970MOL0     H30910   8.217   1.694   1.652  0.2559  1.0372 -0.2459
  970MOL0     H30911   8.089   1.854   1.504 -0.5166 -0.3255  2.6608
  970MOL0     H30912   8.305   2.160   1.058  1.0535  2.1837 -1.0201
  970MOL0     H30913   8.267   2.322   0.885 -0.7752 -2.0871  0.0059
  970MOL0     H30914   8.195   2.547   0.746  1.3744 -1.0694  1.0789
  970MOL0     H30915   8.066   2.434   0.793 -0.2428  0.5593 -1.8456
  970MOL0     H30916   8.051   2.741   0.799 -1.4839  1.1908  2.2070
  970MOL0     H30917   8.007   2.650   0.651  2.8825  0.5652 -0.5490
  970MOL0     H30918   7.834   2.529   0.813 -3.6707  0.6372 -0.7192
  970MOL0     H30919   7.883   2.648   0.936 -1.8629 -0.1917  0.5017
  970MOL0     H30920   7.778   2.745   0.655 -0.7875  2.7390  0.3749
  970MOL0     H30921   7.758   2.828   0.811 -0.7408 -0.4019 -0.7494
  970MOL0     H30922   7.540   2.748   0.772  0.3815  0.2375 -0.2368
  970MOL0     H30923   7.607   2.629   0.885 -0.7874 -3.0086 -0.6817
  970MOL0     H30924   7.583   2.571   0.588  1.8109  6.3821  0.5540
  970MOL0     H30925   7.639   2.464   0.703 -0.6911  0.2710  1.8817
  970MOL0     H30926   7.366   2.578   0.708 -0.4475  0.1844  3.4746
  970MOL0     H30927   7.431   2.491   0.847  0.8940 -0.0862  0.0326
  970MOL0     H30928   7.375   2.391   0.569  1.8705  1.4898  0.3244
  970MOL0     H30929   7.471   2.288   0.690 -0.4007 -0.1690 -1.6378
  970MOL0     H30930   8.115   2.586   1.191  1.6523  1.0699 -0.2775
  970MOL0     H30931   8.165   2.401   1.369  3.4189 -3.0496  1.0158
  970MOL0     H30932   8.451   2.104   1.459  0.3962 -0.7888 -2.2864
  970MOL0     H30933   8.564   1.942   1.580  0.2391 -0.7392 -1.8502
  970MOL0     H30934   9.360   2.171   2.959 -1.4235 -1.5443 -3.1824
  970MOL0     H30935   9.227   2.359   3.097  0.1657  0.1832  4.5987
  970MOL0     H30936   8.873   2.415   3.381 -0.6011 -0.6780 -0.4536
  970MOL0     H30937   8.641   2.477   3.461 -0.5819  0.5305  0.9400
  970MOL0     H30938   8.354   2.476   3.244  0.2867 -0.0163  3.6070
  970MOL0     H30939   8.382   2.630   3.146 -0.8275  1.4980 -0.1871
  970MOL0     H30940   8.212   2.601   3.409  1.0896  1.0702  1.0712
  970MOL0     H30941   8.148   2.595   3.238 -0.5250  0.9914  1.0861
  970MOL0     H30942   8.311   2.832   3.321 -0.0758 -1.1164  1.8369
  970MOL0     H30943   8.165   2.810   3.417 -0.4710 -1.4545  0.3795
  970MOL0     H30944   8.022   2.842   3.228  0.8341 -1.4221  0.1930
  970MOL0     H30945   8.139   2.978   3.238  2.7835  0.5682 -1.7202
  970MOL0     H30946   8.229   2.824   2.857  1.4055  2.0213 -0.3689
  970MOL0     H30947   8.568   2.687   3.088  0.7458  0.2664 -1.3695
  970MOL0     H30948   8.869   2.696   2.973  2.6553 -2.2706  1.0413
  970MOL0     H30949   8.825   2.534   2.903 -3.0828 -0.9591 -1.3155
  970MOL0     H30950   8.713   2.666   2.894 -2.7771  0.6093  3.6665
  971MOL0     O30951   4.271   2.637   2.522 -0.4337 -0.5601  0.4637
  971MOL0     C30952   4.320   2.646   2.633 -0.7418  0.3267 -0.3565
  971MOL0     O30953   4.440   2.582   2.672  0.6006  1.1891  0.4104
  971MOL0     C30954   4.532   2.500   2.607  0.0600  0.3542  0.0258
  971MOL0     C30955   4.526   2.486   2.467 -0.3351  0.7234 -0.7150
  971MOL0     C30956   4.636   2.421   2.410 -0.4848 -0.1944 -0.2035
  971MOL0     C30957   4.737   2.359   2.482 -0.2140 -0.6338  0.2692
  971MOL0     O30958   4.825   2.281   2.420 -0.5976 -0.1195  0.6826
  971MOL0     C30959   4.961   2.333   2.427 -0.2416  0.4875  0.1540
  971MOL0     C30960   5.055   2.251   2.327  1.5358  0.1276  0.1143
  971MOL0     C30961   5.190   2.326   2.316  0.0627  0.7782 -0.6134
  971MOL0     C30962   5.295   2.233   2.244 -0.3243  0.9578  0.2167
  971MOL0     C30963   5.427   2.307   2.241 -0.0437  0.1759 -0.3785
  971MOL0     C30964   5.542   2.229   2.166  0.0619 -0.1699  0.9133
  971MOL0     C30965   5.685   2.261   2.194  0.0742  0.2453 -0.4627
  971MOL0     C30966   5.725   2.178   2.323 -0.2606  0.1785  0.3341
  971MOL0     N30967   5.862   2.207   2.363 -0.1563 -0.6220  0.0788
  971MOL0     C30968   5.966   2.119   2.361  0.7981  0.1820  0.5299
  971MOL0     C30969   6.064   2.192   2.405  0.0975 -0.1919  0.2167
  971MOL0     C30970   6.205   2.140   2.436  1.2608  0.5350 -0.8326
  971MOL0     C30971   6.202   1.987   2.473  0.6053 -0.2954 -0.2917
  971MOL0     C30972   6.344   1.926   2.492 -0.3781 -0.0730 -0.8094
  971MOL0     C30973   6.324   1.784   2.554 -0.6471  0.2141  0.4415
  971MOL0     O30974   6.447   1.716   2.567  0.6480  0.0686  0.3654
  971MOL0     C30975   6.555   1.775   2.638 -1.2642  0.7740  0.3511
  971MOL0     C30976   6.533   1.839   2.759  0.3754 -0.0526 -0.5313
  971MOL0     C30977   6.638   1.894   2.834  0.0725  0.5507  0.6127
  971MOL0     C30978   6.766   1.887   2.794 -0.1126  0.8818 -0.0866
  971MOL0     C30979   6.875   1.953   2.874  0.3943  0.6193 -0.1160
  971MOL0     O30980   7.011   1.938   2.842 -0.0500  0.0290 -0.2034
  971MOL0     C30981   7.098   2.029   2.897  0.0471  0.1000 -0.4558
  971MOL0     C30982   7.129   2.021   3.037 -0.0063  0.0477  0.7249
  971MOL0     C30983   7.228   2.114   3.088 -1.1829 -0.0452  0.7062
  971MOL0     C30984   7.291   2.212   3.005 -0.1427 -0.1323  0.2005
  971MOL0     O30985   7.381   2.297   3.056 -0.0193 -0.2225 -0.0684
  971MOL0     C30986   7.342   2.435   3.053 -0.6040 -0.7876  1.5531
  971MOL0     C30987   7.450   2.514   3.127 -0.9497  0.2216  0.4128
  971MOL0     C30988   7.595   2.518   3.057  0.9165  0.1133 -0.5184
  971MOL0     C30989   7.604   2.643   2.968  0.0221  0.2330  0.2973
  971MOL0     C30990   7.587   2.777   3.034  0.0279 -0.3250 -0.2117
  971MOL0     C30991   7.659   2.885   2.948  0.1321 -0.4867  0.0194
  971MOL0     C30992   7.811   2.883   2.932 -0.5534 -0.7814  0.0446
  971MOL0     C30993   7.867   3.011   2.867 -0.3170  0.2474  0.2078
  971MOL0    Cl30994   7.944   3.112   2.992  0.4290 -0.1628  0.4887
  971MOL0     C30995   7.250   2.220   2.867 -0.1582  0.4123 -0.0547
  971MOL0     C30996   7.164   2.122   2.818  1.2563 -0.1755 -0.6488
  971MOL0     O30997   6.840   2.036   2.960 -0.5166 -0.1810 -0.0790
  971MOL0     C30998   6.794   1.809   2.681  0.4915  0.9877  0.1018
  971MOL0     C30999   6.692   1.760   2.599 -0.1826  0.0760 -0.6250
  971MOL0     N31000   6.023   2.325   2.424  0.8467  0.2780 -0.1621
  971MOL0     N31001   5.897   2.327   2.403 -0.5418 -1.0117 -0.7230
  971MOL0     C31002   4.722   2.352   2.620 -0.4700  0.0672  0.0354
  971MOL0     C31003   4.624   2.426   2.680 -0.4274  0.1509 -0.5054
  971MOL0     C31004   4.227   2.713   2.731 -1.1681  0.6321 -0.0287
  971MOL0     C31005   4.095   2.689   2.735 -0.3213  0.0496  0.5441
  971MOL0     C31006   4.009   2.750   2.827 -0.5600 -0.7146  0.8867
  971MOL0     C31007   4.053   2.846   2.923  0.8107 -0.4122  0.7305
  971MOL0     O31008   3.968   2.895   3.025 -0.2486 -0.6692  0.4522
  971MOL0     C31009   3.836   2.843   3.050  0.0450 -0.4315  0.1892
  971MOL0     C31010   3.789   2.886   3.189 -0.1354  0.7719 -1.2843
  971MOL0     C31011   3.843   2.805   3.307 -0.3874 -0.6817 -0.7326
  971MOL0     C31012   3.785   2.837   3.445  0.4108 -0.8423  0.3273
  971MOL0     C31013   3.828   2.751   3.549  0.1113 -0.5969  0.4399
  971MOL0     C31014   3.880   2.692   3.641 -0.0232 -0.4888 -0.0623
  971MOL0     C31015   4.194   2.863   2.929 -0.4472 -0.1827  0.1546
  971MOL0     C31016   4.282   2.797   2.835  0.3222  0.3062  0.2247
  971MOL0     C31017   4.428   2.825   2.834  0.6351  0.4548 -0.5651
  971MOL0     H31018   4.446   2.532   2.410  1.9112  0.8488 -4.0335
  971MOL0     H31019   4.627   2.419   2.302 -5.3214 -2.4117 -0.0531
  971MOL0     H31020   4.954   2.435   2.387 -0.1230  1.1538  1.7270
  971MOL0     H31021   5.000   2.318   2.528  1.1600 -0.8598 -0.5376
  971MOL0     H31022   5.008   2.247   2.228 -3.1346  2.5760  1.9068
  971MOL0     H31023   5.064   2.147   2.357  1.4962 -0.6503 -2.3418
  971MOL0     H31024   5.214   2.361   2.417  1.7045 -1.2835 -0.2364
  971MOL0     H31025   5.171   2.419   2.260 -2.0421  2.3811  2.4533
  971MOL0     H31026   5.309   2.149   2.313  1.0489  1.3914  0.5071
  971MOL0     H31027   5.269   2.191   2.146  0.7240 -0.0529  0.3524
  971MOL0     H31028   5.413   2.407   2.199  2.4166  1.1106  0.8061
  971MOL0     H31029   5.451   2.328   2.346  0.7057 -1.1659 -0.2567
  971MOL0     H31030   5.533   2.120   2.172 -1.2082 -0.0900  0.7163
  971MOL0     H31031   5.529   2.255   2.060 -3.5304 -2.7709  0.5190
  971MOL0     H31032   5.695   2.368   2.211  0.8352  0.1286 -0.1444
  971MOL0     H31033   5.752   2.237   2.110  2.3418  0.1161  1.2967
  971MOL0     H31034   5.652   2.195   2.403 -0.6634 -1.0837  0.2659
  971MOL0     H31035   5.711   2.073   2.295 -2.4891  0.2022  1.1226
  971MOL0     H31036   5.958   2.014   2.335  1.4724 -0.1675  1.6508
  971MOL0     H31037   6.263   2.168   2.348  2.1679 -1.7047 -1.0001
  971MOL0     H31038   6.241   2.196   2.523  2.1654 -1.6729  0.2748
  971MOL0     H31039   6.134   1.974   2.558 -1.2046  0.2361 -1.5954
  971MOL0     H31040   6.166   1.940   2.382 -1.2065 -1.0041  0.7396
  971MOL0     H31041   6.404   1.983   2.564  1.2920 -1.0693 -1.3488
  971MOL0     H31042   6.413   1.927   2.407  0.6950  0.8224  0.0355
  971MOL0     H31043   6.252   1.723   2.499 -3.9542  2.7224  1.6637
  971MOL0     H31044   6.280   1.792   2.653  0.0368 -0.0421  0.7761
  971MOL0     H31045   6.429   1.854   2.787  0.5290 -0.7990  0.5076
  971MOL0     H31046   6.612   1.960   2.917  0.2264 -0.0349  1.1335
  971MOL0     H31047   7.072   1.950   3.097  2.4381 -0.7845  2.2148
  971MOL0     H31048   7.241   2.102   3.195  2.5082  0.3805  0.4093
  971MOL0     H31049   7.336   2.476   2.952  1.0704 -0.7858  1.4331
  971MOL0     H31050   7.247   2.444   3.107 -1.6800  0.1219 -0.3707
  971MOL0     H31051   7.412   2.615   3.141 -0.7574  0.1775  1.2627
  971MOL0     H31052   7.450   2.471   3.227  0.3413  3.1498  1.7757
  971MOL0     H31053   7.666   2.525   3.140  3.0598 -0.5061 -2.1839
  971MOL0     H31054   7.604   2.423   3.003 -0.4882 -0.7418  0.6577
  971MOL0     H31055   7.532   2.629   2.887 -0.5146  0.0503  0.7978
  971MOL0     H31056   7.690   2.640   2.902  0.7275 -0.1108  1.2118
  971MOL0     H31057   7.612   2.773   3.140 -1.7844  1.4882  0.3448
  971MOL0     H31058   7.478   2.780   3.040  0.0968  0.0189  1.0764
  971MOL0     H31059   7.616   2.895   2.848  2.5976 -0.3594 -1.0947
  971MOL0     H31060   7.643   2.977   3.005  2.4098 -0.0442  0.0506
  971MOL0     H31061   7.848   2.794   2.881 -1.4721 -2.6137  2.4113
  971MOL0     H31062   7.851   2.871   3.033  2.4971 -1.2296 -1.1115
  971MOL0     H31063   7.931   2.977   2.785 -2.6029 -1.9135 -0.7712
  971MOL0     H31064   7.783   3.056   2.815  0.5457 -0.2630 -1.6993
  971MOL0     H31065   7.286   2.293   2.795 -2.6333  0.3566 -1.4691
  971MOL0     H31066   7.144   2.121   2.711 -1.6259 -2.7717 -0.2205
  971MOL0     H31067   6.900   1.816   2.657  1.0253 -2.6812  0.7904
  971MOL0     H31068   6.735   1.705   2.517  2.9456 -0.4055  1.1848
  971MOL0     H31069   4.800   2.299   2.675 -0.1970  0.3464 -0.0811
  971MOL0     H31070   4.625   2.434   2.789  0.1441  1.7200 -0.5958
  971MOL0     H31071   4.051   2.630   2.655 -1.2199  3.5966 -1.7836
  971MOL0     H31072   3.902   2.737   2.815 -0.2322 -1.3569 -2.3197
  971MOL0     H31073   3.841   2.735   3.039  3.3509 -1.0194  4.5279
  971MOL0     H31074   3.772   2.882   2.971  0.1926 -2.0937 -0.7791
  971MOL0     H31075   3.680   2.876   3.189 -0.0682 -0.0169 -0.7414
  971MOL0     H31076   3.816   2.992   3.201 -1.5037  0.8448  2.0008
  971MOL0     H31077   3.949   2.830   3.322 -1.3080  2.3716  1.7966
  971MOL0     H31078   3.841   2.697   3.290 -0.3584 -0.7731 -0.1594
  971MOL0     H31079   3.804   2.939   3.480  3.5837 -1.9548  2.2592
  971MOL0     H31080   3.676   2.844   3.437  0.2159  4.9855  2.8977
  971MOL0     H31081   3.922   2.645   3.728  0.3826 -0.6197 -0.3244
  971MOL0     H31082   4.235   2.938   2.996 -1.2222  1.7020 -1.3540
  971MOL0     H31083   4.442   2.924   2.879 -0.0952  0.8093 -1.1083
  971MOL0     H31084   4.480   2.745   2.887 -0.5823  1.5808  2.6207
  971MOL0     H31085   4.465   2.823   2.731  3.1273 -1.5993  0.2828
  972MOL0     O31086   8.985   8.178   1.574  0.3685 -0.4115 -0.3207
  972MOL0     C31087   8.971   8.127   1.689  0.4536 -0.1952 -0.5218
  972MOL0     O31088   9.057   8.149   1.792 -0.2435  0.0830  0.7882
  972MOL0     C31089   9.152   8.249   1.774  0.3588  0.6691 -0.1343
  972MOL0     C31090   9.116   8.387   1.779  0.0058  0.2103 -0.1721
  972MOL0     C31091   9.206   8.478   1.742  0.0632 -0.0362  0.0725
  972MOL0     C31092   9.330   8.440   1.697 -0.5391 -0.0566 -1.1400
  972MOL0     O31093   9.419   8.518   1.630 -0.6636 -0.2928 -0.5755
  972MOL0     C31094   9.389   8.651   1.592  0.4711 -0.1025 -0.1470
  972MOL0     C31095   9.516   8.732   1.567  0.0742  0.0453 -1.0438
  972MOL0     C31096   9.578   8.675   1.444 -0.0286  0.2462  0.5360
  972MOL0     C31097   9.692   8.756   1.382 -0.3383  0.3102 -0.7173
  972MOL0     C31098   9.780   8.666   1.305  0.2717  0.1657  0.1562
  972MOL0     C31099   9.917   8.733   1.272 -0.9371  0.5007  1.4417
  972MOL0     C31100  10.014   8.636   1.194  0.2496 -0.1926  0.2465
  972MOL0     C31101  10.059   8.517   1.275  1.0838 -0.9104 -0.0120
  972MOL0     N31102  10.164   8.445   1.210  0.6913  0.7333 -0.0766
  972MOL0     C31103  10.298   8.467   1.217 -0.0481  0.6118 -0.1901
  972MOL0     C31104  10.358   8.381   1.120 -0.0603 -0.8417 -0.3819
  972MOL0     C31105  10.504   8.346   1.087 -0.2103  0.1521  0.0196
  972MOL0     C31106  10.569   8.253   1.197 -0.0381 -0.4745 -1.1983
  972MOL0     C31107  10.507   8.109   1.223 -0.2861  0.2760  0.5948
  972MOL0     C31108  10.528   7.994   1.107  0.3461  0.2309  0.5127
  972MOL0     O31109  10.675   7.961   1.101 -0.3594 -0.5134  0.1247
  972MOL0     C31110  10.746   7.888   1.193 -0.7225 -0.9487  0.7088
  972MOL0     C31111  10.881   7.886   1.192  0.2423 -0.0082  0.9934
  972MOL0     C31112  10.953   7.833   1.292 -0.0695 -0.4578  0.2616
  972MOL0     C31113  10.904   7.758   1.399 -0.0060  0.1451  0.6715
  972MOL0     C31114  10.981   7.670   1.487 -0.1557 -0.1265  0.3499
  972MOL0     O31115  11.116   7.689   1.498  0.4888 -0.5203  0.7770
  972MOL0     C31116  11.203   7.613   1.578  0.5077  0.1321 -0.3272
  972MOL0     C31117  11.332   7.587   1.525 -0.4256  0.4717  0.1737
  972MOL0     C31118  11.432   7.536   1.611  0.1211  0.5223  0.8011
  972MOL0     C31119  11.398   7.494   1.738 -0.4271  0.0688 -0.1763
  972MOL0     O31120  11.482   7.416   1.814  0.0347  0.4040  0.2641
  972MOL0     C31121  11.610   7.385   1.771 -0.1340  0.2959  0.0998
  972MOL0     C31122  11.692   7.316   1.881  0.7388  0.0261 -0.6661
  972MOL0     C31123  11.826   7.263   1.828 -0.0900  0.0139  0.6055
  972MOL0     C31124  11.929   7.225   1.937 -0.0481 -0.2935  1.0554
  972MOL0     C31125  12.064   7.170   1.886  0.6003  0.7902 -0.4495
  972MOL0     C31126  12.151   7.271   1.812  0.0966  0.7792  0.5255
  972MOL0     C31127  12.295   7.206   1.780 -0.2134 -0.3015  0.5734
  972MOL0     C31128  12.374   7.296   1.683  0.0160  0.5427  0.3283
  972MOL0    Cl31129  12.482   7.201   1.581 -0.0846  0.1379  0.1849
  972MOL0     C31130  11.275   7.523   1.787  0.3161 -0.3468  0.0618
  972MOL0     C31131  11.174   7.583   1.711 -0.3742  0.1591 -0.2149
  972MOL0     O31132  10.921   7.582   1.547  0.0985 -0.2293  0.4859
  972MOL0     C31133  10.759   7.759   1.395 -0.0807  0.9034 -0.0386
  972MOL0     C31134  10.686   7.833   1.298  0.2184 -1.0671  0.8877
  972MOL0     N31135  10.264   8.308   1.059  0.8789 -0.5036  0.3006
  972MOL0     N31136  10.153   8.354   1.110  0.5571 -0.5005 -0.0632
  972MOL0     C31137   9.364   8.306   1.701 -0.3070  0.5030  0.3427
  972MOL0     C31138   9.276   8.213   1.740 -0.2488  0.9526 -0.0010
  972MOL0     C31139   8.859   8.024   1.705 -0.4786  0.1028  0.7734
  972MOL0     C31140   8.777   8.001   1.595 -0.1659  0.9534 -0.0346
  972MOL0     C31141   8.677   7.897   1.598  1.1435 -0.9204  0.1267
  972MOL0     C31142   8.639   7.837   1.710  0.7481  0.0269  0.8248
  972MOL0     O31143   8.520   7.762   1.719 -0.3369  0.2461  0.1094
  972MOL0     C31144   8.492   7.695   1.841 -0.7916 -0.0387  0.0819
  972MOL0     C31145   8.575   7.565   1.843  0.7886 -0.6325 -0.0074
  972MOL0     C31146   8.609   7.539   1.991  0.9077  0.1247 -0.3519
  972MOL0     C31147   8.717   7.433   2.011 -0.3990 -0.4213 -0.4636
  972MOL0     C31148   8.850   7.479   1.992  0.0215  0.4260 -0.3528
  972MOL0     C31149   8.971   7.511   1.970 -0.1290  0.3771 -0.0297
  972MOL0     C31150   8.732   7.849   1.816 -0.3431 -0.0207  0.1001
  972MOL0     C31151   8.839   7.946   1.823  0.7205 -0.1015  0.1103
  972MOL0     C31152   8.923   7.961   1.945  0.1858  0.0851 -0.0974
  972MOL0     H31153   9.014   8.412   1.806 -0.5940  0.9459 -2.8379
  972MOL0     H31154   9.180   8.584   1.750  1.6083  0.5270 -1.7224
  972MOL0     H31155   9.342   8.661   1.494 -1.1598  1.9780  0.7482
  972MOL0     H31156   9.318   8.699   1.662 -1.6352 -3.1892  0.0224
  972MOL0     H31157   9.588   8.716   1.649 -0.3721  1.3893 -0.3493
  972MOL0     H31158   9.488   8.837   1.553  0.4680  0.1485 -1.0918
  972MOL0     H31159   9.505   8.654   1.366  1.0131  0.3934 -0.5214
  972MOL0     H31160   9.626   8.583   1.479  3.9405  2.2595  1.0525
  972MOL0     H31161   9.666   8.835   1.312  1.7049 -0.9299 -3.0145
  972MOL0     H31162   9.751   8.794   1.466 -0.3135  1.8442 -1.3848
  972MOL0     H31163   9.804   8.573   1.358 -2.2651 -1.2532 -1.0494
  972MOL0     H31164   9.729   8.628   1.217  0.3221 -0.5057  0.4154
  972MOL0     H31165   9.900   8.821   1.210  0.1897  0.0524  0.4452
  972MOL0     H31166   9.953   8.766   1.370 -2.6578  1.3405  1.8355
  972MOL0     H31167  10.106   8.687   1.169 -1.0164  1.8035 -0.5553
  972MOL0     H31168   9.959   8.615   1.101  0.6220 -0.8217  0.1589
  972MOL0     H31169  10.107   8.555   1.366 -0.3940  2.0126 -0.3392
  972MOL0     H31170   9.985   8.444   1.306  1.6977 -1.5950 -0.1311
  972MOL0     H31171  10.355   8.534   1.279 -0.8234 -0.4352  1.7267
  972MOL0     H31172  10.510   8.284   0.997  2.1484 -1.1312  0.9706
  972MOL0     H31173  10.557   8.441   1.076  0.1768 -0.1819 -1.2044
  972MOL0     H31174  10.675   8.240   1.175  0.1804 -1.5655  0.3166
  972MOL0     H31175  10.550   8.319   1.283 -2.1573 -0.2086 -1.8042
  972MOL0     H31176  10.400   8.129   1.238  0.0128  0.4618  2.8408
  972MOL0     H31177  10.538   8.065   1.318  0.2064  0.0499  0.3333
  972MOL0     H31178  10.498   8.035   1.010 -1.6927 -1.1862  0.4893
  972MOL0     H31179  10.470   7.907   1.140  1.6089 -0.9919 -0.3758
  972MOL0     H31180  10.930   7.945   1.116 -2.9784 -0.6579 -1.8366
  972MOL0     H31181  11.060   7.844   1.279 -0.2910 -1.1699 -3.4563
  972MOL0     H31182  11.344   7.637   1.430 -1.1851  1.4108  0.5465
  972MOL0     H31183  11.533   7.522   1.572 -0.5674  0.8307 -1.2207
  972MOL0     H31184  11.606   7.316   1.687 -2.0682 -0.0924  0.4707
  972MOL0     H31185  11.668   7.473   1.740 -2.3797  1.1227 -2.0591
  972MOL0     H31186  11.711   7.386   1.963  1.5358 -1.0954  0.1217
  972MOL0     H31187  11.640   7.226   1.915  2.4298 -1.5154 -1.9887
  972MOL0     H31188  11.809   7.175   1.766 -0.4130  2.5957 -3.3694
  972MOL0     H31189  11.859   7.338   1.756  0.4567 -2.5103 -1.9457
  972MOL0     H31190  11.877   7.147   1.993 -0.2963 -0.6427  0.3440
  972MOL0     H31191  11.946   7.312   2.002 -2.4388 -0.7176  2.3411
  972MOL0     H31192  12.049   7.086   1.817 -0.2333  1.6065 -1.3023
  972MOL0     H31193  12.132   7.131   1.962 -0.4546 -1.1848 -0.4627
  972MOL0     H31194  12.107   7.288   1.713 -0.8534 -1.6401  0.4532
  972MOL0     H31195  12.172   7.365   1.863 -0.2201  2.6823 -2.5891
  972MOL0     H31196  12.281   7.109   1.732  2.5436 -0.4595 -0.0326
  972MOL0     H31197  12.354   7.197   1.871  1.4886 -2.8314 -0.6797
  972MOL0     H31198  12.302   7.332   1.609  0.4503 -4.2262 -2.8903
  972MOL0     H31199  12.435   7.377   1.724  0.0297  1.0207 -0.6188
  972MOL0     H31200  11.255   7.498   1.891 -0.9005 -1.8262 -0.4868
  972MOL0     H31201  11.077   7.611   1.753 -1.4660 -1.5044 -1.5046
  972MOL0     H31202  10.711   7.697   1.470 -1.0673  0.0448 -1.3274
  972MOL0     H31203  10.579   7.817   1.299  0.1172 -0.4314  0.7867
  972MOL0     H31204   9.460   8.285   1.654 -2.3719 -1.0775 -3.7117
  972MOL0     H31205   9.304   8.108   1.739 -0.8447  0.7491  1.5670
  972MOL0     H31206   8.795   8.048   1.499 -1.3729 -1.5815 -1.6068
  972MOL0     H31207   8.607   7.896   1.515  0.6167  2.6923  0.3967
  972MOL0     H31208   8.384   7.679   1.853 -0.4040 -1.4709  2.2911
  972MOL0     H31209   8.523   7.762   1.922 -3.5494  1.7478 -0.1974
  972MOL0     H31210   8.663   7.578   1.780  0.1070 -2.5250 -1.4610
  972MOL0     H31211   8.517   7.485   1.796  0.1879  0.0321 -0.4179
  972MOL0     H31212   8.517   7.507   2.040  1.3199 -1.1147 -0.3632
  972MOL0     H31213   8.638   7.634   2.037  0.0081  1.1491 -1.8324
  972MOL0     H31214   8.721   7.401   2.116  0.2610 -1.9880 -0.9447
  972MOL0     H31215   8.697   7.352   1.941  0.9237 -0.2410 -1.0853
  972MOL0     H31216   9.064   7.562   1.956  0.2527 -0.5415 -0.9790
  972MOL0     H31217   8.708   7.799   1.910 -0.2068  1.8661  1.1974
  972MOL0     H31218   8.912   8.055   1.999  1.6815  1.5514 -2.2072
  972MOL0     H31219   8.904   7.881   2.018 -0.3314  0.3481  0.0561
  972MOL0     H31220   9.027   7.940   1.917 -0.2331 -3.3927  0.4456
  973MOL0     O31221   1.388   4.035   1.342 -0.2349 -0.2079  0.6510
  973MOL0     C31222   1.328   3.998   1.241  0.5189  0.0364  0.0595
  973MOL0     O31223   1.387   3.968   1.126 -0.0918 -0.3763 -0.2208
  973MOL0     C31224   1.519   3.980   1.113 -0.2861 -0.1301  0.3138
  973MOL0     C31225   1.589   4.073   1.040  0.5830 -0.7599 -0.1669
  973MOL0     C31226   1.724   4.068   1.015 -0.0328 -0.3066 -0.2624
  973MOL0     C31227   1.799   3.960   1.066 -0.0855 -0.3995  1.1836
  973MOL0     O31228   1.936   3.987   1.063 -0.6062  0.1618  0.3194
  973MOL0     C31229   2.019   3.894   1.131 -0.8089  0.8740  0.5384
  973MOL0     C31230   2.167   3.934   1.109 -0.0822 -0.2499  0.3019
  973MOL0     C31231   2.267   3.835   1.169  0.3999 -0.1241 -0.3901
  973MOL0     C31232   2.397   3.921   1.196  0.5677  0.8573 -0.1868
  973MOL0     C31233   2.507   3.827   1.253  0.8705 -0.2259 -0.6190
  973MOL0     C31234   2.634   3.915   1.268  0.3206  0.4297  0.4621
  973MOL0     C31235   2.745   3.839   1.335 -0.1476 -0.0788 -0.6656
  973MOL0     C31236   2.840   3.948   1.392  0.4725  0.8716  0.2433
  973MOL0     N31237   2.962   3.885   1.427  0.4617  0.3706 -0.4003
  973MOL0     C31238   3.042   3.905   1.537 -0.5815  0.4406 -1.0445
  973MOL0     C31239   3.162   3.846   1.515  0.3271  0.2058  0.2476
  973MOL0     C31240   3.281   3.819   1.610 -0.8417  0.2018  0.2825
  973MOL0     C31241   3.407   3.872   1.550 -0.2927  0.0906  0.3141
  973MOL0     C31242   3.514   3.855   1.658  0.0580 -0.1606  0.3783
  973MOL0     C31243   3.645   3.893   1.608 -0.0601  0.2710 -0.0967
  973MOL0     O31244   3.753   3.837   1.689 -0.4869 -0.0988  0.2118
  973MOL0     C31245   3.878   3.843   1.643 -0.1510 -0.8367  0.8445
  973MOL0     C31246   3.977   3.804   1.734  0.1412  0.2516 -0.7039
  973MOL0     C31247   4.112   3.794   1.708  0.0482  0.1438 -0.0788
  973MOL0     C31248   4.149   3.834   1.582 -0.2348  0.0618  0.0749
  973MOL0     C31249   4.287   3.813   1.532 -0.1934 -0.0582  0.1121
  973MOL0     O31250   4.368   3.710   1.582 -0.3042  0.5754 -0.1878
  973MOL0     C31251   4.502   3.702   1.544  0.4275  0.8888 -1.0415
  973MOL0     C31252   4.534   3.636   1.420 -0.5495 -0.1390 -0.1593
  973MOL0     C31253   4.670   3.632   1.396 -0.7002  0.8603 -0.8895
  973MOL0     C31254   4.774   3.673   1.489 -0.0170  0.2479  0.4431
  973MOL0     O31255   4.901   3.649   1.477  0.1978  0.5272 -0.1179
  973MOL0     C31256   4.963   3.621   1.347 -0.0280 -0.0373  0.1397
  973MOL0     C31257   5.113   3.643   1.346  0.2151  0.5570  0.3848
  973MOL0     C31258   5.161   3.684   1.206  0.1631 -0.0212  0.1282
  973MOL0     C31259   5.314   3.686   1.186  0.1603  0.1270  0.5928
  973MOL0     C31260   5.347   3.748   1.046 -0.2692  0.1029  0.0946
  973MOL0     C31261   5.503   3.760   1.016  0.2881  0.2884  0.1995
  973MOL0     C31262   5.576   3.621   1.013  0.1546 -0.4781  0.2163
  973MOL0     C31263   5.716   3.642   0.966 -0.2500  0.3692  0.0998
  973MOL0    Cl31264   5.818   3.763   1.052 -0.5117  0.0780  0.0403
  973MOL0     C31265   4.739   3.738   1.606  0.2359 -0.7512  0.8637
  973MOL0     C31266   4.600   3.758   1.636 -0.2272 -0.4410  0.6673
  973MOL0     O31267   4.327   3.880   1.437  0.1566 -0.1703  0.3886
  973MOL0     C31268   4.056   3.889   1.491  0.2296 -0.2680 -0.1250
  973MOL0     C31269   3.925   3.892   1.519  0.3746  0.5242 -0.5270
  973MOL0     N31270   3.150   3.786   1.388  0.4016 -0.6242  0.0625
  973MOL0     N31271   3.043   3.824   1.337  0.5056  0.5921 -0.8542
  973MOL0     C31272   1.729   3.859   1.132 -0.5856  0.5262  0.7580
  973MOL0     C31273   1.588   3.865   1.158 -0.9463  0.3555  0.6815
  973MOL0     C31274   1.182   3.972   1.231  0.5293  0.3206  0.1001
  973MOL0     C31275   1.128   3.956   1.096 -0.0129  0.2084 -0.8048
  973MOL0     C31276   0.989   3.940   1.073  0.7292 -0.1052 -0.4434
  973MOL0     C31277   0.906   3.933   1.180  1.2044  1.2809 -0.7334
  973MOL0     O31278   0.779   3.900   1.149 -0.1119 -0.6972 -0.2725
  973MOL0     C31279   0.695   3.838   1.256 -0.1736 -0.0679  0.0870
  973MOL0     C31280   0.568   3.776   1.190  0.6602  0.3810 -0.3967
  973MOL0     C31281   0.440   3.801   1.277 -0.4186 -0.1429 -0.0936
  973MOL0     C31282   0.302   3.765   1.221  0.3500 -0.0872 -0.6091
  973MOL0     C31283   0.205   3.734   1.334 -1.4420  0.1919  0.4574
  973MOL0     C31284   0.128   3.690   1.412  0.2455 -0.0579 -0.7307
  973MOL0     C31285   0.957   3.940   1.316 -0.4306  0.2443  0.4922
  973MOL0     C31286   1.091   3.966   1.338 -0.3268 -0.6291  0.0994
  973MOL0     C31287   1.134   4.007   1.470 -0.0990  0.2678 -0.2681
  973MOL0     H31288   1.531   4.158   1.006  0.8040 -0.9464 -1.0245
  973MOL0     H31289   1.788   4.144   0.972  2.3343 -0.2595  2.9450
  973MOL0     H31290   1.992   3.889   1.237  0.2548 -0.2211  0.7784
  973MOL0     H31291   2.005   3.794   1.088 -0.0740  1.6990 -1.7615
  973MOL0     H31292   2.175   4.031   1.159 -0.6007 -1.9310  3.9885
  973MOL0     H31293   2.189   3.951   1.003  0.1829 -1.0113  0.2314
  973MOL0     H31294   2.289   3.753   1.101 -0.6405 -0.4557 -0.3460
  973MOL0     H31295   2.245   3.797   1.269 -0.5839 -3.3041 -1.7008
  973MOL0     H31296   2.429   3.972   1.105 -0.2469  2.6177  0.4640
  973MOL0     H31297   2.380   3.995   1.275 -0.9564 -0.5206  0.8474
  973MOL0     H31298   2.483   3.782   1.350 -2.6261 -1.2661 -1.7959
  973MOL0     H31299   2.531   3.750   1.179 -0.2706  1.0574 -2.4022
  973MOL0     H31300   2.665   3.961   1.174  0.2662  0.5213  0.4892
  973MOL0     H31301   2.614   3.995   1.341  1.9322  1.1080  0.2051
  973MOL0     H31302   2.787   3.778   1.254  0.7186 -0.6196  0.1659
  973MOL0     H31303   2.714   3.770   1.414 -1.1131  1.6246  0.4950
  973MOL0     H31304   2.872   4.021   1.316 -0.3789  2.2363  1.1600
  973MOL0     H31305   2.786   4.001   1.470 -0.7322  0.2802 -0.1573
  973MOL0     H31306   3.013   3.949   1.632 -1.2450 -1.5394 -0.2951
  973MOL0     H31307   3.258   3.871   1.703  0.0350 -1.3644  1.4027
  973MOL0     H31308   3.282   3.712   1.630 -2.3789 -0.0544 -0.8526
  973MOL0     H31309   3.429   3.813   1.461  1.1918 -0.4278  0.9890
  973MOL0     H31310   3.395   3.976   1.519 -0.5885 -0.1064 -0.2390
  973MOL0     H31311   3.521   3.751   1.693  1.0276 -0.5742 -0.9859
  973MOL0     H31312   3.492   3.928   1.736 -0.9140  1.7047 -1.5598
  973MOL0     H31313   3.647   4.002   1.598  2.1501  0.1683 -1.5888
  973MOL0     H31314   3.655   3.853   1.506  0.4901  2.3408 -0.9012
  973MOL0     H31315   3.947   3.768   1.832  2.5060  2.0337  0.7786
  973MOL0     H31316   4.176   3.742   1.779 -0.0502  1.2784  0.8886
  973MOL0     H31317   4.454   3.602   1.355  0.4982 -0.0165 -1.5467
  973MOL0     H31318   4.699   3.577   1.307 -2.7829  0.1971 -1.2347
  973MOL0     H31319   4.949   3.516   1.319 -1.7885  0.1528  0.2427
  973MOL0     H31320   4.904   3.683   1.279 -3.3056 -0.3892  2.4393
  973MOL0     H31321   5.141   3.717   1.421 -0.5690 -0.2463  1.5209
  973MOL0     H31322   5.158   3.548   1.377  1.0721 -0.0370 -2.4141
  973MOL0     H31323   5.131   3.610   1.131  1.9038 -1.3693  0.6835
  973MOL0     H31324   5.118   3.782   1.187 -1.5770 -0.5288  1.1717
  973MOL0     H31325   5.344   3.580   1.183 -0.4439 -0.1885  3.1746
  973MOL0     H31326   5.378   3.733   1.261  1.7898 -0.6010 -0.2866
  973MOL0     H31327   5.300   3.846   1.039 -3.6695 -1.2016  2.3124
  973MOL0     H31328   5.297   3.685   0.972 -0.7774 -0.7877  1.1672
  973MOL0     H31329   5.504   3.812   0.920 -1.7251  2.3763  1.2067
  973MOL0     H31330   5.539   3.826   1.095  1.6068  0.9837 -0.9397
  973MOL0     H31331   5.529   3.552   0.942 -0.5648  0.0723  0.1506
  973MOL0     H31332   5.583   3.582   1.115 -0.9291  1.1717  0.9472
  973MOL0     H31333   5.772   3.548   0.966  2.0268  1.6277  1.0952
  973MOL0     H31334   5.705   3.670   0.860 -1.2363  0.5947  0.2528
  973MOL0     H31335   4.823   3.771   1.666  2.2016 -0.4548 -1.8359
  973MOL0     H31336   4.564   3.800   1.729 -0.2113  1.1928 -0.0332
  973MOL0     H31337   4.091   3.918   1.392  1.8921 -3.8405 -0.7473
  973MOL0     H31338   3.860   3.929   1.440 -0.9580 -1.3643 -0.3609
  973MOL0     H31339   1.779   3.776   1.181 -1.2143 -0.4781 -0.2281
  973MOL0     H31340   1.532   3.788   1.210  1.1680 -1.3273  0.5684
  973MOL0     H31341   1.180   3.979   1.004 -0.6037  1.4874 -0.8381
  973MOL0     H31342   0.960   3.931   0.969  3.8830  0.8911 -1.5166
  973MOL0     H31343   0.673   3.912   1.333 -1.5127  0.4169 -0.7308
  973MOL0     H31344   0.748   3.758   1.308  1.3425  1.1300  0.4887
  973MOL0     H31345   0.585   3.668   1.181  1.7879  0.5701 -0.6673
  973MOL0     H31346   0.548   3.822   1.092 -0.6368 -0.9612 -0.7993
  973MOL0     H31347   0.440   3.909   1.295  1.4399  0.1772 -1.6683
  973MOL0     H31348   0.451   3.741   1.367  0.5608 -0.0211 -0.1221
  973MOL0     H31349   0.272   3.842   1.149 -0.6530 -1.3623 -1.5978
  973MOL0     H31350   0.325   3.672   1.169  2.7230  0.2791 -0.3399
  973MOL0     H31351   0.061   3.641   1.480  0.1908  2.9128  1.5474
  973MOL0     H31352   0.890   3.920   1.398  0.3254 -1.2110  0.7858
  973MOL0     H31353   1.183   4.105   1.467  1.2461 -0.3983 -1.1112
  973MOL0     H31354   1.053   4.004   1.544  1.7108 -1.6172  1.7523
  973MOL0     H31355   1.212   3.938   1.503 -1.2031 -0.2661  1.3078
  974MOL0     O31356  10.959   0.775   5.684 -0.0147 -0.3311  0.5278
  974MOL0     C31357  10.969   0.697   5.773 -0.7115 -0.1908 -1.0620
  974MOL0     O31358  10.926   0.719   5.898 -0.4628 -0.6652 -0.2468
  974MOL0     C31359  10.960   0.837   5.966 -0.1759  0.3201 -0.0528
  974MOL0     C31360  10.878   0.865   6.078  0.2719 -0.7805  0.1553
  974MOL0     C31361  10.896   0.991   6.147 -0.4444 -0.0080  0.2575
  974MOL0     C31362  10.993   1.078   6.108 -0.3322  0.9867 -0.6825
  974MOL0     O31363  10.998   1.186   6.199 -0.4134 -0.1532 -0.6577
  974MOL0     C31364  11.098   1.291   6.183 -0.0669 -0.6903  0.1873
  974MOL0     C31365  11.234   1.250   6.244 -0.1396  0.8363 -0.2765
  974MOL0     C31366  11.320   1.376   6.243 -0.3563 -0.6011 -0.5554
  974MOL0     C31367  11.450   1.349   6.314  0.1637  0.0258  0.0765
  974MOL0     C31368  11.526   1.481   6.344  0.0554  0.7834 -0.1686
  974MOL0     C31369  11.664   1.438   6.410  0.0078 -0.3981 -0.3085
  974MOL0     C31370  11.773   1.411   6.297 -0.0934 -0.5192 -0.4404
  974MOL0     C31371  11.891   1.366   6.375  0.1096 -0.1060  0.1299
  974MOL0     N31372  12.021   1.395   6.312 -0.0599 -0.0949 -0.5733
  974MOL0     C31373  12.068   1.521   6.304 -0.0620 -0.0227 -0.0617
  974MOL0     C31374  12.181   1.515   6.231  0.3609  0.5550  0.2388
  974MOL0     C31375  12.273   1.634   6.227  0.4610 -0.2278 -0.0209
  974MOL0     C31376  12.416   1.587   6.248  0.9542  0.5065 -0.3826
  974MOL0     C31377  12.510   1.707   6.253  0.4849 -0.6135  0.6476
  974MOL0     C31378  12.592   1.718   6.130 -0.3366  0.9014  0.0613
  974MOL0     O31379  12.704   1.801   6.156 -0.0874 -0.0164  0.0069
  974MOL0     C31380  12.820   1.798   6.085 -0.3631 -0.3614  0.1609
  974MOL0     C31381  12.929   1.879   6.139  0.8705 -0.0306  0.7455
  974MOL0     C31382  13.052   1.878   6.082 -0.4356  0.1988  0.1158
  974MOL0     C31383  13.069   1.811   5.958 -0.3042  0.7641 -0.9992
  974MOL0     C31384  13.195   1.837   5.894  0.0084  0.2315  0.4130
  974MOL0     O31385  13.305   1.869   5.969 -0.0493  0.6675 -0.2018
  974MOL0     C31386  13.412   1.931   5.913 -0.7567  1.0957  0.1128
  974MOL0     C31387  13.528   1.930   5.999  0.0178  0.6650 -0.1565
  974MOL0     C31388  13.644   1.990   5.949  0.2209  0.0617 -0.8181
  974MOL0     C31389  13.649   2.060   5.822  0.1562  0.4904  0.1614
  974MOL0     O31390  13.766   2.115   5.782  1.0540 -0.9311 -0.1677
  974MOL0     C31391  13.805   2.065   5.651  1.1027 -0.1023 -1.0040
  974MOL0     C31392  13.946   2.085   5.633  0.1906  0.1190  0.0391
  974MOL0     C31393  14.035   2.011   5.736 -0.5120  0.5716 -0.1374
  974MOL0     C31394  14.015   2.050   5.891 -0.7270  0.1785  0.5043
  974MOL0     C31395  14.143   1.999   5.954 -0.7033 -0.6600  1.2999
  974MOL0     C31396  14.149   2.034   6.102  1.2257 -0.0869  0.7139
  974MOL0     C31397  14.260   1.966   6.186 -0.0796  0.6474 -0.1490
  974MOL0     C31398  14.402   2.000   6.137  0.5435 -0.1831 -0.3244
  974MOL0    Cl31399  14.507   1.919   6.264 -0.3890 -0.1889 -0.2426
  974MOL0     C31400  13.532   2.063   5.742  0.7870 -0.8677  0.2731
  974MOL0     C31401  13.423   1.986   5.785  0.2398 -0.6921  0.1803
  974MOL0     O31402  13.205   1.810   5.772  0.1243  0.3388  0.3155
  974MOL0     C31403  12.965   1.734   5.905  0.5172 -0.0268 -0.2984
  974MOL0     C31404  12.832   1.735   5.961 -0.3890  0.7877  0.7134
  974MOL0     N31405  12.204   1.385   6.193 -0.8099  0.3665  0.2231
  974MOL0     N31406  12.111   1.310   6.255 -0.9347 -0.6859 -0.5030
  974MOL0     C31407  11.080   1.033   6.002  0.4572 -0.3100  1.1316
  974MOL0     C31408  11.055   0.919   5.919 -0.6424 -0.1227 -0.3847
  974MOL0     C31409  10.979   0.547   5.725  0.7544  0.0833 -1.0517
  974MOL0     C31410  10.875   0.470   5.769 -0.1869 -0.3574  0.7081
  974MOL0     C31411  10.894   0.331   5.748  0.1082  0.0783 -0.3698
  974MOL0     C31412  10.993   0.276   5.670  1.3225 -0.1606  0.1303
  974MOL0     O31413  10.985   0.137   5.648  0.4601  0.6250  0.1634
  974MOL0     C31414  10.999   0.053   5.759  0.0806 -0.1793  0.2062
  974MOL0     C31415  11.132   0.081   5.824 -0.2577 -1.1284  0.4435
  974MOL0     C31416  11.174  -0.044   5.898 -0.4335  0.1626 -0.2328
  974MOL0     C31417  11.329  -0.053   5.917  0.2764  0.2242  0.0711
  974MOL0     C31418  11.358  -0.193   5.961  0.9525 -0.3198  0.5757
  974MOL0     C31419  11.358  -0.317   5.991  0.2235 -1.4462 -0.5023
  974MOL0     C31420  11.088   0.362   5.620  0.4032 -0.5774  0.1192
  974MOL0     C31421  11.077   0.499   5.638 -0.2040  0.0332 -0.8189
  974MOL0     C31422  11.182   0.594   5.583 -0.0761  0.0992  0.1966
  974MOL0     H31423  10.793   0.801   6.098 -2.4969  0.7137 -5.1245
  974MOL0     H31424  10.836   1.018   6.234  1.6006  1.9636  1.1751
  974MOL0     H31425  11.112   1.326   6.080 -0.0126 -1.0532  0.0701
  974MOL0     H31426  11.073   1.390   6.223  1.7324  1.0132 -2.5812
  974MOL0     H31427  11.286   1.170   6.191  1.3723 -0.5496  3.0367
  974MOL0     H31428  11.223   1.216   6.347  2.2295 -1.3836 -0.6649
  974MOL0     H31429  11.265   1.456   6.294  0.0656  0.1932 -1.3062
  974MOL0     H31430  11.338   1.411   6.140  1.9616  1.4025  0.4072
  974MOL0     H31431  11.440   1.299   6.411 -1.1238  1.2802  0.6178
  974MOL0     H31432  11.508   1.284   6.249 -1.4080 -0.2343 -1.1116
  974MOL0     H31433  11.553   1.524   6.247  4.3516  1.4660  1.1241
  974MOL0     H31434  11.477   1.558   6.404 -0.4405  0.0434  0.3959
  974MOL0     H31435  11.708   1.515   6.475 -2.3439  0.5406  0.2756
  974MOL0     H31436  11.653   1.346   6.468  3.0897 -0.9629 -0.4256
  974MOL0     H31437  11.790   1.498   6.234 -0.1817 -0.0340  0.1900
  974MOL0     H31438  11.737   1.330   6.233  1.8378 -3.0285  1.4205
  974MOL0     H31439  11.884   1.406   6.476  0.8236 -1.0246  0.5680
  974MOL0     H31440  11.878   1.258   6.393 -1.4463 -0.0852 -0.7451
  974MOL0     H31441  12.026   1.604   6.360 -0.2376 -1.1715  1.5651
  974MOL0     H31442  12.265   1.682   6.129  2.4262 -0.3830 -0.2911
  974MOL0     H31443  12.242   1.706   6.304 -1.5306 -0.4317 -0.5834
  974MOL0     H31444  12.420   1.530   6.342 -0.6684  0.0947 -0.5274
  974MOL0     H31445  12.436   1.504   6.179  0.9509 -0.8059  1.1244
  974MOL0     H31446  12.576   1.686   6.337 -1.4002 -1.9823  1.8724
  974MOL0     H31447  12.456   1.799   6.277 -2.2268 -1.3165 -2.1128
  974MOL0     H31448  12.525   1.752   6.052 -2.2387  0.7505  1.5510
  974MOL0     H31449  12.628   1.617   6.110 -0.2737  0.6582  1.2833
  974MOL0     H31450  12.900   1.935   6.227  0.9310 -1.8887  2.0028
  974MOL0     H31451  13.130   1.935   6.131  0.0310 -0.6118  0.3436
  974MOL0     H31452  13.519   1.878   6.093  1.8098  0.4858 -0.0585
  974MOL0     H31453  13.733   1.994   6.010  0.5489  1.9980 -1.3286
  974MOL0     H31454  13.776   1.960   5.639 -1.0040  0.2825  0.2277
  974MOL0     H31455  13.749   2.118   5.573 -1.0862  1.5315  1.4936
  974MOL0     H31456  13.969   2.071   5.527 -2.4600 -0.2409 -0.5691
  974MOL0     H31457  13.959   2.192   5.650  2.7297  0.0345 -0.9516
  974MOL0     H31458  14.013   1.905   5.720 -0.2669  0.4691  0.2076
  974MOL0     H31459  14.134   2.042   5.703 -0.6264  0.1345 -0.9062
  974MOL0     H31460  13.940   1.985   5.936  1.1636 -3.0176 -0.5808
  974MOL0     H31461  14.003   2.158   5.906  1.9142  0.3732  1.9258
  974MOL0     H31462  14.230   2.044   5.906 -1.3723 -0.9738 -0.2981
  974MOL0     H31463  14.152   1.890   5.945  0.8363 -0.3930 -1.2618
  974MOL0     H31464  14.159   2.142   6.114 -2.2414  0.3418  0.9088
  974MOL0     H31465  14.055   1.996   6.145  0.5690 -1.6457 -1.8069
  974MOL0     H31466  14.240   1.858   6.189 -1.3295  0.8829  1.8531
  974MOL0     H31467  14.243   2.002   6.288 -0.8224  1.5705 -0.5893
  974MOL0     H31468  14.429   1.969   6.036  2.0042  1.9364 -0.6506
  974MOL0     H31469  14.423   2.107   6.147 -0.3762 -0.1451  1.8917
  974MOL0     H31470  13.535   2.113   5.646 -0.0830 -2.5007 -0.6676
  974MOL0     H31471  13.342   1.988   5.713  0.9031 -1.3015 -0.6084
  974MOL0     H31472  12.988   1.673   5.818 -0.0349  0.7025 -0.9668
  974MOL0     H31473  12.755   1.672   5.918 -0.3466 -1.1878  3.2664
  974MOL0     H31474  11.158   1.100   5.967 -1.6587  2.3451  1.1448
  974MOL0     H31475  11.117   0.888   5.835 -3.3195 -2.9394 -1.5152
  974MOL0     H31476  10.787   0.510   5.817 -2.8357 -0.6750 -3.3766
  974MOL0     H31477  10.823   0.263   5.794 -1.9329 -1.4156 -5.1118
  974MOL0     H31478  10.995  -0.053   5.729  1.2835 -0.4375  0.8863
  974MOL0     H31479  10.918   0.062   5.832 -0.6437 -0.0393 -0.6091
  974MOL0     H31480  11.135   0.165   5.894 -0.9497 -1.3798  0.7842
  974MOL0     H31481  11.200   0.104   5.742 -3.0370 -0.1691 -1.7594
  974MOL0     H31482  11.130  -0.136   5.859  0.1234  1.0891 -3.3038
  974MOL0     H31483  11.130  -0.038   5.998 -2.6838 -1.6072 -1.0168
  974MOL0     H31484  11.376  -0.032   5.821  0.6976 -1.7852 -0.1939
  974MOL0     H31485  11.356   0.028   5.986 -1.7724  1.5811 -0.6041
  974MOL0     H31486  11.355  -0.423   6.003  1.6544 -1.3692  0.8201
  974MOL0     H31487  11.164   0.303   5.569 -1.3620 -1.4924 -1.5801
  974MOL0     H31488  11.214   0.665   5.660 -2.3578  0.8577  0.5275
  974MOL0     H31489  11.282   0.553   5.564  0.0416  0.9575 -1.1615
  974MOL0     H31490  11.138   0.636   5.492 -0.4925 -0.0568  0.3233
  975MOL0     O31491   6.024   7.811   1.029  0.1080 -0.3485 -0.1036
  975MOL0     C31492   5.922   7.782   0.965  0.3763 -0.6527  0.6364
  975MOL0     O31493   5.913   7.729   0.845  0.5617 -0.0144  0.5805
  975MOL0     C31494   6.024   7.710   0.773  0.3183 -0.1722  0.1809
  975MOL0     C31495   6.117   7.813   0.764 -0.0768 -0.6360  0.8973
  975MOL0     C31496   6.228   7.802   0.684 -0.3376  0.7106  0.4741
  975MOL0     C31497   6.248   7.687   0.612 -0.7727  0.0162 -0.4490
  975MOL0     O31498   6.364   7.689   0.536  0.1872  0.0838  0.0385
  975MOL0     C31499   6.353   7.623   0.408 -0.3098 -0.2570  0.1083
  975MOL0     C31500   6.483   7.613   0.330 -0.1945 -0.2194 -0.2268
  975MOL0     C31501   6.571   7.518   0.411 -0.1428  0.5357 -0.0806
  975MOL0     C31502   6.711   7.575   0.419  0.4057 -0.0497 -0.1575
  975MOL0     C31503   6.819   7.466   0.425 -0.3198 -0.4121  0.1837
  975MOL0     C31504   6.944   7.507   0.496 -0.2839 -0.5326 -0.3631
  975MOL0     C31505   7.032   7.592   0.409  0.3380  0.4162  0.7007
  975MOL0     C31506   7.115   7.677   0.502 -0.9009  0.0025 -0.3812
  975MOL0     N31507   7.213   7.588   0.565 -0.2186  0.0944 -0.1686
  975MOL0     C31508   7.193   7.528   0.690 -0.0298 -0.4092 -0.2512
  975MOL0     C31509   7.295   7.433   0.697 -0.3315 -0.0856  0.6152
  975MOL0     C31510   7.342   7.352   0.816 -0.6708 -0.0793 -1.0020
  975MOL0     C31511   7.367   7.423   0.944  0.6044 -0.1902 -0.2033
  975MOL0     C31512   7.459   7.544   0.936  0.2538  0.8770 -0.0350
  975MOL0     C31513   7.607   7.516   0.925  0.5080  0.0260  0.3627
  975MOL0     O31514   7.651   7.400   0.998  0.1578  0.5577  0.2316
  975MOL0     C31515   7.774   7.414   1.058  0.1561 -0.4162 -1.4030
  975MOL0     C31516   7.874   7.493   1.006 -0.6878 -0.2940  0.8769
  975MOL0     C31517   8.007   7.482   1.050 -0.7786  0.4067 -0.4316
  975MOL0     C31518   8.041   7.408   1.165  0.7783 -0.2219  0.0483
  975MOL0     C31519   8.180   7.390   1.211 -1.2317  0.2287 -0.2120
  975MOL0     O31520   8.206   7.305   1.313 -0.1719  0.8407 -0.7474
  975MOL0     C31521   8.325   7.300   1.385 -0.7924 -0.3018  0.4933
  975MOL0     C31522   8.391   7.418   1.424  0.3902 -0.0662  0.3621
  975MOL0     C31523   8.498   7.410   1.513 -0.3573  0.3957 -0.0477
  975MOL0     C31524   8.557   7.287   1.547  0.2698 -0.1872 -0.0574
  975MOL0     O31525   8.680   7.287   1.614 -0.3292 -0.1655 -0.4046
  975MOL0     C31526   8.747   7.167   1.643  0.0534  0.4427 -1.0163
  975MOL0     C31527   8.870   7.198   1.725 -0.0062  0.0041  0.7385
  975MOL0     C31528   8.985   7.252   1.632  0.1043 -0.9087 -0.2038
  975MOL0     C31529   9.115   7.259   1.714  0.5576  1.1214  0.8595
  975MOL0     C31530   9.236   7.249   1.622 -0.0735 -0.1797 -0.4692
  975MOL0     C31531   9.244   7.365   1.522 -0.2211 -0.3805  0.2936
  975MOL0     C31532   9.381   7.359   1.461 -1.3519 -1.2248  0.8760
  975MOL0     C31533   9.402   7.456   1.340 -0.2599 -0.0464  0.4489
  975MOL0    Cl31534   9.572   7.447   1.303 -0.0542  0.0531  0.5633
  975MOL0     C31535   8.496   7.169   1.508 -0.7102 -0.1263 -0.1544
  975MOL0     C31536   8.376   7.180   1.430 -1.0642  0.9609 -0.3038
  975MOL0     O31537   8.263   7.462   1.151 -0.0347 -0.7541 -0.0992
  975MOL0     C31538   7.936   7.330   1.229  0.4038 -0.4357  0.7769
  975MOL0     C31539   7.805   7.331   1.166 -0.1325 -0.5209 -0.0469
  975MOL0     N31540   7.359   7.430   0.576  0.5770  0.2959  0.3298
  975MOL0     N31541   7.311   7.521   0.498 -0.5416  0.4557 -0.0979
  975MOL0     C31542   6.162   7.579   0.635  0.2764 -0.5865  0.3028
  975MOL0     C31543   6.045   7.588   0.713 -0.6184 -0.3153 -0.1892
  975MOL0     C31544   5.790   7.797   1.029 -1.1756 -0.0759 -0.2771
  975MOL0     C31545   5.791   7.783   1.171 -0.0696  0.3203 -0.5218
  975MOL0     C31546   5.676   7.808   1.249  0.6782 -0.2091  0.1349
  975MOL0     C31547   5.554   7.830   1.189  0.0332 -0.0861  0.1670
  975MOL0     O31548   5.454   7.837   1.280  0.0650 -0.5709  0.3635
  975MOL0     C31549   5.319   7.819   1.232 -0.0733 -0.6949 -0.2937
  975MOL0     C31550   5.227   7.852   1.346 -0.3152  0.3609  0.2500
  975MOL0     C31551   5.271   7.767   1.470  0.8931 -0.0217 -0.6363
  975MOL0     C31552   5.148   7.757   1.569 -0.2466  1.0185 -0.2455
  975MOL0     C31553   5.133   7.865   1.671  0.2896 -0.1257  0.2864
  975MOL0     C31554   5.115   7.958   1.754  1.1261  0.5260 -0.4253
  975MOL0     C31555   5.549   7.844   1.046 -0.6329 -0.3900 -0.4717
  975MOL0     C31556   5.667   7.834   0.967  0.3997 -0.0391 -0.5416
  975MOL0     C31557   5.656   7.854   0.816  0.2142  0.3448  0.5649
  975MOL0     H31558   6.096   7.908   0.812 -1.5543 -0.5312  0.0933
  975MOL0     H31559   6.295   7.886   0.671 -1.4000  1.4504 -0.3223
  975MOL0     H31560   6.309   7.523   0.414 -2.2464  0.3672 -2.0847
  975MOL0     H31561   6.282   7.690   0.358 -0.7692 -0.1911  0.8367
  975MOL0     H31562   6.536   7.708   0.320  0.5077 -0.6019 -0.1824
  975MOL0     H31563   6.473   7.570   0.229  0.7253 -1.8924  0.3539
  975MOL0     H31564   6.576   7.423   0.357  1.3860 -0.0308  0.9861
  975MOL0     H31565   6.535   7.500   0.513  4.0565  1.7671  1.8424
  975MOL0     H31566   6.740   7.641   0.336  1.8530  0.4329  0.6858
  975MOL0     H31567   6.718   7.639   0.507  1.1016 -0.4043  0.0553
  975MOL0     H31568   6.784   7.383   0.488  1.0693 -0.7880  0.4873
  975MOL0     H31569   6.841   7.435   0.322 -1.6727 -1.2546  0.1126
  975MOL0     H31570   6.928   7.541   0.598 -1.2692 -2.7962  0.2901
  975MOL0     H31571   7.002   7.414   0.501 -0.0490 -0.3322  1.0593
  975MOL0     H31572   6.987   7.661   0.337 -1.4911  2.3084  3.4591
  975MOL0     H31573   7.092   7.530   0.341  1.0101  1.0968  0.6613
  975MOL0     H31574   7.156   7.755   0.437 -2.0645  1.5507  0.6761
  975MOL0     H31575   7.062   7.729   0.582 -0.3325  0.9904 -0.6280
  975MOL0     H31576   7.119   7.553   0.766  1.1783  0.8850  0.5350
  975MOL0     H31577   7.273   7.270   0.838 -1.7387  0.6701 -1.4150
  975MOL0     H31578   7.440   7.310   0.793  0.6730  0.4289  3.0573
  975MOL0     H31579   7.269   7.460   0.977  1.2947 -0.6103  2.6084
  975MOL0     H31580   7.407   7.355   1.020 -1.1851 -1.5670 -0.4152
  975MOL0     H31581   7.435   7.600   1.027 -1.1303  1.1549 -0.5373
  975MOL0     H31582   7.414   7.606   0.858 -2.7279 -0.0251  0.8283
  975MOL0     H31583   7.640   7.608   0.975  1.9452 -0.3723  0.1801
  975MOL0     H31584   7.647   7.509   0.824  1.5616 -3.9743  0.8903
  975MOL0     H31585   7.848   7.561   0.925 -2.3943  1.1398  2.5257
  975MOL0     H31586   8.077   7.547   0.999 -0.7790  2.0876  1.5958
  975MOL0     H31587   8.359   7.520   1.403  3.3173  1.4212  2.3382
  975MOL0     H31588   8.540   7.494   1.568 -1.8533 -0.1797  2.0903
  975MOL0     H31589   8.686   7.097   1.701 -2.5533  0.9561 -2.9325
  975MOL0     H31590   8.768   7.120   1.546 -2.7147  1.0682 -2.0321
  975MOL0     H31591   8.842   7.278   1.794 -1.5124 -0.6089  0.8662
  975MOL0     H31592   8.906   7.106   1.772  1.3297 -1.4599 -2.7995
  975MOL0     H31593   9.005   7.177   1.555  1.5101 -0.5196 -0.2598
  975MOL0     H31594   8.976   7.355   1.595  4.4475  0.3357  1.4620
  975MOL0     H31595   9.131   7.174   1.781  3.3838  0.2796 -0.7455
  975MOL0     H31596   9.116   7.345   1.782 -1.1667  1.2663  0.7446
  975MOL0     H31597   9.239   7.147   1.582  0.7964 -0.2576 -0.2255
  975MOL0     H31598   9.326   7.266   1.682 -0.8743  1.3659  0.3246
  975MOL0     H31599   9.165   7.358   1.447  0.5569 -1.3970 -0.4493
  975MOL0     H31600   9.236   7.459   1.578  1.6739  0.1752 -0.2986
  975MOL0     H31601   9.397   7.256   1.428 -1.0350 -1.1158  0.6771
  975MOL0     H31602   9.455   7.388   1.536 -1.5048 -1.1643  1.0036
  975MOL0     H31603   9.342   7.422   1.255 -0.7091 -1.1496  1.1823
  975MOL0     H31604   9.359   7.555   1.360 -1.4308  0.4290 -3.5450
  975MOL0     H31605   8.520   7.077   1.561 -1.6050 -0.0317  0.4438
  975MOL0     H31606   8.321   7.091   1.401  2.2388 -1.2837 -0.2325
  975MOL0     H31607   7.951   7.264   1.314 -0.6607 -1.7723 -0.0277
  975MOL0     H31608   7.726   7.273   1.211 -1.7218  1.4654 -0.1519
  975MOL0     H31609   6.197   7.486   0.590  0.5321 -0.9919  1.3035
  975MOL0     H31610   5.969   7.511   0.712  0.8616 -1.8336  0.0442
  975MOL0     H31611   5.877   7.746   1.226 -1.8701  0.9344  3.0033
  975MOL0     H31612   5.682   7.789   1.355  2.5914  2.6845  0.6669
  975MOL0     H31613   5.299   7.715   1.206 -0.3558 -1.5580  3.0348
  975MOL0     H31614   5.292   7.883   1.147 -0.6914  0.9587  1.0884
  975MOL0     H31615   5.124   7.834   1.315 -0.5275 -1.9349  1.9839
  975MOL0     H31616   5.233   7.957   1.375 -1.5535  0.7138 -0.6771
  975MOL0     H31617   5.365   7.804   1.514  1.8067 -1.3765 -1.3636
  975MOL0     H31618   5.308   7.669   1.439 -0.1647 -1.1166  1.3142
  975MOL0     H31619   5.050   7.754   1.520 -1.1116 -1.7881  1.4548
  975MOL0     H31620   5.167   7.667   1.627  1.6872  1.3532 -0.2790
  975MOL0     H31621   5.092   8.036   1.824 -0.1664  0.7215 -1.0479
  975MOL0     H31622   5.450   7.845   1.002 -2.3218  1.9152  2.9184
  975MOL0     H31623   5.568   7.916   0.795 -1.0907 -0.1919  3.8191
  975MOL0     H31624   5.741   7.911   0.776  0.9145  0.5600  2.2684
  975MOL0     H31625   5.639   7.755   0.775  0.0622  0.8490 -0.6219
  976MOL0     O31626   6.475   5.310   2.003  0.3201 -0.1066 -0.3956
  976MOL0     C31627   6.391   5.232   1.954  0.5337 -0.3504  0.2256
  976MOL0     O31628   6.409   5.165   1.837  0.5391  0.1895 -0.0889
  976MOL0     C31629   6.537   5.172   1.796  0.0946  0.6030  0.3615
  976MOL0     C31630   6.645   5.091   1.832  0.5988 -0.1067  0.0154
  976MOL0     C31631   6.775   5.098   1.774 -0.1993 -1.0530 -0.3861
  976MOL0     C31632   6.787   5.166   1.658 -0.0284  0.0556  0.0293
  976MOL0     O31633   6.912   5.173   1.591 -0.2318  0.1981 -0.0254
  976MOL0     C31634   7.030   5.148   1.672 -0.4438 -0.9211  0.5015
  976MOL0     C31635   7.157   5.197   1.605  0.0150  0.7786  0.4884
  976MOL0     C31636   7.199   5.122   1.479 -0.3490  0.0538  0.2944
  976MOL0     C31637   7.299   5.199   1.397 -1.1572 -0.5900  0.2682
  976MOL0     C31638   7.439   5.185   1.447  0.9435 -0.1594 -0.2825
  976MOL0     C31639   7.519   5.298   1.384  0.5827  0.0732  0.2868
  976MOL0     C31640   7.680   5.293   1.398 -0.2988  0.1139  0.5388
  976MOL0     C31641   7.743   5.425   1.428  0.4668  0.6075 -0.4830
  976MOL0     N31642   7.894   5.407   1.430 -0.1847  0.6188 -0.5448
  976MOL0     C31643   7.970   5.397   1.319  0.3128  0.0670 -0.0798
  976MOL0     C31644   8.088   5.329   1.362  0.8268 -0.2272  0.2106
  976MOL0     C31645   8.199   5.300   1.278  0.6031 -1.0532 -0.4300
  976MOL0     C31646   8.273   5.428   1.231  0.3729  0.9239 -0.3215
  976MOL0     C31647   8.383   5.397   1.127 -0.3870  0.2659 -0.6013
  976MOL0     C31648   8.454   5.520   1.079 -0.0882 -0.3445 -0.4871
  976MOL0     O31649   8.381   5.599   0.987 -0.0691  0.0335 -0.1578
  976MOL0     C31650   8.437   5.710   0.931  0.2059 -0.5385 -0.9005
  976MOL0     C31651   8.554   5.778   0.963 -0.1476  0.3826  0.9208
  976MOL0     C31652   8.597   5.884   0.892  0.3882  0.0127 -0.2311
  976MOL0     C31653   8.514   5.946   0.795  0.0084  1.2664 -0.6357
  976MOL0     C31654   8.551   6.069   0.720 -0.2783  0.7518 -0.2518
  976MOL0     O31655   8.647   6.148   0.777  0.5913 -0.2666  0.1136
  976MOL0     C31656   8.670   6.271   0.718 -0.3371  0.2196  0.8119
  976MOL0     C31657   8.725   6.301   0.595 -1.2970  0.3372  0.1151
  976MOL0     C31658   8.761   6.440   0.569 -0.4064  0.0569 -0.8319
  976MOL0     C31659   8.740   6.544   0.662 -0.0544 -0.7111 -0.5756
  976MOL0     O31660   8.797   6.666   0.642  1.2958  0.2488  0.2567
  976MOL0     C31661   8.796   6.724   0.507  0.8782 -0.3971 -0.3351
  976MOL0     C31662   8.709   6.845   0.523 -0.1135  0.3275  0.7375
  976MOL0     C31663   8.559   6.798   0.531 -0.4240  0.0670 -0.2826
  976MOL0     C31664   8.493   6.910   0.622  0.4424  0.1578  0.3281
  976MOL0     C31665   8.337   6.899   0.636 -0.7831 -0.5621  0.1206
  976MOL0     C31666   8.284   7.020   0.728 -0.3536  0.6401 -0.1106
  976MOL0     C31667   8.136   7.013   0.756  0.3022 -0.5175  0.7069
  976MOL0     C31668   8.036   7.031   0.636 -0.4902 -0.9756 -0.4453
  976MOL0    Cl31669   7.882   7.074   0.706 -0.2517  0.2093  0.0250
  976MOL0     C31670   8.680   6.508   0.780 -0.7431 -0.2914  0.0481
  976MOL0     C31671   8.640   6.376   0.811 -0.1548  0.8294  0.2596
  976MOL0     O31672   8.484   6.098   0.627 -0.3369 -0.4801 -0.1773
  976MOL0     C31673   8.390   5.885   0.775  0.8978 -1.0845 -0.0887
  976MOL0     C31674   8.354   5.763   0.834 -0.6373 -1.0777  0.0066
  976MOL0     N31675   8.071   5.285   1.494 -0.3110  0.0059  0.1213
  976MOL0     N31676   7.961   5.343   1.532  0.2261  0.4439  0.3388
  976MOL0     C31677   6.678   5.229   1.604  0.1185  0.1662  1.1470
  976MOL0     C31678   6.558   5.231   1.670 -1.2823  0.3670  0.7380
  976MOL0     C31679   6.252   5.235   2.005  0.0622 -0.2618 -0.0187
  976MOL0     C31680   6.153   5.184   1.923 -0.2887 -0.0441 -0.1644
  976MOL0     C31681   6.017   5.185   1.962  0.7626 -0.1635  1.4634
  976MOL0     C31682   5.984   5.240   2.087  0.4725  0.0932  0.5399
  976MOL0     O31683   5.863   5.232   2.154 -0.0149  0.2994 -0.5560
  976MOL0     C31684   5.760   5.158   2.089  0.5364 -0.7289 -1.2992
  976MOL0     C31685   5.668   5.104   2.200 -0.2289  0.1397 -0.1024
  976MOL0     C31686   5.593   5.199   2.295  0.0781 -0.1258  0.1194
  976MOL0     C31687   5.497   5.141   2.400  0.3207  0.7044 -0.2443
  976MOL0     C31688   5.362   5.149   2.355 -0.4492  0.7099  0.1824
  976MOL0     C31689   5.251   5.161   2.313  0.4779 -0.4149 -0.6497
  976MOL0     C31690   6.083   5.284   2.166  0.4853 -0.3907 -0.2115
  976MOL0     C31691   6.217   5.277   2.129 -0.1780 -0.3184 -0.3345
  976MOL0     C31692   6.312   5.319   2.238 -0.3736  0.0003 -0.7996
  976MOL0     H31693   6.631   5.032   1.922 -0.2192  1.3999  0.9360
  976MOL0     H31694   6.861   5.051   1.821 -0.2523 -0.0208  0.7856
  976MOL0     H31695   7.033   5.201   1.767 -1.4695  0.2042 -0.0674
  976MOL0     H31696   7.039   5.041   1.693  1.5387 -0.5486  1.7891
  976MOL0     H31697   7.232   5.178   1.682 -0.9468  1.1923  1.5572
  976MOL0     H31698   7.154   5.305   1.587 -2.3384  0.5403 -0.9952
  976MOL0     H31699   7.121   5.113   1.402 -2.9807  0.4575  2.7692
  976MOL0     H31700   7.233   5.021   1.505  0.1400 -0.8175 -3.1511
  976MOL0     H31701   7.300   5.158   1.295  0.1963 -0.7068  0.3098
  976MOL0     H31702   7.271   5.303   1.378  1.0282  0.2484  1.2659
  976MOL0     H31703   7.430   5.200   1.555  1.9147  2.3392 -0.4873
  976MOL0     H31704   7.475   5.084   1.423 -2.7014 -1.9772  1.0741
  976MOL0     H31705   7.493   5.309   1.279  1.4498 -0.5463 -0.0058
  976MOL0     H31706   7.492   5.391   1.435 -1.5710  0.1308 -0.8571
  976MOL0     H31707   7.716   5.242   1.307 -0.1554 -3.1713  2.2723
  976MOL0     H31708   7.711   5.230   1.481  0.1678 -0.2901  0.0680
  976MOL0     H31709   7.708   5.496   1.352 -0.2745  0.6022 -0.1544
  976MOL0     H31710   7.705   5.459   1.525 -1.9169 -1.4569 -0.6036
  976MOL0     H31711   7.946   5.442   1.223 -1.8169  2.6499  1.5207
  976MOL0     H31712   8.271   5.232   1.323 -0.3467 -1.4194  0.5923
  976MOL0     H31713   8.162   5.254   1.187 -1.0582  0.9229 -0.8424
  976MOL0     H31714   8.198   5.494   1.186 -1.4378 -0.9240 -0.1824
  976MOL0     H31715   8.317   5.474   1.321  1.3984 -1.0479  0.2411
  976MOL0     H31716   8.346   5.338   1.043 -0.0503 -3.1263  1.4169
  976MOL0     H31717   8.465   5.336   1.166 -0.5574  0.4684  0.0828
  976MOL0     H31718   8.548   5.485   1.034  0.9011 -0.8617  1.8460
  976MOL0     H31719   8.485   5.582   1.164  0.5504  1.3260 -1.8602
  976MOL0     H31720   8.615   5.755   1.049  0.1811  0.0064  0.5937
  976MOL0     H31721   8.693   5.927   0.918  1.5496 -1.8522 -1.2177
  976MOL0     H31722   8.752   6.221   0.527 -0.1171  1.1437 -0.4173
  976MOL0     H31723   8.823   6.465   0.483  1.9891 -1.5245  0.3177
  976MOL0     H31724   8.892   6.772   0.488  0.6422 -0.5542 -2.0862
  976MOL0     H31725   8.773   6.658   0.423 -2.5951  2.6199 -2.0556
  976MOL0     H31726   8.739   6.896   0.615 -0.3449 -1.2035  1.7121
  976MOL0     H31727   8.716   6.920   0.444 -1.3870 -0.4104 -0.1162
  976MOL0     H31728   8.510   6.796   0.434  1.0872  0.0067 -1.0720
  976MOL0     H31729   8.550   6.702   0.582  1.0383  0.9548  1.8169
  976MOL0     H31730   8.509   7.009   0.577  2.1144 -1.4298 -2.9330
  976MOL0     H31731   8.545   6.915   0.718  0.7074  3.6521  0.1293
  976MOL0     H31732   8.304   6.808   0.688  0.4571 -1.5269 -0.7116
  976MOL0     H31733   8.284   6.910   0.540 -1.6313  0.0925  0.6487
  976MOL0     H31734   8.335   7.011   0.824  0.0411  2.5250 -0.0973
  976MOL0     H31735   8.318   7.113   0.680  1.6744 -1.0576 -2.1773
  976MOL0     H31736   8.118   7.095   0.826  2.1220 -0.8911  1.6810
  976MOL0     H31737   8.113   6.918   0.804 -0.1864 -0.0988  1.3087
  976MOL0     H31738   8.078   7.116   0.581  0.0127  0.2299  1.6862
  976MOL0     H31739   8.034   6.939   0.577 -0.5974 -1.4649  0.3030
  976MOL0     H31740   8.670   6.585   0.855 -1.7041  0.6383 -0.9870
  976MOL0     H31741   8.598   6.329   0.899 -1.8033  1.6375 -0.0529
  976MOL0     H31742   8.327   5.939   0.705 -1.7822 -0.7401  2.4165
  976MOL0     H31743   8.262   5.710   0.816 -0.1603 -1.3172 -1.9461
  976MOL0     H31744   6.689   5.273   1.505 -0.7570  0.7951  1.3067
  976MOL0     H31745   6.475   5.287   1.628 -1.0621  0.5291  0.5229
  976MOL0     H31746   6.172   5.146   1.823  0.1905 -0.6597  0.1550
  976MOL0     H31747   5.946   5.144   1.891  0.1662 -3.2314  3.6436
  976MOL0     H31748   5.804   5.073   2.038 -0.5170 -1.7679 -0.5341
  976MOL0     H31749   5.709   5.215   2.011 -0.5505  1.4974  0.8652
  976MOL0     H31750   5.725   5.033   2.261  2.0262  1.0412 -1.0268
  976MOL0     H31751   5.588   5.043   2.157  1.2683 -1.8793 -0.1672
  976MOL0     H31752   5.536   5.264   2.228 -1.5023 -0.8045  0.7565
  976MOL0     H31753   5.662   5.262   2.352  0.7366 -0.3839 -0.3759
  976MOL0     H31754   5.525   5.039   2.427 -1.0729  0.5161  0.5907
  976MOL0     H31755   5.492   5.203   2.491 -0.0120 -1.2960  1.1708
  976MOL0     H31756   5.157   5.176   2.263  0.5027  0.3079 -0.4938
  976MOL0     H31757   6.050   5.323   2.262  0.0275 -4.8223  1.6353
  976MOL0     H31758   6.404   5.259   2.242  0.7448  1.5539 -1.9531
  976MOL0     H31759   6.349   5.422   2.233 -2.2124  0.8247  1.1037
  976MOL0     H31760   6.266   5.311   2.337  1.0232  2.2254  0.1087
  977MOL0     O31761   0.613   1.484   1.485 -0.3812  0.1261 -0.1427
  977MOL0     C31762   0.525   1.514   1.410 -0.4880 -0.0470  0.1628
  977MOL0     O31763   0.534   1.621   1.327  0.3648  1.3635  0.7226
  977MOL0     C31764   0.662   1.663   1.297  0.7979 -0.1589  1.0451
  977MOL0     C31765   0.706   1.791   1.330  0.0188  0.8049 -0.5871
  977MOL0     C31766   0.830   1.844   1.305 -0.3007  0.0831 -0.6756
  977MOL0     C31767   0.926   1.758   1.242 -0.1231 -0.1947 -0.3592
  977MOL0     O31768   1.054   1.802   1.219 -0.2839  1.0533 -0.4820
  977MOL0     C31769   1.138   1.799   1.337 -0.2253  0.5926  0.5935
  977MOL0     C31770   1.273   1.876   1.304  1.0144 -0.5584  0.5126
  977MOL0     C31771   1.369   1.797   1.210 -0.5421 -0.5419 -0.1372
  977MOL0     C31772   1.522   1.815   1.237  0.8858 -0.7769  0.7961
  977MOL0     C31773   1.590   1.735   1.126  0.1090 -0.0600  0.5254
  977MOL0     C31774   1.751   1.742   1.125  0.1399  0.1518 -0.2037
  977MOL0     C31775   1.798   1.650   1.007  0.6852 -0.2650 -0.3252
  977MOL0     C31776   1.938   1.691   0.965 -0.1701  0.4353  0.1457
  977MOL0     N31777   2.034   1.678   1.082  0.2223 -0.8495  0.2958
  977MOL0     C31778   2.105   1.561   1.102  0.9249  0.2164 -0.2223
  977MOL0     C31779   2.200   1.600   1.185 -0.1175 -1.1421  1.0931
  977MOL0     C31780   2.315   1.516   1.235  0.2074 -0.2969 -0.2102
  977MOL0     C31781   2.420   1.476   1.125  0.7042 -0.1601  0.6451
  977MOL0     C31782   2.523   1.381   1.175 -0.4347  0.5041  0.5158
  977MOL0     C31783   2.616   1.441   1.274  0.2743  1.1202  0.1694
  977MOL0     O31784   2.695   1.554   1.224  0.1446  0.0977 -0.1048
  977MOL0     C31785   2.788   1.619   1.304  0.9050  0.2866  0.3396
  977MOL0     C31786   2.858   1.736   1.268  0.2445 -0.3458  0.2331
  977MOL0     C31787   2.945   1.809   1.347 -0.3057 -0.0875  0.2497
  977MOL0     C31788   2.954   1.768   1.484  0.2866  0.6468 -0.2274
  977MOL0     C31789   3.032   1.846   1.584 -0.6584 -0.7185 -0.9552
  977MOL0     O31790   3.075   1.970   1.552 -0.1790 -0.3453  0.0402
  977MOL0     C31791   3.146   2.049   1.638 -0.3108  0.0365 -0.4003
  977MOL0     C31792   3.222   2.009   1.749  0.0518  0.7861  0.0950
  977MOL0     C31793   3.311   2.092   1.816  0.8144  0.5155  0.2290
  977MOL0     C31794   3.328   2.224   1.776  0.3290  0.4641  0.1833
  977MOL0     O31795   3.412   2.309   1.846 -0.0221 -0.7579  0.3086
  977MOL0     C31796   3.484   2.261   1.967  0.3357  0.1167 -0.3324
  977MOL0     C31797   3.595   2.362   2.005 -0.7184  0.3089  0.0944
  977MOL0     C31798   3.695   2.402   1.897  0.0418  0.0057  0.2942
  977MOL0     C31799   3.803   2.491   1.963 -0.0716  0.5649 -0.1051
  977MOL0     C31800   3.902   2.533   1.863 -0.3077 -0.5023 -0.1471
  977MOL0     C31801   4.012   2.417   1.838 -0.9286 -0.8177  0.3824
  977MOL0     C31802   4.120   2.464   1.733 -0.1347  0.0982  0.1793
  977MOL0     C31803   4.218   2.355   1.697 -0.2632  0.0380  0.0150
  977MOL0    Cl31804   4.298   2.324   1.858 -0.0352 -0.4650  0.0026
  977MOL0     C31805   3.260   2.267   1.659  0.0016 -0.4030 -0.0649
  977MOL0     C31806   3.177   2.179   1.593  0.3353  0.1450  0.0528
  977MOL0     O31807   3.061   1.788   1.694  1.2249 -0.6050 -0.0142
  977MOL0     C31808   2.885   1.651   1.525  0.0663 -0.2727  0.2671
  977MOL0     C31809   2.813   1.579   1.437  0.1769 -0.2695  0.3179
  977MOL0     N31810   2.175   1.733   1.220  0.1987  0.4115 -0.0991
  977MOL0     N31811   2.066   1.779   1.160 -0.2345  0.1608 -0.8670
  977MOL0     C31812   0.885   1.623   1.204  0.5484 -0.6335  0.0342
  977MOL0     C31813   0.755   1.579   1.232  0.3753  0.2072  0.0234
  977MOL0     C31814   0.398   1.432   1.409 -0.5403 -0.5435 -0.0553
  977MOL0     C31815   0.292   1.481   1.329 -0.1873  0.6305  0.7707
  977MOL0     C31816   0.173   1.401   1.311  0.2041 -0.0203  0.2750
  977MOL0     C31817   0.146   1.283   1.384  0.0453  0.5294  0.3501
  977MOL0     O31818   0.024   1.221   1.352  0.4937  0.1900  0.1098
  977MOL0     C31819  -0.006   1.105   1.420  0.2948 -0.3963 -0.4663
  977MOL0     C31820  -0.124   1.022   1.376  0.4106  0.0970 -0.3962
  977MOL0     C31821  -0.106   0.965   1.234  0.1332  0.2708 -0.2653
  977MOL0     C31822  -0.175   0.833   1.227 -0.2494  0.8817  1.7527
  977MOL0     C31823  -0.097   0.726   1.291  0.5620 -0.0586 -0.0021
  977MOL0     C31824  -0.045   0.622   1.333 -0.7337 -0.3669 -0.6955
  977MOL0     C31825   0.242   1.246   1.481 -1.4100 -0.0173  0.0619
  977MOL0     C31826   0.363   1.319   1.495 -0.6914 -0.9325  0.2863
  977MOL0     C31827   0.459   1.276   1.613  0.4759  0.0911  0.9018
  977MOL0     H31828   0.635   1.859   1.377  0.2795  0.7494 -0.1118
  977MOL0     H31829   0.849   1.950   1.323 -0.7655 -0.2498  2.2872
  977MOL0     H31830   1.087   1.843   1.423 -0.8413  1.4788 -0.2025
  977MOL0     H31831   1.164   1.694   1.355 -0.0091  0.4953 -0.2507
  977MOL0     H31832   1.319   1.900   1.401  1.4458 -0.2063  0.2276
  977MOL0     H31833   1.240   1.969   1.257  1.3533 -1.8891 -2.5893
  977MOL0     H31834   1.351   1.817   1.104  0.8974  2.8674  0.1272
  977MOL0     H31835   1.357   1.691   1.232  0.1323  0.1329  4.4446
  977MOL0     H31836   1.553   1.919   1.242  0.5006 -0.5972 -0.2606
  977MOL0     H31837   1.536   1.773   1.337  0.5700 -2.2386  0.2493
  977MOL0     H31838   1.558   1.630   1.122 -1.7912  0.5207 -1.3293
  977MOL0     H31839   1.561   1.782   1.031 -2.1539  1.3794  1.8517
  977MOL0     H31840   1.776   1.848   1.126  1.4887 -0.1473 -0.6012
  977MOL0     H31841   1.794   1.710   1.220 -0.9241 -1.9355 -0.3632
  977MOL0     H31842   1.737   1.679   0.921 -0.5163 -0.1872  0.5271
  977MOL0     H31843   1.795   1.546   1.041  1.7527  0.2298  1.3890
  977MOL0     H31844   1.972   1.635   0.877 -2.6232  0.5194 -0.9420
  977MOL0     H31845   1.934   1.799   0.950 -0.9907  0.4926  0.6926
  977MOL0     H31846   2.103   1.463   1.057  2.9656 -0.0584  0.1872
  977MOL0     H31847   2.371   1.559   1.318 -0.4241 -0.7243  0.4452
  977MOL0     H31848   2.265   1.427   1.271  0.6063  1.0952  4.3585
  977MOL0     H31849   2.368   1.433   1.039  2.4509 -1.2892  0.1129
  977MOL0     H31850   2.473   1.564   1.086 -0.6425  1.3014  1.9629
  977MOL0     H31851   2.573   1.323   1.096  0.9620  0.9103  1.0802
  977MOL0     H31852   2.461   1.313   1.234 -0.2857  0.6644  0.8536
  977MOL0     H31853   2.686   1.358   1.290  1.3468  1.7500 -1.1059
  977MOL0     H31854   2.571   1.464   1.371 -2.3515  0.8074 -0.8835
  977MOL0     H31855   2.844   1.775   1.168 -1.1156 -0.6630  0.2710
  977MOL0     H31856   3.003   1.893   1.310 -1.2068  1.5102  2.1806
  977MOL0     H31857   3.228   1.905   1.780 -1.9019  0.4746 -0.4520
  977MOL0     H31858   3.364   2.035   1.891  0.2021 -0.1596  0.1610
  977MOL0     H31859   3.414   2.254   2.051 -1.7701 -0.5754 -2.0147
  977MOL0     H31860   3.529   2.164   1.946 -0.4268  0.3600 -3.6564
  977MOL0     H31861   3.566   2.455   2.054 -0.5134  0.2237  0.3793
  977MOL0     H31862   3.656   2.303   2.073  0.7450  0.2005 -1.2521
  977MOL0     H31863   3.759   2.325   1.854  0.8760  2.0286 -2.3533
  977MOL0     H31864   3.645   2.455   1.815 -2.8416 -2.8392  0.0013
  977MOL0     H31865   3.862   2.437   2.038 -0.7000 -0.6430 -0.4500
  977MOL0     H31866   3.740   2.565   2.013 -0.3774  0.0554  0.2837
  977MOL0     H31867   3.956   2.624   1.892  1.0207 -0.2034 -3.1173
  977MOL0     H31868   3.853   2.556   1.768  1.8189 -1.5876 -1.5970
  977MOL0     H31869   4.052   2.375   1.931  0.2353 -3.1849 -1.1187
  977MOL0     H31870   3.947   2.343   1.792 -1.2226 -0.2791 -0.0852
  977MOL0     H31871   4.183   2.547   1.768 -0.1456  1.2025 -2.1902
  977MOL0     H31872   4.071   2.502   1.642  3.3254  1.5887 -1.2523
  977MOL0     H31873   4.173   2.262   1.660  0.4421 -0.1700 -0.3401
  977MOL0     H31874   4.284   2.380   1.613 -2.3840 -3.7219 -3.0724
  977MOL0     H31875   3.265   2.370   1.625 -2.0785  0.4853  2.0289
  977MOL0     H31876   3.137   2.203   1.494  0.4134 -0.2386 -0.0721
  977MOL0     H31877   2.887   1.615   1.627 -0.8486  4.2369  2.0749
  977MOL0     H31878   2.777   1.489   1.486  2.4151 -0.8999  0.8933
  977MOL0     H31879   0.954   1.556   1.152 -0.4474 -0.3200 -1.7943
  977MOL0     H31880   0.722   1.478   1.212  1.7107 -0.0508 -1.0603
  977MOL0     H31881   0.294   1.575   1.276 -2.8377 -0.2913 -1.2125
  977MOL0     H31882   0.096   1.434   1.241  2.3999  4.9626 -0.1928
  977MOL0     H31883  -0.018   1.130   1.526 -0.1374 -2.2480 -0.0575
  977MOL0     H31884   0.082   1.040   1.411  0.7392  0.3163 -1.5164
  977MOL0     H31885  -0.219   1.075   1.389  0.4831  0.0383  0.3930
  977MOL0     H31886  -0.126   0.940   1.448  2.3602  2.0410  2.0927
  977MOL0     H31887  -0.001   0.946   1.213 -0.2782 -1.0860 -1.2147
  977MOL0     H31888  -0.149   1.032   1.160 -1.6956  0.5550  0.9814
  977MOL0     H31889  -0.282   0.824   1.251  0.0516 -3.2229  2.3369
  977MOL0     H31890  -0.170   0.803   1.121 -0.8851 -2.4156  2.5505
  977MOL0     H31891   0.004   0.540   1.381  0.3188  0.5456 -0.1487
  977MOL0     H31892   0.220   1.157   1.539 -1.6055 -0.8556 -1.2565
  977MOL0     H31893   0.495   1.367   1.661  1.7373 -0.2373  0.6259
  977MOL0     H31894   0.403   1.214   1.684 -3.0847  1.1247 -0.7661
  977MOL0     H31895   0.547   1.219   1.581  0.9331  0.3407  1.6987
  978MOL0     O31896   6.927   7.185   9.066 -0.2744  0.0639 -0.8392
  978MOL0     C31897   6.956   7.285   9.124 -0.7140 -0.0699 -0.2368
  978MOL0     O31898   7.087   7.324   9.153  0.7523  0.3898  0.3038
  978MOL0     C31899   7.194   7.251   9.120  0.0955  0.0786  0.1889
  978MOL0     C31900   7.276   7.313   9.023  0.2378  0.2852 -0.1009
  978MOL0     C31901   7.396   7.256   9.001  0.0004  0.2089 -0.2412
  978MOL0     C31902   7.442   7.143   9.074  0.8846  0.1426  0.2567
  978MOL0     O31903   7.568   7.089   9.062 -0.3779 -0.4100 -1.0271
  978MOL0     C31904   7.667   7.128   8.971 -0.7966  0.2059 -0.1292
  978MOL0     C31905   7.795   7.034   8.996  0.7646 -1.2927 -0.5143
  978MOL0     C31906   7.910   7.089   8.910 -0.0123  0.0354  0.3864
  978MOL0     C31907   8.024   6.992   8.912 -0.1063 -0.0922  0.6051
  978MOL0     C31908   8.143   7.047   8.842 -0.9700 -0.2467  0.1593
  978MOL0     C31909   8.270   6.962   8.866  0.4741 -0.8208  0.1613
  978MOL0     C31910   8.398   7.031   8.828 -0.2772  0.0802 -0.4180
  978MOL0     C31911   8.512   6.936   8.856  0.3403 -0.0626 -0.8172
  978MOL0     N31912   8.642   6.983   8.834  0.2793  0.3349  0.2861
  978MOL0     C31913   8.755   6.901   8.833 -0.2656 -0.3706 -0.2631
  978MOL0     C31914   8.859   6.983   8.833  0.5632 -0.4409  0.0296
  978MOL0     C31915   9.003   6.943   8.840 -0.1483  0.6578 -0.7432
  978MOL0     C31916   9.051   6.945   8.696  0.1131 -0.1909  0.1675
  978MOL0     C31917   9.193   6.889   8.690  0.3760  1.4626  0.3633
  978MOL0     C31918   9.289   6.998   8.740 -0.2559 -0.0295 -0.5229
  978MOL0     O31919   9.419   6.946   8.736 -0.4458 -0.3818 -0.0586
  978MOL0     C31920   9.529   7.023   8.772 -1.0107 -0.0763 -0.3913
  978MOL0     C31921   9.656   6.960   8.756  0.3038 -0.6723  0.6847
  978MOL0     C31922   9.769   7.028   8.793 -0.2678 -0.2700  1.1012
  978MOL0     C31923   9.768   7.154   8.840  0.5215  0.7314 -1.5954
  978MOL0     C31924   9.893   7.223   8.870  0.0835  0.5867  0.6455
  978MOL0     O31925  10.011   7.155   8.834 -0.6639 -0.6268  0.4373
  978MOL0     C31926  10.130   7.230   8.835 -0.3986  0.6309  0.7700
  978MOL0     C31927  10.245   7.164   8.882 -0.3753 -0.4752 -0.1036
  978MOL0     C31928  10.373   7.222   8.881  0.5370 -0.1108 -0.4156
  978MOL0     C31929  10.388   7.345   8.827 -0.5330  0.0935  0.2820
  978MOL0     O31930  10.505   7.419   8.815  0.8105  0.7863  0.0465
  978MOL0     C31931  10.624   7.345   8.828  0.1909 -0.1745 -0.4170
  978MOL0     C31932  10.734   7.456   8.828 -0.3747  0.1168 -0.0902
  978MOL0     C31933  10.863   7.415   8.899 -0.1885  0.8285 -0.9297
  978MOL0     C31934  10.977   7.505   8.865 -0.9871 -0.1480  0.6438
  978MOL0     C31935  11.101   7.498   8.954 -0.5791  0.1274  0.7201
  978MOL0     C31936  11.198   7.601   8.888 -0.1653 -1.0193 -1.1686
  978MOL0     C31937  11.313   7.635   8.980  0.5836  0.5475  1.0527
  978MOL0     C31938  11.403   7.509   9.001 -0.7464  0.7785 -0.3660
  978MOL0    Cl31939  11.558   7.553   9.065  0.1955 -0.6340  0.1178
  978MOL0     C31940  10.272   7.412   8.784 -0.6308 -0.1836  0.5642
  978MOL0     C31941  10.142   7.356   8.781 -0.1987  0.3358  0.3706
  978MOL0     O31942   9.885   7.335   8.912  0.0881  0.2856  0.4247
  978MOL0     C31943   9.642   7.213   8.867  0.4917  0.0371 -0.0834
  978MOL0     C31944   9.525   7.152   8.821  0.1195  0.1315  0.1791
  978MOL0     N31945   8.816   7.109   8.816 -0.6355  0.1423  0.1082
  978MOL0     N31946   8.689   7.109   8.805  0.4763  0.5390 -0.3554
  978MOL0     C31947   7.353   7.082   9.163  0.5037  0.6264  1.1778
  978MOL0     C31948   7.221   7.138   9.183 -0.7753  0.3455 -0.2427
  978MOL0     C31949   6.858   7.389   9.165  0.5271 -0.9154 -0.2571
  978MOL0     C31950   6.903   7.522   9.216 -0.2948 -0.2798  0.7519
  978MOL0     C31951   6.824   7.631   9.216 -0.2458  0.3317  0.1353
  978MOL0     C31952   6.687   7.625   9.188  0.6772  1.4132  0.3496
  978MOL0     O31953   6.585   7.721   9.198  0.0804 -0.4301  0.8322
  978MOL0     C31954   6.629   7.852   9.220  0.2510  0.2647 -0.0333
  978MOL0     C31955   6.511   7.946   9.210  0.7423 -0.4574  0.2124
  978MOL0     C31956   6.486   7.975   9.065 -0.2274 -0.1650 -0.6371
  978MOL0     C31957   6.561   8.104   9.016  0.1448 -1.0066  0.6389
  978MOL0     C31958   6.541   8.116   8.868  0.8308 -0.0669 -0.0615
  978MOL0     C31959   6.503   8.123   8.752  0.6603 -0.6779 -0.0280
  978MOL0     C31960   6.641   7.493   9.155  0.5038  0.2770 -0.0224
  978MOL0     C31961   6.720   7.379   9.139  0.0530 -0.3195 -0.2992
  978MOL0     C31962   6.647   7.247   9.112  0.2515 -0.7391 -0.0938
  978MOL0     H31963   7.254   7.408   8.977  1.2771  0.8024  0.4423
  978MOL0     H31964   7.457   7.310   8.929  0.4402 -0.3861 -0.3307
  978MOL0     H31965   7.615   7.114   8.876  0.0573  2.4690 -1.0070
  978MOL0     H31966   7.694   7.234   8.979  0.0979  0.1751 -2.2457
  978MOL0     H31967   7.769   6.930   8.973 -0.4747 -0.8195 -1.3503
  978MOL0     H31968   7.831   7.036   9.099  0.4247  1.5411 -0.3841
  978MOL0     H31969   7.937   7.186   8.954 -2.7703  1.4434 -0.7570
  978MOL0     H31970   7.876   7.113   8.809  3.1296  0.8655 -0.5623
  978MOL0     H31971   8.047   6.974   9.017 -0.2795  2.1346  1.0795
  978MOL0     H31972   7.986   6.907   8.854 -1.5444  1.9292 -1.6205
  978MOL0     H31973   8.129   7.053   8.733 -0.2684  0.9364  0.1239
  978MOL0     H31974   8.156   7.152   8.869 -2.4979  0.3786 -1.3872
  978MOL0     H31975   8.270   6.935   8.972 -1.0097  1.4780  0.8306
  978MOL0     H31976   8.246   6.869   8.814 -3.3135 -0.4794  1.0124
  978MOL0     H31977   8.414   7.113   8.899  1.7371 -0.9472  0.3821
  978MOL0     H31978   8.397   7.069   8.726 -1.6478 -2.9160 -1.6426
  978MOL0     H31979   8.504   6.914   8.963 -1.0629  4.3472  0.1886
  978MOL0     H31980   8.500   6.838   8.808  0.7167 -1.4340  1.7105
  978MOL0     H31981   8.752   6.793   8.838  0.1712 -0.3454  0.7580
  978MOL0     H31982   9.063   7.021   8.888 -0.8105  0.8790 -0.2544
  978MOL0     H31983   9.030   6.842   8.873  0.6344  1.0175 -0.2646
  978MOL0     H31984   8.992   6.874   8.637  0.7445 -0.3758 -0.2503
  978MOL0     H31985   9.034   7.044   8.651 -1.5081  1.1852  3.4354
  978MOL0     H31986   9.217   6.853   8.590  1.1320 -1.5288  1.5202
  978MOL0     H31987   9.213   6.797   8.746 -0.0899 -0.1276 -1.9464
  978MOL0     H31988   9.248   7.021   8.839  0.3290 -3.1836  0.5788
  978MOL0     H31989   9.285   7.086   8.675 -2.4153  0.7711  0.5706
  978MOL0     H31990   9.646   6.857   8.725  0.6169  0.0940 -2.2578
  978MOL0     H31991   9.860   6.971   8.774 -1.9226 -2.4410 -0.9711
  978MOL0     H31992  10.232   7.058   8.902 -2.8850 -0.4642 -1.3709
  978MOL0     H31993  10.449   7.159   8.927 -1.5056 -2.0303  0.4651
  978MOL0     H31994  10.625   7.288   8.921 -1.3829  0.4314 -0.0038
  978MOL0     H31995  10.629   7.277   8.742  0.2430 -1.8260  0.8432
  978MOL0     H31996  10.757   7.487   8.726  1.7641  0.3919  0.4417
  978MOL0     H31997  10.700   7.544   8.882  3.2009  1.0392  0.8521
  978MOL0     H31998  10.841   7.427   9.006 -2.1070  1.0543 -1.3044
  978MOL0     H31999  10.878   7.308   8.883 -3.1621  0.2940 -0.7851
  978MOL0     H32000  10.935   7.606   8.872 -2.1015 -0.5421  0.0088
  978MOL0     H32001  11.011   7.480   8.764  1.1434  1.2106  0.9657
  978MOL0     H32002  11.151   7.402   8.941  3.0262  1.6825  1.8622
  978MOL0     H32003  11.075   7.527   9.057 -2.2102  1.1786  0.0548
  978MOL0     H32004  11.235   7.559   8.794  0.9454 -2.5642 -0.0931
  978MOL0     H32005  11.139   7.687   8.854  1.1222  0.1370 -0.5800
  978MOL0     H32006  11.265   7.678   9.069 -0.4948  3.5364 -0.8386
  978MOL0     H32007  11.370   7.718   8.937 -1.3711  1.4298  0.0636
  978MOL0     H32008  11.371   7.447   9.086  1.9001  1.5190  1.3044
  978MOL0     H32009  11.416   7.452   8.908 -2.9152  0.3981 -0.5059
  978MOL0     H32010  10.287   7.509   8.738 -5.7631  0.4757 -0.2542
  978MOL0     H32011  10.060   7.397   8.723  2.5081  0.0702 -4.0842
  978MOL0     H32012   9.624   7.312   8.906 -2.7363  0.4022 -2.0608
  978MOL0     H32013   9.427   7.199   8.828 -0.6883 -1.1474 -1.7739
  978MOL0     H32014   7.396   7.003   9.224 -0.2683 -0.9493 -0.2423
  978MOL0     H32015   7.160   7.097   9.263 -0.3948 -0.6754 -0.4581
  978MOL0     H32016   7.005   7.539   9.247 -0.0677 -0.6955  0.2613
  978MOL0     H32017   6.871   7.719   9.257  1.9791 -1.5978  2.0198
  978MOL0     H32018   6.706   7.883   9.148  1.2217 -0.4683  0.6718
  978MOL0     H32019   6.676   7.855   9.318 -1.9886  3.0563  1.1256
  978MOL0     H32020   6.524   8.040   9.266  0.0499  0.2286 -0.7330
  978MOL0     H32021   6.418   7.915   9.258  0.8931  1.4574  1.8893
  978MOL0     H32022   6.378   7.993   9.064 -0.5104 -1.6778 -2.7535
  978MOL0     H32023   6.507   7.886   9.006  1.8114 -0.1156 -0.0754
  978MOL0     H32024   6.532   8.195   9.070 -2.3821 -2.0418  1.1830
  978MOL0     H32025   6.669   8.090   9.018  0.0215 -2.2015 -0.2795
  978MOL0     H32026   6.469   8.122   8.651 -1.3647 -0.4013  0.6121
  978MOL0     H32027   6.533   7.487   9.146  0.4470 -2.4594  1.3540
  978MOL0     H32028   6.691   7.164   9.167 -4.2414 -2.7811  0.9029
  978MOL0     H32029   6.539   7.250   9.128  0.4305  1.3991  1.1462
  978MOL0     H32030   6.656   7.228   9.005  0.8224  1.5639 -0.5171
  979MOL0     O32031   0.744   6.763   2.915  0.0087 -0.0657 -0.0111
  979MOL0     C32032   0.635   6.719   2.889 -0.5278 -0.0220 -0.1023
  979MOL0     O32033   0.614   6.611   2.813 -0.7358  0.0005  0.5837
  979MOL0     C32034   0.734   6.556   2.776 -0.1560 -0.2957 -0.3896
  979MOL0     C32035   0.802   6.470   2.866 -0.0890  0.2761 -0.2087
  979MOL0     C32036   0.926   6.424   2.827 -1.1260 -0.1953 -0.2265
  979MOL0     C32037   0.985   6.450   2.705  0.4276  0.1815  0.9319
  979MOL0     O32038   1.115   6.412   2.671  0.5568  0.0362 -0.2508
  979MOL0     C32039   1.222   6.428   2.763  0.5384 -0.5891 -0.0388
  979MOL0     C32040   1.244   6.577   2.818  0.6940 -0.3349  0.0267
  979MOL0     C32041   1.229   6.686   2.702 -0.7043  0.8227  0.1599
  979MOL0     C32042   1.325   6.804   2.734 -0.2703 -0.2693  0.2627
  979MOL0     C32043   1.295   6.914   2.629  0.3006 -0.0475  0.2809
  979MOL0     C32044   1.381   7.032   2.658 -0.3303  0.9160  0.5140
  979MOL0     C32045   1.363   7.131   2.537 -0.2960  0.1628  0.5186
  979MOL0     C32046   1.301   7.259   2.597  0.4568 -0.1682 -0.0130
  979MOL0     N32047   1.319   7.374   2.504 -0.7198 -0.0441  1.1432
  979MOL0     C32048   1.223   7.461   2.473  0.3442  0.3240  0.9429
  979MOL0     C32049   1.287   7.570   2.424 -0.3504 -0.5049  0.1914
  979MOL0     C32050   1.236   7.707   2.392 -0.3911  0.3945  0.5903
  979MOL0     C32051   1.269   7.742   2.242 -0.4706  0.3528  0.0604
  979MOL0     C32052   1.259   7.889   2.198 -0.2150 -0.7677  0.1250
  979MOL0     C32053   1.140   7.965   2.261 -0.2684 -0.2470 -0.2653
  979MOL0     O32054   1.168   8.006   2.398 -0.2405  0.1376 -0.1562
  979MOL0     C32055   1.264   8.106   2.413 -0.5922  0.0383 -0.5430
  979MOL0     C32056   1.228   8.234   2.391  0.0265 -0.6436 -1.2935
  979MOL0     C32057   1.315   8.345   2.394  0.0284  0.0770 -0.2723
  979MOL0     C32058   1.448   8.316   2.431  0.6546  0.1822  0.0054
  979MOL0     C32059   1.553   8.416   2.427 -0.0537 -0.6228  0.7536
  979MOL0     O32060   1.498   8.540   2.415  0.2937 -0.9644  0.1815
  979MOL0     C32061   1.584   8.643   2.397  0.0421 -0.4728 -0.4522
  979MOL0     C32062   1.570   8.715   2.279  0.9122 -0.0463  0.5694
  979MOL0     C32063   1.647   8.820   2.240 -0.0967 -0.0453  0.0586
  979MOL0     C32064   1.752   8.862   2.333  0.1345 -1.4162  0.6561
  979MOL0     O32065   1.847   8.957   2.292  0.3229  0.1499  0.0049
  979MOL0     C32066   1.871   9.046   2.392 -0.2471  0.1655 -0.7365
  979MOL0     C32067   1.914   9.181   2.319 -0.3617  0.4274  0.5011
  979MOL0     C32068   2.041   9.179   2.255  0.0055  0.3174  0.9043
  979MOL0     C32069   2.155   9.199   2.345  0.8147 -0.3176  0.0462
  979MOL0     C32070   2.293   9.174   2.269 -0.6078  0.1941  0.2691
  979MOL0     C32071   2.401   9.281   2.273  0.1678 -0.7584 -0.5088
  979MOL0     C32072   2.530   9.268   2.191 -0.1333 -1.1993  0.2550
  979MOL0     C32073   2.619   9.134   2.189  0.5314 -0.9892  0.6390
  979MOL0    Cl32074   2.771   9.184   2.117 -0.7191  0.2594 -0.0760
  979MOL0     C32075   1.770   8.789   2.455  0.0054  0.0179  0.7114
  979MOL0     C32076   1.693   8.675   2.484 -0.2031  0.1486 -0.3979
  979MOL0     O32077   1.680   8.388   2.436 -0.4620 -0.3798 -0.1990
  979MOL0     C32078   1.485   8.175   2.438 -0.2656 -0.3066 -0.6884
  979MOL0     C32079   1.396   8.071   2.444 -0.2341  0.0536 -0.3771
  979MOL0     N32080   1.421   7.540   2.419  0.6316  0.3228  0.8053
  979MOL0     N32081   1.432   7.415   2.458  0.7497 -0.6690  0.2805
  979MOL0     C32082   0.912   6.530   2.607  0.2185 -0.1289 -0.4908
  979MOL0     C32083   0.788   6.586   2.644  0.0296  0.4956 -0.3358
  979MOL0     C32084   0.510   6.783   2.934 -0.0910 -0.2805 -0.5198
  979MOL0     C32085   0.394   6.769   2.858 -0.4023  0.2650  0.0712
  979MOL0     C32086   0.274   6.819   2.885 -0.3983 -0.5579 -0.0297
  979MOL0     C32087   0.256   6.883   3.009 -0.2696 -0.3344  0.5285
  979MOL0     O32088   0.138   6.947   3.038 -0.3721  0.1205 -0.0374
  979MOL0     C32089   0.003   6.909   2.981  0.2626 -0.2561  0.0628
  979MOL0     C32090  -0.115   6.973   3.063  0.7080  0.6135  0.1420
  979MOL0     C32091  -0.121   7.130   3.049 -0.0657 -0.1116 -0.3190
  979MOL0     C32092  -0.155   7.184   2.901 -0.8404 -0.1167  0.0179
  979MOL0     C32093  -0.265   7.118   2.841  0.8554  0.4551 -0.0456
  979MOL0     C32094  -0.355   7.058   2.781 -0.3374  0.2247 -0.0543
  979MOL0     C32095   0.375   6.920   3.083 -0.0632 -0.0868 -0.4321
  979MOL0     C32096   0.500   6.864   3.052  0.6550 -0.0310  0.4933
  979MOL0     C32097   0.617   6.873   3.153 -0.2937  0.5209 -0.4049
  979MOL0     H32098   0.764   6.441   2.964 -0.7823  0.6823 -0.3501
  979MOL0     H32099   0.971   6.361   2.902 -1.1312 -1.0657 -0.9415
  979MOL0     H32100   1.219   6.367   2.853 -2.1541  0.0902  0.4185
  979MOL0     H32101   1.315   6.396   2.715  0.9635 -2.1638  1.7147
  979MOL0     H32102   1.341   6.601   2.862  0.8291 -1.1018  0.1705
  979MOL0     H32103   1.166   6.594   2.893 -0.0798  0.6272 -0.9721
  979MOL0     H32104   1.124   6.714   2.698 -1.7625 -2.5744  0.8798
  979MOL0     H32105   1.265   6.642   2.608  1.1191 -1.4359  1.7720
  979MOL0     H32106   1.303   6.845   2.833 -0.5231  0.6837 -0.1765
  979MOL0     H32107   1.426   6.765   2.716 -0.5469 -1.9622  2.0793
  979MOL0     H32108   1.322   6.869   2.533  0.1007  0.2981  0.0592
  979MOL0     H32109   1.194   6.957   2.634  0.8327  1.0774  2.4598
  979MOL0     H32110   1.362   7.076   2.756  0.5811  1.3929  0.4909
  979MOL0     H32111   1.484   6.994   2.658 -1.1035 -1.4877  2.8855
  979MOL0     H32112   1.297   7.105   2.454 -2.1459  5.2143  0.0580
  979MOL0     H32113   1.462   7.152   2.496 -0.1590  3.2439  2.1452
  979MOL0     H32114   1.197   7.251   2.630  0.7594  1.8475  1.6576
  979MOL0     H32115   1.350   7.288   2.691 -0.6438  0.2148  0.4547
  979MOL0     H32116   1.115   7.452   2.484  0.1353  0.7683 -0.4850
  979MOL0     H32117   1.129   7.718   2.410 -0.7082  2.4397 -1.9734
  979MOL0     H32118   1.283   7.773   2.466 -0.9315 -0.3910  1.6625
  979MOL0     H32119   1.372   7.715   2.218 -0.9254 -1.0309 -0.4575
  979MOL0     H32120   1.204   7.674   2.186 -2.0750  1.0207  1.0447
  979MOL0     H32121   1.247   7.890   2.089  2.2874  0.9917 -0.2206
  979MOL0     H32122   1.357   7.935   2.213 -0.4357  0.7172 -2.3948
  979MOL0     H32123   1.062   7.888   2.261 -0.1234 -0.4072  0.6393
  979MOL0     H32124   1.121   8.054   2.201 -0.1704  0.1368  0.2670
  979MOL0     H32125   1.122   8.254   2.378  0.2082  0.3626 -1.3444
  979MOL0     H32126   1.283   8.447   2.377 -1.0005  0.2324  2.1463
  979MOL0     H32127   1.485   8.692   2.216  1.4041 -2.2596  0.6293
  979MOL0     H32128   1.644   8.863   2.140  1.4815 -0.9666 -0.4173
  979MOL0     H32129   1.782   9.076   2.449  1.3072  1.9392  0.9037
  979MOL0     H32130   1.949   9.003   2.455 -0.2922  0.7331 -0.2811
  979MOL0     H32131   1.830   9.205   2.253  1.5525  0.6099 -1.9847
  979MOL0     H32132   1.920   9.263   2.392 -0.3993  0.2271  0.7306
  979MOL0     H32133   2.062   9.090   2.195 -0.0860  0.9655 -0.1147
  979MOL0     H32134   2.038   9.266   2.188 -1.5957  1.6455  2.6282
  979MOL0     H32135   2.142   9.138   2.434 -1.7510 -0.5187 -0.3781
  979MOL0     H32136   2.145   9.300   2.386 -1.4802  0.0756 -1.3138
  979MOL0     H32137   2.282   9.164   2.161  2.4678  2.1490 -0.3500
  979MOL0     H32138   2.340   9.083   2.309  0.7358  1.0796  0.7727
  979MOL0     H32139   2.355   9.376   2.247 -1.1386 -1.5959 -1.3641
  979MOL0     H32140   2.428   9.290   2.379 -3.5093 -0.0503  0.4987
  979MOL0     H32141   2.596   9.349   2.224  1.7977 -1.5123 -2.4863
  979MOL0     H32142   2.504   9.283   2.086 -1.0647  0.5329  0.6921
  979MOL0     H32143   2.633   9.088   2.287 -0.0098  2.6068  2.5891
  979MOL0     H32144   2.562   9.061   2.130 -0.7325  0.1361  0.4236
  979MOL0     H32145   1.848   8.834   2.515 -1.3889  1.7135  1.3292
  979MOL0     H32146   1.711   8.624   2.578 -0.9859  1.8149  0.7016
  979MOL0     H32147   1.590   8.155   2.455 -0.4020 -1.7218 -1.3700
  979MOL0     H32148   1.426   7.971   2.473  0.4439  0.7624  1.5042
  979MOL0     H32149   0.954   6.565   2.514 -1.5570  0.3464 -1.1417
  979MOL0     H32150   0.736   6.651   2.574  1.2923  3.2785  1.1621
  979MOL0     H32151   0.408   6.699   2.776 -3.0087 -2.0114  1.3738
  979MOL0     H32152   0.181   6.814   2.830 -1.8357 -0.2373  2.2323
  979MOL0     H32153   0.001   6.801   2.999 -2.2305 -0.1060  1.0866
  979MOL0     H32154  -0.004   6.947   2.878  2.2774  2.4366  0.8075
  979MOL0     H32155  -0.099   6.949   3.168  1.9185  1.9629  0.2949
  979MOL0     H32156  -0.214   6.940   3.030  1.4581 -1.3506 -0.2614
  979MOL0     H32157  -0.031   7.176   3.089 -1.2128  0.6575  1.5315
  979MOL0     H32158  -0.203   7.158   3.116 -0.4342 -1.5748 -0.1114
  979MOL0     H32159  -0.180   7.290   2.901  0.6510  0.3313 -2.6582
  979MOL0     H32160  -0.063   7.178   2.842  0.4518 -0.0939  1.9335
  979MOL0     H32161  -0.436   7.002   2.739 -0.5219 -0.5567  1.3008
  979MOL0     H32162   0.362   6.990   3.165 -3.2626  1.2271 -1.8946
  979MOL0     H32163   0.670   6.777   3.145 -0.9352  0.2277 -1.2302
  979MOL0     H32164   0.679   6.962   3.139 -0.9364  1.2596  1.2163
  979MOL0     H32165   0.570   6.887   3.251 -1.3233 -3.8872 -0.0577
  980MOL0     O32166   4.126   7.174   6.544  0.1993 -0.3057 -0.1633
  980MOL0     C32167   4.056   7.256   6.483 -0.3737  0.6066 -0.8605
  980MOL0     O32168   4.110   7.373   6.424 -0.1757  0.4183  0.1085
  980MOL0     C32169   4.244   7.402   6.429  0.0971 -0.7512 -0.4363
  980MOL0     C32170   4.313   7.422   6.308  0.2808 -0.2129 -0.0627
  980MOL0     C32171   4.450   7.456   6.302  0.8463 -1.0940 -0.9936
  980MOL0     C32172   4.528   7.456   6.420 -0.5542  1.2300 -0.2980
  980MOL0     O32173   4.658   7.498   6.404  0.3649  0.4965 -0.7504
  980MOL0     C32174   4.759   7.435   6.482 -0.2791  0.0069  0.5072
  980MOL0     C32175   4.888   7.413   6.401 -0.4228 -0.6356  0.3722
  980MOL0     C32176   4.962   7.554   6.391 -0.0347  0.0519  0.7099
  980MOL0     C32177   5.071   7.561   6.279  0.7572 -1.0855  0.1869
  980MOL0     C32178   5.172   7.677   6.276  0.3751  0.0439  0.0052
  980MOL0     C32179   5.287   7.652   6.182 -0.3920  0.3794  0.4911
  980MOL0     C32180   5.389   7.766   6.189 -0.2695 -0.0566 -0.0925
  980MOL0     C32181   5.499   7.746   6.088 -0.9527  0.3000  0.1462
  980MOL0     N32182   5.596   7.638   6.122 -0.0296 -0.8264 -0.4689
  980MOL0     C32183   5.709   7.650   6.205  0.4235 -0.3854  0.9517
  980MOL0     C32184   5.785   7.539   6.177  0.2137 -0.2216 -0.9161
  980MOL0     C32185   5.916   7.486   6.235 -0.5476 -0.3402  0.7307
  980MOL0     C32186   6.028   7.494   6.122 -0.4772  0.1515 -0.6504
  980MOL0     C32187   6.161   7.558   6.172 -0.0293  0.3226 -0.5234
  980MOL0     C32188   6.277   7.519   6.084 -0.3055  0.0065  0.0542
  980MOL0     O32189   6.393   7.546   6.159 -0.1883 -0.4564  0.6737
  980MOL0     C32190   6.517   7.506   6.111 -0.2560  0.2933 -0.1186
  980MOL0     C32191   6.550   7.416   6.007  0.5972 -0.4462  0.6548
  980MOL0     C32192   6.686   7.388   5.981 -0.5439 -0.4119 -0.3338
  980MOL0     C32193   6.785   7.448   6.061  0.3491 -0.0835  0.4909
  980MOL0     C32194   6.921   7.411   6.033 -0.1009 -0.1532  0.3736
  980MOL0     O32195   7.019   7.456   6.116  0.5258 -0.2416  0.4441
  980MOL0     C32196   7.144   7.434   6.079 -0.3590  0.7886 -0.3093
  980MOL0     C32197   7.229   7.548   6.051 -0.1118  0.3523 -0.3217
  980MOL0     C32198   7.366   7.529   6.025 -1.2589 -0.8323  0.0018
  980MOL0     C32199   7.423   7.400   6.012  0.8858 -0.0021 -0.3863
  980MOL0     O32200   7.556   7.388   5.985  0.0665 -0.1551  0.3495
  980MOL0     C32201   7.616   7.255   5.993 -0.8779 -0.5690  0.0561
  980MOL0     C32202   7.774   7.237   5.992 -0.1001 -0.5179  0.5305
  980MOL0     C32203   7.835   7.286   6.124 -0.6935 -0.2553  0.8149
  980MOL0     C32204   7.993   7.269   6.114 -0.4062 -0.0258 -0.5622
  980MOL0     C32205   8.061   7.266   6.251  0.1929 -0.4325 -0.5250
  980MOL0     C32206   8.209   7.309   6.233  1.2236  0.4604 -0.3569
  980MOL0     C32207   8.276   7.281   6.371 -0.6798  0.1603  0.1739
  980MOL0     C32208   8.418   7.316   6.349 -0.1837  0.2591  0.5357
  980MOL0    Cl32209   8.515   7.280   6.485 -0.4816 -0.3288  0.0578
  980MOL0     C32210   7.336   7.291   6.044  0.1095 -0.1478  0.5912
  980MOL0     C32211   7.203   7.304   6.073 -0.0508  0.1452 -0.1324
  980MOL0     O32212   6.944   7.333   5.939 -0.3351  0.0104  0.2350
  980MOL0     C32213   6.753   7.540   6.157  0.6366 -0.5437 -0.1195
  980MOL0     C32214   6.618   7.561   6.194  0.7967 -1.9036 -0.0063
  980MOL0     N32215   5.724   7.481   6.069 -0.6619  0.4351  0.2913
  980MOL0     N32216   5.619   7.545   6.032  0.0678  0.1166 -0.7087
  980MOL0     C32217   4.464   7.413   6.537  0.9732  0.4011  0.4053
  980MOL0     C32218   4.323   7.392   6.541  0.5513  0.4558 -0.0468
  980MOL0     C32219   3.901   7.247   6.485 -0.1284  0.2550 -0.5971
  980MOL0     C32220   3.835   7.344   6.410 -0.3876  0.1012  0.9534
  980MOL0     C32221   3.691   7.346   6.404 -0.1614  0.8480 -0.0408
  980MOL0     C32222   3.616   7.248   6.466 -0.0046  0.1037  0.0394
  980MOL0     O32223   3.484   7.261   6.453 -0.1823 -0.3825  0.0865
  980MOL0     C32224   3.393   7.182   6.518 -0.0062 -0.2394 -0.3216
  980MOL0     C32225   3.253   7.242   6.522  0.0269 -0.1198  0.4396
  980MOL0     C32226   3.247   7.365   6.606 -0.7387 -0.2776 -0.9285
  980MOL0     C32227   3.312   7.488   6.546 -0.2819 -0.5664  0.0545
  980MOL0     C32228   3.238   7.606   6.574 -0.1313  0.0767 -0.6653
  980MOL0     C32229   3.185   7.713   6.592  0.2535 -0.1134  1.5939
  980MOL0     C32230   3.688   7.144   6.531  0.1150  0.0651  0.2407
  980MOL0     C32231   3.829   7.141   6.546  0.1251 -0.2882 -0.2859
  980MOL0     C32232   3.885   7.037   6.629 -0.3139  0.2422 -0.8894
  980MOL0     H32233   4.243   7.436   6.227 -0.1188 -1.0409  0.1306
  980MOL0     H32234   4.503   7.477   6.209 -0.3057  2.0106 -1.0742
  980MOL0     H32235   4.780   7.503   6.565  4.6575  0.1131 -0.5269
  980MOL0     H32236   4.725   7.334   6.507  2.4668 -2.1335 -3.3116
  980MOL0     H32237   4.865   7.372   6.303  0.4730  2.8778 -1.4607
  980MOL0     H32238   4.955   7.343   6.451 -0.2911 -1.2303 -0.6258
  980MOL0     H32239   5.023   7.564   6.481  1.1830  1.4982 -0.2392
  980MOL0     H32240   4.891   7.636   6.374  0.9451  1.4031  2.7338
  980MOL0     H32241   5.126   7.467   6.296  0.2295 -1.5560 -0.6271
  980MOL0     H32242   5.022   7.557   6.182  3.5131  2.1446 -1.5633
  980MOL0     H32243   5.119   7.771   6.257 -0.9596 -0.1836  2.2125
  980MOL0     H32244   5.199   7.708   6.378  1.1963  0.5200 -0.3487
  980MOL0     H32245   5.325   7.561   6.230 -0.8048  0.2865  0.6461
  980MOL0     H32246   5.251   7.638   6.080  2.6211  2.1403 -0.9621
  980MOL0     H32247   5.435   7.775   6.288  2.7205  0.0351 -1.3948
  980MOL0     H32248   5.327   7.847   6.149 -3.1815 -2.9564 -1.9212
  980MOL0     H32249   5.463   7.728   5.986 -0.8201  1.8020 -0.1855
  980MOL0     H32250   5.553   7.840   6.072  1.1274 -0.5986  1.4376
  980MOL0     H32251   5.729   7.731   6.274 -0.4849  1.1402 -0.4730
  980MOL0     H32252   5.946   7.545   6.322 -2.3620  1.0650  0.4756
  980MOL0     H32253   5.907   7.382   6.268  1.0912 -1.6341 -2.4237
  980MOL0     H32254   6.054   7.398   6.077 -1.0014  0.3421 -1.3687
  980MOL0     H32255   5.993   7.550   6.034 -2.3835 -0.5402 -0.3822
  980MOL0     H32256   6.190   7.510   6.266 -2.5482 -0.6440 -0.1368
  980MOL0     H32257   6.153   7.666   6.190 -2.7998  0.3098 -1.1548
  980MOL0     H32258   6.288   7.582   5.996 -0.6400  0.2981  0.2161
  980MOL0     H32259   6.272   7.414   6.055 -0.6150 -0.2912  1.1389
  980MOL0     H32260   6.466   7.375   5.952  0.1542  0.5340  0.5691
  980MOL0     H32261   6.699   7.312   5.904 -1.5062 -3.2757  2.1257
  980MOL0     H32262   7.189   7.646   6.073 -0.7376 -0.2493  1.4251
  980MOL0     H32263   7.435   7.612   6.019 -0.2436 -1.7431 -2.4274
  980MOL0     H32264   7.581   7.212   6.088 -0.0806  1.5619  1.3786
  980MOL0     H32265   7.574   7.205   5.905 -0.5425  0.6781 -0.8335
  980MOL0     H32266   7.785   7.128   5.997  0.2199 -0.5963 -1.1137
  980MOL0     H32267   7.820   7.269   5.898 -0.4736 -0.9938  0.1774
  980MOL0     H32268   7.811   7.393   6.132  1.2450  0.5577 -2.3946
  980MOL0     H32269   7.788   7.231   6.206 -2.1043 -0.7521 -0.2953
  980MOL0     H32270   8.021   7.351   6.048 -4.0745  1.3729 -0.6015
  980MOL0     H32271   8.019   7.181   6.054 -2.1781  0.9229 -2.9102
  980MOL0     H32272   8.050   7.166   6.293 -1.4060 -1.4111 -3.1197
  980MOL0     H32273   8.015   7.343   6.314 -0.6959 -2.3612  1.3138
  980MOL0     H32274   8.248   7.245   6.153 -2.1577 -1.1057 -0.9130
  980MOL0     H32275   8.216   7.417   6.216  0.6219  0.9556  2.1144
  980MOL0     H32276   8.262   7.176   6.398 -0.8881  0.2073  0.2537
  980MOL0     H32277   8.220   7.339   6.445 -0.5629  3.7507 -2.2892
  980MOL0     H32278   8.442   7.268   6.254 -1.2986  1.0041 -0.1403
  980MOL0     H32279   8.418   7.425   6.338  0.3961  0.1622 -0.5793
  980MOL0     H32280   7.379   7.192   6.036  1.0849  0.2013  1.2951
  980MOL0     H32281   7.141   7.218   6.094  2.4526 -1.7947 -0.0811
  980MOL0     H32282   6.829   7.584   6.221 -0.2940  1.5899 -0.3889
  980MOL0     H32283   6.583   7.621   6.277  1.2075  2.1773 -2.5414
  980MOL0     H32284   4.514   7.406   6.633 -0.4350 -0.4020  1.1127
  980MOL0     H32285   4.285   7.371   6.641  0.1933  2.2709  0.2442
  980MOL0     H32286   3.895   7.423   6.366  1.6779  0.3794  3.9794
  980MOL0     H32287   3.648   7.435   6.359 -1.4129  0.0332 -0.4975
  980MOL0     H32288   3.419   7.180   6.624 -0.9479  3.0851  0.0672
  980MOL0     H32289   3.390   7.081   6.475  0.3232 -0.6405  0.5647
  980MOL0     H32290   3.181   7.172   6.567  0.5896 -0.9189  0.1066
  980MOL0     H32291   3.201   7.260   6.428  0.2971 -0.2977  0.2568
  980MOL0     H32292   3.301   7.359   6.701  1.4056 -1.0340 -2.1257
  980MOL0     H32293   3.140   7.365   6.627 -0.9317 -1.9148 -1.7675
  980MOL0     H32294   3.417   7.503   6.571  0.5338 -5.0498  0.1823
  980MOL0     H32295   3.320   7.468   6.439  1.8155  0.1060  0.0500
  980MOL0     H32296   3.151   7.814   6.602  0.9791  0.2927  0.2857
  980MOL0     H32297   3.636   7.059   6.573  3.0745 -1.8933  0.2526
  980MOL0     H32298   3.899   7.078   6.729  2.0467  1.2268 -1.5749
  980MOL0     H32299   3.813   6.956   6.646 -0.8705  0.8711 -0.1707
  980MOL0     H32300   3.977   6.994   6.590 -0.6071 -0.4796 -0.8096
  981MOL0     O32301   9.396  10.381   7.771 -0.1899 -0.5556  0.2632
  981MOL0     C32302   9.295  10.408   7.714  0.6610  0.7171 -0.3654
  981MOL0     O32303   9.283  10.479   7.590 -0.0438 -0.3977 -0.1051
  981MOL0     C32304   9.387  10.549   7.530  0.2460  0.5386 -1.0382
  981MOL0     C32305   9.503  10.594   7.597  0.5567  0.1633  0.2870
  981MOL0     C32306   9.616  10.654   7.530  0.1102  0.5205  0.3041
  981MOL0     C32307   9.607  10.668   7.394 -0.0084  0.2976  1.3647
  981MOL0     O32308   9.714  10.718   7.329  0.1960  0.2994  0.1919
  981MOL0     C32309   9.784  10.616   7.253 -0.6841  0.5380 -0.0789
  981MOL0     C32310   9.931  10.635   7.245 -0.2876 -0.4896  0.2043
  981MOL0     C32311  10.000  10.501   7.205  0.0396  0.6738 -0.4154
  981MOL0     C32312  10.148  10.503   7.238 -0.1749 -0.4502 -0.5644
  981MOL0     C32313  10.237  10.394   7.173 -0.4134  0.2060 -0.1732
  981MOL0     C32314  10.386  10.427   7.218 -0.2238  0.3818 -0.6899
  981MOL0     C32315  10.482  10.366   7.112  0.0108 -0.6686 -0.2236
  981MOL0     C32316  10.476  10.444   6.982  0.2087  0.4842  0.2399
  981MOL0     N32317  10.549  10.569   6.996  0.4530  0.5242 -0.1057
  981MOL0     C32318  10.682  10.581   6.992 -0.2946 -0.2798 -0.2918
  981MOL0     C32319  10.703  10.710   7.023 -0.0584  0.1116  0.2944
  981MOL0     C32320  10.848  10.754   7.024  0.4162 -0.3036 -0.2999
  981MOL0     C32321  10.915  10.765   6.888 -0.1621  0.8469 -0.5099
  981MOL0     C32322  10.845  10.869   6.805  0.0299 -0.0185 -0.0888
  981MOL0     C32323  10.944  10.916   6.690 -0.3238 -0.2817 -0.2151
  981MOL0     O32324  10.892  11.029   6.622 -0.1983  0.1159  0.0748
  981MOL0     C32325  10.990  11.102   6.564 -0.2187  0.2225 -0.3187
  981MOL0     C32326  11.100  11.057   6.487  0.2742 -0.5167 -0.1430
  981MOL0     C32327  11.185  11.149   6.427  0.0067  0.7301 -0.6904
  981MOL0     C32328  11.159  11.282   6.442 -0.1532 -0.0605  0.6511
  981MOL0     C32329  11.256  11.377   6.386 -0.3100 -0.0073  0.7799
  981MOL0     O32330  11.375  11.317   6.355 -0.3623 -0.1707 -0.4669
  981MOL0     C32331  11.481  11.390   6.292  0.0601 -0.0081 -0.8625
  981MOL0     C32332  11.513  11.525   6.315  0.1543 -0.1578 -0.0979
  981MOL0     C32333  11.619  11.578   6.244  0.1623 -0.1287  0.6950
  981MOL0     C32334  11.689  11.498   6.147 -0.0160 -0.3401  0.1215
  981MOL0     O32335  11.788  11.541   6.061  0.3195  0.5486  0.3150
  981MOL0     C32336  11.828  11.683   6.054 -0.3763 -0.0388  0.5019
  981MOL0     C32337  11.920  11.702   5.929  0.1474 -0.8355 -0.1037
  981MOL0     C32338  11.978  11.849   5.926  0.0026 -0.7474 -0.1186
  981MOL0     C32339  12.030  11.908   5.790  0.0295  1.3199 -0.5790
  981MOL0     C32340  12.102  12.039   5.806  0.1481 -0.2809  0.0471
  981MOL0     C32341  12.173  12.070   5.678 -0.4454 -0.4661  0.3824
  981MOL0     C32342  12.281  12.182   5.698  0.2365 -0.1530  0.4516
  981MOL0     C32343  12.343  12.231   5.565  0.4663 -0.1871  0.7321
  981MOL0    Cl32344  12.211  12.288   5.456  0.1368 -0.0159 -0.0541
  981MOL0     C32345  11.651  11.364   6.133 -0.1333 -0.7247  0.3762
  981MOL0     C32346  11.550  11.307   6.198 -0.7687 -0.2420 -0.2112
  981MOL0     O32347  11.231  11.496   6.376  0.8599  0.4708 -0.0595
  981MOL0     C32348  11.041  11.322   6.512 -0.9761 -0.1651 -0.2668
  981MOL0     C32349  10.961  11.235   6.573  0.5117  0.2247 -0.6322
  981MOL0     N32350  10.580  10.778   7.040  0.0252 -0.1786  0.0529
  981MOL0     N32351  10.487  10.691   7.020  0.4728  0.2635 -0.4161
  981MOL0     C32352   9.492  10.619   7.324 -0.7100 -0.7430  0.3917
  981MOL0     C32353   9.381  10.567   7.395 -0.8678 -0.5834  0.2646
  981MOL0     C32354   9.179  10.334   7.756  0.3432  0.5741  0.0502
  981MOL0     C32355   9.157  10.335   7.894 -0.0016  0.7031 -0.8066
  981MOL0     C32356   9.043  10.272   7.954 -0.4114  0.0278 -0.5228
  981MOL0     C32357   8.950  10.213   7.867  0.4928 -0.5982 -0.3485
  981MOL0     O32358   8.836  10.146   7.907  0.0567 -0.0392 -0.5410
  981MOL0     C32359   8.806  10.135   8.049 -0.2095 -0.2218 -0.4585
  981MOL0     C32360   8.880  10.034   8.134 -0.3965 -0.4242 -0.5435
  981MOL0     C32361   8.945   9.917   8.043  0.4939  0.3386  0.0124
  981MOL0     C32362   8.966   9.783   8.112 -0.8729  0.2818  0.0868
  981MOL0     C32363   9.030   9.808   8.243 -0.5870 -0.1438 -0.4588
  981MOL0     C32364   9.104   9.829   8.341 -0.1562 -0.6448 -0.0179
  981MOL0     C32365   8.981  10.211   7.733  1.0094  0.5341 -0.6254
  981MOL0     C32366   9.092  10.259   7.677 -0.6160  0.6625  0.0206
  981MOL0     C32367   9.095  10.251   7.530 -0.0458 -0.2492  0.4232
  981MOL0     H32368   9.509  10.568   7.702 -0.7262  0.5577  0.4800
  981MOL0     H32369   9.712  10.679   7.574  0.7531  2.4596 -1.9730
  981MOL0     H32370   9.778  10.525   7.314  0.3218 -0.8875 -2.0077
  981MOL0     H32371   9.757  10.613   7.147 -1.1224  0.7898  0.0244
  981MOL0     H32372   9.979  10.688   7.327  0.5320  1.6765 -1.5644
  981MOL0     H32373   9.950  10.712   7.170  0.5562 -0.0132  0.8940
  981MOL0     H32374   9.990  10.473   7.100 -3.9139  1.4815 -0.4119
  981MOL0     H32375   9.953  10.426   7.269  1.1900 -0.3073 -0.6861
  981MOL0     H32376  10.178  10.598   7.194  0.0674 -0.1625  0.1990
  981MOL0     H32377  10.160  10.505   7.347  1.6779  1.1799 -0.7468
  981MOL0     H32378  10.217  10.293   7.212  2.2157  0.6111  2.5934
  981MOL0     H32379  10.215  10.384   7.066  0.1039  1.4936 -0.4106
  981MOL0     H32380  10.410  10.533   7.233 -0.5007  0.3870 -0.2661
  981MOL0     H32381  10.397  10.374   7.313 -0.6789  2.0822  0.3579
  981MOL0     H32382  10.448  10.263   7.096 -5.8282  0.0089  4.3987
  981MOL0     H32383  10.579  10.367   7.161 -0.4280  1.1705  0.6894
  981MOL0     H32384  10.506  10.378   6.900 -3.0581 -0.1270 -0.6086
  981MOL0     H32385  10.374  10.478   6.961  0.0424  0.2172  0.6150
  981MOL0     H32386  10.743  10.494   6.966 -3.1149 -1.7967 -2.3904
  981MOL0     H32387  10.867  10.849   7.075  1.2295  1.0018 -2.8456
  981MOL0     H32388  10.910  10.682   7.078  3.5837  2.0240 -0.6004
  981MOL0     H32389  11.021  10.793   6.890 -0.5824  2.5344 -0.2948
  981MOL0     H32390  10.923  10.667   6.839  0.9933  0.0393  1.1716
  981MOL0     H32391  10.815  10.959   6.861 -0.1966  0.3287 -0.7501
  981MOL0     H32392  10.751  10.828   6.767 -0.4036  1.0040 -0.1673
  981MOL0     H32393  10.954  10.825   6.631  0.1685 -1.7664  2.0523
  981MOL0     H32394  11.039  10.943   6.737 -1.3678  0.2915  1.6395
  981MOL0     H32395  11.136  10.956   6.471  2.2583 -0.4764  3.2531
  981MOL0     H32396  11.268  11.099   6.377 -0.1955  0.1989 -0.5032
  981MOL0     H32397  11.449  11.587   6.377 -1.9552  0.0139 -2.2900
  981MOL0     H32398  11.651  11.680   6.265 -5.3327  1.8777  0.9526
  981MOL0     H32399  11.738  11.745   6.053 -2.1945 -2.3615  3.4017
  981MOL0     H32400  11.878  11.717   6.146  1.1102  1.2312 -0.7212
  981MOL0     H32401  12.003  11.631   5.930  2.5170  1.7672 -0.4227
  981MOL0     H32402  11.851  11.695   5.844 -0.3696  3.9990 -0.3594
  981MOL0     H32403  11.899  11.912   5.967  2.0182  1.0707  1.2450
  981MOL0     H32404  12.062  11.857   5.996 -0.1082  0.4569 -0.1016
  981MOL0     H32405  11.948  11.917   5.718 -1.3899 -0.5105  0.6993
  981MOL0     H32406  12.104  11.835   5.757 -2.0381 -2.2013  1.8534
  981MOL0     H32407  12.175  12.035   5.888 -0.5222  2.2457  0.8568
  981MOL0     H32408  12.043  12.126   5.834  3.1231  1.2916  1.9749
  981MOL0     H32409  12.225  11.983   5.638  0.1612  1.1603 -2.7402
  981MOL0     H32410  12.094  12.096   5.606  0.0217 -0.1424 -0.0238
  981MOL0     H32411  12.363  12.146   5.761  1.1002 -1.8659 -1.5242
  981MOL0     H32412  12.239  12.269   5.749  1.6968  1.5196 -1.0190
  981MOL0     H32413  12.409  12.317   5.581 -1.4498  1.2798  1.0487
  981MOL0     H32414  12.401  12.156   5.510 -0.7662  0.3073 -1.3537
  981MOL0     H32415  11.700  11.321   6.047 -0.7021 -2.3839  0.8540
  981MOL0     H32416  11.518  11.204   6.189  0.3684 -0.8482  1.9909
  981MOL0     H32417  11.017  11.427   6.520  1.2473  0.6558 -2.7057
  981MOL0     H32418  10.881  11.277   6.633  1.6562  0.2952  0.8966
  981MOL0     H32419   9.493  10.639   7.217 -2.7480  0.2876  0.5254
  981MOL0     H32420   9.289  10.546   7.341 -1.1774 -0.1058  0.5956
  981MOL0     H32421   9.226  10.371   7.969  0.4912 -1.9215  0.1077
  981MOL0     H32422   9.024  10.264   8.061 -0.4513 -2.5213 -0.6464
  981MOL0     H32423   8.705  10.093   8.046 -0.6463  0.0231  4.1717
  981MOL0     H32424   8.807  10.233   8.097 -2.9536  1.0960 -2.7814
  981MOL0     H32425   8.832   9.996   8.224  1.0056  1.7046  1.1925
  981MOL0     H32426   8.965  10.096   8.164 -1.1082  0.1106  0.4097
  981MOL0     H32427   9.044   9.946   8.006  1.1930  0.5555  1.9739
  981MOL0     H32428   8.870   9.907   7.963 -0.7929  0.8284  1.1250
  981MOL0     H32429   8.866   9.741   8.127 -0.2927 -0.1506  3.6699
  981MOL0     H32430   9.023   9.717   8.046 -0.3023  2.0931 -1.3093
  981MOL0     H32431   9.176   9.846   8.417 -0.4146 -2.0954  0.5864
  981MOL0     H32432   8.918  10.158   7.662  0.2026 -1.5437  1.5078
  981MOL0     H32433   9.023  10.320   7.486  1.7841  0.3085 -1.9069
  981MOL0     H32434   9.192  10.278   7.487 -1.3360  1.9466 -1.2780
  981MOL0     H32435   9.055  10.155   7.493  3.5079 -2.0549  0.7761
  982MOL0     O32436   6.762   5.712   2.406  0.5893 -0.3628  1.1752
  982MOL0     C32437   6.747   5.640   2.503  1.2623  0.2721 -0.2129
  982MOL0     O32438   6.834   5.559   2.561 -0.4573  0.5469 -0.1914
  982MOL0     C32439   6.961   5.563   2.502  0.4172  0.5452 -0.4045
  982MOL0     C32440   6.986   5.496   2.381  0.0192 -0.2564 -0.1334
  982MOL0     C32441   7.110   5.504   2.315  0.5002  0.6672  0.1448
  982MOL0     C32442   7.209   5.584   2.361 -0.3960  1.4811 -0.1212
  982MOL0     O32443   7.329   5.601   2.298  0.0673 -0.4072  0.3055
  982MOL0     C32444   7.376   5.493   2.214  0.0620 -0.4163  0.4606
  982MOL0     C32445   7.522   5.521   2.186 -0.7042  0.5469  0.1304
  982MOL0     C32446   7.600   5.549   2.319  0.7882 -0.2411 -0.1902
  982MOL0     C32447   7.722   5.455   2.324 -0.7860  0.0902 -0.2469
  982MOL0     C32448   7.796   5.464   2.460  0.9593  0.0435  0.2485
  982MOL0     C32449   7.851   5.608   2.490 -0.5149  0.8108  0.7005
  982MOL0     C32450   7.950   5.671   2.391  0.6473  0.1839  0.2002
  982MOL0     C32451   8.079   5.590   2.375  0.5613 -0.8250 -0.8007
  982MOL0     N32452   8.176   5.611   2.483 -0.5502 -0.4986 -0.2106
  982MOL0     C32453   8.292   5.689   2.452  0.3795  0.1232 -0.8720
  982MOL0     C32454   8.352   5.699   2.579  0.0430  0.1667  0.2172
  982MOL0     C32455   8.479   5.784   2.619 -0.1874  0.5871 -0.0949
  982MOL0     C32456   8.608   5.709   2.618  0.4492 -0.4047 -0.3641
  982MOL0     C32457   8.651   5.675   2.761  0.6674  1.3516  0.0916
  982MOL0     C32458   8.775   5.581   2.771  0.2917 -0.4124  0.0864
  982MOL0     O32459   8.794   5.509   2.893 -0.1856  0.2623  0.8295
  982MOL0     C32460   8.917   5.448   2.910  0.0616  0.2708 -0.6253
  982MOL0     C32461   9.001   5.410   2.804  0.4212 -0.4138  0.6144
  982MOL0     C32462   9.133   5.359   2.832 -0.0955 -0.2732  0.8098
  982MOL0     C32463   9.173   5.348   2.963 -0.1591  0.3339  0.1576
  982MOL0     C32464   9.311   5.291   2.988  0.2414 -0.6634 -1.0912
  982MOL0     O32465   9.388   5.265   2.883  0.1485 -0.3238  0.1284
  982MOL0     C32466   9.516   5.239   2.913 -0.2374  0.0992  0.0136
  982MOL0     C32467   9.561   5.105   2.910  0.0527  0.9383 -0.5616
  982MOL0     C32468   9.692   5.081   2.956 -0.3214  0.0735 -0.6288
  982MOL0     C32469   9.776   5.191   3.003 -0.0686  0.8424  0.3379
  982MOL0     O32470   9.898   5.154   3.050 -0.1492 -0.5178 -0.1275
  982MOL0     C32471  10.008   5.234   3.002  0.5281 -0.6457 -0.3840
  982MOL0     C32472  10.142   5.184   3.066 -0.2246 -0.9984  0.8923
  982MOL0     C32473  10.140   5.204   3.215  0.9830  1.1017 -0.2914
  982MOL0     C32474  10.252   5.124   3.274 -0.5342 -0.1720 -0.2495
  982MOL0     C32475  10.269   5.160   3.423  0.1470  0.0007  0.8578
  982MOL0     C32476  10.376   5.077   3.494 -0.5327  0.7490 -0.3141
  982MOL0     C32477  10.500   5.030   3.423 -0.0477 -0.2050 -0.3537
  982MOL0     C32478  10.623   5.006   3.520  0.7338 -0.2760 -0.3542
  982MOL0    Cl32479  10.707   5.163   3.547  0.0870  0.2327  0.3656
  982MOL0     C32480   9.734   5.322   2.991  0.9974 -0.8297  0.1871
  982MOL0     C32481   9.602   5.343   2.945 -0.5298 -0.2994  0.8320
  982MOL0     O32482   9.353   5.304   3.103  0.9354  0.2303 -0.2142
  982MOL0     C32483   9.089   5.381   3.070  0.5680 -0.5094 -0.0613
  982MOL0     C32484   8.968   5.435   3.041  0.1980  0.4776  0.2701
  982MOL0     N32485   8.277   5.621   2.676  0.1185 -0.6145  0.8197
  982MOL0     N32486   8.174   5.572   2.617 -0.6645 -0.4220  0.4542
  982MOL0     C32487   7.191   5.647   2.482  0.3108 -0.2889 -0.5147
  982MOL0     C32488   7.067   5.640   2.552  0.1528  0.3991  0.1224
  982MOL0     C32489   6.610   5.648   2.566 -0.2025  0.1262  0.2770
  982MOL0     C32490   6.599   5.666   2.704  0.3939 -0.1601 -0.3586
  982MOL0     C32491   6.475   5.680   2.764 -0.8344  0.5053  0.0732
  982MOL0     C32492   6.359   5.697   2.689 -0.3012 -0.8724  0.3709
  982MOL0     O32493   6.235   5.733   2.734 -0.1515 -0.4997 -0.3242
  982MOL0     C32494   6.229   5.755   2.880  0.4769 -0.8247  0.5130
  982MOL0     C32495   6.091   5.815   2.900  0.0294 -0.2646  0.1314
  982MOL0     C32496   5.976   5.735   2.830  0.3343  0.6885  0.0187
  982MOL0     C32497   5.829   5.779   2.862  0.5063 -0.3198 -0.0652
  982MOL0     C32498   5.804   5.904   2.935 -0.3186  0.6571 -0.7746
  982MOL0     C32499   5.763   6.002   3.000 -0.2391  0.1049 -0.2368
  982MOL0     C32500   6.358   5.670   2.551  0.7779  1.0656 -1.4487
  982MOL0     C32501   6.487   5.650   2.493  0.5283  0.3804 -0.2325
  982MOL0     C32502   6.488   5.640   2.345  0.0134  0.2857 -0.5704
  982MOL0     H32503   6.906   5.433   2.343 -1.0152  0.9359  0.0076
  982MOL0     H32504   7.117   5.442   2.226 -0.5807 -0.7029  0.9716
  982MOL0     H32505   7.362   5.398   2.267  0.2431 -1.8394 -1.9280
  982MOL0     H32506   7.309   5.488   2.128 -1.2758 -2.9845  1.5252
  982MOL0     H32507   7.521   5.614   2.129  1.3370  0.4371 -0.1714
  982MOL0     H32508   7.555   5.433   2.130  1.5577  1.7494 -0.5462
  982MOL0     H32509   7.532   5.536   2.404  1.1262 -2.6245 -0.1984
  982MOL0     H32510   7.637   5.651   2.324  0.3459 -0.0607 -0.4841
  982MOL0     H32511   7.691   5.351   2.308  1.2940 -0.6910  0.5294
  982MOL0     H32512   7.802   5.487   2.256 -1.1532 -1.4651 -1.4700
  982MOL0     H32513   7.733   5.430   2.543 -1.4504 -0.4606 -1.6896
  982MOL0     H32514   7.882   5.396   2.458  0.1570 -1.0646  1.6517
  982MOL0     H32515   7.763   5.672   2.501  0.0843  1.7100  0.2968
  982MOL0     H32516   7.894   5.607   2.590 -0.2734  2.2187  0.6267
  982MOL0     H32517   7.977   5.773   2.421  1.8801  0.0860 -0.5196
  982MOL0     H32518   7.900   5.690   2.295  0.2873  0.0693  0.3619
  982MOL0     H32519   8.054   5.486   2.395 -0.6591 -0.6360 -1.3071
  982MOL0     H32520   8.126   5.596   2.276  0.0397 -4.0350 -1.3615
  982MOL0     H32521   8.318   5.739   2.359 -1.6197  0.4344 -1.3122
  982MOL0     H32522   8.479   5.872   2.554 -4.4925 -0.9628 -2.5627
  982MOL0     H32523   8.449   5.816   2.719 -2.6247  1.2753 -0.9850
  982MOL0     H32524   8.595   5.612   2.568  0.5154 -1.3347  1.3384
  982MOL0     H32525   8.686   5.766   2.566  0.0604  0.4906  0.0250
  982MOL0     H32526   8.566   5.630   2.812 -1.0761  1.1408 -2.8064
  982MOL0     H32527   8.690   5.769   2.802  2.9261 -0.3484  2.1277
  982MOL0     H32528   8.859   5.648   2.753 -0.2290  0.6676  1.4735
  982MOL0     H32529   8.767   5.502   2.695  1.6357 -0.3851 -0.1081
  982MOL0     H32530   8.977   5.418   2.699  0.9780 -1.3041  0.4089
  982MOL0     H32531   9.198   5.340   2.747 -2.6678  0.5271 -1.4847
  982MOL0     H32532   9.486   5.032   2.882 -1.9687  3.3653 -1.9184
  982MOL0     H32533   9.725   4.977   2.960 -3.0847 -0.9258 -1.1970
  982MOL0     H32534  10.026   5.236   2.895  4.2585 -2.1721  0.0916
  982MOL0     H32535  10.000   5.334   3.046  0.0563 -0.8860  0.0876
  982MOL0     H32536  10.165   5.084   3.030 -3.8143 -1.4695 -0.4525
  982MOL0     H32537  10.225   5.241   3.023  0.0787 -2.1522 -0.0980
  982MOL0     H32538  10.137   5.311   3.237  1.6634  1.3468 -1.2839
  982MOL0     H32539  10.043   5.173   3.255 -1.9154  3.7280 -4.3880
  982MOL0     H32540  10.344   5.146   3.220 -0.3050 -2.4583 -0.9095
  982MOL0     H32541  10.239   5.017   3.254  2.6099 -0.3270 -1.9955
  982MOL0     H32542  10.175   5.159   3.479 -1.8588  0.7869 -2.2248
  982MOL0     H32543  10.301   5.264   3.428 -0.4700  0.1747  1.2355
  982MOL0     H32544  10.407   5.133   3.583  0.2870 -0.3931  0.1382
  982MOL0     H32545  10.328   4.992   3.542 -1.1100  1.5741  0.6106
  982MOL0     H32546  10.524   5.095   3.339  1.8971 -2.3429 -1.5688
  982MOL0     H32547  10.468   4.937   3.374  1.2854 -0.2097 -1.2652
  982MOL0     H32548  10.590   4.965   3.616  1.0628  2.6341  1.1203
  982MOL0     H32549  10.691   4.930   3.481  1.1348  1.3586 -3.0509
  982MOL0     H32550   9.794   5.409   3.020 -2.2979  2.0271 -0.9333
  982MOL0     H32551   9.569   5.446   2.933 -0.8426 -0.0082  3.5659
  982MOL0     H32552   9.120   5.384   3.174  0.3439  2.3183 -0.0084
  982MOL0     H32553   8.913   5.476   3.126  1.5082  0.2374  1.2633
  982MOL0     H32554   7.270   5.713   2.516  0.2169 -0.0432 -0.7728
  982MOL0     H32555   7.050   5.713   2.631  0.3739 -0.3277  0.8631
  982MOL0     H32556   6.685   5.660   2.769 -0.1791  0.2040  0.4479
  982MOL0     H32557   6.455   5.674   2.871  0.9672  0.9914  0.4813
  982MOL0     H32558   6.303   5.827   2.918  1.7052 -1.1010 -1.2536
  982MOL0     H32559   6.257   5.674   2.948  0.3515 -0.0675  1.4897
  982MOL0     H32560   6.092   5.919   2.866 -2.4944  0.2443  1.3898
  982MOL0     H32561   6.075   5.811   3.008  1.9496 -1.6083  0.4192
  982MOL0     H32562   5.994   5.632   2.861 -0.8851  1.1318  2.4966
  982MOL0     H32563   5.998   5.746   2.724 -0.0796 -1.6876 -0.3566
  982MOL0     H32564   5.770   5.787   2.770  0.4650  1.0022  0.0485
  982MOL0     H32565   5.774   5.697   2.909  1.9421 -0.5083  1.3681
  982MOL0     H32566   5.713   6.080   3.053  0.9115  0.7865 -0.1060
  982MOL0     H32567   6.262   5.677   2.500 -1.7505  2.4714  2.9942
  982MOL0     H32568   6.560   5.567   2.308 -0.5165 -1.3483  1.4311
  982MOL0     H32569   6.389   5.619   2.303 -1.9798  2.3812  2.6170
  982MOL0     H32570   6.513   5.741   2.310 -1.9127  2.2025  3.0326
  983MOL0     O32571   5.216  10.502   1.793 -0.2735  1.1501 -0.4788
  983MOL0     C32572   5.215  10.406   1.875  0.4796 -0.1270 -0.2367
  983MOL0     O32573   5.330  10.361   1.933  0.8841  0.0170  0.5421
  983MOL0     C32574   5.456  10.410   1.889 -0.0552 -0.1425 -0.6792
  983MOL0     C32575   5.500  10.432   1.759  0.2000 -0.0252 -0.4050
  983MOL0     C32576   5.624  10.487   1.735 -0.4572 -0.1150  0.1975
  983MOL0     C32577   5.719  10.499   1.841 -0.3405 -0.1273  0.4311
  983MOL0     O32578   5.846  10.552   1.830  0.1472 -0.0258 -0.3266
  983MOL0     C32579   5.892  10.569   1.700  0.0512  0.0990  0.1908
  983MOL0     C32580   6.037  10.587   1.709  0.2614  0.0758 -1.0349
  983MOL0     C32581   6.107  10.647   1.594  0.0606 -0.1446  0.4476
  983MOL0     C32582   6.247  10.697   1.629 -0.1232  0.0424 -0.1997
  983MOL0     C32583   6.302  10.761   1.508  0.7024  0.1888 -0.1183
  983MOL0     C32584   6.442  10.818   1.541  0.0431  0.5539  0.9671
  983MOL0     C32585   6.503  10.874   1.414 -0.2361  0.9176 -0.1303
  983MOL0     C32586   6.591  10.766   1.335  0.4796  0.0022 -0.3331
  983MOL0     N32587   6.653  10.832   1.224  0.3422  0.4308 -0.2064
  983MOL0     C32588   6.788  10.863   1.220  0.2377  0.8807  0.4009
  983MOL0     C32589   6.817  10.917   1.102  0.7835 -0.3842 -0.1935
  983MOL0     C32590   6.953  10.973   1.059  0.5088 -0.0336 -0.5357
  983MOL0     C32591   7.067  10.880   1.084  0.2327  0.2425  0.1610
  983MOL0     C32592   7.186  10.897   0.983 -0.2629  0.9100  0.0251
  983MOL0     C32593   7.280  11.012   1.031  0.2832 -0.6812  0.0939
  983MOL0     O32594   7.336  11.062   0.911 -0.0909 -0.2221  0.0716
  983MOL0     C32595   7.451  10.999   0.877  0.0020  0.4363  0.5190
  983MOL0     C32596   7.563  10.999   0.955 -1.3957  0.1435  0.6627
  983MOL0     C32597   7.689  10.944   0.912  0.1156 -0.2082 -0.1419
  983MOL0     C32598   7.701  10.891   0.781  0.1097 -0.0439 -0.2195
  983MOL0     C32599   7.839  10.851   0.742  0.7360 -0.4020  0.5809
  983MOL0     O32600   7.936  10.847   0.840 -0.3951 -0.1225  0.1698
  983MOL0     C32601   8.059  10.789   0.828 -0.5954  0.8674  0.1305
  983MOL0     C32602   8.112  10.706   0.726  0.0469  0.1189  0.2969
  983MOL0     C32603   8.246  10.672   0.724  0.2458  0.1988  0.5964
  983MOL0     C32604   8.336  10.713   0.830  0.1418  0.0113  0.6063
  983MOL0     O32605   8.474  10.697   0.823 -0.2124  0.2663 -0.3226
  983MOL0     C32606   8.539  10.585   0.765 -0.9278 -0.4658  0.0748
  983MOL0     C32607   8.681  10.623   0.715  0.8859  0.2602 -0.8061
  983MOL0     C32608   8.769  10.506   0.660  0.2841 -0.1935  0.1207
  983MOL0     C32609   8.901  10.569   0.608  0.0907 -0.7351 -0.5244
  983MOL0     C32610   8.994  10.457   0.565 -0.0516 -0.0904  0.1535
  983MOL0     C32611   9.046  10.376   0.689 -0.1138  0.0743 -0.5401
  983MOL0     C32612   9.156  10.284   0.652 -0.2942 -1.2951 -0.0407
  983MOL0     C32613   9.294  10.363   0.626 -0.7076  0.1958  0.6815
  983MOL0    Cl32614   9.423  10.236   0.577  0.0165 -0.0178  0.2004
  983MOL0     C32615   8.280  10.789   0.930 -0.3206  0.2509  0.8178
  983MOL0     C32616   8.144  10.825   0.929  0.5023  0.5427  0.6184
  983MOL0     O32617   7.858  10.817   0.624 -0.0920 -0.7560  0.4789
  983MOL0     C32618   7.586  10.891   0.699 -0.0463 -0.0746  0.6638
  983MOL0     C32619   7.461  10.944   0.753  0.3446  0.7409  0.7604
  983MOL0     N32620   6.695  10.912   1.026 -0.2019  0.2515 -0.3190
  983MOL0     N32621   6.594  10.869   1.101 -0.8116 -0.8863 -0.5718
  983MOL0     C32622   5.682  10.449   1.970  0.1282 -0.2420 -0.2132
  983MOL0     C32623   5.549  10.419   1.995 -0.3593 -0.4883  0.3847
  983MOL0     C32624   5.085  10.344   1.924  0.3349  0.4367 -0.4054
  983MOL0     C32625   4.966  10.371   1.848 -0.3055 -0.4626 -0.1383
  983MOL0     C32626   4.842  10.335   1.899  0.2423  0.8438  0.7076
  983MOL0     C32627   4.824  10.270   2.021  0.5956  0.7016 -1.0345
  983MOL0     O32628   4.703  10.238   2.074  0.0141  0.5976 -0.2223
  983MOL0     C32629   4.587  10.260   2.002 -1.0118 -0.6545  0.6426
  983MOL0     C32630   4.472  10.236   2.095  0.4943 -0.0163  0.0665
  983MOL0     C32631   4.457  10.338   2.204  0.6265 -0.2726 -0.3715
  983MOL0     C32632   4.370  10.305   2.327  0.5616  0.5671 -0.7989
  983MOL0     C32633   4.227  10.287   2.299 -1.5761  1.1129  0.1903
  983MOL0     C32634   4.113  10.262   2.271 -0.0329 -0.3316 -0.5192
  983MOL0     C32635   4.937  10.247   2.097  0.5714  0.3261  0.7819
  983MOL0     C32636   5.068  10.285   2.056 -0.2357 -0.3228  0.8089
  983MOL0     C32637   5.189  10.281   2.160  0.1347  0.0983  0.1441
  983MOL0     H32638   5.431  10.421   1.675 -1.0237  0.1350  0.5407
  983MOL0     H32639   5.637  10.522   1.633  0.9717 -0.0823  0.3629
  983MOL0     H32640   5.867  10.484   1.636  1.6700 -1.0082  0.9506
  983MOL0     H32641   5.842  10.656   1.657  1.0090  0.6732  0.2153
  983MOL0     H32642   6.091  10.493   1.728  1.4333  0.6378 -1.5238
  983MOL0     H32643   6.057  10.660   1.788  0.8231  1.4443 -2.3994
  983MOL0     H32644   6.053  10.730   1.548 -0.7257 -1.5750 -1.3113
  983MOL0     H32645   6.097  10.569   1.519  1.0132 -3.3478  3.3787
  983MOL0     H32646   6.245  10.763   1.716  2.3559 -1.8805  1.4628
  983MOL0     H32647   6.303  10.612   1.668  1.0589  1.2331  0.7376
  983MOL0     H32648   6.316  10.693   1.424 -0.9871  1.4264 -1.4741
  983MOL0     H32649   6.228  10.840   1.488 -0.2056 -0.8931 -1.1686
  983MOL0     H32650   6.435  10.895   1.619  0.1356  2.5498 -0.8899
  983MOL0     H32651   6.501  10.733   1.576 -0.8741 -0.7163 -0.4088
  983MOL0     H32652   6.577  10.951   1.441 -1.0852  0.9354  2.4825
  983MOL0     H32653   6.431  10.916   1.344 -1.3895  0.7956  0.9435
  983MOL0     H32654   6.667  10.724   1.402 -1.5151 -0.7366  1.6109
  983MOL0     H32655   6.531  10.687   1.289  1.6336 -1.5985  0.8084
  983MOL0     H32656   6.860  10.838   1.297 -0.3078 -1.7478  0.1469
  983MOL0     H32657   6.955  11.003   0.953  1.1637  1.3850 -0.1497
  983MOL0     H32658   6.979  11.060   1.121  3.9161 -1.0514 -0.3093
  983MOL0     H32659   7.115  10.894   1.181  3.8931  2.0302 -1.6640
  983MOL0     H32660   7.036  10.775   1.074 -0.5542  0.5013 -0.1896
  983MOL0     H32661   7.148  10.905   0.881 -0.1985 -4.5130 -0.7145
  983MOL0     H32662   7.244  10.805   0.982 -0.9689  0.4532  0.0930
  983MOL0     H32663   7.350  10.959   1.097  1.5441  0.7807 -0.0243
  983MOL0     H32664   7.229  11.096   1.079  3.1766  1.1729  0.1410
  983MOL0     H32665   7.546  11.050   1.049  0.3063  0.7775  0.6768
  983MOL0     H32666   7.769  10.935   0.984 -0.6147  1.9674  1.0147
  983MOL0     H32667   8.046  10.678   0.644 -2.1899  1.8582  1.3858
  983MOL0     H32668   8.283  10.606   0.646 -2.1244 -1.7801  1.0090
  983MOL0     H32669   8.556  10.501   0.833 -0.3974  0.1534  0.7206
  983MOL0     H32670   8.485  10.544   0.679  0.5472 -0.6871 -0.7895
  983MOL0     H32671   8.660  10.697   0.638  1.1150  1.7173  0.4719
  983MOL0     H32672   8.730  10.674   0.799  0.5363 -0.8762  0.1085
  983MOL0     H32673   8.795  10.440   0.743 -0.0832  0.6713  0.9399
  983MOL0     H32674   8.712  10.445   0.589 -3.9185  2.7164  0.6330
  983MOL0     H32675   8.954  10.626   0.684  0.1737 -0.3949 -0.8315
  983MOL0     H32676   8.874  10.635   0.524  1.7931  0.4460 -0.1974
  983MOL0     H32677   9.080  10.504   0.514 -0.3497  0.2059 -0.0840
  983MOL0     H32678   8.947  10.396   0.487  0.4900 -1.0592  0.5748
  983MOL0     H32679   9.077  10.440   0.772 -1.0400  0.5000 -0.5043
  983MOL0     H32680   8.967  10.306   0.720 -0.2768 -0.3062 -1.7546
  983MOL0     H32681   9.125  10.238   0.558 -0.5698  1.1553 -1.2273
  983MOL0     H32682   9.175  10.216   0.735  1.2165 -0.9593 -0.0699
  983MOL0     H32683   9.277  10.445   0.556 -1.1593 -2.6611 -2.8200
  983MOL0     H32684   9.316  10.421   0.717 -1.1403  0.4305  0.6407
  983MOL0     H32685   8.341  10.818   1.014 -2.7665  3.4219  1.7077
  983MOL0     H32686   8.103  10.875   1.016 -0.6003 -0.5549  0.7592
  983MOL0     H32687   7.577  10.858   0.596 -2.0389 -2.7860  1.5728
  983MOL0     H32688   7.377  10.950   0.684  2.2296 -0.6497 -1.8521
  983MOL0     H32689   5.753  10.459   2.052 -0.4015  0.5846  0.1564
  983MOL0     H32690   5.518  10.377   2.091  0.4592 -0.2593  0.7517
  983MOL0     H32691   4.967  10.413   1.747 -1.5899 -0.7514 -0.2885
  983MOL0     H32692   4.755  10.358   1.838  0.1421 -1.4718 -0.1352
  983MOL0     H32693   4.594  10.191   1.918  3.2618  1.7650 -1.3157
  983MOL0     H32694   4.578  10.362   1.964 -1.3628 -0.2634  1.7376
  983MOL0     H32695   4.486  10.135   2.135 -0.8497  0.8267  2.8895
  983MOL0     H32696   4.383  10.243   2.031  0.4024  0.4944  0.2478
  983MOL0     H32697   4.447  10.440   2.167  2.8332 -1.3609 -4.6234
  983MOL0     H32698   4.557  10.354   2.247  0.6453  2.0837 -1.1522
  983MOL0     H32699   4.412  10.229   2.394 -2.3706 -0.1537  0.3712
  983MOL0     H32700   4.366  10.397   2.386  2.8364  1.6369 -2.1557
  983MOL0     H32701   4.010  10.239   2.255  0.2674 -0.7784 -1.9534
  983MOL0     H32702   4.919  10.204   2.195 -2.1050 -0.7848 -0.1000
  983MOL0     H32703   5.163  10.242   2.259  1.1689  2.4028  1.4234
  983MOL0     H32704   5.270  10.212   2.134  1.6315  1.8961 -0.1594
  983MOL0     H32705   5.228  10.383   2.173 -0.9084  0.3309  1.7687
  984MOL0     O32706   7.482   3.459   6.216  0.1061  0.5137 -0.6035
  984MOL0     C32707   7.445   3.427   6.327 -0.1328  0.4403  0.4105
  984MOL0     O32708   7.524   3.450   6.437 -0.5590 -0.1518  0.4393
  984MOL0     C32709   7.634   3.532   6.434 -0.1329  0.1785 -0.5590
  984MOL0     C32710   7.675   3.625   6.342  0.3900 -0.0119  0.7597
  984MOL0     C32711   7.793   3.703   6.355 -0.0364  0.0413  0.4976
  984MOL0     C32712   7.882   3.671   6.451 -1.3763 -0.6709 -0.6966
  984MOL0     O32713   8.013   3.705   6.474 -0.8697 -0.3426  0.7040
  984MOL0     C32714   8.033   3.842   6.478 -0.0147 -0.0563  0.0774
  984MOL0     C32715   8.126   3.873   6.591 -0.1156 -0.3116  0.6458
  984MOL0     C32716   8.066   3.829   6.732  0.0668 -0.1221 -0.5044
  984MOL0     C32717   7.964   3.913   6.807  0.8170 -0.5247  0.7695
  984MOL0     C32718   7.819   3.905   6.751  0.0015  0.6507  0.8603
  984MOL0     C32719   7.724   3.971   6.851 -0.5324  0.1143 -0.1157
  984MOL0     C32720   7.585   3.948   6.801  0.4682 -0.4591  0.3870
  984MOL0     C32721   7.539   3.803   6.821 -0.0459 -0.4696 -0.2987
  984MOL0     N32722   7.402   3.778   6.775  0.1748  0.7476  0.4115
  984MOL0     C32723   7.368   3.678   6.680  0.2062  0.2131 -0.9057
  984MOL0     C32724   7.237   3.695   6.667 -0.0334 -0.0095  0.4763
  984MOL0     C32725   7.151   3.623   6.572  0.6090 -0.1744 -0.1331
  984MOL0     C32726   7.021   3.690   6.521  0.2512  0.0484  0.2425
  984MOL0     C32727   6.931   3.591   6.458  0.0729 -0.1243  0.4318
  984MOL0     C32728   6.840   3.517   6.547 -0.8487 -0.0191  0.3651
  984MOL0     O32729   6.719   3.455   6.496 -0.0346  0.4537  0.2845
  984MOL0     C32730   6.607   3.522   6.460  0.5126  0.0650 -0.5189
  984MOL0     C32731   6.601   3.666   6.448  0.2449 -0.1408  0.2729
  984MOL0     C32732   6.473   3.727   6.440  0.7337 -0.1631  0.1095
  984MOL0     C32733   6.357   3.651   6.421 -0.3198 -0.0159 -0.0696
  984MOL0     C32734   6.225   3.719   6.407 -0.1543  0.0255 -0.1862
  984MOL0     O32735   6.114   3.642   6.439  0.2835  0.1962 -0.6600
  984MOL0     C32736   5.985   3.689   6.418  0.1363 -0.7834  0.8232
  984MOL0     C32737   5.945   3.820   6.466 -0.2116 -0.4645  0.5068
  984MOL0     C32738   5.816   3.866   6.451 -0.7958 -0.2122 -0.3474
  984MOL0     C32739   5.714   3.789   6.387  0.7882  0.3223  0.3637
  984MOL0     O32740   5.574   3.822   6.362 -0.1538 -0.3794 -0.3952
  984MOL0     C32741   5.507   3.909   6.458 -0.9776  0.2874  0.4928
  984MOL0     C32742   5.468   3.842   6.591  0.2932  0.8469 -0.0474
  984MOL0     C32743   5.331   3.767   6.586  0.5643  0.8670  0.0560
  984MOL0     C32744   5.253   3.757   6.716 -0.7323  0.6899 -0.3552
  984MOL0     C32745   5.111   3.696   6.690  0.5651  0.0857  0.7833
  984MOL0     C32746   5.037   3.708   6.828 -0.5354 -0.4908  0.0847
  984MOL0     C32747   4.896   3.637   6.845 -0.1509  0.4717  0.8544
  984MOL0     C32748   4.900   3.487   6.826 -0.2810  0.0930 -0.3727
  984MOL0    Cl32749   4.740   3.422   6.829  0.0006  0.0416  0.1322
  984MOL0     C32750   5.755   3.663   6.335 -1.2193  0.9503  0.4656
  984MOL0     C32751   5.885   3.608   6.363  0.2236  0.3998 -0.2605
  984MOL0     O32752   6.219   3.834   6.370 -0.3099 -0.1921  0.3523
  984MOL0     C32753   6.370   3.516   6.426  1.7284 -0.9465 -0.0561
  984MOL0     C32754   6.489   3.452   6.442 -0.5767 -0.1900 -0.2389
  984MOL0     N32755   7.181   3.783   6.756 -0.2862 -0.1854 -0.3973
  984MOL0     N32756   7.284   3.839   6.815 -0.0462  0.3071 -0.3314
  984MOL0     C32757   7.853   3.568   6.543 -0.2767 -0.3171  0.3802
  984MOL0     C32758   7.726   3.505   6.533 -0.6465  0.7270  0.4488
  984MOL0     C32759   7.322   3.355   6.355 -0.2927  0.7504 -0.5120
  984MOL0     C32760   7.301   3.314   6.489  0.9944  0.8253  0.0405
  984MOL0     C32761   7.189   3.239   6.523 -0.6306  0.8300 -1.1516
  984MOL0     C32762   7.089   3.198   6.436  0.5957 -1.4449  0.5486
  984MOL0     O32763   6.987   3.130   6.497 -0.3450  0.1831 -0.4797
  984MOL0     C32764   6.894   3.073   6.412 -0.2655 -0.4312 -0.8238
  984MOL0     C32765   6.773   3.021   6.485 -0.7829  0.5678  1.2407
  984MOL0     C32766   6.708   3.129   6.561 -0.5766 -0.5400  0.5065
  984MOL0     C32767   6.564   3.097   6.600  0.7395 -1.4915  0.2141
  984MOL0     C32768   6.553   2.973   6.674  0.9292  0.6334  0.1722
  984MOL0     C32769   6.545   2.859   6.721  0.5230  1.3729  0.3702
  984MOL0     C32770   7.105   3.244   6.305  0.3456  0.1427 -1.4444
  984MOL0     C32771   7.219   3.315   6.259  0.4825  0.2804  0.1350
  984MOL0     C32772   7.231   3.344   6.105 -0.4763 -0.3582  0.3982
  984MOL0     H32773   7.610   3.652   6.259 -0.7832 -0.8844  1.3618
  984MOL0     H32774   7.808   3.778   6.277  0.1157  1.1027  1.5228
  984MOL0     H32775   8.082   3.874   6.385 -0.3562  0.6599  0.1373
  984MOL0     H32776   7.944   3.907   6.477  2.2418  3.3392 -1.6195
  984MOL0     H32777   8.133   3.982   6.582 -2.8277 -0.0990  0.1243
  984MOL0     H32778   8.225   3.829   6.577 -0.2124 -0.8281  1.4951
  984MOL0     H32779   8.154   3.834   6.797  0.7470  2.0788 -1.4886
  984MOL0     H32780   8.026   3.728   6.715 -2.0718  0.6896 -0.5246
  984MOL0     H32781   7.967   3.901   6.915 -4.1659  1.6575  1.4072
  984MOL0     H32782   7.989   4.019   6.799 -0.8730 -0.1446 -0.0732
  984MOL0     H32783   7.809   3.949   6.651  0.8940  0.7938  0.8254
  984MOL0     H32784   7.796   3.798   6.746  0.0244  0.6426  0.9189
  984MOL0     H32785   7.743   3.928   6.949  0.2759  3.6234  1.4508
  984MOL0     H32786   7.732   4.080   6.848 -1.3540  0.2479  1.6976
  984MOL0     H32787   7.584   3.965   6.693  0.3167  0.3584  0.5094
  984MOL0     H32788   7.511   4.020   6.839 -0.5175 -1.2215 -0.0469
  984MOL0     H32789   7.602   3.735   6.763  0.3547 -0.6127  0.3002
  984MOL0     H32790   7.549   3.775   6.926 -1.7230 -0.7288 -0.1749
  984MOL0     H32791   7.425   3.594   6.643 -2.0092 -2.2483  0.8531
  984MOL0     H32792   7.218   3.614   6.486  2.1968  2.3249  0.7135
  984MOL0     H32793   7.135   3.522   6.609 -0.1204  0.5815  1.7442
  984MOL0     H32794   6.966   3.745   6.597 -2.9262 -0.9148 -1.2150
  984MOL0     H32795   7.059   3.766   6.451 -0.0781 -0.5166 -0.5635
  984MOL0     H32796   6.987   3.527   6.389 -1.1668 -0.0844 -0.6507
  984MOL0     H32797   6.872   3.650   6.388  1.8653 -0.9525 -1.9216
  984MOL0     H32798   6.800   3.591   6.617  2.1870  2.8220 -0.6846
  984MOL0     H32799   6.899   3.447   6.607  1.8814 -0.4305 -2.5351
  984MOL0     H32800   6.692   3.722   6.463 -0.4185  0.6592  1.3793
  984MOL0     H32801   6.454   3.834   6.433 -3.2078 -0.7264 -0.0427
  984MOL0     H32802   6.023   3.867   6.525  0.6289 -1.6884  0.4018
  984MOL0     H32803   5.784   3.966   6.480 -0.4196  0.6828 -2.7886
  984MOL0     H32804   5.560   4.000   6.490 -1.7779  0.0504  2.6970
  984MOL0     H32805   5.415   3.942   6.409 -0.0383  0.5995 -1.1503
  984MOL0     H32806   5.548   3.772   6.619  0.1599  1.7007  2.8765
  984MOL0     H32807   5.462   3.913   6.675 -2.8116 -0.4476  0.9658
  984MOL0     H32808   5.269   3.812   6.508 -1.5067 -3.1986 -0.9123
  984MOL0     H32809   5.352   3.664   6.554  0.1070 -0.8443  4.5292
  984MOL0     H32810   5.244   3.851   6.771 -1.6943 -0.7228  2.1026
  984MOL0     H32811   5.308   3.695   6.787  1.3823  2.6628 -0.1708
  984MOL0     H32812   5.120   3.590   6.665 -1.3525  0.0790 -0.0784
  984MOL0     H32813   5.062   3.756   6.612  1.6340 -0.1774 -0.1243
  984MOL0     H32814   5.105   3.677   6.907 -0.9728 -1.2885  0.1555
  984MOL0     H32815   5.026   3.816   6.839  0.0206 -0.5962  1.9409
  984MOL0     H32816   4.832   3.670   6.762  0.3538  1.6356  0.9101
  984MOL0     H32817   4.847   3.674   6.935 -1.6841 -0.5766  0.5024
  984MOL0     H32818   4.947   3.472   6.729 -0.5366 -1.3048 -0.2974
  984MOL0     H32819   4.952   3.437   6.909 -0.0906 -0.1303 -0.6248
  984MOL0     H32820   5.689   3.597   6.281  1.5840 -0.1272 -1.9130
  984MOL0     H32821   5.913   3.507   6.333 -0.1726  0.7932 -2.1158
  984MOL0     H32822   6.279   3.457   6.414  1.2807  0.1575 -3.0541
  984MOL0     H32823   6.489   3.343   6.444 -2.0533 -0.1816  1.4972
  984MOL0     H32824   7.918   3.519   6.614 -1.9512  0.5515  2.6327
  984MOL0     H32825   7.705   3.427   6.606 -0.1832 -0.4583 -0.6276
  984MOL0     H32826   7.364   3.350   6.570 -0.1868  1.6758  0.6056
  984MOL0     H32827   7.176   3.203   6.625  1.9411  1.8685 -0.3896
  984MOL0     H32828   6.946   2.988   6.367 -0.9940  0.4243 -3.4376
  984MOL0     H32829   6.871   3.148   6.336  2.9448  3.7428  1.8572
  984MOL0     H32830   6.818   2.958   6.562  1.5689  1.7626  0.9428
  984MOL0     H32831   6.705   2.966   6.419 -0.7937  1.0697  0.8240
  984MOL0     H32832   6.697   3.208   6.486 -1.5057 -0.6119  0.5551
  984MOL0     H32833   6.775   3.163   6.641 -1.0425  2.9539 -0.4019
  984MOL0     H32834   6.529   3.179   6.663 -0.5506 -0.0643 -2.2223
  984MOL0     H32835   6.502   3.107   6.511 -0.2949 -2.1417  0.8363
  984MOL0     H32836   6.532   2.757   6.750 -1.9582  0.2110 -3.9244
  984MOL0     H32837   7.042   3.212   6.222 -1.2904  2.1540 -1.0870
  984MOL0     H32838   7.155   3.302   6.038 -0.1548  0.5885 -0.5874
  984MOL0     H32839   7.234   3.452   6.088  1.3411 -0.1242  1.9045
  984MOL0     H32840   7.325   3.296   6.076 -1.3570 -2.0330  0.1954
  985MOL0     O32841   8.098   0.941   6.066 -0.4091  0.0574 -0.7070
  985MOL0     C32842   8.016   1.033   6.061  0.2112 -0.1429  0.3440
  985MOL0     O32843   8.040   1.170   6.069 -0.0482  0.6466 -0.0166
  985MOL0     C32844   8.168   1.212   6.098  0.9882  0.2434  0.6072
  985MOL0     C32845   8.261   1.152   6.191  0.2641  0.1245 -0.4999
  985MOL0     C32846   8.390   1.204   6.205 -0.4156  0.0445 -0.0310
  985MOL0     C32847   8.437   1.306   6.124 -0.6769 -0.1276  0.1899
  985MOL0     O32848   8.570   1.342   6.142  0.5508 -0.2434  0.3905
  985MOL0     C32849   8.614   1.465   6.079 -0.0626  0.6126 -0.3010
  985MOL0     C32850   8.768   1.464   6.084 -0.7879  0.1200  0.0027
  985MOL0     C32851   8.831   1.504   6.220  0.0786  0.1963 -0.1064
  985MOL0     C32852   8.980   1.481   6.216  0.2336  0.7774 -0.1312
  985MOL0     C32853   9.050   1.468   6.348  0.5429 -0.7821  0.2220
  985MOL0     C32854   9.204   1.455   6.320  0.6920  0.5170 -0.4236
  985MOL0     C32855   9.288   1.438   6.446 -0.5022 -1.1706  0.4155
  985MOL0     C32856   9.241   1.325   6.538 -0.3469 -0.2579  0.8420
  985MOL0     N32857   9.350   1.277   6.623  0.1218 -0.1816 -0.3913
  985MOL0     C32858   9.392   1.320   6.747 -0.7223  0.7440 -1.3155
  985MOL0     C32859   9.498   1.240   6.780  0.6511 -0.8665  0.1245
  985MOL0     C32860   9.600   1.258   6.892  0.3944 -1.0464 -0.7393
  985MOL0     C32861   9.743   1.280   6.838  0.6754 -0.0449  0.5436
  985MOL0     C32862   9.837   1.338   6.937  0.5816 -0.3630 -1.0814
  985MOL0     C32863   9.971   1.340   6.866  0.5864 -0.3662  0.1230
  985MOL0     O32864   9.985   1.468   6.793  0.9498  0.7414  0.1252
  985MOL0     C32865  10.081   1.478   6.696 -0.6629  0.5840  0.9567
  985MOL0     C32866  10.186   1.389   6.683  1.1727  0.4130 -0.1747
  985MOL0     C32867  10.279   1.406   6.582  0.0716  0.6636  0.2968
  985MOL0     C32868  10.267   1.515   6.488  0.2469 -0.1379 -0.2364
  985MOL0     C32869  10.366   1.528   6.373  0.9109 -0.6005  0.0846
  985MOL0     O32870  10.462   1.425   6.379  0.2278 -0.2424 -0.1604
  985MOL0     C32871  10.550   1.426   6.281  0.3524  0.9190  0.0451
  985MOL0     C32872  10.522   1.397   6.146 -0.4276  0.4266  0.1762
  985MOL0     C32873  10.621   1.423   6.047  0.2676  0.2001 -0.2697
  985MOL0     C32874  10.754   1.464   6.079 -0.0893  0.4348 -0.5064
  985MOL0     O32875  10.854   1.487   5.991  1.0743  0.1929  0.0754
  985MOL0     C32876  10.836   1.440   5.852 -0.1229 -0.2022 -0.5013
  985MOL0     C32877  10.859   1.289   5.850  0.3439  0.2701  0.0033
  985MOL0     C32878  10.831   1.244   5.702 -0.5821  0.0312  0.3433
  985MOL0     C32879  10.803   1.089   5.705  0.0081 -0.0337 -0.1950
  985MOL0     C32880  10.669   1.033   5.746  0.4371  0.0556 -1.0306
  985MOL0     C32881  10.569   1.055   5.631  0.5734 -0.0250  0.7353
  985MOL0     C32882  10.420   1.029   5.664 -0.0064 -0.7182  0.7898
  985MOL0     C32883  10.349   1.145   5.727  0.6408 -0.0897 -1.2074
  985MOL0    Cl32884  10.338   1.285   5.629 -0.0949  0.2605 -0.2711
  985MOL0     C32885  10.779   1.482   6.214  0.5870  0.2665 -0.5143
  985MOL0     C32886  10.675   1.459   6.310  0.2648 -0.9211  0.1276
  985MOL0     O32887  10.338   1.610   6.281 -0.9165 -0.0848 -0.0555
  985MOL0     C32888  10.153   1.599   6.493 -0.4763  0.1683 -0.1563
  985MOL0     C32889  10.067   1.587   6.606  0.2948  1.1202 -0.6804
  985MOL0     N32890   9.506   1.149   6.678  0.8403 -0.1934 -0.6668
  985MOL0     N32891   9.418   1.172   6.581  0.4539  0.1434 -0.7825
  985MOL0     C32892   8.342   1.374   6.046 -0.2399  0.1967 -0.7708
  985MOL0     C32893   8.210   1.323   6.026 -0.3880  0.2470  0.2326
  985MOL0     C32894   7.877   0.989   6.022  0.8184 -0.1730  0.2174
  985MOL0     C32895   7.843   0.857   6.064  0.0337  0.7363  0.3456
  985MOL0     C32896   7.713   0.811   6.051 -0.3750 -0.5848 -0.0746
  985MOL0     C32897   7.620   0.894   5.996 -0.3129 -0.6562 -0.0275
  985MOL0     O32898   7.498   0.860   5.947 -0.0481 -0.1129 -0.3953
  985MOL0     C32899   7.439   0.740   6.002  0.1978 -0.1555  0.0805
  985MOL0     C32900   7.294   0.726   5.972  0.0417  0.0015 -0.5769
  985MOL0     C32901   7.217   0.836   6.048 -0.2154 -1.0376 -0.6374
  985MOL0     C32902   7.119   0.922   5.965 -0.4057  0.5646  0.4907
  985MOL0     C32903   7.022   0.845   5.878  0.0480  0.4796 -0.1793
  985MOL0     C32904   6.939   0.773   5.821  0.7576 -0.5156  0.4710
  985MOL0     C32905   7.650   1.022   5.957 -0.3054 -0.1972 -0.0556
  985MOL0     C32906   7.777   1.075   5.970  0.5621 -0.3090 -0.2085
  985MOL0     C32907   7.811   1.211   5.910  0.4167 -1.3888  0.2935
  985MOL0     H32908   8.219   1.068   6.245  1.6651  0.9312  2.0339
  985MOL0     H32909   8.465   1.150   6.261 -0.1242  0.2874 -0.1842
  985MOL0     H32910   8.573   1.470   5.977  0.3921  1.5734 -0.4527
  985MOL0     H32911   8.579   1.555   6.130 -0.3532  0.9064 -1.0050
  985MOL0     H32912   8.803   1.533   6.007 -0.4371  1.1290  1.0281
  985MOL0     H32913   8.792   1.362   6.053 -1.4670  0.2409 -0.9546
  985MOL0     H32914   8.778   1.446   6.297  0.8623 -1.2084 -0.5997
  985MOL0     H32915   8.817   1.611   6.239 -1.5290 -0.3789  2.4612
  985MOL0     H32916   8.981   1.389   6.158 -3.5715  0.7320 -0.3880
  985MOL0     H32917   9.013   1.560   6.148 -3.6671  2.2171 -0.6309
  985MOL0     H32918   9.033   1.565   6.396  2.0922 -0.7853  0.8300
  985MOL0     H32919   9.002   1.393   6.411 -1.8289 -0.5465 -1.1696
  985MOL0     H32920   9.220   1.365   6.261  1.5686 -0.3979  1.1566
  985MOL0     H32921   9.243   1.539   6.261 -0.4864  0.0694 -1.8986
  985MOL0     H32922   9.287   1.539   6.489 -0.7297  0.2403 -2.6152
  985MOL0     H32923   9.392   1.420   6.417 -0.8469 -0.3870 -1.4775
  985MOL0     H32924   9.158   1.356   6.602  0.6652  0.5822  1.7751
  985MOL0     H32925   9.207   1.245   6.471 -2.4637  0.5042  0.9255
  985MOL0     H32926   9.356   1.394   6.817  0.3285 -0.0722  0.1763
  985MOL0     H32927   9.570   1.341   6.957  1.8665 -1.8657  1.0407
  985MOL0     H32928   9.609   1.174   6.961  1.9415  0.8614  1.5604
  985MOL0     H32929   9.758   1.176   6.810  0.7597  0.4910 -1.5912
  985MOL0     H32930   9.738   1.342   6.748  0.6474 -1.4922 -0.4878
  985MOL0     H32931   9.845   1.274   7.025  0.3297 -0.0972 -0.8617
  985MOL0     H32932   9.801   1.436   6.970 -1.3822 -1.4368  0.2172
  985MOL0     H32933   9.969   1.248   6.807 -3.5353 -0.0585 -0.4806
  985MOL0     H32934  10.055   1.326   6.935 -1.0131 -4.8172  1.5393
  985MOL0     H32935  10.193   1.297   6.738 -0.6004  0.5227  0.3040
  985MOL0     H32936  10.345   1.320   6.571 -1.2579 -0.2429 -1.1058
  985MOL0     H32937  10.415   1.386   6.127 -0.4530  2.1514 -0.9471
  985MOL0     H32938  10.588   1.421   5.944  4.1693 -0.7632 -1.6770
  985MOL0     H32939  10.751   1.471   5.791 -2.7370 -2.4145  1.7389
  985MOL0     H32940  10.925   1.465   5.793  0.4168 -4.3038 -1.7502
  985MOL0     H32941  10.963   1.266   5.872  0.8675  0.8799 -1.7109
  985MOL0     H32942  10.792   1.234   5.918 -0.7025  2.8875  1.2342
  985MOL0     H32943  10.752   1.304   5.656  0.6782  1.1851 -0.3572
  985MOL0     H32944  10.920   1.252   5.639 -1.3684 -2.7696 -1.3063
  985MOL0     H32945  10.891   1.043   5.753  0.6155 -0.7210 -1.8683
  985MOL0     H32946  10.818   1.054   5.602 -1.1000  0.3252 -0.4830
  985MOL0     H32947  10.638   1.084   5.838  0.3719 -0.0865 -0.9725
  985MOL0     H32948  10.688   0.930   5.779 -2.1006  0.6044  2.7715
  985MOL0     H32949  10.578   1.159   5.596 -2.7619  0.2399  0.3465
  985MOL0     H32950  10.604   0.991   5.550 -0.0849  2.1212 -1.3725
  985MOL0     H32951  10.418   0.943   5.732  0.3716 -0.6540  0.8838
  985MOL0     H32952  10.370   1.020   5.567 -4.2979  2.8973  2.3754
  985MOL0     H32953  10.246   1.116   5.745  0.5873 -0.5075 -2.1896
  985MOL0     H32954  10.390   1.155   5.829  2.4827 -2.1791 -1.6641
  985MOL0     H32955  10.877   1.510   6.249 -0.7022  0.4730  3.4266
  985MOL0     H32956  10.698   1.482   6.413  0.7273  3.5377 -0.7622
  985MOL0     H32957  10.127   1.673   6.419 -1.6644 -0.5732 -0.5059
  985MOL0     H32958   9.980   1.652   6.602 -0.0063  0.6908 -1.3129
  985MOL0     H32959   8.367   1.470   6.001  1.6311  0.7162  1.1974
  985MOL0     H32960   8.137   1.363   5.955  0.7483  0.7967 -0.6482
  985MOL0     H32961   7.915   0.787   6.105 -0.4435 -0.1816 -0.3813
  985MOL0     H32962   7.690   0.709   6.082 -0.1843 -0.4806  0.4161
  985MOL0     H32963   7.437   0.747   6.111  1.3112  4.0682 -0.0022
  985MOL0     H32964   7.491   0.651   5.964 -2.0432 -1.7996  0.6244
  985MOL0     H32965   7.246   0.631   5.998 -1.8951  0.3843 -2.4861
  985MOL0     H32966   7.265   0.734   5.867 -1.9078 -1.9611 -0.2632
  985MOL0     H32967   7.278   0.916   6.089  0.3351 -1.8014  0.0581
  985MOL0     H32968   7.164   0.792   6.133  0.9449  0.3027  0.8321
  985MOL0     H32969   7.056   0.986   6.027  1.2617 -0.4544  3.4101
  985MOL0     H32970   7.186   0.990   5.910 -0.8107  1.3127  0.9080
  985MOL0     H32971   6.855   0.712   5.795  1.9181 -0.2317 -5.0727
  985MOL0     H32972   7.573   1.081   5.909 -0.8170  0.0262  1.0181
  985MOL0     H32973   7.903   1.213   5.852  0.0632  1.3881 -0.3316
  985MOL0     H32974   7.735   1.247   5.839  2.0778 -1.9477 -1.8631
  985MOL0     H32975   7.822   1.288   5.988  0.6544 -2.5942  1.4924
  986MOL0     O32976   0.520   2.671   6.620  0.1783  0.1790  0.3258
  986MOL0     C32977   0.449   2.677   6.519 -0.1661 -0.1140 -0.3404
  986MOL0     O32978   0.491   2.692   6.391  0.1117  0.2969 -0.5814
  986MOL0     C32979   0.628   2.708   6.366  0.9173  0.4823 -0.2385
  986MOL0     C32980   0.709   2.796   6.439  0.2472 -0.5301  0.2104
  986MOL0     C32981   0.849   2.792   6.402 -0.2883  0.0028  0.0244
  986MOL0     C32982   0.902   2.704   6.307 -0.3420  0.4136 -0.7851
  986MOL0     O32983   1.030   2.698   6.270 -0.9213 -0.3290 -0.1640
  986MOL0     C32984   1.117   2.808   6.310 -0.0609 -0.6528 -0.6817
  986MOL0     C32985   1.258   2.815   6.252  0.3362 -0.3198 -0.2465
  986MOL0     C32986   1.253   2.837   6.091 -0.2198  0.4730  0.1245
  986MOL0     C32987   1.375   2.902   6.033 -0.6642 -0.8571  0.6653
  986MOL0     C32988   1.372   2.909   5.878 -0.8734 -0.8819  0.6546
  986MOL0     C32989   1.386   3.058   5.820  0.3794 -0.1190 -0.2198
  986MOL0     C32990   1.519   3.114   5.779  0.2415 -0.9178 -0.4812
  986MOL0     C32991   1.495   3.257   5.741  0.4190  0.1765  0.1822
  986MOL0     N32992   1.622   3.321   5.710  0.7181  0.3793  0.5064
  986MOL0     C32993   1.696   3.307   5.594 -1.0523  0.0879  0.2298
  986MOL0     C32994   1.822   3.350   5.626 -0.2137 -1.3077 -1.3578
  986MOL0     C32995   1.937   3.354   5.528  0.3091 -0.0464 -0.6739
  986MOL0     C32996   2.078   3.330   5.583  0.5208  1.1616  1.2646
  986MOL0     C32997   2.102   3.192   5.673  0.6305 -0.5369  0.6415
  986MOL0     C32998   2.252   3.154   5.663  0.7059 -0.2817 -0.1732
  986MOL0     O32999   2.278   3.114   5.529  0.0049  0.4511 -0.0305
  986MOL0     C33000   2.382   3.022   5.520 -0.4079 -0.9127  0.9420
  986MOL0     C33001   2.505   3.091   5.524 -0.4202  0.2876  1.1977
  986MOL0     C33002   2.623   3.010   5.523  0.6850  0.6603 -1.2296
  986MOL0     C33003   2.620   2.870   5.503  0.1287 -1.0324  0.4553
  986MOL0     C33004   2.742   2.795   5.503 -1.1009 -0.6002  0.8960
  986MOL0     O33005   2.742   2.693   5.410  0.2295  0.2561  0.2056
  986MOL0     C33006   2.839   2.595   5.400 -0.4381 -0.1870  0.0515
  986MOL0     C33007   2.803   2.484   5.326 -0.4788  0.2901  0.7127
  986MOL0     C33008   2.881   2.367   5.337 -0.2592 -0.1468  0.5182
  986MOL0     C33009   3.008   2.370   5.385 -0.7020  0.3915  0.5405
  986MOL0     O33010   3.088   2.259   5.360  0.1699  0.4094  0.0356
  986MOL0     C33011   3.191   2.236   5.454 -0.2141  0.0090  0.2819
  986MOL0     C33012   3.137   2.184   5.585 -0.4065  0.5540 -0.1937
  986MOL0     C33013   3.238   2.180   5.695 -0.3472  0.1537 -0.4775
  986MOL0     C33014   3.236   2.304   5.793 -0.1890  0.2746 -1.1344
  986MOL0     C33015   3.329   2.294   5.916  0.5004  0.9334 -0.2861
  986MOL0     C33016   3.475   2.249   5.897  0.0074 -0.4957 -0.0566
  986MOL0     C33017   3.557   2.352   5.819  0.1042  0.1159  0.4250
  986MOL0     C33018   3.709   2.333   5.850  0.0231  0.2964 -0.0466
  986MOL0    Cl33019   3.757   2.184   5.775  0.1294  0.2883  0.2890
  986MOL0     C33020   3.053   2.485   5.445 -0.1091  0.2041 -0.0768
  986MOL0     C33021   2.966   2.592   5.461  1.1292 -0.6557  0.1027
  986MOL0     O33022   2.837   2.827   5.580  0.6529 -0.1553  0.5422
  986MOL0     C33023   2.499   2.808   5.497 -0.6506 -0.4177 -0.5481
  986MOL0     C33024   2.378   2.881   5.506  0.6088 -0.2277 -0.3050
  986MOL0     N33025   1.813   3.410   5.758  0.1775  0.4210  0.3727
  986MOL0     N33026   1.696   3.389   5.802 -0.2477  0.2022 -0.4306
  986MOL0     C33027   0.815   2.626   6.242 -0.0918  0.1571 -0.3303
  986MOL0     C33028   0.676   2.632   6.259 -0.6647  0.5335  0.1199
  986MOL0     C33029   0.303   2.659   6.554  0.3958  0.1041 -0.6588
  986MOL0     C33030   0.272   2.624   6.689  0.1569  0.4216  0.1436
  986MOL0     C33031   0.140   2.611   6.731 -0.1897 -0.5388  0.1122
  986MOL0     C33032   0.036   2.604   6.640  0.0172  0.3252  1.0536
  986MOL0     O33033  -0.082   2.595   6.695 -0.0011  0.0450  0.5508
  986MOL0     C33034  -0.202   2.597   6.623  0.0457 -0.7454  0.0503
  986MOL0     C33035  -0.296   2.521   6.719 -0.0274  0.4707  1.1788
  986MOL0     C33036  -0.441   2.509   6.661 -0.3289 -0.3550 -0.4567
  986MOL0     C33037  -0.540   2.453   6.764 -0.6320  0.7654  0.5087
  986MOL0     C33038  -0.544   2.512   6.903 -0.0620  0.2332 -0.7363
  986MOL0     C33039  -0.526   2.560   7.013  0.9754 -0.1625  0.3486
  986MOL0     C33040   0.062   2.632   6.504 -0.2570 -1.1631  0.2158
  986MOL0     C33041   0.195   2.662   6.457  0.1328 -0.8161  0.6492
  986MOL0     C33042   0.210   2.707   6.318 -1.0578 -0.2726 -0.3102
  986MOL0     H33043   0.660   2.861   6.510 -1.7108 -0.3942 -1.1997
  986MOL0     H33044   0.909   2.869   6.448 -0.3292  1.5454 -2.3292
  986MOL0     H33045   1.081   2.909   6.287  6.4105  2.4411  0.3259
  986MOL0     H33046   1.144   2.805   6.416  4.5926  0.4493 -1.5967
  986MOL0     H33047   1.317   2.724   6.268  0.2215 -0.2973  0.3213
  986MOL0     H33048   1.317   2.894   6.300 -1.4253 -0.1465  1.7986
  986MOL0     H33049   1.167   2.902   6.072 -1.1166 -0.1017  1.9229
  986MOL0     H33050   1.231   2.740   6.045 -1.2687  1.2582 -1.0954
  986MOL0     H33051   1.406   2.998   6.075 -0.8945 -1.6257  2.7330
  986MOL0     H33052   1.455   2.830   6.054 -0.9476 -1.2546  0.3917
  986MOL0     H33053   1.445   2.844   5.828 -0.0334 -1.1232  2.1453
  986MOL0     H33054   1.277   2.869   5.841 -1.5922  1.0346  0.2748
  986MOL0     H33055   1.327   3.067   5.728  1.0554  2.4242 -0.5044
  986MOL0     H33056   1.321   3.125   5.879 -1.0470  0.1125 -1.9378
  986MOL0     H33057   1.568   3.058   5.699 -1.1328  0.9871 -2.7628
  986MOL0     H33058   1.580   3.113   5.870 -2.3655 -1.5819  1.3908
  986MOL0     H33059   1.438   3.256   5.648  0.5029 -4.6031 -0.1043
  986MOL0     H33060   1.449   3.325   5.813  1.8367  3.6152 -1.8905
  986MOL0     H33061   1.664   3.263   5.500  1.1337  0.5954 -0.8125
  986MOL0     H33062   1.913   3.289   5.443 -1.3295  1.3912 -1.3733
  986MOL0     H33063   1.937   3.454   5.483 -2.3809 -0.1811 -1.1440
  986MOL0     H33064   2.143   3.333   5.495 -1.8792  0.3358 -0.6116
  986MOL0     H33065   2.111   3.415   5.644  4.1911  0.3617  0.6770
  986MOL0     H33066   2.044   3.113   5.625 -1.3094  1.1637  0.0250
  986MOL0     H33067   2.072   3.212   5.776 -0.8694 -1.0073  0.3111
  986MOL0     H33068   2.266   3.068   5.729  0.0947  0.2641  0.7078
  986MOL0     H33069   2.313   3.236   5.702 -1.6766  0.2368  2.9811
  986MOL0     H33070   2.526   3.195   5.548  2.2622 -0.4262  2.3157
  986MOL0     H33071   2.717   3.061   5.540  1.4019 -1.4750  2.2650
  986MOL0     H33072   2.709   2.477   5.273 -0.8882  2.7843  0.9882
  986MOL0     H33073   2.843   2.279   5.287 -2.0717  1.0922 -0.3955
  986MOL0     H33074   3.263   2.167   5.409 -0.8000  1.6735 -3.5678
  986MOL0     H33075   3.249   2.326   5.475  0.8286 -0.9396  1.7417
  986MOL0     H33076   3.046   2.238   5.614 -1.1519  0.9464 -3.0060
  986MOL0     H33077   3.096   2.083   5.572 -2.0153  1.0773  0.5538
  986MOL0     H33078   3.204   2.098   5.759 -1.7038  0.5643 -0.6436
  986MOL0     H33079   3.333   2.156   5.646 -1.9232 -1.3430 -3.0089
  986MOL0     H33080   3.133   2.316   5.830  0.6306 -0.1325  1.4293
  986MOL0     H33081   3.252   2.394   5.733  1.8782 -0.1628 -1.2832
  986MOL0     H33082   3.280   2.225   5.986  0.2287  0.6148 -0.7812
  986MOL0     H33083   3.324   2.386   5.973 -2.2431  0.9023 -0.3352
  986MOL0     H33084   3.515   2.250   5.999  1.6013 -0.9234 -0.6477
  986MOL0     H33085   3.480   2.144   5.870 -0.5878 -0.3023 -0.9683
  986MOL0     H33086   3.524   2.453   5.846 -0.6352  0.2327 -0.8411
  986MOL0     H33087   3.533   2.336   5.714 -1.4629 -3.2219  1.1878
  986MOL0     H33088   3.759   2.424   5.815 -0.7314  1.5214  1.8775
  986MOL0     H33089   3.723   2.323   5.958  0.8685  1.3322 -0.0413
  986MOL0     H33090   3.147   2.507   5.493  0.3049 -2.6316  0.5656
  986MOL0     H33091   3.003   2.684   5.504  2.3359  0.4146 -2.9625
  986MOL0     H33092   2.502   2.700   5.491 -2.1565 -0.7198  2.4280
  986MOL0     H33093   2.280   2.843   5.481 -0.4038  1.1342  1.3687
  986MOL0     H33094   0.865   2.556   6.176  2.0553  1.4517 -0.2002
  986MOL0     H33095   0.609   2.573   6.197 -0.3127  0.0641  0.1811
  986MOL0     H33096   0.342   2.620   6.771 -0.1377 -1.1428  0.3331
  986MOL0     H33097   0.119   2.582   6.833 -2.8424  1.4597  0.2229
  986MOL0     H33098  -0.199   2.537   6.532  1.2383 -0.4055 -0.1421
  986MOL0     H33099  -0.245   2.696   6.606 -1.4270 -0.8766  2.4699
  986MOL0     H33100  -0.294   2.569   6.817 -0.6099  1.3113  0.7843
  986MOL0     H33101  -0.265   2.416   6.719 -0.0038  0.4541 -0.1673
  986MOL0     H33102  -0.441   2.447   6.571  0.7440 -0.9012 -0.0923
  986MOL0     H33103  -0.467   2.612   6.633  0.4250  0.0079  0.1556
  986MOL0     H33104  -0.639   2.446   6.720 -0.6325  0.7053  0.5196
  986MOL0     H33105  -0.519   2.346   6.772  0.1531  0.9192  0.6327
  986MOL0     H33106  -0.516   2.600   7.112  1.4614  0.9625 -0.1374
  986MOL0     H33107  -0.015   2.656   6.432 -1.3020 -0.3561  1.5554
  986MOL0     H33108   0.257   2.626   6.260  2.9147  0.2323  1.8393
  986MOL0     H33109   0.115   2.741   6.278 -1.1406  1.7654  1.4502
  986MOL0     H33110   0.268   2.799   6.311  1.9640 -1.8201  1.6728
  987MOL0     O33111   2.625  10.717   0.890  0.1620 -0.6244  0.2610
  987MOL0     C33112   2.570  10.795   0.969  1.1464 -0.2616  0.3791
  987MOL0     O33113   2.635  10.897   1.026  0.0787  0.0107 -0.0116
  987MOL0     C33114   2.772  10.922   1.017  0.2317 -0.4212  0.0953
  987MOL0     C33115   2.815  11.001   1.123 -0.1732 -0.3503 -0.6474
  987MOL0     C33116   2.949  11.031   1.140 -0.6649 -0.3504  1.7215
  987MOL0     C33117   3.045  10.988   1.038 -0.9095 -0.1453 -0.1209
  987MOL0     O33118   3.174  11.024   1.020 -0.4076 -0.3620 -0.1836
  987MOL0     C33119   3.253  11.050   1.140 -0.4290  0.0875 -0.6023
  987MOL0     C33120   3.401  11.011   1.121 -0.7957 -0.2948 -1.0814
  987MOL0     C33121   3.474  11.115   1.036  0.0162  0.3536  0.4290
  987MOL0     C33122   3.623  11.152   1.080 -0.2554 -0.0416 -0.4461
  987MOL0     C33123   3.671  11.256   0.972  0.0941 -0.1685  0.1409
  987MOL0     C33124   3.793  11.333   1.019 -0.1477  0.5049  0.9607
  987MOL0     C33125   3.915  11.254   0.982 -0.4825 -0.3031 -0.3306
  987MOL0     C33126   4.042  11.336   0.998  0.1761 -0.8365 -0.0563
  987MOL0     N33127   4.152  11.295   0.905  0.0979  0.1519  0.1975
  987MOL0     C33128   4.166  11.175   0.852  0.1243  0.3491 -0.7863
  987MOL0     C33129   4.260  11.193   0.757  0.8745 -0.5157 -0.0751
  987MOL0     C33130   4.307  11.093   0.660 -0.1667 -0.1094  0.0075
  987MOL0     C33131   4.413  11.005   0.731 -0.0564 -0.3676  0.0746
  987MOL0     C33132   4.454  10.874   0.666  0.4228  0.2001  0.2423
  987MOL0     C33133   4.598  10.827   0.713  0.4611 -0.4999 -0.7152
  987MOL0     O33134   4.603  10.832   0.860  0.5036  0.0412 -0.6738
  987MOL0     C33135   4.736  10.850   0.914  0.5464 -0.1328 -0.0488
  987MOL0     C33136   4.760  10.905   1.031  0.6471  0.0231  0.7331
  987MOL0     C33137   4.890  10.919   1.083  0.3776 -0.0443 -0.4181
  987MOL0     C33138   5.003  10.878   1.012  0.3586  0.2598  1.0949
  987MOL0     C33139   5.138  10.878   1.067 -0.3889 -0.0187 -0.6467
  987MOL0     O33140   5.246  10.827   1.002 -0.5633  0.2148  0.2357
  987MOL0     C33141   5.370  10.830   1.058  0.8793 -0.2868 -0.6190
  987MOL0     C33142   5.477  10.885   0.990  0.5012 -1.1866  0.1331
  987MOL0     C33143   5.613  10.886   1.044 -0.1404 -0.2752  1.1016
  987MOL0     C33144   5.641  10.835   1.166  0.2004 -0.0942  0.8209
  987MOL0     O33145   5.766  10.820   1.222  0.4124  0.5149  0.0860
  987MOL0     C33146   5.883  10.850   1.140 -0.0357 -0.5073  0.4810
  987MOL0     C33147   6.010  10.856   1.234  0.0010 -1.1052  0.0724
  987MOL0     C33148   5.990  10.947   1.354 -0.2330  0.5246 -0.2596
  987MOL0     C33149   5.944  11.085   1.308 -0.0561 -0.6155  0.6670
  987MOL0     C33150   5.971  11.200   1.404 -0.5950  1.0760 -0.0144
  987MOL0     C33151   6.123  11.236   1.412  0.6798  0.4074 -0.4205
  987MOL0     C33152   6.216  11.138   1.483  0.1383 -0.6177  0.0422
  987MOL0     C33153   6.341  11.213   1.558  0.4778  0.4766 -0.2829
  987MOL0    Cl33154   6.452  11.276   1.440 -0.2682 -0.1776 -0.3131
  987MOL0     C33155   5.531  10.773   1.227 -0.0349 -0.6237  0.2585
  987MOL0     C33156   5.401  10.773   1.180 -0.1496 -0.3027  0.5254
  987MOL0     O33157   5.137  10.932   1.181 -0.2975  0.0137  0.7545
  987MOL0     C33158   4.977  10.811   0.894 -0.1237  1.1815 -0.7684
  987MOL0     C33159   4.841  10.793   0.841 -0.2267 -0.7006 -0.3791
  987MOL0     N33160   4.301  11.323   0.770 -0.8608  0.0746  0.0003
  987MOL0     N33161   4.234  11.386   0.850  0.9603  0.4759  0.9867
  987MOL0     C33162   2.997  10.922   0.924 -0.4327 -0.1765  0.1911
  987MOL0     C33163   2.863  10.889   0.909  0.0841 -0.1706  0.3071
  987MOL0     C33164   2.430  10.787   0.996 -0.2248 -0.1139  0.7066
  987MOL0     C33165   2.346  10.724   0.902  0.8975 -0.3135 -0.1219
  987MOL0     C33166   2.214  10.705   0.926 -0.1259 -0.0265 -0.6664
  987MOL0     C33167   2.152  10.753   1.040 -0.2058 -0.1927 -0.6189
  987MOL0     O33168   2.009  10.730   1.047 -0.4234 -0.0955 -0.0389
  987MOL0     C33169   1.930  10.684   0.935 -0.5291  0.1845 -0.0709
  987MOL0     C33170   1.781  10.711   0.960 -0.5779 -0.5057  0.4235
  987MOL0     C33171   1.746  10.862   0.956  0.2820  0.7891  0.2680
  987MOL0     C33172   1.626  10.886   1.044 -0.6383  0.0897  0.2334
  987MOL0     C33173   1.511  10.795   1.027  0.4908  0.8194  0.0983
  987MOL0     C33174   1.422  10.717   1.018 -0.6144 -0.8360 -0.6337
  987MOL0     C33175   2.225  10.820   1.130 -0.2544  0.2278  0.2575
  987MOL0     C33176   2.366  10.833   1.116 -0.4370  0.0720 -0.2958
  987MOL0     C33177   2.445  10.881   1.233  0.6944  0.7513  0.3159
  987MOL0     H33178   2.750  11.026   1.207  1.4052 -0.9326  0.7940
  987MOL0     H33179   2.985  11.099   1.217  3.1578 -0.2837  0.1150
  987MOL0     H33180   3.253  11.156   1.167 -1.2283  0.0537 -0.4528
  987MOL0     H33181   3.209  11.010   1.232  0.9269 -2.3560 -0.9329
  987MOL0     H33182   3.409  10.914   1.071  0.9389  0.1494 -1.7508
  987MOL0     H33183   3.448  11.003   1.220  1.9806 -2.4763 -2.4441
  987MOL0     H33184   3.426  11.213   1.026  3.3055  2.1078  0.4299
  987MOL0     H33185   3.466  11.076   0.934 -0.2796  0.9474  0.2168
  987MOL0     H33186   3.627  11.190   1.183  1.1337  1.3586 -0.9705
  987MOL0     H33187   3.697  11.072   1.084  1.0155  1.1145  0.0250
  987MOL0     H33188   3.693  11.208   0.876 -3.0230  0.6051 -1.0750
  987MOL0     H33189   3.588  11.325   0.953  0.5906  0.9162  1.6974
  987MOL0     H33190   3.788  11.427   0.963  1.8672 -1.0366 -2.1104
  987MOL0     H33191   3.790  11.350   1.127  0.0609 -1.5700  1.3399
  987MOL0     H33192   3.899  11.220   0.880  0.9703  1.1330 -1.0852
  987MOL0     H33193   3.925  11.169   1.049 -0.9105  0.7896  1.1802
  987MOL0     H33194   4.026  11.443   0.986  0.6906 -0.8961 -1.4081
  987MOL0     H33195   4.076  11.301   1.096 -1.2753 -2.7966 -0.1786
  987MOL0     H33196   4.103  11.089   0.870  0.7088 -0.0648 -0.7161
  987MOL0     H33197   4.220  11.039   0.620 -0.4674 -2.0068  2.9094
  987MOL0     H33198   4.351  11.158   0.584 -0.3898 -0.0233 -0.0490
  987MOL0     H33199   4.502  11.065   0.752  0.8609 -0.3655 -3.2431
  987MOL0     H33200   4.374  10.986   0.831  0.8170 -0.7216  0.3587
  987MOL0     H33201   4.468  10.887   0.559  0.6403  2.4487  0.4906
  987MOL0     H33202   4.384  10.797   0.700 -0.8861  0.6267 -1.3803
  987MOL0     H33203   4.671  10.887   0.658 -0.7339 -0.3081 -2.1575
  987MOL0     H33204   4.621  10.727   0.675  3.3509  0.2080 -1.0290
  987MOL0     H33205   4.675  10.941   1.087 -2.8365 -3.7343 -1.5773
  987MOL0     H33206   4.889  10.972   1.178 -1.6311  2.7922 -1.8885
  987MOL0     H33207   5.450  10.928   0.894 -3.1505 -3.4099 -0.0294
  987MOL0     H33208   5.678  10.939   0.976 -2.4773  0.0384 -1.0505
  987MOL0     H33209   5.904  10.772   1.066 -0.3177  0.0380 -0.1836
  987MOL0     H33210   5.868  10.947   1.092 -2.7457 -0.4043  1.3485
  987MOL0     H33211   6.029  10.754   1.269 -1.0479 -0.5792  2.4335
  987MOL0     H33212   6.090  10.890   1.167 -0.8148  0.6628 -0.0701
  987MOL0     H33213   5.908  10.914   1.418 -1.4168  2.2682 -0.7922
  987MOL0     H33214   6.086  10.945   1.407 -1.0320 -0.9993  1.2329
  987MOL0     H33215   5.835  11.093   1.300 -0.0841  2.5002  2.3344
  987MOL0     H33216   5.996  11.108   1.215 -1.9066  0.7402 -0.0994
  987MOL0     H33217   5.929  11.176   1.501 -3.9583 -1.6937 -1.9401
  987MOL0     H33218   5.923  11.296   1.380  2.8491  2.5098 -1.9572
  987MOL0     H33219   6.149  11.261   1.308 -0.6597  1.4857 -0.5273
  987MOL0     H33220   6.143  11.333   1.459  1.0301 -0.0069  0.3083
  987MOL0     H33221   6.254  11.061   1.415 -0.7289 -0.1202 -1.0369
  987MOL0     H33222   6.157  11.092   1.563 -1.3027  0.8200 -0.1309
  987MOL0     H33223   6.298  11.288   1.625 -0.5446 -2.4525  2.6375
  987MOL0     H33224   6.387  11.138   1.624 -0.1998  1.0601  0.8842
  987MOL0     H33225   5.556  10.728   1.322  0.4035 -1.9405 -0.4675
  987MOL0     H33226   5.328  10.731   1.248  1.1198 -3.6318 -0.0208
  987MOL0     H33227   5.063  10.760   0.850 -0.7094  0.0503 -0.6501
  987MOL0     H33228   4.833  10.735   0.749  1.9534 -0.1412 -0.9856
  987MOL0     H33229   3.072  10.909   0.846  1.8318  1.5326  1.9287
  987MOL0     H33230   2.824  10.827   0.829 -0.4437  1.3566 -0.6555
  987MOL0     H33231   2.375  10.698   0.800 -0.7609 -0.7517 -0.5068
  987MOL0     H33232   2.162  10.643   0.854 -0.8061 -1.0192  0.6283
  987MOL0     H33233   1.948  10.577   0.916  1.6345  0.3248  0.8895
  987MOL0     H33234   1.961  10.738   0.845 -1.6389  1.9218  0.5409
  987MOL0     H33235   1.768  10.685   1.066  1.1315  0.4326  0.9023
  987MOL0     H33236   1.726  10.669   0.875 -0.4004  2.5420 -1.3510
  987MOL0     H33237   1.731  10.889   0.851 -4.2047 -1.8037 -0.0423
  987MOL0     H33238   1.834  10.918   0.987  0.6883  1.5994 -2.1454
  987MOL0     H33239   1.657  10.880   1.149 -0.7510  0.8385  0.3129
  987MOL0     H33240   1.604  10.992   1.025  3.8504  1.0502 -0.5905
  987MOL0     H33241   1.346  10.649   0.986 -0.0665 -1.9638  0.3850
  987MOL0     H33242   2.162  10.844   1.215 -1.6426 -2.3467  0.0681
  987MOL0     H33243   2.368  10.886   1.311 -2.1963  0.5088 -2.2800
  987MOL0     H33244   2.522  10.817   1.277 -0.6504  1.0019  3.2644
  987MOL0     H33245   2.485  10.979   1.207 -1.2087  1.2065 -1.1303
  988MOL0     O33246  10.625   6.808   0.391 -0.0577 -0.1191 -0.4183
  988MOL0     C33247  10.530   6.846   0.460 -0.4679  0.1164 -0.1532
  988MOL0     O33248  10.532   6.867   0.597  0.8656  0.0055  0.4298
  988MOL0     C33249  10.648   6.842   0.656 -1.1452 -0.6011  0.1580
  988MOL0     C33250  10.739   6.943   0.666 -0.3702 -0.3712  0.8247
  988MOL0     C33251  10.871   6.914   0.711  0.7149 -0.3778 -0.0994
  988MOL0     C33252  10.898   6.794   0.770  0.3240 -0.3356 -0.3843
  988MOL0     O33253  11.017   6.786   0.834 -0.0212 -0.6923 -0.1923
  988MOL0     C33254  11.010   6.746   0.969  0.5388 -0.1026 -0.5356
  988MOL0     C33255  11.137   6.789   1.044  0.0835  0.0207 -0.3833
  988MOL0     C33256  11.171   6.686   1.148 -0.1787 -0.3197 -0.9840
  988MOL0     C33257  11.295   6.720   1.224  0.0222 -0.1423 -0.1892
  988MOL0     C33258  11.335   6.628   1.346  0.8143  0.3936 -0.0657
  988MOL0     C33259  11.359   6.482   1.307 -0.0253 -0.0794 -0.1854
  988MOL0     C33260  11.446   6.464   1.181 -0.3692  0.5444  0.6055
  988MOL0     C33261  11.578   6.537   1.190  0.1488 -0.1930  0.1207
  988MOL0     N33262  11.678   6.462   1.261 -0.2124  0.0473 -0.4613
  988MOL0     C33263  11.750   6.364   1.205  0.8805 -0.4629 -0.6728
  988MOL0     C33264  11.820   6.314   1.309 -0.4275  0.4847 -0.6093
  988MOL0     C33265  11.910   6.191   1.297  0.9533 -0.2466  0.1810
  988MOL0     C33266  12.062   6.235   1.302  0.6796 -0.2554 -0.2828
  988MOL0     C33267  12.156   6.126   1.331 -0.5160  0.8494 -0.3278
  988MOL0     C33268  12.298   6.182   1.339 -0.3285 -0.7037  0.2308
  988MOL0     O33269  12.395   6.083   1.327  0.0954 -0.1649  0.7011
  988MOL0     C33270  12.526   6.112   1.332  0.2105 -0.6233 -0.1756
  988MOL0     C33271  12.584   6.237   1.324  1.2232 -0.4759 -0.6897
  988MOL0     C33272  12.725   6.253   1.335 -0.0685 -0.5244  0.3483
  988MOL0     C33273  12.810   6.146   1.352 -0.1691 -0.3292 -0.0975
  988MOL0     C33274  12.957   6.170   1.360 -0.1833 -0.1416  0.0122
  988MOL0     O33275  13.002   6.296   1.367  0.6612  0.8082 -0.0647
  988MOL0     C33276  13.139   6.305   1.382 -0.2065  0.2629  0.1840
  988MOL0     C33277  13.205   6.403   1.305 -0.1237 -0.6437  0.5509
  988MOL0     C33278  13.337   6.429   1.328  0.2585 -0.8138 -0.2614
  988MOL0     C33279  13.416   6.345   1.413 -0.6846 -0.0733  0.0375
  988MOL0     O33280  13.554   6.361   1.425  0.6698  0.0238 -0.5346
  988MOL0     C33281  13.589   6.396   1.557 -0.2089 -0.3631 -0.4617
  988MOL0     C33282  13.725   6.468   1.562  0.8256 -0.4978  0.7623
  988MOL0     C33283  13.796   6.448   1.695 -0.7282 -0.6703  0.8070
  988MOL0     C33284  13.948   6.481   1.659  0.6209 -0.8164  0.2141
  988MOL0     C33285  14.034   6.464   1.785 -0.9527  0.1471 -0.3288
  988MOL0     C33286  14.173   6.510   1.743  0.6674 -0.4869 -0.3515
  988MOL0     C33287  14.266   6.521   1.865 -1.3208 -0.1227 -0.9313
  988MOL0     C33288  14.402   6.566   1.820  0.5491  0.0909  0.6957
  988MOL0    Cl33289  14.410   6.741   1.793  0.0042  0.4668  0.2122
  988MOL0     C33290  13.353   6.242   1.486 -0.2185  0.7899 -0.0352
  988MOL0     C33291  13.211   6.226   1.469  0.1444  0.7999  0.9724
  988MOL0     O33292  13.028   6.071   1.365  0.3996 -0.1942 -0.4035
  988MOL0     C33293  12.755   6.018   1.360  0.6319  0.6014  0.0786
  988MOL0     C33294  12.616   6.004   1.354 -0.4427  0.5370 -0.2072
  988MOL0     N33295  11.802   6.385   1.419  0.1484 -0.3996 -0.8096
  988MOL0     N33296  11.714   6.466   1.390  0.9108 -0.1040  0.4161
  988MOL0     C33297  10.797   6.692   0.768 -0.4029 -0.5044 -1.1546
  988MOL0     C33298  10.674   6.720   0.718  0.2328 -0.0348 -0.7325
  988MOL0     C33299  10.397   6.859   0.397  0.2063  1.0717  0.1377
  988MOL0     C33300  10.360   6.760   0.299  0.2414 -0.6688 -0.0459
  988MOL0     C33301  10.239   6.774   0.224  0.4537  0.0085 -0.4298
  988MOL0     C33302  10.151   6.877   0.257  0.1474  0.4031 -0.9449
  988MOL0     O33303  10.035   6.889   0.197 -1.0209  0.1467 -0.5584
  988MOL0     C33304   9.989   6.779   0.114  0.1635 -0.7612  0.0490
  988MOL0     C33305   9.841   6.800   0.090 -0.7396  0.3813 -0.0854
  988MOL0     C33306   9.758   6.760   0.212  0.3964 -1.1203 -0.2248
  988MOL0     C33307   9.603   6.762   0.192  0.1696  0.4125  0.6308
  988MOL0     C33308   9.561   6.896   0.146  0.2362 -0.0957 -0.4438
  988MOL0     C33309   9.512   7.001   0.100  0.2978  0.0686 -0.7429
  988MOL0     C33310  10.193   6.974   0.348 -0.2592  0.2889  0.4248
  988MOL0     C33311  10.316   6.967   0.416 -0.0046  0.1098  0.4382
  988MOL0     C33312  10.365   7.092   0.495  0.0441  0.0661 -0.0932
  988MOL0     H33313  10.737   7.042   0.622  0.4475 -1.3930 -1.6957
  988MOL0     H33314  10.942   6.995   0.711 -0.4381  0.6799 -1.1296
  988MOL0     H33315  10.927   6.799   1.014  0.5701 -0.7236  0.2812
  988MOL0     H33316  10.998   6.637   0.973  2.8569 -0.4842 -1.8254
  988MOL0     H33317  11.124   6.887   1.092 -0.4745  0.6590 -1.7698
  988MOL0     H33318  11.219   6.784   0.971 -1.0550  0.0561 -1.7056
  988MOL0     H33319  11.167   6.590   1.096 -1.5717 -0.8448  0.0158
  988MOL0     H33320  11.093   6.663   1.222  1.0662 -6.5385 -1.0652
  988MOL0     H33321  11.381   6.736   1.159 -1.6166  2.6768 -1.8561
  988MOL0     H33322  11.285   6.821   1.264  0.0261  0.3114 -1.3315
  988MOL0     H33323  11.419   6.682   1.392 -0.0072  0.0200  1.9855
  988MOL0     H33324  11.258   6.621   1.424 -1.0943  0.1919 -1.8949
  988MOL0     H33325  11.403   6.435   1.395 -1.6658 -0.2167  0.5922
  988MOL0     H33326  11.267   6.426   1.286 -0.8721  1.4200 -0.6495
  988MOL0     H33327  11.391   6.497   1.092  2.3487  2.1449 -0.6077
  988MOL0     H33328  11.480   6.360   1.175  1.0789  1.0606 -1.5132
  988MOL0     H33329  11.608   6.550   1.086  1.2624  0.6208  0.5225
  988MOL0     H33330  11.566   6.636   1.235  0.2908 -0.2682  0.3221
  988MOL0     H33331  11.743   6.336   1.101  1.5286 -1.7613 -0.3861
  988MOL0     H33332  11.884   6.122   1.378 -0.0191  0.0225  0.1077
  988MOL0     H33333  11.892   6.127   1.211 -1.5747 -1.8515  1.7738
  988MOL0     H33334  12.081   6.279   1.204 -1.9910  1.0657 -0.3013
  988MOL0     H33335  12.074   6.317   1.374  1.1151  0.8335 -1.5630
  988MOL0     H33336  12.157   6.046   1.257 -0.4344  0.3168  0.2399
  988MOL0     H33337  12.129   6.082   1.427  0.2770 -3.6920 -1.9800
  988MOL0     H33338  12.313   6.239   1.432 -0.2099 -1.6772  0.8264
  988MOL0     H33339  12.295   6.253   1.257 -4.0758 -0.0392  0.7916
  988MOL0     H33340  12.518   6.322   1.310 -1.4870 -2.3653 -0.2308
  988MOL0     H33341  12.764   6.355   1.335  0.9211 -0.8237 -2.0700
  988MOL0     H33342  13.149   6.469   1.238 -1.4017  0.2290  2.3964
  988MOL0     H33343  13.374   6.506   1.261 -1.9761  1.5067  0.9914
  988MOL0     H33344  13.519   6.459   1.612  2.2265  1.3738  0.8424
  988MOL0     H33345  13.593   6.303   1.615  0.4872 -0.2319 -0.2924
  988MOL0     H33346  13.780   6.432   1.474 -1.4056 -0.3138 -0.7989
  988MOL0     H33347  13.713   6.575   1.545 -3.2288 -0.8499  0.3207
  988MOL0     H33348  13.754   6.517   1.768 -2.4602 -1.8529  0.9894
  988MOL0     H33349  13.782   6.347   1.736 -2.2909 -1.6072 -1.7658
  988MOL0     H33350  13.968   6.581   1.620  1.4915 -1.2464 -0.4745
  988MOL0     H33351  13.978   6.408   1.583  0.5454 -1.4918  0.8162
  988MOL0     H33352  14.025   6.358   1.812  0.1433 -0.3504 -1.7921
  988MOL0     H33353  14.004   6.523   1.872 -0.6055  1.6118 -1.1635
  988MOL0     H33354  14.216   6.436   1.675  1.0629  0.1259 -0.7788
  988MOL0     H33355  14.176   6.598   1.677  1.0556  0.2208  0.5985
  988MOL0     H33356  14.304   6.432   1.916  3.7259  2.0880 -0.1674
  988MOL0     H33357  14.232   6.592   1.941  1.9531  0.8644 -0.2141
  988MOL0     H33358  14.484   6.530   1.884  2.6722  0.4753 -1.6579
  988MOL0     H33359  14.428   6.513   1.728  1.8953  1.2905  0.3432
  988MOL0     H33360  13.412   6.176   1.549 -3.1126 -1.5364  0.4666
  988MOL0     H33361  13.167   6.144   1.526  0.9875 -0.1523  0.2877
  988MOL0     H33362  12.808   5.925   1.374 -0.4434  0.2789  2.4598
  988MOL0     H33363  12.562   5.911   1.365 -1.0676  0.8114 -0.8491
  988MOL0     H33364  10.822   6.594   0.808  0.9433  0.5948  0.8140
  988MOL0     H33365  10.599   6.643   0.704 -0.8902  0.7012  0.9504
  988MOL0     H33366  10.440   6.689   0.281 -1.8904 -3.4454  0.8416
  988MOL0     H33367  10.220   6.695   0.152 -3.6648  1.4805 -1.2380
  988MOL0     H33368  10.013   6.687   0.168 -0.2010 -0.6526  0.4014
  988MOL0     H33369  10.038   6.790   0.017  0.5215  2.2177  0.4872
  988MOL0     H33370   9.826   6.717   0.020  1.3579  2.4873 -3.3142
  988MOL0     H33371   9.822   6.898   0.047 -3.9815  0.3689  1.0736
  988MOL0     H33372   9.780   6.828   0.295 -0.3072 -0.3226 -0.6757
  988MOL0     H33373   9.780   6.656   0.235 -2.0041 -2.0049 -1.5748
  988MOL0     H33374   9.571   6.683   0.123 -0.8404 -0.8731  2.4549
  988MOL0     H33375   9.545   6.734   0.281 -1.7812  2.7913  0.2205
  988MOL0     H33376   9.455   7.085   0.068 -0.0724 -0.0702 -0.4484
  988MOL0     H33377  10.120   7.051   0.369 -2.3953 -1.9638  1.7867
  988MOL0     H33378  10.303   7.181   0.477  0.9067  0.4781 -1.1560
  988MOL0     H33379  10.364   7.067   0.601  0.0428  2.0861  0.4179
  988MOL0     H33380  10.468   7.121   0.473  0.4902  0.2696  2.0364
  989MOL0     O33381   6.033   1.615   2.129  0.2774 -0.0924  0.0004
  989MOL0     C33382   6.000   1.517   2.202 -0.5188 -0.2606  0.3138
  989MOL0     O33383   6.087   1.415   2.240  0.2314  0.0972  0.2279
  989MOL0     C33384   6.222   1.439   2.236 -1.2873  0.4946 -0.1727
  989MOL0     C33385   6.287   1.568   2.264 -0.2218  0.5318 -0.0063
  989MOL0     C33386   6.428   1.576   2.253  0.9877 -0.7070  0.2580
  989MOL0     C33387   6.509   1.469   2.204 -0.1207 -0.0227  0.3780
  989MOL0     O33388   6.645   1.474   2.167  1.0157  0.6628  0.9682
  989MOL0     C33389   6.723   1.593   2.211  0.3744 -0.3606  0.3736
  989MOL0     C33390   6.871   1.546   2.205  0.4415  0.4583  0.3743
  989MOL0     C33391   6.977   1.654   2.198  0.2356  0.6840  0.5060
  989MOL0     C33392   7.120   1.597   2.206 -0.5156 -0.4018 -0.3795
  989MOL0     C33393   7.223   1.702   2.255  0.1625  0.6842 -0.5193
  989MOL0     C33394   7.221   1.707   2.409  0.5066  1.1305 -0.2180
  989MOL0     C33395   7.319   1.822   2.458  0.5079 -0.3681  0.2115
  989MOL0     C33396   7.333   1.832   2.614 -0.3515  0.7270  0.1356
  989MOL0     N33397   7.469   1.875   2.644  0.0139  0.1076  0.8363
  989MOL0     C33398   7.571   1.787   2.652  0.5887  0.0836 -0.3026
  989MOL0     C33399   7.681   1.865   2.637 -0.1761  0.1567  1.0568
  989MOL0     C33400   7.820   1.822   2.650  0.3739 -0.1854 -0.3994
  989MOL0     C33401   7.888   1.727   2.550  0.4601  0.5283  0.0088
  989MOL0     C33402   8.015   1.648   2.588 -0.1596  0.1475  0.6241
  989MOL0     C33403   8.012   1.558   2.713 -0.6638 -0.1873  0.5504
  989MOL0     O33404   8.020   1.638   2.836 -0.6743  0.0998 -0.5238
  989MOL0     C33405   8.133   1.716   2.842  0.3401  0.5535  0.1862
  989MOL0     C33406   8.140   1.817   2.938 -0.6031  0.9655 -0.5347
  989MOL0     C33407   8.248   1.898   2.969 -0.0680  0.0897  0.1663
  989MOL0     C33408   8.369   1.872   2.896 -0.0588 -0.7249 -0.8435
  989MOL0     C33409   8.490   1.960   2.903 -0.3250 -0.4690 -0.0317
  989MOL0     O33410   8.594   1.944   2.804  0.0495 -0.2035  0.1184
  989MOL0     C33411   8.704   2.017   2.814  0.0046  0.0900  0.4282
  989MOL0     C33412   8.832   1.958   2.820  0.2560  0.0195  0.0105
  989MOL0     C33413   8.945   2.036   2.804 -0.2677 -0.5454  0.8945
  989MOL0     C33414   8.942   2.171   2.771  1.0434 -0.6394 -0.9586
  989MOL0     O33415   9.062   2.236   2.759  0.2632 -0.5943 -0.0034
  989MOL0     C33416   9.071   2.375   2.722 -0.4136 -0.2018 -0.8683
  989MOL0     C33417   9.192   2.410   2.637  0.5895  0.5381 -0.5526
  989MOL0     C33418   9.218   2.564   2.631 -0.7799 -0.0092  0.0712
  989MOL0     C33419   9.100   2.657   2.598  0.2595  0.3474 -0.4162
  989MOL0     C33420   9.159   2.789   2.556 -0.1507  0.3590  0.4261
  989MOL0     C33421   9.055   2.894   2.568 -0.4555 -0.7774  0.0709
  989MOL0     C33422   8.945   2.909   2.462 -0.0868  0.6267  0.3218
  989MOL0     C33423   8.997   2.919   2.311 -0.0040 -0.9092 -0.6320
  989MOL0    Cl33424   9.156   3.013   2.302 -0.6034  0.1428 -0.1093
  989MOL0     C33425   8.819   2.236   2.774  0.5728  0.0982 -0.4105
  989MOL0     C33426   8.698   2.158   2.786  0.1334 -0.0439 -0.0414
  989MOL0     O33427   8.489   2.041   2.996 -0.7854  0.0186  0.5560
  989MOL0     C33428   8.374   1.760   2.817  0.1946 -0.4045  0.1837
  989MOL0     C33429   8.259   1.684   2.792  0.0734  0.3294  0.2761
  989MOL0     N33430   7.647   1.989   2.597  0.4984 -0.0882  0.1189
  989MOL0     N33431   7.516   1.996   2.603 -0.5468  0.1060 -0.2108
  989MOL0     C33432   6.436   1.347   2.183 -0.5049  0.3280  0.7257
  989MOL0     C33433   6.302   1.335   2.201 -0.4268 -0.2689 -0.0736
  989MOL0     C33434   5.871   1.535   2.257 -0.3347  0.8082  1.0117
  989MOL0     C33435   5.790   1.429   2.230  0.0441  0.5088  0.2782
  989MOL0     C33436   5.667   1.410   2.291  0.6588  0.4671  0.6592
  989MOL0     C33437   5.625   1.503   2.386 -1.0378  0.0517  0.6118
  989MOL0     O33438   5.516   1.477   2.456 -0.3221 -0.5702 -0.6070
  989MOL0     C33439   5.396   1.556   2.438 -0.7902 -0.7172 -0.2149
  989MOL0     C33440   5.301   1.493   2.337 -0.0919 -0.2538 -0.5749
  989MOL0     C33441   5.151   1.531   2.359  0.0788  0.4895 -0.1073
  989MOL0     C33442   5.055   1.461   2.270 -0.6075  0.2814  0.1215
  989MOL0     C33443   4.913   1.496   2.286  0.4454 -0.6244  0.1691
  989MOL0     C33444   4.793   1.519   2.294 -0.0616  0.3367 -0.3332
  989MOL0     C33445   5.710   1.613   2.411 -0.0567 -0.8355  1.0060
  989MOL0     C33446   5.832   1.636   2.346 -0.9850 -0.1169 -0.1400
  989MOL0     C33447   5.909   1.757   2.378 -0.2619  0.5100  0.0794
  989MOL0     H33448   6.233   1.656   2.297 -0.7260 -0.0693  0.8239
  989MOL0     H33449   6.461   1.676   2.279 -2.6692  0.4925  0.7912
  989MOL0     H33450   6.695   1.672   2.140 -0.6780 -1.0904 -0.0469
  989MOL0     H33451   6.699   1.627   2.312  2.5246  0.0214  0.8094
  989MOL0     H33452   6.877   1.479   2.119 -0.4877  0.4256  0.3193
  989MOL0     H33453   6.891   1.483   2.293  0.0915 -0.7435 -0.3813
  989MOL0     H33454   6.955   1.724   2.280  0.2371 -1.1163  2.1142
  989MOL0     H33455   6.966   1.692   2.096  2.4321 -1.8169 -0.7872
  989MOL0     H33456   7.120   1.512   2.274  0.7369 -0.5195 -0.4921
  989MOL0     H33457   7.147   1.571   2.103 -3.5615  0.5918 -1.5232
  989MOL0     H33458   7.323   1.668   2.225 -0.9842 -0.8765 -2.8150
  989MOL0     H33459   7.205   1.793   2.198  1.6987 -0.7695 -3.5626
  989MOL0     H33460   7.117   1.721   2.439  0.3910  0.9413 -0.5273
  989MOL0     H33461   7.261   1.617   2.457  0.4479  0.3800 -1.5402
  989MOL0     H33462   7.293   1.917   2.412  0.0367 -1.2214 -1.3766
  989MOL0     H33463   7.407   1.790   2.401 -0.9699 -2.3422 -1.1105
  989MOL0     H33464   7.254   1.896   2.655 -2.7542 -2.9301  1.8354
  989MOL0     H33465   7.313   1.738   2.667  2.7857  0.9674  1.9580
  989MOL0     H33466   7.574   1.678   2.656 -0.3832  0.0811  0.6597
  989MOL0     H33467   7.874   1.915   2.669  0.7487 -0.9592  3.0758
  989MOL0     H33468   7.824   1.785   2.753  0.8539  0.7972 -0.0493
  989MOL0     H33469   7.806   1.657   2.527  0.6622  0.2649  0.0827
  989MOL0     H33470   7.916   1.790   2.465 -2.2467  0.7922 -0.7976
  989MOL0     H33471   8.103   1.711   2.584  0.5932 -0.9329 -0.3972
  989MOL0     H33472   8.027   1.578   2.505  1.4042  0.6650  0.3906
  989MOL0     H33473   8.094   1.485   2.712 -0.4953 -0.2210  4.2571
  989MOL0     H33474   7.922   1.496   2.720 -1.1998  0.5989  0.6923
  989MOL0     H33475   8.055   1.842   3.000 -0.7445  2.2260 -1.2191
  989MOL0     H33476   8.239   1.985   3.033  0.4236 -0.2461  0.7000
  989MOL0     H33477   8.837   1.851   2.834  2.8323 -0.2016 -1.9519
  989MOL0     H33478   9.035   1.979   2.783 -0.7899 -0.0861 -3.3213
  989MOL0     H33479   8.984   2.419   2.673  0.3169  1.0210 -1.0981
  989MOL0     H33480   9.074   2.423   2.820  0.4215  1.9678 -1.8940
  989MOL0     H33481   9.282   2.369   2.682 -1.3945 -2.3645  1.0445
  989MOL0     H33482   9.187   2.360   2.540  5.5214 -3.2856  0.7637
  989MOL0     H33483   9.274   2.590   2.721  0.5471 -2.6262  0.0973
  989MOL0     H33484   9.285   2.580   2.546 -2.2428  1.9484 -0.8176
  989MOL0     H33485   9.036   2.679   2.684 -1.0303 -2.4382 -0.5480
  989MOL0     H33486   9.034   2.625   2.517  0.0377 -2.5148  0.7838
  989MOL0     H33487   9.201   2.779   2.456 -0.7224  0.2263  0.1990
  989MOL0     H33488   9.242   2.804   2.626  0.4353  0.3138 -0.2485
  989MOL0     H33489   9.016   2.891   2.670  0.1304 -0.4689  0.3108
  989MOL0     H33490   9.096   2.996   2.573  0.2737 -1.0252 -0.6281
  989MOL0     H33491   8.899   3.007   2.475 -1.5555 -0.0131  0.1430
  989MOL0     H33492   8.874   2.827   2.477  0.3132  0.2549  0.2365
  989MOL0     H33493   9.007   2.816   2.276  2.6505 -1.2036  0.7054
  989MOL0     H33494   8.922   2.967   2.248 -0.3165  2.3526  1.9691
  989MOL0     H33495   8.806   2.342   2.757  2.0436  0.2938 -0.4558
  989MOL0     H33496   8.598   2.199   2.773  0.1918  0.2344  0.3800
  989MOL0     H33497   8.466   1.740   2.761 -1.4663 -1.8369 -2.2624
  989MOL0     H33498   8.273   1.611   2.713  0.6385  1.3643 -0.6159
  989MOL0     H33499   6.487   1.253   2.165 -3.3943 -2.0325  3.5753
  989MOL0     H33500   6.266   1.233   2.187  0.9887 -0.6885 -0.8246
  989MOL0     H33501   5.807   1.362   2.147 -0.9708  1.5322 -0.7817
  989MOL0     H33502   5.608   1.319   2.279  0.0789  0.6343  2.0560
  989MOL0     H33503   5.433   1.654   2.408  0.2258 -0.1345  2.6369
  989MOL0     H33504   5.355   1.573   2.538 -0.3548  3.8705 -0.5845
  989MOL0     H33505   5.307   1.384   2.340 -1.3751 -0.3029  1.1196
  989MOL0     H33506   5.340   1.531   2.242 -2.9237  2.6204 -0.7471
  989MOL0     H33507   5.143   1.640   2.347  2.7788  1.0848  2.2331
  989MOL0     H33508   5.127   1.499   2.461 -2.0783 -1.6657 -1.2099
  989MOL0     H33509   5.084   1.467   2.164  0.1551 -1.4247  0.2008
  989MOL0     H33510   5.071   1.354   2.284 -1.1244 -0.5781 -4.3080
  989MOL0     H33511   4.692   1.533   2.325 -1.0020 -4.0220 -0.8003
  989MOL0     H33512   5.676   1.670   2.496  0.3457 -3.0124  2.7277
  989MOL0     H33513   5.972   1.793   2.297 -0.7175  3.9146  1.0567
  989MOL0     H33514   5.833   1.836   2.382 -0.7208  0.0434  1.1263
  989MOL0     H33515   5.970   1.758   2.469  1.7067 -1.7576 -1.1120
  990MOL0     O33516   7.218   6.845   2.316  0.3796 -0.0833  0.4262
  990MOL0     C33517   7.135   6.891   2.392 -0.0801  0.8031 -1.2756
  990MOL0     O33518   7.152   6.907   2.532 -0.1939 -0.0425  0.1128
  990MOL0     C33519   7.284   6.891   2.568 -0.2574  0.6420 -0.7164
  990MOL0     C33520   7.312   6.779   2.638  0.5320  0.1165 -0.5441
  990MOL0     C33521   7.443   6.749   2.684 -0.2343  0.2605 -0.4429
  990MOL0     C33522   7.552   6.834   2.653  0.3223 -0.2706 -0.0387
  990MOL0     O33523   7.685   6.809   2.675 -0.3378 -0.8283 -0.3416
  990MOL0     C33524   7.717   6.680   2.730 -0.0810 -0.9100  0.2143
  990MOL0     C33525   7.857   6.699   2.787  0.2248  0.0497  0.0203
  990MOL0     C33526   7.925   6.567   2.816  0.3835  0.6158  0.3643
  990MOL0     C33527   8.074   6.588   2.849 -0.4702 -0.5920 -0.0110
  990MOL0     C33528   8.151   6.460   2.882 -0.4169  0.3751 -0.4398
  990MOL0     C33529   8.304   6.495   2.878 -0.9771  0.3210 -0.2132
  990MOL0     C33530   8.407   6.383   2.829  0.7039  0.5802 -0.3307
  990MOL0     C33531   8.428   6.277   2.934 -0.2886  0.8001  0.8361
  990MOL0     N33532   8.544   6.183   2.909 -0.3831 -0.7882  0.1356
  990MOL0     C33533   8.666   6.168   2.972 -0.5719  0.3186 -0.3185
  990MOL0     C33534   8.725   6.063   2.920  0.1727 -0.1556  0.0880
  990MOL0     C33535   8.860   6.002   2.935 -0.6711 -0.0107 -0.6696
  990MOL0     C33536   8.952   6.015   2.811  0.4095  0.2054 -1.0458
  990MOL0     C33537   8.999   6.161   2.799  1.5678 -0.6013  0.2603
  990MOL0     C33538   9.097   6.168   2.683 -0.2229 -0.0443 -0.1002
  990MOL0     O33539   9.216   6.091   2.707 -0.4837  0.4170  0.0211
  990MOL0     C33540   9.309   6.103   2.605 -0.2277 -0.1048  1.4558
  990MOL0     C33541   9.388   5.988   2.593  1.4847 -0.6985  0.2957
  990MOL0     C33542   9.472   5.978   2.482 -0.3873 -0.7771 -0.2427
  990MOL0     C33543   9.493   6.093   2.397  0.4660 -0.0560 -0.6871
  990MOL0     C33544   9.593   6.100   2.289  0.3148 -0.2048  0.3401
  990MOL0     O33545   9.710   6.024   2.316 -0.3259 -0.6497  0.3763
  990MOL0     C33546   9.819   6.037   2.248 -0.9475  0.1707  0.7409
  990MOL0     C33547   9.870   6.154   2.187  0.7402  0.5790 -0.4609
  990MOL0     C33548   9.999   6.168   2.143  0.2549  0.5808  0.2067
  990MOL0     C33549  10.085   6.071   2.170 -0.2875  0.9417  0.1260
  990MOL0     O33550  10.217   6.078   2.123  0.4051  0.6151  0.5827
  990MOL0     C33551  10.306   5.966   2.148 -0.4485 -0.7358  0.8477
  990MOL0     C33552  10.460   5.986   2.109  0.3286 -0.0151  0.4710
  990MOL0     C33553  10.527   5.865   2.171  0.3493  0.4208  0.3834
  990MOL0     C33554  10.650   5.823   2.086 -0.0429  0.4660  0.3252
  990MOL0     C33555  10.738   5.716   2.154 -1.0227 -0.1365  0.5081
  990MOL0     C33556  10.762   5.729   2.308 -0.0817 -0.2770  0.8591
  990MOL0     C33557  10.837   5.625   2.384  0.0971  0.1873  0.2966
  990MOL0     C33558  10.857   5.666   2.530  0.6036 -0.5300  0.1818
  990MOL0    Cl33559  10.717   5.622   2.632 -0.2596 -0.4546  0.0470
  990MOL0     C33560  10.044   5.954   2.236 -0.3343  0.6109 -0.1827
  990MOL0     C33561   9.912   5.934   2.278 -0.4770 -0.1422  0.0403
  990MOL0     O33562   9.578   6.172   2.193 -0.0615  0.7927  0.0659
  990MOL0     C33563   9.409   6.203   2.415  0.7468 -0.2051  0.2312
  990MOL0     C33564   9.317   6.212   2.514  0.6072  0.1657  0.3219
  990MOL0     N33565   8.633   6.003   2.832  0.1595 -0.3527 -0.2770
  990MOL0     N33566   8.526   6.076   2.828  0.6798  0.3279 -0.0262
  990MOL0     C33567   7.524   6.944   2.569  0.3982 -0.1666 -0.5786
  990MOL0     C33568   7.394   6.973   2.529  0.2142 -0.5153 -0.6026
  990MOL0     C33569   6.998   6.929   2.341  0.0454  0.0343 -0.6591
  990MOL0     C33570   6.900   6.961   2.441 -0.4370  0.0720 -0.5892
  990MOL0     C33571   6.774   6.988   2.400  0.0547 -0.2254  0.1061
  990MOL0     C33572   6.735   6.998   2.261  0.1771 -0.0779 -0.5230
  990MOL0     O33573   6.605   7.029   2.209  0.0809 -0.1037  0.7865
  990MOL0     C33574   6.495   6.997   2.286 -0.5074  0.1910 -0.9711
  990MOL0     C33575   6.473   6.857   2.315 -0.0487  0.0770  0.3980
  990MOL0     C33576   6.352   6.826   2.406  0.2811 -0.1761 -0.6213
  990MOL0     C33577   6.221   6.802   2.327 -0.2453  0.0984 -0.6740
  990MOL0     C33578   6.110   6.847   2.411  0.4010  0.5786  0.7200
  990MOL0     C33579   6.026   6.897   2.482 -0.4162  0.2831  0.3369
  990MOL0     C33580   6.836   6.980   2.169  0.0887 -1.1639 -0.1470
  990MOL0     C33581   6.960   6.948   2.203  0.4717  0.2386 -0.4644
  990MOL0     C33582   7.059   6.927   2.099 -0.6647  0.2038  0.1500
  990MOL0     H33583   7.234   6.703   2.640 -0.4181  1.0144 -1.8845
  990MOL0     H33584   7.460   6.654   2.732  0.3089 -1.3035 -3.4955
  990MOL0     H33585   7.648   6.649   2.809 -2.3755 -0.9665 -1.6885
  990MOL0     H33586   7.715   6.595   2.661 -0.3683 -2.7309  2.3505
  990MOL0     H33587   7.841   6.768   2.871 -0.3923  1.7336 -1.4205
  990MOL0     H33588   7.921   6.753   2.717 -0.5409  0.6377 -0.2383
  990MOL0     H33589   7.928   6.504   2.727  2.0608 -0.4662  1.1328
  990MOL0     H33590   7.870   6.519   2.898 -1.7835 -1.2177 -2.0402
  990MOL0     H33591   8.122   6.633   2.762 -0.5530  1.9720  1.1543
  990MOL0     H33592   8.081   6.658   2.933 -2.7723 -0.5430  0.1927
  990MOL0     H33593   8.116   6.420   2.977 -1.2492 -1.8908 -1.6264
  990MOL0     H33594   8.120   6.381   2.813 -0.1790  0.0699 -0.2017
  990MOL0     H33595   8.324   6.585   2.819 -2.1623 -0.3147 -1.6508
  990MOL0     H33596   8.328   6.527   2.979 -0.9486 -0.9350  0.1925
  990MOL0     H33597   8.505   6.425   2.803  0.9364 -0.6247 -1.5574
  990MOL0     H33598   8.378   6.339   2.733  2.1458  1.9762 -1.4545
  990MOL0     H33599   8.461   6.330   3.024  2.3758 -1.1562  1.1026
  990MOL0     H33600   8.330   6.232   2.950 -1.9228  3.9451  0.5083
  990MOL0     H33601   8.719   6.225   3.048  0.4298 -0.5498 -0.3401
  990MOL0     H33602   8.920   6.042   3.017  1.5500 -2.0062 -1.2013
  990MOL0     H33603   8.849   5.894   2.950  0.7007 -0.2441 -1.2017
  990MOL0     H33604   9.041   5.955   2.829 -0.8348 -1.1054  1.3123
  990MOL0     H33605   8.903   5.980   2.719  0.4305  0.8882 -1.3288
  990MOL0     H33606   9.041   6.205   2.890  0.9039 -0.0241  0.2992
  990MOL0     H33607   8.903   6.210   2.778  0.4795 -2.5976  0.2440
  990MOL0     H33608   9.125   6.272   2.665  0.8837 -0.4381 -0.7991
  990MOL0     H33609   9.046   6.121   2.598  2.4104 -1.6365 -0.9198
  990MOL0     H33610   9.381   5.909   2.667  3.2983 -1.2968 -0.0963
  990MOL0     H33611   9.533   5.889   2.473  1.6493  0.5759 -0.3863
  990MOL0     H33612   9.805   6.241   2.197 -0.2395 -0.1030 -0.7588
  990MOL0     H33613  10.040   6.262   2.108  3.0588  0.3096  2.4252
  990MOL0     H33614  10.304   5.933   2.252 -1.0219 -2.8182  0.2195
  990MOL0     H33615  10.272   5.888   2.079 -0.8841  0.5222 -0.4137
  990MOL0     H33616  10.475   5.995   2.001 -3.6146 -0.4228 -0.2370
  990MOL0     H33617  10.498   6.078   2.155  1.3709 -1.2661  2.2274
  990MOL0     H33618  10.545   5.882   2.277 -0.6442 -0.1386  0.6520
  990MOL0     H33619  10.458   5.781   2.157  0.3776  0.3040  0.9272
  990MOL0     H33620  10.711   5.909   2.059  1.3233 -0.4101  0.4904
  990MOL0     H33621  10.610   5.781   1.994  2.6206 -1.5113 -0.0827
  990MOL0     H33622  10.831   5.722   2.098 -0.9226 -0.1475  0.6731
  990MOL0     H33623  10.700   5.615   2.137  1.2542 -1.0317  0.4183
  990MOL0     H33624  10.800   5.831   2.324 -0.6317  0.3237 -1.4130
  990MOL0     H33625  10.661   5.728   2.349 -0.7770 -3.1695 -0.6832
  990MOL0     H33626  10.937   5.603   2.345  0.6517  0.6567  1.3996
  990MOL0     H33627  10.775   5.535   2.390  0.0804  0.2993  2.4166
  990MOL0     H33628  10.937   5.604   2.572  1.3952  1.7746  2.2976
  990MOL0     H33629  10.871   5.774   2.542  2.6095 -0.9000  1.8109
  990MOL0     H33630  10.112   5.871   2.249  0.9329  1.1335 -2.8927
  990MOL0     H33631   9.884   5.836   2.316 -0.5365  0.4247  1.5055
  990MOL0     H33632   9.421   6.295   2.359  0.2839  0.0751  0.5874
  990MOL0     H33633   9.255   6.301   2.520  1.5340  0.7784  1.0917
  990MOL0     H33634   7.608   7.006   2.540  1.5457 -0.6005  1.6227
  990MOL0     H33635   7.367   7.056   2.465  1.8189 -0.6343 -1.4930
  990MOL0     H33636   6.928   6.949   2.545  1.6975  0.0629 -1.1177
  990MOL0     H33637   6.701   7.002   2.478  2.1658 -1.0402  2.3813
  990MOL0     H33638   6.402   7.036   2.243 -2.3534 -1.6529  1.1287
  990MOL0     H33639   6.508   7.055   2.378 -0.0289 -0.3988 -0.6654
  990MOL0     H33640   6.563   6.818   2.364  0.0870 -1.4501 -0.9855
  990MOL0     H33641   6.458   6.803   2.221  1.0326 -0.9963  0.8100
  990MOL0     H33642   6.332   6.916   2.464  0.8697  1.6411 -3.0844
  990MOL0     H33643   6.366   6.734   2.464 -1.1221 -2.5247 -3.7300
  990MOL0     H33644   6.221   6.855   2.231  1.6049 -1.5175 -1.6347
  990MOL0     H33645   6.197   6.697   2.308  1.9250 -1.3138  3.1780
  990MOL0     H33646   5.951   6.937   2.547  2.0777  1.2763  2.7903
  990MOL0     H33647   6.811   6.989   2.064  0.7307 -0.4762 -0.2484
  990MOL0     H33648   7.024   6.963   2.001  0.1711 -0.0480 -0.2518
  990MOL0     H33649   7.153   6.980   2.115 -0.4522 -0.5226  1.3877
  990MOL0     H33650   7.070   6.820   2.083 -2.8582  0.2938 -2.8551
  991MOL0     O33651   3.113   5.231   5.304  0.1264 -0.2682 -0.4426
  991MOL0     C33652   3.081   5.342   5.274  0.4962 -0.6625 -1.1128
  991MOL0     O33653   3.171   5.442   5.236 -0.3550  0.5749 -0.0949
  991MOL0     C33654   3.300   5.423   5.257 -0.0468  0.1523 -0.1849
  991MOL0     C33655   3.391   5.428   5.149 -0.3342 -0.5215  0.0437
  991MOL0     C33656   3.525   5.394   5.168 -0.3477 -1.4045 -1.1327
  991MOL0     C33657   3.576   5.357   5.294  0.7115 -0.0021 -0.5636
  991MOL0     O33658   3.707   5.328   5.304  0.1535 -0.1695 -0.8987
  991MOL0     C33659   3.754   5.245   5.419  0.4581 -0.4231 -0.3659
  991MOL0     C33660   3.871   5.152   5.378 -0.3158  0.1799  0.5224
  991MOL0     C33661   3.979   5.236   5.309  0.0702  0.0023 -0.2117
  991MOL0     C33662   4.100   5.140   5.282 -0.2306 -0.1679 -0.3585
  991MOL0     C33663   4.217   5.222   5.225 -0.4176 -0.0665  0.0610
  991MOL0     C33664   4.348   5.167   5.268  0.0172 -1.1144  0.2094
  991MOL0     C33665   4.460   5.260   5.224  0.7355  1.1015  0.0952
  991MOL0     C33666   4.601   5.201   5.260  0.7556  0.1163  0.3777
  991MOL0     N33667   4.696   5.283   5.196  0.0158  0.9648 -0.4814
  991MOL0     C33668   4.756   5.254   5.082  0.3249  1.1360  0.1261
  991MOL0     C33669   4.855   5.347   5.080 -0.9604 -0.2296  0.4176
  991MOL0     C33670   4.949   5.361   4.965  0.2221 -0.5814  0.0137
  991MOL0     C33671   5.047   5.246   4.970  0.7997 -0.5252  0.4688
  991MOL0     C33672   5.120   5.248   5.097 -0.1698 -0.4033  0.0236
  991MOL0     C33673   5.245   5.168   5.089  0.6357  0.1436 -0.1368
  991MOL0     O33674   5.349   5.230   5.019 -0.7119 -0.9478  0.5056
  991MOL0     C33675   5.483   5.216   5.047 -0.2432 -0.0043  0.3202
  991MOL0     C33676   5.533   5.239   5.172 -0.5343 -0.0607 -0.4320
  991MOL0     C33677   5.668   5.266   5.196 -0.7829  0.2191 -0.3220
  991MOL0     C33678   5.765   5.251   5.091  0.2886 -0.3701 -0.5441
  991MOL0     C33679   5.915   5.256   5.107 -0.9030 -0.1126  0.0596
  991MOL0     O33680   5.964   5.300   5.224 -0.2028 -0.0322  0.6531
  991MOL0     C33681   6.099   5.314   5.233  0.2294  0.5525  0.3150
  991MOL0     C33682   6.171   5.228   5.321 -0.1891 -0.2037  0.0355
  991MOL0     C33683   6.315   5.231   5.332 -0.6221  0.6286  0.4696
  991MOL0     C33684   6.393   5.316   5.254 -0.1741  0.0358 -0.1300
  991MOL0     O33685   6.525   5.305   5.290  0.3914 -0.3010  1.0929
  991MOL0     C33686   6.615   5.375   5.206 -0.7956 -0.3535 -0.2939
  991MOL0     C33687   6.743   5.400   5.290 -0.0853  0.5681 -0.3744
  991MOL0     C33688   6.869   5.415   5.206  0.6716  0.9148  0.4337
  991MOL0     C33689   6.975   5.474   5.289  0.3709 -0.7625  0.2105
  991MOL0     C33690   7.106   5.510   5.200  0.4689  0.1773 -0.1325
  991MOL0     C33691   7.222   5.541   5.297 -0.2473  0.3781  0.5977
  991MOL0     C33692   7.355   5.534   5.214 -0.6519  1.4854  0.3640
  991MOL0     C33693   7.474   5.609   5.267  0.1961  0.4484 -0.6855
  991MOL0    Cl33694   7.559   5.550   5.416 -0.2520  0.3523 -0.3019
  991MOL0     C33695   6.326   5.389   5.158 -0.4092  0.3144 -0.4422
  991MOL0     C33696   6.186   5.390   5.152 -0.2932 -0.2930 -0.5354
  991MOL0     O33697   5.985   5.212   5.017 -0.2546 -0.6343 -0.3383
  991MOL0     C33698   5.711   5.200   4.971  0.0630 -0.2381 -0.4488
  991MOL0     C33699   5.574   5.196   4.947  0.2401  0.0105 -1.0558
  991MOL0     N33700   4.862   5.419   5.192  0.4755  0.7192 -0.2347
  991MOL0     N33701   4.761   5.382   5.269  1.1554  0.7391  0.1735
  991MOL0     C33702   3.490   5.357   5.402 -0.1497 -0.5341 -1.0686
  991MOL0     C33703   3.354   5.383   5.384  0.0747  0.1005  0.2470
  991MOL0     C33704   2.939   5.389   5.295  0.0590  0.3166  0.8383
  991MOL0     C33705   2.904   5.527   5.292 -0.0408  0.6444  0.4058
  991MOL0     C33706   2.767   5.556   5.276  0.4792  0.1892 -0.5624
  991MOL0     C33707   2.666   5.472   5.280  0.1550  0.3746  0.8760
  991MOL0     O33708   2.533   5.516   5.255  0.5664  0.5203  0.1124
  991MOL0     C33709   2.505   5.655   5.267  0.3744  0.3749 -0.0752
  991MOL0     C33710   2.372   5.688   5.202 -0.2823 -0.5173  0.3598
  991MOL0     C33711   2.260   5.618   5.276 -0.1248 -1.3286 -0.2959
  991MOL0     C33712   2.119   5.650   5.231 -0.6219 -0.7430  0.0264
  991MOL0     C33713   2.034   5.546   5.288 -0.7519  0.4524 -0.2288
  991MOL0     C33714   1.962   5.466   5.347 -0.8329 -1.2663 -0.5604
  991MOL0     C33715   2.698   5.338   5.302 -0.5089 -0.4077 -0.3475
  991MOL0     C33716   2.833   5.297   5.311  0.7984  0.4157  0.4673
  991MOL0     C33717   2.851   5.144   5.316  0.3936 -0.9762 -0.4113
  991MOL0     H33718   3.351   5.457   5.052 -0.3376 -0.9117 -0.0750
  991MOL0     H33719   3.588   5.411   5.082 -0.5558  3.0640 -0.6283
  991MOL0     H33720   3.786   5.320   5.492 -0.0480  0.2542 -0.8270
  991MOL0     H33721   3.676   5.199   5.480 -0.9181  1.8563 -0.2986
  991MOL0     H33722   3.818   5.087   5.308  2.2199 -0.7532 -0.6743
  991MOL0     H33723   3.911   5.095   5.463 -1.9740 -2.0339 -0.0989
  991MOL0     H33724   4.004   5.323   5.370  0.0168  0.1184 -0.3551
  991MOL0     H33725   3.942   5.282   5.217  0.7723  2.8248  0.8189
  991MOL0     H33726   4.129   5.111   5.383  0.9266  4.9360  1.0640
  991MOL0     H33727   4.073   5.064   5.208 -1.0099  1.8011 -2.2118
  991MOL0     H33728   4.207   5.232   5.116  0.9173  3.4240  0.1576
  991MOL0     H33729   4.215   5.323   5.265 -0.6617  0.2014 -0.6086
  991MOL0     H33730   4.352   5.153   5.376  1.4017 -1.2205  0.1538
  991MOL0     H33731   4.359   5.069   5.220 -4.8598  0.0197 -4.1384
  991MOL0     H33732   4.443   5.362   5.260 -1.7687  0.4496  1.0401
  991MOL0     H33733   4.451   5.276   5.117  0.5500  3.6144  0.4228
  991MOL0     H33734   4.616   5.204   5.368  0.4073 -0.3018  0.4414
  991MOL0     H33735   4.619   5.095   5.240 -1.3126 -0.8442  2.9969
  991MOL0     H33736   4.737   5.187   4.999 -1.4404  1.9858 -0.1929
  991MOL0     H33737   4.888   5.369   4.874  0.2693  1.6904  0.1280
  991MOL0     H33738   4.997   5.459   4.972 -1.0608  0.2727 -2.1026
  991MOL0     H33739   4.991   5.152   4.972 -0.0189 -0.0394  1.0214
  991MOL0     H33740   5.103   5.235   4.877 -2.2374  0.4391 -1.6392
  991MOL0     H33741   5.054   5.222   5.180 -0.8756 -0.7014 -0.6189
  991MOL0     H33742   5.152   5.352   5.109 -1.2968 -0.0610  0.1786
  991MOL0     H33743   5.228   5.068   5.047 -0.4873  1.2457 -2.5009
  991MOL0     H33744   5.284   5.151   5.190  0.5324  1.5914  0.1769
  991MOL0     H33745   5.475   5.253   5.262  0.2428 -1.9008  0.3880
  991MOL0     H33746   5.697   5.286   5.299  2.1271 -1.9583 -0.5897
  991MOL0     H33747   6.111   5.158   5.379  0.1400 -0.0163  0.6000
  991MOL0     H33748   6.358   5.165   5.407  0.3436  1.2087  0.4265
  991MOL0     H33749   6.650   5.321   5.117 -1.8354  1.2238 -1.7199
  991MOL0     H33750   6.564   5.470   5.187 -2.2043 -0.8539  0.8074
  991MOL0     H33751   6.731   5.482   5.362  2.8262  1.2786 -0.5727
  991MOL0     H33752   6.741   5.306   5.347 -0.7672  1.4150  1.0497
  991MOL0     H33753   6.908   5.316   5.178 -3.7074 -0.3450 -2.2316
  991MOL0     H33754   6.842   5.462   5.111 -1.6464 -0.1286  0.5034
  991MOL0     H33755   7.017   5.397   5.354  1.0369 -1.1368 -0.6443
  991MOL0     H33756   6.941   5.561   5.346  0.9549 -0.8675  0.7203
  991MOL0     H33757   7.090   5.604   5.146 -0.8597 -0.2579 -0.5454
  991MOL0     H33758   7.136   5.432   5.129  1.2743  0.8585 -0.5482
  991MOL0     H33759   7.198   5.638   5.341 -1.3046  1.5412 -2.3173
  991MOL0     H33760   7.242   5.469   5.377  5.2558  1.8551  0.9670
  991MOL0     H33761   7.334   5.574   5.115  0.7448  0.0079 -0.5628
  991MOL0     H33762   7.382   5.428   5.208  1.0129  1.9488 -1.2393
  991MOL0     H33763   7.547   5.595   5.186 -0.6729 -1.6548 -1.1662
  991MOL0     H33764   7.463   5.718   5.270  1.1030  0.5904 -1.8739
  991MOL0     H33765   6.402   5.442   5.101  1.6926  1.4225  3.0850
  991MOL0     H33766   6.138   5.449   5.074  3.2073 -0.1299 -2.7726
  991MOL0     H33767   5.775   5.154   4.896  0.9706 -1.0516  0.7821
  991MOL0     H33768   5.534   5.183   4.847  0.4671 -0.9291 -1.0286
  991MOL0     H33769   3.520   5.340   5.505 -0.8885  1.8478 -0.3995
  991MOL0     H33770   3.300   5.389   5.478  0.0090  0.6776  0.1736
  991MOL0     H33771   2.986   5.595   5.271  0.3170  0.1968  0.3332
  991MOL0     H33772   2.758   5.663   5.257 -1.2125  0.1158 -0.2641
  991MOL0     H33773   2.574   5.710   5.203  1.2225 -0.9505 -0.3233
  991MOL0     H33774   2.521   5.680   5.373  0.0624 -1.1926  0.3708
  991MOL0     H33775   2.371   5.648   5.100  0.8256 -2.3466  1.0192
  991MOL0     H33776   2.349   5.795   5.198 -0.7443 -0.6500 -1.4845
  991MOL0     H33777   2.272   5.641   5.383 -0.4683  3.1213 -1.0295
  991MOL0     H33778   2.284   5.511   5.274  0.8999 -1.1147 -0.0515
  991MOL0     H33779   2.088   5.743   5.280  1.2041  0.9102 -1.7736
  991MOL0     H33780   2.113   5.657   5.122  0.8507  1.9869  0.0114
  991MOL0     H33781   1.905   5.405   5.414  0.2912 -0.1089  1.6018
  991MOL0     H33782   2.612   5.271   5.305 -3.6969  3.3267  2.6196
  991MOL0     H33783   2.753   5.096   5.317 -0.4542  0.6711 -0.6804
  991MOL0     H33784   2.916   5.099   5.241  0.4099 -0.2334 -0.8562
  991MOL0     H33785   2.889   5.132   5.418  0.8260  0.5081 -0.3771
  992MOL0     O33786   9.371   3.593   5.206 -0.7787  0.9704  0.9379
  992MOL0     C33787   9.283   3.601   5.119  0.5523  0.2978 -0.3305
  992MOL0     O33788   9.299   3.638   4.988 -0.0894 -0.0567  0.6356
  992MOL0     C33789   9.417   3.685   4.939  0.0628  0.9689  0.8810
  992MOL0     C33790   9.457   3.658   4.807 -0.4643  0.1426  0.2021
  992MOL0     C33791   9.577   3.705   4.754  0.7037 -0.7150  0.5633
  992MOL0     C33792   9.668   3.764   4.838 -0.3527  0.1700  0.3037
  992MOL0     O33793   9.800   3.782   4.801  0.3311  0.3760  0.7124
  992MOL0     C33794   9.837   3.781   4.660 -0.4489  0.0287 -0.4895
  992MOL0     C33795   9.989   3.810   4.645  0.4750 -1.7019 -0.1275
  992MOL0     C33796  10.082   3.695   4.690 -0.1269 -0.7818 -0.4890
  992MOL0     C33797  10.223   3.735   4.666  0.2296 -0.0975 -0.0970
  992MOL0     C33798  10.313   3.615   4.714  0.7018 -0.0875 -0.1774
  992MOL0     C33799  10.465   3.650   4.707  0.3817  0.5755 -0.4881
  992MOL0     C33800  10.540   3.597   4.590 -0.3915 -0.2904  0.6388
  992MOL0     C33801  10.470   3.620   4.452  0.3089 -0.2585  0.5763
  992MOL0     N33802  10.519   3.527   4.348 -0.0782  0.8373  0.1336
  992MOL0     C33803  10.614   3.546   4.253 -0.4837 -0.5378  0.2125
  992MOL0     C33804  10.636   3.425   4.190 -0.0008  0.4515  0.2395
  992MOL0     C33805  10.726   3.389   4.075 -0.0044  0.2949  0.7719
  992MOL0     C33806  10.867   3.356   4.122 -0.2629  0.9487  0.1666
  992MOL0     C33807  10.940   3.476   4.186 -0.2533 -1.3400  0.2429
  992MOL0     C33808  11.088   3.443   4.195  0.8597 -0.5777 -0.4261
  992MOL0     O33809  11.132   3.409   4.063 -0.2930  0.0517  0.2126
  992MOL0     C33810  11.263   3.372   4.045 -0.1209  0.0889 -0.8503
  992MOL0     C33811  11.370   3.381   4.134 -0.2167  0.3743  0.2599
  992MOL0     C33812  11.499   3.346   4.095 -0.3588  0.2166 -0.1195
  992MOL0     C33813  11.533   3.300   3.965  0.6281 -0.5586  0.3032
  992MOL0     C33814  11.672   3.308   3.922  0.5887 -0.4836  0.1136
  992MOL0     O33815  11.754   3.381   4.006  0.0563  0.0274  0.3734
  992MOL0     C33816  11.876   3.421   3.961  0.0578  0.7158 -0.4553
  992MOL0     C33817  11.905   3.553   3.936 -0.9414 -0.4958  0.6096
  992MOL0     C33818  12.031   3.593   3.900 -0.3146  0.7543 -0.3332
  992MOL0     C33819  12.137   3.503   3.890 -0.5257 -0.4640 -0.2161
  992MOL0     O33820  12.260   3.555   3.873 -0.2220  0.3053 -0.1575
  992MOL0     C33821  12.370   3.463   3.898  0.2059 -0.3357 -0.2405
  992MOL0     C33822  12.504   3.525   3.879  0.7503 -0.1515  0.5029
  992MOL0     C33823  12.549   3.548   3.735 -0.1126  0.4524 -0.2753
  992MOL0     C33824  12.687   3.606   3.739  0.8402  0.6768 -1.0212
  992MOL0     C33825  12.729   3.672   3.615 -0.7044 -0.2125  0.1508
  992MOL0     C33826  12.841   3.777   3.641  0.0767 -0.4473  0.7123
  992MOL0     C33827  12.880   3.866   3.523 -0.1475 -0.3864 -0.4876
  992MOL0     C33828  12.977   3.790   3.423 -0.0750  0.6410 -0.5327
  992MOL0    Cl33829  12.900   3.673   3.326  0.2047  0.1653  0.4881
  992MOL0     C33830  12.109   3.368   3.909  0.6786 -0.2267  0.1973
  992MOL0     C33831  11.982   3.326   3.943  0.1071 -0.8643  0.0472
  992MOL0     O33832  11.704   3.260   3.815 -0.0484 -0.3116 -0.3916
  992MOL0     C33833  11.425   3.284   3.881 -0.6751  0.3828  0.7012
  992MOL0     C33834  11.295   3.320   3.920  0.2499  0.0705 -0.4440
  992MOL0     N33835  10.557   3.337   4.255  0.5825  0.1509 -0.2788
  992MOL0     N33836  10.486   3.397   4.349 -0.1317 -0.2299  1.1250
  992MOL0     C33837   9.631   3.799   4.971 -0.2470 -0.4228 -0.5879
  992MOL0     C33838   9.503   3.769   5.009  1.1273  0.1735  0.4874
  992MOL0     C33839   9.143   3.568   5.158  0.0695 -0.2952 -0.6519
  992MOL0     C33840   9.046   3.553   5.057  0.6948 -0.1791 -0.2945
  992MOL0     C33841   8.923   3.502   5.085  0.1257  0.7651  0.2827
  992MOL0     C33842   8.878   3.494   5.218  0.6513 -0.6205  0.4786
  992MOL0     O33843   8.743   3.469   5.261 -0.0845 -0.4094 -0.2603
  992MOL0     C33844   8.656   3.386   5.178 -0.6850 -0.0126  0.7576
  992MOL0     C33845   8.524   3.328   5.248  0.2357 -0.0811  1.1147
  992MOL0     C33846   8.543   3.208   5.342 -0.1010 -0.6747  0.0477
  992MOL0     C33847   8.583   3.264   5.480 -0.1805 -0.1724 -0.2903
  992MOL0     C33848   8.478   3.338   5.556  0.3605  0.6654 -0.2547
  992MOL0     C33849   8.386   3.399   5.608  0.8735  0.2431 -0.3575
  992MOL0     C33850   8.974   3.515   5.314  0.3336  0.1003  0.0112
  992MOL0     C33851   9.104   3.548   5.288 -0.0229  0.0043 -0.6974
  992MOL0     C33852   9.195   3.570   5.410  1.0915  0.0409 -0.5224
  992MOL0     H33853   9.388   3.601   4.747 -2.6786  1.3242  1.4700
  992MOL0     H33854   9.579   3.682   4.648 -4.8821 -2.3294  0.5028
  992MOL0     H33855   9.810   3.688   4.610  0.6239  0.6527 -2.3290
  992MOL0     H33856   9.774   3.855   4.610 -1.5083 -0.1159  0.5692
  992MOL0     H33857  10.012   3.897   4.708 -1.2963 -0.9150 -0.4939
  992MOL0     H33858  10.002   3.827   4.538 -1.5782  0.0599 -0.1670
  992MOL0     H33859  10.052   3.611   4.627  0.1451 -2.2722  1.2763
  992MOL0     H33860  10.072   3.662   4.794 -0.0018 -3.6825 -1.2975
  992MOL0     H33861  10.246   3.767   4.564  1.4435  1.0277  0.5014
  992MOL0     H33862  10.242   3.822   4.729 -5.2753 -0.0332  2.1003
  992MOL0     H33863  10.313   3.607   4.823  1.7001  1.0354 -0.0732
  992MOL0     H33864  10.291   3.521   4.661 -1.5957  0.7581 -0.8136
  992MOL0     H33865  10.475   3.759   4.709 -2.8788  0.9776  0.6684
  992MOL0     H33866  10.507   3.607   4.798 -0.9445  1.2729  0.4891
  992MOL0     H33867  10.561   3.491   4.605 -4.1370 -1.4425 -1.1137
  992MOL0     H33868  10.639   3.645   4.589 -0.1910 -0.6364 -1.2301
  992MOL0     H33869  10.361   3.618   4.449  0.1680  2.2134  1.5951
  992MOL0     H33870  10.505   3.716   4.412 -0.8846 -0.3095 -0.6527
  992MOL0     H33871  10.658   3.638   4.216  1.6385 -2.1532 -1.6171
  992MOL0     H33872  10.686   3.295   4.034  2.5358 -0.2491 -0.6690
  992MOL0     H33873  10.720   3.458   3.991 -2.1685  1.0646  1.4951
  992MOL0     H33874  10.852   3.273   4.192 -1.0106  0.8142 -0.1421
  992MOL0     H33875  10.923   3.309   4.041  1.7313 -0.2571  2.1204
  992MOL0     H33876  10.902   3.498   4.286 -0.4044  0.4060 -0.1771
  992MOL0     H33877  10.927   3.562   4.119 -1.2498 -1.2213  0.5702
  992MOL0     H33878  11.095   3.357   4.262  0.7962  1.4660  2.3626
  992MOL0     H33879  11.158   3.518   4.234 -0.8487  0.6687  0.3638
  992MOL0     H33880  11.363   3.418   4.235  0.9608  1.0129  0.1241
  992MOL0     H33881  11.573   3.368   4.172 -1.0020  2.1200 -0.0058
  992MOL0     H33882  11.827   3.625   3.960 -0.0135  0.0011  2.3694
  992MOL0     H33883  12.049   3.697   3.876 -0.0320  0.5454 -1.0446
  992MOL0     H33884  12.370   3.428   4.002  1.8029 -0.9638 -0.4152
  992MOL0     H33885  12.368   3.368   3.843 -0.9786 -0.1127 -0.6137
  992MOL0     H33886  12.517   3.622   3.928  3.3942  1.2493 -2.6240
  992MOL0     H33887  12.577   3.456   3.923 -2.1819 -1.7180  3.4008
  992MOL0     H33888  12.551   3.450   3.685  3.0035 -0.8254  2.0279
  992MOL0     H33889  12.481   3.611   3.678 -1.2391 -1.6405 -1.3553
  992MOL0     H33890  12.758   3.524   3.754  0.1124  0.2190  0.0362
  992MOL0     H33891  12.686   3.664   3.832  0.2699 -0.3690 -0.3533
  992MOL0     H33892  12.644   3.719   3.565  0.6079 -0.1915 -2.2054
  992MOL0     H33893  12.761   3.594   3.544 -2.4133 -2.7217  1.9541
  992MOL0     H33894  12.792   3.838   3.718  0.0360  0.8384 -0.2903
  992MOL0     H33895  12.930   3.721   3.672  0.2371 -0.2124  0.6827
  992MOL0     H33896  12.925   3.960   3.557 -3.1807  0.9222  0.2778
  992MOL0     H33897  12.789   3.900   3.473 -1.0639 -1.0139  0.7167
  992MOL0     H33898  13.028   3.863   3.359  0.2997  1.5199  0.7285
  992MOL0     H33899  13.054   3.737   3.480 -0.1161 -0.5680 -1.5585
  992MOL0     H33900  12.190   3.295   3.907  1.0985  0.1931 -2.6297
  992MOL0     H33901  11.967   3.223   3.972  0.3728 -0.1219  3.3201
  992MOL0     H33902  11.448   3.252   3.780 -3.5820 -0.1983  0.1317
  992MOL0     H33903  11.226   3.341   3.839  0.4784 -0.6793 -0.8389
  992MOL0     H33904   9.703   3.842   5.040 -0.1842  0.4280 -1.1703
  992MOL0     H33905   9.466   3.806   5.103  0.3849  0.4771  0.0868
  992MOL0     H33906   9.068   3.564   4.952  0.3439 -1.4409 -0.5178
  992MOL0     H33907   8.851   3.487   5.005 -1.4359  1.6998  1.4480
  992MOL0     H33908   8.717   3.301   5.145  0.7193  0.9268  0.8285
  992MOL0     H33909   8.635   3.442   5.086  0.5105 -1.9942 -0.8137
  992MOL0     H33910   8.471   3.301   5.156  0.4647 -2.1119  1.5298
  992MOL0     H33911   8.472   3.407   5.304  0.1212  0.5817  0.0970
  992MOL0     H33912   8.626   3.152   5.297  1.7611  0.8001  1.4432
  992MOL0     H33913   8.451   3.149   5.346 -0.7560  0.3978  1.5334
  992MOL0     H33914   8.613   3.180   5.543 -1.6730  0.2309  1.0433
  992MOL0     H33915   8.663   3.335   5.458  0.3004 -0.6325 -0.0480
  992MOL0     H33916   8.303   3.444   5.660  0.3279 -1.3795  0.2530
  992MOL0     H33917   8.934   3.514   5.415 -1.9414  0.4743 -0.8344
  992MOL0     H33918   9.250   3.665   5.407  0.3304  0.6236  1.8661
  992MOL0     H33919   9.138   3.567   5.503  0.2693  0.3637 -1.0043
  992MOL0     H33920   9.266   3.486   5.407  1.6930  0.5008  0.3293
  993MOL0     O33921  10.031   0.500   0.668  0.0924  0.0908 -0.7003
  993MOL0     C33922   9.998   0.587   0.754 -0.0340  0.7299  0.4366
  993MOL0     O33923  10.076   0.684   0.790  0.0498 -0.2479 -0.2998
  993MOL0     C33924  10.199   0.693   0.736 -0.3174 -0.1317 -0.7771
  993MOL0     C33925  10.308   0.612   0.790  0.7409  0.2899  0.6577
  993MOL0     C33926  10.445   0.643   0.747 -0.2156 -1.3879  0.8741
  993MOL0     C33927  10.463   0.756   0.658  0.1330  0.2853  0.4634
  993MOL0     O33928  10.594   0.790   0.639 -0.3391 -0.0780 -0.1930
  993MOL0     C33929  10.622   0.919   0.575  0.0478 -0.3376  0.0020
  993MOL0     C33930  10.767   0.947   0.564  0.1095 -0.0010 -0.6339
  993MOL0     C33931  10.799   1.076   0.492 -0.8691 -0.5300  0.8114
  993MOL0     C33932  10.948   1.108   0.502  0.2381  0.0201 -0.5298
  993MOL0     C33933  10.971   1.242   0.425 -0.7737  0.8456  0.7780
  993MOL0     C33934  11.118   1.251   0.389  0.2175  0.1932  0.9088
  993MOL0     C33935  11.162   1.363   0.295  0.8880 -0.6006  1.1805
  993MOL0     C33936  11.189   1.497   0.364  0.4840  0.2504  0.9903
  993MOL0     N33937  11.253   1.606   0.286 -0.5558  0.2137 -0.0936
  993MOL0     C33938  11.390   1.612   0.245 -0.5398 -0.3211  0.6208
  993MOL0     C33939  11.401   1.747   0.216 -0.8817  0.3163 -0.0436
  993MOL0     C33940  11.530   1.817   0.169 -0.6255  0.9974 -0.3287
  993MOL0     C33941  11.655   1.748   0.231  1.0860  1.0374  0.4325
  993MOL0     C33942  11.773   1.848   0.249  0.6501  0.3114 -0.2358
  993MOL0     C33943  11.852   1.829   0.379 -0.1706 -0.2799  0.4869
  993MOL0     O33944  11.925   1.705   0.357  0.4274  0.2136  0.2912
  993MOL0     C33945  12.060   1.714   0.370  0.5575  0.8972  0.6470
  993MOL0     C33946  12.125   1.623   0.295  0.3492  0.2600 -0.0237
  993MOL0     C33947  12.266   1.616   0.299 -0.4511  0.3500  0.3824
  993MOL0     C33948  12.344   1.706   0.370 -0.0409  0.2232  0.7965
  993MOL0     C33949  12.488   1.705   0.360  0.2127  0.0286  0.3282
  993MOL0     O33950  12.549   1.673   0.237  0.2080  0.1451 -0.5696
  993MOL0     C33951  12.671   1.722   0.216 -0.0341 -0.4169 -0.7161
  993MOL0     C33952  12.793   1.662   0.245 -0.6076  0.6924 -0.0313
  993MOL0     C33953  12.916   1.731   0.205  0.1284 -0.5199  0.3718
  993MOL0     C33954  12.909   1.862   0.144  0.3935 -1.2115  0.1717
  993MOL0     O33955  13.031   1.911   0.108 -0.7948 -0.3157  0.6179
  993MOL0     C33956  13.047   2.040   0.045  0.2163  0.0537 -0.2594
  993MOL0     C33957  13.188   2.091   0.043  0.6139  0.8921  0.6154
  993MOL0     C33958  13.292   1.990  -0.014  0.1515  0.4121 -0.0556
  993MOL0     C33959  13.434   2.035   0.006  1.2353  0.3639  0.0087
  993MOL0     C33960  13.534   1.945  -0.056  0.1324 -0.3283  0.0249
  993MOL0     C33961  13.560   1.821   0.014 -0.3036  0.8152  0.2306
  993MOL0     C33962  13.636   1.719  -0.069  0.4330 -0.0756  0.2272
  993MOL0     C33963  13.560   1.655  -0.180  0.1449  0.4824 -0.4819
  993MOL0    Cl33964  13.683   1.572  -0.283 -0.5869 -0.1497 -0.0273
  993MOL0     C33965  12.784   1.910   0.111 -0.5269 -0.8022  0.2086
  993MOL0     C33966  12.664   1.844   0.149  0.5888 -0.5062  0.8632
  993MOL0     O33967  12.550   1.739   0.461 -0.0189  0.0634  0.1943
  993MOL0     C33968  12.271   1.798   0.447  0.2038 -0.1817 -0.3424
  993MOL0     C33969  12.136   1.797   0.452  0.2598 -0.6045  0.5537
  993MOL0     N33970  11.275   1.812   0.225 -0.0460  0.1445 -0.0548
  993MOL0     N33971  11.189   1.720   0.259  0.1888 -0.3196 -0.7901
  993MOL0     C33972  10.346   0.826   0.608  0.3146 -0.4038  0.1235
  993MOL0     C33973  10.220   0.793   0.648 -0.8696 -0.1702  0.5889
  993MOL0     C33974   9.865   0.571   0.813  0.9602 -0.6722 -0.0409
  993MOL0     C33975   9.819   0.439   0.823  0.2876 -0.1079 -0.4578
  993MOL0     C33976   9.691   0.420   0.878  0.6415  0.1994 -0.8417
  993MOL0     C33977   9.609   0.523   0.928  0.1809  0.2450 -0.1247
  993MOL0     O33978   9.486   0.481   0.984 -1.0588  0.4286  0.2414
  993MOL0     C33979   9.396   0.587   1.013 -0.1101  0.5411 -0.0995
  993MOL0     C33980   9.263   0.531   1.080  0.4661 -0.2894 -0.4876
  993MOL0     C33981   9.147   0.486   0.988  0.3902  0.0623  0.0665
  993MOL0     C33982   9.045   0.405   1.064  0.1040  0.9560  0.0519
  993MOL0     C33983   8.934   0.373   0.976  0.7148  0.3239  0.4629
  993MOL0     C33984   8.855   0.371   0.888 -0.1899 -0.2717 -0.5728
  993MOL0     C33985   9.665   0.654   0.922  0.1869 -0.7688 -1.1817
  993MOL0     C33986   9.789   0.674   0.868  0.2518 -0.5102  0.3158
  993MOL0     C33987   9.824   0.828   0.853 -0.3586 -0.4601 -1.2725
  993MOL0     H33988  10.289   0.536   0.864 -1.9675  1.8023  1.6423
  993MOL0     H33989  10.529   0.582   0.779 -0.7702 -3.1183 -0.7483
  993MOL0     H33990  10.590   0.919   0.470 -1.2876  0.8441  0.3745
  993MOL0     H33991  10.565   1.000   0.620 -2.2870 -1.2330 -1.1484
  993MOL0     H33992  10.831   0.863   0.535  0.4442 -0.1087  0.3718
  993MOL0     H33993  10.802   0.973   0.664  1.7908  3.1059 -1.9080
  993MOL0     H33994  10.737   1.150   0.543  1.4023  1.5997  0.6600
  993MOL0     H33995  10.769   1.081   0.387  2.0524  0.5907 -0.0680
  993MOL0     H33996  10.980   1.116   0.607 -1.2229  0.5467 -0.1087
  993MOL0     H33997  11.001   1.028   0.450 -1.1643 -1.3720  0.1173
  993MOL0     H33998  10.921   1.253   0.329 -0.0223  3.3509  0.5964
  993MOL0     H33999  10.929   1.326   0.481 -3.4100  0.2014 -0.0458
  993MOL0     H34000  11.176   1.263   0.481  1.3970  0.9956  0.0902
  993MOL0     H34001  11.154   1.157   0.347  0.0022  0.6820 -0.4544
  993MOL0     H34002  11.100   1.378   0.207  4.2771 -1.4228 -1.5811
  993MOL0     H34003  11.255   1.325   0.251  0.7931 -2.8650  2.7272
  993MOL0     H34004  11.088   1.523   0.397  0.2395 -0.3725  0.7572
  993MOL0     H34005  11.256   1.477   0.448  0.6360  1.3911  1.1465
  993MOL0     H34006  11.476   1.545   0.237 -0.1446  0.4330 -3.9073
  993MOL0     H34007  11.524   1.821   0.060  2.1293  1.4260 -0.5226
  993MOL0     H34008  11.524   1.917   0.213  1.5810  0.3808  1.5489
  993MOL0     H34009  11.629   1.707   0.329  0.9590  1.4415  0.5689
  993MOL0     H34010  11.684   1.672   0.158 -1.1298  2.0051 -1.6147
  993MOL0     H34011  11.727   1.948   0.250  0.8434  0.4364 -1.7508
  993MOL0     H34012  11.839   1.850   0.162 -1.0257 -0.4578 -1.5667
  993MOL0     H34013  11.781   1.814   0.461  1.6716 -1.9828  1.8657
  993MOL0     H34014  11.910   1.922   0.391 -0.5273 -0.1536  1.3005
  993MOL0     H34015  12.063   1.562   0.229 -0.1343 -0.4352  1.0395
  993MOL0     H34016  12.311   1.552   0.224 -2.0229 -2.2924  1.5191
  993MOL0     H34017  12.792   1.563   0.291 -1.6121  0.7988  0.2074
  993MOL0     H34018  13.018   1.693   0.206  1.1734  1.6181 -3.4964
  993MOL0     H34019  13.009   2.023  -0.056  0.8470 -1.9858 -0.2010
  993MOL0     H34020  12.994   2.112   0.108  1.1523  0.5991 -0.0877
  993MOL0     H34021  13.187   2.180  -0.020  1.7469  0.2502 -0.3450
  993MOL0     H34022  13.210   2.119   0.146  0.6770  0.6022  0.6828
  993MOL0     H34023  13.288   1.894   0.037 -1.6413 -0.2923 -1.3800
  993MOL0     H34024  13.279   1.966  -0.120 -0.3701 -0.8830  0.2874
  993MOL0     H34025  13.456   2.052   0.111  0.4438 -1.4079  0.4919
  993MOL0     H34026  13.429   2.133  -0.044  0.9191  0.8592  1.0000
  993MOL0     H34027  13.627   2.002  -0.068 -1.2159  1.8394 -0.6950
  993MOL0     H34028  13.497   1.932  -0.158 -0.8247  2.9226 -0.1705
  993MOL0     H34029  13.615   1.835   0.108 -0.4997 -0.1513  0.5037
  993MOL0     H34030  13.465   1.772   0.038 -1.1213  1.9112 -0.6770
  993MOL0     H34031  13.674   1.653   0.009 -0.4402  0.6035  1.2414
  993MOL0     H34032  13.723   1.769  -0.113 -0.0821 -0.1483 -0.9021
  993MOL0     H34033  13.488   1.584  -0.139  0.4578  0.8984  0.8275
  993MOL0     H34034  13.500   1.720  -0.244 -0.7562 -0.1529 -0.3099
  993MOL0     H34035  12.780   2.004   0.056 -1.0171 -0.4799  0.7760
  993MOL0     H34036  12.566   1.889   0.137 -0.2622 -2.1191  1.5259
  993MOL0     H34037  12.328   1.865   0.511 -1.5814 -0.9389  2.1935
  993MOL0     H34038  12.088   1.861   0.525 -1.7749  0.3151 -1.4899
  993MOL0     H34039  10.360   0.906   0.537 -1.0666 -2.2146 -2.3290
  993MOL0     H34040  10.135   0.850   0.611 -0.4481 -0.4665 -0.9079
  993MOL0     H34041   9.882   0.363   0.777  1.2903  1.2418 -1.4098
  993MOL0     H34042   9.645   0.321   0.873  3.0177 -0.9274 -2.6087
  993MOL0     H34043   9.363   0.632   0.919 -1.3389  1.3602  0.6860
  993MOL0     H34044   9.446   0.668   1.069  3.2310 -0.8649 -0.7924
  993MOL0     H34045   9.231   0.622   1.131 -0.8848 -0.6391 -0.6724
  993MOL0     H34046   9.281   0.460   1.161 -1.9862 -0.2115  0.2276
  993MOL0     H34047   9.177   0.421   0.905 -1.9334  0.4328 -1.1267
  993MOL0     H34048   9.084   0.565   0.948 -1.3815 -1.0579  0.5549
  993MOL0     H34049   9.092   0.314   1.102  2.6308  2.9055  1.9547
  993MOL0     H34050   9.006   0.465   1.147 -3.0438 -1.0794  0.2242
  993MOL0     H34051   8.777   0.364   0.814 -0.9065 -0.4292  0.1743
  993MOL0     H34052   9.617   0.742   0.964 -0.3904 -1.9115  0.6955
  993MOL0     H34053   9.810   0.857   0.749 -1.7428 -1.3991 -1.3922
  993MOL0     H34054   9.761   0.887   0.921  0.5481 -0.6726 -0.2217
  993MOL0     H34055   9.919   0.864   0.893 -0.6192  0.6093 -1.5960
  994MOL0     O34056   2.847   0.303  10.079 -0.5769 -1.1129 -0.4762
  994MOL0     C34057   2.797   0.385   9.997 -0.5085 -0.2340  0.3287
  994MOL0     O34058   2.874   0.434   9.895  0.0520 -0.4981  0.1750
  994MOL0     C34059   2.994   0.377   9.872  0.1295  0.2703  0.2958
  994MOL0     C34060   3.111   0.446   9.855 -0.6554 -0.6037  1.1257
  994MOL0     C34061   3.229   0.393   9.798  0.5540 -0.2917 -0.4622
  994MOL0     C34062   3.239   0.258   9.759  0.5989  0.0325  0.8652
  994MOL0     O34063   3.344   0.195   9.708  0.0400 -0.5507 -0.1414
  994MOL0     C34064   3.458   0.276   9.674  0.2727  0.1968 -0.1118
  994MOL0     C34065   3.566   0.191   9.602  0.0302 -0.5854  0.4196
  994MOL0     C34066   3.651   0.093   9.688  0.7678  0.0317 -0.2037
  994MOL0     C34067   3.715   0.155   9.809 -0.4277  0.5983  0.1494
  994MOL0     C34068   3.834   0.072   9.861 -0.5013 -0.5490 -0.0519
  994MOL0     C34069   3.878   0.103  10.007 -0.2306  0.1044  0.2761
  994MOL0     C34070   4.003   0.034  10.036  0.2443  0.5621  0.3333
  994MOL0     C34071   4.040   0.032  10.190 -0.5914  0.0027  0.4794
  994MOL0     N34072   4.094   0.159  10.237 -0.7776 -0.2082  0.2121
  994MOL0     C34073   4.229   0.173  10.229 -0.4019  0.1654  0.6175
  994MOL0     C34074   4.246   0.298  10.273  0.1044  0.0137 -0.2604
  994MOL0     C34075   4.377   0.369  10.253 -0.4477 -0.6887 -0.1654
  994MOL0     C34076   4.483   0.328  10.363 -0.2949 -0.4358  1.0273
  994MOL0     C34077   4.599   0.433  10.352  0.1807 -0.8481  0.1435
  994MOL0     C34078   4.719   0.402  10.436  0.4762 -0.1970 -0.9870
  994MOL0     O34079   4.771   0.276  10.396  0.6709 -0.8422  0.7273
  994MOL0     C34080   4.908   0.261  10.406 -0.1110  0.4205  0.7649
  994MOL0     C34081   4.968   0.168  10.323  0.0998 -0.3969 -0.3464
  994MOL0     C34082   5.110   0.156  10.310  0.1875  0.7872  0.0571
  994MOL0     C34083   5.197   0.240  10.382 -0.0136  0.6354  0.2306
  994MOL0     C34084   5.342   0.231  10.361 -0.0190 -1.0683  0.0003
  994MOL0     O34085   5.385   0.162  10.254 -0.2797 -0.3014 -0.0327
  994MOL0     C34086   5.519   0.121  10.258  0.6261 -0.2991 -0.1789
  994MOL0     C34087   5.591   0.157  10.152  0.1301 -0.3195 -0.5201
  994MOL0     C34088   5.726   0.111  10.147 -0.0433  0.4221  0.8048
  994MOL0     C34089   5.788   0.036  10.254  0.4368  0.5154 -0.1141
  994MOL0     O34090   5.929   0.010  10.255 -0.3356  0.6333  0.1620
  994MOL0     C34091   5.998  -0.001  10.381  0.5022 -0.2078 -0.0850
  994MOL0     C34092   6.142  -0.048  10.360  0.4301 -0.9149 -0.3193
  994MOL0     C34093   6.216  -0.082  10.488  0.2391 -0.1251 -0.2184
  994MOL0     C34094   6.351  -0.123  10.446  0.4124 -1.0641 -0.1260
  994MOL0     C34095   6.420  -0.180  10.576  1.1332  0.0964  0.4749
  994MOL0     C34096   6.574  -0.203  10.547 -0.5843 -0.4457 -0.1679
  994MOL0     C34097   6.627  -0.322  10.630  1.1492  0.4886  0.2143
  994MOL0     C34098   6.660  -0.283  10.770 -0.1266  0.3005  0.1223
  994MOL0    Cl34099   6.716  -0.428  10.858  0.0496 -0.2230  0.1608
  994MOL0     C34100   5.698   0.001  10.356 -0.2166 -0.3106  0.0201
  994MOL0     C34101   5.568   0.043  10.358  0.1726  0.6199 -0.0465
  994MOL0     O34102   5.415   0.286  10.449 -0.5999 -0.9858  0.4513
  994MOL0     C34103   5.135   0.332  10.470 -0.3485 -0.4150  0.8189
  994MOL0     C34104   5.001   0.343  10.479  1.3798  0.2809 -0.9153
  994MOL0     N34105   4.119   0.348  10.324 -0.5364 -0.2599  0.2257
  994MOL0     N34106   4.029   0.264  10.291  0.8192 -0.5859 -0.1988
  994MOL0     C34107   3.116   0.177   9.786 -0.2153 -0.4055  0.7946
  994MOL0     C34108   3.001   0.240   9.843 -0.6812  0.2559  0.5359
  994MOL0     C34109   2.652   0.421  10.001 -0.2188 -0.4492 -0.0971
  994MOL0     C34110   2.572   0.313  10.040  0.3970 -0.6801 -0.2166
  994MOL0     C34111   2.429   0.330  10.042  0.5647 -0.2367 -0.3781
  994MOL0     C34112   2.369   0.456  10.012 -0.7714 -0.8493  0.2413
  994MOL0     O34113   2.238   0.488   9.999 -0.5561 -0.3052  0.1119
  994MOL0     C34114   2.141   0.389  10.032  0.1299  0.5510  0.2865
  994MOL0     C34115   2.093   0.289   9.925 -0.2940  0.3621 -0.2878
  994MOL0     C34116   2.031   0.375   9.811  0.6485 -0.3860 -0.1527
  994MOL0     C34117   1.979   0.280   9.692 -0.0077 -0.2986  0.1045
  994MOL0     C34118   1.923   0.358   9.576 -0.1212 -1.2063  0.8882
  994MOL0     C34119   1.860   0.404   9.485  0.4051  0.9546  0.3484
  994MOL0     C34120   2.454   0.558   9.963  0.2566  0.3980 -0.6264
  994MOL0     C34121   2.591   0.540   9.957 -0.2075 -0.7922 -0.0360
  994MOL0     C34122   2.668   0.661   9.914  0.0248 -0.0239  0.2081
  994MOL0     H34123   3.106   0.554   9.859  1.7531 -0.3983  0.2859
  994MOL0     H34124   3.310   0.461   9.771 -0.7850  1.4197 -0.3338
  994MOL0     H34125   3.427   0.361   9.612 -0.6754  1.3288  1.8219
  994MOL0     H34126   3.497   0.321   9.766 -2.0036  1.2029  0.4174
  994MOL0     H34127   3.632   0.262   9.551 -1.6734  0.4586 -0.4230
  994MOL0     H34128   3.505   0.143   9.525 -0.8386 -0.8946  1.2805
  994MOL0     H34129   3.727   0.050   9.623  0.2215 -1.1004 -0.1278
  994MOL0     H34130   3.588   0.008   9.716 -0.4110 -0.6526 -4.1896
  994MOL0     H34131   3.769   0.241   9.767  2.1535 -1.7989 -1.8641
  994MOL0     H34132   3.643   0.182   9.886 -0.8515 -2.1006  0.7886
  994MOL0     H34133   3.809  -0.033   9.846  3.5727 -1.9751  1.7644
  994MOL0     H34134   3.921   0.092   9.798  0.6285 -3.1962  0.5617
  994MOL0     H34135   3.880   0.212   9.995 -1.4323  0.6668  3.8530
  994MOL0     H34136   3.805   0.073  10.083  2.3523  0.9033  3.2829
  994MOL0     H34137   4.079   0.079   9.972  0.1853 -0.4431 -0.4804
  994MOL0     H34138   3.993  -0.072  10.009  0.3374  0.5451  0.3644
  994MOL0     H34139   3.961  -0.009  10.253  1.0059  0.4725  2.9385
  994MOL0     H34140   4.115  -0.046  10.208  0.3326  0.8977  0.6677
  994MOL0     H34141   4.301   0.107  10.181 -0.3161  1.6903 -1.5006
  994MOL0     H34142   4.407   0.354  10.148 -0.2713 -0.6047 -0.1269
  994MOL0     H34143   4.342   0.472  10.255  1.8694  0.1584  2.0604
  994MOL0     H34144   4.445   0.346  10.464  1.9462  3.0336  1.4149
  994MOL0     H34145   4.527   0.229  10.352  0.9523  0.2483 -0.4350
  994MOL0     H34146   4.558   0.532  10.375  1.2872 -0.0357 -1.1645
  994MOL0     H34147   4.635   0.444  10.249  2.0129 -0.2944  0.8028
  994MOL0     H34148   4.692   0.403  10.542 -1.9950 -0.5893 -1.5517
  994MOL0     H34149   4.794   0.481  10.423  0.7428 -0.0499  1.0847
  994MOL0     H34150   4.903   0.095  10.275 -0.3402  0.8550 -1.7478
  994MOL0     H34151   5.147   0.073  10.251  1.6216  1.9126 -0.6909
  994MOL0     H34152   5.558   0.213  10.065  1.9930  1.9162  0.0934
  994MOL0     H34153   5.787   0.142  10.063 -1.5133  0.7078 -0.2049
  994MOL0     H34154   5.987   0.102  10.416 -3.2162 -0.5832  0.3165
  994MOL0     H34155   5.948  -0.071  10.449 -0.5573  0.6238  0.0225
  994MOL0     H34156   6.131  -0.132  10.291 -4.8527 -0.0950 -0.9016
  994MOL0     H34157   6.186   0.042  10.318  0.3279 -0.2301  0.9810
  994MOL0     H34158   6.227   0.012  10.543  0.9140 -0.5285  0.3518
  994MOL0     H34159   6.164  -0.146  10.560 -2.0396  3.3082  1.4520
  994MOL0     H34160   6.390  -0.034  10.397 -1.0464 -0.5914 -0.4780
  994MOL0     H34161   6.351  -0.200  10.368  0.7793 -4.3339  2.8032
  994MOL0     H34162   6.368  -0.273  10.601 -0.7999  0.3492 -2.1534
  994MOL0     H34163   6.404  -0.106  10.656 -0.5156 -0.1824  0.4327
  994MOL0     H34164   6.586  -0.229  10.442 -0.6452  0.9626 -0.5355
  994MOL0     H34165   6.634  -0.112  10.560  0.7467 -0.7724 -3.1505
  994MOL0     H34166   6.719  -0.355  10.582 -0.0160 -0.0989 -1.7352
  994MOL0     H34167   6.558  -0.406  10.621  1.4402  0.4265 -1.9897
  994MOL0     H34168   6.755  -0.228  10.770  1.0640 -1.6385  1.7491
  994MOL0     H34169   6.578  -0.226  10.814 -1.1924 -1.4526  0.4715
  994MOL0     H34170   5.730  -0.046  10.448  3.3903  0.7712 -0.5063
  994MOL0     H34171   5.505   0.012  10.441 -1.2043  2.4183 -0.3565
  994MOL0     H34172   5.189   0.386  10.546 -1.1837 -1.5885  2.2949
  994MOL0     H34173   4.955   0.396  10.562  0.9836 -0.7754 -0.4399
  994MOL0     H34174   3.112   0.069   9.775  0.5310 -0.4172  0.5936
  994MOL0     H34175   2.915   0.177   9.864  1.4671 -2.0135  3.6050
  994MOL0     H34176   2.613   0.221  10.082 -0.6148  0.0762  2.6536
  994MOL0     H34177   2.377   0.245  10.086  1.1793  0.0733  1.0022
  994MOL0     H34178   2.048   0.434  10.069  0.3754 -0.4054  2.2111
  994MOL0     H34179   2.173   0.334  10.121 -0.6971  1.4189  1.1499
  994MOL0     H34180   2.016   0.220   9.962  3.0163 -2.4480  1.8814
  994MOL0     H34181   2.185   0.240   9.891  1.6634  2.8837  1.0717
  994MOL0     H34182   2.103   0.449   9.775  0.5686  0.0367  0.5379
  994MOL0     H34183   1.949   0.432   9.854  1.2945  0.3842  0.0921
  994MOL0     H34184   2.064   0.231   9.644  1.8851  1.4689  1.5191
  994MOL0     H34185   1.899   0.215   9.729 -0.2175  0.9917  2.0303
  994MOL0     H34186   1.813   0.461   9.407  0.2953  1.2039  0.5943
  994MOL0     H34187   2.409   0.651   9.930 -1.2094 -0.0910 -0.1164
  994MOL0     H34188   2.626   0.751   9.961 -3.4366 -2.3884  2.0688
  994MOL0     H34189   2.767   0.658   9.961 -0.7542 -1.8674  1.8606
  994MOL0     H34190   2.668   0.677   9.806  1.7902 -0.8043  0.0706
  995MOL0     O34191   0.606   7.284  11.241 -0.5286 -0.4120  0.6679
  995MOL0     C34192   0.551   7.241  11.141 -0.0393  0.2581 -0.0238
  995MOL0     O34193   0.545   7.115  11.101  0.7017  0.2648  0.2603
  995MOL0     C34194   0.627   7.013  11.158 -0.0238 -0.3187  0.2571
  995MOL0     C34195   0.582   6.877  11.174  0.2176 -0.9984 -0.3322
  995MOL0     C34196   0.653   6.773  11.224  0.8895  0.8254 -0.5362
  995MOL0     C34197   0.778   6.802  11.280 -0.1461  0.7522  0.0306
  995MOL0     O34198   0.834   6.691  11.332 -0.3704  0.9184  0.8009
  995MOL0     C34199   0.956   6.708  11.415 -0.2480 -0.1278 -1.0566
  995MOL0     C34200   1.087   6.710  11.334  0.7133  0.6260 -0.1709
  995MOL0     C34201   1.224   6.709  11.414  0.5579 -0.6211 -0.0806
  995MOL0     C34202   1.327   6.631  11.344 -0.7701  0.6818 -0.5453
  995MOL0     C34203   1.433   6.731  11.269  0.1271  0.4722  0.4483
  995MOL0     C34204   1.549   6.653  11.192 -0.1169 -0.5135  0.6060
  995MOL0     C34205   1.649   6.590  11.297 -0.4159 -0.0096 -0.8151
  995MOL0     C34206   1.722   6.694  11.384 -1.0758  0.1691 -0.1611
  995MOL0     N34207   1.840   6.633  11.445  0.2710 -0.4345  1.0471
  995MOL0     C34208   1.938   6.580  11.364  0.2084 -0.0992 -0.2785
  995MOL0     C34209   1.998   6.483  11.442 -0.1479 -0.4958 -0.1032
  995MOL0     C34210   2.118   6.399  11.398 -0.3163 -0.3470 -0.9953
  995MOL0     C34211   2.247   6.438  11.469 -0.2130  0.0662  0.4378
  995MOL0     C34212   2.359   6.367  11.388  0.0324 -0.3433 -0.1272
  995MOL0     C34213   2.502   6.387  11.457  0.2438 -1.1589  0.6303
  995MOL0     O34214   2.532   6.531  11.438  0.3651 -1.0192 -0.1394
  995MOL0     C34215   2.624   6.592  11.521  0.1748  0.4517  0.0357
  995MOL0     C34216   2.638   6.724  11.515 -0.3741  0.3801 -0.9469
  995MOL0     C34217   2.726   6.801  11.605  0.3704  0.1218  0.5360
  995MOL0     C34218   2.790   6.743  11.711  0.8592 -0.4888 -0.6879
  995MOL0     C34219   2.902   6.802  11.790  0.3207 -0.1044  0.3400
  995MOL0     O34220   2.983   6.724  11.880  0.3711 -0.1376  0.3749
  995MOL0     C34221   3.097   6.779  11.928  0.4302  0.7895 -0.1227
  995MOL0     C34222   3.210   6.780  11.845 -0.3306 -0.2801 -0.3103
  995MOL0     C34223   3.329   6.830  11.899  0.7535 -0.0525 -0.5545
  995MOL0     C34224   3.345   6.862  12.037 -0.1452 -0.1248  0.9488
  995MOL0     O34225   3.466   6.894  12.098  0.4007  0.0523  0.8990
  995MOL0     C34226   3.589   6.899  12.027 -0.4512  0.7223 -0.0641
  995MOL0     C34227   3.655   6.761  12.022 -0.7166 -0.2677 -0.6629
  995MOL0     C34228   3.804   6.756  11.971  0.9006  0.7717  0.2131
  995MOL0     C34229   3.913   6.822  12.053  0.0789  0.1027 -0.0019
  995MOL0     C34230   4.048   6.827  11.976  0.6253 -0.1401 -0.2117
  995MOL0     C34231   4.125   6.697  11.977  0.7584  0.8857 -0.1989
  995MOL0     C34232   4.266   6.714  11.918  0.6228 -0.4727 -0.4433
  995MOL0     C34233   4.273   6.678  11.769  0.0663 -1.2521  0.7315
  995MOL0    Cl34234   4.421   6.726  11.683 -0.1990  0.1686  0.3635
  995MOL0     C34235   3.229   6.860  12.112 -0.7219  0.9002  0.5421
  995MOL0     C34236   3.103   6.821  12.058  1.0244 -0.2134 -0.1406
  995MOL0     O34237   2.918   6.922  11.765 -0.1187 -0.3534  0.5781
  995MOL0     C34238   2.774   6.601  11.712 -0.1085 -0.6010  0.7838
  995MOL0     C34239   2.697   6.525  11.626  0.1195  0.1344  1.2163
  995MOL0     N34240   1.938   6.493  11.572  0.3149  0.6832  0.6515
  995MOL0     N34241   1.836   6.583  11.571  0.5358 -0.0841 -0.0338
  995MOL0     C34242   0.830   6.929  11.275 -0.6249  0.1702 -0.2605
  995MOL0     C34243   0.754   7.034  11.221 -0.6331  0.8318  0.6279
  995MOL0     C34244   0.477   7.334  11.044 -0.2821 -0.1785  0.1106
  995MOL0     C34245   0.486   7.319  10.906 -1.0199 -0.5417  0.4169
  995MOL0     C34246   0.440   7.415  10.816 -0.2822  0.1647  0.3079
  995MOL0     C34247   0.384   7.535  10.862 -0.5679 -0.7064  0.3559
  995MOL0     O34248   0.364   7.629  10.766 -0.7742 -0.2362 -0.4420
  995MOL0     C34249   0.349   7.769  10.797 -0.3040 -0.0525  0.7294
  995MOL0     C34250   0.195   7.779  10.823  0.2289 -0.7633  0.8017
  995MOL0     C34251   0.112   7.717  10.708  0.1868  0.1620  0.1011
  995MOL0     C34252  -0.007   7.648  10.759 -0.2576 -0.2423 -0.3223
  995MOL0     C34253  -0.079   7.620  10.642  0.6722  0.2271  0.7667
  995MOL0     C34254  -0.131   7.601  10.539 -0.1082 -0.0085  0.0709
  995MOL0     C34255   0.376   7.553  11.001  0.0674 -0.6318 -0.2781
  995MOL0     C34256   0.412   7.454  11.094  0.1054  0.3296 -1.1373
  995MOL0     C34257   0.373   7.474  11.245 -0.6027  0.8053  0.9014
  995MOL0     H34258   0.480   6.855  11.145 -0.2662 -0.0542  0.5596
  995MOL0     H34259   0.603   6.678  11.234  0.7016  0.7790 -1.7685
  995MOL0     H34260   0.950   6.794  11.483 -1.2390 -0.9179 -0.1203
  995MOL0     H34261   0.963   6.619  11.477 -0.2646 -0.2435 -1.2199
  995MOL0     H34262   1.086   6.798  11.269  1.6524  0.5718 -0.2757
  995MOL0     H34263   1.071   6.622  11.272 -1.5324  0.6168  0.3346
  995MOL0     H34264   1.196   6.661  11.508 -0.7144  1.1181  0.4932
  995MOL0     H34265   1.258   6.810  11.438  1.0548 -0.6142 -0.7588
  995MOL0     H34266   1.379   6.557  11.406  0.5483 -0.8644 -3.2506
  995MOL0     H34267   1.281   6.566  11.269 -0.7694  0.5608 -0.4410
  995MOL0     H34268   1.369   6.774  11.191  0.8274 -1.4180 -1.2707
  995MOL0     H34269   1.469   6.812  11.333 -1.4333  1.4121  0.2022
  995MOL0     H34270   1.498   6.578  11.131 -2.8046  2.2244 -0.8258
  995MOL0     H34271   1.605   6.726  11.134  0.3277 -0.5962  0.9307
  995MOL0     H34272   1.720   6.537  11.232  0.4099 -1.7260  1.3814
  995MOL0     H34273   1.593   6.525  11.365  1.6957 -0.6651  0.3686
  995MOL0     H34274   1.752   6.779  11.322 -1.9946 -0.2356 -1.1861
  995MOL0     H34275   1.650   6.735  11.455 -1.6343  1.8576 -1.6254
  995MOL0     H34276   1.970   6.604  11.263 -1.7635 -0.2767 -1.0002
  995MOL0     H34277   2.090   6.301  11.438  4.2700 -1.0391  1.1367
  995MOL0     H34278   2.136   6.415  11.291 -0.1138  0.0294 -0.9044
  995MOL0     H34279   2.262   6.546  11.456  3.0301 -0.3774 -0.5253
  995MOL0     H34280   2.246   6.413  11.575  0.5277  0.5915  0.5822
  995MOL0     H34281   2.367   6.396  11.283  1.1618  2.2212  0.5881
  995MOL0     H34282   2.332   6.261  11.388  0.2847 -0.4935  3.1363
  995MOL0     H34283   2.586   6.339  11.406  0.5281  2.7518 -3.2397
  995MOL0     H34284   2.498   6.353  11.561  1.7024 -1.5994  0.5640
  995MOL0     H34285   2.586   6.783  11.439  0.0607  0.4808 -1.1692
  995MOL0     H34286   2.738   6.908  11.591  1.7504 -0.1234 -0.2992
  995MOL0     H34287   3.206   6.731  11.748 -0.0076 -0.6537 -0.1302
  995MOL0     H34288   3.421   6.842  11.843  2.9465 -0.0714  2.8091
  995MOL0     H34289   3.590   6.921  11.920 -0.5873 -2.0613 -0.7167
  995MOL0     H34290   3.639   6.964  12.099  0.2411 -2.4123  2.5653
  995MOL0     H34291   3.661   6.722  12.125 -0.0709  0.1584 -0.5335
  995MOL0     H34292   3.595   6.692  11.963 -1.8274 -2.1880  2.4259
  995MOL0     H34293   3.833   6.650  11.964 -0.3830  0.5031 -2.1897
  995MOL0     H34294   3.807   6.809  11.875 -0.7760  1.7046  0.6521
  995MOL0     H34295   3.921   6.763  12.145  1.9312  0.1746 -0.0644
  995MOL0     H34296   3.900   6.928  12.079 -1.6370  0.1285 -0.8462
  995MOL0     H34297   4.106   6.896  12.039  1.0102 -1.4549  0.9207
  995MOL0     H34298   4.018   6.869  11.880 -1.9000 -3.6998 -1.1556
  995MOL0     H34299   4.149   6.658  12.076  2.4219  3.5868  0.5414
  995MOL0     H34300   4.071   6.625  11.914  1.6822 -0.9246  0.9847
  995MOL0     H34301   4.335   6.651  11.976 -0.9225  1.1591  3.4918
  995MOL0     H34302   4.294   6.819  11.930 -0.8660 -0.1970  0.9398
  995MOL0     H34303   4.257   6.571  11.751  0.0778 -0.7017 -3.4701
  995MOL0     H34304   4.187   6.716  11.713  2.7320  0.0473 -2.8546
  995MOL0     H34305   3.234   6.888  12.217  0.7072  2.9804 -0.0252
  995MOL0     H34306   3.015   6.813  12.121  1.3015  0.7456  0.3872
  995MOL0     H34307   2.822   6.540  11.789  1.9628 -0.5854 -0.4251
  995MOL0     H34308   2.690   6.416  11.631  0.3299 -0.0395 -1.1776
  995MOL0     H34309   0.926   6.944  11.323 -0.3737 -1.8094 -0.0688
  995MOL0     H34310   0.796   7.134  11.217 -0.7226  0.8861  0.9845
  995MOL0     H34311   0.551   7.239  10.872  1.6451  1.1828  1.1403
  995MOL0     H34312   0.460   7.396  10.711 -2.2132 -0.5368  0.0210
  995MOL0     H34313   0.369   7.834  10.711 -0.7772 -1.3298 -0.3848
  995MOL0     H34314   0.415   7.790  10.881  2.1468 -0.0076 -1.1006
  995MOL0     H34315   0.165   7.880  10.854  1.6704 -0.2864  0.7477
  995MOL0     H34316   0.173   7.723  10.914 -0.8429 -2.4330 -0.4194
  995MOL0     H34317   0.177   7.656  10.644  0.6327  1.0561 -0.3129
  995MOL0     H34318   0.086   7.797  10.638  0.8645  0.0246 -0.3205
  995MOL0     H34319   0.027   7.555  10.807  0.8302  0.0271 -0.5461
  995MOL0     H34320  -0.064   7.710  10.828  1.9975  2.3889 -0.6545
  995MOL0     H34321  -0.168   7.569  10.443  3.8546  0.5535 -1.8321
  995MOL0     H34322   0.326   7.638  11.047  0.3886 -0.8298  0.4528
  995MOL0     H34323   0.345   7.376  11.285  1.2854  0.6183  1.8832
  995MOL0     H34324   0.458   7.519  11.298  3.2405 -3.9489 -0.5054
  995MOL0     H34325   0.286   7.537  11.267  0.2211  1.8323  1.3328
  996MOL0     O34326  11.009   7.727   9.959 -0.2307 -0.2385 -0.6359
  996MOL0     C34327  10.991   7.762   9.846  0.0367  0.5149  1.1698
  996MOL0     O34328  11.083   7.768   9.742  0.3902  0.1353 -0.1394
  996MOL0     C34329  11.212   7.770   9.785  0.0162  0.7321  0.1760
  996MOL0     C34330  11.285   7.657   9.801  0.0645  0.3870  0.5782
  996MOL0     C34331  11.417   7.669   9.848 -0.1783  0.0916  1.0669
  996MOL0     C34332  11.478   7.789   9.875  0.4502  0.2554  0.0317
  996MOL0     O34333  11.599   7.799   9.932  0.2235 -0.3280 -0.7532
  996MOL0     C34334  11.700   7.708   9.905  0.0933  0.3741 -0.0990
  996MOL0     C34335  11.835   7.778   9.915  0.2696  0.4386  0.3770
  996MOL0     C34336  11.958   7.705   9.873 -0.3679  0.0979  0.0623
  996MOL0     C34337  12.085   7.788   9.893 -0.2585 -0.2418 -0.7173
  996MOL0     C34338  12.210   7.708   9.882 -0.0075 -0.0399 -0.5373
  996MOL0     C34339  12.226   7.588   9.989 -0.1334  0.1825  0.5493
  996MOL0     C34340  12.372   7.545   9.989 -0.3376 -0.6596 -0.6656
  996MOL0     C34341  12.467   7.654  10.062 -0.3165 -0.2732 -0.7782
  996MOL0     N34342  12.609   7.602  10.068  0.6650 -0.6346 -0.4173
  996MOL0     C34343  12.679   7.521   9.979  0.3625  0.1992 -0.0879
  996MOL0     C34344  12.803   7.515  10.028 -0.0305  0.3213  0.0326
  996MOL0     C34345  12.925   7.463   9.964  0.8363  0.0184  0.2154
  996MOL0     C34346  13.042   7.552  10.000  0.6904  0.1350  0.2280
  996MOL0     C34347  13.168   7.476   9.955  0.1116 -0.2127  0.0191
  996MOL0     C34348  13.282   7.573   9.999 -0.3762 -0.5061 -0.7170
  996MOL0     O34349  13.268   7.682   9.902 -0.4269  0.4896 -0.3915
  996MOL0     C34350  13.368   7.780   9.903  0.7917  0.2432  0.8740
  996MOL0     C34351  13.381   7.864   9.787 -0.2534  0.3315  0.3338
  996MOL0     C34352  13.479   7.963   9.780  0.3178 -0.3709 -0.5511
  996MOL0     C34353  13.571   7.981   9.884 -0.5151  0.4490  0.6264
  996MOL0     C34354  13.682   8.079   9.894  0.3732  0.3918 -1.0982
  996MOL0     O34355  13.711   8.124  10.020 -0.6165  0.8307  0.1787
  996MOL0     C34356  13.812   8.210  10.038 -0.0483  0.3130 -0.2531
  996MOL0     C34357  13.785   8.341  10.088 -0.1001  0.5134 -0.6093
  996MOL0     C34358  13.903   8.421  10.108  0.0557  0.2034  0.2109
  996MOL0     C34359  14.029   8.378  10.065 -0.8548 -0.2418 -0.6545
  996MOL0     O34360  14.140   8.460  10.094 -0.0629  0.7645 -0.1545
  996MOL0     C34361  14.267   8.391  10.089  0.3151  0.0273 -0.1120
  996MOL0     C34362  14.373   8.497  10.123  0.1902 -0.2091  0.7702
  996MOL0     C34363  14.486   8.435  10.207  1.0861 -0.2673  0.3152
  996MOL0     C34364  14.600   8.534  10.238 -0.0516 -0.0244 -0.1211
  996MOL0     C34365  14.698   8.552  10.116 -0.3646 -0.2793 -0.7661
  996MOL0     C34366  14.815   8.465  10.147  0.1347  0.6854  0.0110
  996MOL0     C34367  14.929   8.492  10.049 -0.3275  0.0550 -0.4451
  996MOL0     C34368  15.044   8.397  10.064  0.0131 -0.3289 -0.6060
  996MOL0    Cl34369  15.082   8.383  10.236  0.0303 -0.0225 -0.3050
  996MOL0     C34370  14.044   8.255  10.009 -0.3560 -0.1185 -0.2090
  996MOL0     C34371  13.936   8.164   9.995 -0.6228 -0.6832 -0.1006
  996MOL0     O34372  13.744   8.106   9.796  0.4727  0.8178  0.6555
  996MOL0     C34373  13.567   7.885   9.995 -0.1760 -0.2042 -0.5444
  996MOL0     C34374  13.458   7.796  10.005 -0.4999  0.4615  0.3940
  996MOL0     N34375  12.809   7.587  10.146 -0.3402  0.1914 -0.1283
  996MOL0     N34376  12.688   7.627  10.175 -0.5665  0.7733  0.5500
  996MOL0     C34377  11.398   7.901   9.861 -0.3357 -0.1550 -0.1977
  996MOL0     C34378  11.265   7.896   9.816  0.0220 -0.3625  0.4238
  996MOL0     C34379  10.853   7.820   9.817 -0.2013 -0.6881  0.4270
  996MOL0     C34380  10.844   7.948   9.759 -0.4783 -0.4525  0.1480
  996MOL0     C34381  10.719   8.015   9.747  0.4438 -0.1082 -0.1233
  996MOL0     C34382  10.601   7.945   9.788 -0.0257  0.3439 -0.4197
  996MOL0     O34383  10.487   8.018   9.757  0.5736  0.0536  0.1120
  996MOL0     C34384  10.368   7.957   9.813 -0.1840 -0.5447 -0.4960
  996MOL0     C34385  10.251   8.057   9.802  0.0411  0.1754  0.1651
  996MOL0     C34386  10.229   8.100   9.652  0.2215 -0.3122 -0.6505
  996MOL0     C34387  10.121   8.205   9.635  0.7822  0.5064  1.0400
  996MOL0     C34388   9.985   8.158   9.688 -0.0839 -1.1062  0.4026
  996MOL0     C34389   9.881   8.117   9.733 -0.5592  0.1290 -0.3697
  996MOL0     C34390  10.611   7.813   9.839 -0.6346 -0.2332 -0.3948
  996MOL0     C34391  10.738   7.752   9.855 -0.3598  0.3989  0.0447
  996MOL0     C34392  10.735   7.612   9.910  0.9673  0.4002  0.3302
  996MOL0     H34393  11.235   7.566   9.771 -0.5001  0.4025  1.4548
  996MOL0     H34394  11.472   7.576   9.864  1.1767  0.3472 -1.6146
  996MOL0     H34395  11.701   7.620   9.971  0.2695  1.0012  0.7618
  996MOL0     H34396  11.693   7.677   9.801  0.3799 -1.7558  0.4555
  996MOL0     H34397  11.840   7.809  10.020 -2.1715 -0.1818  0.7405
  996MOL0     H34398  11.828   7.863   9.847  0.0323  0.0662 -0.0632
  996MOL0     H34399  11.959   7.681   9.766 -0.9942  1.3509 -0.2359
  996MOL0     H34400  11.956   7.604   9.916 -0.5569  0.3957  0.7552
  996MOL0     H34401  12.078   7.863   9.814  0.5495 -0.5722 -1.1150
  996MOL0     H34402  12.079   7.832   9.993 -1.9005 -0.6139 -0.6218
  996MOL0     H34403  12.228   7.662   9.785 -1.4784 -1.8505 -0.0217
  996MOL0     H34404  12.293   7.778   9.894  0.6330 -0.9651  0.6874
  996MOL0     H34405  12.201   7.622  10.090  1.8431  1.7709  0.5853
  996MOL0     H34406  12.163   7.506   9.953  1.2619  0.6334 -3.4360
  996MOL0     H34407  12.399   7.531   9.884  0.1245 -2.4018 -0.3525
  996MOL0     H34408  12.390   7.445  10.032  2.2673  0.1185  0.2443
  996MOL0     H34409  12.452   7.749  10.009 -0.0260 -0.5494 -1.3740
  996MOL0     H34410  12.431   7.663  10.165 -1.2466 -3.4376 -0.7182
  996MOL0     H34411  12.648   7.477   9.884 -1.8234 -0.7003  0.9689
  996MOL0     H34412  12.944   7.360   9.995 -1.7546 -0.0312  1.9236
  996MOL0     H34413  12.919   7.456   9.855 -0.4078  1.3623  0.1649
  996MOL0     H34414  13.025   7.656   9.969 -2.2705 -0.6961 -1.2273
  996MOL0     H34415  13.060   7.545  10.108  1.4434 -3.0981 -0.0184
  996MOL0     H34416  13.162   7.448   9.850 -1.6651  0.2524 -0.0501
  996MOL0     H34417  13.179   7.388  10.020  0.9684  0.8620  1.3994
  996MOL0     H34418  13.382   7.531   9.987  0.2074  1.1259 -1.8319
  996MOL0     H34419  13.263   7.606  10.102 -1.0816 -1.0220 -0.6718
  996MOL0     H34420  13.318   7.853   9.700 -0.6098 -0.5363  0.6942
  996MOL0     H34421  13.483   8.015   9.685 -0.7398 -2.2845 -1.7174
  996MOL0     H34422  13.687   8.369  10.126  0.0154  0.2490 -0.1014
  996MOL0     H34423  13.904   8.517  10.158 -0.8996  0.2897  0.0872
  996MOL0     H34424  14.268   8.312  10.164 -1.8939  2.0770  2.2571
  996MOL0     H34425  14.290   8.361   9.986  1.7589  2.3275 -0.5334
  996MOL0     H34426  14.421   8.539  10.034 -0.9389  0.4020  0.4338
  996MOL0     H34427  14.339   8.586  10.176  2.5820  2.1866 -1.3666
  996MOL0     H34428  14.437   8.389  10.293  0.4901 -1.0433 -0.4211
  996MOL0     H34429  14.529   8.349  10.155 -0.2909 -0.7244 -0.1110
  996MOL0     H34430  14.647   8.486  10.324 -0.3587  1.3256  0.8478
  996MOL0     H34431  14.564   8.632  10.272  1.3380  0.1048  1.0689
  996MOL0     H34432  14.729   8.656  10.104 -1.5103 -0.0790 -2.3316
  996MOL0     H34433  14.648   8.541  10.019 -0.2791  2.5009 -1.1869
  996MOL0     H34434  14.846   8.494  10.248 -2.0588 -1.5451  1.4620
  996MOL0     H34435  14.791   8.358  10.146  0.9715  0.4980 -0.6993
  996MOL0     H34436  14.960   8.596  10.060 -2.8482  0.9267 -0.7987
  996MOL0     H34437  14.892   8.484   9.946 -0.6989  3.8933 -0.7810
  996MOL0     H34438  15.018   8.299  10.022 -0.3424 -0.1099 -0.8960
  996MOL0     H34439  15.134   8.438  10.017  2.2080 -2.7576  1.1439
  996MOL0     H34440  14.139   8.215   9.978  0.5242  1.9823 -0.3694
  996MOL0     H34441  13.955   8.073   9.939 -0.3396  0.4081 -1.8436
  996MOL0     H34442  13.651   7.889  10.064 -0.4792  1.3357 -0.2145
  996MOL0     H34443  13.470   7.725  10.086 -0.7919  1.2619  1.1659
  996MOL0     H34444  11.448   7.997   9.864  1.5586 -1.0944  0.0480
  996MOL0     H34445  11.208   7.988   9.811  0.5859  0.3613  4.3295
  996MOL0     H34446  10.928   8.012   9.731  0.6972 -0.4088  3.3953
  996MOL0     H34447  10.714   8.113   9.700  1.3152 -0.4173 -0.8850
  996MOL0     H34448  10.376   7.926   9.918  0.2719 -0.9923 -0.6579
  996MOL0     H34449  10.347   7.861   9.765 -0.3406  0.3457 -2.2505
  996MOL0     H34450  10.279   8.139   9.869 -2.4185  0.8485  0.4622
  996MOL0     H34451  10.158   8.012   9.838 -0.7439 -1.0113 -3.0651
  996MOL0     H34452  10.212   8.009   9.594  1.1425 -0.6265 -0.4482
  996MOL0     H34453  10.328   8.134   9.621  1.2844 -1.8178  0.9391
  996MOL0     H34454  10.159   8.289   9.694  1.9797 -0.2431  1.3647
  996MOL0     H34455  10.107   8.247   9.536 -1.9236  0.9954  1.5424
  996MOL0     H34456   9.794   8.072   9.778  0.6634 -3.0531 -0.9236
  996MOL0     H34457  10.525   7.749   9.857 -1.4226  0.5945 -1.1638
  996MOL0     H34458  10.654   7.601   9.983 -0.7695 -4.7086 -1.9052
  996MOL0     H34459  10.696   7.543   9.835  0.7382 -0.7133  1.4416
  996MOL0     H34460  10.822   7.577   9.966 -0.2609 -2.7344  0.4704
  997MOL0     O34461   1.298   4.428   7.306 -0.1714 -0.8227 -0.0441
  997MOL0     C34462   1.190   4.433   7.256  0.3898  0.0035 -0.1481
  997MOL0     O34463   1.114   4.326   7.229 -1.0454 -0.4364  0.3215
  997MOL0     C34464   1.177   4.211   7.191 -0.3266  0.7432  0.3816
  997MOL0     C34465   1.288   4.205   7.114 -0.8377 -0.6346 -0.3432
  997MOL0     C34466   1.331   4.086   7.058  0.2262 -0.1639 -0.1947
  997MOL0     C34467   1.275   3.968   7.112 -0.5323  0.1393 -0.6712
  997MOL0     O34468   1.321   3.848   7.060 -0.3920 -0.2240 -0.6788
  997MOL0     C34469   1.398   3.840   6.932 -0.5774 -0.2084  0.0372
  997MOL0     C34470   1.550   3.830   6.967 -0.5692  0.2599 -0.1227
  997MOL0     C34471   1.639   3.840   6.843  0.3278  1.1889 -0.7980
  997MOL0     C34472   1.644   3.988   6.788 -0.4499  0.3990 -0.1649
  997MOL0     C34473   1.776   4.006   6.710  0.8967 -0.1408  0.1987
  997MOL0     C34474   1.780   4.146   6.643  0.9845  0.2140 -0.2237
  997MOL0     C34475   1.876   4.165   6.523 -0.7446 -0.0631  0.0342
  997MOL0     C34476   1.901   4.312   6.506  0.1420  0.5979  0.2141
  997MOL0     N34477   2.015   4.341   6.424  0.1261  0.2423 -0.2721
  997MOL0     C34478   2.045   4.471   6.406  0.7833 -0.7458  0.4997
  997MOL0     C34479   2.165   4.471   6.340 -0.2503 -1.2223  0.0453
  997MOL0     C34480   2.253   4.583   6.282  0.0526 -0.4523  0.2955
  997MOL0     C34481   2.304   4.658   6.404 -0.5226 -0.0988  0.1119
  997MOL0     C34482   2.426   4.748   6.363  0.2016  0.1801  0.0556
  997MOL0     C34483   2.383   4.877   6.279  0.0436 -0.4693 -0.2610
  997MOL0     O34484   2.498   4.941   6.237 -0.0250  0.1819 -0.2394
  997MOL0     C34485   2.578   5.012   6.323  0.2231  0.9152  0.1587
  997MOL0     C34486   2.537   5.042   6.453 -0.4903 -0.3497  0.3993
  997MOL0     C34487   2.629   5.122   6.526  0.5808  0.7875  0.4042
  997MOL0     C34488   2.751   5.163   6.479  0.1818 -0.1611  0.0144
  997MOL0     C34489   2.842   5.237   6.570 -0.7000 -0.1937  0.1976
  997MOL0     O34490   2.946   5.310   6.526  0.1637  0.7449  0.3899
  997MOL0     C34491   3.019   5.379   6.614 -0.5560  0.5240  0.5557
  997MOL0     C34492   3.162   5.359   6.628  0.6431  0.1100 -0.0461
  997MOL0     C34493   3.231   5.439   6.721  0.6430 -0.7729  1.0577
  997MOL0     C34494   3.170   5.538   6.795 -0.4411 -1.3380 -0.1821
  997MOL0     O34495   3.237   5.615   6.895 -0.6665  0.1578 -0.6882
  997MOL0     C34496   3.377   5.628   6.872  0.0228  0.2674 -0.0619
  997MOL0     C34497   3.457   5.525   6.954  0.2006  0.1944  0.2288
  997MOL0     C34498   3.579   5.497   6.868 -0.5968  0.1594  0.1483
  997MOL0     C34499   3.690   5.606   6.868  0.7915 -1.5525  0.8171
  997MOL0     C34500   3.832   5.551   6.831 -0.1959 -0.0183  1.2835
  997MOL0     C34501   3.888   5.477   6.956  0.5236  0.7900  0.1004
  997MOL0     C34502   3.919   5.564   7.084  0.1554  1.2747  0.6352
  997MOL0     C34503   4.001   5.691   7.068  0.9492  0.1464  0.8245
  997MOL0    Cl34504   4.175   5.651   7.024  0.1560  0.0130 -0.3915
  997MOL0     C34505   3.034   5.566   6.775  1.1498 -0.2166  0.4384
  997MOL0     C34506   2.954   5.490   6.679  0.1153 -0.7155 -0.2770
  997MOL0     O34507   2.813   5.229   6.684  0.4200  0.1892  0.1785
  997MOL0     C34508   2.789   5.129   6.352 -0.1953  0.0517 -0.1894
  997MOL0     C34509   2.699   5.055   6.267 -0.2727 -0.4129 -0.1771
  997MOL0     N34510   2.192   4.337   6.318 -1.1709  0.0585 -0.8930
  997MOL0     N34511   2.096   4.257   6.354 -0.0968  0.0230 -0.3149
  997MOL0     C34512   1.163   3.968   7.205  0.0982  0.2313 -0.1897
  997MOL0     C34513   1.123   4.093   7.245  0.4216 -1.0579 -0.4829
  997MOL0     C34514   1.140   4.570   7.234  0.5414  0.0484  0.3672
  997MOL0     C34515   1.003   4.577   7.246 -0.1867 -0.7463  0.3820
  997MOL0     C34516   0.934   4.696   7.211 -0.1842 -0.2787 -0.3288
  997MOL0     C34517   1.003   4.813   7.174 -0.1584  0.5551 -0.6124
  997MOL0     O34518   0.931   4.922   7.132 -0.1731  0.2999  0.7148
  997MOL0     C34519   0.866   4.995   7.237 -0.9506 -0.1461 -0.5282
  997MOL0     C34520   0.785   5.103   7.173 -0.7705  0.2913  0.0186
  997MOL0     C34521   0.694   5.047   7.062  0.3912  0.4548  0.6431
  997MOL0     C34522   0.558   5.123   7.061  0.2142  0.4838  0.6083
  997MOL0     C34523   0.441   5.053   6.999 -0.1864  0.2779  0.3069
  997MOL0     C34524   0.337   5.012   6.947 -1.2748  0.5316 -0.4916
  997MOL0     C34525   1.141   4.807   7.174  1.1864  0.6332 -0.4529
  997MOL0     C34526   1.206   4.689   7.200 -0.3244 -0.2838  0.4945
  997MOL0     C34527   1.356   4.689   7.167  0.6054 -0.3871  0.1271
  997MOL0     H34528   1.332   4.299   7.083 -0.4652 -1.6713 -3.3226
  997MOL0     H34529   1.408   4.092   6.982  1.4084 -3.1392  0.6202
  997MOL0     H34530   1.373   3.745   6.886 -2.2207 -0.1377  0.7273
  997MOL0     H34531   1.376   3.918   6.858 -2.4714  0.7604  1.5390
  997MOL0     H34532   1.581   3.740   7.021  0.7395  1.0639  0.5280
  997MOL0     H34533   1.575   3.896   7.049  3.0326 -2.2175  1.0278
  997MOL0     H34534   1.608   3.764   6.771  1.8871  0.0987 -0.3908
  997MOL0     H34535   1.740   3.815   6.879 -0.7633 -0.7636  1.1676
  997MOL0     H34536   1.557   4.007   6.725 -0.3645 -1.4297 -0.8879
  997MOL0     H34537   1.657   4.067   6.863  1.9153  0.6885 -0.7785
  997MOL0     H34538   1.868   3.999   6.770 -0.3611  1.1941  2.4054
  997MOL0     H34539   1.778   3.933   6.628  1.3075 -0.5407  0.5632
  997MOL0     H34540   1.686   4.169   6.591  1.6137  1.5009 -0.8386
  997MOL0     H34541   1.793   4.227   6.715  3.2717  0.2691 -0.6311
  997MOL0     H34542   1.841   4.116   6.432  1.0901 -0.6110 -0.3981
  997MOL0     H34543   1.972   4.119   6.546 -0.6982  0.4979  1.0187
  997MOL0     H34544   1.817   4.362   6.458 -0.3887 -0.4864 -0.0048
  997MOL0     H34545   1.914   4.353   6.607  1.0320 -4.4639  2.4653
  997MOL0     H34546   1.986   4.560   6.423  1.7713  0.6072 -2.5690
  997MOL0     H34547   2.333   4.528   6.232  0.2573  0.1226 -0.0274
  997MOL0     H34548   2.201   4.651   6.213  1.0499  0.9105  0.8345
  997MOL0     H34549   2.234   4.718   6.463  0.5342 -0.5883  1.9327
  997MOL0     H34550   2.340   4.584   6.476 -1.6313  0.0327  0.8371
  997MOL0     H34551   2.493   4.681   6.308  0.8253  0.4982  0.4191
  997MOL0     H34552   2.485   4.781   6.449 -0.7096  1.3903  0.2461
  997MOL0     H34553   2.308   4.940   6.328 -0.3797 -1.8152  0.8891
  997MOL0     H34554   2.316   4.839   6.201 -1.1958  0.9864  0.0465
  997MOL0     H34555   2.441   5.016   6.497 -0.6482  0.9800  0.8760
  997MOL0     H34556   2.589   5.150   6.623 -1.8566 -0.6137 -0.1001
  997MOL0     H34557   3.205   5.269   6.584 -1.9505 -2.8997  3.0375
  997MOL0     H34558   3.335   5.417   6.741  0.7368 -0.3067  1.0927
  997MOL0     H34559   3.405   5.629   6.766  0.0513 -2.0710 -0.1286
  997MOL0     H34560   3.411   5.723   6.915  0.3786 -0.2523  0.8329
  997MOL0     H34561   3.498   5.568   7.046  0.2218 -0.4527  0.5224
  997MOL0     H34562   3.403   5.433   6.973 -2.0141  0.9143 -2.0490
  997MOL0     H34563   3.631   5.410   6.909  0.7002  0.4444 -0.8125
  997MOL0     H34564   3.562   5.464   6.765  1.0810  1.2332 -0.5031
  997MOL0     H34565   3.692   5.673   6.954 -1.0244  0.1032 -0.3196
  997MOL0     H34566   3.675   5.686   6.794  0.5392 -0.2746  2.2151
  997MOL0     H34567   3.900   5.632   6.802  0.2091 -1.0795 -0.8992
  997MOL0     H34568   3.834   5.481   6.747 -2.3676  0.6987  0.5830
  997MOL0     H34569   3.828   5.387   6.972  1.2400  0.3504  0.3484
  997MOL0     H34570   3.987   5.442   6.926  0.4833 -0.1877  1.0182
  997MOL0     H34571   3.963   5.495   7.157  0.4565  2.0164  1.1634
  997MOL0     H34572   3.821   5.588   7.126 -0.4500 -2.6045  1.8683
  997MOL0     H34573   3.946   5.750   6.994 -1.3287 -2.8903 -0.1064
  997MOL0     H34574   3.990   5.742   7.164 -4.4249 -2.5927  2.0682
  997MOL0     H34575   2.992   5.644   6.836 -0.2200  1.4022 -2.3534
  997MOL0     H34576   2.850   5.506   6.654  0.2329 -0.2231 -0.4495
  997MOL0     H34577   2.885   5.154   6.309  0.3441  1.8260  1.8867
  997MOL0     H34578   2.729   5.010   6.173 -2.8243 -3.8607  0.4528
  997MOL0     H34579   1.126   3.875   7.248  4.3291 -1.8685 -0.5828
  997MOL0     H34580   1.045   4.107   7.319  1.9504  4.0302  0.5396
  997MOL0     H34581   0.939   4.493   7.274 -1.0351 -0.7565 -1.4480
  997MOL0     H34582   0.829   4.716   7.227  0.1713  0.4576  1.2167
  997MOL0     H34583   0.931   5.031   7.317 -1.0752 -2.2178  0.5590
  997MOL0     H34584   0.800   4.931   7.296  0.4833 -0.0170  1.3205
  997MOL0     H34585   0.844   5.183   7.128  0.7317 -0.5616  0.3751
  997MOL0     H34586   0.718   5.136   7.253 -2.3709 -0.6158 -0.9081
  997MOL0     H34587   0.674   4.945   7.094 -2.3133  0.6292 -0.2504
  997MOL0     H34588   0.751   5.057   6.969 -2.4362 -0.3020 -1.2824
  997MOL0     H34589   0.517   5.148   7.160 -1.7425 -2.5183  0.6936
  997MOL0     H34590   0.575   5.220   7.013  1.7193  1.4244  2.8480
  997MOL0     H34591   0.248   4.981   6.896 -1.0426  0.2002 -0.6955
  997MOL0     H34592   1.190   4.896   7.135 -0.1620  1.0620 -1.2642
  997MOL0     H34593   1.364   4.624   7.079 -2.2526 -1.4021  0.5136
  997MOL0     H34594   1.396   4.787   7.138  1.0534 -1.8606 -5.4639
  997MOL0     H34595   1.415   4.644   7.247  1.9005 -0.5808 -0.8896
  998MOL0     O34596   6.989   8.194   7.514  0.2400 -0.5457  0.5813
  998MOL0     C34597   6.982   8.246   7.622 -0.2620 -0.2725  0.1654
  998MOL0     O34598   7.090   8.297   7.686 -0.1699  0.3674  0.4744
  998MOL0     C34599   7.200   8.319   7.605 -0.3360  0.1814 -1.0477
  998MOL0     C34600   7.180   8.414   7.505  0.1490  0.2550 -0.9762
  998MOL0     C34601   7.288   8.458   7.427  0.1089  0.3513 -0.2859
  998MOL0     C34602   7.418   8.406   7.464  0.4158  0.0553  0.1523
  998MOL0     O34603   7.529   8.464   7.419  0.7751 -0.2977  0.4088
  998MOL0     C34604   7.611   8.533   7.513  1.1039  0.9722 -1.1715
  998MOL0     C34605   7.691   8.652   7.438  0.2009 -0.1698  0.8730
  998MOL0     C34606   7.738   8.747   7.537 -0.2571 -1.3832  0.6241
  998MOL0     C34607   7.768   8.883   7.465 -0.1220 -0.8565 -0.1487
  998MOL0     C34608   7.914   8.921   7.419 -0.1342 -0.8708 -0.0926
  998MOL0     C34609   8.002   8.964   7.535  0.2107 -0.2612 -0.2258
  998MOL0     C34610   8.134   9.031   7.491 -0.5388 -0.0858 -0.3235
  998MOL0     C34611   8.219   9.041   7.618  0.4670  0.3615  1.1293
  998MOL0     N34612   8.352   9.089   7.591 -0.0082  0.2296  0.3203
  998MOL0     C34613   8.477   9.018   7.596 -0.0243  0.3559 -0.0861
  998MOL0     C34614   8.569   9.111   7.564 -0.0719 -0.0766 -0.3977
  998MOL0     C34615   8.718   9.074   7.556 -0.0953  0.0192 -1.0556
  998MOL0     C34616   8.813   9.197   7.560  0.2029  0.5042  1.0448
  998MOL0     C34617   8.800   9.266   7.688 -0.1514  0.7676 -0.1914
  998MOL0     C34618   8.896   9.377   7.703 -0.4170  0.4876  0.9431
  998MOL0     O34619   9.029   9.343   7.728  0.4608  0.5405  0.4984
  998MOL0     C34620   9.118   9.441   7.758 -0.4605  0.0466  0.5651
  998MOL0     C34621   9.090   9.576   7.758 -0.0830  0.4165  0.1279
  998MOL0     C34622   9.184   9.669   7.792  0.3145  0.3388 -0.5172
  998MOL0     C34623   9.307   9.636   7.848 -0.1171 -0.2506 -0.6496
  998MOL0     C34624   9.401   9.746   7.893  0.0298  0.2699  0.0991
  998MOL0     O34625   9.373   9.871   7.845 -0.2419  0.7049 -0.0605
  998MOL0     C34626   9.460   9.970   7.888 -0.0603 -0.1121  0.8440
  998MOL0     C34627   9.587   9.973   7.829 -0.1410 -0.7173 -0.0349
  998MOL0     C34628   9.674  10.076   7.853 -1.0141  0.2433  0.4338
  998MOL0     C34629   9.645  10.182   7.942  0.1918  0.2423 -0.2491
  998MOL0     O34630   9.737  10.289   7.963 -0.2045 -0.5224  0.8738
  998MOL0     C34631   9.677  10.410   7.986  0.0329  0.2930  0.2864
  998MOL0     C34632   9.789  10.521   7.997  0.1770 -0.2661  0.8297
  998MOL0     C34633   9.900  10.497   8.099 -0.4508 -0.8213  0.1642
  998MOL0     C34634   9.845  10.488   8.243 -0.3830  0.2240 -0.5419
  998MOL0     C34635   9.938  10.530   8.364 -0.8503  0.3919  0.0778
  998MOL0     C34636  10.082  10.475   8.356 -0.0150  0.2404 -0.1838
  998MOL0     C34637  10.093  10.317   8.357  0.1559 -0.7022 -0.7330
  998MOL0     C34638  10.217  10.272   8.448  0.2296 -1.1564 -0.3362
  998MOL0    Cl34639  10.364  10.322   8.361  0.1097  0.1629 -0.1965
  998MOL0     C34640   9.513  10.182   7.996 -0.6921 -0.1012 -0.8008
  998MOL0     C34641   9.421  10.080   7.971  0.2038 -0.6401  0.5107
  998MOL0     O34642   9.503   9.712   7.960  0.1769  0.1744 -0.0810
  998MOL0     C34643   9.342   9.501   7.854 -0.4624 -0.0632  0.6468
  998MOL0     C34644   9.248   9.403   7.808  0.0315  0.6236  0.0435
  998MOL0     N34645   8.504   9.232   7.536  0.4121 -0.1236 -0.0697
  998MOL0     N34646   8.379   9.217   7.549 -0.1372  0.3124  0.0180
  998MOL0     C34647   7.430   8.321   7.575  0.1881 -0.8899  0.0534
  998MOL0     C34648   7.324   8.270   7.642  0.0726  0.4840 -0.1365
  998MOL0     C34649   6.854   8.221   7.695 -0.4886  0.3411  0.1550
  998MOL0     C34650   6.851   8.220   7.830 -0.5814  0.0135 -0.7039
  998MOL0     C34651   6.737   8.184   7.903 -0.0827 -0.0342 -1.2613
  998MOL0     C34652   6.618   8.156   7.848 -0.1563  0.0433  0.1230
  998MOL0     O34653   6.502   8.155   7.920  1.4262 -0.4082 -0.5187
  998MOL0     C34654   6.497   8.071   8.039  0.6670  0.2064 -0.3613
  998MOL0     C34655   6.351   8.052   8.072  0.4103  0.5336 -0.3037
  998MOL0     C34656   6.256   7.995   7.953 -0.7955  0.1710 -0.4648
  998MOL0     C34657   6.304   7.861   7.900  0.1002  0.4365 -0.1425
  998MOL0     C34658   6.203   7.813   7.810 -0.1959  0.5673  0.7309
  998MOL0     C34659   6.114   7.769   7.739  0.1280  0.0370 -0.5501
  998MOL0     C34660   6.621   8.160   7.703  0.3385 -0.2813 -0.2209
  998MOL0     C34661   6.730   8.199   7.631  0.7033  0.2012  0.3940
  998MOL0     C34662   6.706   8.201   7.485 -0.2399  1.2622  0.4231
  998MOL0     H34663   7.080   8.455   7.496 -0.5933 -0.7662  1.8044
  998MOL0     H34664   7.286   8.525   7.342  0.2057  0.5215 -0.1563
  998MOL0     H34665   7.552   8.560   7.601  1.9437  0.7656 -0.5310
  998MOL0     H34666   7.676   8.451   7.546 -0.8580  0.6198  2.3017
  998MOL0     H34667   7.625   8.707   7.370  1.8884  3.0346  1.5992
  998MOL0     H34668   7.775   8.609   7.383  0.7612  0.7635  0.9685
  998MOL0     H34669   7.817   8.707   7.601 -0.7281  1.4407  3.1465
  998MOL0     H34670   7.655   8.773   7.604  0.7888  0.5732  1.2179
  998MOL0     H34671   7.701   8.905   7.381  0.2236  1.3214  0.0857
  998MOL0     H34672   7.745   8.965   7.535  0.1338 -0.4068 -0.5877
  998MOL0     H34673   7.966   8.845   7.360 -0.9915  0.6244 -2.9388
  998MOL0     H34674   7.901   9.012   7.361 -1.2352 -0.7116  0.3929
  998MOL0     H34675   7.943   9.034   7.595  2.0114  0.0645  1.2702
  998MOL0     H34676   8.018   8.873   7.593  0.2491  0.4282  0.8780
  998MOL0     H34677   8.129   9.129   7.442 -0.2356  1.1345  1.9799
  998MOL0     H34678   8.191   8.962   7.428  0.7412 -2.2757  2.9974
  998MOL0     H34679   8.168   9.103   7.692 -2.0600 -0.2494 -0.0117
  998MOL0     H34680   8.236   8.941   7.659  2.4913  0.6429  1.0964
  998MOL0     H34681   8.491   8.912   7.611 -2.2001 -0.1806 -1.4186
  998MOL0     H34682   8.734   9.009   7.643 -1.4767  2.3670  1.0937
  998MOL0     H34683   8.734   9.034   7.456 -1.3416  2.2894 -2.2337
  998MOL0     H34684   8.911   9.170   7.518  0.1703  0.6601  0.8690
  998MOL0     H34685   8.776   9.265   7.483  3.1052 -0.7285 -1.6858
  998MOL0     H34686   8.789   9.199   7.774 -3.3393 -0.9095 -1.7507
  998MOL0     H34687   8.701   9.313   7.688 -2.0138 -2.5814 -3.4707
  998MOL0     H34688   8.865   9.434   7.791  0.1779  3.5699 -0.6905
  998MOL0     H34689   8.893   9.450   7.621  0.9321  0.2319  0.6472
  998MOL0     H34690   8.995   9.605   7.713 -0.5827  1.2401  1.6322
  998MOL0     H34691   9.144   9.770   7.793 -0.6569  0.0710  2.9234
  998MOL0     H34692   9.621   9.901   7.756  3.7625  0.8182  0.0378
  998MOL0     H34693   9.772  10.093   7.809  0.2514 -0.9297  2.5972
  998MOL0     H34694   9.609  10.439   7.905  1.0746 -0.6795 -0.9731
  998MOL0     H34695   9.619  10.403   8.078 -0.3154  1.1657  0.1477
  998MOL0     H34696   9.841  10.550   7.906  2.3238  1.2084  2.4149
  998MOL0     H34697   9.744  10.617   8.021  1.4043  1.4227 -2.9215
  998MOL0     H34698   9.956  10.404   8.083 -2.1022 -1.8616  0.2421
  998MOL0     H34699   9.966  10.585   8.097 -0.9442 -0.4560 -0.1495
  998MOL0     H34700   9.798  10.391   8.261 -1.6553  0.7543 -0.9427
  998MOL0     H34701   9.769  10.566   8.254 -0.2334  0.1238  1.7148
  998MOL0     H34702   9.899  10.490   8.458  0.6843 -0.7520  0.2629
  998MOL0     H34703   9.945  10.638   8.381 -1.1916  0.5071 -0.4859
  998MOL0     H34704  10.126  10.497   8.258 -0.0088 -0.1053 -0.2614
  998MOL0     H34705  10.139  10.519   8.437  2.8138  0.0639 -1.9396
  998MOL0     H34706  10.092  10.271   8.258 -3.8545 -4.0332  0.5720
  998MOL0     H34707  10.010  10.268   8.409  0.8723 -2.3427 -1.0668
  998MOL0     H34708  10.203  10.324   8.543  0.2714 -0.3519 -0.7591
  998MOL0     H34709  10.212  10.163   8.455 -0.3782 -1.2085 -1.3231
  998MOL0     H34710   9.490  10.257   8.071 -0.8929  1.1536 -2.0702
  998MOL0     H34711   9.321  10.071   8.013  0.3052  1.1780  1.2504
  998MOL0     H34712   9.443   9.475   7.884  0.7182  0.8264 -2.1779
  998MOL0     H34713   9.263   9.299   7.834 -0.7665  1.0636  2.5748
  998MOL0     H34714   7.529   8.295   7.611  0.8270  2.3673  1.0097
  998MOL0     H34715   7.333   8.208   7.730 -0.3541  0.2544 -0.2479
  998MOL0     H34716   6.946   8.243   7.877  0.1884 -2.6746 -0.7844
  998MOL0     H34717   6.746   8.185   8.011 -0.0407  2.1649 -1.2538
  998MOL0     H34718   6.547   8.118   8.124 -1.1581  1.1468  0.2344
  998MOL0     H34719   6.538   7.970   8.029 -1.2500 -0.8384  1.5634
  998MOL0     H34720   6.302   8.149   8.088 -1.1905 -0.2181 -0.3760
  998MOL0     H34721   6.337   7.995   8.165 -1.1673  0.4976 -0.5259
  998MOL0     H34722   6.259   8.074   7.876  0.0648 -0.2819 -0.9041
  998MOL0     H34723   6.155   7.977   7.992 -0.1685 -1.0763  0.6178
  998MOL0     H34724   6.402   7.874   7.853  0.4387  1.5670  0.8182
  998MOL0     H34725   6.307   7.798   7.989 -1.3742 -0.5907 -0.7742
  998MOL0     H34726   6.032   7.733   7.679 -2.5059  2.1304  1.5315
  998MOL0     H34727   6.528   8.144   7.649  0.8111  1.0483 -1.5186
  998MOL0     H34728   6.780   8.263   7.434 -0.5421  2.5929  1.5355
  998MOL0     H34729   6.723   8.097   7.455 -1.8203  0.6707  1.4233
  998MOL0     H34730   6.605   8.237   7.460 -0.4737  0.1950 -0.2389
  999MOL0     O34731   8.067   2.860   7.068  0.2719 -0.0666  0.0090
  999MOL0     C34732   8.007   2.894   6.966  0.1721  0.3615  0.0636
  999MOL0     O34733   8.070   2.949   6.851  0.5749 -0.4548  0.6726
  999MOL0     C34734   8.206   2.973   6.846 -0.3492 -0.8177  0.1829
  999MOL0     C34735   8.258   2.991   6.716 -0.3147  0.3808 -0.0410
  999MOL0     C34736   8.392   3.011   6.684  0.3065  0.7042  0.5059
  999MOL0     C34737   8.485   3.028   6.788 -0.1070  0.5081 -0.3049
  999MOL0     O34738   8.613   3.071   6.770 -0.2356  0.3140 -0.0962
  999MOL0     C34739   8.696   3.033   6.668 -0.3806  0.6777  1.0764
  999MOL0     C34740   8.840   3.087   6.709  0.6666  0.6270 -0.4736
  999MOL0     C34741   8.857   3.243   6.693  0.6324 -0.4383  0.6752
  999MOL0     C34742   9.000   3.279   6.723  0.4491  0.3427  0.4861
  999MOL0     C34743   9.091   3.251   6.597  0.7560  0.8366  0.1484
  999MOL0     C34744   9.214   3.175   6.653  0.1199 -0.5745 -0.4186
  999MOL0     C34745   9.311   3.125   6.544  0.4599  0.3951 -0.3874
  999MOL0     C34746   9.247   3.011   6.459 -0.3371  0.4922  0.2442
  999MOL0     N34747   9.357   2.924   6.407  0.0230  0.4875  0.0076
  999MOL0     C34748   9.419   2.820   6.473  0.4285  0.3154  0.1523
  999MOL0     C34749   9.535   2.793   6.411 -0.3490 -0.5774  0.1219
  999MOL0     C34750   9.642   2.688   6.439 -0.7136 -1.7394  0.4315
  999MOL0     C34751   9.714   2.707   6.574 -0.3585  0.7820 -0.1333
  999MOL0     C34752   9.859   2.657   6.588 -0.6015  0.2029 -0.0092
  999MOL0     C34753   9.906   2.513   6.559  0.1096  0.0235  0.1339
  999MOL0     O34754   9.851   2.430   6.653  0.5858  0.4451 -1.1027
  999MOL0     C34755   9.853   2.300   6.621  0.1724 -0.0199  0.4767
  999MOL0     C34756   9.754   2.214   6.683  0.6304 -0.5166  0.2168
  999MOL0     C34757   9.749   2.074   6.650  0.2461 -0.4108 -0.6088
  999MOL0     C34758   9.844   2.017   6.567 -0.4762  0.0111  0.1738
  999MOL0     C34759   9.841   1.871   6.523 -0.5769 -0.0397  0.4625
  999MOL0     O34760   9.729   1.799   6.546  0.1164  0.0036 -0.2006
  999MOL0     C34761   9.716   1.687   6.469  0.5476 -0.3899  0.4190
  999MOL0     C34762   9.714   1.566   6.525  0.3030  1.3015  0.0011
  999MOL0     C34763   9.679   1.454   6.461  0.2825  0.7343 -0.4099
  999MOL0     C34764   9.660   1.458   6.329 -0.7669  0.4411  0.7326
  999MOL0     O34765   9.625   1.341   6.266 -0.4880  0.1331  0.2459
  999MOL0     C34766   9.630   1.324   6.121  0.3273  0.1325 -0.5141
  999MOL0     C34767   9.765   1.336   6.052 -0.1373  0.0618  0.8644
  999MOL0     C34768   9.762   1.343   5.896 -0.2583  0.4263  0.2184
  999MOL0     C34769   9.642   1.409   5.828  0.3938 -0.3440  0.0050
  999MOL0     C34770   9.651   1.428   5.670  0.9582  0.0715 -0.3996
  999MOL0     C34771   9.729   1.552   5.631  0.2842 -0.2630 -0.3970
  999MOL0     C34772   9.748   1.571   5.480  0.3303  0.1264 -0.1823
  999MOL0     C34773   9.852   1.680   5.459 -0.6137 -0.2727  0.2935
  999MOL0    Cl34774   9.834   1.774   5.303 -0.0801 -0.2084  0.4611
  999MOL0     C34775   9.653   1.584   6.264  0.9929 -0.0369  0.9086
  999MOL0     C34776   9.676   1.705   6.336 -0.5305  0.5237 -0.0381
  999MOL0     O34777   9.943   1.834   6.454 -1.1987 -0.4196  0.7507
  999MOL0     C34778   9.932   2.102   6.502  0.8107 -0.6539 -0.3297
  999MOL0     C34779   9.944   2.243   6.530  0.8016 -0.3344  0.0899
  999MOL0     N34780   9.550   2.894   6.318  0.2286  0.5634 -0.1711
  999MOL0     N34781   9.445   2.967   6.309  0.4465 -0.1155 -0.2440
  999MOL0     C34782   8.434   3.002   6.921 -0.7024 -0.1872 -0.5997
  999MOL0     C34783   8.304   2.977   6.947 -0.0284 -0.5593 -0.6303
  999MOL0     C34784   7.860   2.852   6.953  0.4393 -0.5074 -0.3348
  999MOL0     C34785   7.804   2.883   6.824  0.1965 -0.8830  0.6342
  999MOL0     C34786   7.676   2.857   6.786 -0.3384 -0.1807  0.1497
  999MOL0     C34787   7.590   2.791   6.880 -0.3199 -0.0712  0.0778
  999MOL0     O34788   7.459   2.769   6.860  0.1115  0.0824  0.4565
  999MOL0     C34789   7.419   2.751   6.726 -0.6471 -0.3578 -0.0817
  999MOL0     C34790   7.272   2.714   6.704 -0.0962  0.1333  0.1442
  999MOL0     C34791   7.182   2.836   6.718  0.1500  0.9041 -0.5757
  999MOL0     C34792   7.038   2.786   6.712  0.3260  0.1640 -0.8981
  999MOL0     C34793   7.010   2.734   6.575  0.5356 -0.1189  0.0833
  999MOL0     C34794   6.989   2.697   6.463  0.1906  0.1392 -0.0049
  999MOL0     C34795   7.641   2.751   6.997  0.1514 -0.1276 -0.7008
  999MOL0     C34796   7.772   2.788   7.046 -0.7144  0.7687  0.9232
  999MOL0     C34797   7.825   2.752   7.173 -0.3200 -0.3285 -0.4782
  999MOL0     H34798   8.193   2.983   6.630  0.8981 -3.3680 -0.8171
  999MOL0     H34799   8.407   3.034   6.579 -1.6798  0.3402  0.0880
  999MOL0     H34800   8.704   2.925   6.653 -1.7492  0.5588  1.0897
  999MOL0     H34801   8.659   3.085   6.579  1.9830  1.9981  0.8042
  999MOL0     H34802   8.910   3.030   6.647  0.1224 -1.4083  0.6791
  999MOL0     H34803   8.855   3.059   6.814 -4.0462 -1.8235 -0.1872
  999MOL0     H34804   8.796   3.299   6.765  0.3309 -0.2807  0.3029
  999MOL0     H34805   8.822   3.279   6.596  1.4478 -1.4188 -0.0053
  999MOL0     H34806   9.023   3.384   6.746  2.1312 -0.1403  1.1766
  999MOL0     H34807   9.043   3.228   6.809  1.4388 -0.2645 -0.3479
  999MOL0     H34808   9.035   3.187   6.528  0.3741  2.2194 -0.8641
  999MOL0     H34809   9.118   3.339   6.539 -1.7940  0.2158 -2.2149
  999MOL0     H34810   9.268   3.240   6.722 -0.1549 -1.1761  0.3830
  999MOL0     H34811   9.186   3.085   6.708 -1.2624 -1.9579 -3.1824
  999MOL0     H34812   9.402   3.081   6.586 -0.9247 -0.8818  1.4814
  999MOL0     H34813   9.332   3.206   6.474 -0.8248 -2.1640 -4.0194
  999MOL0     H34814   9.173   2.945   6.504 -1.8686  1.3485 -0.9187
  999MOL0     H34815   9.192   3.059   6.377 -1.3115 -2.0855 -0.7009
  999MOL0     H34816   9.368   2.780   6.560  0.4999  0.9077  0.4757
  999MOL0     H34817   9.594   2.589   6.439 -1.4523 -1.4670 -2.7241
  999MOL0     H34818   9.714   2.680   6.356 -0.4189 -1.0759  0.6187
  999MOL0     H34819   9.719   2.814   6.598  0.0703  0.8223 -0.3890
  999MOL0     H34820   9.641   2.668   6.646  0.4168 -2.0408 -0.7703
  999MOL0     H34821   9.896   2.690   6.685  0.5324  0.1140 -0.4059
  999MOL0     H34822   9.906   2.720   6.512  2.5122 -3.1535 -1.1351
  999MOL0     H34823  10.013   2.492   6.564 -0.2482 -2.2986 -0.8428
  999MOL0     H34824   9.874   2.493   6.456  0.0815 -1.2552  0.3758
  999MOL0     H34825   9.666   2.237   6.741 -0.4823 -2.3948 -0.6337
  999MOL0     H34826   9.677   2.011   6.700  1.8201  0.3884  3.0200
  999MOL0     H34827   9.749   1.562   6.628  1.1352 -3.4352 -0.2657
  999MOL0     H34828   9.679   1.361   6.517 -0.8542  0.3065 -1.0840
  999MOL0     H34829   9.590   1.224   6.103 -0.6085  0.7858 -2.2843
  999MOL0     H34830   9.561   1.402   6.089 -0.5166 -0.5743 -0.4539
  999MOL0     H34831   9.821   1.428   6.071 -0.1442  0.5223 -1.0613
  999MOL0     H34832   9.818   1.245   6.082 -1.0462 -0.2993  1.4263
  999MOL0     H34833   9.847   1.399   5.858 -0.1004 -0.3470 -0.6011
  999MOL0     H34834   9.770   1.239   5.864 -0.0059  0.0406  1.4691
  999MOL0     H34835   9.635   1.506   5.878 -2.3936 -0.4599  0.0214
  999MOL0     H34836   9.551   1.355   5.854 -0.1360  0.0165 -1.0424
  999MOL0     H34837   9.551   1.437   5.626  0.1791  0.3461  1.3504
  999MOL0     H34838   9.703   1.338   5.636  0.2912 -0.9504  1.1955
  999MOL0     H34839   9.674   1.636   5.674  1.3229  0.9386 -1.3583
  999MOL0     H34840   9.830   1.544   5.671 -0.3988 -2.0906  1.1200
  999MOL0     H34841   9.649   1.590   5.436  0.9751 -1.1395 -2.3178
  999MOL0     H34842   9.774   1.474   5.437 -2.2693 -1.7427  2.0922
  999MOL0     H34843   9.855   1.755   5.539  1.6133 -1.7999  1.7379
  999MOL0     H34844   9.952   1.636   5.458 -1.0881 -1.5698 -2.7619
  999MOL0     H34845   9.617   1.591   6.162  0.0782 -1.6916  1.0762
  999MOL0     H34846   9.643   1.804   6.305 -2.1511 -0.3032 -1.1365
  999MOL0     H34847   9.998   2.060   6.428 -2.8031 -0.7353 -3.8413
  999MOL0     H34848  10.023   2.297   6.479  0.2354 -1.9586 -2.7255
  999MOL0     H34849   8.511   3.013   6.996 -2.0463 -0.8012  0.9173
  999MOL0     H34850   8.274   2.947   7.047  1.0296  1.2313  0.2726
  999MOL0     H34851   7.855   2.954   6.760 -3.0891 -0.0285 -1.2839
  999MOL0     H34852   7.639   2.900   6.693  2.7617  0.0883 -1.0724
  999MOL0     H34853   7.471   2.659   6.698 -0.5509 -0.4463  0.3752
  999MOL0     H34854   7.439   2.833   6.657  1.6306 -1.2070 -0.5338
  999MOL0     H34855   7.234   2.634   6.768 -1.5275  0.7606  0.1354
  999MOL0     H34856   7.264   2.666   6.606 -0.0955 -0.7519  0.5646
  999MOL0     H34857   7.195   2.911   6.640 -2.2351 -0.1095 -2.0505
  999MOL0     H34858   7.195   2.883   6.817 -0.5381 -0.8184  0.3797
  999MOL0     H34859   7.020   2.704   6.781 -1.0784  3.0525  2.5085
  999MOL0     H34860   6.977   2.876   6.730 -0.8029 -0.7439 -0.0819
  999MOL0     H34861   6.947   2.680   6.366 -0.3461 -1.9850  0.5421
  999MOL0     H34862   7.566   2.694   7.051  0.4917 -0.3326 -0.4409
  999MOL0     H34863   7.747   2.695   7.225 -0.1273 -1.0789 -0.9813
  999MOL0     H34864   7.912   2.685   7.164 -0.7510 -1.2282  1.3909
  999MOL0     H34865   7.847   2.841   7.233 -0.7431  0.1455 -1.0298
 1000MOL0     O34866  10.906   8.591   5.536  0.2012 -0.4459 -0.1044
 1000MOL0     C34867  10.891   8.648   5.419 -0.7166  0.2600 -0.6512
 1000MOL0     O34868  10.994   8.684   5.339 -0.1645 -0.3589  0.1737
 1000MOL0     C34869  11.116   8.710   5.398  0.3190  0.1976  0.0910
 1000MOL0     C34870  11.195   8.803   5.333  0.3650  0.5954 -0.2488
 1000MOL0     C34871  11.321   8.847   5.377 -0.3084 -0.3011  0.2154
 1000MOL0     C34872  11.388   8.788   5.485 -0.1672  0.3423 -0.5848
 1000MOL0     O34873  11.514   8.827   5.521 -0.4476 -0.0446 -0.3784
 1000MOL0     C34874  11.570   8.765   5.634  0.1942  0.2994 -0.1636
 1000MOL0     C34875  11.704   8.815   5.677  0.0199 -0.6228  0.2730
 1000MOL0     C34876  11.693   8.972   5.713  0.1973 -0.5877 -0.4736
 1000MOL0     C34877  11.832   9.028   5.744 -0.1588 -0.3244  0.3062
 1000MOL0     C34878  11.821   9.176   5.760  0.5807 -0.3207  0.6166
 1000MOL0     C34879  11.900   9.236   5.867 -0.5321 -0.1030 -0.3088
 1000MOL0     C34880  12.052   9.218   5.829  0.3832  0.4844  0.1594
 1000MOL0     C34881  12.146   9.241   5.943 -0.1674 -0.2042  0.1255
 1000MOL0     N34882  12.132   9.373   5.999  0.8966 -0.0094 -0.0655
 1000MOL0     C34883  12.222   9.478   5.980  0.1844  0.3111  0.0648
 1000MOL0     C34884  12.214   9.556   6.089 -0.0566 -0.2625  0.2654
 1000MOL0     C34885  12.304   9.661   6.121  0.5016 -0.1024  0.1159
 1000MOL0     C34886  12.439   9.628   6.183 -0.4273 -0.6236 -0.0334
 1000MOL0     C34887  12.430   9.584   6.330 -0.5425 -0.2564 -0.2955
 1000MOL0     C34888  12.566   9.592   6.416 -0.6596  0.4008 -0.2289
 1000MOL0     O34889  12.674   9.525   6.352 -0.0308  0.2661 -0.0155
 1000MOL0     C34890  12.788   9.522   6.423  0.5337  0.0912 -0.2951
 1000MOL0     C34891  12.800   9.542   6.565  0.3489 -0.0670  1.2985
 1000MOL0     C34892  12.926   9.531   6.625  0.0027  0.2206  0.5686
 1000MOL0     C34893  13.037   9.492   6.549  0.2650  0.1031  0.0308
 1000MOL0     C34894  13.157   9.456   6.623 -0.4441 -0.5188  0.1713
 1000MOL0     O34895  13.267   9.446   6.549 -0.3137 -0.0548 -0.6318
 1000MOL0     C34896  13.393   9.428   6.600 -0.9989  0.0149  0.8716
 1000MOL0     C34897  13.500   9.407   6.507 -0.0942 -0.7019 -0.0342
 1000MOL0     C34898  13.635   9.400   6.546  1.4359  0.3060  0.3049
 1000MOL0     C34899  13.673   9.403   6.678  0.4772  0.3311  0.1241
 1000MOL0     O34900  13.805   9.385   6.719 -0.1064 -0.8071 -0.5143
 1000MOL0     C34901  13.835   9.300   6.830  0.0271  0.2296 -0.3282
 1000MOL0     C34902  13.816   9.149   6.779  0.3211 -0.1615  0.1154
 1000MOL0     C34903  13.925   9.093   6.680  0.8166  0.2850  0.7819
 1000MOL0     C34904  14.070   9.091   6.743 -1.2043 -0.0441  0.1233
 1000MOL0     C34905  14.171   9.011   6.666 -0.3647  0.6754 -0.1312
 1000MOL0     C34906  14.310   9.014   6.732  0.2132 -0.4943  0.6562
 1000MOL0     C34907  14.321   8.962   6.871 -0.1645  0.0873 -0.2089
 1000MOL0     C34908  14.448   8.888   6.898  0.2271 -0.5023 -0.2637
 1000MOL0    Cl34909  14.478   8.865   7.072  0.0043  0.1330  0.1228
 1000MOL0     C34910  13.574   9.428   6.762 -0.7186  0.0312  0.1704
 1000MOL0     C34911  13.437   9.449   6.731 -0.5257  0.4814  1.0539
 1000MOL0     O34912  13.147   9.459   6.744  0.2223  0.0700  0.0984
 1000MOL0     C34913  13.025   9.483   6.413  0.4631 -0.0338  0.2760
 1000MOL0     C34914  12.898   9.511   6.350 -0.5566  0.5246  0.6463
 1000MOL0     N34915  12.112   9.514   6.172 -0.3657  0.1295 -0.1399
 1000MOL0     N34916  12.069   9.404   6.119 -0.0909 -0.7400  0.6502
 1000MOL0     C34917  11.306   8.690   5.552 -0.2161  0.1195 -0.3399
 1000MOL0     C34918  11.180   8.650   5.509 -0.2805  0.0515 -0.2972
 1000MOL0     C34919  10.753   8.646   5.360  0.3184  0.8380  0.5765
 1000MOL0     C34920  10.732   8.647   5.222 -0.8396 -0.6492  0.0453
 1000MOL0     C34921  10.615   8.639   5.160 -0.0181 -0.1731  1.1650
 1000MOL0     C34922  10.494   8.613   5.219 -0.6660 -0.1895  1.0564
 1000MOL0     O34923  10.382   8.615   5.132 -0.4420  0.5255  0.1792
 1000MOL0     C34924  10.258   8.569   5.178  0.1904 -0.6550  0.4849
 1000MOL0     C34925  10.245   8.419   5.194  0.3008 -0.0313  1.0238
 1000MOL0     C34926  10.105   8.394   5.251  1.2921  0.0693 -0.5839
 1000MOL0     C34927  10.084   8.252   5.309  0.1939  0.5230 -0.7632
 1000MOL0     C34928  10.171   8.146   5.243 -0.6745 -0.3826 -0.3711
 1000MOL0     C34929  10.236   8.059   5.188  0.3810 -0.2844 -0.0871
 1000MOL0     C34930  10.510   8.592   5.356 -0.4686  0.9078  0.1948
 1000MOL0     C34931  10.630   8.617   5.429 -0.5080 -0.0126  0.1043
 1000MOL0     C34932  10.630   8.584   5.577  0.0965  0.1087  0.1240
 1000MOL0     H34933  11.163   8.861   5.247  3.0664 -1.1360 -2.5978
 1000MOL0     H34934  11.371   8.920   5.313 -2.3090 -0.3942 -1.5774
 1000MOL0     H34935  11.506   8.788   5.719 -0.6116 -0.9834 -0.3839
 1000MOL0     H34936  11.577   8.656   5.620  0.1792  0.4156 -1.0884
 1000MOL0     H34937  11.776   8.804   5.595  1.3893 -1.9116  1.5758
 1000MOL0     H34938  11.754   8.755   5.754  4.1023  0.7108 -1.0960
 1000MOL0     H34939  11.653   8.973   5.815  3.7644  0.7908  1.0786
 1000MOL0     H34940  11.631   9.025   5.640  1.2346  0.7003 -0.4453
 1000MOL0     H34941  11.876   8.992   5.837 -0.4008  1.2783  1.0808
 1000MOL0     H34942  11.904   9.006   5.665  0.1545  0.4913  0.3528
 1000MOL0     H34943  11.843   9.227   5.666 -2.5292 -0.8444 -0.5011
 1000MOL0     H34944  11.717   9.203   5.781  1.8087  1.4198  6.2924
 1000MOL0     H34945  11.868   9.340   5.874 -0.0622  0.0343 -0.2248
 1000MOL0     H34946  11.876   9.191   5.964  2.3340 -1.4974 -0.1504
 1000MOL0     H34947  12.069   9.292   5.751 -2.2759  0.5308 -0.4780
 1000MOL0     H34948  12.073   9.119   5.788 -1.4699  0.6132 -1.2178
 1000MOL0     H34949  12.119   9.162   6.014 -0.4200  0.8662  1.2545
 1000MOL0     H34950  12.249   9.238   5.906 -0.4676  2.2915 -1.0933
 1000MOL0     H34951  12.285   9.479   5.892  1.5405 -0.1358  1.0112
 1000MOL0     H34952  12.323   9.718   6.030 -0.2987 -0.2420 -0.1494
 1000MOL0     H34953  12.243   9.721   6.189 -0.8209 -1.0307 -0.2035
 1000MOL0     H34954  12.484   9.547   6.125 -2.1203 -1.8911  0.3635
 1000MOL0     H34955  12.509   9.712   6.186  0.1743 -1.1334  0.4747
 1000MOL0     H34956  12.395   9.481   6.348 -3.5752  1.1116  2.7588
 1000MOL0     H34957  12.352   9.647   6.373 -0.9591 -1.0439  0.1424
 1000MOL0     H34958  12.548   9.538   6.509  1.3443 -1.2001 -0.7091
 1000MOL0     H34959  12.586   9.697   6.438  1.9263 -0.3877  1.6077
 1000MOL0     H34960  12.704   9.551   6.614 -0.3118 -0.1509  0.0696
 1000MOL0     H34961  12.928   9.554   6.731 -0.8491  0.2323  0.5901
 1000MOL0     H34962  13.487   9.399   6.399 -0.7458 -0.8853  0.0550
 1000MOL0     H34963  13.719   9.387   6.479 -1.2570 -1.6335 -2.9969
 1000MOL0     H34964  13.940   9.312   6.859 -1.2196  2.3647  4.0952
 1000MOL0     H34965  13.791   9.324   6.927  1.8508 -2.0648  1.1808
 1000MOL0     H34966  13.819   9.076   6.860  1.3121 -0.0349  0.2006
 1000MOL0     H34967  13.721   9.146   6.724  1.1671  0.6825 -1.4408
 1000MOL0     H34968  13.892   8.992   6.656  0.8572  0.2389  0.9235
 1000MOL0     H34969  13.920   9.145   6.584 -0.9044 -2.8656 -0.9944
 1000MOL0     H34970  14.063   9.051   6.845  1.3161 -3.2848 -0.8202
 1000MOL0     H34971  14.102   9.196   6.738 -1.5874  0.2744  2.7474
 1000MOL0     H34972  14.188   9.021   6.559  1.5723 -0.2867  0.0338
 1000MOL0     H34973  14.132   8.909   6.680  0.4570  0.5181  1.1793
 1000MOL0     H34974  14.379   8.958   6.669 -1.4802 -2.8633  0.7602
 1000MOL0     H34975  14.347   9.117   6.739  4.0179 -1.7564  1.8144
 1000MOL0     H34976  14.237   8.897   6.896 -0.8991  0.4495 -1.6421
 1000MOL0     H34977  14.321   9.046   6.941 -1.7068 -0.2535  0.2390
 1000MOL0     H34978  14.447   8.791   6.848  0.0511 -1.0004  0.6705
 1000MOL0     H34979  14.525   8.941   6.843  0.0718  0.7617  0.6976
 1000MOL0     H34980  13.594   9.433   6.869  1.0603  0.3807 -0.1427
 1000MOL0     H34981  13.381   9.473   6.820 -2.2364  2.2059 -0.3972
 1000MOL0     H34982  13.109   9.480   6.345 -0.0015  0.5583 -0.3467
 1000MOL0     H34983  12.888   9.517   6.242 -0.6776  1.5258  0.7013
 1000MOL0     H34984  11.339   8.631   5.637  0.3159  0.9912  0.0736
 1000MOL0     H34985  11.140   8.570   5.571 -3.1001 -0.3310 -2.4111
 1000MOL0     H34986  10.818   8.656   5.156 -0.4415 -2.1707  0.3178
 1000MOL0     H34987  10.611   8.644   5.052  1.7588 -2.9179  0.8434
 1000MOL0     H34988  10.194   8.606   5.098  2.1573 -1.1047 -1.4191
 1000MOL0     H34989  10.233   8.623   5.269  0.0575  0.9329 -0.4513
 1000MOL0     H34990  10.320   8.386   5.266 -2.1005 -2.1499  2.7527
 1000MOL0     H34991  10.259   8.362   5.102  0.5983  0.3002  0.8613
 1000MOL0     H34992  10.032   8.398   5.169 -0.1117 -3.2087  0.3391
 1000MOL0     H34993  10.070   8.464   5.327  0.9913 -1.5481  0.8310
 1000MOL0     H34994  10.101   8.254   5.417  2.4237 -0.0660 -1.0603
 1000MOL0     H34995   9.982   8.216   5.290  0.0494 -0.6880  1.8876
 1000MOL0     H34996  10.294   7.985   5.136  0.4384 -0.1982 -0.1458
 1000MOL0     H34997  10.422   8.559   5.411  0.8498  0.5246  2.1719
 1000MOL0     H34998  10.525   8.571   5.604 -0.3681  0.9521 -1.1817
 1000MOL0     H34999  10.687   8.495   5.605 -0.1517 -0.0052  0.2718
 1000MOL0     H35000  10.674   8.670   5.629 -2.0563  1.9396 -0.9245
 1001MOL0     O35001   8.282   8.898   3.865 -1.1965 -0.2305 -0.5150
 1001MOL0     C35002   8.276   8.934   3.980  0.4237 -1.0427  0.0503
 1001MOL0     O35003   8.367   8.911   4.084 -0.2613  0.4879  0.4708
 1001MOL0     C35004   8.496   8.894   4.045 -0.2457  0.2333  0.1012
 1001MOL0     C35005   8.570   8.995   3.983  0.1404  0.1151 -0.5654
 1001MOL0     C35006   8.704   8.971   3.957 -0.6611 -0.6757  0.6380
 1001MOL0     C35007   8.774   8.853   3.988 -0.1640  0.3606 -0.5883
 1001MOL0     O35008   8.905   8.846   3.976 -0.9819 -0.5311  0.0888
 1001MOL0     C35009   8.978   8.729   4.025 -0.3967 -0.6559  0.5935
 1001MOL0     C35010   9.113   8.775   4.019 -0.2273  0.8707 -0.6407
 1001MOL0     C35011   9.183   8.750   3.889 -0.5726 -0.0960 -0.3063
 1001MOL0     C35012   9.329   8.789   3.891 -0.4673  0.6748 -0.0520
 1001MOL0     C35013   9.400   8.776   3.756  0.1037  0.8232  0.0951
 1001MOL0     C35014   9.537   8.808   3.782 -0.8228  0.1299  0.7861
 1001MOL0     C35015   9.620   8.813   3.652  0.1771  0.2233  0.5512
 1001MOL0     C35016   9.753   8.879   3.671 -0.4803  0.7060 -0.3092
 1001MOL0     N35017   9.849   8.818   3.768  0.2740 -0.3167  0.1882
 1001MOL0     C35018   9.848   8.815   3.911  0.4175 -0.5800  0.5553
 1001MOL0     C35019   9.960   8.741   3.945 -0.2011  0.1035 -0.8013
 1001MOL0     C35020  10.033   8.701   4.069 -0.6038 -0.2983 -0.4958
 1001MOL0     C35021   9.991   8.806   4.177 -0.0398 -0.4574  0.6057
 1001MOL0     C35022  10.084   8.811   4.294  1.1462 -0.4331  0.6375
 1001MOL0     C35023  10.220   8.870   4.276  0.4767 -0.3709 -0.1654
 1001MOL0     O35024  10.307   8.768   4.335  0.1545  1.1625  0.1701
 1001MOL0     C35025  10.441   8.788   4.333 -0.1200 -0.6957 -0.3690
 1001MOL0     C35026  10.526   8.698   4.390 -1.2464  0.9123  0.1662
 1001MOL0     C35027  10.668   8.708   4.392 -0.7398  0.2093  0.4724
 1001MOL0     C35028  10.731   8.821   4.335  0.4943 -0.1778 -0.4610
 1001MOL0     C35029  10.878   8.842   4.339 -0.5835 -0.4282  0.3433
 1001MOL0     O35030  10.942   8.970   4.328 -0.4270  0.5724  0.0013
 1001MOL0     C35031  11.081   8.977   4.321 -1.2893 -1.0117  0.5125
 1001MOL0     C35032  11.157   8.876   4.245  0.8934  0.5226  0.3708
 1001MOL0     C35033  11.290   8.894   4.221  0.8062  0.0733  0.0032
 1001MOL0     C35034  11.359   9.002   4.276  0.7319  1.5441 -0.1226
 1001MOL0     O35035  11.493   9.006   4.250 -0.1145 -0.3747  0.1736
 1001MOL0     C35036  11.581   9.109   4.294  0.1124 -0.1880 -0.3197
 1001MOL0     C35037  11.731   9.081   4.280 -0.1037 -0.4471 -0.2164
 1001MOL0     C35038  11.781   9.006   4.402 -0.6302  0.4886 -0.5390
 1001MOL0     C35039  11.932   8.969   4.388 -0.4228  0.3223  0.7152
 1001MOL0     C35040  11.983   8.872   4.497  0.2627 -0.0191  1.1779
 1001MOL0     C35041  12.132   8.901   4.541  0.4231  0.9947  0.3359
 1001MOL0     C35042  12.156   9.024   4.627  1.1313 -1.1544 -0.0613
 1001MOL0     C35043  12.299   9.027   4.675  0.8280 -0.2343 -0.7106
 1001MOL0    Cl35044  12.311   9.154   4.800 -0.0928  0.2845 -0.6161
 1001MOL0     C35045  11.292   9.096   4.351  0.0539 -0.0172  0.0139
 1001MOL0     C35046  11.159   9.087   4.367  0.9433 -0.1671  0.0779
 1001MOL0     O35047  10.943   8.744   4.366 -0.5898  0.0803  0.2837
 1001MOL0     C35048  10.647   8.924   4.273 -0.1368 -0.0714  0.1799
 1001MOL0     C35049  10.506   8.895   4.270 -0.1995 -0.9059  0.6761
 1001MOL0     N35050  10.029   8.715   3.823  0.5032 -0.5263 -0.5207
 1001MOL0     N35051   9.956   8.749   3.721  0.0631  0.2807 -0.6249
 1001MOL0     C35052   8.696   8.755   4.056  0.2948 -0.3245  1.0043
 1001MOL0     C35053   8.559   8.777   4.073 -0.7035  1.0044 -0.6500
 1001MOL0     C35054   8.144   9.006   4.017  1.3714  0.2325  0.5460
 1001MOL0     C35055   8.132   9.049   4.151  0.3646 -0.0962 -0.1966
 1001MOL0     C35056   8.008   9.097   4.198 -0.4450  0.1008  1.1278
 1001MOL0     C35057   7.905   9.113   4.110 -0.4486 -0.2099  0.0471
 1001MOL0     O35058   7.781   9.156   4.152  0.2147  0.5293 -0.4428
 1001MOL0     C35059   7.693   9.220   4.062 -0.5117  0.2734  0.4677
 1001MOL0     C35060   7.591   9.300   4.140 -0.1907  0.6563  0.7578
 1001MOL0     C35061   7.500   9.201   4.221  0.0669 -0.1048 -0.2710
 1001MOL0     C35062   7.458   9.258   4.353 -0.8455 -0.2137  0.2695
 1001MOL0     C35063   7.347   9.352   4.357 -0.9856  0.3599 -0.3256
 1001MOL0     C35064   7.258   9.432   4.375  0.1581 -0.7593 -0.1834
 1001MOL0     C35065   7.918   9.072   3.978  0.0932  0.3564  0.1463
 1001MOL0     C35066   8.031   9.004   3.925 -0.6844  0.4842 -0.0490
 1001MOL0     C35067   8.027   8.968   3.785 -0.3707 -0.2538 -0.5260
 1001MOL0     H35068   8.535   9.096   3.965 -0.4305  0.2638  1.1994
 1001MOL0     H35069   8.762   9.052   3.913 -1.5925 -0.8786 -1.0602
 1001MOL0     H35070   8.946   8.698   4.125 -1.2928 -3.9261 -0.5807
 1001MOL0     H35071   8.964   8.641   3.962  0.8129  0.7633 -1.7978
 1001MOL0     H35072   9.163   8.707   4.088  0.5698 -0.5950 -2.5548
 1001MOL0     H35073   9.136   8.876   4.054  2.4478  0.6040 -1.3877
 1001MOL0     H35074   9.138   8.810   3.809  0.0922 -0.6204 -1.0957
 1001MOL0     H35075   9.179   8.647   3.853  1.2494 -0.4767  0.4854
 1001MOL0     H35076   9.328   8.893   3.924  0.1852  0.4391  0.7282
 1001MOL0     H35077   9.381   8.732   3.968 -1.9431 -0.5591  0.0984
 1001MOL0     H35078   9.392   8.676   3.711 -3.4827  0.6319  0.8787
 1001MOL0     H35079   9.354   8.846   3.685  0.1340  2.6200  1.7917
 1001MOL0     H35080   9.556   8.902   3.834 -0.1991 -0.4766  1.6957
 1001MOL0     H35081   9.579   8.729   3.845  1.0782  2.5884  2.7858
 1001MOL0     H35082   9.564   8.866   3.574 -2.1900  0.9476  2.6102
 1001MOL0     H35083   9.631   8.712   3.614  2.3948  0.6873 -0.1592
 1001MOL0     H35084   9.803   8.878   3.574  1.2377  0.5841  0.5407
 1001MOL0     H35085   9.727   8.978   3.708 -1.5587  0.3648 -0.1121
 1001MOL0     H35086   9.761   8.853   3.964  0.4574  1.5042 -0.7431
 1001MOL0     H35087  10.012   8.598   4.099 -2.3979 -0.0142 -0.7130
 1001MOL0     H35088  10.141   8.713   4.052 -0.9962  2.1513 -1.6957
 1001MOL0     H35089  10.008   8.903   4.130 -1.9967 -0.1782  0.3949
 1001MOL0     H35090   9.888   8.787   4.207  0.7976 -2.4935  2.4825
 1001MOL0     H35091  10.088   8.707   4.326 -0.2168 -1.5124 -2.3719
 1001MOL0     H35092  10.027   8.869   4.367  0.6882  1.5164 -1.1512
 1001MOL0     H35093  10.232   8.962   4.333  4.1352  0.2355 -1.6557
 1001MOL0     H35094  10.239   8.890   4.170 -0.7366  3.2072  0.1519
 1001MOL0     H35095  10.493   8.606   4.436  1.7886 -0.4952 -0.1725
 1001MOL0     H35096  10.728   8.635   4.444  0.2982  1.1269  0.6144
 1001MOL0     H35097  11.106   8.799   4.190  0.2305 -0.5444  2.3668
 1001MOL0     H35098  11.346   8.837   4.148  2.6352 -0.4156  1.7001
 1001MOL0     H35099  11.572   9.190   4.221 -2.0435 -1.8948 -2.0990
 1001MOL0     H35100  11.561   9.152   4.392  0.2853  2.5054 -1.3959
 1001MOL0     H35101  11.750   9.038   4.181 -1.3655  2.7916 -1.9816
 1001MOL0     H35102  11.779   9.179   4.285  2.0538 -1.3877 -1.2981
 1001MOL0     H35103  11.761   9.071   4.487  1.0932  2.9987 -1.9145
 1001MOL0     H35104  11.718   8.918   4.415 -0.2876  0.6672  3.3646
 1001MOL0     H35105  11.998   9.054   4.371  0.3704 -0.2694  0.7562
 1001MOL0     H35106  11.934   8.920   4.290 -2.2921  1.1977  0.1918
 1001MOL0     H35107  11.974   8.767   4.465 -3.7312  0.1900  1.0872
 1001MOL0     H35108  11.927   8.884   4.590  0.5977  2.7957  1.0932
 1001MOL0     H35109  12.153   8.821   4.612 -1.4625  0.7847  0.7183
 1001MOL0     H35110  12.195   8.888   4.452  0.0843  0.7306  0.1289
 1001MOL0     H35111  12.084   9.021   4.709 -0.3888 -2.2874 -1.3584
 1001MOL0     H35112  12.135   9.112   4.566  0.2688 -0.6068  1.0006
 1001MOL0     H35113  12.334   8.929   4.709  1.2321 -0.3334 -1.4036
 1001MOL0     H35114  12.358   9.052   4.587  0.0639  1.1032 -0.8685
 1001MOL0     H35115  11.349   9.177   4.395 -1.3875  0.5350  0.9410
 1001MOL0     H35116  11.102   9.160   4.423  0.9412 -0.9468  1.1185
 1001MOL0     H35117  10.687   9.008   4.217  1.8217 -1.0005  0.0793
 1001MOL0     H35118  10.440   8.961   4.215 -0.9946 -3.2162 -1.2950
 1001MOL0     H35119   8.736   8.661   4.092  0.9322 -0.5237 -0.1546
 1001MOL0     H35120   8.519   8.693   4.127  1.4819  0.0926 -0.3274
 1001MOL0     H35121   8.224   9.048   4.209  0.5075 -1.2896 -0.4196
 1001MOL0     H35122   7.988   9.131   4.299 -1.3894  2.5294  0.2188
 1001MOL0     H35123   7.643   9.149   3.995  2.1745 -0.4243 -0.9500
 1001MOL0     H35124   7.750   9.285   3.995  1.5660 -1.1176  0.7916
 1001MOL0     H35125   7.535   9.357   4.065 -1.7804  0.0241  1.4443
 1001MOL0     H35126   7.638   9.374   4.206  0.5210 -1.1200  2.3385
 1001MOL0     H35127   7.556   9.109   4.239  2.5710  1.0961 -1.3775
 1001MOL0     H35128   7.416   9.167   4.159  0.4826 -0.4219 -0.6756
 1001MOL0     H35129   7.429   9.171   4.412  1.8629 -0.7772  0.8992
 1001MOL0     H35130   7.542   9.312   4.398 -0.4686  0.4753 -1.1677
 1001MOL0     H35131   7.182   9.506   4.382 -0.2924 -1.1331 -0.9746
 1001MOL0     H35132   7.822   9.074   3.928 -0.4105 -2.7040  0.7839
 1001MOL0     H35133   8.111   9.013   3.731 -0.2005  1.1679  0.8705
 1001MOL0     H35134   8.031   8.859   3.773 -2.3024 -0.6876  1.9425
 1001MOL0     H35135   7.930   9.001   3.746 -1.7676 -2.0207  1.2699
 1002MOL0     O35136   0.537  11.302   7.321  0.4770 -0.4134 -0.4196
 1002MOL0     C35137   0.440  11.318   7.256 -0.6065  0.0783 -0.2400
 1002MOL0     O35138   0.436  11.300   7.126  0.4931 -0.6626 -0.0173
 1002MOL0     C35139   0.542  11.331   7.037  0.3833 -0.6795 -0.4905
 1002MOL0     C35140   0.594  11.234   6.960 -0.6861  0.1848  1.0892
 1002MOL0     C35141   0.707  11.264   6.877  0.0590 -0.1564 -1.6458
 1002MOL0     C35142   0.761  11.391   6.870 -0.8796 -0.0169  0.9262
 1002MOL0     O35143   0.862  11.389   6.778 -0.2574  0.1400 -0.0093
 1002MOL0     C35144   0.919  11.516   6.740 -0.9267  0.3305  0.5263
 1002MOL0     C35145   0.999  11.522   6.609 -0.3610  0.4676 -0.4878
 1002MOL0     C35146   1.125  11.439   6.628 -0.3488 -0.8663  0.2246
 1002MOL0     C35147   1.243  11.532   6.667  0.2166  0.3823 -0.2545
 1002MOL0     C35148   1.358  11.454   6.741  0.1700  0.5309 -0.2217
 1002MOL0     C35149   1.447  11.374   6.638  0.1984 -0.2112 -0.1793
 1002MOL0     C35150   1.532  11.476   6.546 -0.3063 -0.0326  0.5925
 1002MOL0     C35151   1.657  11.417   6.477  0.4294 -0.4720 -0.1319
 1002MOL0     N35152   1.754  11.369   6.569 -0.0139 -0.4257 -0.7831
 1002MOL0     C35153   1.809  11.444   6.678  0.7026  0.2122  0.3212
 1002MOL0     C35154   1.892  11.354   6.730 -0.1470 -0.0191 -0.8466
 1002MOL0     C35155   1.975  11.374   6.855 -0.0473  0.5058  0.2921
 1002MOL0     C35156   2.128  11.385   6.832 -0.0348  0.1342  0.1595
 1002MOL0     C35157   2.171  11.525   6.780  0.0748 -0.0838 -0.2290
 1002MOL0     C35158   2.322  11.538   6.757  0.2465  0.2983 -0.6259
 1002MOL0     O35159   2.405  11.501   6.875  0.1331 -0.1046 -0.3324
 1002MOL0     C35160   2.547  11.494   6.862  0.3593 -0.0696 -0.4554
 1002MOL0     C35161   2.615  11.517   6.740 -0.0053 -0.4378 -0.4051
 1002MOL0     C35162   2.757  11.492   6.735  0.8638 -0.5941 -0.7104
 1002MOL0     C35163   2.816  11.434   6.848 -0.1166  0.5128 -0.0102
 1002MOL0     C35164   2.960  11.409   6.848  0.1402 -0.3331 -0.6657
 1002MOL0     O35165   3.029  11.451   6.740 -0.8458  0.5953 -0.6759
 1002MOL0     C35166   3.149  11.388   6.728  1.0227  0.6723 -0.9238
 1002MOL0     C35167   3.253  11.438   6.797 -0.0478 -0.4276 -0.0264
 1002MOL0     C35168   3.382  11.384   6.779 -0.6879  0.4540  1.1109
 1002MOL0     C35169   3.407  11.280   6.688  0.8283  0.8774  0.9700
 1002MOL0     O35170   3.535  11.229   6.665 -0.3793 -0.8772  0.8305
 1002MOL0     C35171   3.618  11.308   6.574  0.0871 -0.1976  0.0243
 1002MOL0     C35172   3.760  11.301   6.624 -0.2669 -0.1481 -0.1716
 1002MOL0     C35173   3.867  11.345   6.514 -0.3018  0.8783 -0.4817
 1002MOL0     C35174   4.010  11.298   6.557 -0.1765  0.0049 -0.4031
 1002MOL0     C35175   4.118  11.316   6.446 -0.0441  0.3721 -0.3133
 1002MOL0     C35176   4.262  11.278   6.495  0.4204 -0.1694 -0.0712
 1002MOL0     C35177   4.319  11.385   6.600  0.3919  0.2759  0.0657
 1002MOL0     C35178   4.409  11.320   6.701 -0.4472  0.0706 -0.0217
 1002MOL0    Cl35179   4.553  11.225   6.638 -0.6467  0.1602  0.5865
 1002MOL0     C35180   3.290  11.221   6.629 -1.0536 -0.4997  0.8543
 1002MOL0     C35181   3.163  11.278   6.640 -0.2868 -0.3054 -0.2559
 1002MOL0     O35182   3.002  11.350   6.951 -0.2161  0.4656  0.1709
 1002MOL0     C35183   2.743  11.409   6.965  0.1076  0.5847 -0.3482
 1002MOL0     C35184   2.614  11.447   6.978  0.4965 -0.5037  0.2481
 1002MOL0     N35185   1.884  11.235   6.668 -0.1405  0.0677  0.8238
 1002MOL0     N35186   1.799  11.242   6.574  0.7520  0.3005  0.5339
 1002MOL0     C35187   0.710  11.495   6.947 -0.3053 -0.4447  0.7692
 1002MOL0     C35188   0.597  11.464   7.026 -0.2463  0.1742  0.1108
 1002MOL0     C35189   0.311  11.324   7.326 -0.4650 -0.3472  0.2217
 1002MOL0     C35190   0.193  11.279   7.251  0.1710 -0.4475 -0.3642
 1002MOL0     C35191   0.071  11.267   7.310  0.4699 -0.0562 -0.3078
 1002MOL0     C35192   0.054  11.316   7.441  0.2065  0.1671 -0.3990
 1002MOL0     O35193  -0.059  11.285   7.513 -0.2144  0.1418 -0.6347
 1002MOL0     C35194  -0.180  11.353   7.479 -0.3191  0.2248 -0.1126
 1002MOL0     C35195  -0.278  11.355   7.601  0.7115  0.2086 -0.2146
 1002MOL0     C35196  -0.399  11.439   7.556  0.3050  0.1157  0.4274
 1002MOL0     C35197  -0.507  11.443   7.665 -0.0556  0.0300  0.3134
 1002MOL0     C35198  -0.629  11.521   7.631 -0.2188 -0.6957 -0.4528
 1002MOL0     C35199  -0.730  11.588   7.611  0.1181 -0.0223  0.4825
 1002MOL0     C35200   0.159  11.372   7.513 -0.4589  0.4360 -0.2709
 1002MOL0     C35201   0.283  11.368   7.455 -0.3474  0.1874 -0.4336
 1002MOL0     C35202   0.391  11.419   7.549  0.1151  0.1758  0.5249
 1002MOL0     H35203   0.579  11.127   6.973  1.2037 -0.7503 -2.9814
 1002MOL0     H35204   0.757  11.179   6.831 -1.7813 -0.4263 -3.2840
 1002MOL0     H35205   0.842  11.594   6.736  0.7747  2.2060  2.0760
 1002MOL0     H35206   0.991  11.540   6.819 -0.0593 -1.6719  0.3955
 1002MOL0     H35207   1.020  11.626   6.584 -1.0566  0.0290 -3.2259
 1002MOL0     H35208   0.933  11.474   6.535 -4.0023  1.9089  1.5657
 1002MOL0     H35209   1.144  11.377   6.539 -0.2026  0.3852 -0.6415
 1002MOL0     H35210   1.114  11.374   6.715  1.7460  2.2392  3.0795
 1002MOL0     H35211   1.277  11.596   6.585 -1.6687  1.0838 -0.5548
 1002MOL0     H35212   1.197  11.594   6.745 -2.0020  0.2070 -1.3284
 1002MOL0     H35213   1.423  11.511   6.808 -0.0901 -0.0564  0.5470
 1002MOL0     H35214   1.307  11.378   6.801 -1.1332  1.4040 -0.1933
 1002MOL0     H35215   1.517  11.308   6.690  0.5816 -1.2077 -1.8829
 1002MOL0     H35216   1.381  11.312   6.577 -1.3874 -0.0545  1.2956
 1002MOL0     H35217   1.546  11.569   6.601  1.8750  0.0763 -0.0710
 1002MOL0     H35218   1.452  11.499   6.474 -1.5839  0.0495  1.9704
 1002MOL0     H35219   1.618  11.334   6.418 -1.4759  0.7394 -0.6613
 1002MOL0     H35220   1.705  11.483   6.404 -0.1137 -0.3470 -0.3839
 1002MOL0     H35221   1.802  11.543   6.722  1.4582 -1.5869  5.0085
 1002MOL0     H35222   1.935  11.458   6.911 -0.8636 -0.7250  1.6334
 1002MOL0     H35223   1.950  11.286   6.916  2.4485 -1.2002 -0.9923
 1002MOL0     H35224   2.187  11.348   6.916 -1.6092 -0.0180  1.2511
 1002MOL0     H35225   2.143  11.313   6.751  0.2377 -3.2892  3.0076
 1002MOL0     H35226   2.141  11.607   6.846 -0.2318 -0.0499 -0.4030
 1002MOL0     H35227   2.123  11.549   6.684  1.7164 -2.6263 -1.7985
 1002MOL0     H35228   2.345  11.633   6.708 -0.8381 -0.1714 -2.1343
 1002MOL0     H35229   2.349  11.462   6.683  0.6391  0.9966 -1.2069
 1002MOL0     H35230   2.566  11.559   6.653 -0.3125  0.7565  0.3090
 1002MOL0     H35231   2.821  11.518   6.652  0.5501  0.9764 -0.4991
 1002MOL0     H35232   3.238  11.521   6.865  0.8706 -0.4768  0.2542
 1002MOL0     H35233   3.457  11.426   6.845 -2.4060 -1.8935  4.8733
 1002MOL0     H35234   3.613  11.268   6.472  1.0587  2.8098 -1.3235
 1002MOL0     H35235   3.588  11.413   6.569  0.3078 -0.1927 -1.8206
 1002MOL0     H35236   3.766  11.363   6.714  3.1236 -1.6776  0.8147
 1002MOL0     H35237   3.779  11.200   6.663 -0.1066  0.9243  2.8087
 1002MOL0     H35238   3.839  11.303   6.417 -0.4839  0.0183 -0.0654
 1002MOL0     H35239   3.876  11.453   6.502  2.9241  0.7662  0.1539
 1002MOL0     H35240   4.013  11.197   6.598  1.0655 -0.6022 -1.9203
 1002MOL0     H35241   4.042  11.362   6.640 -2.4512 -0.9930  1.3449
 1002MOL0     H35242   4.124  11.418   6.407  0.9939 -0.0230 -1.2313
 1002MOL0     H35243   4.083  11.258   6.360 -2.3727  1.2281 -0.0079
 1002MOL0     H35244   4.257  11.175   6.532 -3.5661 -1.7548 -4.0747
 1002MOL0     H35245   4.337  11.282   6.415  0.2292  0.3344 -0.2284
 1002MOL0     H35246   4.239  11.448   6.641 -0.4699 -2.4145  2.9019
 1002MOL0     H35247   4.389  11.451   6.548 -1.0653  0.3348 -1.9939
 1002MOL0     H35248   4.443  11.409   6.755 -1.1244  1.6240 -2.0455
 1002MOL0     H35249   4.346  11.256   6.765 -0.5024 -0.1178 -0.2639
 1002MOL0     H35250   3.307  11.129   6.573  2.9456 -0.1975  1.2926
 1002MOL0     H35251   3.079  11.243   6.581 -1.9018  0.1245  1.6789
 1002MOL0     H35252   2.797  11.366   7.049 -0.2591  1.4963  0.3815
 1002MOL0     H35253   2.562  11.420   7.070 -2.1057 -1.2705 -1.3616
 1002MOL0     H35254   0.734  11.601   6.946  1.3378 -0.7075  3.4852
 1002MOL0     H35255   0.548  11.545   7.079  0.8178  1.6905 -1.1605
 1002MOL0     H35256   0.201  11.228   7.155 -0.9204 -0.2365 -0.5818
 1002MOL0     H35257  -0.014  11.213   7.268  0.9139 -1.1192  0.1209
 1002MOL0     H35258  -0.237  11.314   7.395 -3.4392  1.2326  1.3868
 1002MOL0     H35259  -0.153  11.456   7.451  0.1516  0.2489  0.3966
 1002MOL0     H35260  -0.225  11.394   7.689  2.4277 -0.5616 -0.8591
 1002MOL0     H35261  -0.311  11.256   7.635  1.5027 -0.5648 -1.6081
 1002MOL0     H35262  -0.448  11.384   7.475 -0.9197 -2.3448  2.6858
 1002MOL0     H35263  -0.373  11.537   7.515  1.6926 -0.0593  0.8623
 1002MOL0     H35264  -0.534  11.340   7.692  2.6795 -0.5222  1.2573
 1002MOL0     H35265  -0.459  11.492   7.750 -0.5398  1.5833 -0.2739
 1002MOL0     H35266  -0.815  11.642   7.577 -1.4854 -1.9236  1.2249
 1002MOL0     H35267   0.146  11.419   7.611 -1.0463  2.0235 -1.0738
 1002MOL0     H35268   0.462  11.336   7.559  0.5200  0.3960 -0.3779
 1002MOL0     H35269   0.444  11.497   7.493  1.7731 -1.2869 -0.0270
 1002MOL0     H35270   0.359  11.447   7.650 -0.3909  2.3995 -0.1783
 1003MOL0     O35271   6.915   1.223  10.949 -0.3454  0.5502 -0.0671
 1003MOL0     C35272   6.940   1.334  10.900 -0.6998  0.4385 -0.1980
 1003MOL0     O35273   7.060   1.393  10.912  0.0823 -0.3988  0.0070
 1003MOL0     C35274   7.156   1.344  10.992 -0.0421  0.5427 -0.1967
 1003MOL0     C35275   7.190   1.404  11.109  0.7118 -0.2046 -0.2130
 1003MOL0     C35276   7.293   1.346  11.189  0.1809 -0.0836  0.5721
 1003MOL0     C35277   7.361   1.236  11.140  0.0649 -0.1954 -0.2792
 1003MOL0     O35278   7.479   1.201  11.204 -0.3169  0.7903  0.6233
 1003MOL0     C35279   7.463   1.131  11.326  0.2368  0.1078 -1.1597
 1003MOL0     C35280   7.520   0.989  11.317  0.0940 -0.8983 -0.0164
 1003MOL0     C35281   7.668   1.000  11.289 -0.2119  0.1742 -0.5565
 1003MOL0     C35282   7.747   0.872  11.320  0.7588 -0.3484 -0.0954
 1003MOL0     C35283   7.890   0.880  11.266 -0.3525  0.3495  0.3652
 1003MOL0     C35284   7.896   0.860  11.119  0.5565 -0.8076  0.0516
 1003MOL0     C35285   8.035   0.854  11.044 -0.2115  0.2932  0.2582
 1003MOL0     C35286   8.078   0.994  11.008 -0.1644 -0.7059  0.3379
 1003MOL0     N35287   8.198   1.004  10.936  0.3786 -0.6849 -1.3085
 1003MOL0     C35288   8.221   0.975  10.802  0.1557 -0.0160 -0.0376
 1003MOL0     C35289   8.352   0.995  10.792 -0.1598 -0.3350  0.6014
 1003MOL0     C35290   8.426   0.985  10.662 -0.3391 -0.1996  0.5371
 1003MOL0     C35291   8.446   1.115  10.574 -0.3773 -0.2285 -0.3307
 1003MOL0     C35292   8.512   1.220  10.656  0.2493 -0.3305  1.3011
 1003MOL0     C35293   8.536   1.343  10.569  0.8314  0.0809  0.7011
 1003MOL0     O35294   8.673   1.368  10.545 -1.1440  0.3387  0.3869
 1003MOL0     C35295   8.745   1.422  10.647  0.6258  0.1365  0.8517
 1003MOL0     C35296   8.881   1.445  10.620 -0.7211  0.8522 -0.0910
 1003MOL0     C35297   8.973   1.498  10.713 -0.0242  0.4792  0.1500
 1003MOL0     C35298   8.929   1.549  10.835 -0.8002  0.0655 -0.5100
 1003MOL0     C35299   9.022   1.602  10.933 -0.4844  0.3232  0.0473
 1003MOL0     O35300   9.148   1.609  10.900 -0.6999  0.6770  0.7067
 1003MOL0     C35301   9.245   1.669  10.979  0.3747  0.3034 -1.0448
 1003MOL0     C35302   9.253   1.622  11.115 -0.4149  0.3479  0.0489
 1003MOL0     C35303   9.361   1.654  11.194 -0.5952 -0.8293 -0.0653
 1003MOL0     C35304   9.459   1.748  11.155  0.5597 -0.3103  0.0960
 1003MOL0     O35305   9.557   1.796  11.246  0.0031  0.9103 -0.1209
 1003MOL0     C35306   9.654   1.887  11.192  0.6780  0.6426 -0.1307
 1003MOL0     C35307   9.770   1.902  11.293 -0.4956  0.1789 -0.0262
 1003MOL0     C35308   9.905   1.964  11.233 -0.6182  0.4260 -0.7402
 1003MOL0     C35309  10.006   1.980  11.339 -0.5001 -0.1124 -1.5478
 1003MOL0     C35310  10.133   2.029  11.286 -0.6078  0.1649 -0.3508
 1003MOL0     C35311  10.257   2.011  11.382  0.8679 -0.3836  0.2769
 1003MOL0     C35312  10.381   2.094  11.343  0.2457 -0.0277 -0.2650
 1003MOL0     C35313  10.442   2.039  11.215 -0.6191  0.8847  0.1571
 1003MOL0    Cl35314  10.564   1.913  11.262 -0.1580  0.2377  0.1683
 1003MOL0     C35315   9.444   1.802  11.023 -0.6529 -0.8513 -0.8376
 1003MOL0     C35316   9.343   1.758  10.939 -0.9666  0.2662 -0.2255
 1003MOL0     O35317   8.970   1.653  11.031  0.1061  0.1274  0.1019
 1003MOL0     C35318   8.784   1.538  10.859  0.1781  0.0124  0.5556
 1003MOL0     C35319   8.690   1.477  10.770  0.1016 -0.4320 -0.2071
 1003MOL0     N35320   8.413   1.006  10.915  1.0058 -0.6521 -0.2215
 1003MOL0     N35321   8.318   1.019  11.004  0.7765  0.1829  0.4883
 1003MOL0     C35322   7.319   1.163  11.034  0.8033 -0.1169 -0.3694
 1003MOL0     C35323   7.210   1.221  10.961  0.2283  0.1773  0.6344
 1003MOL0     C35324   6.838   1.410  10.865  0.6530 -0.0026 -0.2850
 1003MOL0     C35325   6.848   1.553  10.863  0.3536  0.3432 -0.2263
 1003MOL0     C35326   6.743   1.636  10.811 -0.4861  0.5624  0.5372
 1003MOL0     C35327   6.634   1.580  10.746  0.0659  0.2758  0.1441
 1003MOL0     O35328   6.534   1.654  10.686  0.5738  0.1966 -1.0879
 1003MOL0     C35329   6.516   1.793  10.734  0.3382  0.3354  0.2384
 1003MOL0     C35330   6.377   1.834  10.679  0.4663  0.1460  0.5503
 1003MOL0     C35331   6.269   1.728  10.728 -0.5266 -0.5418  0.1779
 1003MOL0     C35332   6.124   1.785  10.733 -0.3000 -0.0315 -0.1487
 1003MOL0     C35333   6.068   1.815  10.607 -0.3635 -0.1095 -0.1402
 1003MOL0     C35334   6.044   1.818  10.488 -0.2800  0.4292 -0.5002
 1003MOL0     C35335   6.627   1.445  10.743  0.5937 -0.1995  0.6036
 1003MOL0     C35336   6.713   1.356  10.806 -0.8484 -0.0512 -0.1680
 1003MOL0     C35337   6.677   1.211  10.806 -0.8404 -0.5727 -0.1631
 1003MOL0     H35338   7.140   1.494  11.142  0.0740 -0.4143 -0.5751
 1003MOL0     H35339   7.333   1.396  11.277  1.6009 -0.1040 -0.0291
 1003MOL0     H35340   7.512   1.186  11.406 -0.1208 -1.9250  0.5483
 1003MOL0     H35341   7.360   1.121  11.361  0.9623 -1.5369  0.6982
 1003MOL0     H35342   7.464   0.945  11.234 -2.5601  0.8804  0.7163
 1003MOL0     H35343   7.501   0.944  11.416 -1.4136  0.1539  0.2058
 1003MOL0     H35344   7.722   1.081  11.339  1.4601 -1.5229  0.5117
 1003MOL0     H35345   7.674   1.017  11.181 -0.7419 -0.8180 -0.7513
 1003MOL0     H35346   7.756   0.866  11.429 -0.2281 -1.4839 -0.0528
 1003MOL0     H35347   7.698   0.788  11.270  0.0739  0.5035 -0.8979
 1003MOL0     H35348   7.932   0.980  11.282  0.1766  0.8956 -3.4345
 1003MOL0     H35349   7.954   0.808  11.318  0.5076  0.0661 -1.0160
 1003MOL0     H35350   7.840   0.767  11.107 -2.3950  0.8233 -0.0054
 1003MOL0     H35351   7.832   0.932  11.067  2.2295  0.3300 -0.4897
 1003MOL0     H35352   8.033   0.787  10.957  3.4872  1.7043 -1.1049
 1003MOL0     H35353   8.105   0.826  11.123 -1.8369 -0.2877  1.5443
 1003MOL0     H35354   7.997   1.032  10.946 -0.2455 -1.8693 -0.3161
 1003MOL0     H35355   8.084   1.062  11.093  1.5915  0.2551 -0.4956
 1003MOL0     H35356   8.150   0.949  10.725 -2.8789  1.0466  2.2081
 1003MOL0     H35357   8.524   0.944  10.688 -0.6094 -0.7283  0.7403
 1003MOL0     H35358   8.367   0.919  10.598 -3.2242  1.8988  0.8428
 1003MOL0     H35359   8.522   1.084  10.502  1.5526  0.0875  1.4431
 1003MOL0     H35360   8.350   1.155  10.540 -0.2953  1.0163  0.8178
 1003MOL0     H35361   8.606   1.188  10.701 -0.3803 -0.7858  2.3238
 1003MOL0     H35362   8.438   1.245  10.733 -4.0173  0.5825 -2.6376
 1003MOL0     H35363   8.485   1.429  10.613 -0.9759  0.9422 -2.7241
 1003MOL0     H35364   8.481   1.325  10.476  1.1492  1.8744  0.1365
 1003MOL0     H35365   8.916   1.421  10.520  5.2662 -2.5759  2.3278
 1003MOL0     H35366   9.074   1.503  10.673 -0.5567  1.6662 -1.0958
 1003MOL0     H35367   9.174   1.555  11.147  1.4215 -2.3890 -0.7589
 1003MOL0     H35368   9.379   1.624  11.297 -1.5308  3.2115  1.4861
 1003MOL0     H35369   9.704   1.844  11.105  0.3756  1.3332 -0.6598
 1003MOL0     H35370   9.606   1.982  11.167  0.7129  0.6533 -0.1578
 1003MOL0     H35371   9.733   1.966  11.374 -1.4823 -3.2816  2.4672
 1003MOL0     H35372   9.806   1.808  11.336 -0.4412  1.4507  2.9084
 1003MOL0     H35373   9.930   1.889  11.157 -1.2720 -2.1582  1.4459
 1003MOL0     H35374   9.886   2.062  11.187 -0.0455 -0.0624 -2.0664
 1003MOL0     H35375  10.019   1.892  11.403 -2.6019  1.5561  1.4274
 1003MOL0     H35376   9.980   2.062  11.406  0.0308  0.9208 -2.5683
 1003MOL0     H35377  10.125   2.134  11.257  1.6622  0.3791 -0.3737
 1003MOL0     H35378  10.160   1.976  11.195  0.1581 -0.0472 -0.0028
 1003MOL0     H35379  10.218   2.030  11.482 -2.7492 -1.9837 -0.6723
 1003MOL0     H35380  10.279   1.905  11.373  0.9418 -0.2832 -0.8822
 1003MOL0     H35381  10.451   2.106  11.425  0.4673 -0.4752 -0.3847
 1003MOL0     H35382  10.337   2.191  11.316 -3.7637 -1.9308 -1.3603
 1003MOL0     H35383  10.375   1.992  11.143  1.2323 -1.4398 -0.2019
 1003MOL0     H35384  10.494   2.122  11.166 -3.4046  1.4221 -2.1029
 1003MOL0     H35385   9.521   1.862  10.977 -0.4271 -0.9302 -0.5601
 1003MOL0     H35386   9.340   1.796  10.837 -1.5819  2.4435  0.5439
 1003MOL0     H35387   8.746   1.580  10.952  0.5381  2.1107 -0.1836
 1003MOL0     H35388   8.586   1.467  10.798  0.2858 -3.1763 -0.2148
 1003MOL0     H35389   7.370   1.069  11.014  0.3555 -0.7099  1.0828
 1003MOL0     H35390   7.173   1.170  10.873  2.7870 -0.1167 -0.3527
 1003MOL0     H35391   6.918   1.606  10.927 -1.1017  3.1307 -0.7703
 1003MOL0     H35392   6.769   1.741  10.807  3.5585 -0.3407 -0.5058
 1003MOL0     H35393   6.590   1.866  10.698  1.9075 -2.5683 -2.9621
 1003MOL0     H35394   6.504   1.796  10.842 -0.7234 -0.5309  0.1558
 1003MOL0     H35395   6.376   1.840  10.570 -0.8841  0.8798  0.5825
 1003MOL0     H35396   6.364   1.932  10.726  0.0965  0.2861  0.1547
 1003MOL0     H35397   6.288   1.695  10.830 -2.3509  1.1417  1.1246
 1003MOL0     H35398   6.287   1.645  10.659  3.0199 -1.6212  2.1393
 1003MOL0     H35399   6.059   1.709  10.777  0.3635  0.5822  2.0574
 1003MOL0     H35400   6.129   1.868  10.804  0.9158 -0.4467  0.2812
 1003MOL0     H35401   6.014   1.804  10.386 -3.0244  1.5429  0.0447
 1003MOL0     H35402   6.539   1.407  10.691  1.2450 -1.5060  0.3992
 1003MOL0     H35403   6.729   1.160  10.724  0.6950 -1.7525  1.4653
 1003MOL0     H35404   6.715   1.158  10.893 -0.8680  2.9929  2.2519
 1003MOL0     H35405   6.569   1.194  10.806 -0.8498 -0.5317  1.0195
 1004MOL0     O35406   9.683   5.753   8.706  0.4675  0.0912 -0.2073
 1004MOL0     C35407   9.629   5.856   8.675  1.3824  0.3181 -0.1098
 1004MOL0     O35408   9.689   5.975   8.644 -0.4182 -0.1731  0.5208
 1004MOL0     C35409   9.825   5.984   8.647 -0.6964 -0.5631  0.1568
 1004MOL0     C35410   9.882   6.039   8.758 -0.5663 -0.1262 -0.5184
 1004MOL0     C35411  10.024   6.030   8.766 -0.3698 -0.3726 -0.8621
 1004MOL0     C35412  10.101   5.987   8.656  0.8139 -0.2461 -0.1171
 1004MOL0     O35413  10.234   5.965   8.634  0.4485 -0.0791  0.3663
 1004MOL0     C35414  10.317   6.012   8.737  0.7011 -0.2694  0.5007
 1004MOL0     C35415  10.469   6.023   8.694 -0.3142  0.9054  0.4337
 1004MOL0     C35416  10.554   5.981   8.817  0.7412  1.0605  0.7267
 1004MOL0     C35417  10.696   5.974   8.761 -0.1485  0.2514  0.0060
 1004MOL0     C35418  10.808   5.976   8.862 -0.7605 -0.0949 -0.8109
 1004MOL0     C35419  10.797   5.853   8.957  0.1257 -1.0381 -0.1951
 1004MOL0     C35420  10.935   5.783   8.994 -0.2400 -0.3823  1.0615
 1004MOL0     C35421  10.902   5.684   9.103  0.2685  0.0242 -0.5462
 1004MOL0     N35422  11.022   5.615   9.145 -0.4953  0.3553 -0.5812
 1004MOL0     C35423  11.103   5.640   9.253 -0.1681 -0.5870  0.4909
 1004MOL0     C35424  11.224   5.593   9.235  0.8624 -0.0765  0.3404
 1004MOL0     C35425  11.323   5.578   9.349  0.7468 -0.4645  0.3306
 1004MOL0     C35426  11.469   5.557   9.305  0.0623 -0.1272  0.2678
 1004MOL0     C35427  11.497   5.416   9.253 -1.0233  0.0791 -0.1019
 1004MOL0     C35428  11.505   5.304   9.355 -0.2491 -0.1183 -0.1496
 1004MOL0     O35429  11.617   5.324   9.434 -0.3200  0.1723 -0.4087
 1004MOL0     C35430  11.677   5.223   9.512  0.7092 -0.3816  0.8718
 1004MOL0     C35431  11.798   5.250   9.562  0.5714 -0.2397  0.2169
 1004MOL0     C35432  11.873   5.162   9.635  0.6361  0.4106  0.0109
 1004MOL0     C35433  11.824   5.031   9.667  0.7057 -0.3749 -0.3132
 1004MOL0     C35434  11.892   4.928   9.748 -0.0902  0.2626  0.7412
 1004MOL0     O35435  12.021   4.957   9.784 -0.2791 -0.2250  0.0499
 1004MOL0     C35436  12.090   4.875   9.874  0.3048  0.3794 -0.8995
 1004MOL0     C35437  12.031   4.821   9.989 -0.5105  0.2194 -0.2884
 1004MOL0     C35438  12.097   4.735  10.080  0.3984 -0.0280  0.5475
 1004MOL0     C35439  12.231   4.714  10.067 -0.2396 -0.1573  0.4147
 1004MOL0     O35440  12.296   4.632  10.159  0.8153 -0.5750 -0.2417
 1004MOL0     C35441  12.407   4.552  10.116  0.5888  0.3386 -0.4363
 1004MOL0     C35442  12.532   4.622  10.152 -0.2302  0.8603  0.0319
 1004MOL0     C35443  12.656   4.558  10.092 -0.6347 -0.3363  0.0598
 1004MOL0     C35444  12.772   4.605  10.177 -0.0754 -1.3926  0.5049
 1004MOL0     C35445  12.905   4.566  10.124 -0.3416 -0.1128  0.3154
 1004MOL0     C35446  13.019   4.616  10.212 -0.5357 -0.0261 -0.7250
 1004MOL0     C35447  13.024   4.538  10.345 -0.0719  0.4056 -0.0805
 1004MOL0     C35448  13.128   4.608  10.439  0.5944  0.6356  0.1513
 1004MOL0    Cl35449  13.047   4.742  10.521 -0.1734  0.5326 -0.6737
 1004MOL0     C35450  12.297   4.781   9.955 -0.4292  1.0148 -0.4200
 1004MOL0     C35451  12.223   4.861   9.867 -0.1603 -0.0160  0.1927
 1004MOL0     O35452  11.833   4.821   9.763  0.5989  0.1862 -0.1734
 1004MOL0     C35453  11.699   4.996   9.612  0.5488  0.6552 -0.5659
 1004MOL0     C35454  11.619   5.088   9.537  0.0552  0.3293  0.2360
 1004MOL0     N35455  11.217   5.521   9.121 -0.2571 -0.0833  0.3920
 1004MOL0     N35456  11.106   5.543   9.062  0.3577 -0.5481  0.6092
 1004MOL0     C35457  10.038   5.934   8.544 -0.5033  0.7276  0.5135
 1004MOL0     C35458   9.898   5.934   8.539 -0.4601  0.1416  0.6013
 1004MOL0     C35459   9.480   5.852   8.671 -0.0858 -0.2937 -0.0928
 1004MOL0     C35460   9.408   5.745   8.721  0.5100 -0.2638  0.2692
 1004MOL0     C35461   9.268   5.744   8.727  1.1061 -0.3220  0.5625
 1004MOL0     C35462   9.197   5.848   8.669  0.1590  0.0715  0.1238
 1004MOL0     O35463   9.060   5.866   8.671  0.2024  0.0428 -0.0616
 1004MOL0     C35464   8.986   5.771   8.739 -0.1766  0.2103 -0.1269
 1004MOL0     C35465   8.848   5.834   8.752  0.2938 -0.5067  0.8695
 1004MOL0     C35466   8.785   5.891   8.623  0.3224  0.0964  0.5831
 1004MOL0     C35467   8.771   6.040   8.619  0.1755 -0.2615  0.5290
 1004MOL0     C35468   8.745   6.089   8.481 -0.5329  0.0599 -0.3215
 1004MOL0     C35469   8.705   6.140   8.379  0.6799  0.4718 -0.5721
 1004MOL0     C35470   9.263   5.940   8.595  0.5196 -1.0008 -0.9012
 1004MOL0     C35471   9.400   5.957   8.603  0.7625  0.6053  0.0481
 1004MOL0     C35472   9.465   6.068   8.525 -0.1051 -0.4812  0.0516
 1004MOL0     H35473   9.828   6.084   8.840 -0.8726 -0.3777 -0.5805
 1004MOL0     H35474  10.078   6.067   8.852 -0.8989 -1.2398 -0.1367
 1004MOL0     H35475  10.285   6.114   8.761 -2.2561 -0.4699 -1.9427
 1004MOL0     H35476  10.304   5.962   8.834  1.5703 -0.2274  0.6447
 1004MOL0     H35477  10.489   6.125   8.660  1.9704 -0.0344 -1.3881
 1004MOL0     H35478  10.502   5.951   8.617 -1.3895 -1.7525  2.2957
 1004MOL0     H35479  10.520   5.879   8.837  3.1535  0.0209 -0.0817
 1004MOL0     H35480  10.536   6.041   8.906 -2.2349 -0.4428  1.2722
 1004MOL0     H35481  10.713   5.898   8.684 -0.9137 -0.9412  0.9697
 1004MOL0     H35482  10.716   6.066   8.705  1.9759  0.2057  0.6352
 1004MOL0     H35483  10.903   5.959   8.810 -0.8889 -2.8305 -0.2829
 1004MOL0     H35484  10.807   6.066   8.924  1.0904  0.4315 -1.4769
 1004MOL0     H35485  10.753   5.893   9.049  2.3958 -0.2112  0.5998
 1004MOL0     H35486  10.731   5.778   8.913  0.2914 -0.2740 -1.8120
 1004MOL0     H35487  11.001   5.866   9.022 -1.9816  0.7783  1.8922
 1004MOL0     H35488  10.976   5.722   8.914  0.2753 -1.2598  1.9819
 1004MOL0     H35489  10.846   5.722   9.190 -0.0932 -1.5764 -0.0438
 1004MOL0     H35490  10.835   5.609   9.060  0.5462 -1.1778  1.0129
 1004MOL0     H35491  11.084   5.691   9.347  1.3814  3.3489 -1.0958
 1004MOL0     H35492  11.333   5.676   9.396  1.8412  0.5909 -1.9399
 1004MOL0     H35493  11.286   5.498   9.414  0.0150  0.6448  1.3116
 1004MOL0     H35494  11.494   5.625   9.223 -4.6431 -0.8035 -2.0268
 1004MOL0     H35495  11.537   5.567   9.390  0.3919 -0.5585  0.0601
 1004MOL0     H35496  11.587   5.421   9.191  0.0191  1.7853  1.4403
 1004MOL0     H35497  11.414   5.385   9.189 -2.0888 -0.7152  1.6022
 1004MOL0     H35498  11.504   5.208   9.304 -3.2092  0.5946 -1.6664
 1004MOL0     H35499  11.426   5.301   9.430 -0.2553  0.5746 -0.1203
 1004MOL0     H35500  11.852   5.343   9.547 -1.8449  1.1438 -0.2316
 1004MOL0     H35501  11.969   5.200   9.668 -0.8469  1.9441  2.9976
 1004MOL0     H35502  11.924   4.829  10.008 -0.5588  1.4165 -0.9827
 1004MOL0     H35503  12.036   4.689  10.157  0.7759  0.0382  0.8914
 1004MOL0     H35504  12.407   4.453  10.162  0.1803  0.4626 -0.1547
 1004MOL0     H35505  12.411   4.543  10.007  0.5962  1.1839 -0.5180
 1004MOL0     H35506  12.536   4.728  10.124  1.6079  0.4433 -1.5068
 1004MOL0     H35507  12.532   4.601  10.259 -3.2840 -1.9003 -0.3317
 1004MOL0     H35508  12.651   4.450  10.081  2.7424 -0.4477 -1.7259
 1004MOL0     H35509  12.679   4.591   9.990  4.6308 -1.9929  0.4228
 1004MOL0     H35510  12.753   4.575  10.280  0.3072 -0.1611  0.9576
 1004MOL0     H35511  12.771   4.714  10.171 -0.3967 -1.4602 -2.7111
 1004MOL0     H35512  12.923   4.596  10.021 -1.8460 -0.7300 -0.1582
 1004MOL0     H35513  12.911   4.458  10.112  2.1165  0.2035 -2.4854
 1004MOL0     H35514  13.109   4.598  10.152 -0.5977 -2.5392 -0.1829
 1004MOL0     H35515  13.001   4.719  10.245  0.8464 -0.1659  0.5438
 1004MOL0     H35516  13.046   4.431  10.333  0.0820  0.5215 -0.8716
 1004MOL0     H35517  12.925   4.536  10.393 -0.8563  0.5425 -1.6224
 1004MOL0     H35518  13.169   4.527  10.500 -0.9223  0.0161  0.3909
 1004MOL0     H35519  13.221   4.637  10.389  1.7636  0.3610  2.0578
 1004MOL0     H35520  12.405   4.786   9.942 -0.7472  3.7848 -2.8210
 1004MOL0     H35521  12.262   4.911   9.778 -1.0624 -0.1550 -0.2900
 1004MOL0     H35522  11.654   4.898   9.630  0.6853  0.4970 -1.0741
 1004MOL0     H35523  11.526   5.056   9.492  0.8263 -0.1736 -1.0452
 1004MOL0     H35524  10.098   5.897   8.462 -2.0343  0.5765 -0.5825
 1004MOL0     H35525   9.852   5.887   8.452  0.7633 -0.1097  0.0756
 1004MOL0     H35526   9.466   5.662   8.758  3.1069  0.7079 -1.2996
 1004MOL0     H35527   9.214   5.669   8.785 -0.0390  1.3209  1.6959
 1004MOL0     H35528   9.021   5.739   8.837 -3.5154  0.0922  1.1688
 1004MOL0     H35529   8.989   5.673   8.690  0.2769 -1.7511  3.4751
 1004MOL0     H35530   8.861   5.916   8.823 -0.3769 -0.9385  1.5086
 1004MOL0     H35531   8.783   5.759   8.799  1.9764 -1.4859  1.7641
 1004MOL0     H35532   8.683   5.850   8.625  1.0901 -1.9353  2.0422
 1004MOL0     H35533   8.830   5.860   8.529  1.4546  0.9670  0.8259
 1004MOL0     H35534   8.686   6.059   8.685  0.7601 -1.1239  1.5603
 1004MOL0     H35535   8.857   6.092   8.662  0.3491  1.3115 -1.5637
 1004MOL0     H35536   8.663   6.185   8.291 -1.6944 -0.0308  0.2406
 1004MOL0     H35537   9.206   6.024   8.555 -1.0631 -2.1052 -1.0554
 1004MOL0     H35538   9.544   6.026   8.463  2.9138  0.2806  3.0424
 1004MOL0     H35539   9.395   6.127   8.465 -0.9379 -2.2950 -0.8460
 1004MOL0     H35540   9.515   6.135   8.595  0.3516 -0.6444 -0.1189
 1005MOL0     O35541   0.572  10.323   2.467 -0.1528  0.4652 -0.1293
 1005MOL0     C35542   0.523  10.429   2.464 -0.4863 -0.0521  0.4471
 1005MOL0     O35543   0.585  10.542   2.485  0.1381 -0.0101 -0.2811
 1005MOL0     C35544   0.713  10.543   2.533 -0.5117  1.0046  0.1143
 1005MOL0     C35545   0.733  10.650   2.630  0.1369  0.6897  0.1357
 1005MOL0     C35546   0.861  10.675   2.668  1.1975  0.5975 -0.3086
 1005MOL0     C35547   0.973  10.605   2.618  0.3075 -0.0877 -0.2931
 1005MOL0     O35548   1.092  10.645   2.665 -0.1878 -0.6930 -0.7024
 1005MOL0     C35549   1.204  10.552   2.646  0.6624  0.0450 -0.2184
 1005MOL0     C35550   1.334  10.614   2.702  0.5554 -0.3284  0.0199
 1005MOL0     C35551   1.361  10.757   2.657  0.3417  0.6419 -0.6005
 1005MOL0     C35552   1.490  10.817   2.720 -0.4265  0.5069  0.5148
 1005MOL0     C35553   1.525  10.955   2.658 -0.0224 -0.6232 -0.6617
 1005MOL0     C35554   1.635  11.027   2.741  0.5176  0.8456 -0.5898
 1005MOL0     C35555   1.774  10.947   2.771 -0.3257 -0.2012 -0.5107
 1005MOL0     C35556   1.841  10.901   2.648 -0.2414  0.5062  0.9073
 1005MOL0     N35557   1.981  10.892   2.683  0.6764 -1.0333 -0.3560
 1005MOL0     C35558   2.033  10.776   2.735  0.1897  0.0442 -0.5879
 1005MOL0     C35559   2.162  10.797   2.727 -0.5879  0.1220  0.1409
 1005MOL0     C35560   2.262  10.701   2.786 -0.0891  0.2400 -0.4274
 1005MOL0     C35561   2.342  10.648   2.667  0.0234  0.6027  0.0495
 1005MOL0     C35562   2.270  10.580   2.550 -0.6714 -0.3921  0.3195
 1005MOL0     C35563   2.227  10.433   2.581  0.6472 -0.0465  0.5182
 1005MOL0     O35564   2.104  10.427   2.666 -0.1620  0.2559 -0.0942
 1005MOL0     C35565   2.041  10.304   2.665  0.2728 -0.1516 -0.0515
 1005MOL0     C35566   1.899  10.314   2.701  0.5770  0.1217 -0.1727
 1005MOL0     C35567   1.836  10.190   2.708  0.3399 -0.1054 -0.1872
 1005MOL0     C35568   1.900  10.069   2.681 -0.2876  0.2594 -0.7224
 1005MOL0     C35569   1.819   9.947   2.682  0.4230  0.3923 -0.7835
 1005MOL0     O35570   1.862   9.840   2.600 -0.2523 -0.2486  0.4145
 1005MOL0     C35571   1.763   9.752   2.556  0.8797 -1.4821 -0.3651
 1005MOL0     C35572   1.633   9.792   2.521 -0.1600 -0.5204  0.0242
 1005MOL0     C35573   1.556   9.692   2.454 -0.4930  0.3508  0.7336
 1005MOL0     C35574   1.605   9.554   2.432 -0.6739 -0.1341  0.3273
 1005MOL0     O35575   1.521   9.461   2.366 -0.4493 -0.7795 -0.1516
 1005MOL0     C35576   1.558   9.322   2.370 -0.0765  0.2935  0.0490
 1005MOL0     C35577   1.478   9.240   2.271  0.1275 -0.5424 -0.3459
 1005MOL0     C35578   1.333   9.180   2.326  0.1817 -0.5738  0.3670
 1005MOL0     C35579   1.255   9.112   2.215  0.8152 -0.1168 -0.4010
 1005MOL0     C35580   1.127   9.034   2.257 -0.2840  0.5153 -0.2593
 1005MOL0     C35581   1.019   9.011   2.151  0.4174 -0.7831  0.2513
 1005MOL0     C35582   0.908   8.932   2.222  0.0391 -1.0045 -0.1490
 1005MOL0     C35583   0.797   8.919   2.124  0.0947 -0.5099  0.4029
 1005MOL0    Cl35584   0.660   8.832   2.185  0.0929  0.0460 -0.1906
 1005MOL0     C35585   1.742   9.530   2.475  0.7568  0.5275  0.0302
 1005MOL0     C35586   1.810   9.627   2.538 -0.1297  0.2828  0.3101
 1005MOL0     O35587   1.710   9.944   2.758 -0.0632  0.1370 -0.4199
 1005MOL0     C35588   2.039  10.068   2.653  0.0048 -0.0146  0.3321
 1005MOL0     C35589   2.108  10.183   2.645  0.0957  0.1186  0.4412
 1005MOL0     N35590   2.187  10.918   2.660  0.2980  0.1546 -0.0722
 1005MOL0     N35591   2.072  10.977   2.643 -0.6534  0.0896  0.3533
 1005MOL0     C35592   0.952  10.505   2.524 -0.5114  0.6821  0.5671
 1005MOL0     C35593   0.821  10.480   2.474  0.0873  1.5559  0.7019
 1005MOL0     C35594   0.379  10.428   2.436  0.1605  0.6350 -0.0559
 1005MOL0     C35595   0.326  10.319   2.353  0.5009 -0.4746 -0.2246
 1005MOL0     C35596   0.192  10.313   2.317  0.1673 -0.1515  0.0488
 1005MOL0     C35597   0.102  10.410   2.368  0.9965 -0.5223 -0.2692
 1005MOL0     O35598  -0.033  10.426   2.333 -0.5266  0.9477  0.2761
 1005MOL0     C35599  -0.087  10.343   2.227 -0.3680 -0.1460  0.6816
 1005MOL0     C35600  -0.217  10.404   2.173  0.6561  0.0301 -0.0367
 1005MOL0     C35601  -0.333  10.409   2.273  0.0714 -0.6208 -0.6352
 1005MOL0     C35602  -0.464  10.438   2.209  1.3815 -0.1909  0.1608
 1005MOL0     C35603  -0.566  10.434   2.314 -0.0833  0.0578  0.7416
 1005MOL0     C35604  -0.636  10.457   2.404 -0.3090  0.0468 -0.3923
 1005MOL0     C35605   0.142  10.500   2.466 -0.0119 -0.3619 -0.3797
 1005MOL0     C35606   0.280  10.511   2.493 -0.0589 -0.1254 -0.2017
 1005MOL0     C35607   0.317  10.622   2.589 -0.6355  0.8730 -0.2910
 1005MOL0     H35608   0.655  10.707   2.678 -0.6354 -0.7518  0.6462
 1005MOL0     H35609   0.868  10.759   2.735  0.7053  1.7798 -1.6895
 1005MOL0     H35610   1.183  10.461   2.704 -0.0432  1.6605  2.2447
 1005MOL0     H35611   1.224  10.528   2.541  0.0195 -3.1099  0.2676
 1005MOL0     H35612   1.414  10.547   2.669 -0.8317 -2.5983  1.0462
 1005MOL0     H35613   1.324  10.601   2.810 -2.7035 -1.0315 -0.2687
 1005MOL0     H35614   1.276  10.824   2.670  1.3678  2.0381 -0.7298
 1005MOL0     H35615   1.378  10.747   2.549 -0.5293 -4.4499 -0.5106
 1005MOL0     H35616   1.476  10.842   2.826 -0.8843 -0.7578  0.7805
 1005MOL0     H35617   1.572  10.744   2.715 -0.2730  0.6578  0.8327
 1005MOL0     H35618   1.561  10.950   2.555 -0.6909  4.4660 -1.3957
 1005MOL0     H35619   1.433  11.013   2.647 -0.2583 -1.4123 -4.7903
 1005MOL0     H35620   1.664  11.113   2.679  3.0670 -0.7911 -1.8533
 1005MOL0     H35621   1.592  11.061   2.835 -2.9551  0.0801 -1.7727
 1005MOL0     H35622   1.750  10.871   2.845 -1.3619  1.6244  1.1235
 1005MOL0     H35623   1.836  11.018   2.827  0.5519 -1.6056  0.3445
 1005MOL0     H35624   1.800  10.804   2.619 -0.7070  0.2299  2.3842
 1005MOL0     H35625   1.817  10.960   2.560 -1.1764  0.5250  1.1683
 1005MOL0     H35626   1.995  10.678   2.763  2.5739 -0.2717  2.0506
 1005MOL0     H35627   2.330  10.744   2.861  1.6505 -1.3942 -0.9742
 1005MOL0     H35628   2.216  10.618   2.839  1.5269 -0.1930  0.3771
 1005MOL0     H35629   2.401  10.734   2.633  0.1623  0.4749 -0.0387
 1005MOL0     H35630   2.420  10.579   2.702 -0.5536 -0.4016 -0.5824
 1005MOL0     H35631   2.347  10.580   2.472 -0.0936  3.7725  0.6691
 1005MOL0     H35632   2.186  10.641   2.516  0.6210  1.8827  1.0163
 1005MOL0     H35633   2.312  10.384   2.629  0.7271 -1.8512 -1.3159
 1005MOL0     H35634   2.209  10.379   2.487  2.7208 -3.6939  1.9904
 1005MOL0     H35635   1.837  10.402   2.707  1.4731  0.6848  2.9121
 1005MOL0     H35636   1.732  10.188   2.736  0.0563  3.1431 -0.7010
 1005MOL0     H35637   1.590   9.891   2.533  0.9855  0.1076 -0.8876
 1005MOL0     H35638   1.461   9.720   2.409 -0.0225  2.5846  1.0118
 1005MOL0     H35639   1.664   9.312   2.348 -0.4659  0.0742 -1.8752
 1005MOL0     H35640   1.534   9.278   2.468  0.7342  1.5301  0.8240
 1005MOL0     H35641   1.480   9.288   2.173 -0.1242  0.7159  0.2466
 1005MOL0     H35642   1.534   9.146   2.262 -1.1767 -1.3218 -0.5551
 1005MOL0     H35643   1.359   9.108   2.404  1.4311  2.6983  3.2487
 1005MOL0     H35644   1.270   9.263   2.360  0.0039 -1.1149  1.3760
 1005MOL0     H35645   1.324   9.038   2.172  2.6734  0.7155  1.0161
 1005MOL0     H35646   1.227   9.180   2.134 -1.4911  1.9636  1.9718
 1005MOL0     H35647   1.078   9.079   2.344 -2.1278 -1.7225 -0.0437
 1005MOL0     H35648   1.170   8.940   2.294  1.5726  0.7877 -1.5882
 1005MOL0     H35649   0.982   9.109   2.118  3.2945 -0.2099 -1.5598
 1005MOL0     H35650   1.062   8.965   2.062  0.7792 -2.0979  1.0827
 1005MOL0     H35651   0.868   8.988   2.307 -1.6338 -0.8822 -0.9608
 1005MOL0     H35652   0.946   8.836   2.257  3.4669  0.9356  2.0673
 1005MOL0     H35653   0.764   9.022   2.107  0.1432 -0.5942 -0.2357
 1005MOL0     H35654   0.831   8.876   2.029 -2.2019 -0.4708 -0.4997
 1005MOL0     H35655   1.782   9.429   2.473 -0.3846 -0.0999  2.9575
 1005MOL0     H35656   1.917   9.608   2.547 -0.2823 -2.6058 -2.2276
 1005MOL0     H35657   2.081   9.971   2.628 -1.5540 -0.6022 -0.1679
 1005MOL0     H35658   2.212  10.170   2.617  0.9189 -1.0464  3.6907
 1005MOL0     H35659   1.038  10.463   2.472 -1.2456 -2.1245  1.4416
 1005MOL0     H35660   0.800  10.397   2.406  0.1005  1.3435  0.9534
 1005MOL0     H35661   0.393  10.237   2.329 -0.6928 -1.5365 -0.0900
 1005MOL0     H35662   0.168  10.231   2.251  3.0855  0.3830 -1.8508
 1005MOL0     H35663  -0.107  10.238   2.252  3.0846 -1.3067 -0.8716
 1005MOL0     H35664  -0.008  10.344   2.152  1.2635  1.0339  2.3230
 1005MOL0     H35665  -0.252  10.342   2.090  1.7102  1.8303 -1.9052
 1005MOL0     H35666  -0.192  10.504   2.138  0.0306 -0.0628 -0.7775
 1005MOL0     H35667  -0.312  10.501   2.329  0.5908 -0.2527 -1.4185
 1005MOL0     H35668  -0.321  10.331   2.350  0.8414 -1.0820 -1.2066
 1005MOL0     H35669  -0.463  10.542   2.175  0.4837  0.5385  2.2034
 1005MOL0     H35670  -0.479  10.375   2.121 -0.8529 -0.6656  0.8362
 1005MOL0     H35671  -0.695  10.476   2.491  0.9053  1.4459  0.1842
 1005MOL0     H35672   0.073  10.573   2.507 -2.7568 -2.3951 -1.0969
 1005MOL0     H35673   0.230  10.642   2.652 -0.3241  1.5856 -0.0833
 1005MOL0     H35674   0.405  10.599   2.650 -1.5247  0.2387  0.7675
 1005MOL0     H35675   0.347  10.716   2.541 -1.2829  1.2372  0.0016
 1006MOL0     O35676   0.291   5.941   2.800 -0.4535 -0.4105 -0.8769
 1006MOL0     C35677   0.351   6.043   2.823  0.1662  0.8356  0.7328
 1006MOL0     O35678   0.437   6.052   2.933 -0.3201  0.0691 -0.5331
 1006MOL0     C35679   0.521   5.947   2.952  0.2278  0.8002 -0.0224
 1006MOL0     C35680   0.529   5.914   3.080  0.2286 -0.0134 -0.0527
 1006MOL0     C35681   0.622   5.822   3.130 -0.4417 -1.4395  0.1445
 1006MOL0     C35682   0.703   5.743   3.046 -0.2224 -0.2020 -0.8800
 1006MOL0     O35683   0.782   5.641   3.092  0.2381  0.6385  0.5266
 1006MOL0     C35684   0.920   5.627   3.064  0.3849 -0.5618 -0.0736
 1006MOL0     C35685   0.994   5.750   2.995 -0.1166  0.1321 -0.5656
 1006MOL0     C35686   1.140   5.728   2.990  0.2339  0.3176  0.5550
 1006MOL0     C35687   1.211   5.726   3.132 -0.1670  0.3339  0.1289
 1006MOL0     C35688   1.361   5.753   3.105  0.1160 -0.1134 -0.7022
 1006MOL0     C35689   1.436   5.765   3.232  0.6029  0.6734  0.9554
 1006MOL0     C35690   1.588   5.770   3.219  0.9071 -0.9238  0.1165
 1006MOL0     C35691   1.635   5.896   3.145 -0.7649 -0.6081  0.3820
 1006MOL0     N35692   1.780   5.911   3.171 -0.4897 -0.2772 -0.2580
 1006MOL0     C35693   1.889   5.820   3.163 -0.9279 -0.0360 -0.9069
 1006MOL0     C35694   2.000   5.886   3.209 -0.0268 -0.3274  0.5469
 1006MOL0     C35695   2.148   5.846   3.227  0.1788 -0.3529  0.6638
 1006MOL0     C35696   2.222   5.884   3.359  0.0891  1.1283  0.4806
 1006MOL0     C35697   2.369   5.851   3.358  0.4326  0.5053  0.6185
 1006MOL0     C35698   2.437   5.885   3.488 -1.0558  0.2938 -0.8097
 1006MOL0     O35699   2.562   5.813   3.495  0.2842  0.1934  0.0372
 1006MOL0     C35700   2.677   5.874   3.443 -0.3854  0.6734 -0.9046
 1006MOL0     C35701   2.799   5.816   3.471  0.4602  0.1713  0.0055
 1006MOL0     C35702   2.917   5.870   3.430  0.1135  0.8864  1.4112
 1006MOL0     C35703   2.921   5.989   3.349  0.3465  1.0955  0.4331
 1006MOL0     C35704   3.055   6.027   3.289  0.4827 -0.1893  0.1169
 1006MOL0     O35705   3.055   6.149   3.236  0.3816 -0.2486 -0.2876
 1006MOL0     C35706   3.161   6.194   3.166 -0.3923  1.1118 -0.1160
 1006MOL0     C35707   3.296   6.160   3.181 -0.2827 -0.3225 -0.4920
 1006MOL0     C35708   3.396   6.218   3.100  0.5714 -0.0397  0.2065
 1006MOL0     C35709   3.358   6.313   3.005  0.1182  0.0197 -0.4449
 1006MOL0     O35710   3.442   6.389   2.936  0.7632 -0.0584  0.1605
 1006MOL0     C35711   3.540   6.325   2.860 -0.0178  0.6202  0.5940
 1006MOL0     C35712   3.669   6.420   2.846  0.7070  1.1141 -0.4346
 1006MOL0     C35713   3.729   6.476   2.975 -0.0834  0.5932  0.8322
 1006MOL0     C35714   3.863   6.542   2.927  0.0400  0.0313 -0.1620
 1006MOL0     C35715   3.937   6.607   3.039  0.3984 -0.1315  0.4907
 1006MOL0     C35716   4.061   6.696   3.002  0.8928 -0.3455  0.1873
 1006MOL0     C35717   4.179   6.618   2.950  1.0467 -0.6568  0.1810
 1006MOL0     C35718   4.222   6.498   3.041  0.6396 -0.6406 -0.4382
 1006MOL0    Cl35719   4.219   6.527   3.218 -0.3431 -0.4802 -0.2543
 1006MOL0     C35720   3.227   6.344   2.980 -0.1104  0.4280 -0.7970
 1006MOL0     C35721   3.132   6.282   3.063 -0.5148  0.4385 -0.1965
 1006MOL0     O35722   3.152   5.950   3.288  0.9505  0.3335 -0.4361
 1006MOL0     C35723   2.799   6.051   3.330  0.6003 -0.2851 -0.4331
 1006MOL0     C35724   2.681   5.996   3.378 -0.2571 -1.5321  0.7274
 1006MOL0     N35725   1.954   6.017   3.241  1.5974  0.2844 -0.5916
 1006MOL0     N35726   1.826   6.027   3.224  0.4295 -0.1266  0.0581
 1006MOL0     C35727   0.681   5.767   2.906 -1.0937 -0.4851 -0.1555
 1006MOL0     C35728   0.593   5.867   2.865 -0.5886 -0.6333 -0.6280
 1006MOL0     C35729   0.342   6.155   2.735 -0.5332 -0.4293  0.6584
 1006MOL0     C35730   0.438   6.254   2.746  0.2043  0.6119  0.6403
 1006MOL0     C35731   0.440   6.364   2.656  0.9536 -0.0209 -0.9059
 1006MOL0     C35732   0.335   6.388   2.577  0.3877  0.1764  0.5614
 1006MOL0     O35733   0.332   6.502   2.509  0.6637  0.2743 -0.3937
 1006MOL0     C35734   0.306   6.501   2.367 -0.5136  0.0519 -0.3952
 1006MOL0     C35735   0.439   6.526   2.284 -0.3761 -0.4710 -0.6849
 1006MOL0     C35736   0.515   6.650   2.342  0.0505 -0.2543  0.3136
 1006MOL0     C35737   0.650   6.665   2.256 -0.1154 -0.1421 -0.4326
 1006MOL0     C35738   0.738   6.550   2.268  0.3268  0.7330  0.2771
 1006MOL0     C35739   0.802   6.451   2.276  0.2459 -0.7232  0.0446
 1006MOL0     C35740   0.231   6.288   2.560  0.3370  0.7841  0.7428
 1006MOL0     C35741   0.230   6.173   2.646 -0.5311 -0.0037  0.6199
 1006MOL0     C35742   0.110   6.073   2.638  0.6476  0.4093  0.1272
 1006MOL0     H35743   0.476   5.971   3.155  2.3014  0.4334  1.1490
 1006MOL0     H35744   0.628   5.796   3.235  0.5020 -0.4589  0.3567
 1006MOL0     H35745   0.970   5.595   3.156  0.1958 -0.8543 -0.0718
 1006MOL0     H35746   0.934   5.543   2.996 -1.5257 -0.2195 -0.9428
 1006MOL0     H35747   0.981   5.840   3.057 -0.2894  0.2597 -0.7849
 1006MOL0     H35748   0.963   5.772   2.892 -2.1043 -1.6023 -0.3981
 1006MOL0     H35749   1.188   5.811   2.936 -0.8868 -1.4650 -3.5340
 1006MOL0     H35750   1.162   5.637   2.934  1.8433 -0.8378  2.8941
 1006MOL0     H35751   1.174   5.813   3.187  0.1137 -1.6853  3.8931
 1006MOL0     H35752   1.200   5.631   3.186  0.3520 -0.2998 -0.8495
 1006MOL0     H35753   1.392   5.658   3.060  2.3224  0.9332 -1.5106
 1006MOL0     H35754   1.390   5.831   3.034 -0.8122  1.4406  0.5354
 1006MOL0     H35755   1.402   5.855   3.283  0.2254 -0.2964  2.4687
 1006MOL0     H35756   1.410   5.674   3.286 -1.8052  1.4234  1.1694
 1006MOL0     H35757   1.620   5.677   3.171 -0.7291 -0.9681 -0.9629
 1006MOL0     H35758   1.624   5.779   3.322 -1.2631  1.6471  0.7781
 1006MOL0     H35759   1.622   5.878   3.038  3.1559 -1.4447 -0.0867
 1006MOL0     H35760   1.582   5.985   3.180  3.1732  1.6952  0.9943
 1006MOL0     H35761   1.874   5.723   3.118  0.4807  0.2714 -2.1020
 1006MOL0     H35762   2.146   5.736   3.220  1.9585 -0.3443 -1.3690
 1006MOL0     H35763   2.198   5.871   3.133 -0.6959 -2.5064 -0.4611
 1006MOL0     H35764   2.211   5.992   3.376  1.5207  2.4974 -5.0491
 1006MOL0     H35765   2.167   5.823   3.430  1.6645  0.2191  0.9810
 1006MOL0     H35766   2.423   5.899   3.276  0.4777  0.5820  0.6926
 1006MOL0     H35767   2.369   5.744   3.340 -0.3329  0.9891 -3.1141
 1006MOL0     H35768   2.370   5.870   3.573  1.4500  0.2207  1.2518
 1006MOL0     H35769   2.447   5.994   3.487 -1.4820  0.3377 -0.6796
 1006MOL0     H35770   2.808   5.731   3.537  5.8925  1.8072  1.8943
 1006MOL0     H35771   3.009   5.825   3.465 -1.1565 -0.6196  3.0084
 1006MOL0     H35772   3.324   6.108   3.272  0.0203  3.2337  1.6374
 1006MOL0     H35773   3.499   6.196   3.126  0.3156 -1.8118 -0.1856
 1006MOL0     H35774   3.561   6.227   2.903 -1.1993  0.3463  0.5957
 1006MOL0     H35775   3.493   6.301   2.764  1.7822 -1.0450  0.0658
 1006MOL0     H35776   3.741   6.355   2.797 -0.4712 -1.8010  1.4301
 1006MOL0     H35777   3.635   6.491   2.770 -1.3246 -0.1249 -0.7512
 1006MOL0     H35778   3.661   6.543   3.029 -0.1002  0.2063  1.3062
 1006MOL0     H35779   3.748   6.392   3.042  0.0353  1.1663  1.5328
 1006MOL0     H35780   3.838   6.622   2.857  0.4818  0.2724 -0.0467
 1006MOL0     H35781   3.929   6.468   2.880  0.9857 -0.9795  2.5641
 1006MOL0     H35782   3.952   6.521   3.105  0.6943  2.1623  3.6679
 1006MOL0     H35783   3.858   6.670   3.081 -0.3121 -0.5794 -0.1584
 1006MOL0     H35784   4.029   6.766   2.925  1.6898 -0.8664 -0.6319
 1006MOL0     H35785   4.101   6.753   3.087  0.5095  0.7201 -0.3318
 1006MOL0     H35786   4.261   6.691   2.945 -1.4434  2.2882 -0.6632
 1006MOL0     H35787   4.161   6.574   2.851 -0.3972 -1.8046  0.9194
 1006MOL0     H35788   4.154   6.413   3.039 -1.3816  0.8347  1.1167
 1006MOL0     H35789   4.317   6.453   3.010  1.2681 -0.1380  0.6737
 1006MOL0     H35790   3.191   6.420   2.911 -1.3831  1.7115  1.1641
 1006MOL0     H35791   3.026   6.301   3.056 -0.6136  0.7873  1.7320
 1006MOL0     H35792   2.793   6.144   3.275 -0.1079 -0.9560 -1.5398
 1006MOL0     H35793   2.588   6.046   3.353  0.2005 -2.0066 -2.3043
 1006MOL0     H35794   0.732   5.711   2.829  2.9477  2.6565 -0.1442
 1006MOL0     H35795   0.576   5.867   2.757 -1.2188  0.0020 -0.5362
 1006MOL0     H35796   0.527   6.237   2.806  2.2509  0.1990 -2.3184
 1006MOL0     H35797   0.518   6.439   2.668  2.3637 -1.5965  0.2333
 1006MOL0     H35798   0.228   6.574   2.344  0.2494  1.1074  0.2484
 1006MOL0     H35799   0.280   6.403   2.327 -0.7993 -0.0305 -0.0138
 1006MOL0     H35800   0.414   6.549   2.179  0.2141  0.8441 -0.5668
 1006MOL0     H35801   0.500   6.436   2.293 -0.6190 -0.5412  0.2947
 1006MOL0     H35802   0.553   6.641   2.444 -0.4462  0.4119  0.5630
 1006MOL0     H35803   0.450   6.738   2.332 -0.5903 -0.2989  3.1491
 1006MOL0     H35804   0.623   6.669   2.150 -1.2215 -0.7546 -0.1953
 1006MOL0     H35805   0.708   6.752   2.288 -0.5492  0.1944 -0.5470
 1006MOL0     H35806   0.876   6.374   2.267  0.7504 -0.0692 -1.7611
 1006MOL0     H35807   0.142   6.292   2.498  1.6691 -1.2090 -1.4778
 1006MOL0     H35808   0.060   6.057   2.733  2.5716 -1.3684  0.9312
 1006MOL0     H35809   0.050   6.107   2.554 -0.7914 -0.6216  0.7005
 1006MOL0     H35810   0.136   5.973   2.601 -0.5879 -0.0751  0.5532
 1007MOL0     O35811   8.948   6.541   9.446  0.2632 -0.3247  0.5608
 1007MOL0     C35812   8.924   6.421   9.471 -0.4622  0.4034  0.0407
 1007MOL0     O35813   9.022   6.321   9.483  0.2922  0.1299 -0.1249
 1007MOL0     C35814   9.153   6.345   9.445  0.1224 -0.0352  0.0456
 1007MOL0     C35815   9.209   6.268   9.345 -0.3472  0.7658  0.9267
 1007MOL0     C35816   9.341   6.282   9.312  0.4338 -0.2864  1.1330
 1007MOL0     C35817   9.420   6.372   9.373  0.3699 -0.9424 -0.1699
 1007MOL0     O35818   9.552   6.373   9.334  0.0047 -0.2966  0.1104
 1007MOL0     C35819   9.645   6.444   9.416 -0.1850 -0.4179 -0.5242
 1007MOL0     C35820   9.792   6.438   9.367 -0.0394  0.4489 -0.4951
 1007MOL0     C35821   9.893   6.507   9.459 -0.3721 -0.0528 -0.3809
 1007MOL0     C35822  10.033   6.507   9.388  0.5479 -0.4646 -0.2971
 1007MOL0     C35823  10.124   6.392   9.426 -0.9306  0.5172  0.1125
 1007MOL0     C35824  10.256   6.409   9.368 -0.1967 -0.1728 -0.1273
 1007MOL0     C35825  10.335   6.271   9.368  0.0149 -0.5026  0.5942
 1007MOL0     C35826  10.305   6.172   9.250 -1.1753 -0.4534  0.2338
 1007MOL0     N35827  10.331   6.251   9.129 -1.2171 -0.0576  0.0244
 1007MOL0     C35828  10.462   6.289   9.088 -0.0417 -0.5005 -0.2880
 1007MOL0     C35829  10.431   6.347   8.968  0.2278 -0.0399 -0.7647
 1007MOL0     C35830  10.523   6.422   8.889  0.1266 -0.6709 -0.7253
 1007MOL0     C35831  10.648   6.333   8.859 -0.4196 -0.1821 -0.3088
 1007MOL0     C35832  10.735   6.396   8.750  0.0323 -0.0243  0.0512
 1007MOL0     C35833  10.869   6.342   8.736 -0.1685 -0.0240  0.1398
 1007MOL0     O35834  10.937   6.345   8.862  1.0494  0.0788  0.4538
 1007MOL0     C35835  11.067   6.297   8.866  0.2205  0.0314  0.9793
 1007MOL0     C35836  11.168   6.349   8.785  0.6104 -0.3803 -1.2424
 1007MOL0     C35837  11.295   6.287   8.781 -0.2973 -0.7748 -1.2865
 1007MOL0     C35838  11.323   6.180   8.870  0.2525  0.1292  0.6270
 1007MOL0     C35839  11.450   6.097   8.868  0.4948  0.9890  0.0235
 1007MOL0     O35840  11.449   5.986   8.941  0.0064  0.4570  0.0817
 1007MOL0     C35841  11.573   5.910   8.957 -0.3056  0.1582 -0.0908
 1007MOL0     C35842  11.561   5.773   8.987  0.0998  0.9989  0.2284
 1007MOL0     C35843  11.665   5.692   9.002 -0.1634  0.0718  0.3166
 1007MOL0     C35844  11.796   5.740   8.984  0.8189 -1.1481  0.7807
 1007MOL0     O35845  11.913   5.668   8.992  0.7833  0.7816 -0.5996
 1007MOL0     C35846  11.912   5.531   8.942 -0.2087 -0.4969 -0.2927
 1007MOL0     C35847  11.940   5.428   9.056 -0.2566 -0.2993  0.2567
 1007MOL0     C35848  11.955   5.292   8.986 -0.1554 -0.4843  0.1048
 1007MOL0     C35849  11.985   5.172   9.075  0.0980  0.4133 -0.7206
 1007MOL0     C35850  11.982   5.046   9.001 -0.4144  0.1928  0.7641
 1007MOL0     C35851  11.935   4.918   9.075  0.0126  0.0064 -0.0732
 1007MOL0     C35852  11.948   4.789   8.991 -0.5312 -0.6813 -0.4688
 1007MOL0     C35853  11.875   4.777   8.860 -1.1722 -0.8553 -0.0138
 1007MOL0    Cl35854  11.717   4.857   8.871  0.2038  0.0177  0.0898
 1007MOL0     C35855  11.817   5.882   8.968 -0.0798 -0.0693  0.6555
 1007MOL0     C35856  11.705   5.966   8.950  0.1895 -0.0624 -0.1704
 1007MOL0     O35857  11.546   6.138   8.804  0.3381  0.0120 -0.0920
 1007MOL0     C35858  11.220   6.136   8.958 -0.6502 -0.2112 -0.7107
 1007MOL0     C35859  11.096   6.194   8.960  0.6255 -1.5599 -0.0837
 1007MOL0     N35860  10.294   6.334   8.942  0.0901 -0.1629 -0.1685
 1007MOL0     N35861  10.235   6.281   9.039 -0.3073 -0.6649 -0.3066
 1007MOL0     C35862   9.363   6.454   9.478 -1.5780 -0.9616  0.2138
 1007MOL0     C35863   9.233   6.439   9.511 -0.0370 -0.5507  0.3346
 1007MOL0     C35864   8.776   6.381   9.486  0.4724  0.9620 -0.3907
 1007MOL0     C35865   8.675   6.479   9.482 -0.9248 -0.3942 -0.4699
 1007MOL0     C35866   8.540   6.451   9.473 -0.4393 -0.1045 -0.3822
 1007MOL0     C35867   8.496   6.315   9.462 -0.1431 -0.4073  0.0576
 1007MOL0     O35868   8.368   6.271   9.433  0.3565  0.1905 -0.0291
 1007MOL0     C35869   8.269   6.369   9.400  0.6949 -0.1856  0.3250
 1007MOL0     C35870   8.128   6.315   9.369 -0.3769  0.3754  0.4069
 1007MOL0     C35871   8.054   6.268   9.497 -0.9686 -0.3692  0.1764
 1007MOL0     C35872   7.916   6.208   9.468  0.4651 -0.1439  0.3868
 1007MOL0     C35873   7.863   6.128   9.581  0.1900  0.3584  0.7344
 1007MOL0     C35874   7.820   6.057   9.665  0.8016  0.0782  1.2584
 1007MOL0     C35875   8.595   6.218   9.484  0.3279 -0.8673 -0.3966
 1007MOL0     C35876   8.733   6.243   9.487  0.0181 -0.1788  0.5948
 1007MOL0     C35877   8.829   6.135   9.506 -0.6123  0.0818 -0.4080
 1007MOL0     H35878   9.146   6.193   9.300 -0.9029  1.5135  0.4233
 1007MOL0     H35879   9.391   6.214   9.243  1.9270  1.4645  0.3837
 1007MOL0     H35880   9.624   6.551   9.428  1.9523 -0.2236  2.6500
 1007MOL0     H35881   9.641   6.398   9.515 -1.4744  1.9548  0.6324
 1007MOL0     H35882   9.799   6.479   9.265  0.5191 -1.6093 -1.3312
 1007MOL0     H35883   9.821   6.333   9.360 -1.5774  0.0327 -1.1267
 1007MOL0     H35884   9.886   6.458   9.557  3.5624  1.6570  0.9744
 1007MOL0     H35885   9.859   6.605   9.493  1.9480  0.5155  0.5485
 1007MOL0     H35886  10.021   6.502   9.280  0.0228 -2.2437 -0.2004
 1007MOL0     H35887  10.080   6.604   9.406 -2.8439  1.0244  1.5149
 1007MOL0     H35888  10.135   6.388   9.535 -0.1347  2.9436  0.1989
 1007MOL0     H35889  10.076   6.299   9.397 -1.3915 -0.1257  2.6695
 1007MOL0     H35890  10.249   6.446   9.266 -0.6374 -0.9589 -0.3907
 1007MOL0     H35891  10.312   6.469   9.440 -0.2567 -2.4992  2.0222
 1007MOL0     H35892  10.324   6.221   9.465 -1.4529  1.5375  1.5625
 1007MOL0     H35893  10.441   6.293   9.358  0.0799  1.3116  3.9574
 1007MOL0     H35894  10.368   6.083   9.257  0.2076  0.1825 -2.7387
 1007MOL0     H35895  10.198   6.148   9.255 -0.4755 -4.1489  0.3081
 1007MOL0     H35896  10.558   6.287   9.139  0.0071  0.3475 -0.3451
 1007MOL0     H35897  10.470   6.439   8.795  1.1210 -1.2022 -1.4022
 1007MOL0     H35898  10.555   6.520   8.926  0.2756 -0.2531 -1.8977
 1007MOL0     H35899  10.720   6.323   8.941 -0.8502  1.1899  0.2503
 1007MOL0     H35900  10.619   6.234   8.823  1.1310 -0.9222  0.3657
 1007MOL0     H35901  10.743   6.505   8.762  1.4633 -0.1310  0.2143
 1007MOL0     H35902  10.683   6.391   8.654  0.1634  0.7955 -0.0755
 1007MOL0     H35903  10.925   6.397   8.661  0.7257  0.6282  1.2704
 1007MOL0     H35904  10.856   6.240   8.697 -5.2983  0.9039 -1.3377
 1007MOL0     H35905  11.153   6.432   8.717 -0.4223  0.2984 -0.2143
 1007MOL0     H35906  11.371   6.319   8.711  0.6702 -0.5740 -0.1719
 1007MOL0     H35907  11.459   5.738   9.000 -0.2569  0.6617 -2.8756
 1007MOL0     H35908  11.649   5.584   9.005  0.8392 -0.2112 -2.0528
 1007MOL0     H35909  11.820   5.503   8.890 -0.2875 -1.6843  0.4628
 1007MOL0     H35910  11.995   5.532   8.872 -0.6006 -0.9496 -0.7716
 1007MOL0     H35911  12.028   5.451   9.118  0.2584  0.2710 -0.6607
 1007MOL0     H35912  11.852   5.434   9.121 -0.0921  3.9740  0.4016
 1007MOL0     H35913  11.859   5.273   8.937 -0.5152  0.0002  0.6049
 1007MOL0     H35914  12.030   5.296   8.906 -1.5180 -0.4309 -1.2355
 1007MOL0     H35915  11.907   5.156   9.150  1.2107 -0.9750  0.2078
 1007MOL0     H35916  12.082   5.179   9.126 -1.7553  1.6050  2.9640
 1007MOL0     H35917  12.078   5.019   8.958 -1.5237 -1.0223 -1.0895
 1007MOL0     H35918  11.913   5.054   8.917 -1.8257 -1.6090  1.6660
 1007MOL0     H35919  11.985   4.906   9.171  0.2598 -1.1474 -0.3259
 1007MOL0     H35920  11.829   4.928   9.101 -0.1278 -3.8426  1.5484
 1007MOL0     H35921  11.920   4.705   9.055 -1.8490 -0.2728 -0.4741
 1007MOL0     H35922  12.055   4.773   8.979 -0.1657  0.5192  0.8959
 1007MOL0     H35923  11.934   4.825   8.782 -2.0182  0.4215  0.1045
 1007MOL0     H35924  11.856   4.673   8.833  0.3462 -1.0466 -0.3935
 1007MOL0     H35925  11.921   5.911   8.976 -0.7182  2.0079  2.2999
 1007MOL0     H35926  11.744   6.066   8.933  2.2957 -1.0473 -1.6304
 1007MOL0     H35927  11.226   6.053   9.027 -2.3774  2.6196  3.2204
 1007MOL0     H35928  11.018   6.172   9.032 -1.1076  1.9084 -0.6560
 1007MOL0     H35929   9.424   6.516   9.544 -1.9127 -1.6435  1.1957
 1007MOL0     H35930   9.178   6.505   9.577  0.8414  4.0724 -3.0303
 1007MOL0     H35931   8.707   6.583   9.482  0.6016 -0.8333 -0.5441
 1007MOL0     H35932   8.463   6.527   9.466  1.0407  1.3156 -2.1696
 1007MOL0     H35933   8.296   6.417   9.305 -0.3304  1.5413  0.8594
 1007MOL0     H35934   8.255   6.447   9.475 -0.1573 -2.3018  2.4984
 1007MOL0     H35935   8.135   6.240   9.290  0.3967  2.7783 -1.9556
 1007MOL0     H35936   8.073   6.400   9.328  1.3967  1.3347 -0.0967
 1007MOL0     H35937   8.040   6.354   9.564  2.5632  1.1916 -0.8592
 1007MOL0     H35938   8.126   6.202   9.544 -1.7445  0.3830  2.5763
 1007MOL0     H35939   7.855   6.290   9.431  1.2619 -0.3569 -1.5243
 1007MOL0     H35940   7.928   6.148   9.377 -0.9606 -1.5625  1.0741
 1007MOL0     H35941   7.788   5.980   9.732  0.7159  1.1422  2.4999
 1007MOL0     H35942   8.560   6.117   9.501 -4.4874  0.6328  0.1540
 1007MOL0     H35943   8.886   6.162   9.596  0.9990 -2.7081 -0.4991
 1007MOL0     H35944   8.783   6.039   9.532  1.8066 -0.3092  3.2180
 1007MOL0     H35945   8.891   6.128   9.416  0.3842  1.6097  0.1145
 1008MOL0     O35946   8.049  10.373  10.663 -0.2246 -0.0068 -0.1537
 1008MOL0     C35947   8.020  10.338  10.775 -0.4304 -0.5498  0.1290
 1008MOL0     O35948   8.093  10.249  10.851 -0.1272 -0.5697  0.3261
 1008MOL0     C35949   8.196  10.177  10.794  0.2841  0.1069 -0.3060
 1008MOL0     C35950   8.158  10.060  10.725 -0.3150 -0.0601 -0.5607
 1008MOL0     C35951   8.248   9.976  10.662 -0.2333 -0.8898  0.3125
 1008MOL0     C35952   8.384  10.013  10.666  0.7868 -0.4063  0.2214
 1008MOL0     O35953   8.467   9.929  10.597  0.5849  0.3664 -0.0523
 1008MOL0     C35954   8.605   9.932  10.634  0.2573 -0.6433 -0.4759
 1008MOL0     C35955   8.695   9.833  10.562  0.0041 -0.1090 -0.2912
 1008MOL0     C35956   8.845   9.848  10.597 -0.7103  1.2040  0.4123
 1008MOL0     C35957   8.927   9.719  10.583 -0.1031 -0.4690 -0.7731
 1008MOL0     C35958   9.081   9.746  10.592  0.5727  0.2063 -0.4943
 1008MOL0     C35959   9.116   9.782  10.744  0.1497 -0.9517  0.2684
 1008MOL0     C35960   9.265   9.823  10.750 -0.5769 -0.3390 -0.0117
 1008MOL0     C35961   9.304   9.966  10.711 -0.1451 -0.5901 -0.6195
 1008MOL0     N35962   9.447   9.985  10.741  0.4366 -1.0999  0.0953
 1008MOL0     C35963   9.556   9.910  10.701 -1.0734 -1.0075  0.8447
 1008MOL0     C35964   9.666   9.988  10.724  0.2189 -0.3031  0.5577
 1008MOL0     C35965   9.812   9.951  10.705  0.4362  0.2304  0.1830
 1008MOL0     C35966   9.874  10.063  10.635  0.0636 -0.5497  0.3876
 1008MOL0     C35967   9.819  10.073  10.485 -0.2505 -0.5050 -0.2826
 1008MOL0     C35968   9.912  10.126  10.372 -0.0246 -0.6727 -0.0053
 1008MOL0     O35969  10.014  10.040  10.330  0.0279  0.2674 -0.1882
 1008MOL0     C35970  10.136  10.044  10.396 -0.1814  0.6167  0.5596
 1008MOL0     C35971  10.223  10.159  10.392 -0.4303  0.7236 -0.3722
 1008MOL0     C35972  10.350  10.161  10.448  0.8832 -0.8759  0.3135
 1008MOL0     C35973  10.400  10.042  10.502 -0.1425 -0.0762  0.2229
 1008MOL0     C35974  10.538  10.039  10.561 -0.5819  0.1167 -0.0145
 1008MOL0     O35975  10.570   9.931  10.649  0.3307 -0.8259  1.4086
 1008MOL0     C35976  10.693   9.927  10.686 -0.0679  0.7746  0.0530
 1008MOL0     C35977  10.728   9.970  10.819 -0.5652 -0.2355  0.7517
 1008MOL0     C35978  10.863   9.960  10.855  0.0076  0.1060  0.4693
 1008MOL0     C35979  10.960   9.906  10.764 -0.7525 -0.1105  0.6203
 1008MOL0     O35980  11.090   9.902  10.794 -0.8232  0.6048 -0.1620
 1008MOL0     C35981  11.122   9.927  10.937 -0.2948  0.7100  0.2788
 1008MOL0     C35982  11.272   9.897  10.953  1.1225 -0.3897  0.0226
 1008MOL0     C35983  11.344  10.024  10.923  0.7524  0.8196 -0.3886
 1008MOL0     C35984  11.483  10.005  10.997  0.6943 -0.4380 -0.0812
 1008MOL0     C35985  11.566  10.121  10.930 -0.0329  0.7281  0.0115
 1008MOL0     C35986  11.549  10.252  11.012 -0.7283 -0.3345  0.4110
 1008MOL0     C35987  11.648  10.366  10.958 -0.0428 -0.3970  0.1293
 1008MOL0     C35988  11.786  10.327  11.005 -0.3731 -0.2079 -0.6516
 1008MOL0    Cl35989  11.906  10.470  10.986 -0.0110  0.0015  0.0085
 1008MOL0     C35990  10.927   9.872  10.631  0.6179  0.2338  0.2765
 1008MOL0     C35991  10.794   9.882  10.595  0.4909 -1.3642  0.0473
 1008MOL0     O35992  10.608  10.131  10.524 -0.0344 -0.0339 -0.0264
 1008MOL0     C35993  10.315   9.928  10.510 -0.2449 -0.1629 -0.0882
 1008MOL0     C35994  10.187   9.925  10.447 -0.0139 -0.7733 -0.1207
 1008MOL0     N35995   9.613  10.109  10.770  0.0362  0.3960 -0.2793
 1008MOL0     N35996   9.488  10.104  10.775  0.2132  0.6660 -0.2557
 1008MOL0     C35997   8.418  10.129  10.744  0.0987 -0.5697 -0.4784
 1008MOL0     C35998   8.327  10.209  10.810  0.2200 -0.3898 -0.2428
 1008MOL0     C35999   7.893  10.389  10.818  0.3636 -0.2403  0.3052
 1008MOL0     C36000   7.809  10.294  10.868 -0.2048 -0.4250 -0.3478
 1008MOL0     C36001   7.691  10.323  10.933 -1.2110  0.7392  0.2309
 1008MOL0     C36002   7.643  10.454  10.935 -1.4883  0.1066 -0.0607
 1008MOL0     O36003   7.536  10.490  11.005 -0.0905 -0.1598 -0.4026
 1008MOL0     C36004   7.414  10.419  10.978  0.4405 -0.1079  0.1340
 1008MOL0     C36005   7.306  10.497  11.047  0.5401  0.1099 -0.0416
 1008MOL0     C36006   7.292  10.649  11.013  0.3682 -0.3376  0.2549
 1008MOL0     C36007   7.171  10.723  11.069  0.1830 -0.0392 -0.0430
 1008MOL0     C36008   7.165  10.719  11.214 -0.0129  0.2414 -0.7656
 1008MOL0     C36009   7.160  10.714  11.339 -0.8005 -0.6355 -0.2526
 1008MOL0     C36010   7.734  10.553  10.886 -0.1457  0.4319 -0.1983
 1008MOL0     C36011   7.852  10.521  10.824 -0.0148 -0.0274 -0.9409
 1008MOL0     C36012   7.942  10.641  10.787 -1.4785 -0.2630  0.1538
 1008MOL0     H36013   8.055  10.026  10.724 -0.6905  1.0743 -1.0808
 1008MOL0     H36014   8.207   9.894  10.604 -0.2896  0.4895 -1.7133
 1008MOL0     H36015   8.639  10.031  10.603 -1.0949 -0.1059 -0.3126
 1008MOL0     H36016   8.624   9.925  10.742 -1.9835 -0.7932 -0.0351
 1008MOL0     H36017   8.686   9.846  10.453 -0.2381  1.3183 -0.1275
 1008MOL0     H36018   8.678   9.731  10.595 -1.3063 -0.5417 -2.1391
 1008MOL0     H36019   8.848   9.892  10.697 -0.1577 -0.3992  1.1374
 1008MOL0     H36020   8.888   9.919  10.527 -0.6838  0.2467 -0.5642
 1008MOL0     H36021   8.907   9.642  10.658 -0.2421 -0.7239 -1.0663
 1008MOL0     H36022   8.906   9.667  10.489 -0.5079 -0.7118 -0.5501
 1008MOL0     H36023   9.130   9.659  10.549 -0.1455  0.4698 -1.9300
 1008MOL0     H36024   9.095   9.830  10.522  1.9350 -0.2751 -0.8372
 1008MOL0     H36025   9.050   9.856  10.789  0.5112  0.2903 -1.1700
 1008MOL0     H36026   9.125   9.686  10.797  0.7962 -1.7273 -1.1803
 1008MOL0     H36027   9.307   9.748  10.683 -2.1259 -1.7228  0.5043
 1008MOL0     H36028   9.303   9.801  10.850 -1.6328 -3.1496 -0.1425
 1008MOL0     H36029   9.297   9.970  10.602 -1.8324  0.8092 -0.5011
 1008MOL0     H36030   9.232  10.034  10.758 -0.7639 -1.6199 -0.0470
 1008MOL0     H36031   9.549   9.809  10.661 -0.2179 -0.3217 -1.1182
 1008MOL0     H36032   9.861   9.948  10.802  0.1222  3.6682  0.5631
 1008MOL0     H36033   9.811   9.854  10.654 -1.4468  0.4112 -0.2075
 1008MOL0     H36034   9.853  10.152  10.695 -3.3189 -1.8319  1.3530
 1008MOL0     H36035   9.977  10.028  10.641  0.7535  1.3900  0.6774
 1008MOL0     H36036   9.737  10.146  10.482  0.2859  0.1419  0.3039
 1008MOL0     H36037   9.783   9.975  10.453  1.8558 -1.6454  0.6512
 1008MOL0     H36038   9.945  10.230  10.386 -0.5402  0.1517 -3.7679
 1008MOL0     H36039   9.842  10.135  10.289 -2.3371 -2.3626  1.6585
 1008MOL0     H36040  10.189  10.250  10.344  0.1828  0.8873 -0.5045
 1008MOL0     H36041  10.411  10.250  10.447 -0.0476 -0.2033 -1.9594
 1008MOL0     H36042  10.641   9.989  10.882  0.5337  0.3553  2.1478
 1008MOL0     H36043  10.873   9.992  10.959 -2.4269 -0.1600  0.8359
 1008MOL0     H36044  11.086  10.023  10.975 -0.4017  1.5244 -1.7457
 1008MOL0     H36045  11.074   9.846  10.993  3.0196 -1.2873  0.5169
 1008MOL0     H36046  11.293   9.861  11.054  1.9284 -0.2374 -0.0904
 1008MOL0     H36047  11.289   9.817  10.880  1.1840 -0.2022 -0.1691
 1008MOL0     H36048  11.350  10.033  10.814  0.9627  0.9752 -0.3639
 1008MOL0     H36049  11.295  10.108  10.973 -0.7289 -1.0725  1.4714
 1008MOL0     H36050  11.532   9.914  10.962 -1.4282 -1.0989 -1.5364
 1008MOL0     H36051  11.473   9.997  11.105  0.0802 -0.2660 -0.1177
 1008MOL0     H36052  11.523  10.133  10.830 -0.0471 -1.9753 -0.3746
 1008MOL0     H36053  11.669  10.087  10.924 -0.3080 -0.8326  2.5307
 1008MOL0     H36054  11.451  10.292  10.985 -0.9208 -1.5374 -0.7400
 1008MOL0     H36055  11.548  10.234  11.120 -0.6731 -1.5836  0.2272
 1008MOL0     H36056  11.622  10.455  11.015  0.2221 -0.8912  1.0336
 1008MOL0     H36057  11.648  10.383  10.849  0.8654  2.4414  0.4819
 1008MOL0     H36058  11.783  10.286  11.106 -0.6080 -2.6325 -1.5812
 1008MOL0     H36059  11.825  10.244  10.946 -0.8302  0.3771 -1.8067
 1008MOL0     H36060  10.994   9.832  10.555 -1.1821 -1.5757 -0.4351
 1008MOL0     H36061  10.755   9.859  10.496 -0.7442  0.7126 -0.0099
 1008MOL0     H36062  10.352   9.845  10.570 -1.8180 -1.2461 -0.5465
 1008MOL0     H36063  10.133   9.832  10.428 -1.7075 -0.1856  1.4408
 1008MOL0     H36064   8.520  10.164  10.731  0.7518 -2.4355 -0.6601
 1008MOL0     H36065   8.365  10.303  10.851  0.5758 -0.4232 -0.4918
 1008MOL0     H36066   7.838  10.190  10.857  1.0777 -0.0391 -0.8150
 1008MOL0     H36067   7.626  10.244  10.970  0.4927 -0.1137  1.5035
 1008MOL0     H36068   7.422  10.315  11.013  1.5593 -1.1591 -2.9289
 1008MOL0     H36069   7.382  10.419  10.874 -0.8081 -2.1128  0.4666
 1008MOL0     H36070   7.332  10.491  11.153  2.1325  0.0651 -0.3971
 1008MOL0     H36071   7.210  10.446  11.035 -0.5474  1.6734  1.5338
 1008MOL0     H36072   7.286  10.668  10.905  0.9058 -0.4049  0.2088
 1008MOL0     H36073   7.385  10.699  11.042  0.9546  0.7059 -2.9626
 1008MOL0     H36074   7.165  10.828  11.039 -0.8732 -0.1010 -0.0780
 1008MOL0     H36075   7.077  10.689  11.025  0.1874  1.6089 -1.4301
 1008MOL0     H36076   7.152  10.731  11.444 -0.0737  1.4674 -0.4844
 1008MOL0     H36077   7.710  10.659  10.889 -2.6169  0.1596 -3.8849
 1008MOL0     H36078   7.941  10.669  10.681  1.0472  0.1650  0.1818
 1008MOL0     H36079   7.934  10.726  10.855  3.5517 -1.5189  2.8283
 1008MOL0     H36080   8.044  10.606  10.802 -1.5954 -0.7437 -0.1434
 1009MOL0     O36081   2.965   3.830   8.148  0.3920 -0.3729 -0.4184
 1009MOL0     C36082   2.964   3.736   8.231  0.4451  1.0525  0.6003
 1009MOL0     O36083   3.066   3.676   8.286 -0.2635 -0.4781 -1.0571
 1009MOL0     C36084   3.191   3.713   8.235 -0.6849  0.0840  0.5125
 1009MOL0     C36085   3.270   3.825   8.264 -0.1488 -0.1577 -0.0846
 1009MOL0     C36086   3.402   3.843   8.209 -0.1657 -0.5460  0.0509
 1009MOL0     C36087   3.453   3.753   8.114  0.6005 -0.1485 -0.0611
 1009MOL0     O36088   3.573   3.755   8.056 -0.2297 -0.3593 -0.0568
 1009MOL0     C36089   3.668   3.842   8.116 -0.6131  0.4408 -0.0611
 1009MOL0     C36090   3.806   3.830   8.056  0.2886 -0.5106  0.4494
 1009MOL0     C36091   3.886   3.955   8.095 -0.0701  0.0604 -0.0615
 1009MOL0     C36092   4.014   3.968   8.021 -0.1504 -0.1243 -0.2438
 1009MOL0     C36093   4.094   4.090   8.062  0.6929 -0.0128 -0.5386
 1009MOL0     C36094   4.189   4.056   8.179  0.2500  0.0748  0.0140
 1009MOL0     C36095   4.247   4.183   8.239  0.6092 -0.5987 -0.9117
 1009MOL0     C36096   4.337   4.277   8.153 -0.3076 -0.1081 -0.2113
 1009MOL0     N36097   4.399   4.396   8.213  0.2270 -0.1585 -0.3685
 1009MOL0     C36098   4.536   4.424   8.191  0.4661 -0.7086 -0.2417
 1009MOL0     C36099   4.560   4.536   8.263  0.0968 -0.4619 -0.7664
 1009MOL0     C36100   4.698   4.593   8.288 -0.1714 -0.0997  0.3689
 1009MOL0     C36101   4.696   4.726   8.364  0.5094 -0.7566 -0.4286
 1009MOL0     C36102   4.804   4.823   8.305 -0.0669  0.4052 -0.3556
 1009MOL0     C36103   4.928   4.837   8.389  0.6268 -0.1821  0.4625
 1009MOL0     O36104   5.022   4.934   8.342 -0.2236  0.4252 -0.8166
 1009MOL0     C36105   5.125   4.978   8.428  0.7086 -0.1459  0.1282
 1009MOL0     C36106   5.139   5.115   8.423  0.4869  0.3783  0.3813
 1009MOL0     C36107   5.243   5.179   8.497  0.8155 -0.1771  0.0779
 1009MOL0     C36108   5.326   5.103   8.571 -0.4339 -0.4024  0.1332
 1009MOL0     C36109   5.434   5.165   8.661  0.4400  0.3786  0.1325
 1009MOL0     O36110   5.526   5.087   8.709 -0.7488  0.1330  0.2916
 1009MOL0     C36111   5.630   5.143   8.773 -0.7685  0.0238  0.1546
 1009MOL0     C36112   5.718   5.049   8.842  0.2093 -0.1661 -0.1402
 1009MOL0     C36113   5.835   5.091   8.913  0.9143  1.0855  0.0628
 1009MOL0     C36114   5.878   5.225   8.912 -0.1785 -0.9198 -0.6186
 1009MOL0     O36115   5.984   5.275   8.993 -0.3604 -0.2402  0.1381
 1009MOL0     C36116   6.054   5.176   9.069  0.2155  0.5131 -0.4707
 1009MOL0     C36117   6.153   5.242   9.155  0.0185  0.5087  0.9638
 1009MOL0     C36118   6.229   5.128   9.236 -0.7247  0.6019  0.0911
 1009MOL0     C36119   6.340   5.187   9.322  0.1328 -0.7426  0.8125
 1009MOL0     C36120   6.459   5.253   9.237 -0.1244  0.3103  0.0187
 1009MOL0     C36121   6.582   5.290   9.330  0.7977 -0.2789 -0.2594
 1009MOL0     C36122   6.719   5.285   9.262 -0.1210  1.0314  0.5867
 1009MOL0     C36123   6.833   5.314   9.362 -0.5527  0.2417  0.1314
 1009MOL0    Cl36124   6.863   5.183   9.478  0.3402 -0.0025  0.7082
 1009MOL0     C36125   5.795   5.317   8.842  0.2532 -0.5055  0.3603
 1009MOL0     C36126   5.669   5.274   8.788  0.3106 -0.6436  0.2059
 1009MOL0     O36127   5.408   5.279   8.701 -0.2921  0.9896  0.6026
 1009MOL0     C36128   5.318   4.965   8.569  0.7602  0.4185  0.8533
 1009MOL0     C36129   5.216   4.904   8.499 -0.2867  0.2839 -0.6334
 1009MOL0     N36130   4.437   4.576   8.318 -0.1008 -0.2250 -0.0409
 1009MOL0     N36131   4.344   4.495   8.296  0.0622  0.8014 -0.2581
 1009MOL0     C36132   3.374   3.641   8.084  0.2998  0.1438  0.3799
 1009MOL0     C36133   3.248   3.619   8.143 -0.6404 -0.4822 -0.4802
 1009MOL0     C36134   2.830   3.681   8.265  0.5649  0.0494  0.3386
 1009MOL0     C36135   2.824   3.597   8.378  0.1302 -0.0826 -0.2188
 1009MOL0     C36136   2.700   3.549   8.433  0.3830  0.0519 -0.2474
 1009MOL0     C36137   2.583   3.552   8.359 -0.5768 -0.5772 -0.1322
 1009MOL0     O36138   2.457   3.513   8.389 -0.2180  0.5476 -0.6197
 1009MOL0     C36139   2.424   3.462   8.512 -0.5215  0.4705 -0.9976
 1009MOL0     C36140   2.279   3.429   8.508 -0.0825 -0.1679 -0.3390
 1009MOL0     C36141   2.222   3.385   8.646  0.0517  0.4324  0.1795
 1009MOL0     C36142   2.079   3.334   8.637  0.4084 -0.1470  0.1974
 1009MOL0     C36143   1.978   3.434   8.621  0.9099  0.6543  0.0773
 1009MOL0     C36144   1.891   3.514   8.597 -0.3033  0.0521  0.0894
 1009MOL0     C36145   2.589   3.617   8.240 -0.8113  0.0417 -0.0106
 1009MOL0     C36146   2.705   3.685   8.198  0.2829 -0.0420  0.3301
 1009MOL0     C36147   2.689   3.767   8.067 -0.0414 -0.9461  0.1702
 1009MOL0     H36148   3.232   3.906   8.325  0.3182  2.6615 -3.2450
 1009MOL0     H36149   3.460   3.923   8.253 -2.7070  2.2834 -1.4133
 1009MOL0     H36150   3.641   3.948   8.117 -1.0918  0.3797  2.9146
 1009MOL0     H36151   3.685   3.803   8.217 -1.8850  0.1319  0.0539
 1009MOL0     H36152   3.803   3.825   7.946 -0.6034 -0.3100  0.4586
 1009MOL0     H36153   3.861   3.742   8.090  0.0850 -1.4206 -1.4089
 1009MOL0     H36154   3.886   3.964   8.204  0.1475 -1.1383  0.0493
 1009MOL0     H36155   3.824   4.037   8.057  0.7488  1.8226  2.1540
 1009MOL0     H36156   4.072   3.886   8.064  1.9766  1.3143 -0.2222
 1009MOL0     H36157   3.998   3.951   7.914  1.6202  3.1112 -1.1334
 1009MOL0     H36158   4.165   4.109   7.981  0.2133 -1.5108 -1.3426
 1009MOL0     H36159   4.037   4.184   8.071  0.9851  0.2831 -1.5886
 1009MOL0     H36160   4.137   4.002   8.258 -0.0592 -1.7216 -1.3431
 1009MOL0     H36161   4.266   3.993   8.133  0.7086  1.2696 -0.9034
 1009MOL0     H36162   4.312   4.153   8.321  1.5066 -0.3148 -1.4962
 1009MOL0     H36163   4.165   4.237   8.287 -0.9769 -1.8608 -2.1036
 1009MOL0     H36164   4.423   4.220   8.116  1.6267  1.2663  1.8233
 1009MOL0     H36165   4.283   4.317   8.067  0.2978 -0.6143 -0.8452
 1009MOL0     H36166   4.621   4.377   8.143  1.3614  2.2853 -1.8038
 1009MOL0     H36167   4.771   4.522   8.329  0.3080 -0.3762 -0.9350
 1009MOL0     H36168   4.722   4.608   8.183 -0.7655  0.4768  0.3151
 1009MOL0     H36169   4.599   4.775   8.353  1.9903  2.6577  0.6202
 1009MOL0     H36170   4.705   4.700   8.470 -1.5313  3.1531  0.8778
 1009MOL0     H36171   4.767   4.925   8.294 -0.0624  0.3441 -0.9581
 1009MOL0     H36172   4.830   4.790   8.204 -1.9573  0.2507 -0.8180
 1009MOL0     H36173   4.960   4.734   8.407 -0.5111 -0.4235  1.2091
 1009MOL0     H36174   4.897   4.867   8.490 -1.6237 -0.9807  0.0557
 1009MOL0     H36175   5.066   5.171   8.365 -2.1776  2.9840  5.5267
 1009MOL0     H36176   5.256   5.286   8.492 -0.8141  0.0093 -0.5456
 1009MOL0     H36177   5.687   4.946   8.855  0.5626 -0.0692  1.8503
 1009MOL0     H36178   5.883   5.013   8.971  0.6880  1.4589  0.7762
 1009MOL0     H36179   5.980   5.121   9.127 -2.0457 -0.0742 -3.6787
 1009MOL0     H36180   6.106   5.109   9.000  2.8276 -2.2847  3.7113
 1009MOL0     H36181   6.215   5.314   9.101 -0.1506  0.0266  0.1121
 1009MOL0     H36182   6.101   5.299   9.232 -3.4136 -0.4133 -0.5175
 1009MOL0     H36183   6.162   5.069   9.299  0.6836  2.5022  3.6598
 1009MOL0     H36184   6.275   5.053   9.171 -3.0763  0.0654 -1.0677
 1009MOL0     H36185   6.376   5.103   9.383 -1.0352 -2.4139 -0.6977
 1009MOL0     H36186   6.312   5.265   9.393  5.3824  3.2820 -0.9077
 1009MOL0     H36187   6.423   5.340   9.180 -3.0582  0.3215  1.6853
 1009MOL0     H36188   6.494   5.181   9.163  0.6326  2.2332 -1.5910
 1009MOL0     H36189   6.560   5.389   9.370  0.0092  0.2125 -1.8406
 1009MOL0     H36190   6.580   5.227   9.420  2.0864 -0.3781 -0.2848
 1009MOL0     H36191   6.721   5.353   9.177 -0.0088 -1.9961 -2.0413
 1009MOL0     H36192   6.728   5.185   9.218 -0.2022  1.6262 -0.8305
 1009MOL0     H36193   6.930   5.322   9.311  0.6538 -0.3043  2.2016
 1009MOL0     H36194   6.808   5.407   9.414  0.5437 -0.9291  2.9871
 1009MOL0     H36195   5.836   5.417   8.831 -0.7891 -0.1236 -0.1441
 1009MOL0     H36196   5.615   5.357   8.744  1.2545  0.9520  1.9108
 1009MOL0     H36197   5.400   4.907   8.612 -0.4863 -2.8083 -0.8276
 1009MOL0     H36198   5.207   4.796   8.498  2.5385 -0.0553  0.9237
 1009MOL0     H36199   3.407   3.572   8.008 -3.9979 -1.1298 -0.6354
 1009MOL0     H36200   3.195   3.526   8.124 -0.3444 -1.1620  1.7236
 1009MOL0     H36201   2.908   3.576   8.444  0.7469 -0.6153 -1.1593
 1009MOL0     H36202   2.710   3.494   8.525  0.2049  0.7634  0.2045
 1009MOL0     H36203   2.439   3.547   8.579 -0.9938  0.8636 -1.3810
 1009MOL0     H36204   2.487   3.374   8.528 -1.3718 -0.0150 -0.1453
 1009MOL0     H36205   2.268   3.341   8.444 -0.6939 -0.5983  0.3407
 1009MOL0     H36206   2.229   3.517   8.468  1.0443 -0.3817 -2.3113
 1009MOL0     H36207   2.221   3.476   8.707 -0.1844  1.8410 -1.8261
 1009MOL0     H36208   2.290   3.312   8.690 -0.4944  0.4341  1.0528
 1009MOL0     H36209   2.069   3.247   8.571  0.6088 -2.0831  2.5687
 1009MOL0     H36210   2.060   3.293   8.737 -0.9467 -3.5286 -1.2698
 1009MOL0     H36211   1.820   3.588   8.564 -0.7394  0.0650  1.0371
 1009MOL0     H36212   2.504   3.631   8.173  0.1794  0.9294 -1.1356
 1009MOL0     H36213   2.591   3.753   8.021 -0.9836  1.5705  1.2536
 1009MOL0     H36214   2.698   3.871   8.098 -1.5454 -0.8107  0.1979
 1009MOL0     H36215   2.770   3.742   7.997 -0.9590  0.3417 -1.4180
 1010MOL0     O36216   6.622   7.515  10.794  0.0312 -0.2462 -0.2444
 1010MOL0     C36217   6.572   7.447  10.883 -0.4746 -0.8627  0.2633
 1010MOL0     O36218   6.627   7.340  10.948 -0.1556 -0.3567  0.9208
 1010MOL0     C36219   6.768   7.343  10.960  0.3328 -0.4363  0.5852
 1010MOL0     C36220   6.841   7.457  11.004 -0.2442  0.1314  0.0165
 1010MOL0     C36221   6.978   7.445  10.987 -0.5504  0.5127 -0.3170
 1010MOL0     C36222   7.049   7.326  10.949 -0.0978 -0.1989 -0.0343
 1010MOL0     O36223   7.186   7.339  10.950  0.2581  0.5747  0.4688
 1010MOL0     C36224   7.259   7.232  10.894  0.8910  0.2984  0.1028
 1010MOL0     C36225   7.407   7.242  10.919  0.2930 -0.1797 -0.0951
 1010MOL0     C36226   7.456   7.363  10.843  0.1750  0.0434 -0.5135
 1010MOL0     C36227   7.604   7.393  10.849 -0.1653 -0.1828 -0.8050
 1010MOL0     C36228   7.657   7.509  10.758 -0.7922  0.3341  0.3153
 1010MOL0     C36229   7.812   7.524  10.783  0.5308  0.0178  0.4740
 1010MOL0     C36230   7.891   7.621  10.679  0.3681 -0.4538 -0.7158
 1010MOL0     C36231   7.904   7.568  10.535  0.5124  0.1116 -0.6695
 1010MOL0     N36232   7.987   7.660  10.465 -0.7911  0.6788 -1.0150
 1010MOL0     C36233   8.121   7.625  10.449 -0.0963  0.1090  0.1312
 1010MOL0     C36234   8.170   7.726  10.380  0.9916  0.0137  0.2104
 1010MOL0     C36235   8.317   7.746  10.347  0.2380 -0.0623  0.1818
 1010MOL0     C36236   8.351   7.894  10.382 -0.2164  0.2558 -0.4222
 1010MOL0     C36237   8.500   7.935  10.368 -0.3466  0.6186  0.4783
 1010MOL0     C36238   8.576   7.861  10.470  0.1417 -0.4382 -0.4943
 1010MOL0     O36239   8.713   7.902  10.469  0.1614 -0.2362 -0.3794
 1010MOL0     C36240   8.800   7.813  10.545  0.5406 -0.1190  0.2298
 1010MOL0     C36241   8.780   7.676  10.582 -0.4833 -0.2876  0.6123
 1010MOL0     C36242   8.888   7.603  10.628 -1.0862 -0.0448 -0.0373
 1010MOL0     C36243   9.015   7.658  10.651  0.2175  0.4173 -0.0683
 1010MOL0     C36244   9.130   7.576  10.706 -0.8136 -0.3380  0.0280
 1010MOL0     O36245   9.111   7.444  10.735  0.4642  0.4176 -0.3711
 1010MOL0     C36246   9.215   7.367  10.762 -0.5028  0.2406  0.0994
 1010MOL0     C36247   9.276   7.376  10.884  0.6386 -0.3788  0.2623
 1010MOL0     C36248   9.373   7.277  10.920 -0.0182 -0.5206 -0.0214
 1010MOL0     C36249   9.437   7.191  10.827 -0.8496 -0.0153 -0.2947
 1010MOL0     O36250   9.541   7.103  10.866 -0.2326  0.5414  0.3849
 1010MOL0     C36251   9.603   7.098  10.995 -0.2989 -0.1288  0.2813
 1010MOL0     C36252   9.706   6.989  10.999 -0.4324  1.2278 -0.0134
 1010MOL0     C36253   9.792   6.997  11.124  0.1548  0.8815 -0.6569
 1010MOL0     C36254   9.907   7.099  11.108  0.2272 -0.2070 -0.0868
 1010MOL0     C36255  10.001   7.085  11.222 -0.0554 -0.0676  0.0139
 1010MOL0     C36256  10.124   7.189  11.210 -0.7512  0.6131 -0.9318
 1010MOL0     C36257  10.237   7.171  11.309  0.2815  0.4410 -0.6612
 1010MOL0     C36258  10.255   7.277  11.414 -0.3667  0.1836  0.3583
 1010MOL0    Cl36259  10.392   7.222  11.522 -0.2399 -0.1511  0.5093
 1010MOL0     C36260   9.373   7.180  10.703 -0.3486  1.5308 -1.3093
 1010MOL0     C36261   9.256   7.260  10.674  0.1008  0.8928  0.0355
 1010MOL0     O36262   9.229   7.644  10.743  0.6984 -0.2272 -0.0746
 1010MOL0     C36263   9.021   7.801  10.634 -0.0147  0.1502 -0.1188
 1010MOL0     C36264   8.918   7.876  10.567 -0.3988  0.3782  0.0148
 1010MOL0     N36265   8.070   7.821  10.359 -0.1729  0.4807  0.1493
 1010MOL0     N36266   7.962   7.780  10.407  0.5840  1.0013 -0.3226
 1010MOL0     C36267   6.974   7.209  10.912  0.4195  0.8309  0.4803
 1010MOL0     C36268   6.840   7.221  10.924 -0.2630  0.2367  0.4067
 1010MOL0     C36269   6.424   7.447  10.901  0.1467  1.6451  0.7230
 1010MOL0     C36270   6.353   7.321  10.903 -0.2070  0.7047  0.3683
 1010MOL0     C36271   6.217   7.327  10.898 -0.1126 -0.3289  0.4916
 1010MOL0     C36272   6.138   7.445  10.912 -0.8289 -0.1099  0.1684
 1010MOL0     O36273   6.004   7.439  10.906  0.4147  0.2692  0.4242
 1010MOL0     C36274   5.917   7.335  10.871 -0.1541  0.4922  0.1211
 1010MOL0     C36275   5.903   7.236  10.992 -0.8299 -0.4069  0.2814
 1010MOL0     C36276   5.896   7.300  11.129 -0.5602 -0.7032 -0.6564
 1010MOL0     C36277   5.916   7.198  11.243 -0.0411 -1.1389  0.5507
 1010MOL0     C36278   5.838   7.075  11.233 -0.5174  0.6118 -0.0540
 1010MOL0     C36279   5.778   6.968  11.225 -0.2916 -0.7165 -0.2773
 1010MOL0     C36280   6.214   7.562  10.932 -0.0715  0.3532 -0.0446
 1010MOL0     C36281   6.353   7.569  10.921 -0.1101 -0.3399 -0.1290
 1010MOL0     C36282   6.441   7.693  10.953  0.2659  0.1691 -1.1961
 1010MOL0     H36283   6.789   7.545  11.042 -0.5811 -0.0259 -0.0709
 1010MOL0     H36284   7.037   7.534  11.007  0.8657 -0.6216  0.7881
 1010MOL0     H36285   7.224   7.136  10.934 -1.3538  0.7023 -0.7731
 1010MOL0     H36286   7.234   7.228  10.788 -0.7766  0.6612  0.4535
 1010MOL0     H36287   7.464   7.155  10.886 -0.3471 -0.5666 -0.2054
 1010MOL0     H36288   7.433   7.255  11.025 -0.1852 -0.9440  0.1235
 1010MOL0     H36289   7.408   7.453  10.883 -2.7653 -1.6464  0.0281
 1010MOL0     H36290   7.426   7.350  10.739  1.6175 -2.0240 -0.7390
 1010MOL0     H36291   7.632   7.403  10.954  2.3112 -3.5224 -1.0006
 1010MOL0     H36292   7.643   7.294  10.825 -3.5377 -1.5715 -1.1716
 1010MOL0     H36293   7.641   7.500  10.650  1.0968  0.8980 -0.0481
 1010MOL0     H36294   7.605   7.603  10.781 -0.9118  0.5005 -0.6148
 1010MOL0     H36295   7.836   7.551  10.887  3.2603 -1.4528  0.3140
 1010MOL0     H36296   7.859   7.426  10.774 -0.0663 -0.2128 -0.1820
 1010MOL0     H36297   7.989   7.644  10.721  0.6837 -1.6966 -0.7526
 1010MOL0     H36298   7.835   7.715  10.675 -0.2318 -0.8480 -1.8528
 1010MOL0     H36299   7.952   7.470  10.546 -0.2025 -0.4524 -2.2528
 1010MOL0     H36300   7.808   7.566  10.483  0.3240  0.2876 -0.3288
 1010MOL0     H36301   8.172   7.533  10.477  0.2405 -0.0141 -0.8593
 1010MOL0     H36302   8.377   7.673  10.401  0.6075  0.9927  1.2311
 1010MOL0     H36303   8.331   7.743  10.238  2.0954  2.1032  0.2835
 1010MOL0     H36304   8.284   7.960  10.326 -1.5373 -1.8210 -1.4314
 1010MOL0     H36305   8.328   7.904  10.488 -1.2696 -3.0532 -0.2078
 1010MOL0     H36306   8.508   8.044  10.378  0.9574  0.4875  1.1864
 1010MOL0     H36307   8.523   7.903  10.266 -3.1946 -1.7651  0.4550
 1010MOL0     H36308   8.578   7.756  10.442  1.1869 -0.1823 -1.4555
 1010MOL0     H36309   8.532   7.871  10.570 -1.6074  0.3859 -1.3006
 1010MOL0     H36310   8.679   7.637  10.582  0.1384 -2.0038  0.1245
 1010MOL0     H36311   8.864   7.497  10.636 -1.2009 -0.3019 -2.9539
 1010MOL0     H36312   9.251   7.463  10.945 -1.9359  0.2454 -1.5127
 1010MOL0     H36313   9.415   7.283  11.020 -0.4214 -1.6999  0.2378
 1010MOL0     H36314   9.656   7.190  11.019  2.3869 -1.0013 -1.7698
 1010MOL0     H36315   9.534   7.076  11.077  1.0722 -1.4307  1.1271
 1010MOL0     H36316   9.654   6.893  10.997 -0.6011  1.3320 -1.5301
 1010MOL0     H36317   9.774   6.998  10.914  0.7848  1.4743  0.9606
 1010MOL0     H36318   9.726   7.030  11.204  1.5025  1.4798  0.2525
 1010MOL0     H36319   9.839   6.898  11.129  0.2879  0.7592 -3.1115
 1010MOL0     H36320   9.867   7.201  11.111 -0.5910 -0.3909 -2.2115
 1010MOL0     H36321   9.952   7.078  11.010 -0.6724  0.4655 -0.6737
 1010MOL0     H36322  10.037   6.982  11.214 -2.4699 -1.0821  1.3032
 1010MOL0     H36323   9.954   7.101  11.320  1.2605  3.1022  0.2519
 1010MOL0     H36324  10.181   7.168  11.119 -0.1571  0.2024 -0.4715
 1010MOL0     H36325  10.080   7.289  11.202 -0.1934  0.7974 -1.9769
 1010MOL0     H36326  10.332   7.160  11.257  0.3321  2.2129 -0.9980
 1010MOL0     H36327  10.227   7.074  11.358 -0.4844 -0.2207 -2.0691
 1010MOL0     H36328  10.266   7.365  11.349  0.4117 -1.6741 -2.1876
 1010MOL0     H36329  10.163   7.290  11.471 -2.1730 -0.1509 -2.2875
 1010MOL0     H36330   9.406   7.105  10.633 -0.3200 -0.5202  0.7927
 1010MOL0     H36331   9.207   7.245  10.578  1.6844  0.7372 -0.7863
 1010MOL0     H36332   9.118   7.848  10.645 -0.4978  0.9842  0.6162
 1010MOL0     H36333   8.938   7.977  10.533  3.4365 -0.6307 -1.2958
 1010MOL0     H36334   7.020   7.112  10.898  0.9359  1.2412 -0.8063
 1010MOL0     H36335   6.787   7.132  10.892  3.1455 -1.8890  0.1817
 1010MOL0     H36336   6.408   7.228  10.891  0.4877  1.3248 -1.5550
 1010MOL0     H36337   6.166   7.231  10.891  0.3294 -0.5723  0.5018
 1010MOL0     H36338   5.952   7.292  10.776  0.0345  2.4525 -0.7519
 1010MOL0     H36339   5.820   7.379  10.846  0.1805  1.6067  0.7226
 1010MOL0     H36340   5.979   7.157  10.982  0.5623  0.9522 -0.2941
 1010MOL0     H36341   5.801   7.201  10.975 -0.4333 -2.0222  0.9721
 1010MOL0     H36342   5.795   7.339  11.140 -1.6110 -2.6435 -2.8817
 1010MOL0     H36343   5.964   7.386  11.132 -2.4246  0.8008  0.0314
 1010MOL0     H36344   6.023   7.180  11.255  1.2110  2.9225 -2.3107
 1010MOL0     H36345   5.895   7.249  11.337  1.6008  1.6463 -0.4748
 1010MOL0     H36346   5.719   6.878  11.222 -1.0030 -0.2593 -0.0056
 1010MOL0     H36347   6.158   7.654  10.946  0.3504  0.5112  0.6353
 1010MOL0     H36348   6.391   7.777  11.003  1.0952 -1.2051  2.1920
 1010MOL0     H36349   6.512   7.655  11.027  1.1715  1.3258 -1.4544
 1010MOL0     H36350   6.491   7.739  10.867 -0.9164  3.0402 -0.4835
 1011MOL0     O36351   0.040   6.415   5.654 -0.4856  0.6163 -0.0357
 1011MOL0     C36352   0.023   6.347   5.754 -0.1107  0.2710 -0.4299
 1011MOL0     O36353  -0.079   6.271   5.779  0.7173  0.5383  0.0689
 1011MOL0     C36354  -0.176   6.247   5.689 -0.5288  0.1802 -0.2650
 1011MOL0     C36355  -0.303   6.202   5.734  1.3167  0.1595  0.2269
 1011MOL0     C36356  -0.404   6.171   5.640 -0.1035 -0.1743 -0.5354
 1011MOL0     C36357  -0.383   6.174   5.502  0.0998 -0.0823  0.2758
 1011MOL0     O36358  -0.465   6.128   5.398 -0.3264 -0.5839 -0.8128
 1011MOL0     C36359  -0.595   6.194   5.382  0.1773  0.0076  0.6320
 1011MOL0     C36360  -0.681   6.093   5.304  0.6530 -0.3849  0.4145
 1011MOL0     C36361  -0.700   5.960   5.373 -0.4872 -0.6848  0.3470
 1011MOL0     C36362  -0.796   5.867   5.290  0.8050 -0.1458  0.3588
 1011MOL0     C36363  -0.795   5.728   5.354  0.3781 -0.1263 -0.0281
 1011MOL0     C36364  -0.889   5.719   5.483 -0.4719  0.4824 -0.2116
 1011MOL0     C36365  -0.892   5.576   5.561  0.3291  0.2895 -0.8582
 1011MOL0     C36366  -0.806   5.566   5.694  0.2107 -0.7357  0.3598
 1011MOL0     N36367  -0.666   5.602   5.688  0.3187  0.5165  0.9071
 1011MOL0     C36368  -0.575   5.509   5.655  0.2971  0.0644  0.1218
 1011MOL0     C36369  -0.457   5.579   5.651  0.5783  0.4360 -0.6487
 1011MOL0     C36370  -0.323   5.523   5.600  0.1325 -0.5121  0.3986
 1011MOL0     C36371  -0.199   5.614   5.603 -0.6678 -0.7252 -0.0936
 1011MOL0     C36372  -0.080   5.552   5.524  0.1960 -0.3475 -0.1354
 1011MOL0     C36373  -0.020   5.428   5.595  0.5990  0.3104  0.1052
 1011MOL0     O36374   0.093   5.363   5.531 -0.5199 -0.2058  0.2297
 1011MOL0     C36375   0.220   5.416   5.551  0.2260  0.1949  0.1447
 1011MOL0     C36376   0.334   5.350   5.492  0.4270 -0.0580  0.2789
 1011MOL0     C36377   0.457   5.394   5.527 -0.4590  0.4758  0.8888
 1011MOL0     C36378   0.482   5.502   5.603  0.6263  0.0577 -1.2343
 1011MOL0     C36379   0.625   5.535   5.643  0.6211  0.1242  0.4012
 1011MOL0     O36380   0.639   5.632   5.736 -0.2188 -0.6141  0.5922
 1011MOL0     C36381   0.768   5.660   5.786 -0.2195  0.4507  0.6662
 1011MOL0     C36382   0.884   5.681   5.715  0.2922  0.8327 -0.6262
 1011MOL0     C36383   1.008   5.714   5.773  0.4947  0.2852  0.2235
 1011MOL0     C36384   1.019   5.725   5.909 -1.1931  0.1169 -0.2848
 1011MOL0     O36385   1.142   5.763   5.963  0.0174 -0.3356 -0.0323
 1011MOL0     C36386   1.137   5.834   6.086 -0.1431  0.1464  0.0101
 1011MOL0     C36387   1.281   5.884   6.125 -0.1968  0.5099  0.2553
 1011MOL0     C36388   1.363   5.770   6.176 -0.0538  0.3792 -0.0727
 1011MOL0     C36389   1.515   5.798   6.188 -0.1162  0.0226 -0.4031
 1011MOL0     C36390   1.586   5.826   6.059  0.8354  0.4509 -0.8371
 1011MOL0     C36391   1.699   5.929   6.061 -0.4599 -0.8135 -0.9916
 1011MOL0     C36392   1.640   6.071   6.082  0.0289 -0.4154 -0.0117
 1011MOL0     C36393   1.751   6.176   6.067 -0.1145 -0.5280 -1.0902
 1011MOL0    Cl36394   1.882   6.145   6.189 -0.0130  0.4140 -0.0124
 1011MOL0     C36395   0.900   5.716   5.988 -0.4760  0.0171 -0.4348
 1011MOL0     C36396   0.781   5.682   5.927  0.0720 -0.3561 -0.6804
 1011MOL0     O36397   0.709   5.464   5.600 -0.5767  0.0197  0.7856
 1011MOL0     C36398   0.377   5.577   5.653  0.8375 -0.5501  0.8602
 1011MOL0     C36399   0.247   5.526   5.635  0.1196 -0.4291 -0.1332
 1011MOL0     N36400  -0.486   5.700   5.722 -0.0709 -0.1818 -0.6939
 1011MOL0     N36401  -0.611   5.719   5.739 -0.5615  1.2205  0.1029
 1011MOL0     C36402  -0.264   6.221   5.466 -0.1570  0.9641 -0.5464
 1011MOL0     C36403  -0.160   6.246   5.548 -0.0359  0.3644  0.0693
 1011MOL0     C36404   0.123   6.358   5.862  0.0911 -0.1868 -0.3582
 1011MOL0     C36405   0.252   6.396   5.828 -0.8465 -0.2533 -0.6995
 1011MOL0     C36406   0.355   6.396   5.922  0.0640 -0.3305 -0.1705
 1011MOL0     C36407   0.325   6.376   6.058 -0.2339  0.5350  0.7385
 1011MOL0     O36408   0.415   6.383   6.162 -0.0178 -0.0226  1.3168
 1011MOL0     C36409   0.546   6.423   6.137  0.2175  0.2598  0.5975
 1011MOL0     C36410   0.628   6.453   6.259  0.1590  0.0012 -0.2350
 1011MOL0     C36411   0.672   6.327   6.332 -0.2656 -0.7606 -0.3610
 1011MOL0     C36412   0.765   6.363   6.457  0.5540  0.6638 -0.1243
 1011MOL0     C36413   0.891   6.426   6.427  0.1981  0.2759  0.4128
 1011MOL0     C36414   1.004   6.461   6.403  1.1968 -0.4568  1.3305
 1011MOL0     C36415   0.195   6.355   6.103 -0.3547 -0.1399  0.5241
 1011MOL0     C36416   0.096   6.352   6.005  0.5840 -0.0291  0.4881
 1011MOL0     C36417  -0.050   6.311   6.069 -0.1450 -0.1801 -0.8552
 1011MOL0     H36418  -0.327   6.197   5.839 -2.7975  1.3213 -0.4820
 1011MOL0     H36419  -0.505   6.141   5.669 -0.5514  1.9153  0.2675
 1011MOL0     H36420  -0.644   6.220   5.477 -0.2008 -0.6863  0.6320
 1011MOL0     H36421  -0.580   6.286   5.324  3.3627 -0.1063  1.0837
 1011MOL0     H36422  -0.647   6.072   5.202  1.0434 -0.3840  0.5417
 1011MOL0     H36423  -0.784   6.126   5.290  0.1603 -1.4699  1.2741
 1011MOL0     H36424  -0.747   5.970   5.472  0.6137 -2.3473  1.0905
 1011MOL0     H36425  -0.598   5.924   5.388  0.6331  2.3587  0.7561
 1011MOL0     H36426  -0.895   5.910   5.277 -0.8535 -3.1464  1.9560
 1011MOL0     H36427  -0.755   5.857   5.189  1.6820 -0.8805  0.7716
 1011MOL0     H36428  -0.828   5.654   5.280  2.9274 -0.3037 -1.0857
 1011MOL0     H36429  -0.697   5.705   5.395  0.3987  0.7940  0.4682
 1011MOL0     H36430  -0.864   5.800   5.552 -2.7816  2.2077 -1.2677
 1011MOL0     H36431  -0.990   5.736   5.444 -0.8473 -0.5075  0.2690
 1011MOL0     H36432  -0.870   5.492   5.494 -0.2910 -0.1443 -0.5327
 1011MOL0     H36433  -0.995   5.578   5.598  1.2771  2.0548  2.0384
 1011MOL0     H36434  -0.845   5.635   5.770 -1.2512 -1.2499  0.1134
 1011MOL0     H36435  -0.820   5.465   5.732 -0.1872 -1.9018 -2.6024
 1011MOL0     H36436  -0.603   5.409   5.623 -0.4091  1.0651 -2.7144
 1011MOL0     H36437  -0.292   5.427   5.643  0.3760 -0.2093  0.9136
 1011MOL0     H36438  -0.331   5.519   5.491  1.9758  2.6308  0.0204
 1011MOL0     H36439  -0.225   5.708   5.553  0.7907  0.3024  0.9906
 1011MOL0     H36440  -0.172   5.638   5.706  0.4664  3.4580 -1.1837
 1011MOL0     H36441   0.001   5.625   5.516  0.9073 -1.2549 -1.4867
 1011MOL0     H36442  -0.110   5.531   5.421 -0.9635  3.3784 -0.7021
 1011MOL0     H36443  -0.100   5.354   5.611 -1.0148  2.4108  2.7056
 1011MOL0     H36444   0.003   5.465   5.695  0.2696 -0.8223  0.6200
 1011MOL0     H36445   0.307   5.270   5.423 -0.7810  0.3005  0.3239
 1011MOL0     H36446   0.543   5.341   5.487  1.4527  5.6040 -2.8608
 1011MOL0     H36447   0.878   5.677   5.607  0.2629 -0.9636 -0.5831
 1011MOL0     H36448   1.097   5.730   5.713  0.7707  3.0018  1.2103
 1011MOL0     H36449   1.083   5.928   6.074  2.1777  1.4167 -1.3802
 1011MOL0     H36450   1.093   5.774   6.166  1.2764 -1.8678 -0.6369
 1011MOL0     H36451   1.332   5.928   6.039  0.5738 -2.6697 -1.0376
 1011MOL0     H36452   1.268   5.968   6.195  2.6191  0.3869  1.0410
 1011MOL0     H36453   1.317   5.726   6.265 -1.5247  1.3757 -0.2926
 1011MOL0     H36454   1.366   5.695   6.096 -0.9777  1.0432 -0.7604
 1011MOL0     H36455   1.562   5.714   6.240 -0.7659 -0.9205 -1.2874
 1011MOL0     H36456   1.525   5.884   6.255 -0.6102 -0.8766  0.8350
 1011MOL0     H36457   1.521   5.857   5.977  1.3002 -0.5041 -1.5937
 1011MOL0     H36458   1.627   5.729   6.029 -0.5343 -0.7003  0.8234
 1011MOL0     H36459   1.769   5.907   6.142 -1.3678 -1.2339 -0.3111
 1011MOL0     H36460   1.753   5.922   5.966 -3.0451 -0.1696 -2.5825
 1011MOL0     H36461   1.604   6.076   6.185 -1.3361 -1.5097 -0.4036
 1011MOL0     H36462   1.556   6.094   6.015  0.3875 -0.3177 -0.4352
 1011MOL0     H36463   1.797   6.161   5.970  0.8023 -1.3315 -0.5446
 1011MOL0     H36464   1.702   6.271   6.092 -1.1893 -2.2287  4.9100
 1011MOL0     H36465   0.898   5.720   6.097 -0.9661  3.0188 -0.4642
 1011MOL0     H36466   0.693   5.660   5.987  1.4181 -0.5061  1.2977
 1011MOL0     H36467   0.386   5.670   5.708  0.6110  0.3316 -0.5395
 1011MOL0     H36468   0.177   5.587   5.690  0.7420  0.9157 -0.7715
 1011MOL0     H36469  -0.233   6.212   5.362 -1.3971 -1.7375 -0.7704
 1011MOL0     H36470  -0.067   6.283   5.506  0.1336  1.6278  1.4615
 1011MOL0     H36471   0.277   6.426   5.727  1.5558 -0.0235 -0.1157
 1011MOL0     H36472   0.456   6.408   5.884 -1.0211  2.5759 -2.5327
 1011MOL0     H36473   0.531   6.517   6.083 -1.3225 -0.0022  0.5361
 1011MOL0     H36474   0.598   6.349   6.075  2.2306  0.1575  2.2847
 1011MOL0     H36475   0.565   6.515   6.323 -2.6918 -0.6820 -2.2030
 1011MOL0     H36476   0.717   6.513   6.237  0.1556  2.2042  4.3945
 1011MOL0     H36477   0.731   6.261   6.267 -1.1802 -0.4770 -1.5082
 1011MOL0     H36478   0.592   6.268   6.377 -0.7812  0.1701 -0.0157
 1011MOL0     H36479   0.707   6.415   6.533 -0.6184  0.7106 -1.0266
 1011MOL0     H36480   0.788   6.266   6.502  1.4962  0.3269 -1.2814
 1011MOL0     H36481   1.097   6.513   6.393  0.7459 -0.0554 -2.1142
 1011MOL0     H36482   0.167   6.331   6.205 -2.0402 -0.4307  0.0242
 1011MOL0     H36483  -0.047   6.317   6.178 -0.5608  1.1496 -0.8968
 1011MOL0     H36484  -0.124   6.378   6.024 -0.0153  0.6580  0.1311
 1011MOL0     H36485  -0.070   6.208   6.040 -0.6026 -0.2146 -0.4336
 1012MOL0     O36486   8.590  10.290   0.167  0.6383 -0.0441 -0.2977
 1012MOL0     C36487   8.587  10.413   0.172  0.1064 -0.5652 -0.0527
 1012MOL0     O36488   8.692  10.501   0.145  0.0224 -0.0809 -0.3250
 1012MOL0     C36489   8.826  10.472   0.159  0.0877  0.3493  0.0919
 1012MOL0     C36490   8.909  10.561   0.095  0.4040 -0.1073  0.7489
 1012MOL0     C36491   9.044  10.545   0.085  0.5530 -0.1925  0.2601
 1012MOL0     C36492   9.096  10.426   0.141 -0.4979  1.2920  0.1486
 1012MOL0     O36493   9.236  10.415   0.127  0.0883 -0.1661 -0.1952
 1012MOL0     C36494   9.322  10.329   0.211 -0.3570  0.5428  0.8241
 1012MOL0     C36495   9.475  10.362   0.191 -0.2361 -0.4212 -0.6098
 1012MOL0     C36496   9.521  10.498   0.254 -0.1795  0.5448 -0.7485
 1012MOL0     C36497   9.664  10.538   0.223  0.2302 -0.2156  0.4402
 1012MOL0     C36498   9.699  10.688   0.256 -0.1081  0.0372 -0.8864
 1012MOL0     C36499   9.638  10.794   0.164  0.1833 -0.3266  0.6661
 1012MOL0     C36500   9.706  10.930   0.165  0.0675  0.3884  0.0194
 1012MOL0     C36501   9.681  11.000   0.301 -0.7728  0.2290 -1.0032
 1012MOL0     N36502   9.727  11.141   0.301 -0.3250 -0.3814 -0.5514
 1012MOL0     C36503   9.836  11.187   0.377  0.2190 -0.4866 -0.7051
 1012MOL0     C36504   9.826  11.326   0.357 -0.3016 -0.1628 -0.2819
 1012MOL0     C36505   9.903  11.431   0.431 -0.5336  0.6144  1.0680
 1012MOL0     C36506  10.039  11.452   0.364  0.0644  0.4288 -0.2508
 1012MOL0     C36507  10.030  11.495   0.221  0.5889 -0.3440 -0.0775
 1012MOL0     C36508  10.166  11.509   0.146 -0.1515 -0.0727  0.0999
 1012MOL0     O36509  10.240  11.389   0.172 -0.6344  0.3501  0.3493
 1012MOL0     C36510  10.361  11.363   0.116 -0.2328 -0.1228 -0.6445
 1012MOL0     C36511  10.401  11.237   0.144  0.1479  1.0220  0.3732
 1012MOL0     C36512  10.523  11.180   0.104 -0.2955  0.3495  0.1328
 1012MOL0     C36513  10.612  11.262   0.030  0.0017  0.4181 -0.3428
 1012MOL0     C36514  10.750  11.220  -0.007  0.8826  0.3275  0.4387
 1012MOL0     O36515  10.827  11.316  -0.073  0.5583 -0.1715  0.1655
 1012MOL0     C36516  10.959  11.289  -0.122 -0.2098  0.4759 -0.0929
 1012MOL0     C36517  11.009  11.167  -0.159 -0.2393  0.6506 -0.1552
 1012MOL0     C36518  11.133  11.147  -0.205  0.2586 -0.1872 -0.3424
 1012MOL0     C36519  11.225  11.261  -0.224 -0.2498  0.0034 -0.2765
 1012MOL0     O36520  11.346  11.242  -0.285  0.3809 -0.8262 -0.3082
 1012MOL0     C36521  11.426  11.139  -0.239  0.1394 -0.4941  0.7354
 1012MOL0     C36522  11.566  11.177  -0.272 -1.0409  0.3402  0.6109
 1012MOL0     C36523  11.611  11.313  -0.219  0.3106 -0.2638 -0.4399
 1012MOL0     C36524  11.650  11.301  -0.063  0.3041  0.4471  0.8791
 1012MOL0     C36525  11.730  11.430  -0.022  0.0402  0.1389 -0.4709
 1012MOL0     C36526  11.799  11.396   0.112  0.3343  0.2052  0.3242
 1012MOL0     C36527  11.874  11.527   0.160 -0.0630 -0.2713  0.1983
 1012MOL0     C36528  11.968  11.587   0.062  0.6799 -0.3546  0.3817
 1012MOL0    Cl36529  12.091  11.484  -0.005 -0.0289 -0.1205  0.3476
 1012MOL0     C36530  11.177  11.389  -0.194  0.0904 -0.8892 -0.3622
 1012MOL0     C36531  11.051  11.395  -0.139  0.1039 -0.3620 -1.0197
 1012MOL0     O36532  10.785  11.104   0.024  0.4045  0.8777 -0.3554
 1012MOL0     C36533  10.569  11.401   0.008 -0.5166  0.8668  0.2765
 1012MOL0     C36534  10.448  11.444   0.045 -0.7604 -0.3121  0.3774
 1012MOL0     N36535   9.729  11.356   0.260 -0.2562 -0.2479  0.0646
 1012MOL0     N36536   9.672  11.250   0.233 -0.2027  0.6618  0.2759
 1012MOL0     C36537   9.019  10.330   0.195  0.3888  1.5971  0.5317
 1012MOL0     C36538   8.881  10.347   0.202 -0.0364 -0.6333 -0.0661
 1012MOL0     C36539   8.453  10.471   0.214  0.1399  0.5781  0.2405
 1012MOL0     C36540   8.327  10.406   0.191  0.0215  0.4069 -0.3091
 1012MOL0     C36541   8.207  10.458   0.227  0.3773 -0.1278 -0.5384
 1012MOL0     C36542   8.201  10.574   0.315  0.1203  0.5017 -0.1186
 1012MOL0     O36543   8.092  10.652   0.342 -0.1748  0.6346  0.4994
 1012MOL0     C36544   7.959  10.621   0.298  0.2684 -0.1841  0.1944
 1012MOL0     C36545   7.880  10.534   0.395  0.1646  0.0219 -0.5792
 1012MOL0     C36546   7.743  10.513   0.342  0.7805  0.2584  0.9568
 1012MOL0     C36547   7.636  10.615   0.389  0.1864 -0.0200 -0.4032
 1012MOL0     C36548   7.503  10.573   0.336  0.7648 -0.4154  0.0402
 1012MOL0     C36549   7.393  10.540   0.288 -0.4864 -0.1100 -0.8124
 1012MOL0     C36550   8.330  10.624   0.350 -0.4114 -0.5773  0.0730
 1012MOL0     C36551   8.452  10.581   0.301  0.4474 -0.3714  0.2045
 1012MOL0     C36552   8.572  10.654   0.355  0.5401  0.4483  0.0783
 1012MOL0     H36553   8.853  10.648   0.061 -0.7019 -0.1338  2.3814
 1012MOL0     H36554   9.100  10.613   0.021  0.0132 -0.8050 -0.9003
 1012MOL0     H36555   9.302  10.327   0.318 -0.8953  1.1767  0.7387
 1012MOL0     H36556   9.317  10.224   0.178 -0.2970  1.0574 -0.9200
 1012MOL0     H36557   9.506  10.374   0.087  2.5361  1.5882  0.3281
 1012MOL0     H36558   9.531  10.273   0.221 -1.7253 -1.0227  0.5409
 1012MOL0     H36559   9.510  10.485   0.363  4.0169  2.4389  0.1049
 1012MOL0     H36560   9.452  10.576   0.221 -2.6032  0.2224  2.9168
 1012MOL0     H36561   9.728  10.470   0.280 -0.8205  0.0303  1.9863
 1012MOL0     H36562   9.684  10.524   0.117  0.4547  1.6460  0.2129
 1012MOL0     H36563   9.676  10.709   0.361  2.1440 -0.3137 -0.2713
 1012MOL0     H36564   9.808  10.686   0.255 -0.0676 -1.3150  1.2932
 1012MOL0     H36565   9.630  10.749   0.065  0.9916 -1.3515  1.0457
 1012MOL0     H36566   9.534  10.808   0.195  0.2483 -1.4031  1.4041
 1012MOL0     H36567   9.673  11.001   0.089 -1.0947  1.3798  1.3889
 1012MOL0     H36568   9.811  10.905   0.148 -0.0149  0.3838 -0.4839
 1012MOL0     H36569   9.575  10.993   0.327 -0.9967 -0.5814 -2.0640
 1012MOL0     H36570   9.739  10.953   0.380  0.7118 -0.1131 -2.2494
 1012MOL0     H36571   9.908  11.129   0.434  2.3784  0.9903 -1.7857
 1012MOL0     H36572   9.858  11.531   0.426 -0.4044  0.7562  2.4573
 1012MOL0     H36573   9.907  11.406   0.537 -0.5246  2.1169  1.4486
 1012MOL0     H36574  10.085  11.530   0.425 -0.9857  1.8692 -1.1986
 1012MOL0     H36575  10.086  11.355   0.378  1.0535  1.0911  1.2436
 1012MOL0     H36576   9.978  11.591   0.228 -0.2385 -0.7130 -0.9744
 1012MOL0     H36577   9.968  11.426   0.163  0.5523  0.5451 -1.1393
 1012MOL0     H36578  10.215  11.606   0.163 -1.2450  0.8489 -1.7606
 1012MOL0     H36579  10.149  11.507   0.038  0.1756 -1.5300  0.0598
 1012MOL0     H36580  10.340  11.172   0.207  0.5601  0.6136  0.3579
 1012MOL0     H36581  10.548  11.077   0.127 -2.9022 -0.5109 -0.5636
 1012MOL0     H36582  10.949  11.077  -0.152 -1.2142  1.3742  1.4632
 1012MOL0     H36583  11.162  11.048  -0.238 -1.4345 -1.7909  2.6357
 1012MOL0     H36584  11.411  11.129  -0.131 -1.9456  1.6853  0.7367
 1012MOL0     H36585  11.405  11.050  -0.298 -1.0610  0.0578  0.2888
 1012MOL0     H36586  11.634  11.102  -0.230 -0.6203 -0.8273 -1.9639
 1012MOL0     H36587  11.582  11.173  -0.380 -1.9310 -3.3538  0.4630
 1012MOL0     H36588  11.701  11.344  -0.272  0.3093  2.6556  1.0498
 1012MOL0     H36589  11.543  11.397  -0.236 -0.2316 -0.6908 -0.4019
 1012MOL0     H36590  11.713  11.213  -0.046  0.7595  0.9609  1.9574
 1012MOL0     H36591  11.559  11.296  -0.004 -0.3546  2.4945  0.1363
 1012MOL0     H36592  11.665  11.519  -0.020  1.1664  0.9827 -0.5332
 1012MOL0     H36593  11.805  11.446  -0.100  0.2645 -1.3497 -0.5795
 1012MOL0     H36594  11.721  11.368   0.184 -0.2886  0.9723 -0.0351
 1012MOL0     H36595  11.877  11.321   0.097  3.3813  2.4102  3.6026
 1012MOL0     H36596  11.926  11.500   0.252  0.3133 -0.4700 -0.0692
 1012MOL0     H36597  11.799  11.597   0.199 -1.7626 -2.7766  1.6829
 1012MOL0     H36598  11.917  11.629  -0.026 -1.9158  1.8501  2.7457
 1012MOL0     H36599  12.009  11.673   0.115 -2.2844  1.6732 -0.3691
 1012MOL0     H36600  11.233  11.479  -0.219 -1.9223  0.6155  0.2720
 1012MOL0     H36601  11.009  11.495  -0.136  4.4935  1.7458 -2.3181
 1012MOL0     H36602  10.630  11.473  -0.045  2.3497  0.2894  2.5419
 1012MOL0     H36603  10.412  11.545   0.025 -1.4699 -0.8231 -0.9903
 1012MOL0     H36604   9.063  10.236   0.226  0.8992  1.8149  0.4695
 1012MOL0     H36605   8.829  10.261   0.243  1.4490 -0.5109  2.2493
 1012MOL0     H36606   8.319  10.307   0.148  1.6224  0.1818 -0.1679
 1012MOL0     H36607   8.116  10.404   0.201  1.4472 -0.8883 -2.9521
 1012MOL0     H36608   7.962  10.584   0.195  0.5733  0.4932 -0.0531
 1012MOL0     H36609   7.909  10.716   0.279 -0.3899 -0.8228 -1.4524
 1012MOL0     H36610   7.876  10.585   0.491 -1.2400  1.6334 -1.4360
 1012MOL0     H36611   7.928  10.435   0.396 -2.1756 -1.2573 -2.4497
 1012MOL0     H36612   7.707  10.413   0.370  0.5043  0.2385  0.5524
 1012MOL0     H36613   7.747  10.519   0.233  0.1336 -1.4722  0.8130
 1012MOL0     H36614   7.633  10.627   0.497  3.5494 -0.9540 -0.0873
 1012MOL0     H36615   7.662  10.714   0.349 -1.3885  0.3289 -0.6304
 1012MOL0     H36616   7.290  10.515   0.272 -0.8931 -0.5934  1.9672
 1012MOL0     H36617   8.329  10.708   0.418 -0.5674 -0.4649 -0.0670
 1012MOL0     H36618   8.614  10.723   0.281 -0.4317 -0.7920 -1.6734
 1012MOL0     H36619   8.555  10.709   0.448 -2.5313 -0.2084 -0.0110
 1012MOL0     H36620   8.644  10.581   0.395  0.2046  1.0008  1.7675
 1013MOL0     O36621   3.870   5.934   3.481 -0.2296 -0.2417  0.3517
 1013MOL0     C36622   3.823   5.918   3.594 -0.3069  0.8535 -0.6296
 1013MOL0     O36623   3.901   5.881   3.703 -0.2564  0.1067 -0.0084
 1013MOL0     C36624   4.031   5.836   3.674 -0.3027 -1.0028 -0.0131
 1013MOL0     C36625   4.079   5.777   3.555  0.2830  0.6842  0.2697
 1013MOL0     C36626   4.214   5.743   3.543 -0.3495  0.3181  0.1467
 1013MOL0     C36627   4.310   5.778   3.637 -0.0147  1.1920 -0.2753
 1013MOL0     O36628   4.437   5.739   3.604 -0.0420 -0.5466  0.3157
 1013MOL0     C36629   4.540   5.787   3.688  0.1678 -0.4333  0.0690
 1013MOL0     C36630   4.554   5.692   3.821  0.0281 -0.6705  0.8123
 1013MOL0     C36631   4.682   5.736   3.888  0.2769 -0.6404 -0.0894
 1013MOL0     C36632   4.727   5.642   4.001 -0.0460 -0.0021 -0.6432
 1013MOL0     C36633   4.874   5.678   4.043 -0.2309 -0.5141  0.1324
 1013MOL0     C36634   4.887   5.819   4.101 -0.5360  0.8579 -0.7783
 1013MOL0     C36635   5.015   5.811   4.183 -0.9811  0.5189 -0.1906
 1013MOL0     C36636   5.038   5.946   4.252  0.0365  0.2303  0.0525
 1013MOL0     N36637   5.154   5.949   4.343  0.1596  1.6623 -0.3726
 1013MOL0     C36638   5.187   6.048   4.423  0.1470 -0.0510 -0.2982
 1013MOL0     C36639   5.323   6.020   4.448  1.1097 -0.5977  0.3805
 1013MOL0     C36640   5.416   6.123   4.496  0.5903  0.0187  0.4147
 1013MOL0     C36641   5.522   6.060   4.584  0.0325  0.1567 -0.1047
 1013MOL0     C36642   5.651   6.142   4.578 -0.3899  0.3552 -0.1104
 1013MOL0     C36643   5.778   6.069   4.620  0.5474  0.7831  0.4552
 1013MOL0     O36644   5.885   6.167   4.618 -0.4548  0.2264 -0.0406
 1013MOL0     C36645   6.020   6.129   4.646  0.7359  0.9701 -0.1336
 1013MOL0     C36646   6.105   6.227   4.708 -0.4533  0.1181 -0.0817
 1013MOL0     C36647   6.235   6.189   4.713 -1.4823 -0.0894 -0.0410
 1013MOL0     C36648   6.291   6.063   4.664 -0.3526 -0.2419 -0.1608
 1013MOL0     C36649   6.431   6.027   4.662 -0.8182 -0.8646 -0.9415
 1013MOL0     O36650   6.517   6.108   4.735  0.3985 -0.6064 -0.2384
 1013MOL0     C36651   6.642   6.061   4.729 -0.3586  0.3581 -0.2679
 1013MOL0     C36652   6.747   6.139   4.671  0.2929 -0.5503  0.1106
 1013MOL0     C36653   6.882   6.095   4.670  0.5103 -0.4235  0.0237
 1013MOL0     C36654   6.917   5.979   4.748  0.8598 -0.2828  0.2587
 1013MOL0     O36655   7.045   5.935   4.761  0.4787  0.3371 -0.6970
 1013MOL0     C36656   7.151   6.023   4.722 -0.2506 -0.2229  0.0280
 1013MOL0     C36657   7.283   5.950   4.731 -0.0530  0.0468 -0.6482
 1013MOL0     C36658   7.335   5.958   4.879  0.1917 -0.3243  0.5842
 1013MOL0     C36659   7.486   5.971   4.887  0.3317  0.6314 -0.3909
 1013MOL0     C36660   7.555   5.965   5.016 -0.5448  0.8262  0.3235
 1013MOL0     C36661   7.713   5.973   4.993  0.0357  0.0785 -0.8828
 1013MOL0     C36662   7.798   5.980   5.113  0.0592  0.2509 -0.8276
 1013MOL0     C36663   7.827   5.842   5.162  0.3324  0.8393  0.4468
 1013MOL0    Cl36664   7.966   5.852   5.273 -0.3487  0.2293  0.2726
 1013MOL0     C36665   6.816   5.911   4.811  0.2635  0.3135 -0.6944
 1013MOL0     C36666   6.683   5.946   4.797 -0.1456  0.5771 -0.0575
 1013MOL0     O36667   6.465   5.920   4.609  0.4611  0.5477 -0.0381
 1013MOL0     C36668   6.209   5.976   4.604  0.0345  0.4349 -0.6621
 1013MOL0     C36669   6.073   6.000   4.598  0.2465 -0.2257 -0.9879
 1013MOL0     N36670   5.364   5.903   4.393 -0.4977  0.3428 -0.3528
 1013MOL0     N36671   5.261   5.860   4.337  0.0926 -0.3331  0.4671
 1013MOL0     C36672   4.268   5.853   3.747  0.4093 -0.3386  0.8634
 1013MOL0     C36673   4.127   5.870   3.767 -0.1943  0.2115  0.2974
 1013MOL0     C36674   3.678   5.932   3.620  0.0924 -0.6842 -1.0379
 1013MOL0     C36675   3.638   5.930   3.759  0.0280 -0.1138  0.6176
 1013MOL0     C36676   3.509   5.951   3.797 -0.2084  0.9816  0.0847
 1013MOL0     C36677   3.414   5.963   3.704 -0.1613  0.2985 -0.1936
 1013MOL0     O36678   3.292   5.978   3.756 -0.4201 -0.0631  0.1080
 1013MOL0     C36679   3.167   5.975   3.675 -1.0129 -0.8741 -1.3296
 1013MOL0     C36680   3.071   6.053   3.764 -0.1126 -0.1341 -0.5433
 1013MOL0     C36681   2.928   6.028   3.730  0.4937 -0.4218  0.5511
 1013MOL0     C36682   2.826   6.099   3.833 -0.1351  0.2957 -0.8600
 1013MOL0     C36683   2.687   6.060   3.799 -0.2620  0.0242  0.3083
 1013MOL0     C36684   2.573   6.040   3.775  0.2076  0.9402  0.3311
 1013MOL0     C36685   3.450   5.979   3.569 -0.2096  0.1064 -0.1427
 1013MOL0     C36686   3.580   5.956   3.522 -0.0535 -0.4462 -0.6312
 1013MOL0     C36687   3.612   5.950   3.375 -0.5178 -0.2998 -0.4502
 1013MOL0     H36688   4.005   5.746   3.482 -1.4842  0.6801  1.9896
 1013MOL0     H36689   4.243   5.690   3.453 -0.3108 -0.0638  0.3816
 1013MOL0     H36690   4.632   5.784   3.629  0.3897  1.5947  0.2329
 1013MOL0     H36691   4.534   5.895   3.705  2.7401  0.1350 -2.0318
 1013MOL0     H36692   4.558   5.589   3.784  1.3613 -0.4677  0.3423
 1013MOL0     H36693   4.473   5.688   3.894 -0.1498 -4.7621  0.6278
 1013MOL0     H36694   4.678   5.835   3.935  2.9663 -1.1197  1.3482
 1013MOL0     H36695   4.770   5.733   3.823  1.6983 -3.0173  1.7597
 1013MOL0     H36696   4.653   5.666   4.078  1.2806  1.4930  0.2226
 1013MOL0     H36697   4.726   5.538   3.968 -1.3625  0.0505 -0.8392
 1013MOL0     H36698   4.909   5.599   4.110  0.0434 -0.4383  0.0806
 1013MOL0     H36699   4.948   5.688   3.963 -1.7833  1.0955 -1.1784
 1013MOL0     H36700   4.898   5.903   4.031 -1.5247  2.6430  1.1052
 1013MOL0     H36701   4.801   5.838   4.166  1.5357  2.6758  1.6108
 1013MOL0     H36702   5.101   5.793   4.117 -0.0432  0.1739  1.0819
 1013MOL0     H36703   5.025   5.741   4.266 -2.8828 -0.7401 -0.9736
 1013MOL0     H36704   5.037   6.018   4.170 -0.7665 -2.5230 -2.5559
 1013MOL0     H36705   4.944   5.953   4.308  0.0864  0.5072  0.1044
 1013MOL0     H36706   5.122   6.133   4.437  0.9081  0.5798 -0.5259
 1013MOL0     H36707   5.459   6.174   4.410  1.8934 -1.4306  0.1701
 1013MOL0     H36708   5.362   6.200   4.552 -0.2318 -1.2186  1.4112
 1013MOL0     H36709   5.486   6.045   4.686  0.8693  3.0620  0.7124
 1013MOL0     H36710   5.549   5.962   4.545  0.9005  0.0498  0.7583
 1013MOL0     H36711   5.635   6.226   4.646  1.0310  3.0150 -2.7858
 1013MOL0     H36712   5.665   6.190   4.480  0.2891  2.1333  0.8143
 1013MOL0     H36713   5.799   5.985   4.554 -0.6943  2.2044 -1.8934
 1013MOL0     H36714   5.768   6.029   4.721  1.2768 -2.2400 -0.5741
 1013MOL0     H36715   6.075   6.321   4.753  4.0621  1.2203  1.1527
 1013MOL0     H36716   6.308   6.254   4.761 -1.3436 -1.7401  2.0752
 1013MOL0     H36717   6.714   6.231   4.624 -1.3181 -0.2810  1.6892
 1013MOL0     H36718   6.950   6.153   4.609  0.7218  0.5928  1.1725
 1013MOL0     H36719   7.143   6.056   4.618  1.8632  0.9636  0.1691
 1013MOL0     H36720   7.159   6.116   4.780  5.0802  2.0782 -3.5433
 1013MOL0     H36721   7.282   5.847   4.692  1.9033 -1.0754  1.9565
 1013MOL0     H36722   7.361   5.987   4.663  0.5090 -3.0949 -1.8962
 1013MOL0     H36723   7.298   6.051   4.924 -0.6715 -1.6745  2.8016
 1013MOL0     H36724   7.292   5.886   4.948 -2.5163  1.6158  1.0763
 1013MOL0     H36725   7.515   6.062   4.834  0.2587  2.8107  2.9838
 1013MOL0     H36726   7.519   5.878   4.840 -4.6108 -1.4851 -0.2107
 1013MOL0     H36727   7.524   5.877   5.073 -0.8601  2.3987  2.7280
 1013MOL0     H36728   7.517   6.047   5.077 -0.1570  1.1324  0.1632
 1013MOL0     H36729   7.742   5.890   4.927  2.7231  2.1662 -2.5222
 1013MOL0     H36730   7.725   6.061   4.930 -2.0103 -0.2240 -1.7721
 1013MOL0     H36731   7.756   6.042   5.193  2.4780  2.2314 -0.9685
 1013MOL0     H36732   7.892   6.017   5.072  0.0980 -0.5495 -1.4879
 1013MOL0     H36733   7.737   5.801   5.210  0.9514 -0.9266  0.1776
 1013MOL0     H36734   7.846   5.780   5.074  0.2760  1.0451  0.2900
 1013MOL0     H36735   6.843   5.821   4.866 -1.5077 -0.5410 -1.1544
 1013MOL0     H36736   6.605   5.880   4.834 -2.6220  1.3867 -3.3834
 1013MOL0     H36737   6.253   5.888   4.558 -0.1900 -1.1981  2.0362
 1013MOL0     H36738   6.011   5.929   4.544 -0.7149  0.6269 -1.0264
 1013MOL0     H36739   4.319   5.897   3.832 -1.6165 -1.6368  2.8699
 1013MOL0     H36740   4.095   5.929   3.852  1.0056  1.0427  0.1912
 1013MOL0     H36741   3.712   5.913   3.837  0.9197 -0.2171 -0.2453
 1013MOL0     H36742   3.489   5.959   3.904 -1.7779  3.2736 -0.3063
 1013MOL0     H36743   3.140   5.875   3.640 -0.8926 -0.4338 -2.7608
 1013MOL0     H36744   3.176   6.037   3.585  0.6542  0.4461 -0.3181
 1013MOL0     H36745   3.108   6.156   3.770  0.7902 -0.5426  2.3597
 1013MOL0     H36746   3.081   6.020   3.867 -0.7276  1.2619 -0.0131
 1013MOL0     H36747   2.896   5.925   3.746 -0.3185  0.0731  2.4465
 1013MOL0     H36748   2.916   6.070   3.629  0.6681  0.5039  0.9004
 1013MOL0     H36749   2.842   6.074   3.939 -0.2716  1.3480 -0.5855
 1013MOL0     H36750   2.826   6.208   3.824 -4.6845  0.5279 -0.4454
 1013MOL0     H36751   2.469   6.024   3.756  0.5678  0.0728 -1.0925
 1013MOL0     H36752   3.371   5.997   3.496 -0.4080  1.2752  0.3350
 1013MOL0     H36753   3.516   5.958   3.322 -0.4578  0.5596 -0.4291
 1013MOL0     H36754   3.682   6.030   3.348 -2.2362  1.1245 -0.8520
 1013MOL0     H36755   3.648   5.850   3.346  0.4889 -0.3698  0.9502
 1014MOL0     O36756   9.362   8.903   6.909  0.2170 -0.1292 -0.2291
 1014MOL0     C36757   9.320   8.842   6.810  0.3184  1.0521 -0.6605
 1014MOL0     O36758   9.393   8.754   6.737 -0.3490 -0.1294  0.9605
 1014MOL0     C36759   9.530   8.786   6.733  0.1236 -0.2691 -0.6725
 1014MOL0     C36760   9.584   8.832   6.616  0.6775 -0.2882  0.3478
 1014MOL0     C36761   9.720   8.851   6.614  0.8460 -0.6202  0.8360
 1014MOL0     C36762   9.805   8.818   6.722  0.1403 -0.8282 -0.5276
 1014MOL0     O36763   9.940   8.850   6.709 -1.1072  0.1450  0.1913
 1014MOL0     C36764  10.038   8.750   6.748  0.7783 -0.2154  0.2943
 1014MOL0     C36765  10.158   8.747   6.653 -0.5628  0.3452  0.6561
 1014MOL0     C36766  10.149   8.741   6.503 -0.3078  0.2414 -0.2420
 1014MOL0     C36767  10.282   8.705   6.433  0.7799 -0.7330  0.3784
 1014MOL0     C36768  10.282   8.746   6.282  0.1581  0.0918  0.0597
 1014MOL0     C36769  10.414   8.692   6.211 -0.8313 -0.6920  0.4022
 1014MOL0     C36770  10.540   8.744   6.269 -0.2014  0.1535 -0.7837
 1014MOL0     C36771  10.642   8.636   6.261 -0.2038  0.2829  0.6280
 1014MOL0     N36772  10.669   8.589   6.121  0.3733 -0.1433 -0.4679
 1014MOL0     C36773  10.751   8.666   6.047  0.4049 -0.3053 -0.2819
 1014MOL0     C36774  10.812   8.582   5.962  0.3869 -0.0204 -0.0681
 1014MOL0     C36775  10.909   8.615   5.860 -0.0343 -0.2207  0.0610
 1014MOL0     C36776  11.054   8.620   5.907  0.3589  0.2660  0.1542
 1014MOL0     C36777  11.087   8.514   6.017  0.3872  0.8360  0.0427
 1014MOL0     C36778  11.235   8.523   6.064  1.0726 -0.3398  0.7409
 1014MOL0     O36779  11.330   8.480   5.958  0.1137  0.4341  0.1854
 1014MOL0     C36780  11.461   8.503   5.969 -0.0335 -0.0799 -0.3799
 1014MOL0     C36781  11.546   8.445   5.874 -1.0051 -0.6724  0.9325
 1014MOL0     C36782  11.683   8.480   5.863 -0.8333  0.1155 -0.2020
 1014MOL0     C36783  11.746   8.558   5.953  0.0948  0.2356  0.7745
 1014MOL0     C36784  11.888   8.578   5.939 -0.8206  0.3202  0.4344
 1014MOL0     O36785  11.939   8.686   5.998  0.0307 -0.4221  0.7488
 1014MOL0     C36786  12.049   8.755   5.948  0.5104  0.0586 -0.2682
 1014MOL0     C36787  12.073   8.764   5.810  0.2238  0.1058 -0.1765
 1014MOL0     C36788  12.189   8.824   5.748 -0.2726 -0.2354 -0.8168
 1014MOL0     C36789  12.282   8.875   5.845  0.3226  0.2340 -0.2526
 1014MOL0     O36790  12.392   8.944   5.802 -0.4155 -0.2794 -0.5568
 1014MOL0     C36791  12.477   9.014   5.891  0.0338  0.6242 -0.4053
 1014MOL0     C36792  12.599   9.054   5.811  0.5178 -0.0861 -0.0767
 1014MOL0     C36793  12.710   9.131   5.884  0.3183 -0.3843 -0.2416
 1014MOL0     C36794  12.703   9.281   5.847 -0.0564  0.1743 -0.4790
 1014MOL0     C36795  12.801   9.354   5.946  0.1949 -0.2294 -0.1933
 1014MOL0     C36796  12.949   9.348   5.901 -0.6175 -0.8304 -0.2900
 1014MOL0     C36797  13.040   9.412   6.002  0.4298  0.9277 -0.3744
 1014MOL0     C36798  13.192   9.380   5.969 -0.0642  0.5292 -0.3171
 1014MOL0    Cl36799  13.289   9.478   6.086 -0.5014  0.3515 -0.0280
 1014MOL0     C36800  12.246   8.873   5.987  0.2870 -0.2849  0.7044
 1014MOL0     C36801  12.133   8.813   6.032  1.0291  0.7105  0.0139
 1014MOL0     O36802  11.952   8.502   5.863 -0.6127 -0.4806  0.2183
 1014MOL0     C36803  11.662   8.615   6.056 -0.0062  0.7620  0.1246
 1014MOL0     C36804  11.520   8.589   6.060 -0.0565  0.0555 -0.3007
 1014MOL0     N36805  10.759   8.452   5.985 -0.2395  0.0890 -0.2039
 1014MOL0     N36806  10.669   8.462   6.080  0.3171  0.3186  0.7303
 1014MOL0     C36807   9.745   8.766   6.838  0.0699 -0.5919  0.1253
 1014MOL0     C36808   9.609   8.750   6.841  0.5977  0.7720 -0.6678
 1014MOL0     C36809   9.184   8.872   6.772  0.0464 -0.0526 -0.7085
 1014MOL0     C36810   9.123   8.992   6.807  0.1249 -0.4182  0.1799
 1014MOL0     C36811   8.988   9.012   6.772  0.6841 -1.0130  0.4236
 1014MOL0     C36812   8.914   8.922   6.705 -0.1331  0.5875 -0.7063
 1014MOL0     O36813   8.788   8.968   6.664  0.6444 -0.5616  0.3409
 1014MOL0     C36814   8.696   8.863   6.621  0.1153  0.4139 -0.8972
 1014MOL0     C36815   8.571   8.912   6.560 -0.2565 -0.1310  0.1550
 1014MOL0     C36816   8.475   8.989   6.647  0.1892 -0.0820  0.5750
 1014MOL0     C36817   8.331   8.995   6.590 -0.4381  0.4105  0.5167
 1014MOL0     C36818   8.244   9.055   6.694  0.4704 -0.4039  0.9499
 1014MOL0     C36819   8.188   9.113   6.794 -0.2684  0.2049  0.5705
 1014MOL0     C36820   8.974   8.801   6.673  0.0477  0.7235  0.4613
 1014MOL0     C36821   9.102   8.771   6.708 -1.0093  0.5574 -0.3405
 1014MOL0     C36822   9.145   8.633   6.676 -0.1504  0.2836 -0.0630
 1014MOL0     H36823   9.519   8.858   6.533 -0.3494 -2.1548  0.5308
 1014MOL0     H36824   9.771   8.885   6.525  0.8449 -3.0742 -0.1814
 1014MOL0     H36825  10.059   8.773   6.853 -0.5849  2.1523  0.1333
 1014MOL0     H36826   9.988   8.655   6.728  0.1275 -0.1884  1.7137
 1014MOL0     H36827  10.204   8.651   6.681 -0.4824  0.2891  0.3297
 1014MOL0     H36828  10.224   8.831   6.675  0.8435 -1.0155  1.8388
 1014MOL0     H36829  10.104   8.832   6.462 -2.9449 -1.4723 -1.4404
 1014MOL0     H36830  10.078   8.662   6.475  0.4650 -0.3499 -0.5542
 1014MOL0     H36831  10.360   8.756   6.491 -0.8959  2.3044  0.1744
 1014MOL0     H36832  10.303   8.598   6.445 -0.0983 -0.9604 -0.0001
 1014MOL0     H36833  10.186   8.714   6.239  0.1638  0.8613 -0.5368
 1014MOL0     H36834  10.270   8.854   6.278 -0.9365 -0.0279 -2.8645
 1014MOL0     H36835  10.423   8.583   6.213  1.0996 -0.5944 -0.7675
 1014MOL0     H36836  10.408   8.720   6.106  0.1525 -1.1454  0.2152
 1014MOL0     H36837  10.529   8.776   6.373 -3.0628  0.3405 -1.0487
 1014MOL0     H36838  10.571   8.828   6.206 -0.6528  1.5757  0.8114
 1014MOL0     H36839  10.740   8.673   6.291 -0.0589 -0.6648  1.3702
 1014MOL0     H36840  10.616   8.553   6.327  1.2834 -0.0263  0.8608
 1014MOL0     H36841  10.763   8.773   6.061 -2.3253  0.0527 -0.2242
 1014MOL0     H36842  10.904   8.537   5.783  0.0054 -0.5552  0.3964
 1014MOL0     H36843  10.887   8.709   5.808 -1.1233  0.1399  1.1179
 1014MOL0     H36844  11.123   8.606   5.824  0.3019  1.4937 -0.1162
 1014MOL0     H36845  11.073   8.720   5.948  0.2840 -0.1322  1.1816
 1014MOL0     H36846  11.068   8.415   5.975  1.1376  0.4819  0.5373
 1014MOL0     H36847  11.016   8.531   6.100 -2.0425 -1.8027 -1.3310
 1014MOL0     H36848  11.236   8.457   6.151  1.7468 -1.3925 -0.0429
 1014MOL0     H36849  11.256   8.625   6.098  1.9395 -0.5408  0.8367
 1014MOL0     H36850  11.506   8.376   5.800 -0.0150  0.2445 -0.5295
 1014MOL0     H36851  11.743   8.437   5.784  0.0755 -0.5386  0.8136
 1014MOL0     H36852  11.996   8.716   5.750  1.1323 -0.3320 -1.0188
 1014MOL0     H36853  12.206   8.838   5.642 -0.8989  1.5298 -0.7063
 1014MOL0     H36854  12.426   9.103   5.929 -0.2184 -0.5990  2.3477
 1014MOL0     H36855  12.506   8.956   5.979  0.0592  1.6060  0.2532
 1014MOL0     H36856  12.643   8.966   5.762  1.4831 -0.0031  0.5984
 1014MOL0     H36857  12.561   9.107   5.723 -2.3035  2.2725  2.3982
 1014MOL0     H36858  12.695   9.116   5.992  0.8946 -1.7720 -0.3324
 1014MOL0     H36859  12.809   9.087   5.867  1.2351  1.2874  0.5254
 1014MOL0     H36860  12.598   9.307   5.860 -0.7515 -1.2956 -2.6454
 1014MOL0     H36861  12.735   9.299   5.744  3.4337  0.1873  0.4662
 1014MOL0     H36862  12.803   9.311   6.046  2.3231  0.5486  0.1571
 1014MOL0     H36863  12.765   9.457   5.950 -1.8985 -0.7988 -2.1015
 1014MOL0     H36864  12.974   9.242   5.892  2.1982 -0.2388 -0.5647
 1014MOL0     H36865  12.955   9.395   5.802 -1.1214 -0.7760 -0.2972
 1014MOL0     H36866  13.025   9.376   6.104 -2.1910  0.0347 -0.9992
 1014MOL0     H36867  13.011   9.517   5.996 -0.0977  0.7786 -0.5384
 1014MOL0     H36868  13.201   9.273   5.986 -1.8295  0.1770 -1.3180
 1014MOL0     H36869  13.218   9.403   5.866  0.3018 -1.3091 -0.6681
 1014MOL0     H36870  12.305   8.911   6.069 -0.4924 -1.6235  1.9200
 1014MOL0     H36871  12.101   8.801   6.135  2.5615 -1.5859  0.3083
 1014MOL0     H36872  11.712   8.677   6.129 -0.2138  1.1612 -0.0730
 1014MOL0     H36873  11.467   8.642   6.138  2.7785  4.1322 -0.8394
 1014MOL0     H36874   9.803   8.749   6.928 -0.3618  3.2100  1.3160
 1014MOL0     H36875   9.561   8.697   6.923 -2.4630  1.0765 -2.1212
 1014MOL0     H36876   9.187   9.068   6.849 -0.6774  2.0077 -2.6656
 1014MOL0     H36877   8.941   9.106   6.798 -1.2044 -0.6917 -3.4987
 1014MOL0     H36878   8.670   8.804   6.709  0.2434  2.0212  0.2775
 1014MOL0     H36879   8.753   8.800   6.553  2.8019  2.0168 -0.2594
 1014MOL0     H36880   8.521   8.822   6.525  0.8108 -0.2318 -1.1598
 1014MOL0     H36881   8.596   8.979   6.477 -0.0651  0.7270  0.8861
 1014MOL0     H36882   8.500   9.095   6.635  0.8416 -0.1979  0.8610
 1014MOL0     H36883   8.478   8.964   6.754  2.5902  1.4521  0.9607
 1014MOL0     H36884   8.335   9.040   6.491  4.2536 -1.2073 -0.2643
 1014MOL0     H36885   8.296   8.891   6.581  3.0860 -0.7656 -1.3166
 1014MOL0     H36886   8.145   9.148   6.885 -0.8724 -2.2708  1.3102
 1014MOL0     H36887   8.911   8.729   6.621 -2.9249  2.4034  1.4424
 1014MOL0     H36888   9.212   8.636   6.589  0.5439  2.5032  0.4824
 1014MOL0     H36889   9.187   8.579   6.761 -1.3600 -2.3214 -1.0259
 1014MOL0     H36890   9.057   8.574   6.649 -1.3805  1.6249  0.8589
 1015MOL0     O36891   3.693   1.850   9.570 -0.3463 -0.0381  0.2935
 1015MOL0     C36892   3.636   1.919   9.485 -0.1659  0.6418 -0.6065
 1015MOL0     O36893   3.672   1.936   9.353  0.0985 -0.2332  0.2964
 1015MOL0     C36894   3.773   1.857   9.312 -0.6585  0.0163 -0.2161
 1015MOL0     C36895   3.747   1.756   9.220  0.3241 -0.3352  0.3077
 1015MOL0     C36896   3.848   1.669   9.185 -0.4931  0.5088  0.9847
 1015MOL0     C36897   3.981   1.700   9.216  0.0069  0.9274  0.1157
 1015MOL0     O36898   4.081   1.620   9.162  0.3172  0.5834 -0.3485
 1015MOL0     C36899   4.212   1.674   9.142  0.1162 -0.0136  0.5581
 1015MOL0     C36900   4.288   1.573   9.064  0.8484 -0.2105 -0.2576
 1015MOL0     C36901   4.343   1.467   9.165  0.1987 -0.0192 -0.7755
 1015MOL0     C36902   4.472   1.525   9.242  0.8639  0.3314  0.2576
 1015MOL0     C36903   4.578   1.412   9.274 -0.2749  0.3342  0.6190
 1015MOL0     C36904   4.607   1.310   9.160 -0.5578  0.1144 -0.7838
 1015MOL0     C36905   4.737   1.233   9.184 -0.5783 -0.1752 -1.0670
 1015MOL0     C36906   4.862   1.303   9.135  0.1294 -0.0369 -0.0827
 1015MOL0     N36907   4.983   1.235   9.178 -0.5113 -0.5446 -0.6157
 1015MOL0     C36908   5.111   1.271   9.139 -0.0880 -0.2279 -0.1106
 1015MOL0     C36909   5.202   1.187   9.195  0.1603  0.2574 -0.0390
 1015MOL0     C36910   5.346   1.174   9.160 -0.4287  0.5037  0.2390
 1015MOL0     C36911   5.446   1.227   9.271 -0.0429 -1.3000  0.5506
 1015MOL0     C36912   5.459   1.382   9.267 -0.1193 -0.6346 -0.2601
 1015MOL0     C36913   5.370   1.449   9.374 -0.1085 -0.1912 -0.2004
 1015MOL0     O36914   5.364   1.586   9.353 -0.2295  0.4195 -0.0415
 1015MOL0     C36915   5.269   1.658   9.425  0.0952  0.1618 -0.3773
 1015MOL0     C36916   5.203   1.616   9.544 -0.0662  0.1317 -0.0903
 1015MOL0     C36917   5.111   1.700   9.614  0.4230 -0.9606  0.6394
 1015MOL0     C36918   5.081   1.819   9.558  0.5676  0.4483  0.6544
 1015MOL0     C36919   4.981   1.904   9.622  1.1276  0.1580 -0.7302
 1015MOL0     O36920   4.909   1.846   9.728  0.5338 -0.0655  0.1485
 1015MOL0     C36921   4.824   1.932   9.795 -1.0898 -0.4366 -0.5399
 1015MOL0     C36922   4.859   2.055   9.853  0.5444  0.2782 -0.1183
 1015MOL0     C36923   4.759   2.145   9.896 -0.3486 -0.2586 -0.9237
 1015MOL0     C36924   4.628   2.119   9.893 -0.1621  1.0009 -0.5112
 1015MOL0     O36925   4.528   2.210   9.930 -0.4287  0.1292 -0.0849
 1015MOL0     C36926   4.565   2.302  10.033 -0.1434 -0.2335 -0.1059
 1015MOL0     C36927   4.441   2.349  10.103  0.7191  0.6839 -0.8919
 1015MOL0     C36928   4.380   2.237  10.188 -0.3196  0.7642  0.1331
 1015MOL0     C36929   4.318   2.110  10.121  0.2592 -0.0988  0.0906
 1015MOL0     C36930   4.219   2.035  10.206 -0.5720  0.4992 -0.5627
 1015MOL0     C36931   4.159   1.934  10.100  0.3709 -0.4505  0.4276
 1015MOL0     C36932   4.060   1.847  10.179 -0.8535 -0.7439 -0.8535
 1015MOL0     C36933   3.979   1.746  10.101  0.6905  0.1697 -0.1825
 1015MOL0    Cl36934   3.818   1.812  10.039 -0.1438  0.1418 -0.2422
 1015MOL0     C36935   4.593   1.986   9.847 -0.5851 -0.6480 -0.3588
 1015MOL0     C36936   4.692   1.901   9.790  0.7059 -0.5330  0.1417
 1015MOL0     O36937   4.983   2.020   9.585  1.0443  0.6645 -0.7265
 1015MOL0     C36938   5.140   1.862   9.436 -1.1509 -0.2317  0.6650
 1015MOL0     C36939   5.230   1.782   9.372 -0.1705 -0.0785  0.4065
 1015MOL0     N36940   5.130   1.117   9.286 -0.1266  0.0582 -0.1981
 1015MOL0     N36941   5.005   1.150   9.279  0.3274  0.6225  0.3340
 1015MOL0     C36942   4.011   1.814   9.294  0.5345  0.4475  0.4472
 1015MOL0     C36943   3.901   1.891   9.348  0.0542 -0.2776  0.1368
 1015MOL0     C36944   3.500   1.961   9.521 -0.0753  1.3649 -0.0370
 1015MOL0     C36945   3.386   1.887   9.474 -0.5287  0.8466  0.2708
 1015MOL0     C36946   3.257   1.910   9.516  0.3093  0.5129 -0.3160
 1015MOL0     C36947   3.232   2.017   9.606  0.0449 -0.6791  0.9830
 1015MOL0     O36948   3.110   2.050   9.659  0.4068  0.0083  0.8952
 1015MOL0     C36949   2.984   1.988   9.624  0.2051  0.2369 -0.4082
 1015MOL0     C36950   2.886   2.006   9.734 -0.2448  0.6779  0.1355
 1015MOL0     C36951   2.756   1.961   9.683 -0.4998  0.5835  0.5520
 1015MOL0     C36952   2.653   1.962   9.806 -0.3686  0.9039  0.0095
 1015MOL0     C36953   2.531   1.876   9.781 -0.2158 -0.1638  0.6521
 1015MOL0     C36954   2.428   1.821   9.771 -0.2502 -0.5704 -0.4230
 1015MOL0     C36955   3.336   2.091   9.641  0.6995 -1.0166  0.2482
 1015MOL0     C36956   3.466   2.064   9.605  0.7275  0.0543  0.1708
 1015MOL0     C36957   3.573   2.151   9.661 -0.0196 -0.2324  0.9954
 1015MOL0     H36958   3.647   1.727   9.188  0.2114  1.4714 -1.1453
 1015MOL0     H36959   3.827   1.594   9.109 -0.5406  0.5137  0.9925
 1015MOL0     H36960   4.209   1.764   9.079  1.1596  0.1872  0.7734
 1015MOL0     H36961   4.272   1.709   9.226 -1.0437  0.7860  1.0663
 1015MOL0     H36962   4.380   1.622   9.029  0.7547  1.2219  1.3595
 1015MOL0     H36963   4.216   1.536   8.990 -2.6714 -0.6408  3.0533
 1015MOL0     H36964   4.381   1.380   9.110  1.7474 -0.6322  1.1430
 1015MOL0     H36965   4.267   1.431   9.234  0.1174  0.2899 -0.7050
 1015MOL0     H36966   4.518   1.603   9.180 -3.1161  2.3458 -0.4890
 1015MOL0     H36967   4.440   1.563   9.339 -1.3620  2.2673 -1.1202
 1015MOL0     H36968   4.674   1.459   9.301  0.8166 -2.2964  1.6410
 1015MOL0     H36969   4.554   1.371   9.373  2.2599 -1.8415  0.4469
 1015MOL0     H36970   4.524   1.239   9.153 -0.3811 -0.6500  2.9265
 1015MOL0     H36971   4.620   1.373   9.072  0.5117  1.3885  0.2465
 1015MOL0     H36972   4.732   1.135   9.136 -2.6439 -0.4874 -0.3040
 1015MOL0     H36973   4.755   1.225   9.292  1.9507 -0.3685 -1.4384
 1015MOL0     H36974   4.855   1.304   9.025  1.1453  1.1858 -0.1657
 1015MOL0     H36975   4.861   1.408   9.164 -3.2341  0.4514 -1.5135
 1015MOL0     H36976   5.145   1.351   9.074  0.4970 -0.1173  0.3314
 1015MOL0     H36977   5.368   1.070   9.131 -0.5480  1.4946 -4.2044
 1015MOL0     H36978   5.363   1.217   9.061 -0.8872 -2.5169 -1.2888
 1015MOL0     H36979   5.407   1.193   9.367 -1.5924 -0.0595  0.3978
 1015MOL0     H36980   5.552   1.201   9.262  1.7573  4.5515  0.6605
 1015MOL0     H36981   5.427   1.417   9.168  0.5031  2.2209  0.4643
 1015MOL0     H36982   5.566   1.404   9.278 -0.5835  1.7594 -0.0567
 1015MOL0     H36983   5.414   1.437   9.474 -1.2187  1.7574  0.5715
 1015MOL0     H36984   5.269   1.409   9.358  0.0418  0.0299 -1.8275
 1015MOL0     H36985   5.217   1.515   9.580  2.3157  0.0981 -0.9282
 1015MOL0     H36986   5.069   1.663   9.707 -1.2462  2.0268  1.1944
 1015MOL0     H36987   4.961   2.090   9.863  0.3884  0.9730 -0.8767
 1015MOL0     H36988   4.785   2.246   9.925 -3.1084  0.0572  0.8182
 1015MOL0     H36989   4.617   2.249  10.113 -0.8121 -4.6592 -2.2780
 1015MOL0     H36990   4.624   2.387   9.998 -0.0652 -0.0353  0.4948
 1015MOL0     H36991   4.468   2.436  10.163  1.3418 -0.8721  1.1955
 1015MOL0     H36992   4.368   2.380  10.028 -1.1747 -1.2991  0.0068
 1015MOL0     H36993   4.454   2.211  10.265  0.6044  0.4844 -0.8331
 1015MOL0     H36994   4.295   2.289  10.234  0.9395  2.6368  0.4173
 1015MOL0     H36995   4.398   2.046  10.082  1.0455  2.5285 -3.1306
 1015MOL0     H36996   4.265   2.147  10.032 -2.2426 -0.9888  1.1236
 1015MOL0     H36997   4.146   2.099  10.255 -0.8202 -0.5869  0.5183
 1015MOL0     H36998   4.275   1.982  10.283  0.1216 -0.1934 -1.5195
 1015MOL0     H36999   4.106   1.976  10.014  0.1816  1.3711  1.3848
 1015MOL0     H37000   4.237   1.874  10.053 -0.1798 -1.3575  0.6504
 1015MOL0     H37001   4.007   1.908  10.253  1.4520 -1.4585  1.5550
 1015MOL0     H37002   4.137   1.788  10.231  0.5976  1.9329  0.2435
 1015MOL0     H37003   4.024   1.698  10.013 -1.3529  0.3368 -1.3737
 1015MOL0     H37004   3.960   1.659  10.165  2.6124 -0.5207 -0.4851
 1015MOL0     H37005   4.491   1.949   9.857 -1.1525  0.1674 -2.4481
 1015MOL0     H37006   4.670   1.802   9.753 -0.3114 -0.8351  1.4595
 1015MOL0     H37007   5.134   1.957   9.384 -3.4039 -1.2932 -1.1724
 1015MOL0     H37008   5.264   1.812   9.273 -1.4629  0.0102 -0.0280
 1015MOL0     H37009   4.109   1.843   9.331  1.4281  0.5060 -1.8237
 1015MOL0     H37010   3.909   1.979   9.411 -0.6612  1.1440 -1.6586
 1015MOL0     H37011   3.415   1.808   9.405 -0.3763  1.0983  0.0440
 1015MOL0     H37012   3.179   1.843   9.480  0.3518  1.5857 -2.5391
 1015MOL0     H37013   2.993   1.881   9.607  0.7977  0.0540  0.9497
 1015MOL0     H37014   2.949   2.042   9.536 -1.6409  1.5432  1.0466
 1015MOL0     H37015   2.878   2.110   9.767 -3.1301  0.4115  0.5493
 1015MOL0     H37016   2.924   1.958   9.825 -0.0517 -0.1164 -0.3521
 1015MOL0     H37017   2.763   1.857   9.652 -0.7029  0.0514  2.2003
 1015MOL0     H37018   2.720   2.023   9.600 -1.1529 -0.8787 -0.2825
 1015MOL0     H37019   2.694   1.927   9.901 -1.8243 -1.2332 -0.0931
 1015MOL0     H37020   2.622   2.066   9.823 -2.2618  0.6166 -1.3020
 1015MOL0     H37021   2.329   1.787   9.751 -0.0233 -1.1793 -0.5372
 1015MOL0     H37022   3.317   2.171   9.712 -0.9596 -2.2998  1.3271
 1015MOL0     H37023   3.672   2.136   9.618 -0.5621  2.4518 -1.5097
 1015MOL0     H37024   3.540   2.251   9.631  0.8527 -0.5772 -1.3346
 1015MOL0     H37025   3.568   2.139   9.769  1.1778 -2.6219  0.8327
 1016MOL0     O37026   3.347   3.620   5.878 -0.4407  0.1749  0.4873
 1016MOL0     C37027   3.303   3.694   5.791 -0.2639 -0.7008 -0.8381
 1016MOL0     O37028   3.383   3.767   5.704 -0.3694  1.1160 -0.1997
 1016MOL0     C37029   3.512   3.770   5.736  0.3993 -0.5749 -0.2022
 1016MOL0     C37030   3.608   3.754   5.641 -0.2395 -0.0794  1.3773
 1016MOL0     C37031   3.738   3.793   5.669 -0.8322  0.8894 -0.9260
 1016MOL0     C37032   3.775   3.838   5.792  0.4937  0.6418 -0.1539
 1016MOL0     O37033   3.903   3.882   5.809 -0.9465  0.4119  0.2897
 1016MOL0     C37034   3.907   4.016   5.861 -0.5860  0.6827  0.0617
 1016MOL0     C37035   4.039   4.046   5.931  0.3305  0.6574 -0.0098
 1016MOL0     C37036   4.153   4.034   5.829  0.6523 -0.6209  0.2090
 1016MOL0     C37037   4.268   4.088   5.901 -0.6886  0.2838 -0.2782
 1016MOL0     C37038   4.384   4.105   5.796 -0.4589  0.0722 -1.1627
 1016MOL0     C37039   4.497   4.199   5.852  0.2752  0.0290 -1.8420
 1016MOL0     C37040   4.572   4.271   5.753  0.1666  0.3005  0.9951
 1016MOL0     C37041   4.502   4.392   5.691  0.1832 -0.1283 -0.1520
 1016MOL0     N37042   4.599   4.502   5.655  0.1712  0.0196  0.2935
 1016MOL0     C37043   4.552   4.632   5.635  0.0572 -0.3489 -0.6225
 1016MOL0     C37044   4.665   4.704   5.603 -0.6865  0.0119 -0.1686
 1016MOL0     C37045   4.663   4.850   5.592 -0.2925  0.8951  0.6211
 1016MOL0     C37046   4.651   4.885   5.443  0.3043  0.4115 -0.1330
 1016MOL0     C37047   4.776   4.850   5.358  0.4006  0.1416 -0.1439
 1016MOL0     C37048   4.914   4.901   5.403  0.8113  0.3368 -0.7877
 1016MOL0     O37049   4.918   5.046   5.430  0.0546 -0.1294  0.5604
 1016MOL0     C37050   5.042   5.108   5.449  0.0556  0.1868 -0.2036
 1016MOL0     C37051   5.159   5.028   5.462  0.3145  0.1173 -0.6931
 1016MOL0     C37052   5.281   5.088   5.478 -0.5506  0.0766  0.5348
 1016MOL0     C37053   5.282   5.231   5.495  0.6773  0.0403  0.2167
 1016MOL0     C37054   5.409   5.300   5.519  0.2251 -0.6702 -0.3167
 1016MOL0     O37055   5.510   5.219   5.561 -0.0001  0.0645  0.1066
 1016MOL0     C37056   5.634   5.268   5.587 -0.3610  0.1799  0.7473
 1016MOL0     C37057   5.745   5.196   5.533 -0.5335 -0.5104  0.6157
 1016MOL0     C37058   5.873   5.234   5.559 -1.2473 -1.0067  0.4379
 1016MOL0     C37059   5.900   5.343   5.648  0.3672 -0.4102  0.0758
 1016MOL0     O37060   6.026   5.394   5.656  0.8875 -0.0586  0.3673
 1016MOL0     C37061   6.119   5.321   5.722  0.1094  0.2145  0.1621
 1016MOL0     C37062   6.128   5.361   5.878  0.4735  0.8672 -0.6967
 1016MOL0     C37063   6.199   5.491   5.901  0.3700 -0.2905 -0.6393
 1016MOL0     C37064   6.217   5.518   6.055  0.3012  0.8955  0.3806
 1016MOL0     C37065   6.296   5.639   6.098 -1.2849 -0.5683  0.6464
 1016MOL0     C37066   6.448   5.608   6.087 -0.7350  0.6075  0.2380
 1016MOL0     C37067   6.532   5.735   6.111 -0.6657 -0.1104 -0.4808
 1016MOL0     C37068   6.683   5.708   6.135  0.2854  0.3118 -0.2146
 1016MOL0    Cl37069   6.770   5.614   6.018  0.4458  0.4247  0.0880
 1016MOL0     C37070   5.788   5.412   5.707  1.2276  0.8897 -0.4743
 1016MOL0     C37071   5.659   5.384   5.666  0.0986  0.2764  0.3703
 1016MOL0     O37072   5.417   5.415   5.480  0.6893 -0.2000  0.1004
 1016MOL0     C37073   5.169   5.308   5.474  0.3776 -0.2316 -1.2827
 1016MOL0     C37074   5.048   5.251   5.449  0.1528  0.1316  0.2001
 1016MOL0     N37075   4.769   4.615   5.586  0.3425 -0.1139 -0.0526
 1016MOL0     N37076   4.727   4.500   5.622 -0.2504 -0.6896 -0.0209
 1016MOL0     C37077   3.684   3.846   5.897  1.4411 -0.4131 -0.1597
 1016MOL0     C37078   3.549   3.815   5.863  0.3784 -0.9957 -0.6958
 1016MOL0     C37079   3.149   3.713   5.770  0.5222  0.8069 -0.1465
 1016MOL0     C37080   3.101   3.787   5.652  0.0681 -0.0276  0.2066
 1016MOL0     C37081   2.967   3.826   5.636  0.4287 -0.1305  0.3286
 1016MOL0     C37082   2.873   3.799   5.732 -0.5680  0.4871 -0.5351
 1016MOL0     O37083   2.740   3.836   5.740  0.4026 -0.4657  0.9857
 1016MOL0     C37084   2.696   3.915   5.623 -0.1626 -0.0404 -0.6923
 1016MOL0     C37085   2.541   3.953   5.649  0.6089 -0.1461  0.5043
 1016MOL0     C37086   2.531   4.045   5.784 -0.9530 -0.2577  0.6947
 1016MOL0     C37087   2.475   3.972   5.907 -0.2606  0.0955  0.7145
 1016MOL0     C37088   2.468   4.062   6.018  0.2220 -0.6051 -0.2627
 1016MOL0     C37089   2.463   4.126   6.118 -0.5251 -0.4848 -0.5316
 1016MOL0     C37090   2.913   3.714   5.840  0.5601  0.2369  0.2464
 1016MOL0     C37091   3.049   3.669   5.861 -0.5271 -0.4359 -0.1542
 1016MOL0     C37092   3.075   3.583   5.982 -0.0267  0.4986  0.4329
 1016MOL0     H37093   3.588   3.720   5.540  0.9011 -0.1415  1.1553
 1016MOL0     H37094   3.825   3.776   5.607  0.4474  3.6391 -0.0205
 1016MOL0     H37095   3.886   4.089   5.783  0.4011 -0.6260 -1.4976
 1016MOL0     H37096   3.829   4.028   5.937 -2.6192  1.9341 -2.0952
 1016MOL0     H37097   4.048   3.978   6.017  1.6241 -1.0772 -1.4590
 1016MOL0     H37098   4.032   4.151   5.959  1.2691  0.9060 -0.6768
 1016MOL0     H37099   4.131   4.104   5.747  0.4963 -2.1649 -1.1282
 1016MOL0     H37100   4.169   3.930   5.800 -0.0076 -0.1387 -2.1717
 1016MOL0     H37101   4.236   4.183   5.944 -0.9343  0.4186 -0.7550
 1016MOL0     H37102   4.301   4.019   5.980 -1.9895 -0.0962 -0.0410
 1016MOL0     H37103   4.428   4.004   5.791  1.1576  0.5783  1.1749
 1016MOL0     H37104   4.342   4.149   5.705 -0.8223  1.0873 -0.5157
 1016MOL0     H37105   4.472   4.270   5.931  0.0449 -2.5009  0.5256
 1016MOL0     H37106   4.572   4.138   5.904  0.0863  0.6795 -0.7921
 1016MOL0     H37107   4.616   4.208   5.675  0.7082  0.1890  1.3871
 1016MOL0     H37108   4.660   4.304   5.809  2.5039 -3.6171  0.0374
 1016MOL0     H37109   4.436   4.376   5.605  0.0680 -0.3589 -0.0224
 1016MOL0     H37110   4.439   4.427   5.773  0.5588 -0.0571  0.1086
 1016MOL0     H37111   4.452   4.668   5.656  0.5240  0.9712 -0.5932
 1016MOL0     H37112   4.581   4.895   5.649 -0.8759  0.1125  0.4169
 1016MOL0     H37113   4.758   4.897   5.618  0.6669 -0.9082  0.5239
 1016MOL0     H37114   4.574   4.821   5.397  1.8304 -1.1555 -0.6013
 1016MOL0     H37115   4.605   4.984   5.433 -1.8303 -0.3852  0.9871
 1016MOL0     H37116   4.746   4.903   5.268  1.1772  2.2337  0.7677
 1016MOL0     H37117   4.788   4.742   5.347  2.2135  0.1014  1.5561
 1016MOL0     H37118   4.980   4.871   5.321  1.3732 -0.1556 -0.1583
 1016MOL0     H37119   4.947   4.856   5.496  2.6422  0.6003 -1.2673
 1016MOL0     H37120   5.156   4.920   5.451  0.0497 -0.1283  1.4625
 1016MOL0     H37121   5.377   5.038   5.474 -0.4210  0.3409  0.3547
 1016MOL0     H37122   5.733   5.103   5.477  1.0130 -0.3611 -0.0297
 1016MOL0     H37123   5.957   5.182   5.515 -1.1864  0.0019 -0.6748
 1016MOL0     H37124   6.104   5.213   5.721 -0.2385  0.2208  1.5506
 1016MOL0     H37125   6.221   5.341   5.689 -0.2307 -0.5376 -1.4461
 1016MOL0     H37126   6.023   5.362   5.911  0.3357  0.6593 -1.1206
 1016MOL0     H37127   6.173   5.279   5.935 -2.9437 -0.3044  0.6224
 1016MOL0     H37128   6.299   5.475   5.859 -0.0271 -2.2015 -0.9435
 1016MOL0     H37129   6.134   5.567   5.857 -4.5364 -3.1837  0.8785
 1016MOL0     H37130   6.252   5.432   6.113  0.2929  0.6196 -0.0192
 1016MOL0     H37131   6.116   5.533   6.094  1.3292  0.2102  3.6321
 1016MOL0     H37132   6.281   5.671   6.201  0.9330  0.5365  0.6854
 1016MOL0     H37133   6.275   5.725   6.034  3.1632 -0.0805 -0.5074
 1016MOL0     H37134   6.489   5.522   6.142  2.1442  0.9697 -1.1139
 1016MOL0     H37135   6.483   5.583   5.987  2.4241 -0.6684  1.5140
 1016MOL0     H37136   6.491   5.793   6.194 -0.0808 -0.4384  0.0469
 1016MOL0     H37137   6.521   5.802   6.025  0.1832  0.5345 -0.1005
 1016MOL0     H37138   6.748   5.792   6.162 -1.0273  0.7455  1.8012
 1016MOL0     H37139   6.670   5.644   6.222  0.4365  0.6278  0.0421
 1016MOL0     H37140   5.812   5.494   5.775 -1.3538  0.2666  1.3496
 1016MOL0     H37141   5.576   5.445   5.701 -0.5160  0.3425 -1.1257
 1016MOL0     H37142   5.178   5.416   5.485 -3.0105  0.2493 -2.2005
 1016MOL0     H37143   4.951   5.299   5.438 -0.2381 -0.0793  2.3199
 1016MOL0     H37144   3.704   3.874   6.000 -0.1357  0.9640 -0.1813
 1016MOL0     H37145   3.469   3.825   5.936  1.0967  0.5677 -0.0680
 1016MOL0     H37146   3.165   3.823   5.572  0.9452  2.3619  1.8706
 1016MOL0     H37147   2.931   3.894   5.559 -0.2050 -2.3430 -1.4607
 1016MOL0     H37148   2.698   3.857   5.530 -0.8932 -0.6647 -0.3338
 1016MOL0     H37149   2.747   4.009   5.605 -0.3758  0.2794  0.2977
 1016MOL0     H37150   2.482   3.862   5.652 -0.5930  0.6229  0.9869
 1016MOL0     H37151   2.515   4.018   5.565 -0.0578  1.2680  1.7492
 1016MOL0     H37152   2.466   4.125   5.747  1.9968  2.4230  0.8009
 1016MOL0     H37153   2.628   4.093   5.805 -1.3353  0.6536  0.4370
 1016MOL0     H37154   2.374   3.933   5.893 -1.1263  1.7079  2.1781
 1016MOL0     H37155   2.539   3.887   5.933 -1.9127 -1.3882  0.1284
 1016MOL0     H37156   2.470   4.197   6.198  1.6990  0.9090 -1.8371
 1016MOL0     H37157   2.835   3.681   5.907 -1.6741  1.5147 -1.5928
 1016MOL0     H37158   2.985   3.524   6.002  0.6661 -0.5625  0.4857
 1016MOL0     H37159   3.148   3.502   5.972 -1.4381 -0.6942 -0.5888
 1016MOL0     H37160   3.090   3.635   6.078  0.2017 -0.2909  0.8358
 1017MOL0     O37161   9.484   1.434   2.602 -0.2580  1.1492 -0.0044
 1017MOL0     C37162   9.417   1.340   2.646 -0.3484 -0.3443 -0.1237
 1017MOL0     O37163   9.465   1.247   2.732 -0.1654  0.6527  0.3947
 1017MOL0     C37164   9.597   1.241   2.757 -0.6263  0.5139 -0.3191
 1017MOL0     C37165   9.646   1.222   2.882  0.4219 -0.1180 -0.3233
 1017MOL0     C37166   9.780   1.197   2.919 -0.7766 -0.3003 -0.0614
 1017MOL0     C37167   9.878   1.216   2.816  0.2180 -0.5200  0.5550
 1017MOL0     O37168  10.017   1.198   2.831  0.4912 -0.2871  0.0774
 1017MOL0     C37169  10.096   1.314   2.859  0.8497 -0.4265  0.1344
 1017MOL0     C37170  10.236   1.295   2.807 -0.9399 -0.2116  0.4848
 1017MOL0     C37171  10.326   1.190   2.892 -0.0342  1.3514  0.4582
 1017MOL0     C37172  10.388   1.262   3.005 -0.0956 -0.7571  0.5771
 1017MOL0     C37173  10.468   1.165   3.095 -0.5603  0.2868  0.2438
 1017MOL0     C37174  10.588   1.245   3.150 -0.3076 -0.1591  0.0369
 1017MOL0     C37175  10.556   1.364   3.242 -0.3503 -0.3310 -0.4564
 1017MOL0     C37176  10.565   1.320   3.390 -0.2062 -0.4818  0.0551
 1017MOL0     N37177  10.701   1.285   3.436  0.3111  0.4506  0.1073
 1017MOL0     C37178  10.719   1.178   3.527 -0.0881 -0.4219  0.1615
 1017MOL0     C37179  10.853   1.180   3.553 -0.2587 -0.0801  0.1576
 1017MOL0     C37180  10.949   1.081   3.611  1.1401  0.7211  0.0349
 1017MOL0     C37181  10.995   0.979   3.507  0.2729 -0.0172 -0.6620
 1017MOL0     C37182  11.065   1.038   3.384 -0.1743 -0.4964  0.3791
 1017MOL0     C37183  11.187   1.127   3.411  0.1151 -0.8133  0.9515
 1017MOL0     O37184  11.252   1.167   3.288 -0.0916 -0.6656  0.3889
 1017MOL0     C37185  11.391   1.190   3.286  0.5207 -0.3437  0.2918
 1017MOL0     C37186  11.428   1.216   3.149 -0.4136  0.3201 -0.5048
 1017MOL0     C37187  11.563   1.229   3.115 -0.4176 -0.1373  0.7217
 1017MOL0     C37188  11.659   1.206   3.207  0.1339  1.2050 -0.6275
 1017MOL0     C37189  11.801   1.214   3.174  0.0465 -0.5480 -0.0174
 1017MOL0     O37190  11.899   1.210   3.277  0.0663  0.8818  0.5383
 1017MOL0     C37191  12.032   1.207   3.234 -0.4115 -0.6864  0.3135
 1017MOL0     C37192  12.135   1.284   3.293  0.0049 -0.3926  0.1058
 1017MOL0     C37193  12.263   1.280   3.243  0.1621  0.4614 -0.1633
 1017MOL0     C37194  12.300   1.206   3.138  0.6526  0.4380 -0.0762
 1017MOL0     O37195  12.433   1.205   3.104 -0.4045  0.5201 -0.2526
 1017MOL0     C37196  12.485   1.095   3.031 -0.2027 -0.9866 -0.2304
 1017MOL0     C37197  12.635   1.081   3.014 -0.8309 -0.7903 -0.0252
 1017MOL0     C37198  12.689   1.066   3.156 -0.0538 -0.1458  0.2210
 1017MOL0     C37199  12.844   1.056   3.152  0.8318 -0.7392  0.0402
 1017MOL0     C37200  12.925   1.039   3.285 -0.1876 -0.5937 -0.4063
 1017MOL0     C37201  13.072   1.001   3.256 -0.1677 -0.5490  0.2126
 1017MOL0     C37202  13.136   0.996   3.397  1.3028  0.2838 -0.2479
 1017MOL0     C37203  13.282   0.981   3.392  0.4301  0.5362 -0.0741
 1017MOL0    Cl37204  13.366   1.095   3.295 -0.1909 -0.0785 -0.2952
 1017MOL0     C37205  12.200   1.126   3.070  1.0114  0.3303  0.3275
 1017MOL0     C37206  12.071   1.119   3.133  0.2433  1.0783  0.0999
 1017MOL0     O37207  11.828   1.225   3.053 -0.4166  0.1593 -0.6208
 1017MOL0     C37208  11.626   1.178   3.341  0.5270 -1.0299 -0.2543
 1017MOL0     C37209  11.495   1.167   3.381 -0.0353 -0.7753  0.0524
 1017MOL0     N37210  10.902   1.297   3.489 -0.0958  0.3586 -0.3576
 1017MOL0     N37211  10.810   1.364   3.423 -0.6244 -0.3026 -0.6353
 1017MOL0     C37212   9.834   1.245   2.689 -0.3692  0.0206  0.3905
 1017MOL0     C37213   9.696   1.259   2.659  0.3969 -0.7848 -0.5982
 1017MOL0     C37214   9.272   1.336   2.617  1.5381  0.5536  0.5925
 1017MOL0     C37215   9.182   1.275   2.710 -0.1615 -0.1637  0.2385
 1017MOL0     C37216   9.045   1.291   2.690 -0.0175 -0.6002 -0.6628
 1017MOL0     C37217   8.993   1.357   2.584  0.3242 -0.3567  0.1245
 1017MOL0     O37218   8.856   1.348   2.569  0.4380 -0.1904  0.5009
 1017MOL0     C37219   8.803   1.405   2.450  1.1840 -0.1943  0.1095
 1017MOL0     C37220   8.650   1.388   2.464 -0.3042  0.0894 -0.8504
 1017MOL0     C37221   8.587   1.478   2.568 -0.1456 -0.0782 -0.3027
 1017MOL0     C37222   8.557   1.613   2.503  0.4456  0.1310  1.2712
 1017MOL0     C37223   8.435   1.622   2.427 -0.6275  0.8803 -0.0797
 1017MOL0     C37224   8.335   1.603   2.354 -0.0178 -0.3695 -0.1392
 1017MOL0     C37225   9.078   1.415   2.492 -0.0637 -0.1745  0.4232
 1017MOL0     C37226   9.218   1.403   2.507 -0.5181  0.2319  1.0141
 1017MOL0     C37227   9.289   1.451   2.384  0.2960  0.7958  0.3028
 1017MOL0     H37228   9.567   1.200   2.953  0.9515  1.3562  0.7855
 1017MOL0     H37229   9.800   1.177   3.024  1.7776 -1.8372 -0.7617
 1017MOL0     H37230  10.054   1.401   2.808 -2.1703 -2.1414 -0.5442
 1017MOL0     H37231  10.100   1.329   2.967  4.2834  0.6060 -0.0147
 1017MOL0     H37232  10.285   1.393   2.801 -0.6850 -0.2953  1.0358
 1017MOL0     H37233  10.230   1.268   2.702  0.2073 -1.4350  0.6950
 1017MOL0     H37234  10.406   1.157   2.825 -0.1967  4.0886 -1.2364
 1017MOL0     H37235  10.266   1.104   2.925  1.7246 -0.0764  0.0853
 1017MOL0     H37236  10.459   1.332   2.960 -1.3769  0.1503 -0.0869
 1017MOL0     H37237  10.306   1.308   3.060 -0.1858 -0.5870  0.3011
 1017MOL0     H37238  10.414   1.129   3.184 -1.1837  1.1771  0.2472
 1017MOL0     H37239  10.513   1.082   3.040 -0.1366  1.0992 -0.6674
 1017MOL0     H37240  10.655   1.183   3.209 -0.7509 -1.1680 -0.5039
 1017MOL0     H37241  10.650   1.276   3.065  4.6309 -0.1814  3.2246
 1017MOL0     H37242  10.454   1.402   3.229 -0.1340 -0.7094 -4.2431
 1017MOL0     H37243  10.623   1.450   3.236 -0.3403  0.1807  3.7749
 1017MOL0     H37244  10.521   1.394   3.457 -1.4656 -1.1035 -0.0608
 1017MOL0     H37245  10.504   1.232   3.413 -1.4648  0.8122  1.9323
 1017MOL0     H37246  10.654   1.099   3.562  1.4092 -0.7563  2.3799
 1017MOL0     H37247  11.035   1.131   3.656  1.2661 -1.4183  2.4172
 1017MOL0     H37248  10.893   1.029   3.688  0.7387  0.3630 -0.4921
 1017MOL0     H37249  11.065   0.919   3.566 -0.1734  1.9325  2.0380
 1017MOL0     H37250  10.910   0.913   3.490  0.0156 -0.5825  2.2909
 1017MOL0     H37251  11.007   1.088   3.306 -0.8220 -0.9958  0.5337
 1017MOL0     H37252  11.111   0.948   3.342  1.0955 -0.3435  1.3717
 1017MOL0     H37253  11.257   1.073   3.475 -1.5706 -1.2622  2.5141
 1017MOL0     H37254  11.164   1.217   3.469 -1.2939  1.5543 -2.8833
 1017MOL0     H37255  11.351   1.241   3.076  0.1073  1.9449 -0.5474
 1017MOL0     H37256  11.594   1.246   3.012  0.5895 -0.7242  0.9153
 1017MOL0     H37257  12.114   1.354   3.373 -1.5384 -1.2142  0.4592
 1017MOL0     H37258  12.339   1.339   3.293  0.8846  0.6189 -1.4095
 1017MOL0     H37259  12.443   1.011   3.087 -0.6696  0.7081  2.1278
 1017MOL0     H37260  12.442   1.096   2.930 -1.0836  1.3593  0.0875
 1017MOL0     H37261  12.652   0.995   2.948 -1.1326 -1.2859  0.5320
 1017MOL0     H37262  12.680   1.171   2.971 -1.8237  1.1101  2.6443
 1017MOL0     H37263  12.676   1.161   3.209 -1.4765  0.4151 -1.0583
 1017MOL0     H37264  12.646   0.977   3.203 -0.9762  0.2177  0.0979
 1017MOL0     H37265  12.884   1.142   3.097  1.3334 -1.8890 -1.4678
 1017MOL0     H37266  12.865   0.971   3.086  2.4950 -0.5264  0.2361
 1017MOL0     H37267  12.873   0.955   3.333 -2.2897  0.9721  0.2396
 1017MOL0     H37268  12.912   1.122   3.355 -1.0197 -3.3702  3.0803
 1017MOL0     H37269  13.091   0.913   3.194 -0.5160  0.8110 -1.9358
 1017MOL0     H37270  13.126   1.076   3.198  3.1032 -0.5276  2.9665
 1017MOL0     H37271  13.097   0.916   3.461  0.9403  0.1336 -0.6580
 1017MOL0     H37272  13.116   1.093   3.443  2.8396  0.9539 -0.9458
 1017MOL0     H37273  13.324   0.976   3.493 -0.3421 -1.8130  0.1741
 1017MOL0     H37274  13.292   0.884   3.344 -0.7644  0.0288  0.6683
 1017MOL0     H37275  12.228   1.057   2.990 -0.1522  1.3160 -0.9554
 1017MOL0     H37276  11.993   1.056   3.093 -2.2036  1.4575  3.7661
 1017MOL0     H37277  11.712   1.174   3.407  0.1573 -0.1183  0.3043
 1017MOL0     H37278  11.463   1.144   3.483 -2.6297 -1.2462 -0.8057
 1017MOL0     H37279   9.902   1.251   2.604 -0.8499 -2.7268 -0.2896
 1017MOL0     H37280   9.683   1.282   2.554  0.9806  1.8752 -0.1505
 1017MOL0     H37281   9.206   1.229   2.806 -1.6326 -0.0506  0.6861
 1017MOL0     H37282   8.977   1.251   2.765  1.4042 -1.9784 -0.0602
 1017MOL0     H37283   8.842   1.354   2.362  0.6424  3.4705 -2.4861
 1017MOL0     H37284   8.816   1.513   2.434  0.1422 -0.1247 -0.3321
 1017MOL0     H37285   8.628   1.283   2.483  1.9146 -0.1886  0.6349
 1017MOL0     H37286   8.617   1.408   2.362  1.2081  0.7911 -1.2423
 1017MOL0     H37287   8.662   1.488   2.647  0.3679 -1.7437 -0.5351
 1017MOL0     H37288   8.495   1.432   2.605  0.3632 -1.4690 -0.6953
 1017MOL0     H37289   8.552   1.693   2.577  0.2702  0.3027  1.0753
 1017MOL0     H37290   8.632   1.644   2.430 -0.9395 -0.6267 -0.5578
 1017MOL0     H37291   8.252   1.598   2.287  3.0882 -2.2583 -4.2985
 1017MOL0     H37292   9.032   1.460   2.405  0.0486 -0.3177  0.2883
 1017MOL0     H37293   9.270   1.373   2.310  1.0194  2.6979 -2.0302
 1017MOL0     H37294   9.247   1.540   2.336  1.5061  0.2933 -1.8209
 1017MOL0     H37295   9.396   1.473   2.385  0.7022 -0.9682 -0.4181
 1018MOL0     O37296  11.258  11.219   4.850 -0.1160 -0.5331  0.3240
 1018MOL0     C37297  11.234  11.333   4.896 -0.2695 -0.7500  0.3304
 1018MOL0     O37298  11.109  11.381   4.891  0.4443 -0.1454 -0.6655
 1018MOL0     C37299  11.018  11.341   4.795  0.6098  0.5633  0.0970
 1018MOL0     C37300  10.887  11.302   4.839 -0.1233  0.3591 -0.3234
 1018MOL0     C37301  10.791  11.268   4.739 -0.2726  0.5047  0.3786
 1018MOL0     C37302  10.812  11.276   4.602  0.4483  0.9577  0.1210
 1018MOL0     O37303  10.709  11.250   4.520 -0.3117  0.5705 -0.0926
 1018MOL0     C37304  10.738  11.149   4.415  0.0446  0.5679  0.2912
 1018MOL0     C37305  10.617  11.059   4.382  0.2755  0.0560  0.1122
 1018MOL0     C37306  10.507  11.162   4.353 -0.6252  1.1311  0.2543
 1018MOL0     C37307  10.380  11.082   4.326 -0.3531 -0.6249  0.1437
 1018MOL0     C37308  10.270  11.184   4.291 -0.0696 -0.2942 -0.0266
 1018MOL0     C37309  10.212  11.253   4.420 -0.7122  0.5919 -0.2399
 1018MOL0     C37310  10.097  11.349   4.396 -0.2071 -0.4617 -0.1252
 1018MOL0     C37311  10.119  11.458   4.281 -0.0749 -0.6065 -0.4467
 1018MOL0     N37312  10.246  11.530   4.306 -0.4942 -0.4885  0.0866
 1018MOL0     C37313  10.273  11.613   4.419 -0.1233  0.8731  0.2114
 1018MOL0     C37314  10.401  11.650   4.399 -0.5986 -0.2616 -0.7384
 1018MOL0     C37315  10.486  11.748   4.480  0.2142 -0.4823  0.0327
 1018MOL0     C37316  10.578  11.683   4.583  0.2266  0.2095 -0.1684
 1018MOL0     C37317  10.685  11.614   4.500 -0.6489 -0.4027  0.2721
 1018MOL0     C37318  10.825  11.638   4.557 -0.1923  0.5523 -0.7832
 1018MOL0     O37319  10.855  11.777   4.532 -0.7678 -0.1712  0.3733
 1018MOL0     C37320  10.970  11.832   4.593 -0.1224  0.3271  0.0356
 1018MOL0     C37321  11.070  11.761   4.665 -0.8780  0.5023  0.2247
 1018MOL0     C37322  11.189  11.811   4.715 -0.8112  0.1250  0.0813
 1018MOL0     C37323  11.214  11.946   4.685  0.5989 -0.0055 -0.3805
 1018MOL0     C37324  11.341  12.007   4.731  0.0529  0.2589 -0.3734
 1018MOL0     O37325  11.358  12.136   4.710 -0.0882 -0.6928 -0.0562
 1018MOL0     C37326  11.449  12.199   4.786  0.7465  0.8419 -0.5593
 1018MOL0     C37327  11.562  12.268   4.732  0.5685  0.0313  0.5387
 1018MOL0     C37328  11.627  12.359   4.815 -0.3830 -0.1174  0.2594
 1018MOL0     C37329  11.607  12.372   4.949  0.1599  0.8489 -0.9172
 1018MOL0     O37330  11.698  12.442   5.023  0.5815  0.2014  0.0775
 1018MOL0     C37331  11.798  12.365   5.094  0.2964  0.1127  0.3366
 1018MOL0     C37332  11.927  12.337   5.014 -0.2809  0.2964 -0.0719
 1018MOL0     C37333  12.043  12.303   5.105 -0.0048 -0.2548  1.1077
 1018MOL0     C37334  12.166  12.247   5.034 -0.1677  0.4631  0.2281
 1018MOL0     C37335  12.290  12.252   5.129  0.2213  0.6135 -0.2467
 1018MOL0     C37336  12.423  12.193   5.071  0.1138  0.7995  0.0958
 1018MOL0     C37337  12.529  12.193   5.182 -0.9079  0.2194 -0.2341
 1018MOL0     C37338  12.669  12.177   5.123 -0.5693  0.2643 -0.6410
 1018MOL0    Cl37339  12.796  12.183   5.244 -0.3350 -0.1946 -0.1123
 1018MOL0     C37340  11.500  12.302   5.000 -0.7223  0.5300  0.0325
 1018MOL0     C37341  11.421  12.218   4.922  0.5673  1.0868  0.3591
 1018MOL0     O37342  11.427  11.933   4.784 -0.4688 -0.4756 -0.6374
 1018MOL0     C37343  11.111  12.030   4.620 -0.0430 -0.1479 -0.6634
 1018MOL0     C37344  10.992  11.968   4.582 -0.1698 -0.5874 -0.3869
 1018MOL0     N37345  10.447  11.593   4.285 -0.1207  0.9530  0.7072
 1018MOL0     N37346  10.354  11.520   4.224  0.0673 -0.3918 -0.6934
 1018MOL0     C37347  10.941  11.310   4.557 -0.2094 -0.3042  0.0993
 1018MOL0     C37348  11.035  11.345   4.656  0.5220 -0.4700  0.6882
 1018MOL0     C37349  11.352  11.417   4.948 -0.6218  0.1592  1.4585
 1018MOL0     C37350  11.328  11.551   4.984 -0.1627 -0.6012  0.1386
 1018MOL0     C37351  11.435  11.635   5.031  1.1856  0.7885  0.0660
 1018MOL0     C37352  11.558  11.582   5.061  0.2177 -0.3430 -1.0490
 1018MOL0     O37353  11.673  11.656   5.086 -0.1381  0.2465  0.3562
 1018MOL0     C37354  11.660  11.800   5.066 -0.6153  0.1782 -0.1839
 1018MOL0     C37355  11.782  11.872   5.122  0.1965 -0.4517  0.0491
 1018MOL0     C37356  11.916  11.807   5.081 -0.2966  0.9908  0.2149
 1018MOL0     C37357  12.036  11.886   5.131  0.3606 -0.8961  0.0104
 1018MOL0     C37358  12.159  11.857   5.060  0.1727  0.3511  0.4482
 1018MOL0     C37359  12.264  11.816   5.013  0.0838  0.9705  0.1465
 1018MOL0     C37360  11.580  11.447   5.039 -0.2249 -0.1909 -0.0640
 1018MOL0     C37361  11.480  11.371   4.969 -0.9908  0.6227 -1.0771
 1018MOL0     C37362  11.515  11.224   4.962 -0.3866 -0.3160  0.2850
 1018MOL0     H37363  10.855  11.302   4.943  0.1049 -0.7317 -0.2410
 1018MOL0     H37364  10.693  11.235   4.771 -0.8735  2.1619  0.3307
 1018MOL0     H37365  10.764  11.200   4.321  1.5197  0.4646  0.6159
 1018MOL0     H37366  10.828  11.095   4.445 -0.2362  0.4526  0.9314
 1018MOL0     H37367  10.585  11.003   4.470 -1.5504  0.0716 -0.5075
 1018MOL0     H37368  10.656  11.008   4.294  3.1607  1.2713  0.5627
 1018MOL0     H37369  10.533  11.244   4.285  0.8542  0.3606 -0.1533
 1018MOL0     H37370  10.491  11.212   4.448  0.2685 -2.1557  2.3044
 1018MOL0     H37371  10.391  11.019   4.238 -0.9690  2.3143 -2.1700
 1018MOL0     H37372  10.355  11.018   4.412 -0.2656 -2.2958 -1.0242
 1018MOL0     H37373  10.304  11.265   4.227 -2.5517  0.8403 -0.0391
 1018MOL0     H37374  10.198  11.133   4.226  0.3253 -2.9079  1.4276
 1018MOL0     H37375  10.166  11.178   4.486 -0.5918  1.3140  0.6808
 1018MOL0     H37376  10.290  11.307   4.474 -2.5240  1.8826  1.2162
 1018MOL0     H37377  10.072  11.402   4.489 -0.2716 -0.2752 -0.2484
 1018MOL0     H37378  10.009  11.295   4.361 -0.8236  0.9907 -0.9331
 1018MOL0     H37379  10.118  11.410   4.183  2.1425  1.7549 -1.7680
 1018MOL0     H37380  10.044  11.537   4.284 -0.4127 -0.9410  0.0870
 1018MOL0     H37381  10.204  11.648   4.495 -1.8276  0.1958 -0.9550
 1018MOL0     H37382  10.538  11.825   4.422 -1.6803  1.6682  1.0419
 1018MOL0     H37383  10.412  11.804   4.536 -2.2509 -3.3716 -0.1126
 1018MOL0     H37384  10.609  11.763   4.651 -3.0512  1.0923  0.4583
 1018MOL0     H37385  10.515  11.612   4.636  1.1093  0.6327  1.4975
 1018MOL0     H37386  10.681  11.636   4.393 -0.6458 -4.3779 -0.6934
 1018MOL0     H37387  10.665  11.507   4.513 -1.6385 -0.5626 -2.0425
 1018MOL0     H37388  10.899  11.582   4.499 -0.0033  1.4648 -1.4445
 1018MOL0     H37389  10.835  11.613   4.663 -2.9669  3.9002  0.4426
 1018MOL0     H37390  11.070  11.653   4.671  2.5104  0.4391  1.5779
 1018MOL0     H37391  11.265  11.759   4.772  0.0911  1.7181  0.3964
 1018MOL0     H37392  11.589  12.244   4.630 -1.3414 -1.4153  0.3163
 1018MOL0     H37393  11.719  12.406   4.782 -0.0327  0.4270  1.9392
 1018MOL0     H37394  11.818  12.422   5.186  0.3591  1.1341 -0.2978
 1018MOL0     H37395  11.762  12.267   5.125  3.1341 -0.2844  2.8225
 1018MOL0     H37396  11.906  12.244   4.959  1.1377  0.2798 -0.6137
 1018MOL0     H37397  11.945  12.421   4.947 -0.3336  0.3843  0.0249
 1018MOL0     H37398  12.076  12.390   5.162 -0.0314 -0.6773  1.7836
 1018MOL0     H37399  12.014  12.234   5.185  0.6066 -0.0356  1.5244
 1018MOL0     H37400  12.185  12.304   4.942 -0.9089  0.1603 -0.1229
 1018MOL0     H37401  12.149  12.142   5.007 -3.1572  1.0749 -0.6930
 1018MOL0     H37402  12.261  12.181   5.208 -0.6361  1.8271  0.5684
 1018MOL0     H37403  12.297  12.352   5.173 -0.7189  0.4957  0.1927
 1018MOL0     H37404  12.397  12.096   5.029 -0.5794  1.5615 -1.3177
 1018MOL0     H37405  12.456  12.254   4.986 -0.4363 -0.0561 -0.7454
 1018MOL0     H37406  12.507  12.116   5.256  0.5021  0.4283  0.4398
 1018MOL0     H37407  12.542  12.290   5.229 -0.1942  0.4751 -0.9349
 1018MOL0     H37408  12.681  12.085   5.065 -0.8803 -1.1055  1.3731
 1018MOL0     H37409  12.679  12.264   5.057 -1.7929  1.4396  0.6630
 1018MOL0     H37410  11.481  12.327   5.104  1.4546  3.0307 -0.0586
 1018MOL0     H37411  11.335  12.172   4.968  1.2361  0.1455  0.7031
 1018MOL0     H37412  11.114  12.138   4.620 -2.6956  0.0409  1.4975
 1018MOL0     H37413  10.920  12.033   4.535  0.5805 -1.6491 -3.2333
 1018MOL0     H37414  10.986  11.331   4.460  2.3399 -0.8890  1.0587
 1018MOL0     H37415  11.133  11.388   4.639 -0.3982  1.0724 -1.0213
 1018MOL0     H37416  11.228  11.590   4.977  0.5945  1.5872  0.8042
 1018MOL0     H37417  11.413  11.740   5.043  1.1842  0.7324  0.5667
 1018MOL0     H37418  11.576  11.839   5.125 -1.0158 -1.4793  0.3908
 1018MOL0     H37419  11.631  11.823   4.963 -1.1088 -1.6428 -0.4765
 1018MOL0     H37420  11.782  11.880   5.232  1.4101  3.3653 -0.0826
 1018MOL0     H37421  11.767  11.972   5.080 -0.0441 -1.3743 -2.1704
 1018MOL0     H37422  11.921  11.799   4.972 -0.2994 -0.3197  0.2937
 1018MOL0     H37423  11.923  11.701   5.108  0.4091  1.2408  1.0904
 1018MOL0     H37424  12.006  11.990   5.119  0.7791 -0.9800 -2.0591
 1018MOL0     H37425  12.043  11.876   5.240 -2.7159  1.0564  0.5131
 1018MOL0     H37426  12.362  11.781   4.987 -0.1763  0.8958 -0.7523
 1018MOL0     H37427  11.671  11.396   5.070 -0.9883 -1.4601  0.1401
 1018MOL0     H37428  11.537  11.189   4.861 -3.4824 -1.0772 -0.2411
 1018MOL0     H37429  11.602  11.195   5.021 -0.0042 -1.3642 -0.7709
 1018MOL0     H37430  11.435  11.166   5.009 -0.8763 -2.1139 -2.5686
 1019MOL0     O37431   6.908  10.627   4.497 -0.4140 -0.2229 -0.4572
 1019MOL0     C37432   6.874  10.662   4.385  0.4276  0.7261 -0.8155
 1019MOL0     O37433   6.936  10.759   4.310 -0.5673 -0.8224  0.0143
 1019MOL0     C37434   7.062  10.801   4.359  0.0158  0.6039  0.0995
 1019MOL0     C37435   7.170  10.710   4.359 -0.6445  0.1806  0.1679
 1019MOL0     C37436   7.299  10.749   4.402 -0.1925  0.0469  0.2667
 1019MOL0     C37437   7.324  10.877   4.445  0.3165 -0.0083  0.5283
 1019MOL0     O37438   7.448  10.915   4.486  0.8449  0.1259  0.5312
 1019MOL0     C37439   7.564  10.902   4.407 -0.2597  0.3805  1.4528
 1019MOL0     C37440   7.681  10.970   4.470 -1.2347 -0.2773 -0.8337
 1019MOL0     C37441   7.807  10.949   4.383 -0.5563 -0.4753 -0.4025
 1019MOL0     C37442   7.932  11.007   4.456  0.1483 -0.4378 -0.2537
 1019MOL0     C37443   8.056  11.005   4.366 -0.1405  0.1282 -0.1586
 1019MOL0     C37444   8.184  10.979   4.447  0.1027 -0.4970 -0.3126
 1019MOL0     C37445   8.237  11.113   4.504 -0.2221  0.0796 -0.1463
 1019MOL0     C37446   8.192  11.134   4.650  0.2333  0.7141 -0.5975
 1019MOL0     N37447   8.295  11.203   4.726  0.7796 -0.5914  0.5387
 1019MOL0     C37448   8.291  11.229   4.860  0.6911 -0.4218 -0.8559
 1019MOL0     C37449   8.373  11.333   4.868  0.3598  0.3932 -0.4360
 1019MOL0     C37450   8.399  11.399   5.003  0.0440 -0.7548 -0.8279
 1019MOL0     C37451   8.543  11.363   5.043  0.2930  0.1611 -0.4724
 1019MOL0     C37452   8.605  11.476   5.132 -0.3308  0.0852  0.8579
 1019MOL0     C37453   8.757  11.467   5.121 -0.6754  0.1535  0.9413
 1019MOL0     O37454   8.808  11.577   5.192 -0.1125  0.4893  0.1032
 1019MOL0     C37455   8.938  11.616   5.169 -0.2925  0.1706 -0.3844
 1019MOL0     C37456   9.028  11.541   5.086  0.0728 -0.4957 -0.1627
 1019MOL0     C37457   9.167  11.564   5.087  0.3471 -0.5778 -0.1000
 1019MOL0     C37458   9.227  11.656   5.172 -0.4340 -0.2230  0.9230
 1019MOL0     C37459   9.373  11.681   5.170 -0.2454 -0.4014 -0.2448
 1019MOL0     O37460   9.415  11.800   5.220  0.7882  0.4081 -0.2641
 1019MOL0     C37461   9.543  11.843   5.198 -0.7120  0.0394  0.0465
 1019MOL0     C37462   9.664  11.761   5.219  0.2278  0.3194  0.3307
 1019MOL0     C37463   9.793  11.819   5.197  0.1102  0.8423 -0.8886
 1019MOL0     C37464   9.803  11.950   5.154  0.1442  0.4699  0.2402
 1019MOL0     O37465   9.920  12.028   5.139  0.0807  0.5629 -0.1512
 1019MOL0     C37466  10.050  11.969   5.146 -0.6292  0.2076 -0.0388
 1019MOL0     C37467  10.109  11.947   5.288  0.8195  0.3772 -0.0328
 1019MOL0     C37468  10.198  12.060   5.340  0.1720  0.1146  0.5335
 1019MOL0     C37469  10.261  12.041   5.477 -0.2038  0.0862  0.4515
 1019MOL0     C37470  10.364  11.923   5.498  0.1803 -0.2483  0.2546
 1019MOL0     C37471  10.501  11.935   5.434  0.9964 -0.3041  0.0623
 1019MOL0     C37472  10.580  11.809   5.459  0.1549 -0.7784 -0.2062
 1019MOL0     C37473  10.557  11.706   5.338 -0.2996  0.2303 -0.6757
 1019MOL0    Cl37474  10.653  11.545   5.372 -0.2726  0.1998  0.0021
 1019MOL0     C37475   9.695  12.020   5.111 -1.1090  0.0965  0.3296
 1019MOL0     C37476   9.564  11.966   5.139 -0.1994  0.4003 -0.3731
 1019MOL0     O37477   9.446  11.602   5.117  0.4660 -0.2363 -0.2714
 1019MOL0     C37478   9.138  11.734   5.256  0.0890  0.9312 -0.6105
 1019MOL0     C37479   8.992  11.714   5.249  0.6696  0.1324  0.5855
 1019MOL0     N37480   8.432  11.366   4.743  0.4389 -0.0899 -0.9792
 1019MOL0     N37481   8.381  11.288   4.663 -0.0741  0.2985  0.1031
 1019MOL0     C37482   7.222  10.968   4.454 -0.5130  0.1891 -0.0893
 1019MOL0     C37483   7.091  10.931   4.405  0.0392  0.0204 -0.5511
 1019MOL0     C37484   6.750  10.602   4.321  0.1492 -0.1851  0.6938
 1019MOL0     C37485   6.712  10.650   4.194  0.1821 -0.3283 -0.5285
 1019MOL0     C37486   6.599  10.603   4.129  0.2406 -0.3404  0.3158
 1019MOL0     C37487   6.512  10.519   4.200  0.4929 -0.0102 -0.4845
 1019MOL0     O37488   6.388  10.483   4.144  0.3338  0.3332  0.2263
 1019MOL0     C37489   6.283  10.586   4.155 -0.0608 -0.6221 -0.1722
 1019MOL0     C37490   6.137  10.527   4.168 -0.0800 -0.3486 -0.5939
 1019MOL0     C37491   6.143  10.446   4.302 -0.0099  0.3616 -0.0008
 1019MOL0     C37492   6.006  10.393   4.330 -0.2732 -0.6186 -0.2946
 1019MOL0     C37493   5.969  10.270   4.265  0.8692 -0.0034  0.1589
 1019MOL0     C37494   5.942  10.155   4.233  0.2112 -0.7781  0.4840
 1019MOL0     C37495   6.553  10.467   4.326  0.1452  0.2267 -0.7179
 1019MOL0     C37496   6.669  10.506   4.384 -0.2641 -0.3330 -0.5928
 1019MOL0     C37497   6.701  10.439   4.512  0.1064  0.0759 -0.2928
 1019MOL0     H37498   7.147  10.609   4.327  1.3450 -0.6192  1.0798
 1019MOL0     H37499   7.377  10.675   4.390 -3.1564 -3.2077 -0.4213
 1019MOL0     H37500   7.594  10.797   4.403  1.6134  0.9148  0.7080
 1019MOL0     H37501   7.550  10.939   4.305 -0.4753  1.3293  1.8170
 1019MOL0     H37502   7.698  10.938   4.573  0.8021  1.2227 -0.6567
 1019MOL0     H37503   7.649  11.074   4.482 -1.5102 -0.5569  1.2617
 1019MOL0     H37504   7.785  11.003   4.290  2.2487 -0.4334 -1.1355
 1019MOL0     H37505   7.813  10.841   4.370  2.3421 -0.6978  1.9591
 1019MOL0     H37506   7.910  11.106   4.497 -0.6769 -0.7819  0.1609
 1019MOL0     H37507   7.963  10.953   4.546  0.0087  2.2557  1.5521
 1019MOL0     H37508   8.041  10.919   4.300 -1.3447 -1.3201  1.8974
 1019MOL0     H37509   8.062  11.092   4.300  1.6265 -0.4904 -0.8688
 1019MOL0     H37510   8.164  10.908   4.528  0.8313 -2.8113 -2.0434
 1019MOL0     H37511   8.265  10.934   4.389  1.6895  1.9059 -0.1198
 1019MOL0     H37512   8.202  11.201   4.449 -1.9911  0.4533  1.4479
 1019MOL0     H37513   8.345  11.102   4.500 -0.1356  1.0045 -0.6314
 1019MOL0     H37514   8.099  11.187   4.670  0.2613  0.0508  1.5276
 1019MOL0     H37515   8.176  11.035   4.694  1.3365  0.0687 -1.5939
 1019MOL0     H37516   8.213  11.188   4.922 -1.3261  1.1864 -2.1914
 1019MOL0     H37517   8.387  11.507   4.990 -1.3931 -0.3817  2.6317
 1019MOL0     H37518   8.326  11.375   5.080 -1.1006 -1.0053 -1.9574
 1019MOL0     H37519   8.542  11.262   5.086  0.2118  1.2178  2.2064
 1019MOL0     H37520   8.599  11.355   4.949  0.3008 -0.2211 -0.4382
 1019MOL0     H37521   8.589  11.457   5.239  1.6759  0.3926  1.2611
 1019MOL0     H37522   8.563  11.573   5.103  0.4315  0.3041  0.4645
 1019MOL0     H37523   8.775  11.476   5.013 -1.8901 -1.4216  0.5629
 1019MOL0     H37524   8.792  11.372   5.160  2.8262  0.7940 -0.3293
 1019MOL0     H37525   8.995  11.454   5.030  0.9536 -0.8491 -0.1592
 1019MOL0     H37526   9.233  11.502   5.027  0.2012 -0.4784 -0.3648
 1019MOL0     H37527   9.653  11.660   5.257 -0.8002  0.0137 -0.7289
 1019MOL0     H37528   9.883  11.765   5.226  1.1590  3.1479  0.4027
 1019MOL0     H37529  10.051  11.873   5.092  0.0781 -0.3388  0.9103
 1019MOL0     H37530  10.116  12.037   5.092 -0.0560  1.6150  2.2939
 1019MOL0     H37531  10.025  11.937   5.357 -0.2150 -1.6029 -1.4943
 1019MOL0     H37532  10.179  11.863   5.286  3.3262  2.3173 -1.3651
 1019MOL0     H37533  10.282  12.070   5.270 -0.9919 -0.5324 -1.0184
 1019MOL0     H37534  10.141  12.153   5.341 -0.9705 -0.5420  2.5968
 1019MOL0     H37535  10.193  12.025   5.561 -0.3174 -3.0044 -0.1184
 1019MOL0     H37536  10.317  12.134   5.495  0.6720 -0.8571  3.1149
 1019MOL0     H37537  10.301  11.836   5.476 -3.0278  2.5227 -2.9004
 1019MOL0     H37538  10.385  11.925   5.605  3.0502  1.4216 -0.2353
 1019MOL0     H37539  10.479  11.951   5.328 -0.3374  1.2496  0.5316
 1019MOL0     H37540  10.556  12.021   5.472 -1.1045 -0.4050  3.7604
 1019MOL0     H37541  10.536  11.759   5.545  0.0176  2.1320  1.5740
 1019MOL0     H37542  10.683  11.843   5.476 -1.2594  3.0816  2.0124
 1019MOL0     H37543  10.452  11.682   5.322 -0.3627 -0.1068  0.1663
 1019MOL0     H37544  10.600  11.751   5.248  2.7669  0.6200  0.8354
 1019MOL0     H37545   9.711  12.120   5.073 -1.6277 -0.1134 -0.4646
 1019MOL0     H37546   9.477  12.026   5.113 -0.5125  1.4332  2.6180
 1019MOL0     H37547   9.177  11.812   5.322 -0.2888  0.0899  0.6437
 1019MOL0     H37548   8.932  11.780   5.310  0.6065 -0.3465  1.0456
 1019MOL0     H37549   7.247  11.066   4.493  3.0992 -0.6542  0.0850
 1019MOL0     H37550   7.011  11.004   4.403 -0.0362 -0.0250  0.3164
 1019MOL0     H37551   6.769  10.732   4.153  0.1202  0.6463  1.2383
 1019MOL0     H37552   6.560  10.637   4.033 -0.6791  1.0727  1.1489
 1019MOL0     H37553   6.289  10.639   4.060 -4.5871 -0.3296 -0.5459
 1019MOL0     H37554   6.303  10.647   4.243 -0.0354  1.1673 -1.3523
 1019MOL0     H37555   6.113  10.462   4.083 -1.7681 -2.4692  1.3647
 1019MOL0     H37556   6.054  10.597   4.184 -2.1461 -1.9282 -3.4102
 1019MOL0     H37557   6.173  10.503   4.391 -1.3261 -1.2766  1.5916
 1019MOL0     H37558   6.218  10.367   4.289  0.3950  1.1152 -2.8043
 1019MOL0     H37559   5.989  10.374   4.437  1.7022 -0.7126  0.0369
 1019MOL0     H37560   5.937  10.469   4.294  1.2064  1.5319  1.1293
 1019MOL0     H37561   5.909  10.057   4.205  0.6330 -0.9701  0.6572
 1019MOL0     H37562   6.492  10.393   4.376 -0.0939  0.4563 -0.6648
 1019MOL0     H37563   6.803  10.402   4.523  0.7776  2.5707  3.8290
 1019MOL0     H37564   6.688  10.515   4.590 -1.1731  0.4983 -0.8864
 1019MOL0     H37565   6.644  10.346   4.523 -1.0949  0.4814 -2.5260
 1020MOL0     O37566   9.790   1.329   9.186 -0.4952  0.4409 -0.3333
 1020MOL0     C37567   9.758   1.286   9.299  1.0127  0.0092 -0.5193
 1020MOL0     O37568   9.844   1.258   9.403  0.1214 -0.1576  0.0838
 1020MOL0     C37569   9.976   1.271   9.388 -0.7876  0.7046  0.0010
 1020MOL0     C37570  10.057   1.158   9.371 -0.2214  1.2619  0.0815
 1020MOL0     C37571  10.195   1.161   9.370 -0.2275 -0.1476 -0.1543
 1020MOL0     C37572  10.256   1.290   9.359 -0.0051  0.4184 -0.1568
 1020MOL0     O37573  10.390   1.310   9.346  0.2292 -0.8301  0.6143
 1020MOL0     C37574  10.485   1.215   9.315 -0.6203  0.0035  0.1919
 1020MOL0     C37575  10.476   1.154   9.172 -0.3153  0.4756 -0.0738
 1020MOL0     C37576  10.555   1.026   9.171  0.1243 -1.4359 -0.8103
 1020MOL0     C37577  10.556   0.959   9.034  0.2243  0.3135 -0.1031
 1020MOL0     C37578  10.636   0.828   9.037 -0.0945 -0.8808  0.7131
 1020MOL0     C37579  10.653   0.752   8.905  0.2626 -0.7335  0.5909
 1020MOL0     C37580  10.792   0.691   8.896  0.5187 -0.0865  1.0383
 1020MOL0     C37581  10.882   0.761   8.793 -0.4273 -1.8860 -0.1662
 1020MOL0     N37582  11.012   0.695   8.783 -0.8806  0.2679 -0.5112
 1020MOL0     C37583  11.098   0.676   8.891 -0.0551  0.8260  0.2802
 1020MOL0     C37584  11.212   0.619   8.839 -0.2017  0.6111  0.3219
 1020MOL0     C37585  11.335   0.557   8.915 -0.2419 -0.1784  0.5867
 1020MOL0     C37586  11.409   0.645   9.018  0.2225 -0.4774  0.7215
 1020MOL0     C37587  11.519   0.737   8.971  0.5997  0.2689  0.6643
 1020MOL0     C37588  11.574   0.806   9.095 -0.2725  0.6681 -0.5506
 1020MOL0     O37589  11.665   0.903   9.051  0.3177  0.6295 -0.3653
 1020MOL0     C37590  11.783   0.909   9.113 -0.2121 -0.3121  0.6618
 1020MOL0     C37591  11.871   0.802   9.113 -1.0121  0.4942 -0.6125
 1020MOL0     C37592  11.995   0.804   9.179 -0.1497 -0.6062 -0.3851
 1020MOL0     C37593  12.035   0.922   9.253 -0.0485  0.5099  0.7803
 1020MOL0     C37594  12.164   0.918   9.324 -0.3620  0.0062 -0.0394
 1020MOL0     O37595  12.235   0.795   9.316 -0.0816 -1.0095 -0.6026
 1020MOL0     C37596  12.361   0.788   9.374  0.3013 -1.2907  0.5585
 1020MOL0     C37597  12.468   0.880   9.334  0.6288 -0.6392 -0.4577
 1020MOL0     C37598  12.583   0.885   9.407  0.0418 -0.6923 -0.2911
 1020MOL0     C37599  12.608   0.785   9.506 -0.1686 -1.1733 -0.2991
 1020MOL0     O37600  12.717   0.779   9.589 -0.6080 -0.0014  0.3893
 1020MOL0     C37601  12.800   0.892   9.599 -0.7456 -0.2087 -0.0878
 1020MOL0     C37602  12.906   0.868   9.697  0.3222 -0.5876 -0.2933
 1020MOL0     C37603  13.029   0.815   9.632 -0.3974  0.0730  0.1428
 1020MOL0     C37604  13.123   0.774   9.733 -0.2033 -0.0537  0.2410
 1020MOL0     C37605  13.261   0.744   9.675 -0.1170 -0.2120 -0.1747
 1020MOL0     C37606  13.339   0.872   9.648 -0.0720  0.1624 -0.1158
 1020MOL0     C37607  13.466   0.875   9.735 -0.4389 -0.4909  0.4293
 1020MOL0     C37608  13.551   0.991   9.704  0.0470 -0.0155 -0.4413
 1020MOL0    Cl37609  13.691   1.009   9.810 -0.1924 -0.1194  0.4407
 1020MOL0     C37610  12.512   0.688   9.528 -0.1180  0.3005  0.8301
 1020MOL0     C37611  12.389   0.690   9.466  0.4094 -0.5619  0.3466
 1020MOL0     O37612  12.194   1.008   9.396  0.8515 -0.2955  0.3780
 1020MOL0     C37613  11.947   1.035   9.245  0.5666 -0.4588 -0.2967
 1020MOL0     C37614  11.822   1.021   9.182  0.1396 -0.1236 -0.1281
 1020MOL0     N37615  11.186   0.599   8.707  0.2241  0.5275 -0.2801
 1020MOL0     N37616  11.070   0.650   8.668 -0.7745 -0.8896  0.9364
 1020MOL0     C37617  10.181   1.405   9.371 -0.0459  0.4547  0.4041
 1020MOL0     C37618  10.042   1.394   9.378 -0.1194 -0.0678  0.5160
 1020MOL0     C37619   9.616   1.250   9.323  0.8518  0.0156 -0.3663
 1020MOL0     C37620   9.595   1.147   9.417  0.3639 -0.3803 -0.1213
 1020MOL0     C37621   9.473   1.096   9.443 -0.4453 -0.0938  0.4454
 1020MOL0     C37622   9.366   1.136   9.358  0.4148 -0.0262  0.0561
 1020MOL0     O37623   9.237   1.084   9.363 -0.3176  0.0912 -0.3999
 1020MOL0     C37624   9.205   0.994   9.475  0.6531  0.9840 -0.9354
 1020MOL0     C37625   9.076   0.929   9.436  0.5643  0.0793 -0.5094
 1020MOL0     C37626   8.991   0.895   9.560  0.3964  0.1867 -0.0977
 1020MOL0     C37627   9.043   0.765   9.627  0.3880  0.1607 -0.4636
 1020MOL0     C37628   8.955   0.718   9.738 -0.8662  0.2650  0.6076
 1020MOL0     C37629   8.882   0.664   9.818  0.3499  0.2711  0.3640
 1020MOL0     C37630   9.383   1.242   9.274  0.7183 -0.2344  0.8963
 1020MOL0     C37631   9.505   1.306   9.259 -0.7283  0.0789  0.5657
 1020MOL0     C37632   9.507   1.415   9.152 -0.4370  0.1219 -0.0863
 1020MOL0     H37633  10.027   1.053   9.372  0.6812  0.9434  2.6159
 1020MOL0     H37634  10.255   1.071   9.355  0.0404  0.1266 -0.7633
 1020MOL0     H37635  10.588   1.253   9.324 -0.6278 -0.3966  2.6456
 1020MOL0     H37636  10.489   1.141   9.396  0.6896  1.2435  1.3129
 1020MOL0     H37637  10.518   1.222   9.096  0.7991  0.3478  0.3991
 1020MOL0     H37638  10.375   1.135   9.136 -0.1669  1.3271 -1.0010
 1020MOL0     H37639  10.517   0.961   9.250 -1.5542  1.7228  1.1835
 1020MOL0     H37640  10.660   1.042   9.198 -0.5222  0.2490  0.9490
 1020MOL0     H37641  10.455   0.924   9.008 -0.5421  2.2014  0.1713
 1020MOL0     H37642  10.588   1.025   8.952 -1.0384 -0.7604 -1.5346
 1020MOL0     H37643  10.735   0.862   9.070 -0.2415 -0.2230  0.4939
 1020MOL0     H37644  10.592   0.766   9.115  0.1389 -1.5467  0.3224
 1020MOL0     H37645  10.586   0.666   8.892 -0.6303 -0.1589  1.3434
 1020MOL0     H37646  10.627   0.817   8.821 -0.5537  0.3045  1.6295
 1020MOL0     H37647  10.780   0.584   8.878 -1.3837  0.2549  0.0917
 1020MOL0     H37648  10.834   0.695   8.997 -0.1799 -2.3250  1.4778
 1020MOL0     H37649  10.827   0.763   8.698  0.2793  0.2295 -0.5946
 1020MOL0     H37650  10.906   0.864   8.824  0.2799 -2.4685  1.3065
 1020MOL0     H37651  11.082   0.695   8.997  0.4167  0.8204  0.3519
 1020MOL0     H37652  11.297   0.472   8.972 -0.2037 -0.1115  0.7109
 1020MOL0     H37653  11.406   0.516   8.842 -0.1170 -0.7863  1.0409
 1020MOL0     H37654  11.339   0.708   9.074  1.4839  2.6480 -0.9913
 1020MOL0     H37655  11.455   0.574   9.088  1.4167 -0.4673 -0.0331
 1020MOL0     H37656  11.475   0.812   8.905  1.9690 -0.8604 -1.6455
 1020MOL0     H37657  11.600   0.682   8.923  1.1026  1.5105  0.0549
 1020MOL0     H37658  11.623   0.734   9.161 -1.6221  0.4927  0.3050
 1020MOL0     H37659  11.501   0.856   9.158  1.0897 -0.3154  1.9448
 1020MOL0     H37660  11.832   0.711   9.068  0.0017 -1.0390  1.4524
 1020MOL0     H37661  12.057   0.715   9.176 -0.2380 -0.7461  1.1214
 1020MOL0     H37662  12.441   0.954   9.258 -0.9104  0.4876  1.0857
 1020MOL0     H37663  12.653   0.968   9.396 -0.5125  0.2193  2.2913
 1020MOL0     H37664  12.851   0.917   9.505  0.1820 -0.8874  0.2158
 1020MOL0     H37665  12.734   0.974   9.627  1.9465  2.2736 -0.5245
 1020MOL0     H37666  12.947   0.966   9.723  0.2543  0.1884 -2.8109
 1020MOL0     H37667  12.874   0.804   9.780 -2.2330 -0.8512 -1.3850
 1020MOL0     H37668  13.004   0.730   9.568 -0.2558 -0.9655  1.4287
 1020MOL0     H37669  13.080   0.884   9.563  0.4213 -0.8535 -0.1978
 1020MOL0     H37670  13.083   0.682   9.775 -2.4022 -0.5204 -2.5476
 1020MOL0     H37671  13.125   0.844   9.817  2.1913  0.5786 -0.2677
 1020MOL0     H37672  13.257   0.684   9.583  1.3644  1.7096 -1.5717
 1020MOL0     H37673  13.315   0.685   9.749  2.6774  0.8269 -1.2392
 1020MOL0     H37674  13.362   0.884   9.542 -1.5550 -1.6902 -0.6981
 1020MOL0     H37675  13.273   0.954   9.677 -0.2832 -0.2679  0.6419
 1020MOL0     H37676  13.536   0.793   9.719  0.4118  0.6394 -2.1737
 1020MOL0     H37677  13.431   0.891   9.838 -1.1800 -0.8516  0.2466
 1020MOL0     H37678  13.603   0.979   9.609  0.3903 -0.6942 -0.1752
 1020MOL0     H37679  13.496   1.085   9.716  1.0393  0.4122  0.9318
 1020MOL0     H37680  12.540   0.609   9.597  2.4026 -2.6447 -3.0965
 1020MOL0     H37681  12.309   0.624   9.497 -0.6738  0.7210  0.3330
 1020MOL0     H37682  11.960   1.134   9.289 -1.5966  0.3459 -1.3355
 1020MOL0     H37683  11.774   1.118   9.172  2.2425  0.7549 -3.8058
 1020MOL0     H37684  10.222   1.505   9.365 -2.1244  1.3496  0.1612
 1020MOL0     H37685   9.982   1.485   9.379  1.0989  0.8600 -1.7860
 1020MOL0     H37686   9.670   1.114   9.488  1.1711  2.1520  0.3151
 1020MOL0     H37687   9.471   1.027   9.527  0.2879 -0.9999 -0.2564
 1020MOL0     H37688   9.184   1.066   9.554 -1.0261  0.1421 -0.5557
 1020MOL0     H37689   9.274   0.913   9.502  0.6532  0.6590 -1.8667
 1020MOL0     H37690   9.086   0.839   9.373 -0.9221  1.0580 -2.2188
 1020MOL0     H37691   9.021   0.998   9.372  0.1375 -0.6429 -0.9308
 1020MOL0     H37692   8.890   0.869   9.527 -0.6387  1.5837  1.7820
 1020MOL0     H37693   8.982   0.982   9.625  1.5594  0.4392 -0.2624
 1020MOL0     H37694   9.055   0.682   9.557  0.7736  0.9877 -1.3993
 1020MOL0     H37695   9.141   0.792   9.670  0.4352  2.2378 -1.7146
 1020MOL0     H37696   8.823   0.608   9.888  0.3768 -0.4643 -0.1824
 1020MOL0     H37697   9.293   1.274   9.222  2.0837  2.5660  0.0685
 1020MOL0     H37698   9.548   1.374   9.059  0.2202  1.1443 -0.2700
 1020MOL0     H37699   9.405   1.453   9.138 -0.5949 -0.2788 -0.0142
 1020MOL0     H37700   9.574   1.496   9.181  2.2900 -1.7212 -0.9379
 1021MOL0     O37701   3.288   9.470   3.290 -0.5464 -0.2199  0.0459
 1021MOL0     C37702   3.226   9.429   3.199  0.5732  0.9565  0.0392
 1021MOL0     O37703   3.263   9.425   3.067  0.4884  0.2009  0.2520
 1021MOL0     C37704   3.396   9.438   3.020 -0.3199 -0.2024  0.4590
 1021MOL0     C37705   3.404   9.491   2.894 -0.2527  0.1575  0.0896
 1021MOL0     C37706   3.542   9.504   2.832  0.6934  0.3796 -0.4635
 1021MOL0     C37707   3.654   9.450   2.894 -0.9390  0.1397 -0.5371
 1021MOL0     O37708   3.788   9.462   2.847 -0.2492 -0.2770  0.2054
 1021MOL0     C37709   3.838   9.484   2.718  0.8520  0.6153  0.2731
 1021MOL0     C37710   3.977   9.447   2.735 -0.5498 -0.7761 -0.2343
 1021MOL0     C37711   3.991   9.299   2.749  0.5460  0.2666 -0.7591
 1021MOL0     C37712   4.133   9.244   2.718 -0.2077 -0.8321  1.1641
 1021MOL0     C37713   4.150   9.209   2.563 -0.1195 -0.0967 -0.8168
 1021MOL0     C37714   4.285   9.233   2.498  0.4695 -0.2596  0.3213
 1021MOL0     C37715   4.265   9.205   2.341 -0.4568  0.5400  0.1474
 1021MOL0     C37716   4.388   9.260   2.254  0.9492  0.1662  0.5727
 1021MOL0     N37717   4.526   9.201   2.289 -0.0408 -0.1515 -0.5242
 1021MOL0     C37718   4.557   9.071   2.315 -0.6135  0.0777 -0.3833
 1021MOL0     C37719   4.668   9.080   2.389 -0.3320 -0.3587 -0.2203
 1021MOL0     C37720   4.735   8.963   2.451  0.1407  0.4811 -0.3734
 1021MOL0     C37721   4.879   8.952   2.404 -0.2852 -0.4370 -0.1961
 1021MOL0     C37722   4.950   8.842   2.486  0.3150 -0.5183 -0.1621
 1021MOL0     C37723   5.084   8.796   2.431 -0.5175 -1.0410  0.8436
 1021MOL0     O37724   5.191   8.898   2.440  0.4629  0.5137  0.3627
 1021MOL0     C37725   5.306   8.860   2.503  0.5043  0.1897 -1.0295
 1021MOL0     C37726   5.377   8.750   2.468  0.4208  0.1262 -0.1075
 1021MOL0     C37727   5.505   8.726   2.510 -0.4833  0.8267  0.3024
 1021MOL0     C37728   5.561   8.804   2.610 -0.0828  0.1641 -0.6669
 1021MOL0     C37729   5.694   8.770   2.665  0.8322  0.4878 -0.6006
 1021MOL0     O37730   5.769   8.667   2.600  0.6305 -0.3955  0.0902
 1021MOL0     C37731   5.896   8.627   2.635  0.4553 -0.3584  0.2424
 1021MOL0     C37732   5.937   8.625   2.773  0.1504  0.6474  0.6080
 1021MOL0     C37733   6.053   8.558   2.796 -0.8601 -0.8289 -0.4009
 1021MOL0     C37734   6.144   8.506   2.703 -0.5774 -0.2321  1.5313
 1021MOL0     O37735   6.267   8.454   2.735 -0.4635 -0.1356 -0.7227
 1021MOL0     C37736   6.346   8.402   2.628 -0.5106 -0.5706  0.3766
 1021MOL0     C37737   6.488   8.383   2.675 -1.4289 -1.1907 -1.0459
 1021MOL0     C37738   6.547   8.503   2.744  0.1594  0.2209  0.0803
 1021MOL0     C37739   6.696   8.483   2.756 -0.1829 -0.2573 -0.3248
 1021MOL0     C37740   6.772   8.595   2.841  0.1403 -0.4006  0.3546
 1021MOL0     C37741   6.925   8.580   2.838 -0.3800  0.7819  0.6149
 1021MOL0     C37742   6.998   8.711   2.860 -0.4829 -0.0406 -0.3593
 1021MOL0     C37743   7.147   8.676   2.872  0.6718 -0.1432  0.4808
 1021MOL0    Cl37744   7.238   8.829   2.897  0.2273 -0.2633  0.2229
 1021MOL0     C37745   6.103   8.513   2.565  0.7330 -0.3706 -0.2258
 1021MOL0     C37746   5.977   8.575   2.533 -0.5355  0.5166  0.0147
 1021MOL0     O37747   5.731   8.836   2.761 -0.0839  0.1916 -0.1984
 1021MOL0     C37748   5.482   8.914   2.656 -0.3152  0.4320  0.1426
 1021MOL0     C37749   5.350   8.936   2.601 -0.4687 -0.1496 -0.2294
 1021MOL0     N37750   4.712   9.210   2.394  0.2108 -0.1443 -0.3650
 1021MOL0     N37751   4.622   9.286   2.349  0.0349  0.2258 -0.2633
 1021MOL0     C37752   3.639   9.403   3.030  1.4571 -0.8085  0.0596
 1021MOL0     C37753   3.512   9.399   3.094 -0.6951  0.0557 -0.4179
 1021MOL0     C37754   3.090   9.396   3.226  0.2234  0.1973  0.0784
 1021MOL0     C37755   3.003   9.353   3.118 -0.3461 -0.2206 -0.5124
 1021MOL0     C37756   2.875   9.303   3.132 -0.3626  0.3639 -0.2855
 1021MOL0     C37757   2.821   9.304   3.263 -0.2756 -0.3009  0.2457
 1021MOL0     O37758   2.699   9.240   3.273  0.0470  0.8155 -0.2811
 1021MOL0     C37759   2.627   9.250   3.398 -1.1906 -0.7714  0.8308
 1021MOL0     C37760   2.495   9.170   3.386 -0.0483 -0.0967 -0.4830
 1021MOL0     C37761   2.378   9.250   3.327 -0.2362 -0.6035  1.4637
 1021MOL0     C37762   2.240   9.201   3.355 -0.2146 -0.0423  0.5335
 1021MOL0     C37763   2.153   9.316   3.328  0.3927 -0.0123  0.2767
 1021MOL0     C37764   2.069   9.404   3.303  0.0907 -0.5323  0.4309
 1021MOL0     C37765   2.900   9.352   3.368  0.2887  0.3992 -0.9784
 1021MOL0     C37766   3.029   9.398   3.356  0.3891 -0.3139  0.5677
 1021MOL0     C37767   3.091   9.454   3.488 -0.0653 -0.4954  0.7500
 1021MOL0     H37768   3.317   9.533   2.845 -1.7178 -2.9561 -0.1782
 1021MOL0     H37769   3.560   9.556   2.738  0.4069 -0.5052 -1.0252
 1021MOL0     H37770   3.790   9.425   2.639  2.2329 -1.2893  0.7827
 1021MOL0     H37771   3.830   9.589   2.691 -0.0572  1.5705  3.7695
 1021MOL0     H37772   4.023   9.504   2.816  0.7202 -0.1568 -1.3460
 1021MOL0     H37773   4.029   9.483   2.646  2.8349  2.8056  2.8247
 1021MOL0     H37774   3.910   9.246   2.698 -0.7369 -2.1577  3.3739
 1021MOL0     H37775   3.981   9.285   2.857  2.7934  3.2227 -0.0357
 1021MOL0     H37776   4.195   9.330   2.747 -0.0392 -0.0971 -1.1031
 1021MOL0     H37777   4.147   9.150   2.771 -0.7036 -0.7338  1.4704
 1021MOL0     H37778   4.123   9.104   2.547  0.1808 -0.4065  0.5713
 1021MOL0     H37779   4.077   9.272   2.512 -0.8039  0.7640  1.1398
 1021MOL0     H37780   4.319   9.336   2.510  0.3071  0.0647 -1.6637
 1021MOL0     H37781   4.364   9.177   2.547 -0.1269 -2.0728 -0.6897
 1021MOL0     H37782   4.167   9.239   2.305 -0.1943  1.0676 -0.0691
 1021MOL0     H37783   4.273   9.097   2.328 -1.0856  0.7048 -2.0322
 1021MOL0     H37784   4.369   9.233   2.150  3.6640  0.0899  0.0335
 1021MOL0     H37785   4.397   9.369   2.246 -2.4213  0.6569  1.6796
 1021MOL0     H37786   4.497   8.983   2.294 -0.7534  0.2346 -0.6660
 1021MOL0     H37787   4.723   8.979   2.559 -2.3188  3.0019 -0.9115
 1021MOL0     H37788   4.684   8.871   2.424  0.0027 -0.7217  3.3860
 1021MOL0     H37789   4.885   8.924   2.298 -0.9397  1.2343 -0.7063
 1021MOL0     H37790   4.926   9.050   2.417 -2.1775  0.5461 -0.3312
 1021MOL0     H37791   4.876   8.762   2.493 -0.2235  0.1060  1.7909
 1021MOL0     H37792   4.974   8.888   2.582  1.1119 -1.1184 -0.0635
 1021MOL0     H37793   5.076   8.768   2.325  1.2325  1.0364  0.0839
 1021MOL0     H37794   5.112   8.706   2.487 -0.5644  1.0332  4.4733
 1021MOL0     H37795   5.337   8.705   2.377  0.0533  1.3402 -0.5675
 1021MOL0     H37796   5.562   8.656   2.448 -0.7625 -0.8885  1.8843
 1021MOL0     H37797   5.885   8.669   2.859 -2.4376  0.8667 -0.9442
 1021MOL0     H37798   6.095   8.570   2.896  0.6450 -1.1570 -0.9719
 1021MOL0     H37799   6.303   8.309   2.589 -5.7735  1.8535 -0.5907
 1021MOL0     H37800   6.349   8.481   2.552  0.5657  1.0355  1.9898
 1021MOL0     H37801   6.479   8.299   2.744 -1.4969 -0.7688 -0.5312
 1021MOL0     H37802   6.551   8.359   2.589  2.4883  1.2032  0.8353
 1021MOL0     H37803   6.523   8.597   2.692  0.0327 -1.3572 -2.9512
 1021MOL0     H37804   6.505   8.497   2.845  1.4745 -0.7747  0.5887
 1021MOL0     H37805   6.751   8.475   2.662  1.3617  3.8143  0.0348
 1021MOL0     H37806   6.707   8.392   2.817  0.4919 -0.3548 -0.5865
 1021MOL0     H37807   6.731   8.588   2.942  2.2082 -0.6785  1.2258
 1021MOL0     H37808   6.746   8.691   2.797  2.5168  0.1615  0.0402
 1021MOL0     H37809   6.960   8.496   2.899  1.0053  1.1668  0.3842
 1021MOL0     H37810   6.959   8.545   2.740  1.4732 -0.9105  1.7747
 1021MOL0     H37811   6.974   8.758   2.955  4.9251  1.0969  0.7573
 1021MOL0     H37812   6.994   8.786   2.781 -1.4793 -0.7239 -0.9837
 1021MOL0     H37813   7.148   8.605   2.956 -4.0660 -2.2420 -0.8779
 1021MOL0     H37814   7.188   8.623   2.785  0.8017 -1.3779  1.2552
 1021MOL0     H37815   6.141   8.465   2.475 -0.0793  0.5123 -1.0639
 1021MOL0     H37816   5.955   8.569   2.428  1.5061 -2.3830 -0.3712
 1021MOL0     H37817   5.516   8.989   2.727 -0.7274  0.9070 -0.1589
 1021MOL0     H37818   5.286   9.021   2.622  0.5137  0.7917 -0.9542
 1021MOL0     H37819   3.726   9.363   3.080  0.2990 -2.5554  0.7584
 1021MOL0     H37820   3.512   9.349   3.190  2.5848 -1.1263 -0.9108
 1021MOL0     H37821   3.042   9.360   3.017  0.6101  1.6294 -0.0647
 1021MOL0     H37822   2.832   9.274   3.037  2.7567 -0.9176 -1.4568
 1021MOL0     H37823   2.606   9.356   3.418  1.4033  0.3555 -1.6228
 1021MOL0     H37824   2.695   9.201   3.468  2.2500 -1.9260 -2.9082
 1021MOL0     H37825   2.464   9.141   3.487 -2.0861 -1.3274 -1.3937
 1021MOL0     H37826   2.517   9.083   3.324  0.0835 -1.6431  1.6612
 1021MOL0     H37827   2.396   9.264   3.219  2.7365  0.7382  2.0180
 1021MOL0     H37828   2.381   9.347   3.376 -1.6458 -0.3505  1.0909
 1021MOL0     H37829   2.226   9.111   3.294 -0.8722  0.2017  0.3222
 1021MOL0     H37830   2.222   9.184   3.462 -2.4574 -3.0282 -0.1994
 1021MOL0     H37831   1.989   9.474   3.292 -0.0618 -0.7073  0.4169
 1021MOL0     H37832   2.863   9.329   3.468  2.2332 -4.9467 -1.2116
 1021MOL0     H37833   3.012   9.444   3.563 -0.1101 -0.8952  0.6544
 1021MOL0     H37834   3.174   9.393   3.528  1.3728  1.9117  1.6563
 1021MOL0     H37835   3.136   9.554   3.486  1.0052 -0.9629 -0.0486
 1022MOL0     O37836   5.044   1.664   4.636 -0.9411  0.0336 -1.0636
 1022MOL0     C37837   5.055   1.732   4.536 -0.1149  0.5262  0.2619
 1022MOL0     O37838   5.177   1.767   4.480  0.0481  0.4269  0.2943
 1022MOL0     C37839   5.297   1.716   4.537  1.2372  0.2349 -0.1306
 1022MOL0     C37840   5.400   1.698   4.450 -0.9248  0.1261 -0.8571
 1022MOL0     C37841   5.529   1.656   4.496 -0.5718 -0.1803 -0.7862
 1022MOL0     C37842   5.551   1.639   4.636  0.0598 -0.4553 -0.6068
 1022MOL0     O37843   5.682   1.616   4.673 -0.3106  0.4203 -0.1081
 1022MOL0     C37844   5.719   1.678   4.799  0.3588 -0.3158  1.0327
 1022MOL0     C37845   5.865   1.657   4.829 -0.2904  0.2366  0.3056
 1022MOL0     C37846   5.914   1.738   4.953  0.0744 -0.1129  1.1867
 1022MOL0     C37847   5.972   1.645   5.057  0.0461  0.2264 -0.0225
 1022MOL0     C37848   6.048   1.720   5.172 -1.0872  0.6684 -0.2722
 1022MOL0     C37849   6.163   1.816   5.128 -0.9200 -0.5680 -0.2363
 1022MOL0     C37850   6.271   1.739   5.052  0.1085  0.3706  0.3401
 1022MOL0     C37851   6.383   1.833   5.009  0.1170 -0.5383 -0.8233
 1022MOL0     N37852   6.473   1.881   5.117  0.7164 -0.5030 -0.0174
 1022MOL0     C37853   6.480   2.012   5.163  0.2108  0.2250  0.5727
 1022MOL0     C37854   6.587   2.015   5.242 -0.4985 -0.2416  0.2543
 1022MOL0     C37855   6.640   2.133   5.313  0.2103 -0.4237 -0.2525
 1022MOL0     C37856   6.772   2.182   5.260 -0.0400 -0.4260  0.7637
 1022MOL0     C37857   6.890   2.084   5.260  0.9231 -0.6715  0.9030
 1022MOL0     C37858   6.924   2.029   5.394 -0.8665  0.0509  0.1986
 1022MOL0     O37859   7.030   1.928   5.394  0.0523 -0.2845 -0.6984
 1022MOL0     C37860   7.159   1.955   5.420 -0.4552 -0.4862 -0.1578
 1022MOL0     C37861   7.240   1.851   5.459  0.6312  0.4158 -0.1928
 1022MOL0     C37862   7.370   1.863   5.501 -0.6201  0.6303  0.0897
 1022MOL0     C37863   7.429   1.989   5.495  0.5200 -1.4944 -0.0204
 1022MOL0     C37864   7.567   2.010   5.545  0.4115  0.1061 -0.0514
 1022MOL0     O37865   7.627   2.131   5.509 -0.2709 -0.1377  0.1321
 1022MOL0     C37866   7.757   2.130   5.552  0.4490  0.2858  0.0092
 1022MOL0     C37867   7.790   2.176   5.684  0.2812  0.1309  0.6321
 1022MOL0     C37868   7.919   2.210   5.715 -0.7518  0.4013 -0.3718
 1022MOL0     C37869   8.020   2.178   5.622 -0.3717 -1.3753 -0.2097
 1022MOL0     O37870   8.145   2.206   5.670 -0.6042 -0.9492  0.0820
 1022MOL0     C37871   8.257   2.130   5.620 -0.2873 -0.2180 -0.7640
 1022MOL0     C37872   8.382   2.152   5.718  0.0513  0.9288  0.0075
 1022MOL0     C37873   8.430   2.296   5.702  0.4117  0.4758 -0.1244
 1022MOL0     C37874   8.503   2.357   5.821  0.0404  0.2474  0.4582
 1022MOL0     C37875   8.640   2.320   5.816 -0.4842  0.0608 -0.2634
 1022MOL0     C37876   8.747   2.370   5.920 -0.3130 -0.7485 -0.5372
 1022MOL0     C37877   8.707   2.332   6.063  0.8282  0.0936  0.5456
 1022MOL0     C37878   8.808   2.377   6.173  0.2288  0.3392  0.3710
 1022MOL0    Cl37879   8.965   2.305   6.143  0.0884  0.0494  0.2411
 1022MOL0     C37880   7.992   2.133   5.496  0.4527 -0.7691 -0.4118
 1022MOL0     C37881   7.864   2.106   5.456 -0.0367  0.0818 -0.0973
 1022MOL0     O37882   7.620   1.911   5.599 -0.0626 -0.3574  0.6004
 1022MOL0     C37883   7.355   2.103   5.452 -0.8813  0.0913  0.7102
 1022MOL0     C37884   7.220   2.081   5.415  0.1676  0.2044  0.5166
 1022MOL0     N37885   6.646   1.895   5.242 -0.3907  0.0546 -0.4138
 1022MOL0     N37886   6.584   1.819   5.159 -0.5388 -1.5972 -0.6440
 1022MOL0     C37887   5.441   1.657   4.728 -0.2858  0.6386  0.3584
 1022MOL0     C37888   5.319   1.700   4.676  0.1501 -0.7541  0.3897
 1022MOL0     C37889   4.931   1.777   4.469  0.0827  0.5634  0.0118
 1022MOL0     C37890   4.813   1.711   4.511  0.1647 -0.4749 -0.7322
 1022MOL0     C37891   4.689   1.745   4.451  1.0285 -0.0478  0.3252
 1022MOL0     C37892   4.680   1.841   4.353  1.0444 -0.4632  0.1023
 1022MOL0     O37893   4.558   1.879   4.303  0.0942  0.5897  0.0940
 1022MOL0     C37894   4.442   1.883   4.384  0.4143  0.4806  0.4889
 1022MOL0     C37895   4.321   1.949   4.312 -0.5738  0.5858 -0.9408
 1022MOL0     C37896   4.351   2.087   4.250  0.3197  0.4579 -0.0547
 1022MOL0     C37897   4.217   2.164   4.214 -0.3909  0.7407  0.1795
 1022MOL0     C37898   4.254   2.303   4.198 -0.4344  0.3996  0.5045
 1022MOL0     C37899   4.285   2.423   4.206 -0.5560  0.4862 -0.2837
 1022MOL0     C37900   4.797   1.894   4.310 -0.0849 -0.0481  0.0609
 1022MOL0     C37901   4.922   1.869   4.369 -0.1493  0.0730  0.1280
 1022MOL0     C37902   5.041   1.942   4.305  0.1388  0.0589 -0.7484
 1022MOL0     H37903   5.406   1.715   4.343  2.9017  0.7536 -0.6929
 1022MOL0     H37904   5.602   1.646   4.417 -2.5667 -0.3946 -2.7040
 1022MOL0     H37905   5.699   1.786   4.797 -3.3607 -0.8710 -0.7551
 1022MOL0     H37906   5.667   1.636   4.885 -0.4139 -1.9359 -0.1811
 1022MOL0     H37907   5.914   1.696   4.739  0.7361 -0.1394  0.6879
 1022MOL0     H37908   5.899   1.553   4.822 -1.1305 -0.0594  0.4692
 1022MOL0     H37909   5.827   1.790   4.994  0.4047  2.1649 -0.7717
 1022MOL0     H37910   5.988   1.809   4.915 -0.8775 -1.3447 -3.5747
 1022MOL0     H37911   5.906   1.572   5.105  1.2207 -1.4285 -0.8208
 1022MOL0     H37912   6.048   1.587   5.005  1.9960  2.6340 -0.0578
 1022MOL0     H37913   5.983   1.774   5.241  2.5195  0.8742  3.3420
 1022MOL0     H37914   6.086   1.646   5.243 -1.7405  1.3805  0.8456
 1022MOL0     H37915   6.117   1.889   5.061 -0.7060  0.0266  0.2603
 1022MOL0     H37916   6.217   1.868   5.207  0.4338 -2.1696 -0.0473
 1022MOL0     H37917   6.240   1.692   4.958 -2.5869  0.8360  0.9302
 1022MOL0     H37918   6.296   1.655   5.118 -0.7109  0.3114  0.5740
 1022MOL0     H37919   6.459   1.786   4.947  1.6943  2.3895 -1.2958
 1022MOL0     H37920   6.344   1.921   4.957  1.9095  0.4612 -0.5562
 1022MOL0     H37921   6.417   2.097   5.138  1.6405  0.8199 -1.2937
 1022MOL0     H37922   6.563   2.208   5.329  0.8569  0.0801  0.6192
 1022MOL0     H37923   6.660   2.093   5.414 -2.4027 -0.7702  0.1867
 1022MOL0     H37924   6.750   2.229   5.164 -2.0920 -2.0385  0.3634
 1022MOL0     H37925   6.801   2.266   5.323  1.2407  1.6253 -2.3509
 1022MOL0     H37926   6.975   2.141   5.221  2.9498 -3.6095  0.7498
 1022MOL0     H37927   6.878   2.000   5.190 -0.5669 -0.5918  1.0215
 1022MOL0     H37928   6.832   1.985   5.433 -0.6741 -0.5936 -0.0487
 1022MOL0     H37929   6.955   2.109   5.461  1.1202  0.1231 -0.7473
 1022MOL0     H37930   7.184   1.759   5.469 -0.5524  1.1895  0.5469
 1022MOL0     H37931   7.425   1.770   5.517  0.3065  1.5426  2.8972
 1022MOL0     H37932   7.714   2.197   5.759  0.3199  0.2549  0.6370
 1022MOL0     H37933   7.944   2.264   5.806  1.3502  1.4507 -1.4967
 1022MOL0     H37934   8.224   2.025   5.620 -1.6364  0.1927 -0.9604
 1022MOL0     H37935   8.280   2.159   5.517  0.4585  0.6712 -0.3564
 1022MOL0     H37936   8.342   2.127   5.817  0.2783 -0.8637 -0.3177
 1022MOL0     H37937   8.453   2.072   5.696 -1.9197 -0.2954 -2.6004
 1022MOL0     H37938   8.490   2.299   5.611  1.4860 -0.1377  0.5563
 1022MOL0     H37939   8.347   2.366   5.685 -0.6771 -0.0504  2.5285
 1022MOL0     H37940   8.452   2.334   5.915 -1.1675  1.1747  0.0587
 1022MOL0     H37941   8.505   2.466   5.826  0.4440  0.4644 -2.6715
 1022MOL0     H37942   8.668   2.363   5.719  0.4032 -0.9351 -0.4708
 1022MOL0     H37943   8.646   2.211   5.814  0.8148  0.0599  1.2594
 1022MOL0     H37944   8.849   2.343   5.892 -0.2602  0.8063 -2.0714
 1022MOL0     H37945   8.736   2.479   5.909 -0.6951 -0.4909  1.8561
 1022MOL0     H37946   8.693   2.223   6.066 -1.4119  0.2256 -2.0945
 1022MOL0     H37947   8.612   2.380   6.086  0.2149 -0.8114 -0.0255
 1022MOL0     H37948   8.821   2.485   6.170  2.6847  0.2273  2.9762
 1022MOL0     H37949   8.756   2.344   6.263 -3.9961  0.6369 -1.7043
 1022MOL0     H37950   8.074   2.119   5.426  1.0567  1.4123 -0.2039
 1022MOL0     H37951   7.828   2.068   5.360 -3.5347 -2.3449  1.9625
 1022MOL0     H37952   7.401   2.201   5.442 -0.0451 -0.0935  2.3721
 1022MOL0     H37953   7.154   2.162   5.385  0.8031  0.7832  0.6809
 1022MOL0     H37954   5.453   1.641   4.835 -0.0366 -1.3345  0.0686
 1022MOL0     H37955   5.244   1.710   4.754  0.4213  1.7233  0.4163
 1022MOL0     H37956   4.813   1.634   4.587 -1.8980  1.4014  1.3502
 1022MOL0     H37957   4.600   1.697   4.491  0.1870  3.1233  2.6299
 1022MOL0     H37958   4.478   1.950   4.463  1.1355  0.3555  0.2736
 1022MOL0     H37959   4.404   1.790   4.428 -0.3293  0.4306 -0.2291
 1022MOL0     H37960   4.246   1.961   4.391  1.0218  4.7734  0.1727
 1022MOL0     H37961   4.273   1.889   4.233  0.6648 -0.3515 -1.0147
 1022MOL0     H37962   4.421   2.091   4.166  2.2812 -0.3552  1.4836
 1022MOL0     H37963   4.397   2.145   4.330 -1.2050 -1.3049  2.2100
 1022MOL0     H37964   4.178   2.132   4.117 -2.6961  0.2759  1.1956
 1022MOL0     H37965   4.145   2.124   4.286  2.3145 -1.5287  1.8413
 1022MOL0     H37966   4.319   2.524   4.214 -2.1286  1.0095  0.0906
 1022MOL0     H37967   4.789   1.956   4.221  3.7568 -1.1293 -1.2655
 1022MOL0     H37968   5.011   2.019   4.234  0.1041  0.1268 -0.6601
 1022MOL0     H37969   5.088   1.992   4.390 -2.1889  0.3633  0.4393
 1022MOL0     H37970   5.111   1.870   4.260  0.3749 -0.8644  1.0112
 1023MOL0     O37971   5.818   0.389   2.399  0.0680 -0.4400  0.1430
 1023MOL0     C37972   5.784   0.274   2.387 -0.2784  0.2578 -0.2432
 1023MOL0     O37973   5.854   0.167   2.439  0.1380  0.2337 -0.2643
 1023MOL0     C37974   5.972   0.198   2.501 -0.9229 -1.2043  0.4146
 1023MOL0     C37975   5.977   0.270   2.625  0.4084 -0.5472 -0.0156
 1023MOL0     C37976   6.105   0.274   2.696  0.5839 -0.2365  0.4343
 1023MOL0     C37977   6.214   0.204   2.652  1.0591 -0.1591 -0.4555
 1023MOL0     O37978   6.327   0.235   2.724  0.0963  0.0453 -0.1401
 1023MOL0     C37979   6.449   0.255   2.660  0.1527  0.1681  0.0464
 1023MOL0     C37980   6.551   0.302   2.768 -0.0625  0.1643  0.6851
 1023MOL0     C37981   6.618   0.439   2.744  0.7480  0.5664  0.8478
 1023MOL0     C37982   6.732   0.424   2.647  0.2987 -0.8939 -0.0339
 1023MOL0     C37983   6.831   0.538   2.634 -0.2005 -0.1300  0.5330
 1023MOL0     C37984   6.881   0.597   2.765  0.6853  0.3334  0.1815
 1023MOL0     C37985   6.998   0.680   2.724 -0.3069 -0.8790  0.0912
 1023MOL0     C37986   7.060   0.757   2.839  0.1661 -0.1001  0.7149
 1023MOL0     N37987   7.080   0.679   2.967 -0.2135 -0.3305  0.3208
 1023MOL0     C37988   7.203   0.615   2.984  0.1682  0.1834 -0.5538
 1023MOL0     C37989   7.179   0.533   3.089 -0.6475  0.1930  0.0408
 1023MOL0     C37990   7.288   0.448   3.153  0.5850  0.5228 -0.6243
 1023MOL0     C37991   7.277   0.309   3.096 -0.1518  0.5216  0.0428
 1023MOL0     C37992   7.377   0.195   3.150 -0.0601  0.1110  0.0831
 1023MOL0     C37993   7.391   0.181   3.301  0.4872 -0.6941 -0.4795
 1023MOL0     O37994   7.470   0.063   3.333 -0.1562 -0.0293  0.2551
 1023MOL0     C37995   7.600   0.065   3.287  0.7602 -0.1348 -0.1824
 1023MOL0     C37996   7.683   0.185   3.309 -0.1123 -0.1372  0.1842
 1023MOL0     C37997   7.816   0.177   3.275  0.2784  0.2923 -1.1939
 1023MOL0     C37998   7.881   0.062   3.232  0.7508 -0.0382 -0.5378
 1023MOL0     C37999   8.024   0.054   3.198  0.9647 -0.5028  1.2820
 1023MOL0     O38000   8.089  -0.056   3.222  0.5691  0.4866  0.3973
 1023MOL0     C38001   8.223  -0.085   3.190  0.1319  0.7579  0.0951
 1023MOL0     C38002   8.304  -0.008   3.102 -0.8390  0.4097  0.5360
 1023MOL0     C38003   8.433  -0.048   3.076 -0.3745  0.1254  0.1293
 1023MOL0     C38004   8.500  -0.152   3.151  0.0389 -0.2931  0.1013
 1023MOL0     O38005   8.633  -0.165   3.127  0.0570 -0.4868  0.9006
 1023MOL0     C38006   8.703  -0.237   3.223 -0.2464  0.5162 -0.0187
 1023MOL0     C38007   8.719  -0.385   3.173  0.2076 -0.3078  0.0480
 1023MOL0     C38008   8.848  -0.407   3.092 -0.2112  0.2589 -0.7550
 1023MOL0     C38009   8.982  -0.403   3.178 -0.1771  0.1008  0.4220
 1023MOL0     C38010   9.099  -0.452   3.095 -0.4552 -0.9078  0.2979
 1023MOL0     C38011   9.228  -0.460   3.171 -0.5617 -0.2150  0.3219
 1023MOL0     C38012   9.353  -0.481   3.067  0.0077 -0.7146 -0.0842
 1023MOL0     C38013   9.472  -0.515   3.152 -0.5348  0.8511 -0.6486
 1023MOL0    Cl38014   9.452  -0.653   3.270 -0.2695 -0.2575  0.6200
 1023MOL0     C38015   8.408  -0.233   3.229 -0.0215 -0.5716  0.2754
 1023MOL0     C38016   8.270  -0.202   3.245  0.7079 -0.1486 -1.3358
 1023MOL0     O38017   8.065   0.152   3.133 -0.6626 -0.3416 -0.0612
 1023MOL0     C38018   7.802  -0.057   3.229 -0.6360 -0.0458  0.4478
 1023MOL0     C38019   7.662  -0.049   3.250  0.0832 -0.3282 -1.5333
 1023MOL0     N38020   7.055   0.547   3.138  0.2168 -0.2804  0.6117
 1023MOL0     N38021   6.996   0.640   3.063  0.0845 -0.6989 -0.6321
 1023MOL0     C38022   6.209   0.143   2.522  0.4228 -0.7954 -0.3815
 1023MOL0     C38023   6.088   0.145   2.447  0.0574  0.1231 -0.7845
 1023MOL0     C38024   5.668   0.235   2.313 -0.6497  1.2876  0.0006
 1023MOL0     C38025   5.658   0.105   2.257 -0.7598  0.2744  0.6916
 1023MOL0     C38026   5.542   0.042   2.206  0.1870  0.3825 -0.7495
 1023MOL0     C38027   5.427   0.121   2.204  0.7391  0.6565  0.4379
 1023MOL0     O38028   5.307   0.072   2.156 -0.3382 -0.4338 -1.0853
 1023MOL0     C38029   5.290  -0.063   2.123  1.0307 -0.2270  0.3944
 1023MOL0     C38030   5.145  -0.083   2.083  0.1335  0.6596  0.1683
 1023MOL0     C38031   5.031  -0.044   2.184 -0.1737 -1.1062 -0.4879
 1023MOL0     C38032   4.886  -0.055   2.122  0.1359 -0.7041  1.2589
 1023MOL0     C38033   4.881  -0.003   1.986 -0.2976 -0.8916  0.4389
 1023MOL0     C38034   4.892   0.032   1.870 -0.3596 -0.2564 -0.5411
 1023MOL0     C38035   5.429   0.247   2.256  0.4154  0.0102  0.1469
 1023MOL0     C38036   5.552   0.306   2.308  0.4673  0.1090 -0.9069
 1023MOL0     C38037   5.526   0.447   2.356 -0.8478 -0.0252  0.2649
 1023MOL0     H38038   5.883   0.308   2.663 -0.6098 -2.5034 -0.4702
 1023MOL0     H38039   6.113   0.339   2.782 -3.0549  1.7743 -0.5042
 1023MOL0     H38040   6.500   0.174   2.607  2.1849  0.4495  1.4473
 1023MOL0     H38041   6.444   0.340   2.591 -1.0664  0.7427  0.8108
 1023MOL0     H38042   6.616   0.215   2.779 -0.9738 -1.0275 -2.2260
 1023MOL0     H38043   6.500   0.309   2.864  2.6423  1.9837  2.1122
 1023MOL0     H38044   6.667   0.467   2.838  1.7083 -1.8664  1.1419
 1023MOL0     H38045   6.546   0.514   2.711 -0.8815 -0.5632  1.7256
 1023MOL0     H38046   6.790   0.338   2.682  2.1975 -0.6013 -2.2301
 1023MOL0     H38047   6.692   0.417   2.546 -1.1210 -0.1784  0.4465
 1023MOL0     H38048   6.907   0.508   2.562 -1.1553 -2.6684  0.4865
 1023MOL0     H38049   6.776   0.615   2.579 -0.6375 -1.8778 -1.5881
 1023MOL0     H38050   6.801   0.653   2.815  0.6200  2.0245 -1.6699
 1023MOL0     H38051   6.906   0.517   2.835 -1.0556 -1.9636 -1.6701
 1023MOL0     H38052   6.959   0.750   2.651  1.0819  0.4066  0.5153
 1023MOL0     H38053   7.068   0.607   2.682 -0.2942 -0.6156 -0.3542
 1023MOL0     H38054   7.163   0.774   2.804 -0.0424 -3.0522 -1.7330
 1023MOL0     H38055   7.005   0.850   2.858 -0.3832  0.3312 -2.5595
 1023MOL0     H38056   7.302   0.633   2.943 -0.4062  0.8177 -1.7016
 1023MOL0     H38057   7.385   0.484   3.116  0.5596  0.2561 -0.9521
 1023MOL0     H38058   7.279   0.450   3.262  2.3886 -0.4271 -0.4099
 1023MOL0     H38059   7.178   0.266   3.112  0.0408  0.0643 -0.0003
 1023MOL0     H38060   7.284   0.313   2.987 -0.9767  0.6938 -0.0103
 1023MOL0     H38061   7.474   0.212   3.102  0.5130 -3.8164 -0.4820
 1023MOL0     H38062   7.350   0.096   3.113  2.3982 -0.7174  0.3194
 1023MOL0     H38063   7.290   0.169   3.341  0.6739  0.0147  0.2131
 1023MOL0     H38064   7.438   0.270   3.342 -0.7201 -0.3846  0.2734
 1023MOL0     H38065   7.651   0.273   3.363 -0.7301 -1.8289  2.7198
 1023MOL0     H38066   7.870   0.270   3.291 -0.0120  0.0553  1.6585
 1023MOL0     H38067   8.271   0.081   3.049 -1.4211 -0.4692 -0.6335
 1023MOL0     H38068   8.492   0.022   3.017 -1.5785  1.8503  0.8915
 1023MOL0     H38069   8.804  -0.197   3.234  0.0479 -0.3924  0.6649
 1023MOL0     H38070   8.663  -0.218   3.322  0.4070 -1.8138  0.7698
 1023MOL0     H38071   8.726  -0.454   3.258  0.4286  0.6139  0.7971
 1023MOL0     H38072   8.640  -0.423   3.109 -1.2317  2.2440  0.1917
 1023MOL0     H38073   8.850  -0.499   3.034  0.0193 -3.3435  4.2600
 1023MOL0     H38074   8.849  -0.323   3.022 -3.3250  1.9257  0.9633
 1023MOL0     H38075   8.966  -0.467   3.265 -2.7262  1.0105  0.7165
 1023MOL0     H38076   9.006  -0.304   3.219  0.9362  0.5190 -1.1060
 1023MOL0     H38077   9.112  -0.393   3.004  1.4719 -2.0777 -0.2454
 1023MOL0     H38078   9.083  -0.553   3.055  1.8553 -2.0429  2.0344
 1023MOL0     H38079   9.244  -0.370   3.231 -0.3105 -0.5192  0.7135
 1023MOL0     H38080   9.225  -0.532   3.252  0.5614 -0.0722  0.5051
 1023MOL0     H38081   9.364  -0.399   2.995  1.5235 -0.9285 -0.1251
 1023MOL0     H38082   9.339  -0.572   3.007 -1.4267 -0.6118  0.0638
 1023MOL0     H38083   9.556  -0.520   3.081 -0.1459  2.2754 -0.3347
 1023MOL0     H38084   9.481  -0.430   3.220 -0.7103  0.4457 -0.1208
 1023MOL0     H38085   8.428  -0.327   3.281 -3.3569 -0.8714  1.2535
 1023MOL0     H38086   8.204  -0.265   3.303  0.6769  0.7397 -0.3894
 1023MOL0     H38087   7.854  -0.144   3.192 -0.3204  0.5269 -0.4738
 1023MOL0     H38088   7.601  -0.138   3.239  0.4552 -0.3641 -3.7927
 1023MOL0     H38089   6.288   0.072   2.500  0.7269  0.0543 -2.2362
 1023MOL0     H38090   6.084   0.084   2.357  1.2497 -0.9671 -0.1307
 1023MOL0     H38091   5.739   0.038   2.284 -1.0359 -0.0842  0.6364
 1023MOL0     H38092   5.538  -0.065   2.188 -1.0366  0.4894 -1.2118
 1023MOL0     H38093   5.308  -0.123   2.213  0.2085  0.2005  0.8609
 1023MOL0     H38094   5.354  -0.097   2.041  0.0590  2.0737 -1.4389
 1023MOL0     H38095   5.131  -0.187   2.052  0.2554  0.8051 -0.3794
 1023MOL0     H38096   5.130  -0.021   1.994  0.5105 -1.5172 -1.5042
 1023MOL0     H38097   5.049   0.058   2.219 -3.6349 -0.6439  0.3855
 1023MOL0     H38098   5.040  -0.105   2.275  1.5484  0.3935  0.4041
 1023MOL0     H38099   4.851  -0.158   2.113 -1.1519 -0.0792 -2.9302
 1023MOL0     H38100   4.802  -0.003   2.171 -2.1441 -1.2845 -1.7208
 1023MOL0     H38101   4.900   0.045   1.764  0.4681 -1.1491 -0.6031
 1023MOL0     H38102   5.331   0.291   2.271 -1.7460 -4.2615  0.1208
 1023MOL0     H38103   5.620   0.501   2.340 -2.5479  2.6890 -1.2548
 1023MOL0     H38104   5.447   0.498   2.300 -0.5693  1.3976  1.1261
 1023MOL0     H38105   5.505   0.460   2.462  1.3467  1.1329  0.6049
 1024MOL0     O38106  11.309   7.481   0.149  0.4822 -0.3538 -0.4461
 1024MOL0     C38107  11.241   7.572   0.198 -0.1065 -0.0838 -0.0126
 1024MOL0     O38108  11.288   7.704   0.226  0.2809 -0.1989  0.4133
 1024MOL0     C38109  11.408   7.746   0.189 -0.3439  0.3033 -0.7252
 1024MOL0     C38110  11.473   7.834   0.281  0.9877  0.3697  0.3260
 1024MOL0     C38111  11.592   7.896   0.248  0.0516  0.7224 -0.3235
 1024MOL0     C38112  11.647   7.873   0.118 -0.3708  0.2779 -0.0509
 1024MOL0     O38113  11.759   7.949   0.095  0.9309  0.2404  0.3836
 1024MOL0     C38114  11.874   7.864   0.070 -0.1197 -0.6514  0.2545
 1024MOL0     C38115  11.915   7.872  -0.075 -0.0802 -0.6157  0.3187
 1024MOL0     C38116  12.004   7.761  -0.115  0.9995 -0.9794  0.4178
 1024MOL0     C38117  12.023   7.756  -0.269 -0.2062 -0.2749  0.8778
 1024MOL0     C38118  12.099   7.631  -0.307  0.3166 -0.0968 -1.0360
 1024MOL0     C38119  12.103   7.612  -0.454  0.7873 -0.0649  0.5590
 1024MOL0     C38120  12.137   7.472  -0.507 -0.5305  0.3384  0.2285
 1024MOL0     C38121  12.260   7.463  -0.598  0.0153  0.1546  0.5541
 1024MOL0     N38122  12.377   7.502  -0.524 -0.2926  0.0938 -0.1927
 1024MOL0     C38123  12.446   7.619  -0.546  0.7554 -1.1123  0.2224
 1024MOL0     C38124  12.524   7.629  -0.432  0.0710  0.6545 -0.4805
 1024MOL0     C38125  12.606   7.751  -0.399 -0.3902 -0.2049 -0.1857
 1024MOL0     C38126  12.737   7.750  -0.483  0.4563  0.2436  0.4984
 1024MOL0     C38127  12.845   7.666  -0.402  0.3232 -0.2475  0.1231
 1024MOL0     C38128  12.969   7.667  -0.481 -1.1366  0.7795 -0.3231
 1024MOL0     O38129  13.054   7.563  -0.427 -0.2370  0.8392  0.1309
 1024MOL0     C38130  13.188   7.564  -0.462  0.4370 -0.2600  0.3231
 1024MOL0     C38131  13.255   7.657  -0.546 -0.1888 -0.3318 -0.1265
 1024MOL0     C38132  13.392   7.659  -0.559 -0.0382  0.3161  0.3750
 1024MOL0     C38133  13.481   7.577  -0.481  0.5253 -0.6336 -0.2221
 1024MOL0     C38134  13.628   7.591  -0.491 -0.3228 -0.4131 -0.0161
 1024MOL0     O38135  13.677   7.674  -0.593 -0.3608 -0.8538 -0.2112
 1024MOL0     C38136  13.813   7.690  -0.608 -0.5354 -0.4129 -0.4131
 1024MOL0     C38137  13.893   7.731  -0.500  0.3268  0.3279  0.1170
 1024MOL0     C38138  14.033   7.739  -0.509  0.3098 -0.8024  0.3234
 1024MOL0     C38139  14.099   7.717  -0.631  0.7908 -0.3010  1.4477
 1024MOL0     O38140  14.226   7.757  -0.665 -0.3117 -0.2195  0.0480
 1024MOL0     C38141  14.304   7.809  -0.552  0.5260  0.2685  0.3555
 1024MOL0     C38142  14.439   7.867  -0.595  1.4100 -0.1788 -0.1614
 1024MOL0     C38143  14.473   8.003  -0.529  0.6811 -0.1735  0.5281
 1024MOL0     C38144  14.608   8.052  -0.583 -0.0188  0.3541 -0.3396
 1024MOL0     C38145  14.641   8.192  -0.517  0.7215  1.1293  0.5917
 1024MOL0     C38146  14.770   8.251  -0.572 -0.1350 -0.1791  0.2625
 1024MOL0     C38147  14.905   8.183  -0.541 -0.0288  0.7319 -0.1218
 1024MOL0     C38148  14.919   8.145  -0.387  1.2327  0.4194 -0.4495
 1024MOL0    Cl38149  15.086   8.137  -0.334  0.2745  0.2709 -0.2389
 1024MOL0     C38150  14.012   7.684  -0.744  0.0928  0.1223  0.7485
 1024MOL0     C38151  13.876   7.658  -0.729  0.2376 -0.0458  0.8669
 1024MOL0     O38152  13.697   7.518  -0.416 -0.6503  1.1791  0.1403
 1024MOL0     C38153  13.414   7.482  -0.407 -0.4417 -0.1132  0.4459
 1024MOL0     C38154  13.270   7.467  -0.404  0.4730 -0.2741 -0.3004
 1024MOL0     N38155  12.486   7.528  -0.349 -0.1775 -0.4453 -0.3194
 1024MOL0     N38156  12.412   7.441  -0.406 -0.7190 -0.0850 -0.2315
 1024MOL0     C38157  11.590   7.790   0.027  0.8684 -0.1442 -0.5647
 1024MOL0     C38158  11.475   7.726   0.064 -0.4945  0.1868 -0.2855
 1024MOL0     C38159  11.104   7.550   0.234 -0.3691 -0.1215 -0.0157
 1024MOL0     C38160  11.023   7.666   0.232  0.5664  0.6820  0.2416
 1024MOL0     C38161  10.880   7.658   0.232 -0.7886  0.2914 -0.9535
 1024MOL0     C38162  10.820   7.531   0.221  0.5584  0.5742  0.1869
 1024MOL0     O38163  10.688   7.506   0.214 -0.4501 -0.3956  0.7429
 1024MOL0     C38164  10.605   7.623   0.212 -0.7545  0.6615 -0.2449
 1024MOL0     C38165  10.460   7.580   0.212  0.2408  0.1354 -0.4129
 1024MOL0     C38166  10.383   7.710   0.185 -0.3207 -1.0066 -0.1015
 1024MOL0     C38167  10.249   7.675   0.115 -0.6370 -0.4902 -0.2713
 1024MOL0     C38168  10.158   7.603   0.204 -0.5626  0.5048 -0.0364
 1024MOL0     C38169  10.100   7.552   0.302  0.4164  0.2750 -0.3322
 1024MOL0     C38170  10.898   7.417   0.240 -0.2422  0.6965  0.0963
 1024MOL0     C38171  11.042   7.424   0.252  0.0115 -0.3060  0.3446
 1024MOL0     C38172  11.115   7.303   0.275 -0.0220  0.9316 -0.1300
 1024MOL0     H38173  11.408   7.862   0.363  0.9113  1.8539 -0.2227
 1024MOL0     H38174  11.641   7.961   0.321 -0.2452 -0.8793  1.3592
 1024MOL0     H38175  11.963   7.905   0.119  0.9810 -0.8129 -1.5251
 1024MOL0     H38176  11.849   7.762   0.098 -1.3184 -0.2224  0.8244
 1024MOL0     H38177  11.971   7.965  -0.090 -1.9320  0.2318 -1.8910
 1024MOL0     H38178  11.828   7.869  -0.142  1.7102 -2.6491 -2.0989
 1024MOL0     H38179  11.953   7.669  -0.084  1.2630 -0.9518  0.9505
 1024MOL0     H38180  12.097   7.770  -0.057  0.9596  2.7996  0.1402
 1024MOL0     H38181  11.927   7.743  -0.320  0.9386 -1.2407 -1.1527
 1024MOL0     H38182  12.078   7.847  -0.295  1.3787 -1.8764 -1.9802
 1024MOL0     H38183  12.201   7.625  -0.268  0.3412  0.6921 -0.9526
 1024MOL0     H38184  12.044   7.546  -0.266  2.0766 -0.2580  1.2015
 1024MOL0     H38185  12.010   7.638  -0.506  0.0358 -1.3992  1.1805
 1024MOL0     H38186  12.184   7.678  -0.485  1.0103 -0.8786 -0.6834
 1024MOL0     H38187  12.054   7.432  -0.566 -0.2467 -0.6232  0.4565
 1024MOL0     H38188  12.144   7.394  -0.431 -0.3907 -2.8589 -2.8017
 1024MOL0     H38189  12.272   7.360  -0.633 -3.0322  0.1543 -0.7622
 1024MOL0     H38190  12.262   7.525  -0.688  3.0794 -1.2851 -0.5391
 1024MOL0     H38191  12.436   7.692  -0.626 -1.1445  1.3615  2.5260
 1024MOL0     H38192  12.546   7.842  -0.413 -0.3461 -0.4971 -2.5626
 1024MOL0     H38193  12.625   7.734  -0.292 -1.0153  2.6889  0.4890
 1024MOL0     H38194  12.719   7.704  -0.580 -2.1019 -3.5728  2.5439
 1024MOL0     H38195  12.788   7.845  -0.504  1.4280 -0.5792 -1.0902
 1024MOL0     H38196  12.811   7.562  -0.399 -0.3068 -0.0515 -0.0236
 1024MOL0     H38197  12.854   7.709  -0.302 -0.3749 -1.1549  0.5952
 1024MOL0     H38198  13.009   7.769  -0.477  0.3768  0.2596 -1.1357
 1024MOL0     H38199  12.956   7.647  -0.588  0.7504 -1.2229 -0.2669
 1024MOL0     H38200  13.193   7.716  -0.613  0.1317 -1.9131 -1.9137
 1024MOL0     H38201  13.443   7.728  -0.625  1.2198 -3.8713 -3.4410
 1024MOL0     H38202  13.847   7.754  -0.405  0.7549 -0.1224  0.4378
 1024MOL0     H38203  14.082   7.756  -0.414 -1.0067  1.7953  0.6223
 1024MOL0     H38204  14.242   7.881  -0.498  0.2629 -0.4559  1.0408
 1024MOL0     H38205  14.339   7.731  -0.483 -1.7048 -0.5435  0.6557
 1024MOL0     H38206  14.515   7.793  -0.570 -0.3107 -1.9843 -0.0121
 1024MOL0     H38207  14.436   7.883  -0.703 -2.2797 -0.2513 -0.1962
 1024MOL0     H38208  14.399   8.082  -0.548  0.7412  0.8991  4.0345
 1024MOL0     H38209  14.471   8.003  -0.419 -1.1568 -1.6412  0.5420
 1024MOL0     H38210  14.600   8.054  -0.692  1.7724  1.0824 -0.4895
 1024MOL0     H38211  14.687   7.977  -0.571  2.0890  2.1001 -2.4165
 1024MOL0     H38212  14.647   8.171  -0.410  0.3579 -0.4639  0.3254
 1024MOL0     H38213  14.559   8.265  -0.528  0.9489  1.4084  0.7466
 1024MOL0     H38214  14.754   8.285  -0.675  0.5356  3.1686  1.1489
 1024MOL0     H38215  14.780   8.352  -0.532  1.8570 -0.0660 -0.4248
 1024MOL0     H38216  14.986   8.253  -0.561  1.1666 -1.0302 -1.7881
 1024MOL0     H38217  14.916   8.090  -0.597 -1.6824 -0.0439  0.7516
 1024MOL0     H38218  14.859   8.209  -0.321 -0.9831 -1.1210 -0.8547
 1024MOL0     H38219  14.867   8.050  -0.372  0.3404  0.6460 -1.9274
 1024MOL0     H38220  14.049   7.685  -0.847 -0.2005 -1.1113  0.6122
 1024MOL0     H38221  13.819   7.613  -0.810  1.2679 -2.9497  1.6375
 1024MOL0     H38222  13.464   7.423  -0.330 -1.1234  0.2109  1.1526
 1024MOL0     H38223  13.214   7.390  -0.353 -2.1575  0.8287 -1.3662
 1024MOL0     H38224  11.625   7.776  -0.075  2.2325 -2.5618  0.1294
 1024MOL0     H38225  11.425   7.666  -0.012 -0.7344 -1.6654  1.2642
 1024MOL0     H38226  11.066   7.766   0.236  0.6510  0.6005  3.3791
 1024MOL0     H38227  10.832   7.755   0.234  0.8449  1.1283  0.4213
 1024MOL0     H38228  10.635   7.677   0.121  0.4023  0.0181 -0.2571
 1024MOL0     H38229  10.618   7.683   0.302 -3.0763 -0.4978  0.9504
 1024MOL0     H38230  10.429   7.537   0.308 -0.7856 -0.0095 -0.7980
 1024MOL0     H38231  10.453   7.500   0.138 -2.7131  1.4946 -1.7770
 1024MOL0     H38232  10.425   7.776   0.108 -4.3552  0.5490 -1.2457
 1024MOL0     H38233  10.379   7.783   0.266  1.5468  1.4655 -2.0554
 1024MOL0     H38234  10.197   7.767   0.085  1.0513  0.5397 -0.1478
 1024MOL0     H38235  10.279   7.626   0.022  1.1628  1.2487 -0.6814
 1024MOL0     H38236  10.050   7.507   0.385 -1.4372 -0.6116 -1.8474
 1024MOL0     H38237  10.858   7.317   0.252  3.8893 -0.9886  2.1670
 1024MOL0     H38238  11.187   7.329   0.353  1.5224 -2.4796 -0.2111
 1024MOL0     H38239  11.048   7.225   0.314 -0.9033  1.0388 -1.3668
 1024MOL0     H38240  11.176   7.275   0.189  0.8186  2.4490 -0.0599
  11.32363  11.32363  11.32363
